Title
43125
    1CHL1    C3    1   3.563   0.398   6.559 -0.1268  0.6292  0.0693
    1CHL1    H3    2   3.634   0.463   6.505  3.7453 -0.9921  2.7170
    1CHL1    O3    3   3.504   0.443   6.683 -0.6643  0.5762  0.3763
    1CHL1   H3'    4   3.436   0.380   6.707  0.2846 -0.2678  0.9350
    1CHL1    C4    5   3.446   0.358   6.461 -0.3231  0.2244  0.5763
    1CHL1   H4A    6   3.376   0.290   6.513  0.1557  1.2648  2.6819
    1CHL1   H4B    7   3.387   0.451   6.453  0.1303  0.3681 -2.2320
    1CHL1    C5    8   3.497   0.298   6.326 -0.8276 -0.2834  0.5134
    1CHL1    C6    9   3.463   0.359   6.211 -0.1301  0.5749  0.0731
    1CHL1    H6   10   3.396   0.445   6.215 -0.6083  0.2804 -1.2173
    1CHL1    C7   11   3.512   0.323   6.076 -0.1007  0.1720 -0.5682
    1CHL1   H7A   12   3.435   0.317   5.996  0.3345  0.0809 -0.9841
    1CHL1   H7B   13   3.585   0.402   6.045  1.0683 -0.4767  0.4105
    1CHL1    C8   14   3.580   0.185   6.078  0.1169  0.0910  0.3211
    1CHL1    H8   15   3.492   0.116   6.082  1.4324 -1.6384  0.6029
    1CHL1   C14   16   3.662   0.163   5.949 -0.1205  0.9610 -0.0851
    1CHL1   H14   17   3.749   0.231   5.945 -0.4635  1.3148 -2.2758
    1CHL1   C15   18   3.596   0.191   5.809  0.1921  0.6982 -0.2970
    1CHL1  H15A   19   3.502   0.132   5.806 -0.4550  1.6942 -0.1519
    1CHL1  H15B   20   3.574   0.299   5.796 -1.6954  0.2565 -1.1816
    1CHL1   C16   21   3.698   0.133   5.710 -0.1410  0.5438 -0.2098
    1CHL1  H16A   22   3.631   0.078   5.641 -3.1898  1.0377  2.1364
    1CHL1  H16B   23   3.756   0.216   5.664  0.2171  0.3655 -0.0793
    1CHL1   C17   24   3.791   0.045   5.795 -0.6892  1.0293 -0.1845
    1CHL1   H17   25   3.879   0.107   5.824 -0.4426 -0.3040  2.1828
    1CHL1   C13   26   3.728   0.025   5.938 -0.4097 -0.2077 -0.1522
    1CHL1   C18   27   3.615  -0.087   5.931  0.6212  0.1193  0.0182
    1CHL1  H18A   28   3.537  -0.073   6.010  2.1592  4.9475  1.0084
    1CHL1  H18B   29   3.556  -0.082   5.837  1.1732  0.4625 -0.3154
    1CHL1  H18C   30   3.651  -0.192   5.940 -4.5004 -1.9712 -0.2866
    1CHL1   C12   31   3.826   0.008   6.054  0.1155 -0.1480  1.0690
    1CHL1  H12A   32   3.876  -0.090   6.045 -0.5454 -0.8024  3.6629
    1CHL1  H12B   33   3.904   0.087   6.050 -0.6031  0.5349 -1.1794
    1CHL1   C11   34   3.750   0.021   6.190 -0.0461 -0.2812  0.7589
    1CHL1  H11A   35   3.673  -0.058   6.190 -0.2980 -0.0439 -0.0922
    1CHL1  H11B   36   3.813  -0.009   6.277 -1.3974 -3.4562  0.7883
    1CHL1    C9   37   3.673   0.158   6.197  0.0277 -0.3074 -0.7295
    1CHL1    H9   38   3.743   0.243   6.185 -0.6553  0.2929 -0.5039
    1CHL1   C10   39   3.599   0.179   6.341  0.5729  0.0062  0.1203
    1CHL1   C19   40   3.530   0.046   6.383  0.1576  0.3565  0.1755
    1CHL1  H19A   41   3.608  -0.027   6.415  0.8476  0.3291 -1.4483
    1CHL1  H19B   42   3.463   0.059   6.471  1.1613  2.0922  0.7315
    1CHL1  H19C   43   3.481  -0.017   6.306  1.4551 -0.1401 -0.2692
    1CHL1    C1   44   3.714   0.212   6.445  0.5146 -0.1974  0.1883
    1CHL1   H1A   45   3.780   0.124   6.460  0.6715 -0.0599  0.2964
    1CHL1   H1B   46   3.767   0.300   6.402  0.7463 -0.4549 -0.0584
    1CHL1    C2   47   3.654   0.270   6.580 -0.0345  0.7706  0.5297
    1CHL1   H2A   48   3.738   0.293   6.649  0.2449  0.0948  0.4210
    1CHL1   H2B   49   3.590   0.188   6.620  4.2765 -2.3780  1.6872
    1CHL1   C20   50   3.843  -0.078   5.717 -0.2117  0.0822 -1.0167
    1CHL1   H20   51   3.752  -0.133   5.686 -0.6391  1.1331 -1.6798
    1CHL1   C21   52   3.934  -0.176   5.800  0.0062 -0.4288  0.3289
    1CHL1  H21A   53   3.996  -0.219   5.718 -0.5929  2.4989 -1.8358
    1CHL1  H21B   54   3.867  -0.254   5.844 -0.2310 -0.5634 -0.2600
    1CHL1  H21C   55   4.003  -0.124   5.870 -0.5795  0.5777  0.1817
    1CHL1   C22   56   3.920  -0.048   5.582  0.0344  0.2353  1.1059
    1CHL1  H22A   57   3.875   0.041   5.532  1.7365  0.7676  0.4335
    1CHL1  H22B   58   4.025  -0.021   5.608  0.0503 -0.0796  1.3678
    1CHL1   C23   59   3.908  -0.165   5.475 -0.2956 -0.0706  0.0605
    1CHL1  H23A   60   3.951  -0.261   5.508  0.5712 -0.2671 -1.5570
    1CHL1  H23B   61   3.797  -0.175   5.474 -0.3066 -0.2973  1.4438
    1CHL1   C24   62   3.964  -0.141   5.340 -0.4740  0.8311  0.9885
    1CHL1  H24A   63   3.887  -0.091   5.277 -0.4016  2.1332  1.9069
    1CHL1  H24B   64   4.058  -0.082   5.351  2.4572 -2.8970 -1.3418
    1CHL1   C25   65   4.001  -0.282   5.267 -0.0312 -0.0947 -0.4527
    1CHL1   H25   66   4.078  -0.321   5.337  0.8900 -0.1788 -1.4860
    1CHL1   C26   67   3.881  -0.386   5.273 -0.4713  0.1029  0.0023
    1CHL1  H26A   68   3.918  -0.474   5.216  0.3837  1.9806 -2.5418
    1CHL1  H26B   69   3.849  -0.413   5.376  0.2561  0.2613  0.2706
    1CHL1  H26C   70   3.802  -0.332   5.216  1.9816  2.4439 -1.4055
    1CHL1   C27   71   4.050  -0.267   5.120 -0.4609 -0.1268 -0.4482
    1CHL1  H27A   72   3.975  -0.200   5.074  0.1783  0.9373  0.0412
    1CHL1  H27B   73   4.149  -0.217   5.126 -0.8308  0.5601  0.0697
    1CHL1  H27C   74   4.071  -0.366   5.073 -1.5496  0.1424 -1.5450
    2CHL1    C3   75   5.701   0.709   6.558  0.2156 -0.5898  0.1363
    2CHL1    H3   76   5.677   0.611   6.510 -1.8514 -0.4151  0.6983
    2CHL1    O3   77   5.691   0.679   6.697 -0.0312  0.2456  0.4438
    2CHL1   H3'   78   5.706   0.585   6.702 -2.1899 -0.0943  4.0741
    2CHL1    C4   79   5.838   0.763   6.524  0.7284  0.8186 -0.2171
    2CHL1   H4A   80   5.859   0.861   6.573  0.9898 -0.2276  1.8457
    2CHL1   H4B   81   5.909   0.685   6.556 -0.8481 -1.5650 -2.1510
    2CHL1    C5   82   5.837   0.781   6.374  0.1212  0.2487  0.2330
    2CHL1    C6   83   5.925   0.708   6.303  0.2205  0.4170 -0.4971
    2CHL1    H6   84   5.984   0.632   6.358  0.1089  1.2526  0.8279
    2CHL1    C7   85   5.940   0.720   6.159 -0.2508 -0.5305  0.3188
    2CHL1   H7A   86   6.043   0.702   6.121 -0.4717 -0.8086 -0.1508
    2CHL1   H7B   87   5.876   0.639   6.120 -1.2551  0.1433  0.5340
    2CHL1    C8   88   5.880   0.847   6.096  0.1585  1.1373  0.2976
    2CHL1    H8   89   5.950   0.930   6.121  1.3380  0.0225  0.8212
    2CHL1   C14   90   5.870   0.852   5.947  0.1977 -0.3987  0.2881
    2CHL1   H14   91   5.802   0.770   5.915  1.0663 -1.6615  1.5515
    2CHL1   C15   92   6.004   0.825   5.882 -0.2336  0.1088  0.4559
    2CHL1  H15A   93   6.090   0.859   5.944 -0.8431  0.7342  0.9633
    2CHL1  H15B   94   6.024   0.716   5.875  1.3915  0.4434 -1.0712
    2CHL1   C16   95   6.000   0.887   5.740  0.3696 -0.5067 -0.2802
    2CHL1  H16A   96   6.075   0.970   5.736  0.4530 -0.6298 -2.4108
    2CHL1  H16B   97   6.021   0.816   5.657  0.1233  0.5407 -1.2603
    2CHL1   C17   98   5.852   0.938   5.734  0.1629  0.2326 -0.0327
    2CHL1   H17   99   5.797   0.845   5.709  0.6060  0.2906 -1.3176
    2CHL1   C13  100   5.819   0.973   5.876  0.7453  0.3496 -0.0091
    2CHL1   C18  101   5.909   1.093   5.922 -0.4935  1.0464 -0.0970
    2CHL1  H18A  102   6.014   1.089   5.887  0.4813 -0.8431  2.7434
    2CHL1  H18B  103   5.849   1.171   5.870 -3.3504 -2.4444 -2.5783
    2CHL1  H18C  104   5.916   1.108   6.032 -1.3010  0.4722  0.0427
    2CHL1   C12  105   5.670   0.991   5.924 -0.6423  0.2807  0.0685
    2CHL1  H12A  106   5.628   1.084   5.878 -0.1771 -0.1318 -1.2285
    2CHL1  H12B  107   5.614   0.909   5.873  0.2299 -0.0901 -0.3076
    2CHL1   C11  108   5.663   0.996   6.082 -0.0257  0.7368 -0.0233
    2CHL1  H11A  109   5.725   1.087   6.099  1.6745 -0.0458 -1.7435
    2CHL1  H11B  110   5.557   1.000   6.117  0.0938 -0.8049  0.5545
    2CHL1    C9  111   5.735   0.871   6.148 -1.0305  0.5123 -0.6996
    2CHL1    H9  112   5.666   0.787   6.126 -2.5817  1.0016  1.8259
    2CHL1   C10  113   5.732   0.874   6.306  0.4390 -0.8908 -0.2310
    2CHL1   C19  114   5.762   1.015   6.360  0.7895 -0.2088 -0.2502
    2CHL1  H19A  115   5.689   1.089   6.321 -0.4982 -0.5372  1.3714
    2CHL1  H19B  116   5.772   1.031   6.470 -0.5160  0.7494 -0.2452
    2CHL1  H19C  117   5.856   1.050   6.313 -0.5107  1.4440 -1.7497
    2CHL1    C1  118   5.588   0.838   6.361 -0.5023  0.2611  0.1792
    2CHL1   H1A  119   5.528   0.929   6.338  1.9786  1.3487 -2.7838
    2CHL1   H1B  120   5.552   0.748   6.307 -1.1652 -0.0559  1.1375
    2CHL1    C2  121   5.584   0.807   6.513 -0.5344 -0.0735  0.4940
    2CHL1   H2A  122   5.487   0.763   6.546 -0.6479  0.1213  0.4256
    2CHL1   H2B  123   5.614   0.901   6.565  0.1098  0.9952 -1.7223
    2CHL1   C20  124   5.833   1.032   5.615 -0.2760  0.9393 -0.3700
    2CHL1   H20  125   5.887   1.123   5.649  0.3610  0.3253  0.3030
    2CHL1   C21  126   5.689   1.057   5.577  0.5186 -0.5170  0.4395
    2CHL1  H21A  127   5.620   0.970   5.580 -3.4451  2.3549 -0.3346
    2CHL1  H21B  128   5.678   1.100   5.475 -1.4655 -0.6734  0.5589
    2CHL1  H21C  129   5.645   1.124   5.653  0.8488 -0.3441  0.4792
    2CHL1   C22  130   5.900   0.977   5.486  0.2898 -0.2615  0.0441
    2CHL1  H22A  131   5.885   1.048   5.402  1.4218 -0.0298  0.0216
    2CHL1  H22B  132   6.011   0.977   5.490  0.3586  2.5507 -0.1537
    2CHL1   C23  133   5.852   0.838   5.449 -0.0659 -0.1234  0.2033
    2CHL1  H23A  134   5.866   0.760   5.527  0.5632  0.3230  0.5407
    2CHL1  H23B  135   5.743   0.840   5.426  0.1322 -0.8284 -0.9039
    2CHL1   C24  136   5.918   0.772   5.321 -0.5801 -0.1449  0.3984
    2CHL1  H24A  137   5.881   0.818   5.226  0.7266 -0.4418 -0.2815
    2CHL1  H24B  138   6.026   0.793   5.331 -0.7484  0.8836  0.1102
    2CHL1   C25  139   5.911   0.616   5.300 -0.1389 -0.0139  0.4363
    2CHL1   H25  140   5.949   0.574   5.395 -1.6089  0.6876  1.3790
    2CHL1   C26  141   5.767   0.568   5.274  0.0410  0.1907 -0.3772
    2CHL1  H26A  142   5.739   0.588   5.169  1.5905 -0.8158 -1.0119
    2CHL1  H26B  143   5.772   0.457   5.276 -1.1636  0.0787  2.5837
    2CHL1  H26C  144   5.703   0.615   5.352  0.8297  1.3638 -0.4089
    2CHL1   C27  145   6.002   0.566   5.182 -0.1078 -0.1560 -0.5116
    2CHL1  H27A  146   5.977   0.617   5.086 -1.1836 -0.9856 -0.6933
    2CHL1  H27B  147   6.109   0.586   5.204  0.3976 -0.7271 -2.2106
    2CHL1  H27C  148   5.985   0.456   5.178 -0.5274 -0.3058  2.7542
    3CHL1    C3  149   5.166   0.558   6.437  0.1477  0.9628  0.8874
    3CHL1    H3  150   5.061   0.591   6.451 -0.6607 -0.6941 -0.9022
    3CHL1    O3  151   5.209   0.487   6.551  0.1344 -0.4892 -0.0578
    3CHL1   H3'  152   5.252   0.557   6.601 -0.9436  0.8577 -0.9269
    3CHL1    C4  153   5.166   0.461   6.312  0.0697  0.4236 -0.6407
    3CHL1   H4A  154   5.272   0.426   6.305  0.2461  1.2605 -3.5433
    3CHL1   H4B  155   5.094   0.381   6.336 -0.4552  1.1361  0.2492
    3CHL1    C5  156   5.140   0.537   6.186  0.3560 -0.6130 -0.2006
    3CHL1    C6  157   5.041   0.512   6.100 -0.0477  0.7693 -0.4172
    3CHL1    H6  158   4.966   0.435   6.122  0.4275  0.2584 -0.5574
    3CHL1    C7  159   5.011   0.575   5.969 -0.3120  0.6237 -0.4595
    3CHL1   H7A  160   4.994   0.494   5.896 -3.0699 -0.8837  1.6826
    3CHL1   H7B  161   4.926   0.645   5.987 -1.5657 -1.1620  0.8628
    3CHL1    C8  162   5.134   0.658   5.921  0.0154 -0.8161 -0.7541
    3CHL1    H8  163   5.215   0.598   5.874  0.8358  1.0286 -1.8171
    3CHL1   C14  164   5.093   0.755   5.807 -0.6692  0.5258  0.7496
    3CHL1   H14  165   5.014   0.824   5.845  1.9908  3.5773  1.1700
    3CHL1   C15  166   5.033   0.694   5.685 -0.0041 -0.1840 -0.5230
    3CHL1  H15A  167   5.090   0.605   5.652 -2.1501 -2.2546  1.0899
    3CHL1  H15B  168   4.926   0.667   5.692  0.3959 -1.8598 -0.5331
    3CHL1   C16  169   5.050   0.812   5.580 -0.6812 -0.5688  0.0392
    3CHL1  H16A  170   5.106   0.756   5.502  1.2318  1.3660 -0.0544
    3CHL1  H16B  171   4.959   0.854   5.532 -1.3717 -1.3273  0.6490
    3CHL1   C17  172   5.139   0.922   5.644  0.2869  0.4258 -0.7872
    3CHL1   H17  173   5.067   0.989   5.695  3.3534  2.5778  1.0352
    3CHL1   C13  174   5.206   0.849   5.756 -0.4705 -0.0097  0.3249
    3CHL1   C18  175   5.325   0.770   5.689 -0.2203  0.5245  0.4537
    3CHL1  H18A  176   5.298   0.710   5.599  2.1580 -2.2528  1.4361
    3CHL1  H18B  177   5.420   0.824   5.669  1.6072 -2.1037  1.4278
    3CHL1  H18C  178   5.353   0.693   5.763  0.0453 -0.2903 -0.4663
    3CHL1   C12  179   5.265   0.937   5.876  0.5059 -0.5682  0.4407
    3CHL1  H12A  180   5.360   0.987   5.850 -0.7247  1.7967  0.2703
    3CHL1  H12B  181   5.188   1.012   5.905 -0.8960 -1.2907 -1.1884
    3CHL1   C11  182   5.301   0.849   5.998 -0.1144  0.0779  0.3303
    3CHL1  H11A  183   5.398   0.799   5.978 -0.0302  0.4929 -0.3530
    3CHL1  H11B  184   5.308   0.917   6.085  1.1535  2.9520 -1.8409
    3CHL1    C9  185   5.188   0.742   6.043 -0.1158 -0.4550  0.1085
    3CHL1    H9  186   5.107   0.811   6.076 -0.2187  0.1575 -1.3223
    3CHL1   C10  187   5.227   0.661   6.163 -0.8413  0.0729 -0.3789
    3CHL1   C19  188   5.368   0.601   6.124  0.7064  0.0652 -0.5270
    3CHL1  H19A  189   5.448   0.675   6.104  0.7600  0.0723 -0.2935
    3CHL1  H19B  190   5.426   0.545   6.201  3.8022  2.3840 -0.9784
    3CHL1  H19C  191   5.369   0.538   6.033  3.0344 -1.0922  0.2238
    3CHL1    C1  192   5.237   0.753   6.289 -1.3299  0.0302  0.1158
    3CHL1   H1A  193   5.321   0.825   6.278 -0.7626 -1.0169 -3.6227
    3CHL1   H1B  194   5.147   0.818   6.289  0.2345  2.3301  0.1326
    3CHL1    C2  195   5.258   0.676   6.424 -0.1281  0.7489  0.0797
    3CHL1   H2A  196   5.221   0.739   6.507 -2.4215  1.5704 -1.4568
    3CHL1   H2B  197   5.365   0.645   6.430  0.8077  3.6189 -0.1249
    3CHL1   C20  198   5.217   1.017   5.557  0.0756 -0.0228 -0.7234
    3CHL1   H20  199   5.292   1.070   5.619  0.0841 -1.3021  0.4155
    3CHL1   C21  200   5.113   1.123   5.507 -0.0335 -0.2141 -0.3529
    3CHL1  H21A  201   5.027   1.077   5.453  1.4082 -2.6879 -0.7117
    3CHL1  H21B  202   5.169   1.189   5.439 -0.3940 -0.5815 -1.0140
    3CHL1  H21C  203   5.070   1.181   5.592 -1.3018  1.8910 -2.3385
    3CHL1   C22  204   5.291   0.955   5.430 -0.0909  0.2919 -0.0514
    3CHL1  H22A  205   5.351   0.864   5.451 -0.9306 -0.0581  0.9067
    3CHL1  H22B  206   5.203   0.924   5.370 -0.4220 -0.0752  0.6141
    3CHL1   C23  207   5.380   1.053   5.351  0.0216 -0.3334  0.2772
    3CHL1  H23A  208   5.306   1.125   5.308  0.8373  0.7338  0.6207
    3CHL1  H23B  209   5.448   1.111   5.417  1.5125 -0.6166 -0.9636
    3CHL1   C24  210   5.450   0.998   5.228 -0.4598 -0.2374 -0.0244
    3CHL1  H24A  211   5.537   0.934   5.253 -1.0963 -2.5146 -3.0331
    3CHL1  H24B  212   5.375   0.927   5.185 -0.4936 -0.6356  0.6751
    3CHL1   C25  213   5.484   1.115   5.133 -0.4952 -0.5054 -0.4803
    3CHL1   H25  214   5.391   1.176   5.128  0.1183  0.6170  1.0400
    3CHL1   C26  215   5.596   1.198   5.192 -0.6341  0.3684 -0.2439
    3CHL1  H26A  216   5.635   1.266   5.113 -2.9731  0.1624 -1.6509
    3CHL1  H26B  217   5.560   1.266   5.271  0.5183  1.3900 -0.5605
    3CHL1  H26C  218   5.681   1.138   5.231 -0.3686  0.6406 -0.3974
    3CHL1   C27  219   5.529   1.062   4.995 -0.0572 -1.1538 -0.4715
    3CHL1  H27A  220   5.610   0.987   5.004  0.6951 -0.2111  0.9603
    3CHL1  H27B  221   5.435   1.027   4.946  1.1824 -4.4492 -0.7401
    3CHL1  H27C  222   5.571   1.144   4.934 -0.7204  0.9780  1.7641
    4CHL1    C3  223   3.039   0.502   6.716  0.1897 -0.2122 -0.5856
    4CHL1    H3  224   3.150   0.508   6.714  0.1898  0.2804 -3.4441
    4CHL1    O3  225   2.991   0.464   6.849  0.4396  0.1606 -0.4954
    4CHL1   H3'  226   3.057   0.503   6.907  0.3033  1.8082 -1.3999
    4CHL1    C4  227   2.979   0.632   6.666  0.2510 -0.7236 -0.9928
    4CHL1   H4A  228   2.870   0.615   6.675  0.3934 -1.4632 -0.5513
    4CHL1   H4B  229   3.008   0.705   6.744  2.8767 -0.6606 -1.9399
    4CHL1    C5  230   3.034   0.676   6.527 -0.1757  0.2239 -0.4448
    4CHL1    C6  231   3.104   0.792   6.502  0.1304  0.5016 -0.2146
    4CHL1    H6  232   3.116   0.862   6.586 -1.6831 -0.8123  1.2441
    4CHL1    C7  233   3.153   0.828   6.364 -0.0238 -0.2342 -0.5938
    4CHL1   H7A  234   3.131   0.933   6.337 -2.2205 -0.3705  0.4024
    4CHL1   H7B  235   3.261   0.803   6.363 -0.0555 -0.5860  1.0114
    4CHL1    C8  236   3.084   0.739   6.254 -0.0842  0.0873 -0.6134
    4CHL1    H8  237   2.978   0.773   6.255 -0.9124 -2.2675 -1.1138
    4CHL1   C14  238   3.144   0.764   6.125 -0.5871 -0.8337 -0.3160
    4CHL1   H14  239   3.248   0.726   6.140  0.3235 -0.2802 -4.0272
    4CHL1   C15  240   3.157   0.900   6.069  0.6692  0.0970 -0.5332
    4CHL1  H15A  241   3.066   0.956   6.100  1.4136  0.9199  0.2316
    4CHL1  H15B  242   3.244   0.948   6.119  0.3863  0.1379 -0.0801
    4CHL1   C16  243   3.184   0.890   5.918  0.0850 -0.5823 -0.1301
    4CHL1  H16A  244   3.113   0.958   5.866  1.1389 -0.6054 -1.6571
    4CHL1  H16B  245   3.281   0.939   5.893 -0.1773 -0.1187 -0.2579
    4CHL1   C17  246   3.187   0.738   5.891 -0.1388  0.4129 -0.2015
    4CHL1   H17  247   3.286   0.701   5.926 -0.6201  0.4992  1.3145
    4CHL1   C13  248   3.099   0.684   6.006  0.2954  0.5707 -0.1859
    4CHL1   C18  249   2.952   0.715   5.973 -0.2957  0.2671  0.4162
    4CHL1  H18A  250   2.904   0.650   5.897  0.5637  0.5532 -0.3920
    4CHL1  H18B  251   2.903   0.697   6.071 -0.1959  1.6014  0.7287
    4CHL1  H18C  252   2.937   0.818   5.933 -1.4776  0.9638  2.4665
    4CHL1   C12  253   3.110   0.529   6.039 -0.0875  0.1148  0.4673
    4CHL1  H12A  254   3.079   0.472   5.949 -2.4693  0.4961  0.9695
    4CHL1  H12B  255   3.216   0.503   6.061 -0.7962 -2.4538  1.2605
    4CHL1   C11  256   3.031   0.500   6.174  0.6379  0.9202  0.4042
    4CHL1  H11A  257   2.925   0.514   6.143  0.3199  1.5903  1.7441
    4CHL1  H11B  258   3.052   0.392   6.188 -1.7829  0.5334  1.6640
    4CHL1    C9  259   3.088   0.588   6.287  0.0727 -0.2218 -0.0384
    4CHL1    H9  260   3.190   0.555   6.316 -0.4987  0.5708  3.3890
    4CHL1   C10  261   3.011   0.565   6.415  0.2454  0.6100 -0.8946
    4CHL1   C19  262   2.862   0.574   6.390  0.1244 -0.0525  0.2397
    4CHL1  H19A  263   2.801   0.557   6.481  0.1940  4.8954  1.4514
    4CHL1  H19B  264   2.825   0.673   6.356 -2.9578 -0.9149  0.7742
    4CHL1  H19C  265   2.831   0.504   6.309 -2.2976 -1.1623  2.0231
    4CHL1    C1  266   3.047   0.425   6.475  0.1381  0.3962  0.0312
    4CHL1   H1A  267   3.026   0.334   6.414 -1.6333  1.3728 -0.8854
    4CHL1   H1B  268   3.157   0.430   6.491  0.1506  0.7312 -0.1625
    4CHL1    C2  269   2.984   0.400   6.616  0.9684  0.0495 -0.7698
    4CHL1   H2A  270   3.015   0.297   6.645 -2.1449 -0.8076 -0.1288
    4CHL1   H2B  271   2.874   0.406   6.604  0.8908 -0.9954 -0.6810
    4CHL1   C20  272   3.155   0.705   5.746 -0.2335 -0.1281  0.2689
    4CHL1   H20  273   3.044   0.711   5.742 -0.2171 -0.0325 -0.0247
    4CHL1   C21  274   3.197   0.562   5.702 -0.3554  0.1084 -0.1250
    4CHL1  H21A  275   3.306   0.545   5.686 -0.4915 -0.2042 -0.7505
    4CHL1  H21B  276   3.150   0.522   5.609  2.0192 -2.7801 -0.2323
    4CHL1  H21C  277   3.166   0.489   5.780 -1.5790 -1.0203 -1.6156
    4CHL1   C22  278   3.215   0.808   5.640  0.0445 -0.0361  0.3359
    4CHL1  H22A  279   3.180   0.910   5.667 -2.2009 -0.7201  0.2304
    4CHL1  H22B  280   3.326   0.817   5.636 -0.0554  1.0019 -3.0038
    4CHL1   C23  281   3.160   0.779   5.504 -0.1352 -0.3794  0.0549
    4CHL1  H23A  282   3.202   0.682   5.469 -0.0351 -0.8603  1.4606
    4CHL1  H23B  283   3.051   0.770   5.526  0.0601  0.0076  1.2126
    4CHL1   C24  284   3.189   0.889   5.394  0.2888  0.4109 -0.7477
    4CHL1  H24A  285   3.135   0.980   5.427  1.4372  1.5302 -1.8200
    4CHL1  H24B  286   3.295   0.923   5.390 -0.4269  2.7365 -1.6306
    4CHL1   C25  287   3.125   0.858   5.251  0.0420  0.7494  0.6247
    4CHL1   H25  288   3.017   0.837   5.258 -0.4188  2.5236 -0.4780
    4CHL1   C26  289   3.138   0.975   5.152  0.1740  0.8980  0.8673
    4CHL1  H26A  290   3.090   1.065   5.197 -1.1817  0.4623  0.3165
    4CHL1  H26B  291   3.241   1.008   5.124  0.2017  1.3512  1.4766
    4CHL1  H26C  292   3.081   0.938   5.065  0.1887  1.7767  0.4735
    4CHL1   C27  293   3.202   0.736   5.194  0.6020 -0.3315 -0.4776
    4CHL1  H27A  294   3.156   0.640   5.224  2.8100 -0.9211  1.3017
    4CHL1  H27B  295   3.210   0.734   5.083  1.0083 -2.5387 -0.4388
    4CHL1  H27C  296   3.306   0.747   5.231  1.1716 -0.0562 -2.0899
    5CHL1    C3  297   6.211   2.502   6.489  0.1967  0.3704  0.5905
    5CHL1    H3  298   6.258   2.593   6.448 -1.1893  1.0183  0.4006
    5CHL1    O3  299   6.234   2.492   6.630 -0.3580  0.2420  0.8774
    5CHL1   H3'  300   6.198   2.408   6.657 -1.2985  0.7371  1.2229
    5CHL1    C4  301   6.064   2.507   6.465  0.5699 -0.0505  0.0384
    5CHL1   H4A  302   6.007   2.419   6.502  0.8946 -0.3868 -0.2426
    5CHL1   H4B  303   6.031   2.594   6.526  0.8477  0.1512 -0.0965
    5CHL1    C5  304   6.023   2.527   6.321  0.2922 -0.7570  0.8957
    5CHL1    C6  305   5.965   2.638   6.271 -0.3100  0.4195  0.4244
    5CHL1    H6  306   5.937   2.720   6.339  1.2692  0.6062  0.8870
    5CHL1    C7  307   5.933   2.648   6.129 -0.3137  0.1313  0.5011
    5CHL1   H7A  308   5.825   2.673   6.116  0.0143  0.7494 -1.3376
    5CHL1   H7B  309   5.992   2.732   6.087 -0.9471  0.6951  0.7291
    5CHL1    C8  310   5.939   2.521   6.045  0.3352 -0.4591  0.2456
    5CHL1    H8  311   5.860   2.450   6.076 -1.6756  1.9800  1.0374
    5CHL1   C14  312   5.927   2.549   5.893  0.5832  0.0171  0.5605
    5CHL1   H14  313   6.007   2.620   5.863 -0.8430  0.9397 -1.2425
    5CHL1   C15  314   5.803   2.629   5.851  0.1684  0.2401 -1.1347
    5CHL1  H15A  315   5.713   2.581   5.895  1.0427  0.0298  0.4874
    5CHL1  H15B  316   5.808   2.735   5.884 -0.0744  0.5384 -2.0394
    5CHL1   C16  317   5.803   2.601   5.698  0.4566 -0.1514  0.0078
    5CHL1  H16A  318   5.707   2.555   5.667 -0.0501  0.5903  0.4406
    5CHL1  H16B  319   5.805   2.693   5.635  0.8020 -1.7714 -2.4503
    5CHL1   C17  320   5.927   2.509   5.668 -0.6356  0.3575  0.0825
    5CHL1   H17  321   6.009   2.583   5.661 -1.6218  1.3294 -1.8787
    5CHL1   C13  322   5.944   2.430   5.801  0.9847 -0.2092 -0.0784
    5CHL1   C18  323   5.840   2.319   5.833  0.0130 -0.1399  0.0280
    5CHL1  H18A  324   5.736   2.357   5.823 -0.9722 -2.5900  0.2348
    5CHL1  H18B  325   5.857   2.222   5.783  1.6837  0.4196 -0.5671
    5CHL1  H18C  326   5.855   2.283   5.937 -1.1411  0.1665  0.3127
    5CHL1   C12  327   6.091   2.376   5.830  0.0330 -0.4227 -0.0118
    5CHL1  H12A  328   6.109   2.287   5.766  0.0600  0.9843 -2.0908
    5CHL1  H12B  329   6.158   2.458   5.796  0.7493 -0.2068  1.8380
    5CHL1   C11  330   6.110   2.346   5.979  0.1492  0.6231 -0.1381
    5CHL1  H11A  331   6.047   2.255   5.991 -0.4334  0.8419 -1.4303
    5CHL1  H11B  332   6.210   2.307   6.008  0.5612  0.3005 -1.8999
    5CHL1    C9  333   6.070   2.456   6.079 -0.8281  0.2380 -0.8508
    5CHL1    H9  334   6.146   2.537   6.068  0.9292 -1.1506  0.5078
    5CHL1   C10  335   6.085   2.418   6.232  0.3000 -0.2519 -0.7256
    5CHL1   C19  336   6.003   2.286   6.248  0.3451  0.2088  0.4034
    5CHL1  H19A  337   5.903   2.278   6.201 -0.5493  2.2218  1.8435
    5CHL1  H19B  338   6.070   2.200   6.222 -1.8378 -2.4947  2.9981
    5CHL1  H19C  339   5.972   2.270   6.354 -2.6092  1.3191 -0.2122
    5CHL1    C1  340   6.239   2.408   6.267  0.3144 -0.9314  0.0709
    5CHL1   H1A  341   6.282   2.327   6.204  0.6186 -2.5911  2.2792
    5CHL1   H1B  342   6.291   2.501   6.236 -0.5274  0.2458  2.0537
    5CHL1    C2  343   6.272   2.384   6.416 -0.4736 -0.1026  0.4757
    5CHL1   H2A  344   6.383   2.391   6.422 -0.1916 -1.5314 -1.5939
    5CHL1   H2B  345   6.234   2.290   6.462  0.6614 -0.2535  1.1626
    5CHL1   C20  346   5.921   2.439   5.531  0.0593  0.9247 -0.1644
    5CHL1   H20  347   5.834   2.369   5.528 -2.2542  3.2503  3.9292
    5CHL1   C21  348   6.045   2.350   5.512  0.2232 -0.1035  0.5512
    5CHL1  H21A  349   6.046   2.264   5.583 -0.5666  0.6457  1.4911
    5CHL1  H21B  350   6.142   2.403   5.530  0.1928  0.4276 -0.7167
    5CHL1  H21C  351   6.038   2.307   5.410 -0.3839  1.2860 -0.0237
    5CHL1   C22  352   5.905   2.543   5.413  0.8775  0.3515  0.3515
    5CHL1  H22A  353   5.828   2.613   5.450 -1.0510 -1.9324  0.9069
    5CHL1  H22B  354   6.002   2.594   5.395  2.7690 -2.3697  1.9718
    5CHL1   C23  355   5.859   2.494   5.273 -0.0432  0.5727  0.2572
    5CHL1  H23A  356   5.911   2.401   5.242  0.8481  0.8577  0.8767
    5CHL1  H23B  357   5.749   2.479   5.265  0.0373 -0.2263  0.5377
    5CHL1   C24  358   5.875   2.605   5.163  0.3501  1.0719  0.8886
    5CHL1  H24A  359   5.818   2.697   5.191 -0.1909  0.6601  1.1525
    5CHL1  H24B  360   5.983   2.632   5.158  0.5313  0.3296  0.6522
    5CHL1   C25  361   5.833   2.553   5.020  0.4085  0.2065  0.1592
    5CHL1   H25  362   5.723   2.537   5.025  0.3695  0.7847  1.9564
    5CHL1   C26  363   5.846   2.662   4.918  0.4252  0.7621  0.7503
    5CHL1  H26A  364   5.794   2.752   4.958 -1.3086  0.5546 -0.8651
    5CHL1  H26B  365   5.952   2.688   4.897 -0.3103  1.9621 -2.0726
    5CHL1  H26C  366   5.804   2.629   4.820  0.0163 -0.7269  1.3995
    5CHL1   C27  367   5.900   2.422   4.982  0.2601 -0.1258  0.2452
    5CHL1  H27A  368   6.011   2.427   4.975  0.3420  0.4031  1.5609
    5CHL1  H27B  369   5.869   2.339   5.050  1.7356 -0.3895  0.6443
    5CHL1  H27C  370   5.868   2.387   4.882 -1.5126 -0.5010  0.9018
    6CHL1    C3  371   3.208   6.576   6.613 -0.3216  0.2320  0.0028
    6CHL1    H3  372   3.314   6.608   6.619  0.2115 -1.6938  2.2347
    6CHL1    O3  373   3.177   6.536   6.748 -0.1169 -0.0033 -0.3892
    6CHL1   H3'  374   3.161   6.613   6.802  1.4547  1.8880 -2.4176
    6CHL1    C4  375   3.124   6.702   6.575 -0.5201 -0.2200  0.2058
    6CHL1   H4A  376   3.019   6.679   6.602 -0.8347  0.3896 -0.4668
    6CHL1   H4B  377   3.154   6.785   6.642  0.0838 -0.6819  0.5187
    6CHL1    C5  378   3.127   6.744   6.431 -0.7686 -0.1540  0.4157
    6CHL1    C6  379   3.151   6.873   6.393 -0.1269 -0.9002  0.7638
    6CHL1    H6  380   3.148   6.954   6.468 -2.0907 -1.3585  1.2348
    6CHL1    C7  381   3.168   6.913   6.247 -0.1476 -0.0955 -0.3828
    6CHL1   H7A  382   3.115   7.005   6.214 -2.0247 -1.0248 -0.0656
    6CHL1   H7B  383   3.278   6.925   6.233 -0.2915 -0.0184 -1.5360
    6CHL1    C8  384   3.124   6.810   6.140 -0.9329 -0.3504  0.4706
    6CHL1    H8  385   3.013   6.805   6.136 -0.8622 -2.1755 -0.1073
    6CHL1   C14  386   3.169   6.844   6.000 -0.2591 -0.2813  0.4881
    6CHL1   H14  387   3.280   6.845   6.003 -0.2855  1.1193  1.9750
    6CHL1   C15  388   3.132   6.978   5.952  0.0720 -0.4987  0.6668
    6CHL1  H15A  389   3.027   7.003   5.976  0.2447  0.6214  0.3159
    6CHL1  H15B  390   3.196   7.054   6.001 -1.3187  0.1721  1.4841
    6CHL1   C16  391   3.154   6.966   5.801  0.7689 -0.0505  0.2024
    6CHL1  H16A  392   3.059   7.001   5.755  1.7751  1.4598 -0.8650
    6CHL1  H16B  393   3.235   7.031   5.761 -0.1477  0.3307 -1.1019
    6CHL1   C17  394   3.184   6.818   5.764  0.6218 -0.5984 -0.3313
    6CHL1   H17  395   3.295   6.815   5.767  0.6605 -0.9229 -1.6784
    6CHL1   C13  396   3.137   6.745   5.891 -0.5927  0.5549 -0.1652
    6CHL1   C18  397   2.986   6.723   5.890  0.1267 -0.0678  0.0968
    6CHL1  H18A  398   2.939   6.820   5.864 -0.8975 -1.2267 -2.6847
    6CHL1  H18B  399   2.963   6.662   5.801  2.1146 -1.8613  0.7242
    6CHL1  H18C  400   2.940   6.662   5.971  2.1397 -0.5171  0.9625
    6CHL1   C12  401   3.219   6.612   5.923 -0.6295 -0.3644 -0.1580
    6CHL1  H12A  402   3.180   6.538   5.850 -0.5096 -0.8351  0.2513
    6CHL1  H12B  403   3.325   6.637   5.900 -0.8915 -0.4437 -1.5132
    6CHL1   C11  404   3.184   6.567   6.065 -0.5056  0.4229  0.6683
    6CHL1  H11A  405   3.087   6.514   6.065  0.0807 -0.6678  0.3477
    6CHL1  H11B  406   3.257   6.488   6.093  2.0043  2.2176 -0.4324
    6CHL1    C9  407   3.182   6.671   6.180 -0.4699  0.2991  0.3520
    6CHL1    H9  408   3.291   6.690   6.192 -0.2498  1.5965 -2.6601
    6CHL1   C10  409   3.125   6.625   6.323 -0.0082 -0.3169  0.0374
    6CHL1   C19  410   2.975   6.593   6.311  0.3080  0.2413  0.2127
    6CHL1  H19A  411   2.970   6.522   6.225  4.3411  1.2557 -1.0978
    6CHL1  H19B  412   2.936   6.542   6.401  2.9487  0.6953  1.7183
    6CHL1  H19C  413   2.913   6.681   6.283 -2.0721 -0.5749  2.5314
    6CHL1    C1  414   3.202   6.501   6.369 -0.6759  0.7603  0.0694
    6CHL1   H1A  415   3.162   6.425   6.298 -1.1130  0.1904  0.9125
    6CHL1   H1B  416   3.312   6.515   6.363 -0.9651  3.3484 -0.6432
    6CHL1    C2  417   3.190   6.459   6.517  0.2086  0.0505 -0.8214
    6CHL1   H2A  418   3.256   6.372   6.537 -1.7312 -1.1030  0.8919
    6CHL1   H2B  419   3.088   6.424   6.542  1.1591 -0.9407  2.0157
    6CHL1   C20  420   3.144   6.775   5.625  0.6296 -1.0241 -0.1222
    6CHL1   H20  421   3.035   6.761   5.638  0.4091 -0.2172 -0.9822
    6CHL1   C21  422   3.211   6.646   5.582  0.2475 -0.2398 -0.5243
    6CHL1  H21A  423   3.322   6.650   5.576  0.2888  3.8373  0.3470
    6CHL1  H21B  424   3.183   6.617   5.479 -2.1703 -0.7932  0.2146
    6CHL1  H21C  425   3.175   6.565   5.650 -0.9511  0.8300  0.1485
    6CHL1   C22  426   3.172   6.881   5.519 -0.1836 -0.5243  0.3438
    6CHL1  H22A  427   3.128   6.831   5.430 -1.8979  2.0828 -0.4212
    6CHL1  H22B  428   3.101   6.963   5.543  0.5812  0.0171  0.8020
    6CHL1   C23  429   3.321   6.920   5.490  0.8472  0.7272  0.3666
    6CHL1  H23A  430   3.312   7.017   5.438 -2.0643 -0.1256 -0.8745
    6CHL1  H23B  431   3.378   6.950   5.581  0.6823 -0.1383  0.7660
    6CHL1   C24  432   3.394   6.830   5.387  0.2641  0.0325 -0.2789
    6CHL1  H24A  433   3.447   6.748   5.439  2.1565  1.1787 -0.2647
    6CHL1  H24B  434   3.324   6.773   5.323  0.0655  1.1359 -1.0702
    6CHL1   C25  435   3.509   6.892   5.296  0.7183 -0.4294  0.3617
    6CHL1   H25  436   3.578   6.957   5.355  0.9613 -2.2069  2.1414
    6CHL1   C26  437   3.587   6.790   5.213  0.6695  0.3691  0.1937
    6CHL1  H26A  438   3.634   6.831   5.121 -0.1305 -0.0670 -0.4217
    6CHL1  H26B  439   3.659   6.744   5.285  0.2348  0.4139  0.6621
    6CHL1  H26C  440   3.536   6.708   5.158 -1.5051  2.4568 -1.0944
    6CHL1   C27  441   3.443   6.993   5.198  0.4888 -0.3778 -0.3755
    6CHL1  H27A  442   3.520   7.023   5.124  1.9330 -1.9819  0.3867
    6CHL1  H27B  443   3.352   6.950   5.151 -1.5711  2.9027  0.2831
    6CHL1  H27C  444   3.414   7.091   5.241  1.0940  0.1089 -1.0574
    7CHL1    C3  445   5.778   5.712   6.466  0.4034 -0.3052 -0.1182
    7CHL1    H3  446   5.886   5.686   6.464  0.0770 -1.7493 -1.8945
    7CHL1    O3  447   5.733   5.672   6.596 -0.0974 -0.7039  0.3748
    7CHL1   H3'  448   5.741   5.576   6.602 -2.0119 -1.1182 -2.1528
    7CHL1    C4  449   5.765   5.859   6.445  0.9035 -0.3456  0.0178
    7CHL1   H4A  450   5.665   5.882   6.488 -0.0962 -0.7274 -2.0131
    7CHL1   H4B  451   5.824   5.917   6.520 -2.4154  1.8426  1.1407
    7CHL1    C5  452   5.773   5.909   6.302 -0.3469  0.1596 -0.0158
    7CHL1    C6  453   5.856   6.010   6.267  0.0004 -0.4472 -0.0332
    7CHL1    H6  454   5.920   6.058   6.344 -0.9100  0.7123  0.0294
    7CHL1    C7  455   5.873   6.065   6.128 -0.6206  0.6712  0.6291
    7CHL1   H7A  456   5.865   6.176   6.131 -0.2186  0.8106 -1.8679
    7CHL1   H7B  457   5.972   6.028   6.096 -1.3018 -0.9108  0.2566
    7CHL1    C8  458   5.768   6.016   6.024 -0.5054 -0.7084 -0.8915
    7CHL1    H8  459   5.678   6.078   6.043  0.3738  0.2293  0.3892
    7CHL1   C14  460   5.815   6.031   5.881 -0.2512 -0.1866  0.5122
    7CHL1   H14  461   5.905   5.970   5.862 -0.8451 -0.6680 -0.8889
    7CHL1   C15  462   5.873   6.166   5.843  0.5433 -1.2703 -0.9466
    7CHL1  H15A  463   5.842   6.246   5.915  0.6827 -1.6112 -0.5045
    7CHL1  H15B  464   5.981   6.171   5.867  0.0747  2.1832  1.1808
    7CHL1   C16  465   5.846   6.187   5.694  0.3682  0.7223 -0.0653
    7CHL1  H16A  466   5.786   6.276   5.667 -1.6079 -1.4274 -3.6279
    7CHL1  H16B  467   5.944   6.200   5.643  0.5215 -1.0655 -0.3111
    7CHL1   C17  468   5.782   6.045   5.650  0.1883 -0.3990 -0.0049
    7CHL1   H17  469   5.866   5.973   5.644 -0.3051 -0.9425 -0.6011
    7CHL1   C13  470   5.711   5.990   5.775 -0.7980  0.2056  0.2714
    7CHL1   C18  471   5.575   6.069   5.785  0.0881 -0.3468  0.0543
    7CHL1  H18A  472   5.605   6.176   5.781  3.0630 -1.1262 -1.7455
    7CHL1  H18B  473   5.520   6.036   5.694  2.5835 -3.2868 -0.5567
    7CHL1  H18C  474   5.537   6.044   5.886  1.8242 -1.1646  0.5459
    7CHL1   C12  475   5.694   5.846   5.788  0.0536  0.3707  0.0759
    7CHL1  H12A  476   5.610   5.810   5.725 -0.2231 -2.4724  1.8930
    7CHL1  H12B  477   5.789   5.795   5.760 -1.1487 -0.7136 -2.3574
    7CHL1   C11  478   5.656   5.807   5.932  0.1965  0.2563  0.6935
    7CHL1  H11A  479   5.552   5.840   5.953 -0.0533  0.7543 -1.1362
    7CHL1  H11B  480   5.665   5.698   5.951  0.1317 -0.1537 -1.3876
    7CHL1    C9  481   5.742   5.870   6.046 -0.2942  0.3267 -0.8984
    7CHL1    H9  482   5.848   5.837   6.041 -0.2004  0.7138 -1.5316
    7CHL1   C10  483   5.698   5.833   6.193  0.2110  0.8202  0.4779
    7CHL1   C19  484   5.546   5.861   6.219 -0.1726 -0.3828  0.4203
    7CHL1  H19A  485   5.535   5.971   6.205  1.3750  0.0955  2.4229
    7CHL1  H19B  486   5.486   5.818   6.136  2.5875 -1.1155 -1.3280
    7CHL1  H19C  487   5.521   5.839   6.325 -0.9940  1.3363  0.6260
    7CHL1    C1  488   5.734   5.680   6.209 -0.1208  0.1424 -0.2741
    7CHL1   H1A  489   5.655   5.637   6.143 -1.2361 -1.3896  1.9361
    7CHL1   H1B  490   5.830   5.642   6.167 -1.2640 -0.6748 -2.2961
    7CHL1    C2  491   5.707   5.627   6.354 -0.2409 -0.3167 -0.3686
    7CHL1   H2A  492   5.753   5.526   6.353  0.8872  0.1698 -0.0271
    7CHL1   H2B  493   5.597   5.631   6.369 -0.1243  0.5505  0.3472
    7CHL1   C20  494   5.715   6.045   5.513  1.0822  0.0415 -0.5852
    7CHL1   H20  495   5.632   5.971   5.514  0.1454  1.0789 -0.1874
    7CHL1   C21  496   5.802   5.996   5.395 -0.5027 -0.2700 -0.0020
    7CHL1  H21A  497   5.860   5.904   5.416  0.3909  0.1381 -0.6577
    7CHL1  H21B  498   5.866   6.073   5.348 -0.1139 -1.5461 -1.6317
    7CHL1  H21C  499   5.726   5.965   5.320 -1.9539  1.6676  0.5757
    7CHL1   C22  500   5.648   6.181   5.466  0.1639  0.1818 -0.8474
    7CHL1  H22A  501   5.574   6.203   5.546 -0.2625 -3.3481 -0.1289
    7CHL1  H22B  502   5.721   6.265   5.471 -0.8128  0.9815  1.7008
    7CHL1   C23  503   5.575   6.185   5.329  0.0417 -0.9660 -0.6144
    7CHL1  H23A  504   5.537   6.287   5.310 -0.7877 -0.9643  0.8987
    7CHL1  H23B  505   5.654   6.167   5.253  1.6016 -2.9005  1.3347
    7CHL1   C24  506   5.459   6.087   5.316  0.5385  0.2214  0.0277
    7CHL1  H24A  507   5.474   5.983   5.352 -1.0358 -0.6011 -1.5306
    7CHL1  H24B  508   5.379   6.138   5.374  0.0618  2.0490 -2.1083
    7CHL1   C25  509   5.397   6.079   5.178  0.6949  0.7733  0.6943
    7CHL1   H25  510   5.384   6.186   5.150 -3.5438  0.6053  1.3461
    7CHL1   C26  511   5.479   5.980   5.094 -0.7327  0.2775  0.1162
    7CHL1  H26A  512   5.581   6.020   5.081 -0.8613  0.2488 -1.0654
    7CHL1  H26B  513   5.489   5.878   5.137  2.8217 -0.1534 -1.4436
    7CHL1  H26C  514   5.428   5.981   4.996  0.2786  1.6274 -0.4192
    7CHL1   C27  515   5.252   6.024   5.188 -0.6941 -0.4017  0.5045
    7CHL1  H27A  516   5.259   5.919   5.224  0.1410 -1.6430 -2.9204
    7CHL1  H27B  517   5.192   6.091   5.253  0.3601  0.2097  0.8792
    7CHL1  H27C  518   5.199   6.020   5.091 -0.8639 -2.5054  0.6351
    8CHL1    C3  519   4.846   0.756   6.670  0.7209 -0.1170 -0.1941
    8CHL1    H3  520   4.932   0.694   6.636 -0.5420 -1.3632 -1.2256
    8CHL1    O3  521   4.835   0.733   6.811  0.1627  0.0276  0.6165
    8CHL1   H3'  522   4.834   0.640   6.835 -2.1467  0.3888  2.2949
    8CHL1    C4  523   4.875   0.904   6.649 -0.5362 -0.2227  0.4068
    8CHL1   H4A  524   4.797   0.962   6.702  0.0962  1.3890 -0.3713
    8CHL1   H4B  525   4.973   0.926   6.697 -0.4188  2.0614 -0.7420
    8CHL1    C5  526   4.858   0.954   6.505  0.2235 -0.5904  0.0768
    8CHL1    C6  527   4.958   1.024   6.455 -0.1434 -0.6004  0.0659
    8CHL1    H6  528   5.048   1.041   6.517  1.0320  0.5425 -1.8527
    8CHL1    C7  529   4.964   1.076   6.312  0.6428  0.6743 -0.2554
    8CHL1   H7A  530   4.974   1.187   6.310  1.5829  0.6126  0.5209
    8CHL1   H7B  531   5.050   1.029   6.260 -0.0729 -0.4910 -0.4393
    8CHL1    C8  532   4.832   1.051   6.233  0.3326  0.7967  0.2725
    8CHL1    H8  533   4.761   1.131   6.265 -0.4269 -0.0665  0.7816
    8CHL1   C14  534   4.845   1.062   6.081  0.0269  0.4899  0.3045
    8CHL1   H14  535   4.926   0.990   6.059  1.6847  2.4127 -0.1846
    8CHL1   C15  536   4.898   1.202   6.024 -0.0575  0.0116  0.0966
    8CHL1  H15A  537   4.852   1.281   6.088  1.6636  0.4549  0.8359
    8CHL1  H15B  538   5.009   1.208   6.033 -0.1477 -1.2897  3.4438
    8CHL1   C16  539   4.837   1.206   5.882 -0.3778  0.4531 -0.4997
    8CHL1  H16A  540   4.753   1.277   5.866 -2.5235 -1.6779  0.6285
    8CHL1  H16B  541   4.910   1.230   5.802  0.2815  1.1182  0.2831
    8CHL1   C17  542   4.776   1.062   5.854  0.1940 -0.2099 -0.1547
    8CHL1   H17  543   4.858   0.989   5.836  1.4927  1.2941 -0.5512
    8CHL1   C13  544   4.722   1.025   5.997 -0.9391  0.1398 -0.9576
    8CHL1   C18  545   4.608   1.119   6.031  0.9808 -0.4455 -0.4787
    8CHL1  H18A  546   4.632   1.225   6.008  1.5178 -0.7240 -1.2231
    8CHL1  H18B  547   4.522   1.096   5.963 -0.1534 -2.7753  1.6067
    8CHL1  H18C  548   4.572   1.098   6.134 -0.4626 -3.6338 -1.4856
    8CHL1   C12  549   4.696   0.879   6.022 -0.0272  0.8657  0.7925
    8CHL1  H12A  550   4.599   0.855   5.972  0.3614  0.8796  0.0194
    8CHL1  H12B  551   4.766   0.799   5.989 -1.4333 -0.7563  1.5405
    8CHL1   C11  552   4.663   0.864   6.169 -0.2326 -0.8175 -0.6157
    8CHL1  H11A  553   4.576   0.926   6.201 -0.0528 -0.7897 -0.1696
    8CHL1  H11B  554   4.643   0.760   6.203 -0.3393 -0.7285 -0.4007
    8CHL1    C9  555   4.774   0.910   6.266  0.6674  0.3526  0.3337
    8CHL1    H9  556   4.864   0.846   6.250 -0.1715 -0.7667 -0.0319
    8CHL1   C10  557   4.739   0.899   6.412 -0.3163 -0.3231 -0.1349
    8CHL1   C19  558   4.619   0.990   6.447 -0.2096 -0.2392 -0.4015
    8CHL1  H19A  559   4.629   1.098   6.424 -0.8663 -0.3477 -1.2482
    8CHL1  H19B  560   4.525   0.960   6.394 -1.4249  1.8674  0.4528
    8CHL1  H19C  561   4.598   0.983   6.556 -2.2927  0.2341 -0.7293
    8CHL1    C1  562   4.715   0.753   6.452 -0.2084 -0.6586  0.4915
    8CHL1   H1A  563   4.618   0.723   6.407 -1.5224  0.9048  2.1049
    8CHL1   H1B  564   4.786   0.697   6.388  1.2772  1.7405 -0.1043
    8CHL1    C2  565   4.717   0.719   6.604  0.7073  1.1642  0.7732
    8CHL1   H2A  566   4.707   0.609   6.615  2.0726  0.8513 -0.7542
    8CHL1   H2B  567   4.627   0.763   6.651 -0.6169  0.2550 -0.8108
    8CHL1   C20  568   4.673   1.060   5.733 -0.9446 -0.4318  0.7008
    8CHL1   H20  569   4.573   1.095   5.766 -1.2367  0.3899 -0.9430
    8CHL1   C21  570   4.664   0.912   5.683  0.2245  0.9635 -0.1155
    8CHL1  H21A  571   4.563   0.887   5.643  0.7065 -0.8604 -0.2486
    8CHL1  H21B  572   4.687   0.828   5.752  1.1706 -1.0413 -2.6942
    8CHL1  H21C  573   4.726   0.900   5.591 -0.3557  1.6923 -0.6194
    8CHL1   C22  574   4.713   1.153   5.614 -0.3718  0.0163  0.1198
    8CHL1  H22A  575   4.716   1.261   5.638 -1.8197 -0.2250  1.5946
    8CHL1  H22B  576   4.818   1.124   5.592 -0.4832  0.2084 -0.6690
    8CHL1   C23  577   4.641   1.135   5.481 -0.0788 -0.2694 -0.3486
    8CHL1  H23A  578   4.695   1.187   5.399 -0.7479  0.8051 -0.1324
    8CHL1  H23B  579   4.638   1.029   5.449  2.2105 -0.9766  1.5422
    8CHL1   C24  580   4.489   1.172   5.490 -0.2088  0.7640 -0.3003
    8CHL1  H24A  581   4.435   1.105   5.560  1.4393 -0.8200 -0.4845
    8CHL1  H24B  582   4.484   1.273   5.535 -1.8276  0.2622  0.7356
    8CHL1   C25  583   4.413   1.187   5.353  0.0933 -0.1861 -0.1036
    8CHL1   H25  584   4.303   1.181   5.363  0.2347  0.5831  2.7354
    8CHL1   C26  585   4.456   1.320   5.284 -0.0198  0.5693  0.2426
    8CHL1  H26A  586   4.410   1.408   5.334  0.1112 -0.2210  1.8328
    8CHL1  H26B  587   4.566   1.334   5.293 -0.1996  2.0372  0.4368
    8CHL1  H26C  588   4.428   1.327   5.177  0.3378  0.8522  0.1648
    8CHL1   C27  589   4.441   1.060   5.263  0.1803 -0.7303  0.2630
    8CHL1  H27A  590   4.365   1.048   5.182  1.4469  1.3642 -1.3284
    8CHL1  H27B  591   4.539   1.075   5.214  0.5825  1.4285  1.5777
    8CHL1  H27C  592   4.433   0.970   5.326 -4.5210  0.3895  1.7004
    9CHL1    C3  593   5.748   0.132   6.532 -0.2874 -0.5111  0.0911
    9CHL1    H3  594   5.810   0.041   6.515  0.2717 -0.0199 -0.5386
    9CHL1    O3  595   5.684   0.138   6.656 -0.1060  0.8204  0.0854
    9CHL1   H3'  596   5.650   0.049   6.669  1.1898  0.3873  0.6045
    9CHL1    C4  597   5.826   0.266   6.501  0.2819 -0.0686  0.0948
    9CHL1   H4A  598   5.768   0.360   6.516  1.8925  1.0145 -0.2751
    9CHL1   H4B  599   5.915   0.268   6.568  0.2250 -0.3470  0.1821
    9CHL1    C5  600   5.881   0.269   6.360  0.2046  0.8019 -0.4707
    9CHL1    C6  601   6.007   0.278   6.332 -0.5358 -0.5977 -0.0437
    9CHL1    H6  602   6.070   0.287   6.422 -2.0805 -1.6033  1.1944
    9CHL1    C7  603   6.065   0.287   6.196  0.3951  0.3807 -0.1911
    9CHL1   H7A  604   6.136   0.372   6.201 -0.8842  1.4110  2.8234
    9CHL1   H7B  605   6.117   0.194   6.165 -0.0104 -0.0330  0.3466
    9CHL1    C8  606   5.956   0.316   6.086  0.4567 -0.8882  0.6839
    9CHL1    H8  607   5.933   0.424   6.092 -1.1031 -1.1315 -0.2427
    9CHL1   C14  608   6.011   0.291   5.950 -0.1687  0.2378  0.4108
    9CHL1   H14  609   6.041   0.184   5.949 -0.2172  0.1909  1.8006
    9CHL1   C15  610   6.130   0.375   5.899 -0.0725  0.3282 -0.3520
    9CHL1  H15A  611   6.106   0.480   5.926 -1.3853 -0.5047  2.1187
    9CHL1  H15B  612   6.225   0.332   5.938 -0.4107  0.0489  0.1845
    9CHL1   C16  613   6.118   0.371   5.745  0.2795  0.1687  0.7191
    9CHL1  H16A  614   6.090   0.471   5.707  1.8868  0.3958  0.0482
    9CHL1  H16B  615   6.204   0.338   5.683  0.6151 -2.4743  2.4473
    9CHL1   C17  616   5.990   0.279   5.713 -0.4702  0.7341 -0.1772
    9CHL1   H17  617   6.024   0.174   5.723  0.7109  1.1928  1.0119
    9CHL1   C13  618   5.906   0.302   5.835 -0.3832  0.2399 -0.0006
    9CHL1   C18  619   5.845   0.444   5.831  0.4561 -0.2042 -0.4178
    9CHL1  H18A  620   5.920   0.525   5.824  1.2096 -0.8881 -0.3492
    9CHL1  H18B  621   5.784   0.454   5.738 -0.3316 -0.5423  0.0519
    9CHL1  H18C  622   5.778   0.462   5.918 -0.1067  0.0337 -0.8909
    9CHL1   C12  623   5.804   0.188   5.862 -0.1247 -0.2233  0.2393
    9CHL1  H12A  624   5.718   0.206   5.793  1.7470  2.6052 -1.5351
    9CHL1  H12B  625   5.847   0.085   5.865  0.5633  0.0232 -0.7073
    9CHL1   C11  626   5.736   0.208   5.995  0.7288  0.6003  0.3129
    9CHL1  H11A  627   5.669   0.297   5.988  0.4241  0.3835  0.4172
    9CHL1  H11B  628   5.674   0.119   6.018  1.9483 -0.6851 -1.1454
    9CHL1    C9  629   5.835   0.228   6.111 -0.3314 -0.7132 -0.4628
    9CHL1    H9  630   5.880   0.126   6.108  0.9605 -0.1629 -0.7064
    9CHL1   C10  631   5.771   0.257   6.252 -0.3172  0.7142 -0.1934
    9CHL1   C19  632   5.678   0.381   6.244 -0.3398  0.1002  0.2806
    9CHL1  H19A  633   5.630   0.412   6.339 -0.0646  1.4609 -0.0004
    9CHL1  H19B  634   5.740   0.466   6.208  2.4949 -1.6416  0.8195
    9CHL1  H19C  635   5.594   0.367   6.172  0.9980 -1.3200 -1.0808
    9CHL1    C1  636   5.685   0.127   6.289 -0.5304 -0.1815  0.2125
    9CHL1   H1A  637   5.597   0.111   6.223 -0.0182 -2.2387 -0.0269
    9CHL1   H1B  638   5.741   0.032   6.277  0.6811  0.1689  2.4846
    9CHL1    C2  639   5.627   0.128   6.438 -0.6290  0.8588 -0.4800
    9CHL1   H2A  640   5.564   0.041   6.464  0.8074 -0.2631 -0.6430
    9CHL1   H2B  641   5.552   0.209   6.450  0.0904  1.2522  1.8241
    9CHL1   C20  642   5.936   0.294   5.564  0.8472  0.1536 -0.5134
    9CHL1   H20  643   5.899   0.397   5.550  0.2589 -0.0720 -0.6544
    9CHL1   C21  644   5.815   0.192   5.552 -0.8422 -0.3570 -0.8053
    9CHL1  H21A  645   5.783   0.193   5.446 -0.1986  0.9728 -1.0038
    9CHL1  H21B  646   5.728   0.219   5.617 -0.2230 -0.1707 -0.0376
    9CHL1  H21C  647   5.839   0.087   5.581  0.0043 -0.5160 -2.0038
    9CHL1   C22  648   6.044   0.266   5.455  0.4204 -0.5618 -0.3712
    9CHL1  H22A  649   6.002   0.293   5.355  0.2835 -4.4938 -1.5226
    9CHL1  H22B  650   6.123   0.340   5.482  0.4506 -0.3180 -1.0811
    9CHL1   C23  651   6.102   0.126   5.450 -0.0526  0.3008  0.0613
    9CHL1  H23A  652   6.114   0.091   5.554  0.1216 -0.6375 -0.2638
    9CHL1  H23B  653   6.032   0.058   5.396 -0.6420 -0.1927  1.4024
    9CHL1   C24  654   6.243   0.131   5.371  0.2517  0.3025 -1.0872
    9CHL1  H24A  655   6.301   0.226   5.370  2.3991 -0.9233  0.2795
    9CHL1  H24B  656   6.308   0.064   5.431 -0.2650  0.6377 -0.1201
    9CHL1   C25  657   6.237   0.073   5.229 -0.2358 -0.3737  0.5677
    9CHL1   H25  658   6.173  -0.018   5.233  1.7392 -2.3105 -4.2914
    9CHL1   C26  659   6.164   0.165   5.131 -0.1126 -0.1115 -0.3709
    9CHL1  H26A  660   6.164   0.106   5.038 -3.2706 -1.1814  0.2116
    9CHL1  H26B  661   6.063   0.177   5.176  0.0148 -2.3291  0.6265
    9CHL1  H26C  662   6.218   0.261   5.115  1.1065 -0.4869  1.1927
    9CHL1   C27  663   6.374   0.034   5.167  0.3943  0.4017  0.3323
    9CHL1  H27A  664   6.437   0.118   5.133  1.0324  0.0948  0.7518
    9CHL1  H27B  665   6.442  -0.024   5.233  0.7793 -0.6329 -0.9095
    9CHL1  H27C  666   6.357  -0.026   5.074  0.4164  1.4448 -0.3646
   10CHL1    C3  667   0.281   2.159   6.926 -0.1656 -0.1208  0.3796
   10CHL1    H3  668   0.334   2.255   6.943 -1.4296  0.9310 -1.3026
   10CHL1    O3  669   0.246   2.116   7.054 -0.2653 -0.0074 -0.2024
   10CHL1   H3'  670   0.201   2.032   7.044 -0.3986  0.1202 -0.7044
   10CHL1    C4  671   0.158   2.192   6.840 -0.5388 -0.0312  0.2748
   10CHL1   H4A  672   0.096   2.101   6.825 -0.3345  0.0843 -1.4416
   10CHL1   H4B  673   0.084   2.258   6.891 -1.6284  0.4201 -1.7837
   10CHL1    C5  674   0.187   2.239   6.699 -0.8220 -0.3275  0.2153
   10CHL1    C6  675   0.143   2.360   6.648  0.3147  0.6207  0.0975
   10CHL1    H6  676   0.086   2.424   6.718 -1.3032  0.1683 -0.7490
   10CHL1    C7  677   0.185   2.413   6.520  0.3346  0.3983  0.0418
   10CHL1   H7A  678   0.097   2.462   6.474 -0.1167  0.2216  0.7144
   10CHL1   H7B  679   0.256   2.497   6.537 -1.6563  1.8583  1.4786
   10CHL1    C8  680   0.246   2.306   6.422  0.0924  0.1116 -0.6631
   10CHL1    H8  681   0.166   2.246   6.373  0.1589  0.5692 -1.3399
   10CHL1   C14  682   0.331   2.363   6.305  0.2290  0.1014  0.5376
   10CHL1   H14  683   0.409   2.413   6.366  0.1094  1.1412 -0.1543
   10CHL1   C15  684   0.262   2.479   6.233  0.0255  0.0874  0.0881
   10CHL1  H15A  685   0.159   2.440   6.218  0.1530 -0.1549 -0.1614
   10CHL1  H15B  686   0.262   2.570   6.298  0.1834 -0.2452  0.5625
   10CHL1   C16  687   0.332   2.490   6.097 -0.1476 -0.1063 -0.0143
   10CHL1  H16A  688   0.268   2.468   6.009  0.0962  1.4552 -0.6073
   10CHL1  H16B  689   0.373   2.594   6.094  1.3345 -0.6136  1.0332
   10CHL1   C17  690   0.442   2.385   6.104 -0.0044  0.8475 -0.0524
   10CHL1   H17  691   0.524   2.419   6.171 -0.6593 -2.5818  2.8217
   10CHL1   C13  692   0.392   2.273   6.201 -0.1188  0.6698  0.2554
   10CHL1   C18  693   0.287   2.190   6.135 -0.5489 -0.0676  0.2543
   10CHL1  H18A  694   0.319   2.105   6.071 -1.7175 -0.9302  0.7686
   10CHL1  H18B  695   0.212   2.135   6.197 -1.5894  0.1237 -0.7939
   10CHL1  H18C  696   0.225   2.255   6.070  2.1429  1.0690 -1.3240
   10CHL1   C12  697   0.489   2.194   6.284 -0.0056 -0.6919  0.4132
   10CHL1  H12A  698   0.541   2.118   6.222  0.9211 -1.1357  1.6899
   10CHL1  H12B  699   0.576   2.258   6.308  1.5441 -2.4799 -0.2685
   10CHL1   C11  700   0.417   2.117   6.396 -0.3280 -0.1885 -0.3476
   10CHL1  H11A  701   0.339   2.051   6.353 -0.2034 -0.1938 -0.5659
   10CHL1  H11B  702   0.495   2.062   6.453  0.6765  0.2653 -1.2468
   10CHL1    C9  703   0.339   2.213   6.497 -0.6750 -0.3638  0.1590
   10CHL1    H9  704   0.415   2.284   6.537 -0.7986  0.3933 -0.9070
   10CHL1   C10  705   0.287   2.147   6.626  0.3184 -0.3427 -0.5928
   10CHL1   C19  706   0.215   2.012   6.580 -0.3899 -0.4080  0.2037
   10CHL1  H19A  707   0.288   1.944   6.532  1.1131  0.3582  1.3024
   10CHL1  H19B  708   0.166   1.964   6.667 -0.6760 -1.3749 -0.4767
   10CHL1  H19C  709   0.133   2.034   6.508  1.0623  0.4982 -1.2610
   10CHL1    C1  710   0.400   2.114   6.723  0.0967 -0.2975  0.5156
   10CHL1   H1A  711   0.479   2.055   6.672 -0.6364 -1.3258  0.5265
   10CHL1   H1B  712   0.465   2.202   6.742 -0.1324 -0.0545  0.1892
   10CHL1    C2  713   0.365   2.051   6.861  0.3377 -1.0995  0.6228
   10CHL1   H2A  714   0.452   2.038   6.929 -0.2746 -1.1280  1.4172
   10CHL1   H2B  715   0.314   1.953   6.849  0.6772 -1.3972  1.5448
   10CHL1   C20  716   0.494   2.341   5.964  0.3548 -0.6234  0.3044
   10CHL1   H20  717   0.417   2.304   5.894  1.5411 -0.2165 -1.2716
   10CHL1   C21  718   0.602   2.243   5.984 -0.1570 -0.3570  0.1441
   10CHL1  H21A  719   0.666   2.229   5.894 -1.3445 -0.7424 -0.6642
   10CHL1  H21B  720   0.552   2.147   6.008  0.3354 -0.7904 -0.5619
   10CHL1  H21C  721   0.668   2.284   6.064 -0.3880  0.5282 -0.1072
   10CHL1   C22  722   0.560   2.465   5.893 -0.8451 -0.1435 -0.0816
   10CHL1  H22A  723   0.483   2.546   5.887 -0.3960  0.2877 -0.1407
   10CHL1  H22B  724   0.652   2.496   5.946 -0.5531 -0.7051 -0.2538
   10CHL1   C23  725   0.603   2.429   5.747  0.5124  0.1925 -0.2382
   10CHL1  H23A  726   0.707   2.391   5.751 -0.6779 -3.2834  0.7701
   10CHL1  H23B  727   0.538   2.348   5.707 -0.7856  2.1281 -2.2778
   10CHL1   C24  728   0.592   2.553   5.658  0.1854  0.1921  0.3253
   10CHL1  H24A  729   0.486   2.586   5.658  1.1005  3.4695  0.9277
   10CHL1  H24B  730   0.649   2.640   5.697 -1.0415  1.5558 -0.8323
   10CHL1   C25  731   0.639   2.534   5.515 -0.6172 -0.0275 -0.5011
   10CHL1   H25  732   0.605   2.435   5.476  0.5842 -0.9738  0.7459
   10CHL1   C26  733   0.596   2.648   5.426  0.1659  0.0501 -0.0263
   10CHL1  H26A  734   0.486   2.662   5.429  0.2542  1.5268 -1.9790
   10CHL1  H26B  735   0.642   2.747   5.449 -0.4441  0.6190 -1.1515
   10CHL1  H26C  736   0.635   2.625   5.325  2.2899 -0.6557  0.8889
   10CHL1   C27  737   0.791   2.529   5.516 -0.6977 -0.2623 -0.3490
   10CHL1  H27A  738   0.834   2.631   5.507  0.2232 -0.6613 -0.7197
   10CHL1  H27B  739   0.835   2.476   5.603 -0.7770 -1.3672 -0.9602
   10CHL1  H27C  740   0.822   2.483   5.419 -1.1551  1.0666 -1.1485
   11CHL1    C3  741   3.771   5.834   6.638 -0.1010  0.8396 -0.3634
   11CHL1    H3  742   3.848   5.754   6.642 -0.4760  0.3577 -1.9704
   11CHL1    O3  743   3.757   5.879   6.770  0.2681  0.6980 -0.5369
   11CHL1   H3'  744   3.841   5.916   6.801  0.3231 -0.0705  0.2776
   11CHL1    C4  745   3.830   5.950   6.546 -0.0779  0.2271 -0.0889
   11CHL1   H4A  746   3.777   6.045   6.567  2.3373  2.1738 -2.1453
   11CHL1   H4B  747   3.937   5.964   6.572  0.8607  0.0794 -3.4229
   11CHL1    C5  748   3.825   5.928   6.399 -0.0402 -0.0242 -0.9117
   11CHL1    C6  749   3.937   5.936   6.331  0.0399 -0.6836 -0.0176
   11CHL1    H6  750   4.023   5.973   6.388 -1.0142  1.4266  0.3098
   11CHL1    C7  751   3.941   5.916   6.180  0.0118  0.0739 -0.3429
   11CHL1   H7A  752   4.003   5.987   6.122  2.0129 -2.4200 -1.4502
   11CHL1   H7B  753   3.990   5.816   6.173  0.7408  0.5085 -1.7922
   11CHL1    C8  754   3.809   5.894   6.110  0.2529 -0.4956  0.3921
   11CHL1    H8  755   3.754   5.989   6.090  0.6067 -0.4014 -0.1431
   11CHL1   C14  756   3.832   5.830   5.977  0.0289  0.5556  0.1988
   11CHL1   H14  757   3.877   5.729   5.983  2.5369  1.6103  0.9473
   11CHL1   C15  758   3.915   5.901   5.872 -0.0808  0.0880 -0.2737
   11CHL1  H15A  759   3.886   6.007   5.857 -1.3505 -0.4456 -1.8977
   11CHL1  H15B  760   4.025   5.906   5.886  0.5586 -2.1900 -3.4353
   11CHL1   C16  761   3.879   5.831   5.742 -0.1197 -0.8029  0.7601
   11CHL1  H16A  762   3.863   5.910   5.667 -1.5768 -0.8539  1.0044
   11CHL1  H16B  763   3.966   5.764   5.722  0.1477 -0.5379  1.0344
   11CHL1   C17  764   3.747   5.752   5.763 -0.2501 -0.0484  0.5768
   11CHL1   H17  765   3.767   5.643   5.765 -1.2724 -0.2849 -0.8590
   11CHL1   C13  766   3.702   5.796   5.905  0.3658  0.4242  0.0387
   11CHL1   C18  767   3.613   5.927   5.879  0.4004 -0.6739  0.2586
   11CHL1  H18A  768   3.600   5.980   5.976  1.6743  1.6836 -0.7905
   11CHL1  H18B  769   3.661   5.998   5.809 -2.5073 -0.3110 -1.5509
   11CHL1  H18C  770   3.508   5.900   5.852 -0.4307  1.5386  1.0561
   11CHL1   C12  771   3.623   5.692   5.992 -0.4011 -0.4490 -0.0589
   11CHL1  H12A  772   3.530   5.667   5.937 -0.0340 -1.4174 -0.2649
   11CHL1  H12B  773   3.679   5.596   6.000 -0.7072 -0.5961  0.3596
   11CHL1   C11  774   3.593   5.754   6.130 -0.6633  0.4922 -0.0072
   11CHL1  H11A  775   3.521   5.837   6.115  0.9708  1.6229 -2.0369
   11CHL1  H11B  776   3.552   5.677   6.199  0.9980  0.4522  1.0016
   11CHL1    C9  777   3.716   5.816   6.201 -0.5855 -0.2389  0.1698
   11CHL1    H9  778   3.780   5.725   6.215 -1.5464 -1.4271 -2.4460
   11CHL1   C10  779   3.694   5.868   6.343 -0.1466 -0.2167 -0.6676
   11CHL1   C19  780   3.590   5.982   6.342  0.9343  0.3643 -0.6667
   11CHL1  H19A  781   3.492   5.938   6.314  0.3616  0.9800  0.3119
   11CHL1  H19B  782   3.562   6.028   6.439 -1.6056 -0.9297 -0.7133
   11CHL1  H19C  783   3.616   6.067   6.274  1.3528  0.1165 -0.8190
   11CHL1    C1  784   3.647   5.748   6.438 -0.3707 -0.2712  0.5434
   11CHL1   H1A  785   3.544   5.716   6.411 -0.3943 -0.8531  1.2999
   11CHL1   H1B  786   3.725   5.669   6.432  0.4085  0.5761 -1.0134
   11CHL1    C2  787   3.636   5.791   6.588 -0.9149 -0.2634  0.1253
   11CHL1   H2A  788   3.607   5.699   6.642  0.6064 -0.0656  1.3232
   11CHL1   H2B  789   3.565   5.875   6.605  0.5936  1.6861 -2.3964
   11CHL1   C20  790   3.647   5.755   5.643  0.3534 -0.1346 -0.3045
   11CHL1   H20  791   3.619   5.858   5.612 -1.7004 -0.6197 -0.2033
   11CHL1   C21  792   3.530   5.663   5.681  0.3550  0.5969  0.0051
   11CHL1  H21A  793   3.472   5.627   5.594  1.6469 -2.1143  0.1519
   11CHL1  H21B  794   3.463   5.704   5.760  0.6225  0.4033  0.3321
   11CHL1  H21C  795   3.562   5.571   5.735  0.1639  0.9126  0.6709
   11CHL1   C22  796   3.699   5.695   5.508  0.1579  0.6546 -0.1451
   11CHL1  H22A  797   3.707   5.590   5.541 -0.3689  1.3222  2.3499
   11CHL1  H22B  798   3.616   5.710   5.436 -0.3408  0.8850  0.4640
   11CHL1   C23  799   3.820   5.764   5.440  0.0963  0.2018  0.1854
   11CHL1  H23A  800   3.808   5.869   5.406  2.4072  0.4366 -0.0822
   11CHL1  H23B  801   3.914   5.758   5.498  1.5929  1.2143 -1.9760
   11CHL1   C24  802   3.849   5.696   5.298 -1.0220 -0.4095 -0.2317
   11CHL1  H24A  803   3.859   5.588   5.325 -0.7186 -0.6675 -1.3055
   11CHL1  H24B  804   3.767   5.710   5.225 -0.4689 -0.7478 -0.9358
   11CHL1   C25  805   3.989   5.746   5.239  0.0383 -0.1270  0.3358
   11CHL1   H25  806   3.987   5.857   5.241  0.3522 -0.1153  0.1631
   11CHL1   C26  807   4.114   5.700   5.324  0.2360  0.2275  0.6889
   11CHL1  H26A  808   4.206   5.718   5.264 -0.0466 -0.8423 -0.0965
   11CHL1  H26B  809   4.107   5.758   5.418  0.0414  2.0664 -0.3888
   11CHL1  H26C  810   4.100   5.592   5.343 -0.0347  0.1107 -0.1075
   11CHL1   C27  811   3.999   5.702   5.100  0.1261  0.0971 -0.2386
   11CHL1  H27A  812   4.088   5.750   5.052  0.8498  0.8758  1.7809
   11CHL1  H27B  813   4.013   5.593   5.085 -0.2853  0.0515 -0.3062
   11CHL1  H27C  814   3.914   5.743   5.041 -0.6022 -0.7652  0.1931
   12CHL1    C3  815   4.476   5.931   6.498  0.7414 -0.1274 -0.2075
   12CHL1    H3  816   4.573   5.980   6.475  0.2793  0.4158 -1.0690
   12CHL1    O3  817   4.455   5.956   6.636  0.4438  0.6889 -0.3055
   12CHL1   H3'  818   4.365   5.937   6.662  1.2002  0.4024  2.3265
   12CHL1    C4  819   4.362   6.007   6.422  0.6277  0.3476 -0.2676
   12CHL1   H4A  820   4.267   5.952   6.438  0.2487  0.8414 -0.7827
   12CHL1   H4B  821   4.360   6.111   6.461  1.3961  0.7918 -1.3786
   12CHL1    C5  822   4.411   6.000   6.278  0.0749 -0.4431  0.3860
   12CHL1    C6  823   4.449   6.106   6.206  0.1955  0.5180  0.4616
   12CHL1    H6  824   4.452   6.203   6.259 -0.0154  0.8161 -0.0574
   12CHL1    C7  825   4.486   6.110   6.057 -0.2959  0.2825  0.8347
   12CHL1   H7A  826   4.428   6.190   6.007 -0.2062  0.8382  1.6028
   12CHL1   H7B  827   4.593   6.129   6.036 -0.2191 -1.6198 -0.9314
   12CHL1    C8  828   4.442   5.974   5.991  0.4099  0.3393 -0.2910
   12CHL1    H8  829   4.331   5.984   5.987  0.5064  1.3558 -1.2370
   12CHL1   C14  830   4.504   5.968   5.856 -0.0248 -1.0663  0.6935
   12CHL1   H14  831   4.611   5.956   5.881  0.0085 -0.1152  1.0382
   12CHL1   C15  832   4.493   6.096   5.766  0.1401  0.3307 -0.3642
   12CHL1  H15A  833   4.392   6.140   5.779  0.2549 -0.0049  2.2330
   12CHL1  H15B  834   4.560   6.177   5.801  1.6741 -0.7002 -0.8342
   12CHL1   C16  835   4.537   6.048   5.626  0.2563  0.2141  0.7498
   12CHL1  H16A  836   4.457   6.075   5.554  0.4468  0.9668  0.8136
   12CHL1  H16B  837   4.635   6.080   5.587  0.3060 -0.6292  0.1519
   12CHL1   C17  838   4.559   5.898   5.638  0.2069 -0.2500 -0.0598
   12CHL1   H17  839   4.665   5.887   5.669 -0.2162  0.7192  1.9656
   12CHL1   C13  840   4.477   5.857   5.765 -0.7089 -0.3187 -0.6068
   12CHL1   C18  841   4.322   5.858   5.734 -0.3477  0.1766  0.1957
   12CHL1  H18A  842   4.266   5.849   5.829 -3.0925  1.3773 -1.2135
   12CHL1  H18B  843   4.293   5.950   5.678 -0.3613  0.7369  1.1019
   12CHL1  H18C  844   4.285   5.766   5.684 -3.0083  0.3832  1.6273
   12CHL1   C12  845   4.516   5.729   5.850  0.0027  0.0978 -0.0014
   12CHL1  H12A  846   4.473   5.648   5.788  0.1199 -1.1804  1.5403
   12CHL1  H12B  847   4.627   5.718   5.852  0.3295  2.6661 -0.1119
   12CHL1   C11  848   4.452   5.724   5.989  0.2863  0.3379 -0.5659
   12CHL1  H11A  849   4.345   5.700   5.971  0.6172  0.1347 -2.5146
   12CHL1  H11B  850   4.476   5.639   6.057  1.1877  1.6963  0.8625
   12CHL1    C9  851   4.473   5.857   6.073  0.3566  0.2814  0.2849
   12CHL1    H9  852   4.582   5.861   6.093  0.6517  1.0513 -1.2958
   12CHL1   C10  853   4.410   5.857   6.214  0.1320 -0.1967 -0.2394
   12CHL1   C19  854   4.259   5.814   6.206  0.2130 -0.3211  0.3824
   12CHL1  H19A  855   4.230   5.721   6.152 -0.8254 -0.0882  0.5041
   12CHL1  H19B  856   4.215   5.808   6.308  1.8670 -0.5345  1.1039
   12CHL1  H19C  857   4.209   5.898   6.154 -1.3925 -1.1349  0.5285
   12CHL1    C1  858   4.492   5.761   6.303  0.0725  0.0629 -0.6401
   12CHL1   H1A  859   4.467   5.656   6.278 -2.0555 -0.1903  2.0025
   12CHL1   H1B  860   4.601   5.783   6.301 -0.4345  3.2077  0.3293
   12CHL1    C2  861   4.470   5.781   6.461  0.8746  0.4061  0.8374
   12CHL1   H2A  862   4.538   5.715   6.519 -0.7275 -3.3888 -1.2200
   12CHL1   H2B  863   4.372   5.731   6.480  1.0606 -1.3331 -2.2707
   12CHL1   C20  864   4.520   5.828   5.507 -0.2944 -0.3875  0.2191
   12CHL1   H20  865   4.416   5.850   5.476  1.1155  4.2500 -2.2714
   12CHL1   C21  866   4.557   5.675   5.512  0.7553 -0.8479 -0.0019
   12CHL1  H21A  867   4.540   5.619   5.418  0.7189 -1.0391  0.1165
   12CHL1  H21B  868   4.484   5.631   5.583 -1.1819  2.2434  0.1200
   12CHL1  H21C  869   4.662   5.656   5.543  0.0464 -1.7962  2.0403
   12CHL1   C22  870   4.600   5.902   5.391  0.3878 -0.5311 -0.6062
   12CHL1  H22A  871   4.558   6.005   5.381 -0.6457 -1.1546 -4.6200
   12CHL1  H22B  872   4.707   5.910   5.419  0.1921  0.7204 -0.1551
   12CHL1   C23  873   4.585   5.845   5.253  0.7720  0.3790  0.1207
   12CHL1  H23A  874   4.647   5.753   5.242 -0.4935 -0.4517 -0.3499
   12CHL1  H23B  875   4.483   5.802   5.243  1.2231 -0.7485  0.1750
   12CHL1   C24  876   4.630   5.944   5.142  0.0052 -0.0980 -0.3983
   12CHL1  H24A  877   4.618   5.907   5.038 -1.4260  0.5577 -0.4889
   12CHL1  H24B  878   4.564   6.033   5.151  1.3018  0.7399  2.1238
   12CHL1   C25  879   4.764   6.024   5.168 -0.6213  0.4664 -0.1990
   12CHL1   H25  880   4.758   6.061   5.272 -1.4532 -1.0906  0.3368
   12CHL1   C26  881   4.884   5.932   5.163  0.1179  0.2310  0.1977
   12CHL1  H26A  882   4.892   5.889   5.061  0.3498  0.9572 -0.0938
   12CHL1  H26B  883   4.979   5.977   5.197 -0.0293 -0.0988  1.0868
   12CHL1  H26C  884   4.869   5.845   5.231  1.9958  0.7971  1.4007
   12CHL1   C27  885   4.777   6.143   5.084 -0.6834 -0.1558 -0.4486
   12CHL1  H27A  886   4.690   6.211   5.095  0.5227  2.2373 -3.9175
   12CHL1  H27B  887   4.872   6.187   5.121 -2.0331  0.0699  3.1052
   12CHL1  H27C  888   4.792   6.111   4.979 -1.2935  0.5429 -0.7627
   13CHL1    C3  889   4.133   6.677   6.462  0.0048 -0.1790  0.0706
   13CHL1    H3  890   4.066   6.597   6.423  1.0392 -1.0979  0.1414
   13CHL1    O3  891   4.118   6.694   6.608 -0.4825 -0.0496  0.2595
   13CHL1   H3'  892   4.164   6.620   6.649 -0.1085 -1.0556 -1.8575
   13CHL1    C4  893   4.283   6.642   6.434 -0.3205  0.0406  0.3961
   13CHL1   H4A  894   4.341   6.727   6.476  2.8568 -2.6046  1.7914
   13CHL1   H4B  895   4.308   6.549   6.489  2.3490  0.5625  0.1739
   13CHL1    C5  896   4.310   6.629   6.286 -0.1008 -0.2531  0.0899
   13CHL1    C6  897   4.379   6.524   6.240  0.2556 -0.0927 -0.0059
   13CHL1    H6  898   4.417   6.446   6.308  1.5822 -0.4933 -1.1406
   13CHL1    C7  899   4.429   6.498   6.102 -0.2704  0.0201  0.9922
   13CHL1   H7A  900   4.523   6.440   6.098  0.2600  0.8571  1.0318
   13CHL1   H7B  901   4.357   6.424   6.061  0.7455  0.4411 -1.7720
   13CHL1    C8  902   4.415   6.625   6.015 -0.3081  0.1362  0.1478
   13CHL1    H8  903   4.502   6.688   6.041  0.6272 -1.5580  1.3274
   13CHL1   C14  904   4.400   6.596   5.874  0.2468 -0.4214 -0.6777
   13CHL1   H14  905   4.303   6.543   5.863  0.7039 -1.1358 -1.4339
   13CHL1   C15  906   4.506   6.499   5.827  0.1762  0.9888  0.4008
   13CHL1  H15A  907   4.610   6.527   5.854  1.8201 -3.2576 -0.6164
   13CHL1  H15B  908   4.496   6.395   5.865  0.7872  0.6918 -0.2193
   13CHL1   C16  909   4.495   6.507   5.670 -1.3990  0.6168 -0.8617
   13CHL1  H16A  910   4.599   6.525   5.636 -0.4908 -1.1997  0.7542
   13CHL1  H16B  911   4.450   6.416   5.625  0.8479 -0.7499 -0.5182
   13CHL1   C17  912   4.406   6.629   5.638 -0.0525 -0.4492 -0.7072
   13CHL1   H17  913   4.307   6.587   5.610  1.0382 -1.3760 -3.4362
   13CHL1   C13  914   4.402   6.711   5.775 -0.3082 -0.3720  0.1779
   13CHL1   C18  915   4.530   6.801   5.794 -0.1078 -0.0774  0.1613
   13CHL1  H18A  916   4.621   6.739   5.778 -1.0478 -1.3437 -0.3991
   13CHL1  H18B  917   4.533   6.894   5.732  1.3608  0.2837  0.7255
   13CHL1  H18C  918   4.535   6.839   5.898 -1.3775  1.5156 -0.3117
   13CHL1   C12  919   4.278   6.789   5.801  0.9486 -0.3095 -0.5803
   13CHL1  H12A  920   4.283   6.889   5.753 -1.7662  0.8020  1.2146
   13CHL1  H12B  921   4.191   6.733   5.761 -0.2868  2.0198 -1.3188
   13CHL1   C11  922   4.260   6.826   5.952  0.0282 -0.4533 -0.0383
   13CHL1  H11A  923   4.339   6.901   5.972  2.2137 -2.2020 -1.6097
   13CHL1  H11B  924   4.167   6.878   5.984  1.5308  1.0089  2.2556
   13CHL1    C9  925   4.283   6.706   6.045  0.1221  0.1473  0.0213
   13CHL1    H9  926   4.195   6.640   6.030  0.9275 -0.3094 -3.5720
   13CHL1   C10  927   4.271   6.743   6.195  0.3159  0.0120  0.3291
   13CHL1   C19  928   4.361   6.865   6.223 -0.2953 -0.6863 -0.0376
   13CHL1  H19A  929   4.355   6.903   6.327  2.4019 -2.3641  0.8141
   13CHL1  H19B  930   4.464   6.830   6.201  0.2070  0.8333 -0.1716
   13CHL1  H19C  931   4.338   6.955   6.163  0.1569  0.3674  1.3209
   13CHL1    C1  932   4.126   6.793   6.236 -0.4292  0.6316  0.2436
   13CHL1   H1A  933   4.100   6.891   6.190 -0.3962  1.3416  1.6748
   13CHL1   H1B  934   4.052   6.716   6.206  0.1105  0.6502 -1.1989
   13CHL1    C2  935   4.100   6.808   6.383 -0.2028 -0.1984 -0.4956
   13CHL1   H2A  936   3.997   6.844   6.406  0.6525  1.0610  1.7831
   13CHL1   H2B  937   4.169   6.888   6.416 -0.9107  0.4497 -0.5449
   13CHL1   C20  938   4.454   6.713   5.515 -0.0192 -0.3153  0.2854
   13CHL1   H20  939   4.553   6.758   5.539  0.8633 -2.3948  0.7034
   13CHL1   C21  940   4.345   6.825   5.476 -0.6580  0.5159 -0.3722
   13CHL1  H21A  941   4.339   6.894   5.563 -0.4206 -2.2990  2.0164
   13CHL1  H21B  942   4.245   6.778   5.459  0.0544 -1.7405  1.1447
   13CHL1  H21C  943   4.369   6.874   5.379 -1.5678 -2.4383 -2.2445
   13CHL1   C22  944   4.464   6.623   5.389  0.4256  0.5063 -0.2386
   13CHL1  H22A  945   4.509   6.523   5.410 -0.5530  0.1830  0.4038
   13CHL1  H22B  946   4.362   6.611   5.347 -0.7019  1.3400  2.0917
   13CHL1   C23  947   4.560   6.694   5.289  0.1964  0.6211  0.8892
   13CHL1  H23A  948   4.539   6.802   5.275 -1.4600  0.2628  0.3156
   13CHL1  H23B  949   4.665   6.681   5.320  1.0688 -1.1450 -2.3294
   13CHL1   C24  950   4.561   6.625   5.151 -0.2191  0.2218  0.2891
   13CHL1  H24A  951   4.597   6.521   5.166 -1.2594 -0.0227  1.2931
   13CHL1  H24B  952   4.452   6.626   5.129 -0.7927 -2.5455  2.4472
   13CHL1   C25  953   4.639   6.696   5.041  0.3564  0.1356  0.5254
   13CHL1   H25  954   4.603   6.800   5.057  0.0473 -0.2842  2.9150
   13CHL1   C26  955   4.789   6.700   5.042  0.5494  0.0753 -0.0648
   13CHL1  H26A  956   4.824   6.755   4.952 -0.9645  1.1696 -0.0231
   13CHL1  H26B  957   4.830   6.761   5.125 -1.4393  3.0069 -1.1027
   13CHL1  H26C  958   4.826   6.595   5.048 -1.8783 -0.7490  1.6606
   13CHL1   C27  959   4.584   6.632   4.907 -0.3242  0.6152 -0.4726
   13CHL1  H27A  960   4.473   6.631   4.909 -0.3350 -1.7376  0.9678
   13CHL1  H27B  961   4.619   6.688   4.817  0.5868 -1.5495 -1.5372
   13CHL1  H27C  962   4.619   6.527   4.897 -3.3097 -0.4945 -0.2144
   14CHL1    C3  963   4.394   2.719   6.655 -0.6389  0.2128 -0.2078
   14CHL1    H3  964   4.481   2.776   6.694  0.4106 -1.5623  0.1655
   14CHL1    O3  965   4.334   2.668   6.768 -0.0455 -0.1880  0.4869
   14CHL1   H3'  966   4.267   2.733   6.791 -1.5600 -1.4188 -0.2307
   14CHL1    C4  967   4.298   2.803   6.585  0.4192  0.1354 -0.1619
   14CHL1   H4A  968   4.220   2.731   6.552 -1.1517  1.6262  0.1682
   14CHL1   H4B  969   4.245   2.884   6.640  1.5103  0.7057  0.0690
   14CHL1    C5  970   4.370   2.858   6.465 -0.1136  0.3531 -0.1493
   14CHL1    C6  971   4.376   2.989   6.449 -0.0688 -0.3788  0.0207
   14CHL1    H6  972   4.320   3.056   6.516  1.2647 -0.0366  0.8412
   14CHL1    C7  973   4.440   3.045   6.327 -0.5433  0.4534 -0.0271
   14CHL1   H7A  974   4.404   3.148   6.304 -2.1716  0.0612  0.6335
   14CHL1   H7B  975   4.548   3.055   6.352 -0.0307  1.8523 -2.5227
   14CHL1    C8  976   4.435   2.955   6.201  0.9638  0.4617  0.1183
   14CHL1    H8  977   4.328   2.946   6.175  0.6646 -0.8598  1.6789
   14CHL1   C14  978   4.517   3.015   6.084  0.6723 -0.0232 -0.2840
   14CHL1   H14  979   4.616   3.027   6.132  0.3940 -0.3800  0.3964
   14CHL1   C15  980   4.496   3.165   6.048  0.2498  0.4130  0.1143
   14CHL1  H15A  981   4.387   3.187   6.040 -0.1226 -1.2809  0.1989
   14CHL1  H15B  982   4.533   3.230   6.131  0.7915 -0.2905  0.4338
   14CHL1   C16  983   4.563   3.173   5.914 -0.0075 -0.6787  0.7757
   14CHL1  H16A  984   4.488   3.212   5.842 -0.5552 -2.0372  0.5637
   14CHL1  H16B  985   4.641   3.252   5.916 -3.8901  3.5601  0.9467
   14CHL1   C17  986   4.606   3.031   5.872  0.5407  1.2049 -0.2320
   14CHL1   H17  987   4.709   3.032   5.915 -0.1551  1.7023  1.5428
   14CHL1   C13  988   4.528   2.934   5.954  0.4176  0.2341 -0.0451
   14CHL1   C18  989   4.389   2.916   5.890  0.2251 -0.9945  0.2627
   14CHL1  H18A  990   4.338   3.007   5.852  0.7799  0.2441  2.3389
   14CHL1  H18B  991   4.413   2.853   5.802  0.3499  1.4416 -1.5753
   14CHL1  H18C  992   4.309   2.869   5.951 -1.3811 -0.3259 -1.2587
   14CHL1   C12  993   4.591   2.799   5.998 -0.1662 -0.2059 -0.4889
   14CHL1  H12A  994   4.600   2.725   5.915 -1.0930 -1.1409  0.2311
   14CHL1  H12B  995   4.694   2.829   6.028 -0.0984  0.2282 -1.1282
   14CHL1   C11  996   4.521   2.733   6.117  0.6354  0.1098  0.6554
   14CHL1  H11A  997   4.429   2.681   6.082  0.8633 -1.4699  2.2696
   14CHL1  H11B  998   4.584   2.646   6.146 -0.6334 -0.2437  2.5695
   14CHL1    C9  999   4.491   2.821   6.240  0.4555 -0.1865  0.2084
   14CHL1    H9 1000   4.593   2.834   6.283  1.1831 -0.0982 -1.5010
   14CHL1   C10 1001   4.421   2.754   6.362 -0.0808 -0.3132  0.1592
   14CHL1   C19 1002   4.311   2.665   6.304 -0.3286  0.1832 -0.0089
   14CHL1  H19A 1003   4.237   2.718   6.240  0.4111 -0.7882 -1.7185
   14CHL1  H19B 1004   4.357   2.584   6.245  0.4103  1.0146 -0.6080
   14CHL1  H19C 1005   4.259   2.613   6.387  0.0509 -2.1857 -1.2010
   14CHL1    C1 1006   4.520   2.664   6.444 -0.0439  0.0724 -0.1658
   14CHL1   H1A 1007   4.560   2.586   6.376  3.6237  1.1247  0.5747
   14CHL1   H1B 1008   4.604   2.732   6.472  0.5531 -0.0087 -1.6576
   14CHL1    C2 1009   4.451   2.607   6.572  0.2590 -0.0554  0.1624
   14CHL1   H2A 1010   4.522   2.545   6.631  0.0058 -0.2349  0.2807
   14CHL1   H2B 1011   4.369   2.536   6.549  1.2537 -1.1331 -0.1936
   14CHL1   C20 1012   4.618   3.014   5.721  0.0209 -0.1219 -0.2441
   14CHL1   H20 1013   4.517   3.013   5.673  0.4288  2.8102 -1.3581
   14CHL1   C21 1014   4.694   2.883   5.687 -0.3990 -0.3662  0.4419
   14CHL1  H21A 1015   4.691   2.869   5.577 -0.6978  0.3663  0.3516
   14CHL1  H21B 1016   4.653   2.785   5.720  0.7257 -1.5568 -1.4704
   14CHL1  H21C 1017   4.799   2.895   5.722 -0.1299  0.6859 -0.6531
   14CHL1   C22 1018   4.696   3.136   5.662  1.3561 -0.4312 -0.2076
   14CHL1  H22A 1019   4.631   3.225   5.675  2.9070  0.5096  1.4267
   14CHL1  H22B 1020   4.790   3.158   5.716 -0.2269  0.0405  2.5552
   14CHL1   C23 1021   4.718   3.132   5.511 -0.7618 -0.2452  0.5297
   14CHL1  H23A 1022   4.763   3.230   5.486 -0.5256 -0.5267 -0.1585
   14CHL1  H23B 1023   4.790   3.051   5.491  0.5970  0.8506  0.8120
   14CHL1   C24 1024   4.591   3.104   5.425 -0.0441  0.0193 -0.0642
   14CHL1  H24A 1025   4.515   3.028   5.454  0.1493  0.1781  0.8867
   14CHL1  H24B 1026   4.538   3.199   5.446  1.0419  0.8902 -1.0621
   14CHL1   C25 1027   4.623   3.077   5.280 -0.5383  0.4026  0.0639
   14CHL1   H25 1028   4.678   3.163   5.236 -1.9750  0.8520 -0.9241
   14CHL1   C26 1029   4.694   2.946   5.257 -0.3719  1.0008  0.0695
   14CHL1  H26A 1030   4.632   2.863   5.298  1.1139 -0.2747 -0.1804
   14CHL1  H26B 1031   4.714   2.930   5.149 -0.7441  3.2309 -0.3726
   14CHL1  H26C 1032   4.797   2.952   5.298 -0.8273 -0.5659  1.5961
   14CHL1   C27 1033   4.490   3.083   5.196  0.6438  0.4752  0.1274
   14CHL1  H27A 1034   4.432   3.171   5.231 -0.5405 -0.8078  1.5363
   14CHL1  H27B 1035   4.508   3.090   5.087 -1.0113 -2.2840 -0.4012
   14CHL1  H27C 1036   4.424   3.000   5.228  0.0671  0.2180 -1.6453
   15CHL1    C3 1037   3.693   1.980   6.618  0.3469 -0.5023  0.4299
   15CHL1    H3 1038   3.618   2.058   6.593  2.4939  1.7037  0.5177
   15CHL1    O3 1039   3.714   1.999   6.757 -0.0839  0.1663 -0.2812
   15CHL1   H3' 1040   3.649   1.955   6.813  1.2756 -2.7577 -0.8433
   15CHL1    C4 1041   3.662   1.835   6.582 -0.0945  0.3658 -0.1075
   15CHL1   H4A 1042   3.748   1.770   6.610  0.2618  1.1584  0.6767
   15CHL1   H4B 1043   3.574   1.800   6.642  0.1198 -1.7254 -0.9119
   15CHL1    C5 1044   3.631   1.818   6.432  1.3158 -0.0127 -0.1923
   15CHL1    C6 1045   3.510   1.779   6.381 -0.4807 -0.1570 -0.3859
   15CHL1    H6 1046   3.428   1.760   6.451 -0.6773 -0.1026 -0.6005
   15CHL1    C7 1047   3.489   1.742   6.233 -0.1125 -0.5225 -0.1069
   15CHL1   H7A 1048   3.441   1.642   6.233  0.8485 -0.9992  0.0510
   15CHL1   H7B 1049   3.417   1.822   6.206 -2.3900 -2.3678  0.2204
   15CHL1    C8 1050   3.619   1.737   6.150 -0.1531  1.6036  0.2848
   15CHL1    H8 1051   3.662   1.634   6.157  0.8069  2.0649  1.4394
   15CHL1   C14 1052   3.585   1.769   6.003  0.4406 -0.5958  0.4191
   15CHL1   H14 1053   3.548   1.873   6.009  0.5328 -0.5910  0.9789
   15CHL1   C15 1054   3.462   1.694   5.931  0.2926 -0.0459 -0.5475
   15CHL1  H15A 1055   3.473   1.588   5.962  0.9920  0.0831 -0.3366
   15CHL1  H15B 1056   3.363   1.734   5.960  0.8224  0.7741  0.1862
   15CHL1   C16 1057   3.499   1.708   5.781 -0.0045 -0.6684 -0.3242
   15CHL1  H16A 1058   3.524   1.609   5.736 -1.0186 -0.2167 -1.9459
   15CHL1  H16B 1059   3.413   1.755   5.731 -1.4141 -0.5737  2.0172
   15CHL1   C17 1060   3.619   1.806   5.771 -0.0431  0.3037 -0.1740
   15CHL1   H17 1061   3.587   1.910   5.790  1.8028  0.9801 -0.5655
   15CHL1   C13 1062   3.703   1.774   5.897  0.4260  0.5346  1.2994
   15CHL1   C18 1063   3.772   1.634   5.888  0.5678  0.3583  0.3107
   15CHL1  H18A 1064   3.849   1.631   5.807 -0.8461 -1.0419 -1.0503
   15CHL1  H18B 1065   3.820   1.612   5.986 -0.0561 -2.1813  0.1325
   15CHL1  H18C 1066   3.697   1.554   5.870  1.0280 -0.4457  1.7965
   15CHL1   C12 1067   3.798   1.888   5.951  0.1870  0.2572  0.4355
   15CHL1  H12A 1068   3.893   1.883   5.893  1.1991 -0.8623  2.1141
   15CHL1  H12B 1069   3.745   1.986   5.941 -3.0341 -1.3756  0.3783
   15CHL1   C11 1070   3.845   1.865   6.096 -0.3798 -0.9235  0.1232
   15CHL1  H11A 1071   3.912   1.777   6.086  0.1476 -0.3602 -1.7939
   15CHL1  H11B 1072   3.905   1.945   6.143  0.8474 -1.7462 -0.0062
   15CHL1    C9 1073   3.719   1.848   6.195  0.0727  0.4940 -0.2542
   15CHL1    H9 1074   3.658   1.938   6.174 -1.2519 -0.5866 -1.2886
   15CHL1   C10 1075   3.749   1.846   6.347  0.0955  0.8781 -0.1499
   15CHL1   C19 1076   3.858   1.736   6.370 -0.0558 -0.2187 -0.1973
   15CHL1  H19A 1077   3.948   1.744   6.307 -0.9138  0.3968 -1.3767
   15CHL1  H19B 1078   3.903   1.740   6.472 -1.0708  0.3575  0.2439
   15CHL1  H19C 1079   3.816   1.637   6.342  2.4127 -1.5742  0.6062
   15CHL1    C1 1080   3.799   1.987   6.389 -0.9236  0.4032 -0.6780
   15CHL1   H1A 1081   3.893   2.019   6.338  0.0318 -1.7108 -0.3423
   15CHL1   H1B 1082   3.721   2.064   6.368 -1.4132 -0.3494 -1.6589
   15CHL1    C2 1083   3.824   2.008   6.542  0.4245 -0.5741  0.1442
   15CHL1   H2A 1084   3.860   2.112   6.551 -1.0220 -0.0354  0.0161
   15CHL1   H2B 1085   3.889   1.930   6.587  0.0313 -1.2005 -0.3524
   15CHL1   C20 1086   3.693   1.808   5.638 -0.5620  0.5177 -0.2902
   15CHL1   H20 1087   3.751   1.713   5.644 -1.8932 -0.3533 -0.6500
   15CHL1   C21 1088   3.787   1.926   5.620 -0.6949  0.0026 -0.1544
   15CHL1  H21A 1089   3.873   1.927   5.689 -0.3240 -0.5471 -0.5979
   15CHL1  H21B 1090   3.732   2.021   5.640 -0.0748  0.1504  0.8970
   15CHL1  H21C 1091   3.818   1.925   5.513 -4.2395  0.0411 -1.3211
   15CHL1   C22 1092   3.609   1.790   5.509 -0.2396  0.2609 -0.2236
   15CHL1  H22A 1093   3.679   1.781   5.423 -0.4482  0.5079 -0.4226
   15CHL1  H22B 1094   3.555   1.692   5.510 -1.6083  0.9817 -0.3605
   15CHL1   C23 1095   3.514   1.902   5.477  0.4446 -0.1271  0.4116
   15CHL1  H23A 1096   3.458   1.921   5.571  0.4843  0.5206  0.3088
   15CHL1  H23B 1097   3.564   1.996   5.444 -0.9723  1.2218  1.9925
   15CHL1   C24 1098   3.417   1.854   5.367  0.9114 -0.6029  0.4656
   15CHL1  H24A 1099   3.464   1.843   5.267  1.9525 -1.7349  1.0527
   15CHL1  H24B 1100   3.394   1.748   5.390  0.8221 -0.6509  0.1611
   15CHL1   C25 1101   3.292   1.941   5.332  0.9077  0.4619  0.3388
   15CHL1   H25 1102   3.322   2.048   5.327  0.1980  0.6421 -0.3190
   15CHL1   C26 1103   3.241   1.889   5.193  1.0552  0.2799 -0.5363
   15CHL1  H26A 1104   3.155   1.948   5.156 -1.0517 -1.5924  1.0738
   15CHL1  H26B 1105   3.322   1.892   5.117  1.6705 -1.8546 -0.0491
   15CHL1  H26C 1106   3.218   1.780   5.201  0.9550  0.3640  0.5305
   15CHL1   C27 1107   3.180   1.924   5.428 -0.2082 -0.2779 -0.4280
   15CHL1  H27A 1108   3.211   1.971   5.524  0.4463  3.2047 -2.2222
   15CHL1  H27B 1109   3.087   1.964   5.383 -2.2729 -3.4228  0.6751
   15CHL1  H27C 1110   3.158   1.818   5.456  0.3191 -0.2131  0.2627
   16CHL1    C3 1111   2.422   0.515   6.356 -0.2321 -0.5812 -0.3653
   16CHL1    H3 1112   2.499   0.442   6.323 -0.4919 -0.3137 -1.6197
   16CHL1    O3 1113   2.408   0.507   6.498  0.1837 -0.4320 -0.0964
   16CHL1   H3' 1114   2.313   0.510   6.509  0.3513 -0.2244  1.5490
   16CHL1    C4 1115   2.475   0.654   6.314  0.3546 -0.5282  0.3264
   16CHL1   H4A 1116   2.404   0.726   6.361  1.3290  1.5544 -1.2602
   16CHL1   H4B 1117   2.573   0.675   6.361 -0.2862 -0.9191  1.9132
   16CHL1    C5 1118   2.479   0.682   6.167 -0.4408  0.3578  1.3305
   16CHL1    C6 1119   2.583   0.735   6.099 -0.5325 -0.0459  0.1184
   16CHL1    H6 1120   2.675   0.767   6.152 -0.2245 -0.6281 -0.0574
   16CHL1    C7 1121   2.589   0.750   5.947  0.9164 -0.1998 -0.6265
   16CHL1   H7A 1122   2.647   0.840   5.918 -2.2041  1.3510 -2.6346
   16CHL1   H7B 1123   2.644   0.662   5.906  0.2314 -1.6329  1.4243
   16CHL1    C8 1124   2.444   0.759   5.885  0.2517 -0.0490  0.6500
   16CHL1    H8 1125   2.397   0.858   5.902 -1.6653 -0.5770 -1.2228
   16CHL1   C14 1126   2.451   0.740   5.726 -0.3890  0.6562 -0.1187
   16CHL1   H14 1127   2.494   0.638   5.715 -0.0312  0.4442  2.5546
   16CHL1   C15 1128   2.538   0.844   5.661 -0.1355  0.7340 -0.4494
   16CHL1  H15A 1129   2.520   0.945   5.705  1.1278  1.2005 -0.9618
   16CHL1  H15B 1130   2.643   0.814   5.681 -0.5842  0.6601  2.2280
   16CHL1   C16 1131   2.488   0.847   5.511  0.2619 -0.8295 -0.6779
   16CHL1  H16A 1132   2.464   0.950   5.477 -1.3519 -1.3243 -1.1174
   16CHL1  H16B 1133   2.568   0.805   5.445  0.7350 -1.3224  0.1923
   16CHL1   C17 1134   2.363   0.753   5.515  0.9066  0.0562  0.6158
   16CHL1   H17 1135   2.400   0.649   5.501 -3.9171 -1.8447 -0.1149
   16CHL1   C13 1136   2.318   0.742   5.664  0.2233 -0.1669 -0.1780
   16CHL1   C18 1137   2.232   0.874   5.685 -0.7175  0.5358 -0.3829
   16CHL1  H18A 1138   2.227   0.908   5.791 -1.9223  0.6753 -0.4671
   16CHL1  H18B 1139   2.280   0.959   5.632 -0.3073 -0.8326 -2.3097
   16CHL1  H18C 1140   2.127   0.860   5.652  0.1115  0.3547 -3.1924
   16CHL1   C12 1141   2.238   0.624   5.712 -0.3381  0.0309 -0.1685
   16CHL1  H12A 1142   2.136   0.611   5.669 -2.9175 -0.2130  5.1464
   16CHL1  H12B 1143   2.296   0.533   5.687 -0.1450 -0.0180  0.4254
   16CHL1   C11 1144   2.214   0.635   5.862 -0.6970  0.4960 -0.4566
   16CHL1  H11A 1145   2.147   0.722   5.876 -1.2501  0.3685 -2.0170
   16CHL1  H11B 1146   2.162   0.545   5.901 -1.4394  2.3115  3.0441
   16CHL1    C9 1147   2.353   0.642   5.936  0.1082  0.0905 -0.1696
   16CHL1    H9 1148   2.418   0.555   5.913 -0.2288  0.2749 -1.9889
   16CHL1   C10 1149   2.350   0.637   6.091  0.6129 -0.7020 -0.1842
   16CHL1   C19 1150   2.236   0.737   6.139 -0.2828  0.3421 -0.4224
   16CHL1  H19A 1151   2.249   0.835   6.089  0.0215  0.1877 -0.6504
   16CHL1  H19B 1152   2.140   0.689   6.112  0.8175 -0.3693 -3.4098
   16CHL1  H19C 1153   2.243   0.752   6.249 -0.6422  0.5142 -0.4229
   16CHL1    C1 1154   2.301   0.492   6.134 -0.1754 -0.9218  0.8569
   16CHL1   H1A 1155   2.207   0.465   6.081  0.3874  0.6790 -1.0812
   16CHL1   H1B 1156   2.389   0.430   6.105 -0.9116 -1.0115 -1.4524
   16CHL1    C2 1157   2.286   0.477   6.286 -0.6103  0.5891 -0.3284
   16CHL1   H2A 1158   2.258   0.371   6.305  1.4690  0.0476 -0.0248
   16CHL1   H2B 1159   2.205   0.546   6.317 -2.2167 -0.9074 -1.0199
   16CHL1   C20 1160   2.264   0.790   5.399  0.3812  0.2988  0.4931
   16CHL1   H20 1161   2.230   0.894   5.412  1.3682  0.8068 -0.7593
   16CHL1   C21 1162   2.130   0.707   5.395  0.2446  0.0703 -0.1945
   16CHL1  H21A 1163   2.162   0.604   5.368  0.9913  0.0486  0.6970
   16CHL1  H21B 1164   2.072   0.736   5.305 -1.5896 -2.1467  0.1809
   16CHL1  H21C 1165   2.065   0.716   5.485 -1.4315 -1.8457 -1.1310
   16CHL1   C22 1166   2.336   0.779   5.257  0.8994 -0.8279 -0.0621
   16CHL1  H22A 1167   2.424   0.712   5.253  0.5157 -1.3242 -0.3533
   16CHL1  H22B 1168   2.258   0.740   5.188  1.5513  1.6380 -2.3568
   16CHL1   C23 1169   2.367   0.918   5.184  0.9984 -0.1903 -0.2760
   16CHL1  H23A 1170   2.279   0.986   5.183  0.4439 -0.8934 -0.9944
   16CHL1  H23B 1171   2.446   0.956   5.251  1.1631 -4.0376  2.0425
   16CHL1   C24 1172   2.407   0.900   5.039  0.0983 -0.1509 -0.2192
   16CHL1  H24A 1173   2.430   1.002   5.002 -1.3573  0.2494 -0.0593
   16CHL1  H24B 1174   2.497   0.834   5.036  0.3929  0.2717 -0.6850
   16CHL1   C25 1175   2.303   0.828   4.944 -0.4476 -0.4418  0.5537
   16CHL1   H25 1176   2.273   0.731   4.990 -0.6884 -0.2485  0.8113
   16CHL1   C26 1177   2.183   0.915   4.917  0.2156 -0.7003  0.6657
   16CHL1  H26A 1178   2.220   1.011   4.874  0.9582 -1.6913 -0.9772
   16CHL1  H26B 1179   2.122   0.855   4.846 -0.2280 -2.0715  2.1574
   16CHL1  H26C 1180   2.125   0.932   5.010  0.1849  0.4102  0.4571
   16CHL1   C27 1181   2.370   0.789   4.809  0.5202 -0.2799 -0.1781
   16CHL1  H27A 1182   2.407   0.878   4.753  1.0352  0.6681  1.5711
   16CHL1  H27B 1183   2.447   0.708   4.814 -0.9139 -1.8147 -1.5592
   16CHL1  H27C 1184   2.284   0.748   4.753  0.0046 -0.7204  0.9150
   17CHL1    C3 1185   3.598   5.297   6.540 -0.2767  0.4976 -0.5648
   17CHL1    H3 1186   3.661   5.385   6.520 -0.4309  1.0645  1.2338
   17CHL1    O3 1187   3.618   5.269   6.681 -0.2360 -0.1406  0.2864
   17CHL1   H3' 1188   3.575   5.345   6.722 -0.8063 -0.6059  0.5583
   17CHL1    C4 1189   3.452   5.331   6.515 -0.2212 -0.1415 -0.0345
   17CHL1   H4A 1190   3.385   5.254   6.558  0.9133 -1.6833 -0.9506
   17CHL1   H4B 1191   3.429   5.428   6.566  0.4346  0.9897 -1.7994
   17CHL1    C5 1192   3.413   5.342   6.372 -0.1490 -0.7453  0.3156
   17CHL1    C6 1193   3.364   5.450   6.313  0.4273 -0.4725  0.6581
   17CHL1    H6 1194   3.348   5.537   6.378 -0.8515 -0.3353  0.1881
   17CHL1    C7 1195   3.327   5.472   6.168  0.2047  0.2159 -0.1546
   17CHL1   H7A 1196   3.230   5.525   6.162  0.9858  1.6454 -0.7898
   17CHL1   H7B 1197   3.405   5.536   6.121  1.1920  0.7722  2.0925
   17CHL1    C8 1198   3.321   5.331   6.098  0.7244 -0.6998  0.0729
   17CHL1    H8 1199   3.224   5.288   6.131  0.1261  0.7895  0.3398
   17CHL1   C14 1200   3.329   5.340   5.944 -0.2362  0.0966 -0.2677
   17CHL1   H14 1201   3.433   5.364   5.912  0.1231 -0.7588  0.2186
   17CHL1   C15 1202   3.248   5.456   5.883  0.3968 -0.9466 -0.0189
   17CHL1  H15A 1203   3.150   5.469   5.934  0.5346 -0.0637  0.0491
   17CHL1  H15B 1204   3.304   5.552   5.889  0.7203 -0.9554 -2.1525
   17CHL1   C16 1205   3.236   5.418   5.739  0.3468  0.9785  0.4303
   17CHL1  H16A 1206   3.126   5.412   5.723  0.0724  0.7380  2.2600
   17CHL1  H16B 1207   3.284   5.490   5.669 -0.5175  0.7628 -0.4049
   17CHL1   C17 1208   3.297   5.273   5.718 -0.1743  0.5510  0.5157
   17CHL1   H17 1209   3.403   5.302   5.702 -0.6323  2.2916  0.4891
   17CHL1   C13 1210   3.298   5.217   5.866  0.0524 -0.4234  0.6216
   17CHL1   C18 1211   3.161   5.152   5.905  0.6718 -0.0318 -0.2163
   17CHL1  H18A 1212   3.163   5.107   6.006 -0.4155 -4.9875 -2.1078
   17CHL1  H18B 1213   3.084   5.232   5.908  0.1711 -0.5457  1.0503
   17CHL1  H18C 1214   3.138   5.071   5.832  0.7473  0.9180 -1.3171
   17CHL1   C12 1215   3.417   5.127   5.908 -0.5492 -0.0350 -0.4438
   17CHL1  H12A 1216   3.413   5.029   5.855 -0.5154  0.1188 -0.7331
   17CHL1  H12B 1217   3.513   5.165   5.867 -0.5374  0.4181  0.0086
   17CHL1   C11 1218   3.423   5.105   6.058 -0.5069  0.7921 -0.4571
   17CHL1  H11A 1219   3.336   5.039   6.080  0.0595 -0.5701 -2.1249
   17CHL1  H11B 1220   3.507   5.034   6.076 -1.1534 -0.3463 -1.7350
   17CHL1    C9 1221   3.432   5.231   6.139  0.6029  0.2903  0.1762
   17CHL1    H9 1222   3.526   5.279   6.103  0.9931 -0.5766 -0.0007
   17CHL1   C10 1223   3.450   5.213   6.289  0.0013  0.3363  0.0171
   17CHL1   C19 1224   3.352   5.100   6.334  0.0285 -0.0815 -0.2481
   17CHL1  H19A 1225   3.244   5.119   6.314  0.1814  1.5154  0.3238
   17CHL1  H19B 1226   3.379   4.998   6.297 -0.4393 -0.8882  1.5271
   17CHL1  H19C 1227   3.371   5.092   6.443  1.9149 -2.1265 -0.6380
   17CHL1    C1 1228   3.597   5.180   6.313 -0.0281  0.2053 -0.6895
   17CHL1   H1A 1229   3.629   5.086   6.264 -1.2449 -0.3247 -0.5204
   17CHL1   H1B 1230   3.656   5.270   6.286 -0.3528  0.3584 -0.8920
   17CHL1    C2 1231   3.630   5.164   6.468  0.3146 -0.2451  0.6330
   17CHL1   H2A 1232   3.740   5.150   6.468  0.4662  0.6864 -1.1893
   17CHL1   H2B 1233   3.572   5.079   6.511  1.0411 -0.3666  1.3935
   17CHL1   C20 1234   3.259   5.186   5.599 -0.6976  0.4026  0.1261
   17CHL1   H20 1235   3.153   5.169   5.628 -1.1453  1.3722 -0.8498
   17CHL1   C21 1236   3.340   5.057   5.585 -0.6177  0.0930  0.1956
   17CHL1  H21A 1237   3.338   5.000   5.680  1.5578  1.7868  1.3388
   17CHL1  H21B 1238   3.443   5.090   5.561 -0.6886  0.9964  1.0616
   17CHL1  H21C 1239   3.291   5.003   5.501 -3.8933  4.8943 -1.4785
   17CHL1   C22 1240   3.256   5.270   5.465  0.6377  0.6859  0.3912
   17CHL1  H22A 1241   3.227   5.193   5.391  2.5523 -0.2192  0.5264
   17CHL1  H22B 1242   3.176   5.347   5.472 -0.2019 -0.1309 -0.1112
   17CHL1   C23 1243   3.390   5.326   5.425  0.0694 -0.4089 -0.4438
   17CHL1  H23A 1244   3.433   5.398   5.498  0.3298 -1.2906  0.2931
   17CHL1  H23B 1245   3.469   5.248   5.431  1.1301  0.5432 -1.5412
   17CHL1   C24 1246   3.375   5.381   5.288 -0.0151  0.1983  0.4788
   17CHL1  H24A 1247   3.353   5.292   5.225  1.7527  1.4161 -2.0669
   17CHL1  H24B 1248   3.297   5.459   5.271  0.3352 -0.0994 -3.4899
   17CHL1   C25 1249   3.506   5.441   5.225 -0.4623 -0.5766 -0.1055
   17CHL1   H25 1250   3.527   5.542   5.265  0.3746  0.0170 -1.9420
   17CHL1   C26 1251   3.633   5.370   5.273  0.1516 -0.1100 -0.4082
   17CHL1  H26A 1252   3.633   5.264   5.240 -0.3745 -0.3500  0.3430
   17CHL1  H26B 1253   3.725   5.420   5.237  0.7536 -0.1613  0.9900
   17CHL1  H26C 1254   3.629   5.385   5.383 -0.5336  1.9395 -0.6696
   17CHL1   C27 1255   3.507   5.444   5.076 -0.3316 -0.3122  0.1399
   17CHL1  H27A 1256   3.473   5.350   5.029 -1.6987  1.0627 -1.7824
   17CHL1  H27B 1257   3.451   5.532   5.038  0.9015  0.4465 -0.0118
   17CHL1  H27C 1258   3.599   5.479   5.023 -1.5510  0.1906 -1.7297
   18CHL1    C3 1259   4.729   6.381   3.296 -0.3908 -0.5033 -0.5181
   18CHL1    H3 1260   4.703   6.487   3.319 -0.5314 -0.9971  1.8024
   18CHL1    O3 1261   4.733   6.358   3.158 -0.5027  0.2452  0.4281
   18CHL1   H3' 1262   4.641   6.336   3.138 -0.0883 -0.8252 -0.4118
   18CHL1    C4 1263   4.877   6.362   3.339 -0.0410 -0.1365 -0.8270
   18CHL1   H4A 1264   4.912   6.267   3.294 -1.4388 -1.0799 -0.0104
   18CHL1   H4B 1265   4.942   6.441   3.297  1.9803 -0.8309  0.8127
   18CHL1    C5 1266   4.892   6.375   3.489  0.0328 -0.0613 -0.2656
   18CHL1    C6 1267   4.979   6.459   3.543  0.0592 -0.7640  0.3079
   18CHL1    H6 1268   5.044   6.524   3.482 -0.3253 -1.2636 -0.6598
   18CHL1    C7 1269   5.014   6.461   3.687 -0.1060  0.7886 -0.1395
   18CHL1   H7A 1270   5.125   6.471   3.691 -0.1854  1.4140  0.6247
   18CHL1   H7B 1271   4.967   6.553   3.726 -1.2460 -0.1539  0.8036
   18CHL1    C8 1272   4.977   6.329   3.768  0.8609  0.7560  0.0807
   18CHL1    H8 1273   5.043   6.244   3.741 -0.2256 -0.2942  0.6445
   18CHL1   C14 1274   4.975   6.351   3.919 -0.2526 -0.5750 -0.0712
   18CHL1   H14 1275   4.905   6.432   3.949  0.5284  0.2088 -0.3366
   18CHL1   C15 1276   5.105   6.414   3.989 -0.0768 -0.6452  0.5045
   18CHL1  H15A 1277   5.184   6.375   3.921 -0.2766  1.8057 -1.2527
   18CHL1  H15B 1278   5.110   6.524   3.982 -0.1231 -0.6190  0.8785
   18CHL1   C16 1279   5.109   6.354   4.126  0.7454 -0.0208  0.1155
   18CHL1  H16A 1280   5.199   6.290   4.136  1.8378  0.9218 -2.7113
   18CHL1  H16B 1281   5.129   6.429   4.206 -1.6092 -1.4676  2.1933
   18CHL1   C17 1282   4.978   6.273   4.142  0.3670  0.2259 -0.3800
   18CHL1   H17 1283   4.893   6.341   4.167  0.4709 -0.5759  2.4228
   18CHL1   C13 1284   4.937   6.227   3.999 -0.5227 -0.2223 -0.0280
   18CHL1   C18 1285   5.026   6.105   3.952  0.3385 -0.7069 -0.4200
   18CHL1  H18A 1286   5.132   6.128   3.977  0.5304  1.4978 -2.8899
   18CHL1  H18B 1287   4.994   6.018   4.014  0.4713  0.9514  2.1197
   18CHL1  H18C 1288   5.037   6.069   3.848  0.3540  0.3292 -0.7826
   18CHL1   C12 1289   4.792   6.208   3.973  0.9226  0.0612  0.8262
   18CHL1  H12A 1290   4.753   6.119   4.026  0.9437 -0.3692  0.1248
   18CHL1  H12B 1291   4.739   6.304   3.991  1.7275  1.0966 -1.8182
   18CHL1   C11 1292   4.770   6.187   3.817 -0.2007  0.5796 -0.4784
   18CHL1  H11A 1293   4.801   6.083   3.792  0.1658  0.7218 -0.6260
   18CHL1  H11B 1294   4.663   6.173   3.793 -0.1667 -0.4703 -0.0683
   18CHL1    C9 1295   4.832   6.293   3.724 -0.2059  0.1791 -0.0332
   18CHL1    H9 1296   4.777   6.386   3.750 -2.5047 -1.5603  1.6914
   18CHL1   C10 1297   4.818   6.272   3.572  0.5862  0.6010 -0.2783
   18CHL1   C19 1298   4.867   6.134   3.525 -0.0711  0.0797  0.2166
   18CHL1  H19A 1299   4.972   6.114   3.557  0.0711  0.4495 -0.0161
   18CHL1  H19B 1300   4.809   6.055   3.578 -2.1584  0.2669 -1.6425
   18CHL1  H19C 1301   4.852   6.104   3.420 -1.5604 -0.5506  0.5797
   18CHL1    C1 1302   4.671   6.294   3.531  0.5342  0.2615  0.6862
   18CHL1   H1A 1303   4.603   6.227   3.586  0.6844 -0.6347 -0.1897
   18CHL1   H1B 1304   4.632   6.390   3.571  0.7721  0.9203 -0.6164
   18CHL1    C2 1305   4.638   6.288   3.375 -0.5113  0.2251 -0.1087
   18CHL1   H2A 1306   4.534   6.327   3.367 -0.9823 -0.9127  0.2206
   18CHL1   H2B 1307   4.645   6.185   3.334 -2.6766  0.3305 -0.9035
   18CHL1   C20 1308   4.990   6.172   4.254 -0.4449 -0.2013 -0.0557
   18CHL1   H20 1309   5.059   6.094   4.215 -1.7658  0.0326 -3.1455
   18CHL1   C21 1310   4.859   6.103   4.285 -0.1698 -0.0997 -0.3109
   18CHL1  H21A 1311   4.829   6.028   4.209 -1.0973  0.8439 -0.8837
   18CHL1  H21B 1312   4.775   6.165   4.322  0.6013  0.3478  0.7307
   18CHL1  H21C 1313   4.881   6.051   4.381  0.2542  2.0389  0.8190
   18CHL1   C22 1314   5.060   6.231   4.382  0.6492 -0.4833 -0.6664
   18CHL1  H22A 1315   5.069   6.152   4.459  1.3850  0.0902 -0.1442
   18CHL1  H22B 1316   5.162   6.267   4.354  0.9939  0.3883  1.5240
   18CHL1   C23 1317   4.980   6.349   4.446 -0.2949 -0.3713 -0.1131
   18CHL1  H23A 1318   4.966   6.431   4.372 -2.2067 -0.5716 -0.0368
   18CHL1  H23B 1319   4.879   6.303   4.459 -0.6587  0.5670  0.5102
   18CHL1   C24 1320   5.043   6.423   4.571 -0.0134  0.1635  0.6545
   18CHL1  H24A 1321   5.074   6.347   4.646  0.5441 -0.6446 -0.3608
   18CHL1  H24B 1322   5.136   6.475   4.537 -1.0470  1.9123  0.3834
   18CHL1   C25 1323   4.948   6.519   4.644 -0.7556  0.2642 -0.4793
   18CHL1   H25 1324   4.861   6.457   4.675  0.7230 -1.0639  1.2168
   18CHL1   C26 1325   5.015   6.564   4.773 -0.0634  0.0053  0.8540
   18CHL1  H26A 1326   5.116   6.604   4.750 -0.5197 -0.4838 -2.4744
   18CHL1  H26B 1327   4.951   6.641   4.821 -1.3164 -0.9185  0.7263
   18CHL1  H26C 1328   5.025   6.482   4.847  1.0650 -1.9807 -1.3786
   18CHL1   C27 1329   4.902   6.637   4.558  0.3487  0.4575 -0.5085
   18CHL1  H27A 1330   4.846   6.708   4.622  0.4831 -0.4380  0.6338
   18CHL1  H27B 1331   4.993   6.682   4.512  0.3000  1.0214 -0.0761
   18CHL1  H27C 1332   4.835   6.592   4.482 -2.7611  2.1209  1.0404
   19CHL1    C3 1333   3.806   3.829   6.218  0.2750  0.7217 -0.2749
   19CHL1    H3 1334   3.842   3.934   6.210 -0.9919  1.1584 -0.5320
   19CHL1    O3 1335   3.760   3.804   6.345 -0.4858 -0.4326 -1.0611
   19CHL1   H3' 1336   3.837   3.833   6.396  0.9799 -0.5249 -3.1179
   19CHL1    C4 1337   3.681   3.812   6.125  0.8958  0.2792 -0.2371
   19CHL1   H4A 1338   3.631   3.714   6.138 -0.0492  0.7039 -0.5499
   19CHL1   H4B 1339   3.608   3.888   6.161  1.3111  0.6724 -0.2232
   19CHL1    C5 1340   3.718   3.826   5.981 -0.0361 -0.4323 -0.2287
   19CHL1    C6 1341   3.664   3.922   5.904  0.2626  0.1241  0.1831
   19CHL1    H6 1342   3.590   3.988   5.951  0.0744  0.1859 -0.1979
   19CHL1    C7 1343   3.689   3.927   5.755 -0.8124  0.6435  0.5203
   19CHL1   H7A 1344   3.592   3.935   5.701  0.0170 -2.1982 -1.5994
   19CHL1   H7B 1345   3.754   4.012   5.724  0.1866 -0.3615 -0.1839
   19CHL1    C8 1346   3.758   3.797   5.703 -0.2836  0.5597  0.4789
   19CHL1    H8 1347   3.674   3.725   5.700 -0.3904  0.6517 -3.0859
   19CHL1   C14 1348   3.804   3.818   5.560  0.2313 -0.2510  0.4843
   19CHL1   H14 1349   3.885   3.892   5.577  1.8117 -1.6238 -0.6994
   19CHL1   C15 1350   3.702   3.867   5.453 -0.6068 -0.2198 -0.0695
   19CHL1  H15A 1351   3.599   3.826   5.465 -1.2715  1.7344  1.3680
   19CHL1  H15B 1352   3.700   3.977   5.439  0.6893 -0.3669 -1.7527
   19CHL1   C16 1353   3.752   3.811   5.323 -0.1476 -0.0577  0.2177
   19CHL1  H16A 1354   3.680   3.735   5.285 -0.3833  0.0741  0.3971
   19CHL1  H16B 1355   3.760   3.888   5.244  0.5101 -2.6494 -2.4095
   19CHL1   C17 1356   3.887   3.748   5.351 -0.4243  0.2431 -0.0215
   19CHL1   H17 1357   3.966   3.825   5.345 -1.8226  1.9268  1.7947
   19CHL1   C13 1358   3.868   3.700   5.497 -0.2935  0.0002 -0.6235
   19CHL1   C18 1359   3.766   3.577   5.499 -0.9572 -0.3834 -0.7809
   19CHL1  H18A 1360   3.714   3.555   5.595  0.4514  1.2814  0.4103
   19CHL1  H18B 1361   3.681   3.599   5.430 -2.9574 -0.2977  1.5662
   19CHL1  H18C 1362   3.818   3.487   5.460 -0.6054  0.3639 -2.1095
   19CHL1   C12 1363   3.990   3.660   5.568  0.0797  0.3929  0.2941
   19CHL1  H12A 1364   4.027   3.562   5.531 -3.2027 -0.9396  0.1977
   19CHL1  H12B 1365   4.066   3.739   5.554 -1.2445  2.0223  1.7202
   19CHL1   C11 1366   3.965   3.644   5.719 -0.3917  0.0701 -0.7934
   19CHL1  H11A 1367   3.914   3.546   5.735 -1.1074  0.1789 -2.2058
   19CHL1  H11B 1368   4.066   3.638   5.766 -0.5662  0.1557 -0.4042
   19CHL1    C9 1369   3.877   3.755   5.793  0.0188  0.4363 -0.0809
   19CHL1    H9 1370   3.946   3.842   5.797  0.5961  0.0227 -0.8033
   19CHL1   C10 1371   3.829   3.728   5.939  0.1433 -0.3554 -0.5518
   19CHL1   C19 1372   3.776   3.584   5.946  0.6123  0.6184 -0.0293
   19CHL1  H19A 1373   3.861   3.513   5.950  0.7758  0.8012 -0.2992
   19CHL1  H19B 1374   3.711   3.558   6.033 -0.4160 -3.2549 -1.7013
   19CHL1  H19C 1375   3.717   3.564   5.854  0.9649  2.3663 -0.6666
   19CHL1    C1 1376   3.956   3.736   6.029  1.2066 -0.3844 -0.2367
   19CHL1   H1A 1377   4.017   3.643   6.015  1.4744 -0.1840 -0.4128
   19CHL1   H1B 1378   4.019   3.824   6.003  1.8058 -0.1042  1.9779
   19CHL1    C2 1379   3.926   3.732   6.183  0.2627  0.1015 -0.0545
   19CHL1   H2A 1380   4.022   3.738   6.238  1.3235 -0.0215 -1.8248
   19CHL1   H2B 1381   3.888   3.628   6.198  0.2642 -0.4660 -3.3271
   19CHL1   C20 1382   3.937   3.640   5.252  0.4453 -0.6066 -0.1606
   19CHL1   H20 1383   3.893   3.538   5.262 -0.6443 -0.1459 -0.1085
   19CHL1   C21 1384   4.091   3.631   5.259  0.2721 -0.0715 -0.6582
   19CHL1  H21A 1385   4.132   3.636   5.362 -1.5909  0.3772  0.1142
   19CHL1  H21B 1386   4.132   3.717   5.202  0.1412 -0.9164 -2.0637
   19CHL1  H21C 1387   4.121   3.541   5.202 -4.3223 -0.6494 -2.6355
   19CHL1   C22 1388   3.923   3.693   5.106 -0.4552 -1.0310  0.0091
   19CHL1  H22A 1389   3.815   3.712   5.092 -0.5167 -0.7114  0.8604
   19CHL1  H22B 1390   3.975   3.788   5.080 -1.8364  0.0419  1.0460
   19CHL1   C23 1391   3.961   3.591   4.989  0.2063 -0.4015 -0.0778
   19CHL1  H23A 1392   4.067   3.559   4.996  0.2011 -0.1174  1.6157
   19CHL1  H23B 1393   3.899   3.500   5.003  2.2435 -1.8159  0.2885
   19CHL1   C24 1394   3.917   3.647   4.849 -0.3773 -0.3183 -0.3666
   19CHL1  H24A 1395   3.806   3.650   4.837 -0.4635 -0.5014  0.3832
   19CHL1  H24B 1396   3.953   3.752   4.847  1.3492 -0.8658  0.1235
   19CHL1   C25 1397   3.976   3.570   4.731 -0.0107  0.1275  0.0580
   19CHL1   H25 1398   4.087   3.567   4.743 -0.0013  0.4949  0.0603
   19CHL1   C26 1399   3.923   3.430   4.724 -0.0247  0.0340  0.5640
   19CHL1  H26A 1400   3.962   3.378   4.634  0.0330 -1.4888  1.4442
   19CHL1  H26B 1401   3.955   3.364   4.808  1.4820 -0.5833 -0.4515
   19CHL1  H26C 1402   3.812   3.434   4.721 -0.1050 -2.0013 -1.2342
   19CHL1   C27 1403   3.948   3.654   4.604  0.7587  0.5990 -0.4169
   19CHL1  H27A 1404   3.991   3.600   4.516  1.2895  0.4652 -0.0837
   19CHL1  H27B 1405   3.844   3.688   4.586  0.8048  1.6425  1.0794
   19CHL1  H27C 1406   4.012   3.745   4.603  1.1894  0.2955 -1.5342
   20CHL1    C3 1407   1.825   0.506   6.333  0.3078  0.5874  0.1790
   20CHL1    H3 1408   1.754   0.422   6.352  1.4314 -0.2025  1.0057
   20CHL1    O3 1409   1.899   0.538   6.452  0.1273 -0.2539  0.5305
   20CHL1   H3' 1410   1.857   0.618   6.485  1.2539  0.3514  0.5269
   20CHL1    C4 1411   1.928   0.480   6.218 -0.4123 -0.0098 -0.5431
   20CHL1   H4A 1412   1.995   0.567   6.232  0.1001 -0.4094 -0.5014
   20CHL1   H4B 1413   1.986   0.389   6.243  0.2930  0.1969 -1.3988
   20CHL1    C5 1414   1.860   0.474   6.085  0.2192  0.0259 -0.3248
   20CHL1    C6 1415   1.854   0.366   6.006 -0.5519 -0.4116 -0.3196
   20CHL1    H6 1416   1.911   0.277   6.037  0.6757  1.5733  3.9123
   20CHL1    C7 1417   1.778   0.345   5.883  0.3993  0.3014  0.1743
   20CHL1   H7A 1418   1.837   0.282   5.812 -0.9773  0.3738 -1.0739
   20CHL1   H7B 1419   1.686   0.293   5.917 -0.7885  2.2302  0.0233
   20CHL1    C8 1420   1.739   0.474   5.812 -0.1138  0.3822 -0.2834
   20CHL1    H8 1421   1.840   0.508   5.783  1.3718 -2.0752  1.6018
   20CHL1   C14 1422   1.642   0.442   5.702  0.1820  0.3552  0.6093
   20CHL1   H14 1423   1.554   0.403   5.757  1.6622 -1.3420  1.8956
   20CHL1   C15 1424   1.681   0.338   5.597  0.0644 -0.5034  0.6621
   20CHL1  H15A 1425   1.788   0.353   5.572 -0.3582  0.4985 -0.6504
   20CHL1  H15B 1426   1.671   0.230   5.620  1.6869 -1.3343 -1.9963
   20CHL1   C16 1427   1.584   0.372   5.480  0.2093  0.4221 -0.3243
   20CHL1  H16A 1428   1.642   0.384   5.385 -0.3264  0.9726 -0.5882
   20CHL1  H16B 1429   1.508   0.294   5.459  0.1905  0.6915 -1.3055
   20CHL1   C17 1430   1.509   0.509   5.514 -0.1174  0.8587  0.4052
   20CHL1   H17 1431   1.418   0.468   5.564  0.0067 -1.5965 -1.1627
   20CHL1   C13 1432   1.607   0.565   5.626  0.4046  0.0953  0.0073
   20CHL1   C18 1433   1.730   0.624   5.555 -0.5965  0.2965 -0.0871
   20CHL1  H18A 1434   1.773   0.556   5.479 -0.3101  1.2257 -0.7762
   20CHL1  H18B 1435   1.711   0.718   5.497  2.3366  2.7339  2.5258
   20CHL1  H18C 1436   1.807   0.661   5.625 -0.5038 -0.7233  0.3501
   20CHL1   C12 1437   1.536   0.663   5.724 -0.0323  0.2097  0.6527
   20CHL1  H12A 1438   1.508   0.755   5.669  0.2838 -0.0977 -0.0405
   20CHL1  H12B 1439   1.438   0.625   5.758 -0.5725  1.7830  0.9546
   20CHL1   C11 1440   1.630   0.700   5.842  0.1734 -0.0063  0.3423
   20CHL1  H11A 1441   1.716   0.746   5.790 -1.4558  1.8238 -0.9229
   20CHL1  H11B 1442   1.576   0.764   5.916 -1.4927 -0.2135 -0.6318
   20CHL1    C9 1443   1.686   0.573   5.916  0.5973 -0.6244 -0.0182
   20CHL1    H9 1444   1.596   0.517   5.949  0.0193 -1.1704 -2.3252
   20CHL1   C10 1445   1.768   0.600   6.040 -0.2604 -0.2409 -0.6598
   20CHL1   C19 1446   1.863   0.720   6.010 -0.0136  0.1585  0.5829
   20CHL1  H19A 1447   1.809   0.814   5.988  1.0191  0.1217 -2.6287
   20CHL1  H19B 1448   1.922   0.742   6.101  0.2208  1.5410  0.1172
   20CHL1  H19C 1449   1.937   0.690   5.933  0.4779  1.6033  0.4755
   20CHL1    C1 1450   1.673   0.625   6.160 -0.2618 -0.2255  0.8480
   20CHL1   H1A 1451   1.617   0.717   6.134 -0.3903 -0.3508  0.6823
   20CHL1   H1B 1452   1.590   0.551   6.164  1.7956 -2.6595  1.3837
   20CHL1    C2 1453   1.745   0.633   6.295  1.0296  0.6668  0.1842
   20CHL1   H2A 1454   1.669   0.649   6.375  0.4445  1.7189 -0.5546
   20CHL1   H2B 1455   1.816   0.718   6.296 -0.0614  1.6216 -0.6726
   20CHL1   C20 1456   1.460   0.591   5.394  0.7485 -0.1380 -0.1503
   20CHL1   H20 1457   1.549   0.602   5.328 -1.8077  1.4837 -3.6829
   20CHL1   C21 1458   1.406   0.724   5.427 -0.4930 -0.5529  0.0618
   20CHL1  H21A 1459   1.337   0.729   5.514  0.7014  0.4374  0.9958
   20CHL1  H21B 1460   1.355   0.772   5.341 -1.2013  0.2293  0.8916
   20CHL1  H21C 1461   1.489   0.796   5.445 -1.0595 -0.4347  2.6162
   20CHL1   C22 1462   1.354   0.521   5.308 -0.2096  0.0043 -0.6837
   20CHL1  H22A 1463   1.363   0.412   5.331 -0.5381 -0.4990 -2.7835
   20CHL1  H22B 1464   1.254   0.558   5.340 -0.0153 -0.8992  1.1438
   20CHL1   C23 1465   1.375   0.554   5.158  0.5945 -0.4058 -0.5345
   20CHL1  H23A 1466   1.385   0.663   5.137  0.4163 -0.5196 -1.2449
   20CHL1  H23B 1467   1.468   0.507   5.119  1.8026  2.7992 -1.8986
   20CHL1   C24 1468   1.254   0.513   5.071 -0.2809  0.3139 -0.3784
   20CHL1  H24A 1469   1.236   0.403   5.075 -1.2709  0.3885 -1.9026
   20CHL1  H24B 1470   1.160   0.563   5.104 -1.7272 -3.2117  1.3497
   20CHL1   C25 1471   1.270   0.537   4.920  0.2583 -0.1911 -0.8219
   20CHL1   H25 1472   1.363   0.480   4.896 -0.0642 -0.4773 -1.4256
   20CHL1   C26 1473   1.153   0.474   4.840 -0.5872 -0.0725 -0.0490
   20CHL1  H26A 1474   1.056   0.508   4.880 -0.7063  0.0255 -0.4182
   20CHL1  H26B 1475   1.151   0.498   4.732 -1.0511  0.9342  0.1780
   20CHL1  H26C 1476   1.145   0.365   4.860  0.3612 -0.0736  0.3960
   20CHL1   C27 1477   1.283   0.689   4.895  0.1880 -0.3670  0.2954
   20CHL1  H27A 1478   1.294   0.695   4.785 -0.8143  1.0133  0.2412
   20CHL1  H27B 1479   1.202   0.758   4.929 -0.4047  0.1803 -2.0578
   20CHL1  H27C 1480   1.376   0.740   4.930  0.6912 -0.5925 -0.6955
   21CHL1    C3 1481   1.683   5.614   6.760 -0.3467 -0.5735  0.8561
   21CHL1    H3 1482   1.634   5.713   6.775 -0.0306 -0.0897 -1.0091
   21CHL1    O3 1483   1.724   5.559   6.885 -0.3623  0.0370  0.1129
   21CHL1   H3' 1484   1.649   5.566   6.946 -0.2823  2.8101  0.0055
   21CHL1    C4 1485   1.578   5.518   6.701 -0.3748 -0.0182  0.1053
   21CHL1   H4A 1486   1.641   5.427   6.697  1.0336  0.9564 -0.7668
   21CHL1   H4B 1487   1.503   5.507   6.782  1.9139 -1.2174  2.2073
   21CHL1    C5 1488   1.531   5.542   6.561  0.2822  0.1534  0.3436
   21CHL1    C6 1489   1.397   5.555   6.540 -0.3027 -0.2923  0.0820
   21CHL1    H6 1490   1.327   5.549   6.624 -1.1763  1.7044 -0.4595
   21CHL1    C7 1491   1.338   5.601   6.404  0.8632 -0.4266  0.0779
   21CHL1   H7A 1492   1.261   5.527   6.373 -0.9179 -0.3237  3.6548
   21CHL1   H7B 1493   1.301   5.705   6.408 -0.9992 -1.0501 -0.1339
   21CHL1    C8 1494   1.441   5.603   6.292 -0.4574 -0.0405 -0.8923
   21CHL1    H8 1495   1.462   5.498   6.263  2.0598 -0.0480  0.6090
   21CHL1   C14 1496   1.396   5.677   6.168 -0.4705  0.2105 -0.5259
   21CHL1   H14 1497   1.379   5.782   6.200  0.0463 -0.6438  2.9686
   21CHL1   C15 1498   1.266   5.635   6.114 -0.5154  0.2935  0.2671
   21CHL1  H15A 1499   1.261   5.525   6.123  2.3751 -0.2398 -2.5855
   21CHL1  H15B 1500   1.182   5.680   6.171  0.6271  1.7683  0.8452
   21CHL1   C16 1501   1.258   5.682   5.972  0.0241  0.6093 -0.0239
   21CHL1  H16A 1502   1.256   5.589   5.911  2.2678  0.3530  0.2116
   21CHL1  H16B 1503   1.166   5.741   5.950  0.7615  1.7166 -0.1954
   21CHL1   C17 1504   1.394   5.750   5.942 -0.8092  0.3339  0.2238
   21CHL1   H17 1505   1.387   5.854   5.981 -2.0145  0.7370 -0.9964
   21CHL1   C13 1506   1.490   5.685   6.047  0.4816  0.4807 -0.8762
   21CHL1   C18 1507   1.530   5.536   5.995 -0.1475 -0.3311  0.1841
   21CHL1  H18A 1508   1.460   5.514   5.912 -1.1247  1.8312  0.3651
   21CHL1  H18B 1509   1.638   5.535   5.969  0.7919  2.1356  3.2777
   21CHL1  H18C 1510   1.515   5.453   6.066  0.1452 -0.0452  0.5857
   21CHL1   C12 1511   1.611   5.757   6.096 -0.0464 -0.1352  0.2350
   21CHL1  H12A 1512   1.691   5.768   6.019 -1.0764  1.1496 -0.7122
   21CHL1  H12B 1513   1.577   5.858   6.127 -0.4192 -1.0029  2.8357
   21CHL1   C11 1514   1.668   5.685   6.212 -0.1409 -0.0061  0.2004
   21CHL1  H11A 1515   1.700   5.583   6.180 -2.4981 -0.3711 -1.2049
   21CHL1  H11B 1516   1.760   5.733   6.253 -0.5917 -1.0194  2.5592
   21CHL1    C9 1517   1.579   5.661   6.337 -0.2182 -0.5692 -0.3291
   21CHL1    H9 1518   1.567   5.763   6.381  1.6502 -1.2062  1.8771
   21CHL1   C10 1519   1.645   5.576   6.460 -0.0845 -0.3723  0.7414
   21CHL1   C19 1520   1.705   5.450   6.400  0.2838  0.4125 -0.6091
   21CHL1  H19A 1521   1.627   5.394   6.343  0.2312 -0.4643  0.3006
   21CHL1  H19B 1522   1.796   5.461   6.337  2.4291 -1.4836  1.9176
   21CHL1  H19C 1523   1.746   5.384   6.479  1.2863  1.0501 -0.5842
   21CHL1    C1 1524   1.751   5.672   6.522 -0.9544 -0.0400 -0.4069
   21CHL1   H1A 1525   1.831   5.654   6.447 -1.3614 -2.6468 -0.3371
   21CHL1   H1B 1526   1.711   5.775   6.518 -1.5542 -0.2886 -1.1555
   21CHL1    C2 1527   1.805   5.629   6.660 -0.1604 -0.1063  0.4194
   21CHL1   H2A 1528   1.885   5.695   6.701  0.8183  0.4420 -2.1948
   21CHL1   H2B 1529   1.854   5.530   6.650 -2.0489 -0.9826 -0.6392
   21CHL1   C20 1530   1.430   5.747   5.795 -0.3750  0.7192 -0.0948
   21CHL1   H20 1531   1.454   5.643   5.765  2.4188  1.1157  0.4240
   21CHL1   C21 1532   1.569   5.808   5.766 -0.6114  0.6734 -0.1688
   21CHL1  H21A 1533   1.586   5.825   5.657  0.8270 -1.0086 -0.2462
   21CHL1  H21B 1534   1.652   5.744   5.804 -1.0105  0.8413  1.0383
   21CHL1  H21C 1535   1.578   5.906   5.818 -2.2871  0.3978  0.7074
   21CHL1   C22 1536   1.319   5.809   5.710 -0.0999 -0.3960 -0.0176
   21CHL1  H22A 1537   1.218   5.774   5.741 -1.1469  0.9104 -1.7101
   21CHL1  H22B 1538   1.301   5.913   5.742 -1.0736 -0.0762 -1.4987
   21CHL1   C23 1539   1.347   5.805   5.556 -0.1734 -0.3374 -0.5295
   21CHL1  H23A 1540   1.441   5.856   5.526  0.6065 -2.0513 -1.1373
   21CHL1  H23B 1541   1.362   5.699   5.525  2.9675 -0.6057  1.4894
   21CHL1   C24 1542   1.237   5.870   5.482  0.4108  0.0967  0.0853
   21CHL1  H24A 1543   1.145   5.811   5.503 -0.6115  1.4184 -0.5850
   21CHL1  H24B 1544   1.224   5.975   5.515  0.9324  0.0087  0.5881
   21CHL1   C25 1545   1.260   5.858   5.331 -0.0958 -0.3335 -0.1634
   21CHL1   H25 1546   1.314   5.765   5.303  0.9827  0.2210 -0.0150
   21CHL1   C26 1547   1.136   5.875   5.240  0.4901 -0.0550 -0.6479
   21CHL1  H26A 1548   1.173   5.854   5.137 -0.0427 -0.4064 -0.7706
   21CHL1  H26B 1549   1.049   5.814   5.270  0.1382  0.5928 -0.3256
   21CHL1  H26C 1550   1.098   5.979   5.232 -3.7214 -1.4222 -0.9516
   21CHL1   C27 1551   1.362   5.962   5.288  0.5413  0.2188  0.1029
   21CHL1  H27A 1552   1.311   6.061   5.279  3.1866  1.9172  2.2882
   21CHL1  H27B 1553   1.452   5.972   5.352  0.0257 -1.1086  1.0839
   21CHL1  H27C 1554   1.404   5.926   5.192 -0.1039 -1.1191  0.3046
   22CHL1    C3 1555   1.760   3.212   6.902  0.1804 -0.0891  0.1542
   22CHL1    H3 1556   1.864   3.249   6.894  0.2849 -0.1499  1.1855
   22CHL1    O3 1557   1.709   3.198   7.034 -0.4982  0.1904  0.2486
   22CHL1   H3' 1558   1.662   3.114   7.033  2.6254 -1.7421  1.8784
   22CHL1    C4 1559   1.677   3.314   6.817  0.2325 -0.2431  0.3183
   22CHL1   H4A 1560   1.573   3.277   6.834  0.4545 -0.6753  0.7803
   22CHL1   H4B 1561   1.671   3.413   6.868  0.8509 -1.9230  4.0156
   22CHL1    C5 1562   1.711   3.316   6.671 -0.8253 -0.3698 -0.2016
   22CHL1    C6 1563   1.750   3.431   6.612 -0.2160  0.5018 -0.2701
   22CHL1    H6 1564   1.744   3.524   6.670 -4.1408  0.0638  0.3401
   22CHL1    C7 1565   1.769   3.458   6.466  0.2717 -0.4517 -0.6805
   22CHL1   H7A 1566   1.705   3.542   6.432  1.2887 -0.1524 -1.9078
   22CHL1   H7B 1567   1.876   3.482   6.450  0.2847 -0.8572 -1.2278
   22CHL1    C8 1568   1.731   3.332   6.384 -0.7710  0.3588  0.4523
   22CHL1    H8 1569   1.623   3.340   6.359 -0.7848 -1.1109 -0.0244
   22CHL1   C14 1570   1.800   3.329   6.248  0.0765  0.4146  0.2634
   22CHL1   H14 1571   1.905   3.296   6.265  0.0095 -0.0264 -0.1532
   22CHL1   C15 1572   1.809   3.457   6.167 -0.7149 -0.2076 -0.1093
   22CHL1  H15A 1573   1.713   3.513   6.168 -0.2017  0.7060  1.0841
   22CHL1  H15B 1574   1.872   3.531   6.221 -2.5257  0.1381  1.6495
   22CHL1   C16 1575   1.839   3.404   6.026 -0.5908  0.5907  0.2242
   22CHL1  H16A 1576   1.785   3.471   5.955  0.4832 -1.4837 -2.7847
   22CHL1  H16B 1577   1.945   3.422   5.996 -0.1845  0.3227  1.4618
   22CHL1   C17 1578   1.811   3.256   6.028 -0.2678 -0.5349  0.2530
   22CHL1   H17 1579   1.915   3.217   6.032  0.2852  0.9696  1.2581
   22CHL1   C13 1580   1.738   3.221   6.157 -0.4361 -0.1177  0.1883
   22CHL1   C18 1581   1.584   3.239   6.135 -0.1102  0.5062 -0.2448
   22CHL1  H18A 1582   1.549   3.158   6.067  1.0908  1.4863 -2.1239
   22CHL1  H18B 1583   1.527   3.234   6.230  0.0624  2.8889  0.0235
   22CHL1  H18C 1584   1.561   3.336   6.087  0.5346  0.0367 -1.5761
   22CHL1   C12 1585   1.773   3.081   6.222 -0.0459 -0.4891 -0.4714
   22CHL1  H12A 1586   1.738   2.987   6.174  1.0151 -1.2278  0.1454
   22CHL1  H12B 1587   1.884   3.071   6.227  0.1162  1.5275  1.8115
   22CHL1   C11 1588   1.719   3.070   6.364 -0.1152  0.2140 -0.9439
   22CHL1  H11A 1589   1.609   3.055   6.362  0.1414 -2.2553  0.3559
   22CHL1  H11B 1590   1.752   2.976   6.414  1.1126  0.9049 -0.4082
   22CHL1    C9 1591   1.765   3.193   6.457 -0.1257  0.2778  0.3317
   22CHL1    H9 1592   1.876   3.204   6.464 -0.1645  0.6217  0.4082
   22CHL1   C10 1593   1.702   3.184   6.599 -1.0956 -0.2569 -0.0057
   22CHL1   C19 1594   1.551   3.137   6.601 -0.0156  0.4246  0.0091
   22CHL1  H19A 1595   1.546   3.039   6.550  1.5897  0.7661 -0.8663
   22CHL1  H19B 1596   1.502   3.124   6.700 -1.0383 -0.9078 -0.6469
   22CHL1  H19C 1597   1.495   3.213   6.542 -0.2986  1.7929  1.9170
   22CHL1    C1 1598   1.785   3.078   6.678  0.4354  0.2342 -0.5348
   22CHL1   H1A 1599   1.770   2.976   6.637  1.1598 -0.1508  0.1156
   22CHL1   H1B 1600   1.890   3.114   6.683  0.0602  1.3977 -0.5429
   22CHL1    C2 1601   1.749   3.072   6.831  0.9710  0.5055  0.6024
   22CHL1   H2A 1602   1.824   3.003   6.874  0.6693 -1.1161 -1.3230
   22CHL1   H2B 1603   1.646   3.038   6.852  1.9478 -1.8201  1.9606
   22CHL1   C20 1604   1.756   3.190   5.896  0.0816 -0.0661  0.0990
   22CHL1   H20 1605   1.646   3.209   5.892  0.1049  0.6108  1.7997
   22CHL1   C21 1606   1.775   3.039   5.913  0.3803 -0.5280 -0.3743
   22CHL1  H21A 1607   1.780   2.976   5.822  0.3002 -1.3520  0.1784
   22CHL1  H21B 1608   1.691   3.003   5.976  0.5014  3.1257  2.1992
   22CHL1  H21C 1609   1.866   3.022   5.975 -0.1775  1.2012  1.0128
   22CHL1   C22 1610   1.808   3.249   5.762 -0.1563 -0.3210 -0.8885
   22CHL1  H22A 1611   1.794   3.359   5.755 -0.1584 -0.3542 -1.5027
   22CHL1  H22B 1612   1.916   3.231   5.780 -0.4258 -1.4994 -0.3544
   22CHL1   C23 1613   1.763   3.181   5.632  0.2857  0.0605  0.5454
   22CHL1  H23A 1614   1.798   3.076   5.642  3.0894  0.9694  1.1104
   22CHL1  H23B 1615   1.652   3.193   5.629  0.4161  2.2172  1.9484
   22CHL1   C24 1616   1.809   3.249   5.507  0.4482 -0.3684  0.9430
   22CHL1  H24A 1617   1.761   3.189   5.427 -1.9476 -0.1284  2.1179
   22CHL1  H24B 1618   1.767   3.352   5.514 -2.0918 -1.4381  3.0399
   22CHL1   C25 1619   1.964   3.250   5.487  0.5671 -0.2993  0.3501
   22CHL1   H25 1620   2.013   3.318   5.559  0.9607 -0.6669  0.4348
   22CHL1   C26 1621   2.009   3.105   5.502  0.2243 -0.1796 -0.0602
   22CHL1  H26A 1622   1.941   3.038   5.446 -0.8040  2.2767 -1.9159
   22CHL1  H26B 1623   2.112   3.088   5.463  0.2755 -1.5391  0.5837
   22CHL1  H26C 1624   2.023   3.087   5.611  0.0961  2.5072  0.4718
   22CHL1   C27 1625   2.009   3.300   5.346 -0.4429  0.4397 -0.3261
   22CHL1  H27A 1626   1.951   3.247   5.268  0.7728  0.1962 -1.1027
   22CHL1  H27B 1627   1.989   3.409   5.342 -1.1018  0.3866  1.0487
   22CHL1  H27C 1628   2.115   3.268   5.335 -0.8784 -1.8132  1.3369
   23CHL1    C3 1629   2.393   5.873   6.172  0.8715  0.8505 -0.0965
   23CHL1    H3 1630   2.286   5.850   6.152  0.8113 -0.3976  1.4500
   23CHL1    O3 1631   2.405   5.845   6.307  0.5693  0.1773 -0.4167
   23CHL1   H3' 1632   2.423   5.922   6.361  0.3188 -0.4953  0.6641
   23CHL1    C4 1633   2.484   5.778   6.080  0.2075  0.3254 -0.7471
   23CHL1   H4A 1634   2.587   5.804   6.111 -0.1133  2.5782 -1.3824
   23CHL1   H4B 1635   2.451   5.677   6.114  1.0013 -0.3209 -1.8411
   23CHL1    C5 1636   2.466   5.808   5.933  0.3776  0.0239  0.2567
   23CHL1    C6 1637   2.417   5.706   5.860  1.0918  0.2153  0.2953
   23CHL1    H6 1638   2.388   5.616   5.916  0.9140 -1.0889 -1.8053
   23CHL1    C7 1639   2.395   5.718   5.713 -0.0793  0.5465  0.0021
   23CHL1   H7A 1640   2.445   5.631   5.664  1.6564  2.4690 -1.8715
   23CHL1   H7B 1641   2.287   5.713   5.691 -0.1922 -0.1305  0.6822
   23CHL1    C8 1642   2.462   5.842   5.653  0.0699 -1.0544  0.5163
   23CHL1    H8 1643   2.572   5.834   5.638  0.1577  0.1904  0.3276
   23CHL1   C14 1644   2.402   5.869   5.510  0.2745  0.1826 -0.0911
   23CHL1   H14 1645   2.294   5.888   5.528 -0.1950 -0.1616 -2.2272
   23CHL1   C15 1646   2.408   5.761   5.404 -0.0216  0.0496 -0.1142
   23CHL1  H15A 1647   2.513   5.724   5.396  0.6025  1.4396  1.0978
   23CHL1  H15B 1648   2.336   5.678   5.421  0.5404 -0.6017 -0.8760
   23CHL1   C16 1649   2.367   5.841   5.278  1.4659 -1.2845  0.5800
   23CHL1  H16A 1650   2.416   5.792   5.192  0.1026 -3.2792  0.8687
   23CHL1  H16B 1651   2.258   5.850   5.257  0.8979 -0.5132  3.4463
   23CHL1   C17 1652   2.409   5.998   5.304 -0.0334  0.1876 -0.3805
   23CHL1   H17 1653   2.317   6.060   5.313  0.4666  1.0919 -1.2523
   23CHL1   C13 1654   2.470   5.998   5.447  0.3771 -0.5725 -0.2141
   23CHL1   C18 1655   2.615   5.971   5.416  0.3571 -1.4127  0.4144
   23CHL1  H18A 1656   2.666   6.050   5.356  0.9402  0.1980  2.9098
   23CHL1  H18B 1657   2.660   5.979   5.517  2.0975 -2.6344 -0.2091
   23CHL1  H18C 1658   2.646   5.878   5.364  1.2387 -0.7386 -0.3079
   23CHL1   C12 1659   2.451   6.128   5.535 -0.1270  0.0546 -0.3517
   23CHL1  H12A 1660   2.508   6.214   5.494 -0.2640  0.2671 -0.0971
   23CHL1  H12B 1661   2.344   6.156   5.524  0.3341  1.4799 -1.4361
   23CHL1   C11 1662   2.493   6.099   5.678  0.3917 -0.4319  0.8163
   23CHL1  H11A 1663   2.604   6.094   5.673  0.4214 -0.1603  1.1809
   23CHL1  H11B 1664   2.467   6.189   5.738 -0.3618 -0.2371  0.2119
   23CHL1    C9 1665   2.433   5.965   5.740  0.2243 -0.4613 -0.2006
   23CHL1    H9 1666   2.323   5.976   5.746  0.1193 -1.8844  1.2365
   23CHL1   C10 1667   2.494   5.952   5.888 -1.0460  0.4882 -0.0803
   23CHL1   C19 1668   2.648   5.969   5.878  0.0342 -0.1912 -0.4602
   23CHL1  H19A 1669   2.696   5.916   5.793 -2.6131 -1.8073 -1.0520
   23CHL1  H19B 1670   2.665   6.078   5.886 -1.3394  0.0417 -0.4962
   23CHL1  H19C 1671   2.705   5.924   5.963 -1.3065  0.6164  0.9110
   23CHL1    C1 1672   2.431   6.053   5.989 -0.7106  0.4718  0.4217
   23CHL1   H1A 1673   2.491   6.146   5.976  1.9748 -1.1142  0.6958
   23CHL1   H1B 1674   2.327   6.076   5.959 -0.7260 -1.7006 -1.4228
   23CHL1    C2 1675   2.427   6.018   6.140 -0.1886 -0.0598 -0.3962
   23CHL1   H2A 1676   2.371   6.097   6.194  2.8445  2.5930 -0.8401
   23CHL1   H2B 1677   2.530   6.040   6.176 -0.2609 -1.2122  0.5909
   23CHL1   C20 1678   2.479   6.064   5.177 -0.2938 -0.0831 -0.2340
   23CHL1   H20 1679   2.577   6.017   5.157 -0.5429 -0.2138 -1.1967
   23CHL1   C21 1680   2.504   6.213   5.199  0.1793  0.4170 -0.2438
   23CHL1  H21A 1681   2.548   6.248   5.294 -1.1482  2.0790 -0.1933
   23CHL1  H21B 1682   2.402   6.256   5.209 -1.0013 -1.2968 -3.4561
   23CHL1  H21C 1683   2.544   6.258   5.106  0.0868 -3.4178 -2.3446
   23CHL1   C22 1684   2.397   6.038   5.045  0.1840 -0.2992  0.2214
   23CHL1  H22A 1685   2.462   6.066   4.959 -1.7386  1.0171 -0.8733
   23CHL1  H22B 1686   2.385   5.929   5.027  3.4486 -0.9974  1.5148
   23CHL1   C23 1687   2.262   6.105   5.036  0.1325  0.8651  0.5473
   23CHL1  H23A 1688   2.198   6.100   5.126 -0.3821  3.0505  0.3555
   23CHL1  H23B 1689   2.276   6.214   5.019 -1.1141  0.8034 -1.1091
   23CHL1   C24 1690   2.179   6.051   4.918 -0.5959  0.3083  0.1621
   23CHL1  H24A 1691   2.244   6.034   4.830  0.9440 -2.4459  1.6810
   23CHL1  H24B 1692   2.140   5.954   4.954 -0.3355 -0.0041 -0.3938
   23CHL1   C25 1693   2.053   6.136   4.887 -0.7985 -0.5377  0.5240
   23CHL1   H25 1694   1.994   6.146   4.981 -0.0282 -0.5412  1.0115
   23CHL1   C26 1695   2.093   6.281   4.835  0.8675 -0.0591 -0.3542
   23CHL1  H26A 1696   2.153   6.333   4.913 -0.3693  2.4326 -0.9354
   23CHL1  H26B 1697   2.143   6.255   4.740  1.3055 -1.9411  0.3638
   23CHL1  H26C 1698   1.994   6.326   4.813 -0.4100 -3.1650 -1.4144
   23CHL1   C27 1699   1.967   6.062   4.781  0.0287 -0.2473  0.6566
   23CHL1  H27A 1700   2.029   6.043   4.691  0.4216 -0.1931  0.9160
   23CHL1  H27B 1701   1.924   5.973   4.831  2.2621  0.5011  4.3252
   23CHL1  H27C 1702   1.886   6.132   4.750  0.3352 -0.1083  0.1453
   24CHL1    C3 1703   2.435   4.808   6.418  0.6815 -0.1336  0.3718
   24CHL1    H3 1704   2.388   4.907   6.400 -1.2682 -0.6836  2.0831
   24CHL1    O3 1705   2.470   4.794   6.548 -0.1245  0.5375  0.4916
   24CHL1   H3' 1706   2.548   4.740   6.538  0.4280  1.6979 -2.5162
   24CHL1    C4 1707   2.333   4.705   6.370 -0.1143 -0.0358  0.1557
   24CHL1   H4A 1708   2.370   4.604   6.398 -1.0418 -0.1781  0.9351
   24CHL1   H4B 1709   2.241   4.721   6.430  0.0058  1.5759 -0.0541
   24CHL1    C5 1710   2.318   4.728   6.218  0.1356 -0.4055 -0.9334
   24CHL1    C6 1711   2.193   4.754   6.171 -0.4819  0.0399  0.2228
   24CHL1    H6 1712   2.115   4.746   6.247 -0.5048  1.4573  0.3836
   24CHL1    C7 1713   2.162   4.762   6.024  1.3693  0.0317 -1.4542
   24CHL1   H7A 1714   2.078   4.694   5.995  1.9879  0.1066 -3.5664
   24CHL1   H7B 1715   2.130   4.865   5.997  0.7104  0.2496  0.0571
   24CHL1    C8 1716   2.280   4.708   5.938  0.7662 -0.0943  0.3978
   24CHL1    H8 1717   2.278   4.597   5.948  1.8632 -0.0642  1.1309
   24CHL1   C14 1718   2.264   4.746   5.792 -0.3449  0.9085 -0.5634
   24CHL1   H14 1719   2.273   4.855   5.776  2.3179  0.5127 -2.3312
   24CHL1   C15 1720   2.129   4.713   5.724 -0.0758 -0.1039  0.0582
   24CHL1  H15A 1721   2.080   4.622   5.764 -1.1884  1.3668  2.1842
   24CHL1  H15B 1722   2.064   4.801   5.742  0.0664 -0.3411  1.8874
   24CHL1   C16 1723   2.162   4.694   5.575 -0.6548  0.1933 -0.3411
   24CHL1  H16A 1724   2.140   4.588   5.548  0.7694 -0.0977 -0.3912
   24CHL1  H16B 1725   2.101   4.766   5.517  0.1899  2.6339  1.6356
   24CHL1   C17 1726   2.319   4.723   5.567  0.1292 -0.5451 -0.4779
   24CHL1   H17 1727   2.321   4.834   5.565 -0.4499 -0.4676  1.2400
   24CHL1   C13 1728   2.372   4.685   5.699 -0.6491 -0.1155  0.0753
   24CHL1   C18 1729   2.377   4.532   5.707 -0.4626 -0.3960 -0.5901
   24CHL1  H18A 1730   2.381   4.498   5.813 -2.1541  1.8352  0.2689
   24CHL1  H18B 1731   2.280   4.499   5.664 -0.9610  0.8055 -0.4223
   24CHL1  H18C 1732   2.465   4.494   5.650 -0.1014  2.2342 -1.9707
   24CHL1   C12 1733   2.508   4.747   5.739 -0.1449  0.0306 -0.0018
   24CHL1  H12A 1734   2.581   4.694   5.674  0.3423 -0.9895  1.3293
   24CHL1  H12B 1735   2.522   4.855   5.715 -2.4258  0.5549  0.7853
   24CHL1   C11 1736   2.534   4.720   5.890 -0.2249  0.1577 -0.0664
   24CHL1  H11A 1737   2.551   4.611   5.887 -0.8970  0.0491 -2.4074
   24CHL1  H11B 1738   2.621   4.781   5.925 -1.8218  1.5622  1.6592
   24CHL1    C9 1739   2.417   4.760   5.986  0.0071  0.1099 -0.4711
   24CHL1    H9 1740   2.402   4.869   5.976 -2.3240 -0.0774  0.3769
   24CHL1   C10 1741   2.448   4.716   6.130  0.2971  0.1010 -0.1929
   24CHL1   C19 1742   2.484   4.563   6.135  0.1815 -0.1408 -0.4937
   24CHL1  H19A 1743   2.580   4.544   6.083  3.0482  3.9685  2.6941
   24CHL1  H19B 1744   2.490   4.529   6.241 -0.3867  0.7094 -0.1705
   24CHL1  H19C 1745   2.397   4.509   6.091 -1.5355  2.2079 -0.1698
   24CHL1    C1 1746   2.549   4.803   6.193 -0.3566 -0.2617  0.1471
   24CHL1   H1A 1747   2.649   4.796   6.143  0.6723  1.9747  1.7192
   24CHL1   H1B 1748   2.527   4.909   6.169 -0.8469 -0.6814 -1.3627
   24CHL1    C2 1749   2.566   4.789   6.342  0.0783  0.4127  0.7669
   24CHL1   H2A 1750   2.649   4.853   6.381 -1.2526  2.0673  0.9908
   24CHL1   H2B 1751   2.611   4.688   6.355  0.2193  0.3937  0.1560
   24CHL1   C20 1752   2.390   4.686   5.430 -0.0479 -0.4261 -0.2516
   24CHL1   H20 1753   2.492   4.645   5.450 -0.4790  0.2214  4.1682
   24CHL1   C21 1754   2.390   4.812   5.338 -0.2677 -0.0343  0.5733
   24CHL1  H21A 1755   2.475   4.876   5.370 -0.8883  0.7131  0.7506
   24CHL1  H21B 1756   2.293   4.864   5.347 -0.0947  0.1229  1.6032
   24CHL1  H21C 1757   2.400   4.789   5.229 -0.0677 -2.9586  1.1461
   24CHL1   C22 1758   2.330   4.561   5.359  0.0975  0.1417  0.3883
   24CHL1  H22A 1759   2.336   4.477   5.431 -4.2837 -0.7925 -0.0473
   24CHL1  H22B 1760   2.223   4.565   5.330 -0.0325 -3.6993 -0.2381
   24CHL1   C23 1761   2.408   4.510   5.239 -0.3184 -0.0817 -0.1101
   24CHL1  H23A 1762   2.393   4.587   5.160  0.0184 -0.3002 -0.3919
   24CHL1  H23B 1763   2.513   4.474   5.245 -0.0897  0.4423 -0.7666
   24CHL1   C24 1764   2.336   4.398   5.163  0.0257  0.5700 -0.0127
   24CHL1  H24A 1765   2.286   4.331   5.236  0.3235  0.9617  0.5648
   24CHL1  H24B 1766   2.251   4.432   5.100  0.2095 -0.7164 -0.9820
   24CHL1   C25 1767   2.441   4.316   5.082  0.6639  0.2083  0.3134
   24CHL1   H25 1768   2.537   4.283   5.127  2.4226  1.2872 -2.3601
   24CHL1   C26 1769   2.372   4.194   5.021  0.0515  0.5049  0.3278
   24CHL1  H26A 1770   2.285   4.220   4.957  0.1846 -3.3461 -1.7282
   24CHL1  H26B 1771   2.449   4.140   4.962 -2.0133 -2.2622 -0.0507
   24CHL1  H26C 1772   2.341   4.120   5.098  2.3635  1.0006  1.8171
   24CHL1   C27 1773   2.481   4.397   4.959 -0.1007 -1.0651  0.3573
   24CHL1  H27A 1774   2.522   4.331   4.879 -0.6497 -0.5641 -0.3538
   24CHL1  H27B 1775   2.397   4.455   4.914  0.6345 -0.7711 -0.6699
   24CHL1  H27C 1776   2.551   4.482   4.976 -0.5515  0.1682 -3.1266
   25CHL1    C3 1777   6.026   1.755   6.523  0.5204 -0.7825 -0.0486
   25CHL1    H3 1778   5.967   1.681   6.464  1.5926 -1.0786 -0.7747
   25CHL1    O3 1779   6.007   1.733   6.662  0.3521  0.3323  0.3183
   25CHL1   H3' 1780   5.912   1.741   6.678  0.3021  0.1918  0.1016
   25CHL1    C4 1781   6.174   1.728   6.487  1.0756  0.0563 -0.6512
   25CHL1   H4A 1782   6.245   1.792   6.543 -0.4480  1.4811 -0.2776
   25CHL1   H4B 1783   6.199   1.623   6.512 -2.0192 -1.0684 -1.8111
   25CHL1    C5 1784   6.191   1.733   6.330  0.1042  0.1570 -0.0443
   25CHL1    C6 1785   6.249   1.630   6.267 -0.0261  0.3745 -0.1300
   25CHL1    H6 1786   6.292   1.544   6.320  1.3190  0.3020 -1.2725
   25CHL1    C7 1787   6.284   1.638   6.122 -0.1422  0.1787 -0.2339
   25CHL1   H7A 1788   6.385   1.598   6.097 -0.9016 -1.2716 -1.0859
   25CHL1   H7B 1789   6.208   1.577   6.071  0.8772 -2.8287  1.5763
   25CHL1    C8 1790   6.265   1.776   6.047 -0.0100 -0.6269  0.0777
   25CHL1    H8 1791   6.348   1.833   6.094  0.0846 -1.0202  0.3941
   25CHL1   C14 1792   6.266   1.762   5.899 -0.2391 -0.2020  0.2377
   25CHL1   H14 1793   6.177   1.698   5.879  0.6964 -2.7310  3.3051
   25CHL1   C15 1794   6.384   1.694   5.830 -0.0535 -0.2295 -0.4938
   25CHL1  H15A 1795   6.483   1.736   5.857  0.2087 -0.5362 -0.9557
   25CHL1  H15B 1796   6.378   1.583   5.835 -0.5232 -0.2126 -0.6060
   25CHL1   C16 1797   6.366   1.737   5.679  0.2389  0.1811  0.0124
   25CHL1  H16A 1798   6.467   1.757   5.638  1.2536  0.9788  2.6761
   25CHL1  H16B 1799   6.321   1.652   5.622  0.5220 -0.5873  0.9057
   25CHL1   C17 1800   6.271   1.860   5.687  0.2311  0.5041  0.4937
   25CHL1   H17 1801   6.176   1.823   5.644  1.7194 -0.2265 -2.4072
   25CHL1   C13 1802   6.248   1.900   5.838 -0.0713 -0.2842  0.1348
   25CHL1   C18 1803   6.355   2.010   5.879 -0.0791 -0.3810 -0.6550
   25CHL1  H18A 1804   6.359   2.018   5.990 -0.0710 -0.3044 -0.6602
   25CHL1  H18B 1805   6.457   1.979   5.849  0.2183  1.3839 -1.6023
   25CHL1  H18C 1806   6.329   2.106   5.829 -3.3277 -1.1362 -0.5969
   25CHL1   C12 1807   6.102   1.946   5.872  0.3007  0.1229  0.4829
   25CHL1  H12A 1808   6.080   2.045   5.825 -0.6736  0.8089  2.2924
   25CHL1  H12B 1809   6.025   1.878   5.830 -0.6131  2.8553 -2.7312
   25CHL1   C11 1810   6.082   1.961   6.017  0.3044 -0.5831  0.1875
   25CHL1  H11A 1811   6.140   2.047   6.055 -2.5624  1.1511  0.9149
   25CHL1  H11B 1812   5.976   1.981   6.045 -0.0519 -0.8183 -0.9241
   25CHL1    C9 1813   6.137   1.842   6.108  0.3316 -0.5354  0.7695
   25CHL1    H9 1814   6.055   1.769   6.090 -0.2407  0.6233 -1.5783
   25CHL1   C10 1815   6.143   1.860   6.260  0.2138 -0.4745 -0.4899
   25CHL1   C19 1816   6.242   1.967   6.312 -0.9277  0.2976 -0.1518
   25CHL1  H19A 1817   6.233   1.986   6.421 -1.4793 -3.0037  0.4873
   25CHL1  H19B 1818   6.346   1.953   6.276 -1.2136  0.8074 -1.2374
   25CHL1  H19C 1819   6.217   2.065   6.265  0.3378  1.0558  0.6872
   25CHL1    C1 1820   5.995   1.892   6.313  0.1644 -0.4670  0.1896
   25CHL1   H1A 1821   5.967   1.997   6.292  0.4994 -0.8069 -2.1301
   25CHL1   H1B 1822   5.928   1.817   6.267 -0.6577 -0.6212  1.5847
   25CHL1    C2 1823   5.976   1.892   6.469  0.4635 -0.9516 -0.4919
   25CHL1   H2A 1824   5.873   1.905   6.508  1.1071  0.6631  0.7936
   25CHL1   H2B 1825   6.035   1.975   6.512 -0.1254  0.5213 -2.4165
   25CHL1   C20 1826   6.326   1.969   5.591 -0.1740 -0.6989  0.5885
   25CHL1   H20 1827   6.420   2.012   5.633 -1.1496  0.7081  1.4561
   25CHL1   C21 1828   6.228   2.085   5.571 -0.0717 -0.7629  0.2542
   25CHL1  H21A 1829   6.149   2.047   5.503 -0.3110 -1.9942  1.1817
   25CHL1  H21B 1830   6.279   2.170   5.521  0.9152 -2.3738 -1.5751
   25CHL1  H21C 1831   6.187   2.127   5.666 -0.4283 -0.2160 -0.1346
   25CHL1   C22 1832   6.366   1.927   5.444 -0.8404 -0.3595 -0.9229
   25CHL1  H22A 1833   6.352   2.024   5.392 -1.5795  0.9771  1.5545
   25CHL1  H22B 1834   6.465   1.878   5.438  0.3082  1.3832  1.6471
   25CHL1   C23 1835   6.267   1.836   5.372  0.6305 -1.0988  0.3118
   25CHL1  H23A 1836   6.286   1.732   5.405 -0.9985 -0.8442  2.2496
   25CHL1  H23B 1837   6.159   1.853   5.388  0.7568  0.2310 -0.1123
   25CHL1   C24 1838   6.287   1.836   5.219  0.2076  0.2513 -0.6134
   25CHL1  H24A 1839   6.246   1.933   5.184 -0.2776 -0.1961 -1.3082
   25CHL1  H24B 1840   6.395   1.831   5.193  0.7077  2.5701  0.7582
   25CHL1   C25 1841   6.214   1.719   5.153  0.6994  0.0475  0.6231
   25CHL1   H25 1842   6.254   1.621   5.188  3.7153  0.5300 -1.1364
   25CHL1   C26 1843   6.066   1.729   5.193  0.0842  0.1896  0.1587
   25CHL1  H26A 1844   6.052   1.709   5.302  0.3671 -1.7975 -0.1182
   25CHL1  H26B 1845   6.008   1.819   5.163  0.1619  0.6847  1.4526
   25CHL1  H26C 1846   6.026   1.638   5.142  1.5898 -1.0170  1.0397
   25CHL1   C27 1847   6.219   1.728   4.997 -0.0201 -0.3826 -0.1864
   25CHL1  H27A 1848   6.180   1.634   4.952 -0.3123  0.5268 -1.9414
   25CHL1  H27B 1849   6.159   1.814   4.959  2.0689  1.9577  1.4902
   25CHL1  H27C 1850   6.325   1.748   4.973  0.8871 -2.0193  2.1621
   26CHL1    C3 1851   4.073   4.160   6.183 -0.0447  0.0828 -0.4287
   26CHL1    H3 1852   4.027   4.061   6.202 -2.6948  1.4828  0.9677
   26CHL1    O3 1853   4.105   4.214   6.311  0.0954 -0.0320  0.3003
   26CHL1   H3' 1854   4.170   4.154   6.348  0.0980  0.5507  1.2532
   26CHL1    C4 1855   4.210   4.159   6.104 -0.0024  0.5120  0.1133
   26CHL1   H4A 1856   4.247   4.263   6.116 -0.8740  0.7363  1.0451
   26CHL1   H4B 1857   4.289   4.091   6.144 -0.4922 -0.3445 -0.3498
   26CHL1    C5 1858   4.183   4.129   5.953 -0.3289  0.1659 -0.1624
   26CHL1    C6 1859   4.248   4.028   5.894 -0.0323 -0.3914 -0.3444
   26CHL1    H6 1860   4.323   3.972   5.952  2.2454  2.2600 -0.5320
   26CHL1    C7 1861   4.241   3.999   5.746 -0.2305 -0.2434 -0.8142
   26CHL1   H7A 1862   4.349   3.981   5.723 -0.4857 -3.3445 -0.0592
   26CHL1   H7B 1863   4.193   3.907   5.707 -0.4601  0.0368 -1.1889
   26CHL1    C8 1864   4.178   4.123   5.668  0.1950 -0.4999 -0.1258
   26CHL1    H8 1865   4.259   4.198   5.680 -0.1502 -0.0643 -0.5019
   26CHL1   C14 1866   4.151   4.077   5.523  0.1233  0.0067 -0.3002
   26CHL1   H14 1867   4.086   3.987   5.530  0.2027 -0.4212 -3.4175
   26CHL1   C15 1868   4.267   4.021   5.440 -0.2509  0.2266 -0.2213
   26CHL1  H15A 1869   4.354   4.088   5.455 -0.9935  0.9068  1.2284
   26CHL1  H15B 1870   4.301   3.919   5.469  0.6125  0.3691 -0.6942
   26CHL1   C16 1871   4.216   4.022   5.296  0.4983 -0.0792 -0.1786
   26CHL1  H16A 1872   4.293   4.075   5.237  0.3749  1.7615  1.2082
   26CHL1  H16B 1873   4.194   3.922   5.254  1.6182 -0.4575  0.1080
   26CHL1   C17 1874   4.090   4.116   5.306  0.4917  0.6652 -0.0186
   26CHL1   H17 1875   4.013   4.043   5.338 -0.0671  1.1884 -0.1553
   26CHL1   C13 1876   4.089   4.192   5.442 -0.2062 -0.3509 -0.1471
   26CHL1   C18 1877   4.194   4.305   5.428 -0.5901 -0.5728  0.5236
   26CHL1  H18A 1878   4.290   4.273   5.381 -0.4639  0.2363  0.2207
   26CHL1  H18B 1879   4.147   4.388   5.372 -2.6726 -1.6635  0.5524
   26CHL1  H18C 1880   4.226   4.341   5.529  3.5829 -0.0800 -0.7671
   26CHL1   C12 1881   3.948   4.241   5.502 -0.2522  0.3669 -0.1260
   26CHL1  H12A 1882   3.907   4.328   5.447  0.6998  1.0503  0.2296
   26CHL1  H12B 1883   3.882   4.153   5.487 -0.6474  1.1688 -4.2232
   26CHL1   C11 1884   3.974   4.280   5.653 -0.3450 -0.9827  0.2535
   26CHL1  H11A 1885   4.034   4.373   5.645  0.8398 -1.7080  0.5187
   26CHL1  H11B 1886   3.876   4.302   5.701 -0.0864  0.1118  0.3016
   26CHL1    C9 1887   4.049   4.175   5.737 -0.6009  0.0832  0.0806
   26CHL1    H9 1888   3.997   4.077   5.740  1.3124 -0.9985 -0.3939
   26CHL1   C10 1889   4.080   4.215   5.878  0.7005  0.6238  0.0332
   26CHL1   C19 1890   4.135   4.359   5.871  0.4356 -0.2613 -0.5843
   26CHL1  H19A 1891   4.161   4.399   5.971 -0.8055 -1.9777  0.4911
   26CHL1  H19B 1892   4.217   4.367   5.797  0.7041 -2.2424 -0.5734
   26CHL1  H19C 1893   4.054   4.430   5.844 -0.7963 -0.5516  2.0414
   26CHL1    C1 1894   3.947   4.210   5.959 -0.7667  0.3574  0.4328
   26CHL1   H1A 1895   3.873   4.277   5.910 -1.2117 -1.3412 -1.3238
   26CHL1   H1B 1896   3.909   4.107   5.974 -0.4108  0.4229  2.0622
   26CHL1    C2 1897   3.977   4.256   6.106 -0.0710  0.0501 -0.5371
   26CHL1   H2A 1898   3.884   4.271   6.165  1.2975 -1.2281  2.1002
   26CHL1   H2B 1899   4.017   4.359   6.115 -2.4547  1.0955 -1.0702
   26CHL1   C20 1900   4.053   4.192   5.182  0.0347 -0.1738 -0.2472
   26CHL1   H20 1901   4.003   4.284   5.220  0.2583 -0.9307  1.9994
   26CHL1   C21 1902   3.935   4.112   5.118  0.1608  0.2145  0.4075
   26CHL1  H21A 1903   3.977   4.025   5.064 -0.2516 -1.1134  2.1464
   26CHL1  H21B 1904   3.881   4.178   5.047  2.0835  1.6096  0.1579
   26CHL1  H21C 1905   3.870   4.078   5.202 -0.2471  2.0670  0.9026
   26CHL1   C22 1906   4.161   4.225   5.078  0.1054 -0.0290  1.0395
   26CHL1  H22A 1907   4.230   4.304   5.116  0.7312  0.1754 -0.4416
   26CHL1  H22B 1908   4.209   4.132   5.043  0.8385  1.1739 -1.4360
   26CHL1   C23 1909   4.107   4.283   4.942  0.0262  0.0862 -0.6084
   26CHL1  H23A 1910   4.037   4.214   4.891 -1.5587  1.4778 -0.3725
   26CHL1  H23B 1911   4.052   4.376   4.968  0.3463 -0.5838  2.8988
   26CHL1   C24 1912   4.214   4.323   4.838  0.6172  0.1066  0.9231
   26CHL1  H24A 1913   4.280   4.400   4.883  0.4547  1.0018 -0.3029
   26CHL1  H24B 1914   4.273   4.229   4.842 -1.9146 -1.6411  0.1946
   26CHL1   C25 1915   4.158   4.361   4.698 -0.7621 -0.2077 -0.6220
   26CHL1   H25 1916   4.069   4.296   4.678 -1.7758  1.5077 -2.0212
   26CHL1   C26 1917   4.112   4.506   4.691  0.2468  0.1490 -0.2910
   26CHL1  H26A 1918   4.015   4.516   4.744  0.0970  0.9553 -0.6912
   26CHL1  H26B 1919   4.188   4.563   4.747  0.9976  0.0859 -1.2228
   26CHL1  H26C 1920   4.107   4.538   4.585 -1.9807 -1.0719 -0.6214
   26CHL1   C27 1921   4.272   4.334   4.596  0.0042 -0.5968  0.2788
   26CHL1  H27A 1922   4.354   4.408   4.606  0.5731 -0.8754 -1.8059
   26CHL1  H27B 1923   4.308   4.230   4.610  0.7963 -0.3155  0.3553
   26CHL1  H27C 1924   4.240   4.349   4.490  1.7312  1.8245  0.0116
   27CHL1    C3 1925   3.185   3.788   6.524  0.6080 -0.1422  0.1152
   27CHL1    H3 1926   3.140   3.687   6.511  0.9410 -0.2551 -0.1588
   27CHL1    O3 1927   3.216   3.799   6.661 -0.7266  0.0806 -0.2493
   27CHL1   H3' 1928   3.264   3.881   6.655  2.7093 -1.8333 -1.7619
   27CHL1    C4 1929   3.312   3.787   6.436  0.1571 -0.0543  0.6181
   27CHL1   H4A 1930   3.365   3.882   6.457 -2.1221  1.5990 -0.7205
   27CHL1   H4B 1931   3.380   3.705   6.469  0.1426  0.3239  1.6109
   27CHL1    C5 1932   3.284   3.780   6.282  0.5690 -0.5358 -0.5248
   27CHL1    C6 1933   3.335   3.679   6.211 -0.1649 -0.4247 -1.0343
   27CHL1    H6 1934   3.396   3.607   6.267  1.2820 -1.0781 -3.3163
   27CHL1    C7 1935   3.313   3.672   6.062 -0.1560  0.0791 -0.2041
   27CHL1   H7A 1936   3.400   3.644   6.000 -0.5480  0.1988 -0.8151
   27CHL1   H7B 1937   3.241   3.591   6.035  0.0119 -0.0848 -0.1601
   27CHL1    C8 1938   3.265   3.802   6.002  0.0842  0.0537  0.4734
   27CHL1    H8 1939   3.351   3.871   6.012 -1.0693  1.3842  1.7896
   27CHL1   C14 1940   3.209   3.785   5.855 -0.0008 -0.2076 -0.6270
   27CHL1   H14 1941   3.116   3.725   5.866  0.6698 -1.1571  0.0031
   27CHL1   C15 1942   3.290   3.705   5.744  0.0191 -0.5073 -0.0708
   27CHL1  H15A 1943   3.400   3.715   5.757 -0.0404  0.4066 -0.2218
   27CHL1  H15B 1944   3.276   3.596   5.759 -0.3499 -0.3111  1.0753
   27CHL1   C16 1945   3.237   3.743   5.613  0.4264 -0.2392  0.2202
   27CHL1  H16A 1946   3.320   3.792   5.558  1.9711  2.5998  4.5335
   27CHL1  H16B 1947   3.199   3.665   5.544  1.4897  0.8011 -1.6030
   27CHL1   C17 1948   3.136   3.858   5.641 -0.1200 -0.3443 -0.0231
   27CHL1   H17 1949   3.038   3.808   5.659 -0.5283  0.4402 -0.0194
   27CHL1   C13 1950   3.181   3.917   5.783  0.2111  0.5122  0.0804
   27CHL1   C18 1951   3.313   3.995   5.765 -0.6894 -0.3577  0.3051
   27CHL1  H18A 1952   3.386   3.925   5.718 -2.4536 -1.6521 -0.6350
   27CHL1  H18B 1953   3.315   4.090   5.708  0.0930  0.6403  1.9334
   27CHL1  H18C 1954   3.361   4.014   5.863 -1.8617 -0.4295  0.9131
   27CHL1   C12 1955   3.069   3.980   5.861  0.2864 -0.5892 -0.7085
   27CHL1  H12A 1956   3.024   4.076   5.825  1.0305  0.4028  0.9182
   27CHL1  H12B 1957   2.986   3.906   5.862  1.2520 -1.6975 -0.7351
   27CHL1   C11 1958   3.100   3.997   6.013  0.1296  0.1034  0.0008
   27CHL1  H11A 1959   3.177   4.077   6.014 -0.9829  1.2001  0.6071
   27CHL1  H11B 1960   3.004   4.033   6.055  0.1817  1.5261 -1.0070
   27CHL1    C9 1961   3.149   3.867   6.078  0.6620 -0.1643 -0.3681
   27CHL1    H9 1962   3.061   3.800   6.069  1.0371 -0.6315 -0.6007
   27CHL1   C10 1963   3.185   3.893   6.229  0.2394 -0.0975 -0.5666
   27CHL1   C19 1964   3.275   4.018   6.240  0.5248  0.0708 -0.0793
   27CHL1  H19A 1965   3.364   4.015   6.175  0.3301 -2.1966 -0.3275
   27CHL1  H19B 1966   3.207   4.105   6.224  0.3340 -0.2738 -1.2225
   27CHL1  H19C 1967   3.314   4.038   6.342 -1.5978  0.5786  0.7075
   27CHL1    C1 1968   3.066   3.910   6.323  0.1757  0.5562 -0.2788
   27CHL1   H1A 1969   3.012   4.004   6.300  0.5658  1.1441  1.0906
   27CHL1   H1B 1970   2.994   3.833   6.288 -2.8040  1.7042  2.7341
   27CHL1    C2 1971   3.095   3.903   6.476  0.4298 -0.1468  0.7295
   27CHL1   H2A 1972   2.999   3.890   6.532  0.3099  2.0976  1.1647
   27CHL1   H2B 1973   3.150   3.992   6.513  0.1210 -0.0740  1.0262
   27CHL1   C20 1974   3.113   3.970   5.540  0.4885  0.1325  1.1680
   27CHL1   H20 1975   3.083   4.061   5.596  1.6084  1.0295  0.3469
   27CHL1   C21 1976   2.988   3.939   5.454 -0.0698 -0.4080  0.3985
   27CHL1  H21A 1977   2.977   4.014   5.373 -2.8344 -1.0255  0.1014
   27CHL1  H21B 1978   2.893   3.945   5.512 -0.7028 -0.4247 -0.6123
   27CHL1  H21C 1979   2.995   3.845   5.396 -3.0378  0.4699 -1.5921
   27CHL1   C22 1980   3.227   4.011   5.446  0.1743 -0.5046 -0.2792
   27CHL1  H22A 1981   3.197   4.112   5.412 -2.0468 -1.4118 -1.2100
   27CHL1  H22B 1982   3.318   4.021   5.509 -0.2990  0.4083  0.2901
   27CHL1   C23 1983   3.258   3.926   5.323  0.7001 -0.1562  0.4414
   27CHL1  H23A 1984   3.314   3.833   5.346  2.1347  1.1778  2.8540
   27CHL1  H23B 1985   3.168   3.907   5.262  0.6118  1.6478 -0.0557
   27CHL1   C24 1986   3.341   4.010   5.226 -0.0882  0.3075  0.2246
   27CHL1  H24A 1987   3.281   4.103   5.225  0.3150  0.6135  1.6539
   27CHL1  H24B 1988   3.437   4.030   5.279  0.2747 -0.2808 -0.1929
   27CHL1   C25 1989   3.355   3.954   5.082 -0.2194 -0.1878  0.0617
   27CHL1   H25 1990   3.260   3.911   5.046 -0.3689  1.4520 -1.7139
   27CHL1   C26 1991   3.386   4.066   4.977 -0.2142  0.3920 -0.3405
   27CHL1  H26A 1992   3.320   4.152   5.004 -0.9031  0.2427 -1.4979
   27CHL1  H26B 1993   3.493   4.095   4.984 -0.2830  0.2611  3.2636
   27CHL1  H26C 1994   3.361   4.027   4.876 -2.9304 -0.8737  0.7261
   27CHL1   C27 1995   3.454   3.840   5.066  0.5462  0.3552  0.1462
   27CHL1  H27A 1996   3.437   3.752   5.132  1.0185  0.1664  0.0197
   27CHL1  H27B 1997   3.459   3.798   4.964  1.9300  0.5356  0.1170
   27CHL1  H27C 1998   3.560   3.870   5.083  0.6095 -1.1253  2.8334
   28CHL1    C3 1999   3.185   4.582   6.282 -0.2513  0.3619 -0.7234
   28CHL1    H3 2000   3.288   4.548   6.262  0.4342 -0.3060  3.1646
   28CHL1    O3 2001   3.185   4.608   6.422 -0.5049  0.0688 -0.3504
   28CHL1   H3' 2002   3.091   4.625   6.433 -0.5191 -1.5964  3.7950
   28CHL1    C4 2003   3.161   4.711   6.205 -0.0978 -0.7446 -0.2619
   28CHL1   H4A 2004   3.066   4.758   6.236  1.5198  3.5040 -1.0234
   28CHL1   H4B 2005   3.247   4.776   6.234  0.5541 -0.6144 -2.3296
   28CHL1    C5 2006   3.152   4.691   6.055  0.4773  0.3712 -0.1986
   28CHL1    C6 2007   3.233   4.751   5.972  0.5419 -0.0868  0.1381
   28CHL1    H6 2008   3.302   4.824   6.018 -0.2743 -0.7401  2.5172
   28CHL1    C7 2009   3.225   4.737   5.829 -0.0822 -0.5607 -0.1447
   28CHL1   H7A 2010   3.221   4.843   5.794 -2.2831 -0.5767 -0.0534
   28CHL1   H7B 2011   3.320   4.690   5.796 -0.2121 -0.0253 -1.3505
   28CHL1    C8 2012   3.109   4.651   5.766 -0.3969  0.2540 -0.3903
   28CHL1    H8 2013   3.025   4.724   5.762  0.1310  0.9184  0.4092
   28CHL1   C14 2014   3.138   4.599   5.632 -0.2649 -0.7427 -0.1879
   28CHL1   H14 2015   3.224   4.530   5.646 -0.8030 -1.3097  0.3645
   28CHL1   C15 2016   3.178   4.701   5.520  0.2166  0.0352  0.3063
   28CHL1  H15A 2017   3.115   4.793   5.523  0.8859  0.5009  0.2803
   28CHL1  H15B 2018   3.283   4.736   5.529  0.6189 -1.2434  0.7995
   28CHL1   C16 2019   3.154   4.625   5.384  0.1944 -0.3324 -0.0274
   28CHL1  H16A 2020   3.082   4.680   5.321  2.4424  3.4800  0.4449
   28CHL1  H16B 2021   3.249   4.603   5.331  0.3712 -2.1915  0.9551
   28CHL1   C17 2022   3.098   4.483   5.428 -0.3444 -1.1898 -0.7556
   28CHL1   H17 2023   3.192   4.432   5.460  0.1092 -1.4517 -2.4197
   28CHL1   C13 2024   3.026   4.517   5.575  0.9691  0.6747  0.8789
   28CHL1   C18 2025   2.894   4.602   5.548  0.1984 -0.1019  0.4228
   28CHL1  H18A 2026   2.806   4.535   5.544  0.8448 -0.9590 -0.1625
   28CHL1  H18B 2027   2.871   4.674   5.629 -1.5229  0.4478 -0.5148
   28CHL1  H18C 2028   2.898   4.662   5.454  0.2452  0.3865  0.7328
   28CHL1   C12 2029   2.999   4.396   5.664  0.4942  0.5854 -0.5120
   28CHL1  H12A 2030   2.915   4.333   5.625 -1.1574  0.2959  3.0916
   28CHL1  H12B 2031   3.082   4.323   5.650 -1.1490 -1.4135 -0.4416
   28CHL1   C11 2032   2.972   4.431   5.812 -0.7041 -0.4573  0.2324
   28CHL1  H11A 2033   2.871   4.478   5.811  0.4088  2.1864 -1.6031
   28CHL1  H11B 2034   2.974   4.334   5.866  0.3181 -0.6709 -0.1678
   28CHL1    C9 2035   3.069   4.537   5.868 -0.3697  0.9127  0.2169
   28CHL1    H9 2036   3.161   4.475   5.868  1.3042  3.2273 -1.3946
   28CHL1   C10 2037   3.045   4.585   6.011  0.1691  0.3514 -0.6352
   28CHL1   C19 2038   2.897   4.628   6.032  0.8520  0.2793  0.0543
   28CHL1  H19A 2039   2.878   4.649   6.139  0.5409 -2.2259  0.5554
   28CHL1  H19B 2040   2.854   4.721   5.991 -0.1147 -0.0445  0.3222
   28CHL1  H19C 2041   2.823   4.549   6.008  0.5574  0.1562  1.3101
   28CHL1    C1 2042   3.071   4.462   6.099 -0.4893  0.2076  0.2962
   28CHL1   H1A 2043   3.000   4.381   6.068  0.9883 -0.4861 -1.4201
   28CHL1   H1B 2044   3.172   4.427   6.070  0.1451  0.4013  2.1048
   28CHL1    C2 2045   3.074   4.481   6.247 -0.6227 -1.1594 -0.4583
   28CHL1   H2A 2046   3.109   4.386   6.293  1.6000  0.2808  1.0430
   28CHL1   H2B 2047   2.980   4.504   6.301 -0.2918 -1.7493  0.3887
   28CHL1   C20 2048   3.029   4.401   5.326  0.1489  0.4914  0.4529
   28CHL1   H20 2049   3.005   4.306   5.380  3.5901 -0.9132 -0.2071
   28CHL1   C21 2050   3.145   4.357   5.234 -0.0848  0.0318 -0.0954
   28CHL1  H21A 2051   3.236   4.329   5.292 -0.0722 -0.0795 -0.1709
   28CHL1  H21B 2052   3.161   4.444   5.166 -1.2142  0.5383  0.2604
   28CHL1  H21C 2053   3.116   4.282   5.158 -2.0056  1.3272 -0.7105
   28CHL1   C22 2054   2.912   4.459   5.245 -0.2702  0.0354 -0.1015
   28CHL1  H22A 2055   2.827   4.474   5.316 -0.1966 -1.3432  0.3077
   28CHL1  H22B 2056   2.935   4.561   5.207  0.4513  0.4186  1.2965
   28CHL1   C23 2057   2.859   4.361   5.141 -0.0968 -0.1701  0.0262
   28CHL1  H23A 2058   2.771   4.413   5.097  0.1477  0.5450  0.3745
   28CHL1  H23B 2059   2.938   4.349   5.064 -0.3655 -2.3442  0.0235
   28CHL1   C24 2060   2.828   4.213   5.183  0.5602  0.4786 -0.1193
   28CHL1  H24A 2061   2.916   4.167   5.233  0.7851  2.5028  1.4714
   28CHL1  H24B 2062   2.743   4.201   5.254  0.4065 -2.3612 -0.6594
   28CHL1   C25 2063   2.791   4.111   5.071 -0.8742 -0.0292  0.1039
   28CHL1   H25 2064   2.722   4.164   5.002 -1.0247  0.6418  0.7579
   28CHL1   C26 2065   2.915   4.080   4.983  0.1123 -0.1849 -0.6083
   28CHL1  H26A 2066   2.990   4.022   5.042 -1.5902 -2.1724 -0.2949
   28CHL1  H26B 2067   2.880   4.011   4.904 -0.6427 -0.5901  0.0722
   28CHL1  H26C 2068   2.968   4.165   4.934  1.7883 -1.2595 -0.7691
   28CHL1   C27 2069   2.726   3.984   5.126  0.6199  0.6148  0.1318
   28CHL1  H27A 2070   2.684   3.915   5.048 -0.1447  1.7643 -0.5024
   28CHL1  H27B 2071   2.804   3.927   5.180 -1.0423 -0.8557  1.1217
   28CHL1  H27C 2072   2.646   4.011   5.199  2.2632 -0.2502  2.3632
   29CHL1    C3 2073   1.067   0.519   6.612 -0.0999 -0.5340 -0.0756
   29CHL1    H3 2074   1.135   0.439   6.574 -0.5000 -0.2870 -1.3750
   29CHL1    O3 2075   1.034   0.482   6.744  0.3705  0.3327 -0.4030
   29CHL1   H3' 2076   0.980   0.546   6.791 -0.6204 -1.1095  0.4787
   29CHL1    C4 2077   1.143   0.651   6.608 -0.1031  0.4003 -0.7928
   29CHL1   H4A 2078   1.077   0.727   6.654 -0.9404  0.2084 -1.6488
   29CHL1   H4B 2079   1.223   0.638   6.684  1.3819 -0.0300 -2.3520
   29CHL1    C5 2080   1.179   0.692   6.475 -0.1037  0.6841  0.2297
   29CHL1    C6 2081   1.301   0.714   6.441 -0.5067  0.5657  0.4180
   29CHL1    H6 2082   1.376   0.711   6.520 -0.6256 -1.5521  0.4981
   29CHL1    C7 2083   1.344   0.767   6.305  0.0524  0.3893  0.1272
   29CHL1   H7A 2084   1.420   0.847   6.319  1.5063 -0.5462 -1.7872
   29CHL1   H7B 2085   1.403   0.685   6.258 -1.9473 -1.8090  1.2465
   29CHL1    C8 2086   1.222   0.815   6.212  0.2030 -0.3386  0.5203
   29CHL1    H8 2087   1.188   0.909   6.259 -0.6612 -0.1486 -0.4629
   29CHL1   C14 2088   1.265   0.840   6.063 -0.0011  0.6395  0.0615
   29CHL1   H14 2089   1.308   0.744   6.028  3.1702  1.1405  2.2186
   29CHL1   C15 2090   1.372   0.944   6.053  0.2035 -0.1391  0.3128
   29CHL1  H15A 2091   1.348   1.027   6.122 -0.8420  2.4324 -2.9012
   29CHL1  H15B 2092   1.479   0.914   6.062  0.3229  0.0749 -0.3491
   29CHL1   C16 2093   1.353   1.001   5.908  0.1543  0.0704  0.4353
   29CHL1  H16A 2094   1.329   1.109   5.918  1.1691  0.4935 -1.1798
   29CHL1  H16B 2095   1.438   0.980   5.840 -0.0377 -1.8509  0.7466
   29CHL1   C17 2096   1.230   0.918   5.847  0.9549  0.0460  0.1784
   29CHL1   H17 2097   1.277   0.824   5.811 -1.1358 -1.6618  1.6525
   29CHL1   C13 2098   1.149   0.886   5.977 -0.1107 -0.0868 -0.0673
   29CHL1   C18 2099   1.086   1.008   6.035 -0.2527 -0.1072 -0.0470
   29CHL1  H18A 2100   1.154   1.095   6.031  0.9258 -0.9605  0.5650
   29CHL1  H18B 2101   1.003   1.042   5.969  1.4717  2.3488 -1.0739
   29CHL1  H18C 2102   1.030   1.000   6.131 -0.0622 -2.5884 -0.0819
   29CHL1   C12 2103   1.052   0.766   5.975  0.3294  0.4815  0.3003
   29CHL1  H12A 2104   0.977   0.768   5.894 -0.9783  1.5633  1.4944
   29CHL1  H12B 2105   1.110   0.673   5.957 -1.8981 -1.0468  0.5851
   29CHL1   C11 2106   0.992   0.734   6.111  0.5747  0.9677 -0.1370
   29CHL1  H11A 2107   0.916   0.804   6.149 -0.5976 -0.7211  0.7722
   29CHL1  H11B 2108   0.947   0.632   6.108 -0.6548  1.4905  0.3084
   29CHL1    C9 2109   1.112   0.714   6.218 -0.3065  0.6040  0.4346
   29CHL1    H9 2110   1.165   0.618   6.196  0.0646  0.5206  1.6224
   29CHL1   C10 2111   1.067   0.694   6.368  0.4663 -0.0035  0.1982
   29CHL1   C19 2112   0.963   0.803   6.400  0.7171  0.0711 -0.7350
   29CHL1  H19A 2113   1.012   0.900   6.374  0.5768  0.3046 -0.1354
   29CHL1  H19B 2114   0.872   0.797   6.337  1.2619 -1.6298 -1.4262
   29CHL1  H19C 2115   0.930   0.816   6.505 -3.2241 -0.4114 -1.7669
   29CHL1    C1 2116   0.984   0.563   6.381  0.2227  0.1138  0.2213
   29CHL1   H1A 2117   0.896   0.581   6.316  0.2323  1.2252  0.4837
   29CHL1   H1B 2118   1.047   0.479   6.346 -1.5705 -1.1857  0.0050
   29CHL1    C2 2119   0.945   0.535   6.524 -0.2563  0.7359 -0.1481
   29CHL1   H2A 2120   0.898   0.434   6.526 -0.8235  0.8412 -3.2253
   29CHL1   H2B 2121   0.867   0.600   6.569 -0.9873  0.3512 -0.8270
   29CHL1   C20 2122   1.164   0.992   5.728  0.1642 -0.5579  0.7543
   29CHL1   H20 2123   1.099   1.068   5.775  0.6325  0.1198  0.3099
   29CHL1   C21 2124   1.070   0.901   5.650 -0.7616  0.0509  0.1021
   29CHL1  H21A 2125   0.985   0.868   5.714 -0.0463 -0.4867  0.7904
   29CHL1  H21B 2126   1.116   0.810   5.606  1.2655  1.2002 -0.2937
   29CHL1  H21C 2127   1.027   0.951   5.561 -3.8263 -0.5396  1.1131
   29CHL1   C22 2128   1.261   1.065   5.628 -1.0659 -0.0970 -0.2050
   29CHL1  H22A 2129   1.345   1.111   5.684 -0.3982 -2.2359  0.6308
   29CHL1  H22B 2130   1.315   0.988   5.568 -2.2237  1.0715 -2.9242
   29CHL1   C23 2131   1.186   1.166   5.535 -0.2027  0.2391  0.0720
   29CHL1  H23A 2132   1.262   1.227   5.482  1.5980  0.2553  2.5098
   29CHL1  H23B 2133   1.130   1.106   5.460 -0.8137 -0.2471  0.8979
   29CHL1   C24 2134   1.111   1.272   5.623  0.0032  0.6176  0.3498
   29CHL1  H24A 2135   1.017   1.229   5.663  0.5603  0.1115  1.1611
   29CHL1  H24B 2136   1.173   1.307   5.708  1.6340 -0.7930 -0.1957
   29CHL1   C25 2137   1.061   1.400   5.552  0.0360  1.3004  0.1160
   29CHL1   H25 2138   1.145   1.461   5.514  0.4598  0.3531 -0.5005
   29CHL1   C26 2139   0.975   1.368   5.431 -0.3207 -0.1465  0.4999
   29CHL1  H26A 2140   1.028   1.307   5.354  0.0376  0.8331 -0.0444
   29CHL1  H26B 2141   0.880   1.312   5.444 -1.2371  1.5065  1.1909
   29CHL1  H26C 2142   0.953   1.468   5.387  1.5330  0.3139  0.5476
   29CHL1   C27 2143   0.973   1.472   5.649 -0.1447  0.0144  0.1355
   29CHL1  H27A 2144   1.019   1.518   5.739 -2.1898  0.1406  1.1799
   29CHL1  H27B 2145   0.921   1.555   5.596  0.2180 -0.4692 -1.0069
   29CHL1  H27C 2146   0.895   1.403   5.686  1.2029 -1.4217  0.3955
   30CHL1    C3 2147   0.501   2.474   3.641  0.4717  0.5670  0.4895
   30CHL1    H3 2148   0.551   2.378   3.667 -0.5904 -0.9773 -2.7012
   30CHL1    O3 2149   0.504   2.480   3.500  0.4765 -0.2792  0.3284
   30CHL1   H3' 2150   0.431   2.539   3.478  0.2890 -0.4771  0.4089
   30CHL1    C4 2151   0.354   2.453   3.702 -0.2413 -0.2580 -0.3741
   30CHL1   H4A 2152   0.298   2.539   3.661 -0.4617 -1.0981 -1.9063
   30CHL1   H4B 2153   0.308   2.363   3.657 -0.7849 -0.5017  0.6479
   30CHL1    C5 2154   0.350   2.458   3.853 -0.4616 -0.0689 -0.3142
   30CHL1    C6 2155   0.295   2.357   3.924 -1.2788  0.4012 -0.8614
   30CHL1    H6 2156   0.247   2.278   3.865 -1.9525  1.8444 -2.3533
   30CHL1    C7 2157   0.312   2.346   4.071 -0.0593 -0.0940 -1.3277
   30CHL1   H7A 2158   0.221   2.302   4.117 -1.0088 -0.7353 -3.6826
   30CHL1   H7B 2159   0.391   2.270   4.093  1.8916  1.6838 -1.8721
   30CHL1    C8 2160   0.337   2.485   4.144 -0.3684 -0.6111 -0.1012
   30CHL1    H8 2161   0.245   2.544   4.124 -0.3274 -0.8359 -1.0442
   30CHL1   C14 2162   0.372   2.479   4.288 -0.5515  0.1119  0.5853
   30CHL1   H14 2163   0.457   2.407   4.297  0.8134  1.5930  0.0297
   30CHL1   C15 2164   0.272   2.412   4.382 -1.0100  0.0863 -0.1316
   30CHL1  H15A 2165   0.169   2.444   4.355 -0.2621  1.6376 -1.2841
   30CHL1  H15B 2166   0.270   2.301   4.373  0.1914 -0.0197  0.6743
   30CHL1   C16 2167   0.309   2.451   4.523 -0.4008 -0.3166 -0.4314
   30CHL1  H16A 2168   0.225   2.503   4.575 -0.5454  0.4898 -1.4229
   30CHL1  H16B 2169   0.336   2.369   4.592 -0.0045  0.3902  0.2753
   30CHL1   C17 2170   0.433   2.554   4.505 -0.0569  0.3645 -0.0569
   30CHL1   H17 2171   0.520   2.485   4.512  0.4825  1.0165 -0.2560
   30CHL1   C13 2172   0.423   2.603   4.360  0.2296  0.0764  0.6806
   30CHL1   C18 2173   0.311   2.715   4.348  0.3957 -0.0239  0.0782
   30CHL1  H18A 2174   0.215   2.694   4.400 -0.3870  0.5483 -1.1031
   30CHL1  H18B 2175   0.351   2.812   4.384 -0.6888  0.9658 -1.2733
   30CHL1  H18C 2176   0.289   2.734   4.241 -1.8602 -1.0432  0.3168
   30CHL1   C12 2177   0.556   2.650   4.285  0.1068 -0.3047 -0.7523
   30CHL1  H12A 2178   0.596   2.744   4.328 -3.2642  0.1964  1.7275
   30CHL1  H12B 2179   0.635   2.572   4.280  0.0662 -0.2838 -3.3614
   30CHL1   C11 2180   0.520   2.680   4.139  0.1470  0.3180 -0.3786
   30CHL1  H11A 2181   0.456   2.771   4.136 -2.6656 -1.5728 -2.7170
   30CHL1  H11B 2182   0.614   2.717   4.093  0.7744 -0.4914  0.2223
   30CHL1    C9 2183   0.456   2.559   4.065  0.2229 -1.1023 -0.1221
   30CHL1    H9 2184   0.537   2.483   4.060 -0.5330 -1.8524 -1.9695
   30CHL1   C10 2185   0.427   2.578   3.911  0.4872  0.4576  0.2355
   30CHL1   C19 2186   0.345   2.707   3.904 -0.0057 -0.1274 -0.2114
   30CHL1  H19A 2187   0.412   2.795   3.898  0.5179 -0.4671  0.4801
   30CHL1  H19B 2188   0.279   2.692   3.816 -1.0398  1.9316  0.1575
   30CHL1  H19C 2189   0.271   2.713   3.987  0.7799 -3.7962  0.9647
   30CHL1    C1 2190   0.568   2.592   3.852 -0.1370  0.1080  0.1194
   30CHL1   H1A 2191   0.625   2.682   3.882  1.2127 -0.6049 -0.2271
   30CHL1   H1B 2192   0.625   2.500   3.880 -1.5808 -0.6802  0.5985
   30CHL1    C2 2193   0.567   2.597   3.700 -0.3172 -0.5679 -1.0646
   30CHL1   H2A 2194   0.666   2.618   3.655  0.1582 -0.0757  0.1891
   30CHL1   H2B 2195   0.509   2.685   3.665 -0.3654  0.0025  0.3991
   30CHL1   C20 2196   0.440   2.658   4.614  0.1440 -1.0513 -0.1448
   30CHL1   H20 2197   0.346   2.717   4.616 -0.0627 -1.3908  0.4750
   30CHL1   C21 2198   0.557   2.756   4.599 -0.0498 -0.8974  0.3446
   30CHL1  H21A 2199   0.529   2.823   4.515 -0.9214  0.2300  1.4819
   30CHL1  H21B 2200   0.658   2.715   4.578  0.1796  0.0166 -0.4128
   30CHL1  H21C 2201   0.570   2.829   4.683  2.3429 -0.3305 -0.4279
   30CHL1   C22 2202   0.431   2.599   4.762 -0.4142  0.1152 -0.2845
   30CHL1  H22A 2203   0.448   2.677   4.840  1.2087 -1.5051  1.0670
   30CHL1  H22B 2204   0.334   2.548   4.779 -0.8098  1.1842  0.8678
   30CHL1   C23 2205   0.541   2.497   4.797 -0.3775 -0.8784 -0.1976
   30CHL1  H23A 2206   0.514   2.412   4.730  1.1149  0.2671 -2.3742
   30CHL1  H23B 2207   0.640   2.536   4.766 -1.3134  0.3622 -1.8249
   30CHL1   C24 2208   0.543   2.462   4.952 -0.7979 -0.1525 -0.4604
   30CHL1  H24A 2209   0.572   2.550   5.014  1.0633 -1.7553  1.0807
   30CHL1  H24B 2210   0.443   2.420   4.979  0.3470 -2.2417  0.7579
   30CHL1   C25 2211   0.650   2.363   4.994  0.1191  0.4362 -0.3916
   30CHL1   H25 2212   0.747   2.416   5.006  0.1533  0.7959 -2.0074
   30CHL1   C26 2213   0.622   2.297   5.139 -0.1248 -0.6764  0.8191
   30CHL1  H26A 2214   0.597   2.370   5.220  1.1554  0.1131  0.5290
   30CHL1  H26B 2215   0.529   2.238   5.125 -2.0188  1.8406  1.9002
   30CHL1  H26C 2216   0.707   2.233   5.169  0.4537 -0.4227 -0.2450
   30CHL1   C27 2217   0.655   2.248   4.889 -0.4335 -0.9205 -0.6915
   30CHL1  H27A 2218   0.675   2.292   4.788 -1.7829 -0.2140 -0.6730
   30CHL1  H27B 2219   0.721   2.164   4.918  0.4289  0.5955  2.0790
   30CHL1  H27C 2220   0.554   2.204   4.877 -2.6781  2.8849  2.0146
   31CHL1    C3 2221   0.104   3.215   3.221 -0.9825 -0.8503  0.6055
   31CHL1    H3 2222   0.211   3.211   3.250  0.8490 -0.6837 -4.9394
   31CHL1    O3 2223   0.105   3.202   3.079  0.0190 -0.3679 -0.0038
   31CHL1   H3' 2224   0.016   3.223   3.049  0.3476  0.0210 -0.7226
   31CHL1    C4 2225   0.030   3.099   3.273  0.4436  0.7763 -0.5985
   31CHL1   H4A 2226  -0.072   3.088   3.231  0.0808  1.2540  0.1271
   31CHL1   H4B 2227   0.088   3.011   3.239 -0.2443 -0.5136  1.3881
   31CHL1    C5 2228   0.021   3.096   3.423 -0.5158  0.3042  0.1312
   31CHL1    C6 2229   0.078   2.998   3.498 -0.4733 -0.9280  0.2505
   31CHL1    H6 2230   0.129   2.916   3.447  1.4477  0.8124 -0.8018
   31CHL1    C7 2231   0.082   3.002   3.650  0.5731 -0.0612  0.7355
   31CHL1   H7A 2232   0.045   2.908   3.696 -2.1178  0.8675  0.6722
   31CHL1   H7B 2233   0.183   3.035   3.684 -0.3212  0.6905  2.8864
   31CHL1    C8 2234  -0.013   3.109   3.707 -0.5872  0.1722 -1.1960
   31CHL1    H8 2235  -0.117   3.076   3.687 -0.8997  1.8734 -2.6112
   31CHL1   C14 2236   0.025   3.130   3.848 -0.1607 -0.8212 -0.1958
   31CHL1   H14 2237   0.133   3.155   3.847 -1.0472  3.8107 -0.7395
   31CHL1   C15 2238   0.037   3.011   3.952 -0.3453 -0.6804  0.0243
   31CHL1  H15A 2239  -0.057   2.951   3.949 -1.6532  1.1383  2.2173
   31CHL1  H15B 2240   0.124   2.946   3.928  0.8375  0.3608  1.4063
   31CHL1   C16 2241   0.053   3.075   4.084  0.2765 -0.0069  0.0143
   31CHL1  H16A 2242  -0.020   3.021   4.149 -0.6422  1.0131 -0.1372
   31CHL1  H16B 2243   0.157   3.057   4.118 -0.0092 -3.3922 -0.5007
   31CHL1   C17 2244   0.014   3.226   4.062  0.2241  0.4441  0.8782
   31CHL1   H17 2245   0.107   3.285   4.046 -0.5781  1.5431  0.1232
   31CHL1   C13 2246  -0.056   3.234   3.927 -0.2105 -0.9245  0.2981
   31CHL1   C18 2247  -0.195   3.203   3.939 -0.0706  0.3574 -0.2715
   31CHL1  H18A 2248  -0.255   3.283   3.987 -2.2222  0.3696 -2.7616
   31CHL1  H18B 2249  -0.234   3.200   3.835 -1.2288  0.7823  0.1306
   31CHL1  H18C 2250  -0.208   3.106   3.992 -0.0932 -0.0594 -1.0128
   31CHL1   C12 2251  -0.039   3.365   3.849 -0.1870  0.0200 -0.6895
   31CHL1  H12A 2252  -0.104   3.449   3.880 -0.8682 -0.5061 -0.6676
   31CHL1  H12B 2253   0.067   3.399   3.847  0.0001 -0.5092 -2.6561
   31CHL1   C11 2254  -0.067   3.353   3.699  0.5350 -0.0968 -0.5483
   31CHL1  H11A 2255  -0.177   3.341   3.686  0.6181 -1.5314 -0.1677
   31CHL1  H11B 2256  -0.028   3.444   3.650 -0.8706  0.2478 -1.0805
   31CHL1    C9 2257   0.003   3.234   3.632  0.2430 -0.3646 -1.4247
   31CHL1    H9 2258   0.110   3.264   3.636  0.5464 -1.5195 -0.2525
   31CHL1   C10 2259  -0.039   3.221   3.486  0.1601 -0.2704 -0.9610
   31CHL1   C19 2260  -0.194   3.199   3.466 -0.1977 -0.3474  0.2374
   31CHL1  H19A 2261  -0.231   3.107   3.516 -1.1828 -2.1685 -3.4492
   31CHL1  H19B 2262  -0.238   3.295   3.499  0.5599 -0.4557  1.6214
   31CHL1  H19C 2263  -0.214   3.187   3.357 -2.7913 -1.9848  0.8102
   31CHL1    C1 2264   0.004   3.352   3.417 -0.8133  0.8192 -0.5203
   31CHL1   H1A 2265  -0.069   3.434   3.435 -1.3145  0.8426 -2.4266
   31CHL1   H1B 2266   0.099   3.388   3.463  0.0691  0.3886 -1.9412
   31CHL1    C2 2267   0.030   3.350   3.267  0.0239 -0.0054 -0.3029
   31CHL1   H2A 2268   0.092   3.441   3.251 -0.8586  0.7932  0.5801
   31CHL1   H2B 2269  -0.068   3.367   3.217  0.8404 -0.8655 -2.2959
   31CHL1   C20 2270  -0.062   3.271   4.190  0.4394 -0.0740 -0.8409
   31CHL1   H20 2271  -0.160   3.217   4.189 -0.1146  0.9020 -2.3489
   31CHL1   C21 2272  -0.098   3.419   4.180 -0.3938 -0.0634  0.4404
   31CHL1  H21A 2273  -0.033   3.468   4.105 -1.3679  1.0590  0.2879
   31CHL1  H21B 2274  -0.090   3.477   4.275 -1.1584  3.8523 -1.6834
   31CHL1  H21C 2275  -0.206   3.415   4.155 -0.3470  2.0164 -0.2782
   31CHL1   C22 2276   0.014   3.249   4.320 -0.4314 -0.5209  0.6824
   31CHL1  H22A 2277   0.064   3.150   4.326  1.2736  0.3476  1.4841
   31CHL1  H22B 2278   0.088   3.332   4.313 -2.5715  1.3955 -0.8380
   31CHL1   C23 2279  -0.062   3.283   4.448  0.1925 -0.5968  0.3026
   31CHL1  H23A 2280  -0.126   3.372   4.431 -0.1457 -0.6186  1.3628
   31CHL1  H23B 2281  -0.125   3.194   4.470  0.0458 -0.3045  1.0729
   31CHL1   C24 2282   0.035   3.303   4.562  0.5752 -0.9412 -0.4652
   31CHL1  H24A 2283   0.091   3.209   4.581 -0.3347 -1.2502  0.8790
   31CHL1  H24B 2284   0.107   3.382   4.534  1.1083 -0.8181  1.1277
   31CHL1   C25 2285  -0.036   3.353   4.692 -0.1830  0.1884  0.4652
   31CHL1   H25 2286  -0.138   3.311   4.687  0.6737 -1.9708 -0.2551
   31CHL1   C26 2287   0.013   3.305   4.829  0.0331  0.1407 -0.2482
   31CHL1  H26A 2288   0.014   3.194   4.830  0.3582  0.1302  1.7311
   31CHL1  H26B 2289   0.121   3.330   4.824  0.2016 -0.6520 -0.7590
   31CHL1  H26C 2290  -0.052   3.349   4.908  1.6727  0.7873  0.7923
   31CHL1   C27 2291  -0.036   3.514   4.701  0.2875  0.3553  0.2437
   31CHL1  H27A 2292  -0.114   3.551   4.771  1.1010  0.5154  1.0910
   31CHL1  H27B 2293   0.061   3.546   4.745  0.5447 -2.5213  2.0623
   31CHL1  H27C 2294  -0.052   3.552   4.598 -0.0047  0.0949  0.1900
   32CHL1    C3 2295   6.047   1.914   3.336 -0.3321 -0.5943 -0.0150
   32CHL1    H3 2296   5.955   1.969   3.365 -0.9511 -1.4128 -0.4108
   32CHL1    O3 2297   6.075   1.933   3.199 -0.2158 -0.5556  0.3563
   32CHL1   H3' 2298   6.149   1.993   3.186 -0.9913  0.1076 -1.2722
   32CHL1    C4 2299   6.164   1.967   3.415  0.1575  0.2427 -0.4079
   32CHL1   H4A 2300   6.253   1.902   3.401 -2.3589 -3.1983 -2.0955
   32CHL1   H4B 2301   6.201   2.069   3.391 -1.5172  0.1637 -4.1028
   32CHL1    C5 2302   6.127   1.941   3.561 -0.5123  0.2105  0.2496
   32CHL1    C6 2303   6.133   2.040   3.653  0.0874 -0.6161  0.4384
   32CHL1    H6 2304   6.148   2.143   3.618 -1.7324 -0.4492  0.0178
   32CHL1    C7 2305   6.116   2.020   3.802  0.2867  0.6935  0.3203
   32CHL1   H7A 2306   6.205   2.070   3.845  1.3084 -0.8044  0.0315
   32CHL1   H7B 2307   6.016   2.057   3.832  0.0458  0.5669 -0.3073
   32CHL1    C8 2308   6.112   1.874   3.845 -0.7752  0.6412  0.0104
   32CHL1    H8 2309   6.217   1.839   3.837 -1.4715 -2.0206  1.2185
   32CHL1   C14 2310   6.065   1.861   3.987  0.0507  0.7863 -0.8005
   32CHL1   H14 2311   5.962   1.900   3.998 -0.4040 -0.8323  1.4404
   32CHL1   C15 2312   6.149   1.940   4.098 -0.0854  0.1419 -0.3338
   32CHL1  H15A 2313   6.254   1.904   4.092 -0.5685 -1.0184 -4.3896
   32CHL1  H15B 2314   6.134   2.050   4.098 -0.5864  0.0773  0.2221
   32CHL1   C16 2315   6.084   1.882   4.230  0.5276 -0.3825  0.0295
   32CHL1  H16A 2316   6.147   1.876   4.321  1.5732  0.3565 -0.6291
   32CHL1  H16B 2317   6.013   1.962   4.262  0.0678 -0.4958 -0.7003
   32CHL1   C17 2318   6.007   1.751   4.187 -0.2010 -0.0860  0.3284
   32CHL1   H17 2319   5.902   1.783   4.173 -0.2491 -0.5698 -0.4601
   32CHL1   C13 2320   6.043   1.716   4.041 -0.2692  0.5106 -0.1929
   32CHL1   C18 2321   6.175   1.633   4.030  0.3011 -0.8453  0.1035
   32CHL1  H18A 2322   6.256   1.664   4.099  1.3234  0.4734 -1.5792
   32CHL1  H18B 2323   6.154   1.526   4.049  0.6108 -0.7941  0.7664
   32CHL1  H18C 2324   6.221   1.637   3.928  2.9164  3.4632  1.1655
   32CHL1   C12 2325   5.936   1.652   3.949 -0.4361  0.0768  0.2451
   32CHL1  H12A 2326   5.910   1.548   3.977  0.3570  0.1824  1.4522
   32CHL1  H12B 2327   5.849   1.721   3.949  1.5235  2.8033 -1.6351
   32CHL1   C11 2328   5.987   1.655   3.804  0.1993 -0.3007  0.7451
   32CHL1  H11A 2329   6.065   1.580   3.783  0.4115 -0.4004  1.8232
   32CHL1  H11B 2330   5.900   1.614   3.748 -0.2419  0.7455  0.6368
   32CHL1    C9 2331   6.023   1.794   3.753  0.1591  0.0551  1.0126
   32CHL1    H9 2332   5.927   1.846   3.735  0.6246  0.0897 -1.8416
   32CHL1   C10 2333   6.086   1.795   3.608 -0.6348  0.5651 -0.3481
   32CHL1   C19 2334   6.216   1.720   3.597 -0.1338 -0.2762 -0.4566
   32CHL1  H19A 2335   6.250   1.688   3.496 -1.9804 -1.2121 -0.8329
   32CHL1  H19B 2336   6.299   1.775   3.646  0.2144  0.0099 -1.3278
   32CHL1  H19C 2337   6.205   1.617   3.638  0.3859 -0.0179  0.3404
   32CHL1    C1 2338   5.996   1.728   3.505  0.2436 -0.1537  0.8429
   32CHL1   H1A 2339   5.981   1.618   3.519 -1.3968  0.0559  0.9170
   32CHL1   H1B 2340   5.893   1.770   3.512 -0.3950 -1.6076  0.6208
   32CHL1    C2 2341   6.031   1.763   3.355 -0.2806  0.3675 -0.1319
   32CHL1   H2A 2342   5.953   1.722   3.288 -0.5502  1.6518 -0.6234
   32CHL1   H2B 2343   6.120   1.702   3.329 -1.6265 -1.6032 -0.3851
   32CHL1   C20 2344   6.009   1.631   4.286 -0.2924 -0.2620  0.4359
   32CHL1   H20 2345   5.999   1.538   4.225  0.3036 -0.5804  0.8112
   32CHL1   C21 2346   5.875   1.655   4.368 -0.2318  0.4397  0.1294
   32CHL1  H21A 2347   5.890   1.745   4.431  0.8834 -0.1603  0.7354
   32CHL1  H21B 2348   5.861   1.566   4.432  1.3663  0.0596  0.0040
   32CHL1  H21C 2349   5.788   1.662   4.298 -0.3071  1.8535  0.3366
   32CHL1   C22 2350   6.125   1.619   4.382 -0.3304 -0.2925 -0.6236
   32CHL1  H22A 2351   6.211   1.618   4.312 -1.9709  2.6091 -2.9037
   32CHL1  H22B 2352   6.134   1.692   4.465 -3.5359 -1.1635  0.6489
   32CHL1   C23 2353   6.117   1.486   4.463 -0.0709  0.6302  0.1521
   32CHL1  H23A 2354   6.051   1.496   4.552  0.8222  0.9543  0.7849
   32CHL1  H23B 2355   6.064   1.416   4.394 -0.0353  1.3232 -0.5842
   32CHL1   C24 2356   6.248   1.429   4.509 -0.9626  0.3412  0.5173
   32CHL1  H24A 2357   6.318   1.402   4.427  0.2162 -1.0573  1.9262
   32CHL1  H24B 2358   6.285   1.515   4.569 -1.6401 -0.8105  2.6888
   32CHL1   C25 2359   6.249   1.320   4.622 -0.2046  0.4290 -0.0194
   32CHL1   H25 2360   6.173   1.250   4.581 -0.7395  0.7773  0.3798
   32CHL1   C26 2361   6.381   1.232   4.616 -0.0622 -0.1016 -0.0848
   32CHL1  H26A 2362   6.391   1.200   4.511 -1.8062 -1.8931  0.2488
   32CHL1  H26B 2363   6.474   1.282   4.652 -0.1881 -0.1625  0.3382
   32CHL1  H26C 2364   6.365   1.137   4.672 -0.3953  0.7553  1.3492
   32CHL1   C27 2365   6.240   1.366   4.767  0.6810  0.0863 -0.5725
   32CHL1  H27A 2366   6.329   1.427   4.791 -0.0198  1.4443 -1.3041
   32CHL1  H27B 2367   6.149   1.428   4.784  1.2500  1.0585 -1.0255
   32CHL1  H27C 2368   6.232   1.284   4.842  0.3130  1.0153  0.4319
   33CHL1    C3 2369   2.217   3.264   6.806 -0.1243  0.4479 -0.0122
   33CHL1    H3 2370   2.166   3.168   6.784 -2.6105  1.5371  0.5949
   33CHL1    O3 2371   2.207   3.286   6.944 -0.3611 -0.3684  0.2958
   33CHL1   H3' 2372   2.233   3.378   6.952 -2.7262  0.2330  2.2505
   33CHL1    C4 2373   2.365   3.269   6.757 -0.0059 -0.3157 -0.5190
   33CHL1   H4A 2374   2.419   3.361   6.789  1.9763 -2.0058  1.3200
   33CHL1   H4B 2375   2.421   3.192   6.815  2.5272  0.6839 -1.4732
   33CHL1    C5 2376   2.381   3.249   6.607  0.2106 -0.6868 -0.4875
   33CHL1    C6 2377   2.471   3.165   6.555 -0.4423 -0.6823 -0.8644
   33CHL1    H6 2378   2.534   3.106   6.623  0.5092  1.1357 -0.1125
   33CHL1    C7 2379   2.482   3.135   6.409  0.1232 -0.2224 -0.8676
   33CHL1   H7A 2380   2.590   3.115   6.391  0.7315  0.4679  1.6569
   33CHL1   H7B 2381   2.429   3.041   6.384  0.9829 -1.0022  0.1909
   33CHL1    C8 2382   2.427   3.245   6.321  0.4264  0.3326 -0.5052
   33CHL1    H8 2383   2.505   3.324   6.319  0.7683  0.0681  0.8499
   33CHL1   C14 2384   2.408   3.187   6.178 -0.2306  0.1308  0.3893
   33CHL1   H14 2385   2.340   3.102   6.199  0.4983 -0.1020  1.9279
   33CHL1   C15 2386   2.532   3.125   6.108 -0.6598  0.6806  0.2360
   33CHL1  H15A 2387   2.610   3.204   6.113 -1.0056  0.9735  1.0248
   33CHL1  H15B 2388   2.567   3.028   6.151 -0.1212  1.0462  0.6359
   33CHL1   C16 2389   2.490   3.118   5.961 -0.2844  0.7695  0.2249
   33CHL1  H16A 2390   2.565   3.158   5.890 -0.2264 -0.7930 -0.6277
   33CHL1  H16B 2391   2.452   3.016   5.941 -0.7303  0.7803  0.9485
   33CHL1   C17 2392   2.370   3.210   5.941  0.3875 -0.5246  0.1640
   33CHL1   H17 2393   2.286   3.138   5.946  0.0384 -0.0891  0.7859
   33CHL1   C13 2394   2.360   3.286   6.072 -0.3987  0.1242  0.2585
   33CHL1   C18 2395   2.453   3.413   6.069 -1.2472  0.4760  0.7776
   33CHL1  H18A 2396   2.409   3.500   6.016  0.3018  0.4084 -0.6923
   33CHL1  H18B 2397   2.497   3.454   6.162  1.7281  0.5204 -0.5490
   33CHL1  H18C 2398   2.541   3.383   6.010 -1.9031  0.4136 -0.1935
   33CHL1   C12 2399   2.221   3.333   6.119  0.1193  0.0468 -0.1410
   33CHL1  H12A 2400   2.192   3.418   6.053  4.3639  1.1965 -0.8115
   33CHL1  H12B 2401   2.143   3.255   6.111 -1.7202  1.6260  1.3826
   33CHL1   C11 2402   2.221   3.384   6.263 -0.0623 -0.7999 -0.3297
   33CHL1  H11A 2403   2.265   3.486   6.264  0.0515 -0.8443 -0.7874
   33CHL1  H11B 2404   2.116   3.386   6.301  0.4432 -0.5500  1.1146
   33CHL1    C9 2405   2.289   3.292   6.372 -0.5395 -0.3277 -0.4960
   33CHL1    H9 2406   2.223   3.202   6.373  0.0053 -0.7381 -0.8744
   33CHL1   C10 2407   2.297   3.344   6.519 -0.2393  0.2078 -0.5973
   33CHL1   C19 2408   2.341   3.488   6.523 -0.2255  0.2504  0.3537
   33CHL1  H19A 2409   2.327   3.534   6.624 -0.4553  0.4978  0.2106
   33CHL1  H19B 2410   2.448   3.496   6.495 -0.8026  1.1618 -1.7340
   33CHL1  H19C 2411   2.291   3.550   6.446 -0.6297 -0.9206 -0.3503
   33CHL1    C1 2412   2.152   3.326   6.580  0.8404  0.1105  0.2290
   33CHL1   H1A 2413   2.089   3.396   6.521  1.9961  1.3604  0.4134
   33CHL1   H1B 2414   2.120   3.220   6.569  0.9358  0.2335 -1.5354
   33CHL1    C2 2415   2.138   3.369   6.731  0.1266  0.1170 -0.1382
   33CHL1   H2A 2416   2.032   3.368   6.763  0.7539  0.1384  2.1354
   33CHL1   H2B 2417   2.169   3.471   6.764 -1.0859  0.5174 -0.1930
   33CHL1   C20 2418   2.371   3.282   5.805 -0.2539  0.3902  0.2608
   33CHL1   H20 2419   2.460   3.349   5.812  1.4808 -1.5375 -1.9977
   33CHL1   C21 2420   2.238   3.340   5.763  0.4547  0.0814  0.0478
   33CHL1  H21A 2421   2.231   3.374   5.658 -0.8477 -1.8650 -0.5505
   33CHL1  H21B 2422   2.197   3.417   5.832 -0.6237 -0.3252 -0.1203
   33CHL1  H21C 2423   2.157   3.264   5.775  0.7434 -0.1901  0.2926
   33CHL1   C22 2424   2.407   3.183   5.684 -0.0895  0.2002 -0.0233
   33CHL1  H22A 2425   2.493   3.115   5.697 -0.1358  0.2884  0.7872
   33CHL1  H22B 2426   2.321   3.115   5.665 -1.0890  1.4884 -0.2451
   33CHL1   C23 2427   2.439   3.248   5.551  0.1708  0.3785 -0.1366
   33CHL1  H23A 2428   2.349   3.296   5.507 -0.0158  0.7550  0.6443
   33CHL1  H23B 2429   2.522   3.321   5.566  0.7094  0.0598 -1.4020
   33CHL1   C24 2430   2.482   3.161   5.432 -0.0654 -0.1680  0.4961
   33CHL1  H24A 2431   2.572   3.102   5.458  1.4738  1.4013 -0.9461
   33CHL1  H24B 2432   2.410   3.079   5.414 -1.0164  0.6803  0.3170
   33CHL1   C25 2433   2.512   3.228   5.297 -0.0114 -0.4985  0.5102
   33CHL1   H25 2434   2.586   3.309   5.315  1.0195 -1.5599  1.2390
   33CHL1   C26 2435   2.575   3.135   5.196 -0.0868  0.4705  0.5594
   33CHL1  H26A 2436   2.665   3.086   5.240 -2.1117 -0.8515  3.5349
   33CHL1  H26B 2437   2.502   3.061   5.157 -0.7422  0.4010  1.8760
   33CHL1  H26C 2438   2.608   3.182   5.100 -0.7888 -1.3191 -0.6173
   33CHL1   C27 2439   2.388   3.291   5.238  0.3376 -0.6505 -0.3830
   33CHL1  H27A 2440   2.301   3.221   5.238 -1.8205  1.8675  1.2287
   33CHL1  H27B 2441   2.366   3.374   5.308 -1.1991 -2.1569  1.0508
   33CHL1  H27C 2442   2.404   3.331   5.136 -1.3303  0.8339 -0.1078
   34CHL1    C3 2443   0.812   3.466   3.228  0.1418  0.0535 -0.7314
   34CHL1    H3 2444   0.713   3.416   3.239  0.5184 -0.8129 -1.1346
   34CHL1    O3 2445   0.836   3.484   3.086 -0.1467  0.3243 -0.4976
   34CHL1   H3' 2446   0.930   3.500   3.080 -0.2915  0.7061 -1.9695
   34CHL1    C4 2447   0.806   3.602   3.291 -0.5511  0.6854 -0.1445
   34CHL1   H4A 2448   0.901   3.653   3.261 -0.3459 -0.3896 -1.4521
   34CHL1   H4B 2449   0.725   3.664   3.247 -0.7922  2.1395  2.1987
   34CHL1    C5 2450   0.800   3.585   3.443  0.0180 -0.0912  0.0838
   34CHL1    C6 2451   0.704   3.659   3.509 -0.3437  0.1999 -0.7248
   34CHL1    H6 2452   0.633   3.721   3.451  1.2670  2.6963 -0.2091
   34CHL1    C7 2453   0.691   3.645   3.663 -0.5886  0.9875 -0.0313
   34CHL1   H7A 2454   0.662   3.746   3.699 -2.0605  1.1099 -1.4519
   34CHL1   H7B 2455   0.609   3.574   3.690  0.6355 -0.6095 -0.3414
   34CHL1    C8 2456   0.814   3.597   3.731 -0.4078  0.2997  0.3999
   34CHL1    H8 2457   0.888   3.679   3.722  1.2874 -1.2136  0.0533
   34CHL1   C14 2458   0.792   3.570   3.883 -0.0658 -0.4123  0.1745
   34CHL1   H14 2459   0.714   3.492   3.892  0.4575 -0.8686  0.9101
   34CHL1   C15 2460   0.738   3.694   3.962  0.8462 -0.2224 -0.8368
   34CHL1  H15A 2461   0.799   3.785   3.944  2.0780 -0.9176 -0.3138
   34CHL1  H15B 2462   0.632   3.718   3.940  1.2636  1.3183 -1.2828
   34CHL1   C16 2463   0.765   3.660   4.108 -0.1169 -0.2983  0.6310
   34CHL1  H16A 2464   0.812   3.748   4.156  0.1549  0.0199 -0.2006
   34CHL1  H16B 2465   0.668   3.655   4.161 -0.1878  0.4897  0.5798
   34CHL1   C17 2466   0.852   3.526   4.098 -0.5763  0.3252 -0.5058
   34CHL1   H17 2467   0.781   3.441   4.100  0.7186 -0.8134 -1.0933
   34CHL1   C13 2468   0.906   3.519   3.959 -0.3502  0.5848  1.0922
   34CHL1   C18 2469   1.022   3.624   3.950  0.6896 -0.2923 -1.0664
   34CHL1  H18A 2470   1.001   3.715   4.010 -0.7249 -0.1017 -1.8138
   34CHL1  H18B 2471   1.118   3.579   3.982 -0.9563 -0.6933  4.4985
   34CHL1  H18C 2472   1.055   3.662   3.851 -0.3583  0.0826 -1.2865
   34CHL1   C12 2473   0.937   3.380   3.895 -0.1978  0.3246 -0.1170
   34CHL1  H12A 2474   1.019   3.320   3.941  0.4083  3.1911  2.9534
   34CHL1  H12B 2475   0.839   3.327   3.900  0.0473 -0.0705  0.9386
   34CHL1   C11 2476   0.972   3.396   3.743 -0.0263 -0.5322 -0.2852
   34CHL1  H11A 2477   1.069   3.450   3.746 -0.4162  0.3071 -1.8077
   34CHL1  H11B 2478   0.993   3.297   3.697 -0.2376 -0.6674 -0.0980
   34CHL1    C9 2479   0.868   3.466   3.663  0.9462 -0.5514  0.7403
   34CHL1    H9 2480   0.775   3.406   3.655  0.0082  1.0109 -1.0775
   34CHL1   C10 2481   0.900   3.496   3.514 -0.7890  0.6779 -0.5570
   34CHL1   C19 2482   1.041   3.548   3.501 -0.6981  0.5120 -0.2419
   34CHL1  H19A 2483   1.080   3.566   3.399  0.3419 -0.7187 -0.0990
   34CHL1  H19B 2484   1.050   3.640   3.562  2.5160  0.6648 -0.7837
   34CHL1  H19C 2485   1.112   3.467   3.530 -0.0320 -0.0861 -3.2416
   34CHL1    C1 2486   0.898   3.355   3.441  0.1802 -0.3466 -0.4287
   34CHL1   H1A 2487   0.978   3.287   3.477  2.2177  1.6909 -0.8641
   34CHL1   H1B 2488   0.801   3.303   3.456 -0.4785  0.9594  0.0440
   34CHL1    C2 2489   0.918   3.375   3.290 -0.2741  0.5288  0.2558
   34CHL1   H2A 2490   0.903   3.274   3.247  0.5410  0.4199  0.2134
   34CHL1   H2B 2491   1.020   3.409   3.262 -0.8999  1.4017 -1.0801
   34CHL1   C20 2492   0.950   3.501   4.217  1.1731  0.0545 -0.3956
   34CHL1   H20 2493   1.020   3.586   4.233 -0.7533  1.1583  3.3280
   34CHL1   C21 2494   1.035   3.377   4.190  0.0866 -0.1011 -0.7285
   34CHL1  H21A 2495   1.079   3.320   4.275  0.0276 -0.5829 -1.0163
   34CHL1  H21B 2496   1.114   3.397   4.114  1.6155  1.5587  1.1992
   34CHL1  H21C 2497   0.971   3.304   4.137  1.2352 -3.0318  1.6536
   34CHL1   C22 2498   0.879   3.489   4.356  0.0678 -0.5717  0.2285
   34CHL1  H22A 2499   0.809   3.573   4.373 -0.5575 -0.8655 -0.8097
   34CHL1  H22B 2500   0.823   3.394   4.373 -2.4748  0.3790 -2.1311
   34CHL1   C23 2501   0.988   3.504   4.470 -0.1776  0.4759 -0.6432
   34CHL1  H23A 2502   1.055   3.416   4.471  0.5002  0.9810  0.2360
   34CHL1  H23B 2503   1.046   3.591   4.433  1.9197 -2.1112 -3.9266
   34CHL1   C24 2504   0.939   3.520   4.617  0.0276 -0.2663 -0.3532
   34CHL1  H24A 2505   0.936   3.628   4.640 -0.9061 -0.5177  0.8320
   34CHL1  H24B 2506   0.832   3.489   4.616  0.2587 -1.1601  0.4587
   34CHL1   C25 2507   1.024   3.444   4.721  0.5229  0.7802  0.2580
   34CHL1   H25 2508   1.050   3.348   4.673 -0.6982  0.3427  0.4268
   34CHL1   C26 2509   1.150   3.529   4.744 -0.6429 -0.0994 -0.0789
   34CHL1  H26A 2510   1.209   3.469   4.818 -0.8907  1.4341  1.4259
   34CHL1  H26B 2511   1.204   3.552   4.650 -1.0633 -1.5976 -0.7149
   34CHL1  H26C 2512   1.120   3.621   4.799 -0.7562 -0.1061 -0.1315
   34CHL1   C27 2513   0.949   3.420   4.856  0.4658  0.4468 -0.2053
   34CHL1  H27A 2514   0.863   3.353   4.837 -0.0110  0.4749  1.6445
   34CHL1  H27B 2515   1.022   3.374   4.925  1.7490  0.0187 -1.7838
   34CHL1  H27C 2516   0.912   3.511   4.909  1.1270  0.5993  0.0039
   35CHL1    C3 2517   3.128   3.430   3.231 -0.6374 -0.3357 -0.6316
   35CHL1    H3 2518   3.037   3.435   3.294 -0.5769  1.2429 -0.6314
   35CHL1    O3 2519   3.086   3.460   3.099 -0.3233 -0.0495  0.6555
   35CHL1   H3' 2520   3.040   3.544   3.105  2.2386  1.4145  1.1615
   35CHL1    C4 2521   3.221   3.545   3.287  0.0787 -0.5483  0.4822
   35CHL1   H4A 2522   3.314   3.568   3.230  0.0689 -1.0643  0.2555
   35CHL1   H4B 2523   3.158   3.635   3.270 -0.6334 -0.7830  1.7836
   35CHL1    C5 2524   3.263   3.502   3.430 -0.0148  0.3760  0.1457
   35CHL1    C6 2525   3.238   3.585   3.534  0.0987  0.2470  0.1036
   35CHL1    H6 2526   3.181   3.676   3.512 -1.8704 -0.7704  0.7134
   35CHL1    C7 2527   3.273   3.562   3.678 -0.1183 -0.8226  0.5334
   35CHL1   H7A 2528   3.325   3.650   3.721 -1.2739 -0.1432  0.5930
   35CHL1   H7B 2529   3.180   3.544   3.737 -0.2868 -2.5471 -0.1877
   35CHL1    C8 2530   3.352   3.431   3.688 -0.0831 -0.3656 -0.4330
   35CHL1    H8 2531   3.459   3.450   3.669  0.6916 -3.5088  0.1771
   35CHL1   C14 2532   3.331   3.368   3.828  0.2976  0.5508  0.3060
   35CHL1   H14 2533   3.225   3.334   3.831  0.0453  1.2338 -0.4683
   35CHL1   C15 2534   3.342   3.464   3.945  0.0150 -0.3162  0.3509
   35CHL1  H15A 2535   3.428   3.533   3.932  1.5914 -1.5558  3.1839
   35CHL1  H15B 2536   3.254   3.525   3.972  0.1330  0.5396 -1.1276
   35CHL1   C16 2537   3.389   3.375   4.067 -0.5020  0.3507 -0.0983
   35CHL1  H16A 2538   3.488   3.411   4.103 -1.5220  1.0561  2.1712
   35CHL1  H16B 2539   3.315   3.364   4.149  1.0908  1.6766  1.6170
   35CHL1   C17 2540   3.398   3.225   4.012 -0.3605  0.8788  0.3121
   35CHL1   H17 2541   3.299   3.174   4.008 -0.0716  0.3678 -0.3232
   35CHL1   C13 2542   3.425   3.250   3.854 -0.1749 -0.6587 -0.1513
   35CHL1   C18 2543   3.575   3.290   3.833  0.7206 -0.3880  0.3556
   35CHL1  H18A 2544   3.616   3.361   3.908  2.3623 -1.7187  0.7906
   35CHL1  H18B 2545   3.640   3.200   3.830  2.1278  0.6166 -2.6035
   35CHL1  H18C 2546   3.593   3.326   3.730 -0.6658 -0.5606  0.0352
   35CHL1   C12 2547   3.387   3.140   3.758  0.8523 -0.6498 -0.0795
   35CHL1  H12A 2548   3.453   3.051   3.761  0.6539 -0.8442 -1.2701
   35CHL1  H12B 2549   3.280   3.119   3.781  0.5140  1.4807  0.5082
   35CHL1   C11 2550   3.402   3.187   3.612 -0.4131  0.6025  0.1840
   35CHL1  H11A 2551   3.509   3.209   3.588 -0.7178  1.0651 -0.8481
   35CHL1  H11B 2552   3.364   3.103   3.550  0.3937  0.4774 -0.1586
   35CHL1    C9 2553   3.324   3.317   3.586 -0.1848 -0.0646 -0.3919
   35CHL1    H9 2554   3.219   3.288   3.609  0.8632 -1.7523  3.0114
   35CHL1   C10 2555   3.321   3.357   3.440 -0.0960 -0.3564  0.8334
   35CHL1   C19 2556   3.470   3.366   3.385 -0.3581  0.1493  0.1682
   35CHL1  H19A 2557   3.517   3.266   3.383 -2.6037 -1.0366 -3.5166
   35CHL1  H19B 2558   3.457   3.394   3.278  2.2665 -0.8880 -0.4995
   35CHL1  H19C 2559   3.530   3.441   3.440  2.0035 -0.2773 -1.6769
   35CHL1    C1 2560   3.240   3.254   3.362  0.3877  0.1242 -0.2528
   35CHL1   H1A 2561   3.297   3.159   3.367  2.8957  1.5695  0.1993
   35CHL1   H1B 2562   3.150   3.235   3.423  2.1313  0.1622  2.5012
   35CHL1    C2 2563   3.190   3.295   3.225 -0.7451  0.4255 -0.2177
   35CHL1   H2A 2564   3.108   3.223   3.204 -0.0372 -0.7535  0.9002
   35CHL1   H2B 2565   3.271   3.292   3.149 -1.3628 -0.2712 -0.8620
   35CHL1   C20 2566   3.503   3.144   4.086 -0.5967  0.4660 -0.2002
   35CHL1   H20 2567   3.604   3.189   4.072 -0.8103  0.4568 -2.0575
   35CHL1   C21 2568   3.528   3.007   4.025 -0.1550  0.3755 -0.2552
   35CHL1  H21A 2569   3.440   2.941   4.030  0.6866 -0.6828  1.9973
   35CHL1  H21B 2570   3.615   2.951   4.067  1.8392  2.1349 -1.7657
   35CHL1  H21C 2571   3.565   3.006   3.920  1.2274 -0.7715  0.1980
   35CHL1   C22 2572   3.476   3.139   4.239 -0.0174 -0.2814 -0.3591
   35CHL1  H22A 2573   3.559   3.077   4.279 -0.9911 -1.2452  0.2352
   35CHL1  H22B 2574   3.475   3.234   4.297 -1.9363 -0.0657 -0.6861
   35CHL1   C23 2575   3.342   3.076   4.280 -0.0832  0.3434  0.1611
   35CHL1  H23A 2576   3.273   3.157   4.249  0.4459  0.8235  0.2231
   35CHL1  H23B 2577   3.316   2.994   4.210  1.6153 -0.3094  0.2464
   35CHL1   C24 2578   3.323   3.035   4.428 -0.0474  0.2064 -0.2753
   35CHL1  H24A 2579   3.325   3.122   4.497 -2.8774 -0.3375  0.6281
   35CHL1  H24B 2580   3.225   2.985   4.439  0.0233  0.5824  2.6612
   35CHL1   C25 2581   3.417   2.928   4.486  0.0056  0.2989 -0.5212
   35CHL1   H25 2582   3.520   2.970   4.484 -0.3368  1.1450 -2.0276
   35CHL1   C26 2583   3.378   2.899   4.631  0.2500  0.2908  0.1550
   35CHL1  H26A 2584   3.440   2.812   4.662  1.9462  0.7526 -1.8057
   35CHL1  H26B 2585   3.400   2.984   4.699  1.2754  0.5277 -0.4612
   35CHL1  H26C 2586   3.271   2.870   4.638  0.7924 -1.7236  1.0806
   35CHL1   C27 2587   3.417   2.801   4.404 -0.1944  0.5366 -0.8921
   35CHL1  H27A 2588   3.316   2.753   4.406  0.5578 -1.0618  0.0327
   35CHL1  H27B 2589   3.427   2.833   4.298  0.7687  1.6913 -0.4768
   35CHL1  H27C 2590   3.486   2.720   4.435 -0.4367  0.3310 -0.8873
   36CHL1    C3 2591   4.649   2.127   3.456 -0.7918 -0.1174 -0.7089
   36CHL1    H3 2592   4.594   2.034   3.430 -1.1024 -0.0038 -0.4739
   36CHL1    O3 2593   4.681   2.190   3.332  0.5864  0.4607  0.0271
   36CHL1   H3' 2594   4.607   2.251   3.320  0.0682 -0.2654 -0.5693
   36CHL1    C4 2595   4.558   2.218   3.533  0.2765  1.2184 -0.7690
   36CHL1   H4A 2596   4.599   2.321   3.536  0.1360  1.2832 -0.9897
   36CHL1   H4B 2597   4.464   2.229   3.475 -1.5356 -0.5066  1.6557
   36CHL1    C5 2598   4.523   2.176   3.678 -0.0730  0.0482 -0.5728
   36CHL1    C6 2599   4.396   2.162   3.712 -0.2541  0.3153 -0.3648
   36CHL1    H6 2600   4.313   2.183   3.643 -0.1629  0.6645 -0.3719
   36CHL1    C7 2601   4.355   2.137   3.856 -0.2739  1.1939 -0.1327
   36CHL1   H7A 2602   4.304   2.225   3.900  2.0085  2.4727  0.1332
   36CHL1   H7B 2603   4.282   2.054   3.860  0.8985  0.0114 -1.6189
   36CHL1    C8 2604   4.470   2.122   3.953 -0.3493 -0.3927 -0.2469
   36CHL1    H8 2605   4.496   2.225   3.986 -0.9334 -0.8772  1.9244
   36CHL1   C14 2606   4.426   2.054   4.078  0.6930 -0.1964 -0.1843
   36CHL1   H14 2607   4.420   1.944   4.066  0.2968 -0.2096  0.1142
   36CHL1   C15 2608   4.284   2.085   4.141 -0.7599  0.6500  0.4935
   36CHL1  H15A 2609   4.237   2.185   4.125 -2.9423  0.1113  2.8622
   36CHL1  H15B 2610   4.208   2.019   4.093  1.1431 -0.5403 -1.0382
   36CHL1   C16 2611   4.301   2.049   4.286 -0.2531  0.4338  0.0934
   36CHL1  H16A 2612   4.291   2.138   4.352 -0.0163 -0.2322  1.0402
   36CHL1  H16B 2613   4.223   1.975   4.313 -0.4915  0.3768 -0.7209
   36CHL1   C17 2614   4.440   1.995   4.304  0.1093  0.0856 -0.1725
   36CHL1   H17 2615   4.428   1.890   4.272 -0.2215  1.0395 -3.5507
   36CHL1   C13 2616   4.530   2.059   4.192  0.2149 -0.1511  0.0131
   36CHL1   C18 2617   4.574   2.200   4.233  0.3956 -0.0763 -0.3762
   36CHL1  H18A 2618   4.502   2.239   4.308 -0.2731 -1.0920 -0.4696
   36CHL1  H18B 2619   4.677   2.200   4.275  0.7731  1.9298 -1.2147
   36CHL1  H18C 2620   4.571   2.272   4.149 -2.2207 -0.7242 -0.9327
   36CHL1   C12 2621   4.656   1.986   4.146  0.7505 -0.1725  0.0062
   36CHL1  H12A 2622   4.736   1.978   4.223 -1.4610  3.4974  3.0019
   36CHL1  H12B 2623   4.633   1.880   4.121  0.4993 -0.4327  1.2748
   36CHL1   C11 2624   4.717   2.051   4.015  0.7619 -0.1677  0.2315
   36CHL1  H11A 2625   4.752   2.154   4.037  0.1900  0.0467  0.1568
   36CHL1  H11B 2626   4.797   1.987   3.972  2.5778  2.5624 -0.6769
   36CHL1    C9 2627   4.600   2.066   3.905 -0.4178  0.0836  0.0952
   36CHL1    H9 2628   4.588   1.958   3.883 -1.5774 -0.3219  2.5061
   36CHL1   C10 2629   4.647   2.141   3.775  0.0374 -0.4410 -0.1527
   36CHL1   C19 2630   4.708   2.280   3.812  0.8403 -0.8492 -0.0976
   36CHL1  H19A 2631   4.808   2.267   3.859  1.8168  0.5850 -1.6555
   36CHL1  H19B 2632   4.720   2.351   3.728 -1.7815  0.7620  0.7640
   36CHL1  H19C 2633   4.638   2.342   3.871 -0.8744 -1.7071 -1.1576
   36CHL1    C1 2634   4.744   2.048   3.686  0.2898 -0.8463  0.4614
   36CHL1   H1A 2635   4.842   2.053   3.737  0.4615  1.7259  0.0336
   36CHL1   H1B 2636   4.706   1.944   3.681  4.1932 -2.4372  0.4777
   36CHL1    C2 2637   4.776   2.102   3.542  0.4711 -0.2576  0.0617
   36CHL1   H2A 2638   4.839   2.029   3.486 -1.7736 -2.4397  0.2239
   36CHL1   H2B 2639   4.820   2.204   3.546 -1.1713  0.4508  1.1485
   36CHL1   C20 2640   4.479   1.988   4.454  0.0824  0.3976  0.1028
   36CHL1   H20 2641   4.459   2.086   4.502 -2.2371  1.2694 -2.3653
   36CHL1   C21 2642   4.628   1.945   4.471 -0.6377 -0.3216 -0.1910
   36CHL1  H21A 2643   4.687   2.028   4.427  0.1937 -1.3393 -1.0251
   36CHL1  H21B 2644   4.661   1.856   4.413 -0.0569 -0.9776  1.0945
   36CHL1  H21C 2645   4.649   1.920   4.578  0.1486  0.5978 -0.1182
   36CHL1   C22 2646   4.389   1.887   4.538  0.0088  0.3433 -0.2854
   36CHL1  H22A 2647   4.284   1.906   4.506  0.1665  0.4876 -0.7240
   36CHL1  H22B 2648   4.421   1.786   4.506 -1.9105 -0.3372 -0.2106
   36CHL1   C23 2649   4.390   1.903   4.696 -0.5209  0.2423 -0.0369
   36CHL1  H23A 2650   4.489   1.893   4.744 -1.2865 -1.9159  1.2289
   36CHL1  H23B 2651   4.347   1.996   4.739 -1.8935 -0.9123  1.2304
   36CHL1   C24 2652   4.301   1.796   4.755 -0.6430  0.3108 -0.8691
   36CHL1  H24A 2653   4.210   1.804   4.692 -1.6735  1.4982  0.6948
   36CHL1  H24B 2654   4.341   1.693   4.748 -2.5983 -0.4778 -0.8042
   36CHL1   C25 2655   4.282   1.810   4.906  0.2682  0.5510  0.1371
   36CHL1   H25 2656   4.238   1.908   4.936  1.5700  1.6164 -1.2908
   36CHL1   C26 2657   4.182   1.706   4.951 -0.1757  0.3378 -0.2480
   36CHL1  H26A 2658   4.086   1.709   4.897 -0.4148 -0.3913  0.1105
   36CHL1  H26B 2659   4.225   1.603   4.942 -0.5847 -0.3178  3.5261
   36CHL1  H26C 2660   4.156   1.717   5.059  0.4060 -0.9158  0.0459
   36CHL1   C27 2661   4.409   1.783   4.990  0.3763 -0.0802 -0.4243
   36CHL1  H27A 2662   4.393   1.803   5.098 -0.2741  0.3253 -0.5921
   36CHL1  H27B 2663   4.450   1.682   4.969  1.5372  0.6104 -1.6381
   36CHL1  H27C 2664   4.492   1.844   4.948  1.2700 -1.4053 -0.6596
   37CHL1    C3 2665   2.244   1.725   3.359 -0.0488  0.3745 -0.4605
   37CHL1    H3 2666   2.224   1.616   3.350 -1.0699  0.4845  0.3394
   37CHL1    O3 2667   2.234   1.796   3.233 -0.1660 -0.1009  0.2585
   37CHL1   H3' 2668   2.164   1.752   3.184  0.1773 -1.3016  0.8159
   37CHL1    C4 2669   2.133   1.771   3.456 -0.2610  0.6794  0.5825
   37CHL1   H4A 2670   2.150   1.880   3.440  1.6880  0.2070 -0.9170
   37CHL1   H4B 2671   2.033   1.744   3.416  0.2879  1.1726 -1.2070
   37CHL1    C5 2672   2.154   1.738   3.598  0.5550  0.1739  0.0621
   37CHL1    C6 2673   2.053   1.679   3.662 -0.1742  0.2898 -0.5517
   37CHL1    H6 2674   1.952   1.663   3.620 -1.2457  0.7177  1.7014
   37CHL1    C7 2675   2.049   1.653   3.806  0.4592  0.6868 -0.6707
   37CHL1   H7A 2676   1.955   1.703   3.838 -0.4797 -0.5807 -1.3427
   37CHL1   H7B 2677   2.049   1.544   3.827  0.4183  0.4446 -1.8532
   37CHL1    C8 2678   2.174   1.710   3.887  0.2455  0.1523  0.2568
   37CHL1    H8 2679   2.150   1.818   3.900 -2.6664 -0.5586  1.5319
   37CHL1   C14 2680   2.198   1.640   4.023 -0.2124 -0.7178 -0.0712
   37CHL1   H14 2681   2.219   1.536   3.990 -0.9024 -0.6501 -0.7530
   37CHL1   C15 2682   2.088   1.612   4.127 -0.0666  0.1348 -0.0771
   37CHL1  H15A 2683   2.028   1.704   4.147 -0.8009 -0.4881  0.6817
   37CHL1  H15B 2684   2.024   1.523   4.110 -1.4955  0.9087  1.0009
   37CHL1   C16 2685   2.166   1.582   4.253  0.7597 -0.0437 -1.0741
   37CHL1  H16A 2686   2.143   1.650   4.337 -0.1816 -0.6920 -0.7906
   37CHL1  H16B 2687   2.147   1.480   4.293 -0.3323  0.6221  0.1949
   37CHL1   C17 2688   2.319   1.597   4.220  0.2163  0.3802 -0.4641
   37CHL1   H17 2689   2.357   1.499   4.186  0.6689  0.1960  0.5259
   37CHL1   C13 2690   2.325   1.686   4.100 -0.0986  0.2393  0.1215
   37CHL1   C18 2691   2.302   1.835   4.140 -0.6450  0.0253  0.2601
   37CHL1  H18A 2692   2.219   1.836   4.213 -1.0280  0.1986 -0.1768
   37CHL1  H18B 2693   2.395   1.891   4.165  1.2104 -1.6874 -2.2940
   37CHL1  H18C 2694   2.273   1.892   4.050 -1.1985  0.2155  0.5550
   37CHL1   C12 2695   2.449   1.665   4.004  0.2411 -0.2223  0.1706
   37CHL1  H12A 2696   2.545   1.698   4.047  1.2647 -0.7416 -1.5901
   37CHL1  H12B 2697   2.463   1.558   3.974 -2.2166 -1.4965  3.0445
   37CHL1   C11 2698   2.432   1.745   3.868 -0.2779 -0.1322 -0.7049
   37CHL1  H11A 2699   2.428   1.853   3.894 -0.5888  0.7103 -3.9088
   37CHL1  H11B 2700   2.523   1.732   3.806 -0.1116  1.7828 -0.9116
   37CHL1    C9 2701   2.308   1.697   3.797 -0.2288  0.1734 -0.2416
   37CHL1    H9 2702   2.321   1.588   3.779 -1.5075  0.2520 -1.9700
   37CHL1   C10 2703   2.289   1.769   3.664 -0.5960  0.7865 -0.4281
   37CHL1   C19 2704   2.311   1.921   3.676 -0.3250 -0.0749 -0.1534
   37CHL1  H19A 2705   2.239   1.971   3.744 -0.0566 -0.9368  0.7844
   37CHL1  H19B 2706   2.418   1.941   3.700 -0.2164 -1.4145  0.5716
   37CHL1  H19C 2707   2.292   1.962   3.574  0.1385 -0.4963 -0.4150
   37CHL1    C1 2708   2.403   1.714   3.558 -0.8076 -0.7326 -0.4834
   37CHL1   H1A 2709   2.503   1.744   3.595 -1.1818  1.5281 -1.1546
   37CHL1   H1B 2710   2.400   1.603   3.551 -0.1463 -0.9426  1.6910
   37CHL1    C2 2711   2.389   1.750   3.405  0.0632  0.0900  0.0270
   37CHL1   H2A 2712   2.461   1.696   3.340 -0.7407  1.4168 -2.0613
   37CHL1   H2B 2713   2.412   1.855   3.376  1.0517 -0.3466 -0.8295
   37CHL1   C20 2714   2.408   1.632   4.339  0.1455  0.2624  0.2295
   37CHL1   H20 2715   2.373   1.728   4.382 -1.4227 -0.6457  1.0624
   37CHL1   C21 2716   2.556   1.661   4.311 -0.4398  0.1777 -0.3540
   37CHL1  H21A 2717   2.603   1.698   4.404  1.5308 -0.2340 -1.1453
   37CHL1  H21B 2718   2.583   1.742   4.239 -0.2636 -0.5158 -1.0790
   37CHL1  H21C 2719   2.600   1.562   4.288  0.2371  0.5531 -0.7002
   37CHL1   C22 2720   2.407   1.521   4.447 -0.0852 -0.1793 -0.2414
   37CHL1  H22A 2721   2.306   1.495   4.485 -0.1830  0.3618 -0.1120
   37CHL1  H22B 2722   2.446   1.427   4.404 -1.6324  0.3429 -2.9882
   37CHL1   C23 2723   2.488   1.547   4.578  0.0416 -0.2492 -0.4124
   37CHL1  H23A 2724   2.475   1.464   4.650 -0.4866 -0.1535 -0.3898
   37CHL1  H23B 2725   2.598   1.552   4.569  0.1401  0.3614  0.9322
   37CHL1   C24 2726   2.438   1.664   4.661 -0.3270 -0.2427 -0.0955
   37CHL1  H24A 2727   2.464   1.748   4.593 -1.7658  0.4900  0.2194
   37CHL1  H24B 2728   2.328   1.665   4.680 -0.1811  2.1248  0.9584
   37CHL1   C25 2729   2.492   1.677   4.805  0.4161 -0.1825 -0.3717
   37CHL1   H25 2730   2.601   1.657   4.798  0.2329 -2.4448  1.7868
   37CHL1   C26 2731   2.468   1.822   4.859 -0.2680  0.0482 -0.0649
   37CHL1  H26A 2732   2.495   1.830   4.967  0.5357 -0.4576 -0.2203
   37CHL1  H26B 2733   2.521   1.896   4.796  1.0395 -0.9621 -0.2003
   37CHL1  H26C 2734   2.361   1.851   4.855  0.0310  1.1921 -0.0508
   37CHL1   C27 2735   2.439   1.569   4.897 -0.4451 -0.3876 -0.1147
   37CHL1  H27A 2736   2.328   1.578   4.895 -0.3609  0.6980 -0.4904
   37CHL1  H27B 2737   2.477   1.473   4.857 -1.6497 -2.1036  2.5585
   37CHL1  H27C 2738   2.468   1.588   5.003 -1.5739  2.6365 -0.2429
   38CHL1    C3 2739   5.659   1.632   3.176 -0.2083  0.5220  0.0495
   38CHL1    H3 2740   5.769   1.626   3.194 -0.1555 -1.8155 -0.8301
   38CHL1    O3 2741   5.640   1.672   3.044  0.6345 -0.1526 -0.4387
   38CHL1   H3' 2742   5.544   1.667   3.036  0.5898 -0.8157  0.3047
   38CHL1    C4 2743   5.590   1.500   3.209  0.3941 -0.7926  1.1297
   38CHL1   H4A 2744   5.487   1.521   3.173  1.2300 -0.3906 -1.1604
   38CHL1   H4B 2745   5.616   1.428   3.128 -1.8643 -1.9312  1.3111
   38CHL1    C5 2746   5.593   1.458   3.352 -0.2808 -0.0100 -0.0708
   38CHL1    C6 2747   5.645   1.333   3.383  0.2296 -0.0926  0.2099
   38CHL1    H6 2748   5.679   1.274   3.298 -0.3622  1.7605 -1.3972
   38CHL1    C7 2749   5.653   1.283   3.524 -0.2374  0.2712  0.3290
   38CHL1   H7A 2750   5.610   1.181   3.538 -0.7896  0.3858 -0.4384
   38CHL1   H7B 2751   5.758   1.266   3.555 -0.3005  0.6311  0.7352
   38CHL1    C8 2752   5.579   1.377   3.630  0.1282  0.0356  0.1649
   38CHL1    H8 2753   5.469   1.359   3.628 -0.1785  1.5804  1.1657
   38CHL1   C14 2754   5.637   1.351   3.766  1.3148 -0.3115 -0.7914
   38CHL1   H14 2755   5.741   1.386   3.751  1.5442 -0.7988 -0.3703
   38CHL1   C15 2756   5.643   1.210   3.812  0.2645  0.8322 -0.5547
   38CHL1  H15A 2757   5.551   1.153   3.787  1.0450  0.2949 -2.3792
   38CHL1  H15B 2758   5.731   1.161   3.766 -0.5295 -1.6253  0.3723
   38CHL1   C16 2759   5.658   1.222   3.968  0.3487  0.2558  0.1220
   38CHL1  H16A 2760   5.591   1.149   4.019 -0.4122  0.5489 -0.4241
   38CHL1  H16B 2761   5.756   1.184   4.004  0.6516 -1.1147 -1.9392
   38CHL1   C17 2762   5.638   1.371   4.000 -0.9662  0.0831  0.0908
   38CHL1   H17 2763   5.736   1.424   3.992 -1.2685  0.5149 -0.9686
   38CHL1   C13 2764   5.566   1.431   3.881  0.4325 -0.3360  0.0882
   38CHL1   C18 2765   5.414   1.391   3.884 -0.8178 -1.0821  0.2809
   38CHL1  H18A 2766   5.371   1.424   3.787  1.2633  3.1711  0.5794
   38CHL1  H18B 2767   5.395   1.286   3.915 -0.2191 -0.5034  2.7788
   38CHL1  H18C 2768   5.361   1.451   3.961  0.7993  1.1514 -0.2419
   38CHL1   C12 2769   5.582   1.580   3.852  0.2407  0.0724  0.3633
   38CHL1  H12A 2770   5.524   1.641   3.924 -2.3206  1.6620 -2.7891
   38CHL1  H12B 2771   5.687   1.608   3.875  0.4753 -1.2776  1.0582
   38CHL1   C11 2772   5.534   1.619   3.707 -0.0981 -0.0430 -0.1675
   38CHL1  H11A 2773   5.424   1.610   3.698  0.1644 -2.8093 -2.2553
   38CHL1  H11B 2774   5.565   1.722   3.679 -3.1378  0.6977 -1.1141
   38CHL1    C9 2775   5.594   1.525   3.592  0.3652  0.8901 -0.5362
   38CHL1    H9 2776   5.704   1.544   3.593  0.2272  1.7671 -1.1818
   38CHL1   C10 2777   5.549   1.567   3.450  0.5637  0.2138 -0.3072
   38CHL1   C19 2778   5.395   1.571   3.445 -0.2385 -0.5869 -0.3341
   38CHL1  H19A 2779   5.359   1.468   3.465 -2.7664  0.2648 -0.0700
   38CHL1  H19B 2780   5.352   1.644   3.517 -1.9397 -0.3539 -1.5119
   38CHL1  H19C 2781   5.356   1.604   3.346 -2.1118  0.1032  0.5808
   38CHL1    C1 2782   5.621   1.701   3.414  0.5852 -0.0719 -0.5047
   38CHL1   H1A 2783   5.583   1.784   3.479  0.9033 -0.6314  0.4192
   38CHL1   H1B 2784   5.727   1.688   3.445  0.8111  0.5604 -0.9969
   38CHL1    C2 2785   5.604   1.739   3.267  0.2435 -0.3799  0.1390
   38CHL1   H2A 2786   5.664   1.829   3.245 -1.0048  0.0492 -1.6595
   38CHL1   H2B 2787   5.497   1.748   3.242  0.4049 -1.6535 -1.1807
   38CHL1   C20 2788   5.563   1.375   4.133 -0.5936 -0.5700 -0.3026
   38CHL1   H20 2789   5.462   1.329   4.137 -0.4995 -0.9166 -1.5752
   38CHL1   C21 2790   5.545   1.527   4.169  1.1790 -0.4235 -0.4201
   38CHL1  H21A 2791   5.641   1.575   4.139  1.1248 -0.3057 -0.4092
   38CHL1  H21B 2792   5.528   1.547   4.277  2.7414 -1.3421  0.0285
   38CHL1  H21C 2793   5.460   1.586   4.128 -0.7570  0.4343  4.2079
   38CHL1   C22 2794   5.650   1.305   4.243  0.1546 -0.3366  0.3168
   38CHL1  H22A 2795   5.673   1.204   4.204 -0.5557 -0.4295  0.1243
   38CHL1  H22B 2796   5.750   1.354   4.254  1.7841 -2.9595 -1.7031
   38CHL1   C23 2797   5.584   1.283   4.379 -0.1599  0.1947 -0.4196
   38CHL1  H23A 2798   5.581   1.381   4.432 -0.0162  0.9933 -1.8521
   38CHL1  H23B 2799   5.482   1.246   4.354 -0.0606  0.0358 -0.5857
   38CHL1   C24 2800   5.640   1.175   4.469 -0.2152 -1.1311  0.6013
   38CHL1  H24A 2801   5.574   1.183   4.558 -0.1187  3.4023  0.5116
   38CHL1  H24B 2802   5.633   1.073   4.427 -0.5787 -1.5063  1.5567
   38CHL1   C25 2803   5.784   1.207   4.520 -0.2515  0.1247  0.0525
   38CHL1   H25 2804   5.849   1.220   4.431  0.4765 -1.7695  0.2560
   38CHL1   C26 2805   5.802   1.330   4.619 -0.8122  0.5618 -0.2702
   38CHL1  H26A 2806   5.910   1.349   4.640 -1.2038  3.6799 -0.5712
   38CHL1  H26B 2807   5.761   1.425   4.579 -2.0821  0.4473  0.6974
   38CHL1  H26C 2808   5.748   1.320   4.716  0.5258  3.0925  0.8426
   38CHL1   C27 2809   5.847   1.085   4.588  0.1354  0.0777  0.2828
   38CHL1  H27A 2810   5.954   1.105   4.610  0.1371 -1.1135  1.4510
   38CHL1  H27B 2811   5.819   1.067   4.694  1.8024 -0.5272  0.6568
   38CHL1  H27C 2812   5.831   0.995   4.526 -2.9510 -0.2786  1.4354
   39CHL1    C3 2813   6.683   2.739   3.352 -0.2285 -0.3187  0.3908
   39CHL1    H3 2814   6.773   2.789   3.393  0.2828 -2.5389  2.1394
   39CHL1    O3 2815   6.702   2.719   3.212 -0.4253 -0.4590 -0.3734
   39CHL1   H3' 2816   6.632   2.663   3.177  0.7110 -1.7097 -0.7281
   39CHL1    C4 2817   6.687   2.600   3.419 -0.2724  1.0725  0.4351
   39CHL1   H4A 2818   6.602   2.541   3.379  1.3507 -1.2507  0.2754
   39CHL1   H4B 2819   6.777   2.547   3.384  1.2502  2.6471  1.7757
   39CHL1    C5 2820   6.678   2.619   3.568  0.6085  0.4569  0.3043
   39CHL1    C6 2821   6.761   2.547   3.644 -1.0583 -0.0102 -0.2225
   39CHL1    H6 2822   6.837   2.481   3.599  0.1668  0.6327  0.8393
   39CHL1    C7 2823   6.758   2.540   3.794  0.0538  0.8191 -0.1212
   39CHL1   H7A 2824   6.742   2.435   3.826 -1.6874  1.2434  0.4789
   39CHL1   H7B 2825   6.853   2.585   3.830  0.4575 -0.5026  0.5420
   39CHL1    C8 2826   6.634   2.608   3.854 -0.4650 -0.4017 -0.0635
   39CHL1    H8 2827   6.555   2.530   3.856  0.2994 -1.1795  0.4209
   39CHL1   C14 2828   6.665   2.641   3.992  0.0705 -0.4818  0.3354
   39CHL1   H14 2829   6.742   2.721   3.998 -1.2715  0.8271  0.7459
   39CHL1   C15 2830   6.716   2.536   4.084 -0.3904 -0.1427 -0.0758
   39CHL1  H15A 2831   6.663   2.439   4.073  1.5090 -1.4767  1.7648
   39CHL1  H15B 2832   6.823   2.508   4.075 -0.4585 -0.1750 -0.8731
   39CHL1   C16 2833   6.685   2.590   4.229 -0.1830  0.6430  0.0512
   39CHL1  H16A 2834   6.629   2.516   4.290 -0.2661  0.3645 -0.3600
   39CHL1  H16B 2835   6.785   2.615   4.270  0.2529 -2.5436  1.1937
   39CHL1   C17 2836   6.604   2.721   4.209  0.5503 -0.1117 -0.0422
   39CHL1   H17 2837   6.682   2.799   4.193  1.0348 -0.0954  2.0287
   39CHL1   C13 2838   6.547   2.706   4.066  0.0219 -0.4676  0.3820
   39CHL1   C18 2839   6.434   2.597   4.078  0.7811  0.7824  0.2748
   39CHL1  H18A 2840   6.465   2.499   4.121 -3.7217 -1.6060 -1.2531
   39CHL1  H18B 2841   6.350   2.628   4.143 -0.2550 -2.0514  0.4527
   39CHL1  H18C 2842   6.390   2.593   3.976  0.3251 -2.1930  0.4839
   39CHL1   C12 2843   6.501   2.833   3.995 -0.1666 -0.6880  0.0719
   39CHL1  H12A 2844   6.415   2.883   4.044  1.0151  3.0369 -1.2989
   39CHL1  H12B 2845   6.576   2.911   4.017 -0.6670 -0.5364  1.3191
   39CHL1   C11 2846   6.478   2.813   3.845  0.4786 -0.0014  0.5306
   39CHL1  H11A 2847   6.379   2.767   3.824  1.5994 -2.8773  1.0901
   39CHL1  H11B 2848   6.477   2.911   3.792  1.5973 -1.7072 -2.9648
   39CHL1    C9 2849   6.592   2.732   3.776 -0.2299 -0.1936 -0.0049
   39CHL1    H9 2850   6.681   2.797   3.788 -0.5337 -0.2448  3.5538
   39CHL1   C10 2851   6.568   2.701   3.624  0.5341  0.1471 -0.2129
   39CHL1   C19 2852   6.447   2.613   3.608  0.5571 -0.2045  0.0271
   39CHL1  H19A 2853   6.353   2.655   3.649  0.9937 -1.3051  2.3817
   39CHL1  H19B 2854   6.426   2.581   3.504  2.8156 -0.6069 -0.3718
   39CHL1  H19C 2855   6.457   2.517   3.664 -1.5339 -1.6452 -1.8951
   39CHL1    C1 2856   6.550   2.831   3.538  0.0799 -0.4695 -0.1780
   39CHL1   H1A 2857   6.448   2.870   3.560  0.3103  1.3647 -1.9677
   39CHL1   H1B 2858   6.627   2.896   3.586  1.8391 -2.7375  0.2022
   39CHL1    C2 2859   6.558   2.821   3.388 -0.0362  0.0395 -0.1268
   39CHL1   H2A 2860   6.558   2.924   3.347  1.1766  0.3996  0.7136
   39CHL1   H2B 2861   6.471   2.762   3.351 -1.7612  2.6040 -0.4020
   39CHL1   C20 2862   6.507   2.753   4.325  0.7633 -0.2453 -0.5091
   39CHL1   H20 2863   6.416   2.689   4.319  0.7167 -0.6579  2.7967
   39CHL1   C21 2864   6.449   2.896   4.324  0.9229  0.0405  0.0622
   39CHL1  H21A 2865   6.393   2.916   4.418  1.1168 -2.6915  0.8485
   39CHL1  H21B 2866   6.372   2.888   4.245  0.1093  0.2157  0.8155
   39CHL1  H21C 2867   6.532   2.969   4.309 -0.4567  1.5919 -0.2905
   39CHL1   C22 2868   6.573   2.730   4.461 -0.3328 -0.0072 -0.8063
   39CHL1  H22A 2869   6.501   2.731   4.546  1.4206  0.6803  0.7475
   39CHL1  H22B 2870   6.630   2.635   4.466 -1.2037 -0.5578 -1.1111
   39CHL1   C23 2871   6.684   2.827   4.516  0.3280  0.4571  0.6303
   39CHL1  H23A 2872   6.752   2.845   4.430  0.4549 -1.3417  0.2986
   39CHL1  H23B 2873   6.631   2.922   4.538  0.8881  0.5969  1.4120
   39CHL1   C24 2874   6.759   2.787   4.652  1.0719 -0.4730  0.2435
   39CHL1  H24A 2875   6.679   2.771   4.727 -0.2838 -0.7035 -1.1798
   39CHL1  H24B 2876   6.810   2.689   4.641  0.8135 -0.6322  0.4800
   39CHL1   C25 2877   6.843   2.907   4.700  0.0852  0.6207 -0.4387
   39CHL1   H25 2878   6.777   2.996   4.712  1.4702  1.5512  0.6567
   39CHL1   C26 2879   6.902   2.872   4.841  0.3594  0.6072  0.8097
   39CHL1  H26A 2880   6.818   2.852   4.912 -0.8900  2.0752 -0.2089
   39CHL1  H26B 2881   6.978   2.790   4.835 -0.7875 -0.3674 -1.7502
   39CHL1  H26C 2882   6.966   2.956   4.876  0.5580  0.0765  1.7681
   39CHL1   C27 2883   6.959   2.945   4.616  0.0468 -0.6614  0.1322
   39CHL1  H27A 2884   7.026   3.023   4.658  1.1378  0.1912 -2.9527
   39CHL1  H27B 2885   7.017   2.851   4.600 -2.3053 -2.0975 -0.4408
   39CHL1  H27C 2886   6.932   2.986   4.517  0.6346 -0.2765  0.1292
   40CHL1    C3 2887   4.856   0.655   3.507  0.3658  0.2117  0.5386
   40CHL1    H3 2888   4.941   0.584   3.523 -0.5845 -1.4281 -1.2696
   40CHL1    O3 2889   4.847   0.682   3.369 -0.0371  0.1778 -0.1249
   40CHL1   H3' 2890   4.769   0.732   3.346  0.6935  0.7198 -1.5071
   40CHL1    C4 2891   4.725   0.594   3.548  0.5021 -0.5125  0.0474
   40CHL1   H4A 2892   4.648   0.669   3.520  1.7557  0.8652  0.1583
   40CHL1   H4B 2893   4.711   0.498   3.494 -1.0158 -0.8747  1.0207
   40CHL1    C5 2894   4.722   0.570   3.700 -0.5053 -1.1148 -0.4824
   40CHL1    C6 2895   4.694   0.450   3.747  0.2388 -0.2198 -0.2079
   40CHL1    H6 2896   4.663   0.378   3.670  0.1970 -0.5600  0.1196
   40CHL1    C7 2897   4.697   0.408   3.893  0.4208 -0.3430 -0.3571
   40CHL1   H7A 2898   4.601   0.361   3.926 -0.2323  0.7823 -0.5823
   40CHL1   H7B 2899   4.777   0.332   3.896  0.7450  0.0286  0.8523
   40CHL1    C8 2900   4.729   0.520   3.999  0.0535  0.1784 -0.4020
   40CHL1    H8 2901   4.630   0.566   4.020  1.0029  2.6042 -0.9440
   40CHL1   C14 2902   4.788   0.466   4.128  0.1071  0.0504  1.1262
   40CHL1   H14 2903   4.892   0.433   4.108 -0.7310 -2.8736  1.1560
   40CHL1   C15 2904   4.722   0.348   4.198 -0.0028  0.0603  0.0559
   40CHL1  H15A 2905   4.616   0.378   4.190  0.5491  1.8095 -1.0980
   40CHL1  H15B 2906   4.736   0.249   4.150  1.8488  0.1600  0.3234
   40CHL1   C16 2907   4.783   0.349   4.345 -0.2092 -0.3872 -0.4171
   40CHL1  H16A 2908   4.696   0.357   4.414 -1.8506 -1.7596 -2.2042
   40CHL1  H16B 2909   4.839   0.258   4.374  2.0734  0.5746 -1.6215
   40CHL1   C17 2910   4.866   0.481   4.350  0.1884 -0.2130  0.6558
   40CHL1   H17 2911   4.968   0.453   4.315  0.0227  1.5427 -1.4662
   40CHL1   C13 2912   4.811   0.578   4.234  0.4811  1.0143  0.0143
   40CHL1   C18 2913   4.680   0.646   4.281  0.2060  0.3725 -0.3170
   40CHL1  H18A 2914   4.631   0.688   4.191 -0.1646 -3.2542 -1.9675
   40CHL1  H18B 2915   4.600   0.578   4.319  0.2706 -0.0255 -0.8760
   40CHL1  H18C 2916   4.692   0.727   4.356 -2.4615  1.2937 -0.7853
   40CHL1   C12 2917   4.911   0.678   4.172  0.4035  0.0558  0.4523
   40CHL1  H12A 2918   4.940   0.757   4.245  2.5370 -0.5200  0.3032
   40CHL1  H12B 2919   5.013   0.638   4.154 -0.3933 -1.3951 -1.1159
   40CHL1   C11 2920   4.856   0.742   4.042  0.2715  0.2847  0.6897
   40CHL1  H11A 2921   4.764   0.800   4.066 -0.5075 -0.7813  0.3561
   40CHL1  H11B 2922   4.935   0.810   4.004  0.2575  0.8448  1.6331
   40CHL1    C9 2923   4.819   0.631   3.940  0.0050 -0.6417 -0.5201
   40CHL1    H9 2924   4.914   0.574   3.927  0.9397  0.7962 -0.2052
   40CHL1   C10 2925   4.773   0.682   3.800 -0.2555 -0.4084 -0.7159
   40CHL1   C19 2926   4.649   0.767   3.825  0.0679  0.3401 -0.1623
   40CHL1  H19A 2927   4.592   0.792   3.732  1.3092  0.1561 -0.9954
   40CHL1  H19B 2928   4.572   0.716   3.886 -0.6098 -0.4766 -1.6355
   40CHL1  H19C 2929   4.677   0.863   3.873  1.4786 -0.2978  0.3490
   40CHL1    C1 2930   4.899   0.764   3.730  0.0127 -0.2729 -0.2531
   40CHL1   H1A 2931   4.925   0.859   3.781  1.3393  0.9074 -2.9066
   40CHL1   H1B 2932   4.985   0.696   3.748  2.0117  1.6595 -1.9496
   40CHL1    C2 2933   4.884   0.782   3.574 -0.9647 -0.2778  0.1335
   40CHL1   H2A 2934   4.982   0.810   3.530 -1.1735  1.0400  0.4538
   40CHL1   H2B 2935   4.815   0.867   3.553  1.1880  2.2072  2.3319
   40CHL1   C20 2936   4.882   0.536   4.494  0.0571  0.2685 -0.3833
   40CHL1   H20 2937   4.778   0.546   4.531  0.4315  1.9238  0.3395
   40CHL1   C21 2938   4.952   0.675   4.494  0.3631  0.5455 -0.1432
   40CHL1  H21A 2939   5.047   0.677   4.437  0.6471  0.9397  0.3347
   40CHL1  H21B 2940   4.981   0.711   4.595  0.1959 -1.4062  0.6355
   40CHL1  H21C 2941   4.880   0.753   4.460 -0.4729  0.8098  2.0333
   40CHL1   C22 2942   4.945   0.432   4.593  0.6788  0.4137 -0.3795
   40CHL1  H22A 2943   4.929   0.470   4.697 -0.4214  1.1399 -0.7897
   40CHL1  H22B 2944   4.896   0.333   4.590 -0.9225  1.1094  1.0458
   40CHL1   C23 2945   5.095   0.425   4.583 -0.1438 -0.4816  0.2151
   40CHL1  H23A 2946   5.129   0.429   4.478  1.8489 -1.6426  0.7595
   40CHL1  H23B 2947   5.131   0.518   4.630  0.5568  0.7327 -2.5307
   40CHL1   C24 2948   5.139   0.297   4.655 -0.8426 -0.5021 -0.1467
   40CHL1  H24A 2949   5.109   0.320   4.760  3.8311  1.8001  0.9525
   40CHL1  H24B 2950   5.076   0.215   4.616 -2.1114  0.9459 -1.2639
   40CHL1   C25 2951   5.289   0.253   4.655 -0.4572  0.8769  0.1681
   40CHL1   H25 2952   5.319   0.235   4.550  0.3017  2.1431  0.1454
   40CHL1   C26 2953   5.379   0.353   4.723 -0.5258 -0.4503 -0.1894
   40CHL1  H26A 2954   5.423   0.430   4.657  0.5667  0.1597  1.2051
   40CHL1  H26B 2955   5.326   0.397   4.810 -0.0689 -1.9073  0.8639
   40CHL1  H26C 2956   5.464   0.299   4.771  0.8175  2.4328  0.8791
   40CHL1   C27 2957   5.302   0.111   4.716 -0.2158  0.1704 -0.1661
   40CHL1  H27A 2958   5.247   0.114   4.812  1.1158 -1.2682  0.6775
   40CHL1  H27B 2959   5.253   0.037   4.649  0.4928  0.8542 -1.4906
   40CHL1  H27C 2960   5.405   0.075   4.732 -0.0130  1.1224  0.7480
   41CHL1    C3 2961   0.306   3.701   3.539  0.3538 -0.2570 -0.8623
   41CHL1    H3 2962   0.415   3.688   3.529  0.6954  1.7868 -0.2920
   41CHL1    O3 2963   0.257   3.687   3.410 -0.4193  0.3917  0.0950
   41CHL1   H3' 2964   0.163   3.694   3.425 -0.7293 -1.4621 -0.6471
   41CHL1    C4 2965   0.249   3.588   3.634 -0.6201 -0.4247  0.0420
   41CHL1   H4A 2966   0.139   3.588   3.619 -0.3983  3.1179 -2.8475
   41CHL1   H4B 2967   0.279   3.492   3.587 -1.5481 -0.1764 -1.1151
   41CHL1    C5 2968   0.265   3.618   3.786 -0.5958  0.2319  1.2832
   41CHL1    C6 2969   0.317   3.527   3.868 -0.5393  0.1248  0.4892
   41CHL1    H6 2970   0.350   3.429   3.831  1.3762  0.9453 -0.0803
   41CHL1    C7 2971   0.349   3.540   4.011  0.7448  0.3269  0.2495
   41CHL1   H7A 2972   0.330   3.444   4.063 -0.1605 -0.3280 -1.2311
   41CHL1   H7B 2973   0.456   3.566   4.030  0.1425  1.9847  1.5822
   41CHL1    C8 2974   0.262   3.657   4.073 -0.4619 -0.2729  0.1625
   41CHL1    H8 2975   0.159   3.615   4.075 -0.7986  0.3132 -2.1050
   41CHL1   C14 2976   0.314   3.692   4.209 -0.0776 -0.0255 -0.4340
   41CHL1   H14 2977   0.417   3.734   4.205 -0.2826  0.5925  0.4368
   41CHL1   C15 2978   0.332   3.575   4.312  0.5293 -0.4435  0.2833
   41CHL1  H15A 2979   0.247   3.504   4.314 -1.0787  1.4119  1.0796
   41CHL1  H15B 2980   0.418   3.507   4.297  1.1037  0.0328  1.2473
   41CHL1   C16 2981   0.351   3.654   4.445 -0.0878 -0.6037  0.1258
   41CHL1  H16A 2982   0.282   3.603   4.515 -1.9726 -1.2122 -2.0478
   41CHL1  H16B 2983   0.454   3.651   4.485 -0.1376 -0.2848  0.2780
   41CHL1   C17 2984   0.303   3.802   4.416  0.1123  0.2337  0.3269
   41CHL1   H17 2985   0.398   3.861   4.409  1.9574 -2.4330  1.3761
   41CHL1   C13 2986   0.234   3.802   4.279  0.6386 -0.6653  0.0822
   41CHL1   C18 2987   0.089   3.746   4.297 -0.1109  0.6570  0.4793
   41CHL1  H18A 2988   0.043   3.742   4.196  0.3742 -0.7601  0.2950
   41CHL1  H18B 2989   0.082   3.640   4.328 -2.0534  0.5947 -0.0777
   41CHL1  H18C 2990   0.027   3.805   4.368  0.7329  1.0138  0.9456
   41CHL1   C12 2991   0.238   3.930   4.198  0.0586 -0.5112  0.6547
   41CHL1  H12A 2992   0.157   3.997   4.235  0.7585 -0.2028  1.6847
   41CHL1  H12B 2993   0.341   3.971   4.198  0.3868 -1.3223  0.8484
   41CHL1   C11 2994   0.195   3.907   4.052 -0.3397  0.7587 -0.7016
   41CHL1  H11A 2995   0.089   3.878   4.066  0.4869 -2.6048 -0.5909
   41CHL1  H11B 2996   0.201   4.003   3.997 -0.4197  2.0524  1.4362
   41CHL1    C9 2997   0.265   3.786   3.985  0.3012 -0.0286  0.3407
   41CHL1    H9 2998   0.374   3.804   3.982  0.0314  1.6321 -2.1928
   41CHL1   C10 2999   0.220   3.753   3.836  0.9465  0.5186  0.1142
   41CHL1   C19 3000   0.066   3.760   3.825  0.3532 -0.7297 -0.2067
   41CHL1  H19A 3001   0.011   3.751   3.729 -1.4825  1.8121  0.4901
   41CHL1  H19B 3002   0.025   3.694   3.904 -1.8711  2.5402  1.6263
   41CHL1  H19C 3003   0.038   3.861   3.862  0.5927 -0.9542  0.6306
   41CHL1    C1 3004   0.291   3.851   3.745 -0.1755 -0.0188  0.5941
   41CHL1   H1A 3005   0.260   3.956   3.766 -1.0641  0.7303 -3.5472
   41CHL1   H1B 3006   0.401   3.841   3.751 -0.2547 -3.4953 -1.3266
   41CHL1    C2 3007   0.259   3.842   3.595  0.1574  0.4052  0.0166
   41CHL1   H2A 3008   0.315   3.921   3.541  0.9621  0.3082  0.6898
   41CHL1   H2B 3009   0.149   3.854   3.582  0.1175 -1.1627 -1.5652
   41CHL1   C20 3010   0.235   3.860   4.542  1.1063 -0.7893  1.0639
   41CHL1   H20 3011   0.138   3.808   4.557  1.1068 -1.1481 -0.0817
   41CHL1   C21 3012   0.195   4.011   4.518  0.2066 -0.1001  0.2560
   41CHL1  H21A 3013   0.158   4.057   4.612  2.7282  0.4831  1.0372
   41CHL1  H21B 3014   0.122   4.036   4.438 -2.1246 -0.5744  2.1235
   41CHL1  H21C 3015   0.290   4.065   4.498  0.0281 -0.5848 -2.2209
   41CHL1   C22 3016   0.308   3.848   4.674  0.2161 -0.2934  0.3550
   41CHL1  H22A 3017   0.248   3.897   4.753 -0.6851  1.2775 -1.2322
   41CHL1  H22B 3018   0.316   3.741   4.703  0.5872 -0.3666 -0.0040
   41CHL1   C23 3019   0.451   3.902   4.688  0.4244  0.2625 -0.3653
   41CHL1  H23A 3020   0.509   3.878   4.596 -2.4213  0.2829 -2.3252
   41CHL1  H23B 3021   0.442   4.012   4.693  0.6059  0.2273  1.3191
   41CHL1   C24 3022   0.517   3.850   4.818  0.7706 -0.1798 -0.3216
   41CHL1  H24A 3023   0.454   3.876   4.905  1.4514  1.5481 -0.3047
   41CHL1  H24B 3024   0.520   3.740   4.798  1.4492 -0.0304 -1.1447
   41CHL1   C25 3025   0.655   3.906   4.836 -0.0547  0.4678  0.7358
   41CHL1   H25 3026   0.637   4.015   4.829 -1.1610  0.3517  1.4941
   41CHL1   C26 3027   0.729   3.878   4.970  0.6724  0.7089  0.2145
   41CHL1  H26A 3028   0.829   3.923   4.957  1.1274  0.2502  1.8331
   41CHL1  H26B 3029   0.668   3.925   5.050  0.2774 -0.2471  0.4919
   41CHL1  H26C 3030   0.719   3.769   4.989 -2.1693  0.8804  0.1997
   41CHL1   C27 3031   0.751   3.870   4.714  0.2901  0.2930 -0.8999
   41CHL1  H27A 3032   0.716   3.914   4.618 -0.2412  0.9989 -0.4032
   41CHL1  H27B 3033   0.859   3.895   4.722  0.4834 -0.3862 -1.3470
   41CHL1  H27C 3034   0.738   3.761   4.702  0.2333  0.1331  0.4518
   42CHL1    C3 3035   2.828   2.202   3.183 -0.0100  0.1935 -0.4689
   42CHL1    H3 3036   2.938   2.204   3.192  0.2387 -3.1973 -1.3980
   42CHL1    O3 3037   2.791   2.232   3.053  0.1850  0.0347  0.6905
   42CHL1   H3' 3038   2.776   2.149   3.007 -0.4697  1.4491 -1.8429
   42CHL1    C4 3039   2.797   2.053   3.221 -0.2089 -0.1354 -0.1593
   42CHL1   H4A 3040   2.689   2.032   3.203 -1.3208  2.8045  2.1458
   42CHL1   H4B 3041   2.852   1.990   3.149 -0.1941  1.7061 -1.8519
   42CHL1    C5 3042   2.841   2.037   3.363 -0.0729  0.4782  0.2361
   42CHL1    C6 3043   2.936   1.950   3.397  0.2495 -0.6059  0.2744
   42CHL1    H6 3044   2.987   1.900   3.313 -1.8494 -2.9216  0.2556
   42CHL1    C7 3045   2.991   1.931   3.542 -0.0430  0.3995  0.2105
   42CHL1   H7A 3046   3.031   1.828   3.558 -0.9303  0.2208  1.3950
   42CHL1   H7B 3047   3.078   1.998   3.558 -1.0912  1.4591  1.7044
   42CHL1    C8 3048   2.885   1.972   3.649  0.2631 -0.3214  0.0186
   42CHL1    H8 3049   2.794   1.909   3.633 -0.7072  1.4791 -2.0156
   42CHL1   C14 3050   2.947   1.966   3.779  0.1303 -0.6540 -0.5947
   42CHL1   H14 3051   3.025   2.044   3.789 -2.2500  1.7073  0.7119
   42CHL1   C15 3052   3.007   1.831   3.825  0.0360  0.5699  0.7238
   42CHL1  H15A 3053   2.944   1.745   3.795 -0.5787  1.0587  0.5907
   42CHL1  H15B 3054   3.103   1.826   3.769 -0.6047 -0.5478 -0.3251
   42CHL1   C16 3055   3.010   1.835   3.976  0.0946  0.2177  0.1551
   42CHL1  H16A 3056   2.960   1.758   4.038 -1.3196  3.5729  3.5640
   42CHL1  H16B 3057   3.119   1.847   3.998  0.6580  0.1239 -2.3044
   42CHL1   C17 3058   2.924   1.955   4.020 -0.4008 -0.7054 -0.2642
   42CHL1   H17 3059   3.002   2.031   4.044  0.2487 -1.0539 -1.2251
   42CHL1   C13 3060   2.847   2.000   3.889  0.0073 -0.0254 -0.0923
   42CHL1   C18 3061   2.725   1.905   3.890  0.0739 -0.9837  0.4441
   42CHL1  H18A 3062   2.757   1.802   3.919  3.3716 -0.9990 -2.5558
   42CHL1  H18B 3063   2.646   1.940   3.961  1.9796  1.5612  1.4856
   42CHL1  H18C 3064   2.675   1.888   3.793 -1.2200  1.8681  0.5051
   42CHL1   C12 3065   2.813   2.149   3.878  0.2754 -0.0849 -0.5272
   42CHL1  H12A 3066   2.743   2.200   3.947  2.5169  1.8443  0.4561
   42CHL1  H12B 3067   2.910   2.201   3.893 -0.3862  0.7468  1.0639
   42CHL1   C11 3068   2.751   2.175   3.742  0.0752  0.4488  0.4064
   42CHL1  H11A 3069   2.647   2.138   3.745  0.0095  0.3714 -1.6221
   42CHL1  H11B 3070   2.748   2.284   3.722  2.0768  0.3326 -0.7909
   42CHL1    C9 3071   2.834   2.117   3.618  0.1417  0.0800 -0.6242
   42CHL1    H9 3072   2.928   2.177   3.625  0.8196 -1.0765  0.6855
   42CHL1   C10 3073   2.771   2.126   3.477 -0.1145  0.4228 -0.3689
   42CHL1   C19 3074   2.616   2.089   3.483 -0.1547  0.0158  0.0353
   42CHL1  H19A 3075   2.560   2.147   3.560 -2.4302 -1.7350 -0.2075
   42CHL1  H19B 3076   2.571   2.102   3.383  2.0144 -1.5290 -1.2277
   42CHL1  H19C 3077   2.596   1.984   3.514  0.4233 -0.0342  0.2409
   42CHL1    C1 3078   2.770   2.271   3.422  0.1588 -0.4076 -0.5685
   42CHL1   H1A 3079   2.686   2.321   3.474 -0.3219 -3.4948  1.9469
   42CHL1   H1B 3080   2.865   2.320   3.453  0.8526 -1.7198 -0.5363
   42CHL1    C2 3081   2.753   2.299   3.271  0.1061  0.2140 -0.2982
   42CHL1   H2A 3082   2.782   2.405   3.255  1.4514  0.0665  0.9342
   42CHL1   H2B 3083   2.646   2.283   3.244 -0.1686 -0.0441  0.9052
   42CHL1   C20 3084   2.848   1.941   4.158 -0.4009  0.5974  0.3944
   42CHL1   H20 3085   2.791   1.846   4.166 -1.3109  1.1275  0.3163
   42CHL1   C21 3086   2.761   2.063   4.185 -0.0094  0.3283 -0.1679
   42CHL1  H21A 3087   2.731   2.061   4.292  2.4067 -0.1763  0.5636
   42CHL1  H21B 3088   2.669   2.066   4.123  0.3129 -1.1798 -0.7689
   42CHL1  H21C 3089   2.819   2.157   4.169 -1.2255  1.2148  0.4989
   42CHL1   C22 3090   2.953   1.913   4.279 -0.1638  1.1893  0.6304
   42CHL1  H22A 3091   3.033   1.859   4.225 -0.8741  1.6483 -0.9517
   42CHL1  H22B 3092   2.998   2.012   4.304  1.0560  1.0280 -0.8298
   42CHL1   C23 3093   2.906   1.826   4.395 -0.5225 -0.2701 -0.3428
   42CHL1  H23A 3094   2.821   1.868   4.451 -0.3676  0.0461 -0.3442
   42CHL1  H23B 3095   2.862   1.734   4.350 -1.4187  0.7651 -1.6536
   42CHL1   C24 3096   3.014   1.808   4.505  0.4979 -0.2694  0.6235
   42CHL1  H24A 3097   3.097   1.745   4.466 -0.0058 -0.3570 -0.3246
   42CHL1  H24B 3098   3.054   1.908   4.534 -0.7620  0.6474 -0.7062
   42CHL1   C25 3099   2.953   1.742   4.631  0.0705 -0.0279 -0.3511
   42CHL1   H25 3100   2.865   1.803   4.660  0.5116 -0.3622  1.8169
   42CHL1   C26 3101   2.892   1.602   4.612 -0.1890 -0.7712  0.2161
   42CHL1  H26A 3102   2.845   1.595   4.512  1.4927 -0.7605 -0.6158
   42CHL1  H26B 3103   2.973   1.526   4.619  0.8962  0.0970 -1.9209
   42CHL1  H26C 3104   2.822   1.576   4.694 -0.0532  0.8211  0.8879
   42CHL1   C27 3105   3.061   1.753   4.748  0.1018 -0.3702 -0.3696
   42CHL1  H27A 3106   3.143   1.684   4.717  0.1712 -0.2587 -0.4367
   42CHL1  H27B 3107   3.098   1.857   4.752  2.2864 -1.0949 -0.2291
   42CHL1  H27C 3108   3.021   1.722   4.847  0.3090  0.0114 -0.1660
   43CHL1    C3 3109   4.117   0.403   3.309  0.0786 -0.0249 -0.5878
   43CHL1    H3 3110   4.149   0.506   3.339  2.2260 -0.7099 -0.3448
   43CHL1    O3 3111   4.091   0.387   3.168  0.4821  0.4098  0.5223
   43CHL1   H3' 3112   4.064   0.295   3.172  0.6150  0.2705 -1.0570
   43CHL1    C4 3113   4.214   0.295   3.365  0.4033  1.1391 -0.2772
   43CHL1   H4A 3114   4.196   0.197   3.316 -0.6317  1.4163 -0.4709
   43CHL1   H4B 3115   4.312   0.325   3.322 -1.1533  1.9506 -3.5747
   43CHL1    C5 3116   4.217   0.271   3.515  0.4082 -0.2689  0.3478
   43CHL1    C6 3117   4.328   0.293   3.589 -0.2751 -0.1302  0.2844
   43CHL1    H6 3118   4.422   0.304   3.533 -1.7823  1.3014 -2.1745
   43CHL1    C7 3119   4.344   0.260   3.737  0.1455  0.2686  0.2890
   43CHL1   H7A 3120   4.437   0.200   3.745 -0.8105 -1.2476  0.5511
   43CHL1   H7B 3121   4.356   0.347   3.805 -0.2327 -1.0401  2.1186
   43CHL1    C8 3122   4.225   0.174   3.787 -0.8376  0.4829 -0.0075
   43CHL1    H8 3123   4.225   0.073   3.740 -0.9687  0.7892 -0.6785
   43CHL1   C14 3124   4.223   0.169   3.940  0.0829  0.2049  0.7533
   43CHL1   H14 3125   4.198   0.271   3.977  1.4534  0.2094  1.7252
   43CHL1   C15 3126   4.350   0.119   4.003  0.1105 -0.7050  0.0464
   43CHL1  H15A 3127   4.391   0.030   3.951  0.5387 -0.2094 -0.4767
   43CHL1  H15B 3128   4.424   0.201   4.000  1.2015 -1.6631  0.0300
   43CHL1   C16 3129   4.308   0.081   4.148  0.5820 -0.4707 -0.6627
   43CHL1  H16A 3130   4.362  -0.011   4.177  1.2425  0.1324  0.0800
   43CHL1  H16B 3131   4.336   0.162   4.218 -0.6805 -1.2973  0.8560
   43CHL1   C17 3132   4.152   0.073   4.151 -0.3790  0.1596 -0.1470
   43CHL1   H17 3133   4.118   0.170   4.193  1.5727  0.3323  1.1537
   43CHL1   C13 3134   4.116   0.081   4.002  0.6340 -0.5142 -0.0852
   43CHL1   C18 3135   4.117  -0.058   3.939  0.1248  0.0161  1.4814
   43CHL1  H18A 3136   4.053  -0.128   3.998  0.4923 -1.0403  0.6474
   43CHL1  H18B 3137   4.086  -0.062   3.833  0.7532  0.5170  1.2754
   43CHL1  H18C 3138   4.217  -0.107   3.935 -0.6264 -1.5181 -2.1905
   43CHL1   C12 3139   3.985   0.161   3.974  0.0734  0.0336 -0.2289
   43CHL1  H12A 3140   3.899   0.095   3.999  0.4535 -0.7602 -0.9980
   43CHL1  H12B 3141   3.980   0.260   4.025 -3.2042  0.2350 -0.7367
   43CHL1   C11 3142   3.970   0.182   3.817  0.7052  0.1831 -0.0856
   43CHL1  H11A 3143   3.937   0.085   3.774  0.7213  0.8419 -1.6511
   43CHL1  H11B 3144   3.888   0.258   3.810  0.9810  0.6145  1.1204
   43CHL1    C9 3145   4.090   0.236   3.734  0.1794 -0.0522 -0.2267
   43CHL1    H9 3146   4.107   0.345   3.745 -0.0495  0.1417 -1.6865
   43CHL1   C10 3147   4.082   0.243   3.577  0.3755 -0.7044 -0.1420
   43CHL1   C19 3148   4.038   0.097   3.536  0.2349 -0.1904  0.3449
   43CHL1  H19A 3149   4.100   0.021   3.589  3.0498 -0.5503 -3.0574
   43CHL1  H19B 3150   3.930   0.088   3.559  0.4870  0.1529  1.7440
   43CHL1  H19C 3151   4.043   0.071   3.428 -2.8535 -3.3368  0.7700
   43CHL1    C1 3152   3.987   0.347   3.521  0.3068 -0.1701 -0.0935
   43CHL1   H1A 3153   3.884   0.328   3.558 -1.1854  2.2104 -2.6325
   43CHL1   H1B 3154   4.022   0.441   3.568 -0.2702 -1.0881  2.3320
   43CHL1    C2 3155   3.979   0.367   3.369 -0.2962 -0.1895  0.6791
   43CHL1   H2A 3156   3.899   0.441   3.342  0.6622 -0.2986 -3.0500
   43CHL1   H2B 3157   3.954   0.268   3.326  0.2391 -0.3387  0.7093
   43CHL1   C20 3158   4.087  -0.044   4.230 -0.0654  0.4773 -0.1935
   43CHL1   H20 3159   4.112  -0.145   4.191 -0.1861  0.4093 -0.0947
   43CHL1   C21 3160   3.940  -0.032   4.240  0.3915 -0.3333  0.0692
   43CHL1  H21A 3161   3.889  -0.068   4.149  1.0956  0.1988 -0.5512
   43CHL1  H21B 3162   3.907   0.072   4.258 -0.6017 -0.8888  1.7183
   43CHL1  H21C 3163   3.899  -0.104   4.314  0.2618 -0.6527 -0.3101
   43CHL1   C22 3164   4.152  -0.050   4.376  0.1925  0.2230  0.5405
   43CHL1  H22A 3165   4.263  -0.041   4.365 -0.0510  1.7807 -1.1929
   43CHL1  H22B 3166   4.119   0.044   4.426 -3.0229 -1.5944  2.1524
   43CHL1   C23 3167   4.108  -0.166   4.461 -0.8906  1.1769  0.0825
   43CHL1  H23A 3168   4.015  -0.140   4.516 -1.2252 -1.5890  1.0018
   43CHL1  H23B 3169   4.097  -0.259   4.401 -0.5911  0.8464  0.5336
   43CHL1   C24 3170   4.205  -0.185   4.580 -0.0752 -0.5333  0.3527
   43CHL1  H24A 3171   4.306  -0.213   4.540 -1.0972 -3.8291 -0.2146
   43CHL1  H24B 3172   4.221  -0.089   4.634  3.1879  0.2710 -1.7137
   43CHL1   C25 3173   4.166  -0.295   4.680 -0.2879 -0.1789  0.2313
   43CHL1   H25 3174   4.143  -0.390   4.627 -0.3429 -0.0943  0.1030
   43CHL1   C26 3175   4.295  -0.351   4.754  0.5103 -0.2612 -0.3608
   43CHL1  H26A 3176   4.327  -0.288   4.840  0.9498 -0.9931  0.0167
   43CHL1  H26B 3177   4.271  -0.449   4.799 -1.3792  0.9499  1.4656
   43CHL1  H26C 3178   4.373  -0.377   4.679  0.0136 -2.9592 -0.0267
   43CHL1   C27 3179   4.057  -0.264   4.777  0.6032  0.1197 -0.3349
   43CHL1  H27A 3180   4.045  -0.358   4.834  2.2858 -0.3694 -0.7547
   43CHL1  H27B 3181   4.103  -0.189   4.846  1.6812 -0.9395  0.1283
   43CHL1  H27C 3182   3.963  -0.225   4.731  0.4602 -1.5839 -1.5745
   44CHL1    C3 3183   2.284   2.755   3.229 -0.3622  0.4504 -0.6717
   44CHL1    H3 3184   2.383   2.782   3.186  0.0382 -1.3025 -0.9141
   44CHL1    O3 3185   2.203   2.722   3.119  0.1428 -0.1584 -0.0638
   44CHL1   H3' 3186   2.123   2.690   3.160  0.1169  1.4336  1.1924
   44CHL1    C4 3187   2.312   2.626   3.306  1.1315 -0.1401  0.1834
   44CHL1   H4A 3188   2.214   2.588   3.341  0.7946  2.1431  2.0209
   44CHL1   H4B 3189   2.357   2.544   3.245 -0.8932 -1.3091  0.1850
   44CHL1    C5 3190   2.390   2.649   3.438 -0.3907  0.8216 -0.3573
   44CHL1    C6 3191   2.500   2.577   3.448  0.3455  0.1981  0.3571
   44CHL1    H6 3192   2.525   2.501   3.373  0.8005  1.2484 -0.5849
   44CHL1    C7 3193   2.588   2.577   3.570  0.5815  0.0892 -0.0336
   44CHL1   H7A 3194   2.606   2.477   3.614 -0.4300 -0.2891 -0.4557
   44CHL1   H7B 3195   2.686   2.625   3.553  0.4019 -0.2045 -2.1088
   44CHL1    C8 3196   2.520   2.660   3.686 -0.1083  0.4001 -0.0034
   44CHL1    H8 3197   2.442   2.596   3.733  0.1020  0.4155  0.3686
   44CHL1   C14 3198   2.615   2.683   3.796  0.3998  0.0746  0.2719
   44CHL1   H14 3199   2.685   2.759   3.755 -3.2295  4.1032  0.8553
   44CHL1   C15 3200   2.698   2.561   3.846 -0.1886 -0.2791  0.0095
   44CHL1  H15A 3201   2.636   2.469   3.853  0.7866 -1.2220 -2.4226
   44CHL1  H15B 3202   2.769   2.531   3.765 -1.5294  0.0733 -1.3529
   44CHL1   C16 3203   2.751   2.613   3.979  0.2946  0.3296 -0.4103
   44CHL1  H16A 3204   2.696   2.545   4.048 -0.3605  0.0297 -1.2125
   44CHL1  H16B 3205   2.857   2.590   4.003  0.0719 -0.4279 -0.1027
   44CHL1   C17 3206   2.704   2.758   3.999  0.1762  0.2311  0.3659
   44CHL1   H17 3207   2.771   2.833   3.952  1.8921 -1.4459  0.0500
   44CHL1   C13 3208   2.569   2.760   3.919  0.3914 -0.7465  0.4361
   44CHL1   C18 3209   2.443   2.699   3.989 -0.1123  0.2733  0.6266
   44CHL1  H18A 3210   2.426   2.764   4.078  0.6942  2.8129 -0.9749
   44CHL1  H18B 3211   2.356   2.673   3.926  1.5102  0.1074 -1.6903
   44CHL1  H18C 3212   2.486   2.603   4.024  2.6690  0.3723 -2.1180
   44CHL1   C12 3213   2.527   2.892   3.855 -0.3026 -0.9773 -0.3716
   44CHL1  H12A 3214   2.487   2.966   3.928  0.5447 -1.5420  0.6785
   44CHL1  H12B 3215   2.608   2.946   3.802 -2.3232  1.1231 -1.5391
   44CHL1   C11 3216   2.416   2.880   3.750 -1.0607  0.7028 -0.3484
   44CHL1  H11A 3217   2.326   2.843   3.804 -1.1346 -3.1492 -2.7319
   44CHL1  H11B 3218   2.385   2.979   3.709 -0.2544  2.2640  2.5280
   44CHL1    C9 3219   2.450   2.787   3.637 -0.2798 -0.8174  0.5029
   44CHL1    H9 3220   2.533   2.834   3.580 -1.0103  0.6298  0.5840
   44CHL1   C10 3221   2.335   2.753   3.531 -0.1465 -0.5658  0.4599
   44CHL1   C19 3222   2.196   2.719   3.592  0.1822 -0.4501  0.1392
   44CHL1  H19A 3223   2.167   2.794   3.668 -0.2821 -0.3753 -0.1069
   44CHL1  H19B 3224   2.111   2.716   3.520  0.0742 -0.7666  0.2755
   44CHL1  H19C 3225   2.203   2.613   3.626 -0.0342 -0.9941 -1.3861
   44CHL1    C1 3226   2.309   2.882   3.452  0.2593 -0.6234  0.2537
   44CHL1   H1A 3227   2.255   2.954   3.517 -0.1012 -0.1253 -0.5831
   44CHL1   H1B 3228   2.397   2.947   3.427  0.5729 -0.9665  0.4581
   44CHL1    C2 3229   2.234   2.874   3.318 -0.2012  0.9652  0.5042
   44CHL1   H2A 3230   2.235   2.967   3.257 -1.2694 -0.6724 -2.2221
   44CHL1   H2B 3231   2.128   2.845   3.335 -0.0519 -1.7652 -2.1880
   44CHL1   C20 3232   2.690   2.797   4.146  0.1627  0.0915  0.0102
   44CHL1   H20 3233   2.607   2.730   4.180 -0.7702  1.6671  0.9885
   44CHL1   C21 3234   2.643   2.943   4.152 -0.2085 -0.5192 -0.7470
   44CHL1  H21A 3235   2.703   3.010   4.087  0.1950  0.9163  1.0385
   44CHL1  H21B 3236   2.643   2.987   4.254 -0.7408 -0.3743 -0.8022
   44CHL1  H21C 3237   2.534   2.955   4.135 -0.4067  1.5565  1.4646
   44CHL1   C22 3238   2.804   2.765   4.240 -0.1984 -0.2934  0.3216
   44CHL1  H22A 3239   2.837   2.660   4.223  1.6293  0.7095 -3.1142
   44CHL1  H22B 3240   2.892   2.827   4.214 -0.6657 -0.1707 -1.0649
   44CHL1   C23 3241   2.777   2.773   4.391 -0.1002 -0.4980 -0.3786
   44CHL1  H23A 3242   2.709   2.852   4.430 -1.5543 -1.6819 -0.3948
   44CHL1  H23B 3243   2.730   2.675   4.414  0.7358 -0.8470 -0.1118
   44CHL1   C24 3244   2.911   2.781   4.469 -0.7830  0.0398  0.2668
   44CHL1  H24A 3245   2.957   2.696   4.414  1.5605  1.3238  0.1316
   44CHL1  H24B 3246   2.963   2.877   4.452 -0.3059 -0.4113 -0.9879
   44CHL1   C25 3247   2.908   2.741   4.610 -0.4116  0.1063  0.2475
   44CHL1   H25 3248   2.833   2.659   4.617  0.6862 -1.0067 -0.5313
   44CHL1   C26 3249   3.043   2.696   4.667 -0.3788 -0.3126 -0.8248
   44CHL1  H26A 3250   3.114   2.778   4.692 -1.1242 -0.3313  1.5900
   44CHL1  H26B 3251   3.027   2.645   4.764  0.1363  0.9419 -0.0452
   44CHL1  H26C 3252   3.098   2.630   4.597  2.5322  1.8090 -0.6933
   44CHL1   C27 3253   2.861   2.861   4.690  0.4992 -0.5153  0.7422
   44CHL1  H27A 3254   2.868   2.832   4.797 -1.1412  2.1902  1.6910
   44CHL1  H27B 3255   2.926   2.950   4.672 -0.1301  0.1906  1.8043
   44CHL1  H27C 3256   2.757   2.891   4.665  0.6783  0.5226  1.1553
   45CHL1    C3 3257   2.413   4.065   3.113 -0.2522 -0.2517 -0.2263
   45CHL1    H3 3258   2.415   4.176   3.120 -0.3138 -0.2276 -0.5538
   45CHL1    O3 3259   2.419   4.032   2.978  0.7352 -0.0344 -0.4838
   45CHL1   H3' 3260   2.335   4.060   2.941 -0.3075 -4.7178 -2.2954
   45CHL1    C4 3261   2.543   4.013   3.183 -0.4319 -0.3809  0.5626
   45CHL1   H4A 3262   2.553   3.903   3.188  0.5816 -0.3044  0.4460
   45CHL1   H4B 3263   2.630   4.057   3.130 -0.3693  1.2053  1.8978
   45CHL1    C5 3264   2.539   4.050   3.327  0.2937  0.4589 -0.2035
   45CHL1    C6 3265   2.635   4.114   3.391  0.7909 -0.3616 -1.0402
   45CHL1    H6 3266   2.723   4.145   3.334  0.9112  0.4290 -0.4382
   45CHL1    C7 3267   2.662   4.127   3.542 -0.0833 -0.2815 -0.2806
   45CHL1   H7A 3268   2.771   4.112   3.553  0.3140  0.9769 -2.0142
   45CHL1   H7B 3269   2.640   4.230   3.579  1.7532  0.2948 -0.6759
   45CHL1    C8 3270   2.562   4.036   3.623  0.0284  0.5841 -1.5432
   45CHL1    H8 3271   2.597   3.931   3.624  0.6515  0.7970 -0.5775
   45CHL1   C14 3272   2.554   4.086   3.762  0.2565 -0.2068  0.0386
   45CHL1   H14 3273   2.518   4.189   3.741 -0.1779 -0.3277  0.1863
   45CHL1   C15 3274   2.692   4.102   3.839  0.3647 -0.1036 -0.3626
   45CHL1  H15A 3275   2.755   4.012   3.819 -1.0070 -1.4502  1.0754
   45CHL1  H15B 3276   2.747   4.197   3.824  0.9590 -0.6212 -1.5774
   45CHL1   C16 3277   2.650   4.102   3.988  0.3144 -0.1408 -0.6800
   45CHL1  H16A 3278   2.697   4.011   4.030  0.4301  0.4458  0.4856
   45CHL1  H16B 3279   2.684   4.193   4.043 -0.7817  1.3069 -2.2744
   45CHL1   C17 3280   2.497   4.076   3.992 -0.6299 -0.6827  0.0264
   45CHL1   H17 3281   2.450   4.177   3.982 -1.1302 -1.1019 -2.2999
   45CHL1   C13 3282   2.460   4.008   3.862  0.1445 -0.4006  0.0537
   45CHL1   C18 3283   2.485   3.855   3.867  0.6949 -0.3989  0.4174
   45CHL1  H18A 3284   2.496   3.812   3.765 -1.2060 -1.6288  0.6868
   45CHL1  H18B 3285   2.582   3.831   3.916  1.2009  2.5706  1.0642
   45CHL1  H18C 3286   2.393   3.807   3.906  0.1268 -0.2522 -0.7035
   45CHL1   C12 3287   2.318   4.030   3.798  0.6793  0.3001 -0.8149
   45CHL1  H12A 3288   2.238   3.972   3.850  1.1031 -1.2242 -1.8055
   45CHL1  H12B 3289   2.303   4.138   3.816 -2.1993  0.2379 -2.3353
   45CHL1   C11 3290   2.304   3.998   3.645  0.7417  0.2286  0.7343
   45CHL1  H11A 3291   2.289   3.888   3.644  1.3124  0.1510  0.3990
   45CHL1  H11B 3292   2.205   4.029   3.606  0.9500  0.7310  0.5952
   45CHL1    C9 3293   2.417   4.045   3.556 -0.7298 -0.5691  0.2426
   45CHL1    H9 3294   2.402   4.155   3.552  0.0769 -0.4891 -0.6995
   45CHL1   C10 3295   2.419   3.990   3.411 -0.4333  0.0549  1.1566
   45CHL1   C19 3296   2.420   3.830   3.419  0.3327 -0.4816 -0.2583
   45CHL1  H19A 3297   2.321   3.805   3.464  2.0220 -0.6943  3.7769
   45CHL1  H19B 3298   2.427   3.774   3.324 -1.4541  1.4751 -1.6501
   45CHL1  H19C 3299   2.491   3.789   3.494 -0.2879  0.0722  0.6650
   45CHL1    C1 3300   2.282   4.032   3.336 -0.9497 -0.0649 -0.3561
   45CHL1   H1A 3301   2.197   3.975   3.378 -0.8915  0.1103  0.0060
   45CHL1   H1B 3302   2.274   4.140   3.359 -0.2791  0.5267 -2.6081
   45CHL1    C2 3303   2.287   4.000   3.187 -0.1406  0.2815 -0.0504
   45CHL1   H2A 3304   2.200   4.046   3.134 -2.1465 -0.8752  2.0535
   45CHL1   H2B 3305   2.294   3.890   3.180  0.0069  0.3315 -0.7766
   45CHL1   C20 3306   2.455   4.014   4.124 -0.0103  0.3705 -0.0547
   45CHL1   H20 3307   2.474   3.904   4.125 -0.3987  0.2776  2.0824
   45CHL1   C21 3308   2.307   4.031   4.132  0.2874  0.0172  0.6281
   45CHL1  H21A 3309   2.264   3.983   4.222 -0.6280 -1.6251 -0.6192
   45CHL1  H21B 3310   2.265   3.978   4.043 -0.7497  1.1484  0.4221
   45CHL1  H21C 3311   2.281   4.139   4.125  1.8155  0.4792  1.7575
   45CHL1   C22 3312   2.524   4.065   4.251 -0.4201 -0.2501  0.2646
   45CHL1  H22A 3313   2.634   4.052   4.241  0.0949  2.5541  1.3811
   45CHL1  H22B 3314   2.514   4.175   4.239  0.6895 -0.1409  0.1758
   45CHL1   C23 3315   2.464   4.018   4.384  0.2302  0.4251  0.1536
   45CHL1  H23A 3316   2.361   4.057   4.395  0.8238  1.5245  2.5414
   45CHL1  H23B 3317   2.477   3.910   4.359 -1.0977  0.7867 -2.4331
   45CHL1   C24 3318   2.544   4.069   4.512 -0.0062  0.1664 -0.6277
   45CHL1  H24A 3319   2.649   4.035   4.505 -0.2126 -0.6841  0.1896
   45CHL1  H24B 3320   2.540   4.180   4.521  2.4823  0.1638  1.9347
   45CHL1   C25 3321   2.493   4.014   4.651  0.3410 -0.3131  0.3557
   45CHL1   H25 3322   2.486   3.904   4.636 -0.3800  0.0854 -2.9320
   45CHL1   C26 3323   2.594   4.036   4.758 -0.8805 -0.4631  0.1332
   45CHL1  H26A 3324   2.601   4.144   4.779 -0.2242 -0.2934 -0.8607
   45CHL1  H26B 3325   2.574   3.970   4.845 -0.1325 -4.2343 -2.2930
   45CHL1  H26C 3326   2.696   4.019   4.717 -0.8020  0.5273 -0.0946
   45CHL1   C27 3327   2.355   4.071   4.685  0.5826  0.6971  0.2864
   45CHL1  H27A 3328   2.333   4.048   4.791 -0.3260 -0.9150 -0.2068
   45CHL1  H27B 3329   2.344   4.181   4.674  0.6671  0.6417 -0.3751
   45CHL1  H27C 3330   2.285   4.024   4.612  0.6296  0.4143  0.4221
   46CHL1    C3 3331   6.015   4.356   3.363 -0.4391 -0.1554  0.0191
   46CHL1    H3 3332   5.960   4.260   3.368 -2.4094  0.8486 -1.1392
   46CHL1    O3 3333   6.085   4.357   3.235 -0.7173 -0.1900 -0.1479
   46CHL1   H3' 3334   6.102   4.264   3.215  2.8739  0.9576 -3.6828
   46CHL1    C4 3335   5.918   4.477   3.371 -0.0718 -0.1534 -0.5782
   46CHL1   H4A 3336   5.985   4.566   3.374 -0.9846  0.5735  2.5426
   46CHL1   H4B 3337   5.860   4.475   3.277  0.2166 -0.8499 -0.7472
   46CHL1    C5 3338   5.837   4.482   3.495 -0.7654 -0.2363  0.1635
   46CHL1    C6 3339   5.705   4.484   3.497  0.4614 -0.0406  0.0500
   46CHL1    H6 3340   5.646   4.485   3.404  0.2454  1.1485  0.1903
   46CHL1    C7 3341   5.631   4.480   3.629 -0.7309 -0.2908  0.4792
   46CHL1   H7A 3342   5.542   4.545   3.613  0.1971  0.9962  0.4180
   46CHL1   H7B 3343   5.580   4.381   3.630 -1.7127  0.1963  0.1889
   46CHL1    C8 3344   5.712   4.523   3.753  0.3642  0.0379  0.4052
   46CHL1    H8 3345   5.712   4.634   3.755  0.8294  0.0310  1.8010
   46CHL1   C14 3346   5.625   4.487   3.877  0.4007  0.5191 -0.1785
   46CHL1   H14 3347   5.607   4.378   3.862 -0.0278  0.9556 -3.5919
   46CHL1   C15 3348   5.488   4.559   3.899 -0.1622 -0.0136  1.3457
   46CHL1  H15A 3349   5.513   4.667   3.890  2.0340 -0.4824  1.3343
   46CHL1  H15B 3350   5.408   4.534   3.826  0.6028  1.1589  0.0626
   46CHL1   C16 3351   5.459   4.525   4.047 -0.4934  0.6283  0.4452
   46CHL1  H16A 3352   5.419   4.611   4.104 -1.7760  0.2263  0.1920
   46CHL1  H16B 3353   5.384   4.445   4.068  0.1210 -0.5392 -1.5134
   46CHL1   C17 3354   5.593   4.467   4.106  0.2913  0.2036 -0.0991
   46CHL1   H17 3355   5.590   4.358   4.085 -0.0297  0.4838 -1.6824
   46CHL1   C13 3356   5.703   4.509   4.009  0.1056  0.4039 -0.3225
   46CHL1   C18 3357   5.745   4.657   4.024  0.4278  0.4508 -0.5927
   46CHL1  H18A 3358   5.809   4.694   3.941 -0.1284  0.9982 -0.7886
   46CHL1  H18B 3359   5.658   4.721   4.050  0.2472 -1.3135  4.2776
   46CHL1  H18C 3360   5.809   4.663   4.115  0.8676 -1.1561 -0.7675
   46CHL1   C12 3361   5.829   4.426   4.015  0.0438  1.0128 -0.7473
   46CHL1  H12A 3362   5.898   4.450   4.099  0.8275  0.6802 -1.2804
   46CHL1  H12B 3363   5.802   4.320   4.035  3.1226  0.5128  1.4561
   46CHL1   C11 3364   5.914   4.447   3.891  0.3645  0.4394 -1.1130
   46CHL1  H11A 3365   5.967   4.543   3.911  0.6154  0.8239 -3.3710
   46CHL1  H11B 3366   5.990   4.366   3.898  1.0139  1.1510  0.6325
   46CHL1    C9 3367   5.843   4.447   3.751  0.2195 -0.7246 -0.4408
   46CHL1    H9 3368   5.809   4.343   3.737  0.6969 -0.7653 -1.3509
   46CHL1   C10 3369   5.922   4.474   3.622 -0.8894 -0.0742 -0.9979
   46CHL1   C19 3370   5.993   4.604   3.644  0.3637 -0.0405  0.7895
   46CHL1  H19A 3371   6.069   4.606   3.563 -1.0520 -3.3860 -0.7739
   46CHL1  H19B 3372   5.937   4.701   3.643  0.5452  0.1292  2.5239
   46CHL1  H19C 3373   6.054   4.605   3.737  0.8033  0.4640  0.5038
   46CHL1    C1 3374   6.039   4.370   3.614 -0.1268  0.1848  0.1973
   46CHL1   H1A 3375   6.113   4.368   3.697  0.0399 -2.0242  0.0610
   46CHL1   H1B 3376   5.990   4.271   3.625 -1.7148  1.0457  1.2617
   46CHL1    C2 3377   6.121   4.357   3.484  0.1411  1.1039 -0.0164
   46CHL1   H2A 3378   6.194   4.275   3.469 -0.7380  0.5631 -1.6101
   46CHL1   H2B 3379   6.181   4.450   3.473  0.3106  1.0660  0.5675
   46CHL1   C20 3380   5.619   4.501   4.254 -0.3687 -0.4245  0.5367
   46CHL1   H20 3381   5.729   4.497   4.269 -0.4601 -0.0965  1.3207
   46CHL1   C21 3382   5.559   4.387   4.334 -0.1344 -0.4685  0.3609
   46CHL1  H21A 3383   5.612   4.295   4.302  2.7163  1.0221  0.4385
   46CHL1  H21B 3384   5.449   4.381   4.322 -0.3822  2.2554  0.7778
   46CHL1  H21C 3385   5.588   4.410   4.439  0.6707  0.4560 -0.0457
   46CHL1   C22 3386   5.575   4.637   4.299  0.2071  0.6012 -0.4261
   46CHL1  H22A 3387   5.597   4.729   4.240 -0.9265  1.1204 -0.0676
   46CHL1  H22B 3388   5.465   4.625   4.305  0.5488 -3.4418  0.2589
   46CHL1   C23 3389   5.641   4.678   4.433 -0.0417 -0.3224  0.1830
   46CHL1  H23A 3390   5.631   4.591   4.501  2.2371 -1.7169 -1.1209
   46CHL1  H23B 3391   5.749   4.705   4.425 -0.5219  2.4582  1.7786
   46CHL1   C24 3392   5.567   4.800   4.497  0.3534 -0.3017 -0.4111
   46CHL1  H24A 3393   5.604   4.890   4.443  1.8935 -0.6753 -0.0254
   46CHL1  H24B 3394   5.456   4.799   4.485  0.4003 -3.5089 -1.6811
   46CHL1   C25 3395   5.609   4.819   4.646  0.5229 -0.1026  0.4703
   46CHL1   H25 3396   5.549   4.738   4.693 -0.1593 -0.3309 -0.7560
   46CHL1   C26 3397   5.761   4.808   4.665 -0.0286  0.0649 -0.0177
   46CHL1  H26A 3398   5.785   4.825   4.772 -0.3932 -1.6812  0.3738
   46CHL1  H26B 3399   5.797   4.706   4.638 -0.0509  0.3102 -0.9978
   46CHL1  H26C 3400   5.809   4.877   4.592  2.0579 -1.2876 -0.0362
   46CHL1   C27 3401   5.550   4.951   4.698 -0.0104  0.0479 -0.1174
   46CHL1  H27A 3402   5.554   4.971   4.807  0.5582 -1.2150  0.1171
   46CHL1  H27B 3403   5.590   5.034   4.636 -0.0300 -0.7540 -1.2434
   46CHL1  H27C 3404   5.440   4.956   4.685 -0.4110  2.0918  3.0960
   47CHL1    C3 3405   3.080   5.076   3.439 -0.1615 -0.1629 -0.5596
   47CHL1    H3 3406   3.021   4.983   3.430 -0.4994  0.0250 -0.2989
   47CHL1    O3 3407   3.115   5.110   3.308  0.3163  0.4433  1.3892
   47CHL1   H3' 3408   3.151   5.199   3.309  0.6925  0.4069 -1.2928
   47CHL1    C4 3409   3.006   5.192   3.504 -0.3662  0.4927  0.0504
   47CHL1   H4A 3410   3.069   5.282   3.519  1.6410 -0.5974 -1.2038
   47CHL1   H4B 3411   2.928   5.227   3.434 -0.6395  1.0287  0.6186
   47CHL1    C5 3412   2.967   5.143   3.643  0.6149 -0.2863 -0.1028
   47CHL1    C6 3413   2.835   5.116   3.673 -0.4769 -0.4559  0.1491
   47CHL1    H6 3414   2.751   5.124   3.603  0.9065 -0.6432 -1.6123
   47CHL1    C7 3415   2.795   5.081   3.814  0.1363 -0.0130  1.4645
   47CHL1   H7A 3416   2.703   5.132   3.850 -0.9196 -1.2306  0.5798
   47CHL1   H7B 3417   2.779   4.971   3.824  1.1948 -0.4098 -0.6274
   47CHL1    C8 3418   2.905   5.113   3.916  0.7779 -0.0897  0.1657
   47CHL1    H8 3419   2.915   5.223   3.922  0.3363 -0.1252  3.2611
   47CHL1   C14 3420   2.873   5.054   4.057  0.0613  0.5291  0.7086
   47CHL1   H14 3421   2.870   4.944   4.041  0.9951  0.7055 -0.8537
   47CHL1   C15 3422   2.743   5.093   4.127 -0.4830 -0.5123  0.1625
   47CHL1  H15A 3423   2.745   5.203   4.116 -1.1625 -0.5228 -0.1695
   47CHL1  H15B 3424   2.651   5.058   4.076 -0.4378 -0.1606 -0.1677
   47CHL1   C16 3425   2.755   5.047   4.272 -0.0931 -0.3334  0.3537
   47CHL1  H16A 3426   2.735   5.130   4.344  0.5175  0.4667 -0.3925
   47CHL1  H16B 3427   2.690   4.958   4.284  0.6205 -0.8277  0.6105
   47CHL1   C17 3428   2.905   5.012   4.295 -0.9950  0.1278  0.4815
   47CHL1   H17 3429   2.907   4.902   4.287  0.4643  0.1662 -0.1276
   47CHL1   C13 3430   2.985   5.066   4.169  0.0271 -0.4597  0.0782
   47CHL1   C18 3431   3.009   5.210   4.202 -0.5051  0.3383  0.4133
   47CHL1  H18A 3432   3.012   5.260   4.103  0.7290  1.0069  0.7699
   47CHL1  H18B 3433   2.931   5.267   4.258 -1.3004  0.9211 -1.2141
   47CHL1  H18C 3434   3.109   5.217   4.250 -0.6265  1.9697  0.4939
   47CHL1   C12 3435   3.105   4.988   4.116  0.4683 -0.5383 -0.8598
   47CHL1  H12A 3436   3.189   4.998   4.188 -0.8484  2.3698  0.4761
   47CHL1  H12B 3437   3.067   4.885   4.098 -1.0549  0.2506 -2.5674
   47CHL1   C11 3438   3.143   5.051   3.979  0.7117 -0.5524 -0.1978
   47CHL1  H11A 3439   3.178   5.154   3.999 -1.3080  0.2657 -0.6004
   47CHL1  H11B 3440   3.227   4.995   3.932  1.4933  0.3167  0.1513
   47CHL1    C9 3441   3.037   5.048   3.868 -0.1446 -0.0101 -0.0074
   47CHL1    H9 3442   3.008   4.943   3.849  3.5566 -1.7271  2.6204
   47CHL1   C10 3443   3.084   5.108   3.737  0.2839  0.2742  0.4493
   47CHL1   C19 3444   3.172   5.234   3.775  0.4981  0.3887 -0.0254
   47CHL1  H19A 3445   3.192   5.286   3.679 -1.8156 -0.6493 -1.1548
   47CHL1  H19B 3446   3.121   5.312   3.835  0.3804  0.7149 -0.5359
   47CHL1  H19C 3447   3.272   5.211   3.817 -0.4226  2.1538  3.4283
   47CHL1    C1 3448   3.176   5.010   3.668 -0.3985  0.5992  0.5282
   47CHL1   H1A 3449   3.270   4.999   3.725 -0.6595 -1.0395  0.6839
   47CHL1   H1B 3450   3.116   4.917   3.666  0.1860  0.2082 -2.0693
   47CHL1    C2 3451   3.208   5.045   3.518  0.4306  0.5501 -0.1738
   47CHL1   H2A 3452   3.251   4.954   3.472  2.0168 -0.6069  3.2670
   47CHL1   H2B 3453   3.262   5.142   3.515 -1.7706  1.8311 -1.1772
   47CHL1   C20 3454   2.955   5.056   4.432  0.7752 -0.4093 -0.0822
   47CHL1   H20 3455   2.955   5.167   4.435  3.1245 -0.2065 -3.2134
   47CHL1   C21 3456   3.100   5.013   4.465 -0.0507 -0.7203  0.4142
   47CHL1  H21A 3457   3.179   5.066   4.408 -0.4783  0.8534  1.2146
   47CHL1  H21B 3458   3.118   4.905   4.444 -0.9603 -0.3569 -2.8348
   47CHL1  H21C 3459   3.127   5.021   4.573 -0.0609  1.0444  0.3143
   47CHL1   C22 3460   2.856   5.003   4.550 -0.5888  0.1483 -0.1955
   47CHL1  H22A 3461   2.905   5.036   4.644 -1.1363  1.2901 -0.2976
   47CHL1  H22B 3462   2.753   5.044   4.547 -0.6158  0.0479 -1.8957
   47CHL1   C23 3463   2.835   4.846   4.556 -0.4549  0.1477 -0.1900
   47CHL1  H23A 3464   2.783   4.828   4.459  1.2327  1.4519 -1.3929
   47CHL1  H23B 3465   2.936   4.799   4.551  0.9384  2.4175  3.1954
   47CHL1   C24 3466   2.758   4.793   4.676  0.3084  0.0869  0.6483
   47CHL1  H24A 3467   2.660   4.845   4.670  0.4832  0.3757  0.3054
   47CHL1  H24B 3468   2.751   4.684   4.661  1.5420  0.0080  0.5421
   47CHL1   C25 3469   2.807   4.820   4.817  0.2118  0.3240 -0.0373
   47CHL1   H25 3470   2.824   4.929   4.814  0.0477  0.3391 -0.5601
   47CHL1   C26 3471   2.706   4.775   4.922  0.3877 -0.1765  0.3827
   47CHL1  H26A 3472   2.689   4.669   4.898 -0.3594  0.1576 -0.5920
   47CHL1  H26B 3473   2.743   4.796   5.025 -0.2264  0.0395  0.5666
   47CHL1  H26C 3474   2.607   4.821   4.904 -0.3330 -1.4805  0.9076
   47CHL1   C27 3475   2.946   4.764   4.833  0.0739 -0.0830 -0.2036
   47CHL1  H27A 3476   2.983   4.760   4.938  1.1411  1.4569 -0.4930
   47CHL1  H27B 3477   2.952   4.666   4.780 -0.3530 -0.5250  0.5594
   47CHL1  H27C 3478   3.015   4.832   4.779 -0.2278 -0.0124 -0.5070
   48CHL1    C3 3479   6.181   0.631   3.137 -0.5467  0.8153  0.7199
   48CHL1    H3 3480   6.229   0.531   3.132 -0.1747  0.9676  1.1384
   48CHL1    O3 3481   6.157   0.685   3.009 -0.4844 -0.2143  0.0794
   48CHL1   H3' 3482   6.126   0.775   3.017  1.5240  0.5650 -0.1829
   48CHL1    C4 3483   6.052   0.628   3.218  0.1252 -0.6300 -0.1906
   48CHL1   H4A 3484   6.008   0.730   3.218 -2.2272 -1.5197  2.1127
   48CHL1   H4B 3485   5.982   0.562   3.163 -1.4625  0.5051  0.3469
   48CHL1    C5 3486   6.066   0.581   3.366 -0.1986  0.2690  0.5617
   48CHL1    C6 3487   6.008   0.467   3.417 -0.1227 -0.1433 -0.0593
   48CHL1    H6 3488   5.931   0.421   3.354 -0.1830 -0.7074  0.4149
   48CHL1    C7 3489   6.029   0.419   3.556 -0.5790 -0.0450 -0.4744
   48CHL1   H7A 3490   5.943   0.373   3.610  1.4021 -2.0550  1.1812
   48CHL1   H7B 3491   6.090   0.326   3.555 -0.1199  0.2389  0.4142
   48CHL1    C8 3492   6.096   0.528   3.646  0.5827  0.2337  0.1038
   48CHL1    H8 3493   6.025   0.608   3.674  1.2930  0.2797  1.9263
   48CHL1   C14 3494   6.148   0.461   3.774  0.3357 -0.2184  0.1423
   48CHL1   H14 3495   6.218   0.389   3.727 -0.9529 -0.1513 -2.0235
   48CHL1   C15 3496   6.044   0.378   3.855 -0.2833 -0.7133 -0.1450
   48CHL1  H15A 3497   5.953   0.436   3.879  1.9683  3.5029 -0.7751
   48CHL1  H15B 3498   6.022   0.292   3.788  0.7480  0.3184 -1.9019
   48CHL1   C16 3499   6.113   0.355   3.985 -0.2380  0.2459 -0.9519
   48CHL1  H16A 3500   6.045   0.367   4.072 -0.5790 -1.9680 -0.8561
   48CHL1  H16B 3501   6.149   0.250   3.975  2.0396  0.4917  2.8368
   48CHL1   C17 3502   6.241   0.444   3.987 -0.0811  0.0852  0.5068
   48CHL1   H17 3503   6.315   0.373   3.946 -2.3596 -0.8544 -2.2745
   48CHL1   C13 3504   6.224   0.552   3.872  0.3679  0.5668 -0.2648
   48CHL1   C18 3505   6.133   0.669   3.927 -0.0699 -0.0871 -0.6604
   48CHL1  H18A 3506   6.185   0.735   4.000 -0.7064 -0.1081 -0.1739
   48CHL1  H18B 3507   6.094   0.738   3.848  0.3057 -1.0886 -1.7422
   48CHL1  H18C 3508   6.045   0.626   3.979 -0.9786 -0.4443 -2.4075
   48CHL1   C12 3509   6.353   0.604   3.799 -0.0686  0.2804  0.4391
   48CHL1  H12A 3510   6.411   0.667   3.871 -1.0264  3.1102 -1.0907
   48CHL1  H12B 3511   6.429   0.534   3.759  1.6440  2.6029 -0.6022
   48CHL1   C11 3512   6.302   0.685   3.667 -0.0819  0.0407  0.1748
   48CHL1  H11A 3513   6.250   0.782   3.682  0.1593  0.2551 -0.3782
   48CHL1  H11B 3514   6.397   0.710   3.616  0.2718 -0.1592  0.7252
   48CHL1    C9 3515   6.216   0.597   3.572 -0.6858 -0.3013  0.4690
   48CHL1    H9 3516   6.280   0.512   3.541  0.4964  0.9205 -0.5691
   48CHL1   C10 3517   6.168   0.671   3.439 -0.7834  0.4104  0.1969
   48CHL1   C19 3518   6.110   0.805   3.468  0.2166  0.1920  0.2002
   48CHL1  H19A 3519   6.187   0.869   3.516  0.8630  0.4998 -1.2049
   48CHL1  H19B 3520   6.071   0.865   3.384  3.0948  1.0523 -0.6424
   48CHL1  H19C 3521   6.033   0.784   3.545  0.2852  0.9278  0.4780
   48CHL1    C1 3522   6.301   0.693   3.356  0.4052 -0.0089  0.3701
   48CHL1   H1A 3523   6.367   0.764   3.410 -0.7806  0.9429  0.6378
   48CHL1   H1B 3524   6.349   0.593   3.352  0.6473  0.0425  1.8297
   48CHL1    C2 3525   6.274   0.732   3.210  0.2855  0.1433 -0.1573
   48CHL1   H2A 3526   6.374   0.739   3.164 -0.4632 -0.1418 -1.8943
   48CHL1   H2B 3527   6.222   0.830   3.202  0.7423  0.3298 -0.9513
   48CHL1   C20 3528   6.276   0.483   4.130 -0.2353  0.1478 -0.0924
   48CHL1   H20 3529   6.204   0.562   4.162  1.0659  0.1353  3.2414
   48CHL1   C21 3530   6.413   0.549   4.129 -0.7029  0.1762  0.0866
   48CHL1  H21A 3531   6.492   0.488   4.081 -0.7759  1.6024 -1.9953
   48CHL1  H21B 3532   6.448   0.581   4.229 -0.2485  1.4085 -0.4428
   48CHL1  H21C 3533   6.405   0.646   4.074 -0.9301  1.0364  1.5736
   48CHL1   C22 3534   6.280   0.362   4.231 -0.1326  0.2147  0.1473
   48CHL1  H22A 3535   6.174   0.327   4.235  0.4469 -1.9396 -1.6050
   48CHL1  H22B 3536   6.355   0.288   4.197  0.3237 -0.0770  1.6933
   48CHL1   C23 3537   6.305   0.402   4.377  0.5216 -0.6495 -0.8785
   48CHL1  H23A 3538   6.408   0.442   4.384  0.3438 -0.1179 -1.2204
   48CHL1  H23B 3539   6.232   0.480   4.406 -1.7074 -1.9503 -2.6322
   48CHL1   C24 3540   6.282   0.285   4.478  0.2088  0.4629 -0.5606
   48CHL1  H24A 3541   6.177   0.249   4.468 -0.0443  1.4070 -1.3721
   48CHL1  H24B 3542   6.343   0.201   4.437  1.6380  0.8053  0.7333
   48CHL1   C25 3543   6.315   0.318   4.627 -0.9694  0.6804  0.4810
   48CHL1   H25 3544   6.422   0.347   4.634 -0.3858 -1.4132  0.8964
   48CHL1   C26 3545   6.222   0.419   4.686  0.5099 -0.1603  0.1715
   48CHL1  H26A 3546   6.243   0.517   4.638 -0.1729 -0.0909  0.0157
   48CHL1  H26B 3547   6.115   0.395   4.669  0.0741  1.5847  0.3211
   48CHL1  H26C 3548   6.245   0.437   4.793 -1.6863  1.4431  0.4176
   48CHL1   C27 3549   6.301   0.186   4.708  0.0778 -0.1508 -0.5667
   48CHL1  H27A 3550   6.328   0.183   4.816 -0.4831 -0.8965 -0.4394
   48CHL1  H27B 3551   6.197   0.148   4.704 -0.5795  1.3448  0.8295
   48CHL1  H27C 3552   6.358   0.106   4.658 -0.9499 -0.9564 -0.4795
   49CHL1    C3 3553   1.188   4.501   3.209  0.7618 -0.0232 -0.6673
   49CHL1    H3 3554   1.241   4.406   3.228 -1.3156 -0.5485  3.6765
   49CHL1    O3 3555   1.181   4.530   3.069 -0.1322 -0.1595  0.2844
   49CHL1   H3' 3556   1.126   4.609   3.065 -1.6866 -0.9991  2.6058
   49CHL1    C4 3557   1.049   4.487   3.269  0.4255 -0.0002 -0.0636
   49CHL1   H4A 3558   0.988   4.577   3.249  0.5628  1.4181  4.6057
   49CHL1   H4B 3559   0.985   4.403   3.234 -0.1537 -0.3401  1.6626
   49CHL1    C5 3560   1.055   4.485   3.418 -0.3768 -0.3691 -0.6230
   49CHL1    C6 3561   0.997   4.392   3.491  0.2233 -0.4455  0.6435
   49CHL1    H6 3562   0.944   4.309   3.441 -0.4821 -0.1825  0.9445
   49CHL1    C7 3563   0.999   4.376   3.641 -0.5262 -1.0944 -0.3114
   49CHL1   H7A 3564   0.902   4.348   3.687 -1.2050  1.4108 -0.1001
   49CHL1   H7B 3565   1.080   4.304   3.667  0.2965  0.2341  0.9507
   49CHL1    C8 3566   1.042   4.508   3.717  0.5611 -0.0485 -0.4413
   49CHL1    H8 3567   0.963   4.586   3.723  1.5047  0.8698  0.3428
   49CHL1   C14 3568   1.075   4.476   3.864 -0.2357  0.2699 -0.4743
   49CHL1   H14 3569   1.154   4.398   3.855 -1.2947 -1.0532  1.1929
   49CHL1   C15 3570   0.963   4.403   3.945  1.4006 -0.3258  0.0494
   49CHL1  H15A 3571   0.862   4.431   3.908  1.5414 -1.1294 -1.0063
   49CHL1  H15B 3572   0.964   4.293   3.931 -0.4510 -0.6137  1.8638
   49CHL1   C16 3573   1.001   4.421   4.091 -0.0170 -0.4497 -0.5726
   49CHL1  H16A 3574   0.917   4.472   4.142  1.6661  0.2586  1.6563
   49CHL1  H16B 3575   0.995   4.328   4.151 -1.4824  0.5727  0.9642
   49CHL1   C17 3576   1.132   4.506   4.086 -0.1636  0.7682 -0.6818
   49CHL1   H17 3577   1.206   4.424   4.077 -0.6901  0.2996 -0.7870
   49CHL1   C13 3578   1.122   4.582   3.956 -0.2551 -0.2297  0.1767
   49CHL1   C18 3579   1.013   4.697   3.969  0.1260  0.0108  0.0077
   49CHL1  H18A 3580   1.052   4.765   4.047  1.7755 -2.1339  1.1539
   49CHL1  H18B 3581   1.015   4.765   3.882  2.5170  0.8851  0.6824
   49CHL1  H18C 3582   0.914   4.650   3.990  0.1395  0.5662  1.3642
   49CHL1   C12 3583   1.247   4.643   3.892 -0.5199 -0.7276 -0.7937
   49CHL1  H12A 3584   1.250   4.738   3.951  1.2418 -1.2034 -0.0475
   49CHL1  H12B 3585   1.339   4.583   3.907  1.0193  1.3927 -1.1804
   49CHL1   C11 3586   1.236   4.674   3.735  0.0639 -0.4660  0.3263
   49CHL1  H11A 3587   1.171   4.764   3.730  0.6289 -0.1246 -1.2930
   49CHL1  H11B 3588   1.332   4.701   3.686  0.2543 -0.4608  0.6983
   49CHL1    C9 3589   1.166   4.564   3.649 -1.0668 -0.2984 -0.3598
   49CHL1    H9 3590   1.234   4.476   3.652  0.8476  1.0544 -1.6709
   49CHL1   C10 3591   1.136   4.594   3.493  0.1532  0.2964 -0.1385
   49CHL1   C19 3592   1.067   4.730   3.468  0.1450 -0.0056 -0.3756
   49CHL1  H19A 3593   1.115   4.800   3.540  2.6564 -3.1194  1.2042
   49CHL1  H19B 3594   1.084   4.779   3.369  0.0413  0.6568 -0.0684
   49CHL1  H19C 3595   0.958   4.731   3.487  0.6567  0.9512  3.0450
   49CHL1    C1 3596   1.275   4.601   3.420 -0.1421 -0.3595 -0.7909
   49CHL1   H1A 3597   1.335   4.684   3.462 -2.6661  0.3742  1.6887
   49CHL1   H1B 3598   1.335   4.510   3.441  1.2321  0.7619  0.3235
   49CHL1    C2 3599   1.274   4.610   3.267  0.3019  0.0613  0.3612
   49CHL1   H2A 3600   1.376   4.599   3.224  2.5368  0.3737  4.9703
   49CHL1   H2B 3601   1.239   4.711   3.236 -0.4686 -0.5806 -0.9434
   49CHL1   C20 3602   1.175   4.578   4.217 -0.3302 -0.4651  0.5701
   49CHL1   H20 3603   1.133   4.681   4.218 -0.2300 -0.4299  0.9741
   49CHL1   C21 3604   1.330   4.595   4.213 -0.0702  0.0546 -0.0057
   49CHL1  H21A 3605   1.362   4.643   4.119  0.4997  1.7656  1.0113
   49CHL1  H21B 3606   1.386   4.502   4.239  0.8442  1.0968  1.9985
   49CHL1  H21C 3607   1.367   4.657   4.297  2.6530  0.2671 -1.2858
   49CHL1   C22 3608   1.145   4.506   4.346  0.1290 -0.0543  0.7614
   49CHL1  H22A 3609   1.035   4.498   4.356 -0.4044  2.2952 -2.0557
   49CHL1  H22B 3610   1.191   4.405   4.342 -1.4186 -0.7353 -1.5935
   49CHL1   C23 3611   1.191   4.584   4.470 -0.3342  0.1916  0.1629
   49CHL1  H23A 3612   1.302   4.583   4.468 -0.3383 -0.1617 -1.0519
   49CHL1  H23B 3613   1.165   4.692   4.482  0.8981  0.5249 -0.0840
   49CHL1   C24 3614   1.147   4.504   4.591  0.2157  0.6014 -0.0709
   49CHL1  H24A 3615   1.036   4.505   4.604 -0.0969  2.5917 -2.1938
   49CHL1  H24B 3616   1.187   4.401   4.585  1.3785  0.8818  2.0741
   49CHL1   C25 3617   1.194   4.562   4.725 -0.0126 -0.9160 -0.3462
   49CHL1   H25 3618   1.305   4.567   4.728  0.1606 -1.7865 -3.0798
   49CHL1   C26 3619   1.128   4.696   4.741  0.3645 -0.2353 -0.1123
   49CHL1  H26A 3620   1.148   4.734   4.844  1.9274  0.3963 -0.6101
   49CHL1  H26B 3621   1.173   4.772   4.673 -2.5557 -0.0694 -2.0677
   49CHL1  H26C 3622   1.017   4.690   4.733  0.1561  0.9415  1.2878
   49CHL1   C27 3623   1.150   4.461   4.829 -0.4280 -0.6234 -0.0570
   49CHL1  H27A 3624   1.051   4.421   4.798  0.2018 -0.6925 -2.1317
   49CHL1  H27B 3625   1.222   4.377   4.829 -1.5287 -1.6262 -1.6122
   49CHL1  H27C 3626   1.140   4.507   4.929 -1.3574 -1.4151  0.2241
   50CHL1    C3 3627   6.693   4.436   3.302  0.0199 -0.3065 -0.6329
   50CHL1    H3 3628   6.788   4.379   3.306  0.7008  0.7964 -0.5767
   50CHL1    O3 3629   6.663   4.483   3.170 -0.2289  0.2135  0.2071
   50CHL1   H3' 3630   6.598   4.552   3.177 -0.1694  0.4016 -0.8543
   50CHL1    C4 3631   6.575   4.340   3.343 -0.0316 -0.6206 -0.2083
   50CHL1   H4A 3632   6.482   4.392   3.311 -0.9160 -1.8392  0.2735
   50CHL1   H4B 3633   6.573   4.254   3.273 -4.9851 -1.5198  0.6267
   50CHL1    C5 3634   6.597   4.310   3.488 -0.6146  0.1079 -0.1748
   50CHL1    C6 3635   6.610   4.181   3.536  0.5399  0.1536 -0.5572
   50CHL1    H6 3636   6.593   4.102   3.461  2.0010 -1.2482  0.5365
   50CHL1    C7 3637   6.612   4.130   3.678  0.2674  0.0381 -0.0617
   50CHL1   H7A 3638   6.548   4.040   3.688  1.1677 -0.5595  0.4052
   50CHL1   H7B 3639   6.715   4.095   3.700 -0.0537 -1.0713 -0.2683
   50CHL1    C8 3640   6.577   4.249   3.774 -0.0057 -0.1447 -0.1304
   50CHL1    H8 3641   6.467   4.260   3.771  0.2855  3.6933 -2.1671
   50CHL1   C14 3642   6.626   4.211   3.910  0.4855  0.2933 -0.3268
   50CHL1   H14 3643   6.737   4.220   3.906  0.6710 -0.3184  1.9787
   50CHL1   C15 3644   6.592   4.075   3.974 -0.7983  0.0447  0.3547
   50CHL1  H15A 3645   6.483   4.053   3.978 -0.5270 -1.2845  1.4417
   50CHL1  H15B 3646   6.649   3.991   3.928 -1.3031  0.1830 -0.5516
   50CHL1   C16 3647   6.651   4.095   4.115 -0.4604  0.0862  0.4766
   50CHL1  H16A 3648   6.576   4.042   4.178 -2.0408  2.3731  0.6178
   50CHL1  H16B 3649   6.752   4.051   4.128  0.0549  1.0233 -0.2627
   50CHL1   C17 3650   6.660   4.244   4.151 -0.2983 -0.2419 -0.2189
   50CHL1   H17 3651   6.765   4.278   4.137 -1.0322  4.7316  3.6385
   50CHL1   C13 3652   6.587   4.308   4.029 -0.0430  0.5335 -0.0861
   50CHL1   C18 3653   6.435   4.307   4.057  0.0684 -0.2311 -0.3189
   50CHL1  H18A 3654   6.389   4.314   3.956  1.6606 -0.4022 -1.1023
   50CHL1  H18B 3655   6.394   4.217   4.105  0.9397  1.5964  4.3561
   50CHL1  H18C 3656   6.423   4.386   4.134 -0.9093 -1.1740  0.5082
   50CHL1   C12 3657   6.641   4.446   3.987 -0.2318 -0.1714  0.0037
   50CHL1  H12A 3658   6.588   4.522   4.049 -0.0083 -0.2194  0.2530
   50CHL1  H12B 3659   6.744   4.461   4.024 -0.8153  1.2460  1.1926
   50CHL1   C11 3660   6.600   4.493   3.846  0.1048  0.3422  0.8134
   50CHL1  H11A 3661   6.490   4.508   3.845 -0.1254 -0.9862  2.0944
   50CHL1  H11B 3662   6.646   4.591   3.819 -0.1395  0.5807  1.2443
   50CHL1    C9 3663   6.629   4.381   3.734 -0.0560 -0.5031  0.2310
   50CHL1    H9 3664   6.738   4.367   3.720 -0.4307 -4.0770  0.0028
   50CHL1   C10 3665   6.597   4.434   3.586 -0.3303  0.9592 -0.4070
   50CHL1   C19 3666   6.455   4.497   3.582  0.8345 -0.4102  0.0491
   50CHL1  H19A 3667   6.421   4.518   3.478  3.2811 -0.7792 -0.8992
   50CHL1  H19B 3668   6.380   4.426   3.621 -1.0850  1.0936 -0.7368
   50CHL1  H19C 3669   6.455   4.588   3.645  1.7651  1.1233 -2.0336
   50CHL1    C1 3670   6.711   4.529   3.535  0.0847  1.2013 -0.0189
   50CHL1   H1A 3671   6.709   4.613   3.607  0.3048 -0.7783  2.4084
   50CHL1   H1B 3672   6.810   4.481   3.543 -0.4893 -0.0119  0.0852
   50CHL1    C2 3673   6.700   4.565   3.387 -0.2402 -0.1899 -0.0596
   50CHL1   H2A 3674   6.780   4.635   3.356 -0.1193 -0.1991  0.2313
   50CHL1   H2B 3675   6.600   4.612   3.373 -0.6044 -0.7321  0.6280
   50CHL1   C20 3676   6.640   4.298   4.292 -0.1862  0.2494  0.4370
   50CHL1   H20 3677   6.532   4.309   4.313  0.0057 -2.3820  3.4138
   50CHL1   C21 3678   6.706   4.439   4.306  0.4847  0.8025  0.0178
   50CHL1  H21A 3679   6.716   4.467   4.413  1.6532 -1.0844  0.4453
   50CHL1  H21B 3680   6.652   4.525   4.260 -0.8685  0.1728  0.3596
   50CHL1  H21C 3681   6.811   4.434   4.272  0.4200 -1.4755  0.0302
   50CHL1   C22 3682   6.692   4.197   4.395  0.3678  0.0900 -0.0578
   50CHL1  H22A 3683   6.640   4.100   4.379 -0.4647  0.5147  0.0426
   50CHL1  H22B 3684   6.800   4.178   4.376  0.4199 -1.9993  1.8950
   50CHL1   C23 3685   6.671   4.231   4.548 -0.2392 -0.2477  0.2003
   50CHL1  H23A 3686   6.719   4.162   4.620 -2.2237  0.0688  1.9405
   50CHL1  H23B 3687   6.723   4.329   4.558 -1.0736  0.3078 -0.7427
   50CHL1   C24 3688   6.525   4.238   4.588 -0.4233  0.5468  0.5163
   50CHL1  H24A 3689   6.469   4.305   4.520  0.4305 -1.0618 -1.9587
   50CHL1  H24B 3690   6.477   4.141   4.560 -3.1182  2.2869 -1.3928
   50CHL1   C25 3691   6.504   4.280   4.734 -0.4748  0.6291 -0.2062
   50CHL1   H25 3692   6.395   4.281   4.751 -0.6965 -2.9263 -0.5903
   50CHL1   C26 3693   6.573   4.193   4.837  0.2734 -0.6155 -0.0614
   50CHL1  H26A 3694   6.544   4.237   4.934  1.3541  0.8085 -0.3430
   50CHL1  H26B 3695   6.550   4.085   4.821  0.8891 -0.6793 -0.5730
   50CHL1  H26C 3696   6.684   4.204   4.846  0.2913 -2.0506  2.0432
   50CHL1   C27 3697   6.544   4.429   4.738 -0.7061 -0.1192  0.6507
   50CHL1  H27A 3698   6.474   4.476   4.665  0.2391 -0.7822 -0.7297
   50CHL1  H27B 3699   6.536   4.470   4.841  0.0367 -1.5346  1.3038
   50CHL1  H27C 3700   6.642   4.449   4.691 -0.6423  0.6925  1.1158
   51CHL1    C3 3701   1.774   4.738   3.078  0.6521  0.0637  0.2154
   51CHL1    H3 3702   1.809   4.843   3.068 -0.7447  0.2993 -3.5437
   51CHL1    O3 3703   1.744   4.696   2.946 -0.7417 -0.6605  0.1070
   51CHL1   H3' 3704   1.720   4.603   2.948 -3.6043 -0.0492 -0.3181
   51CHL1    C4 3705   1.872   4.651   3.156 -0.5090 -0.3120 -0.6739
   51CHL1   H4A 3706   1.836   4.547   3.146 -1.9065 -0.1454  1.6760
   51CHL1   H4B 3707   1.970   4.662   3.105  0.1219 -1.5061  0.2572
   51CHL1    C5 3708   1.877   4.688   3.303 -0.0251  0.1241  0.1421
   51CHL1    C6 3709   1.988   4.725   3.362 -1.1745  0.0563 -1.4847
   51CHL1    H6 3710   2.082   4.722   3.305 -0.1910 -1.8625  0.1022
   51CHL1    C7 3711   2.005   4.770   3.506  0.0967  0.4570 -0.1561
   51CHL1   H7A 3712   2.095   4.720   3.548  0.4954  0.9083 -0.4574
   51CHL1   H7B 3713   2.010   4.881   3.511 -0.2502  0.4752 -0.1952
   51CHL1    C8 3714   1.882   4.719   3.591  0.0681 -1.0022 -0.4159
   51CHL1    H8 3715   1.884   4.609   3.608 -0.6724 -0.7879  1.2243
   51CHL1   C14 3716   1.879   4.792   3.727  0.0099  0.4815  0.2713
   51CHL1   H14 3717   1.896   4.899   3.701  0.3369  1.0308  2.4800
   51CHL1   C15 3718   1.999   4.759   3.818 -0.0386 -0.0181  1.0282
   51CHL1  H15A 3719   2.029   4.653   3.807 -0.8245 -0.2805  1.3590
   51CHL1  H15B 3720   2.079   4.826   3.780  0.0538 -0.1814  0.9365
   51CHL1   C16 3721   1.952   4.797   3.959 -0.6151  0.0014  0.1180
   51CHL1  H16A 3722   1.970   4.707   4.021  0.1707  1.5606  2.2544
   51CHL1  H16B 3723   1.997   4.884   4.012  1.6037 -1.1103  0.1806
   51CHL1   C17 3724   1.800   4.831   3.949  0.5399  0.0558 -0.3246
   51CHL1   H17 3725   1.792   4.942   3.942  0.3549  0.2790  2.4135
   51CHL1   C13 3726   1.755   4.774   3.816 -0.0559  0.0458 -0.2601
   51CHL1   C18 3727   1.734   4.625   3.838  0.1382  0.1175 -0.1544
   51CHL1  H18A 3728   1.639   4.603   3.890  0.5185  2.7115  1.8489
   51CHL1  H18B 3729   1.732   4.576   3.738  0.3769 -0.6356  0.2050
   51CHL1  H18C 3730   1.820   4.583   3.893 -1.2285 -2.6044  0.0317
   51CHL1   C12 3731   1.646   4.840   3.742  0.0397 -0.1233  0.3865
   51CHL1  H12A 3732   1.541   4.834   3.778 -0.7033  0.2893 -1.6092
   51CHL1  H12B 3733   1.672   4.946   3.721  0.2932 -0.5787 -1.7754
   51CHL1   C11 3734   1.626   4.772   3.602 -0.3624  0.3888  0.1203
   51CHL1  H11A 3735   1.573   4.676   3.618  1.2939 -1.0971 -2.6451
   51CHL1  H11B 3736   1.558   4.843   3.550  1.5702  1.0019 -1.7131
   51CHL1    C9 3737   1.758   4.768   3.518 -0.2221  0.4448 -0.1349
   51CHL1    H9 3738   1.780   4.875   3.502 -0.5565  0.4251 -0.7429
   51CHL1   C10 3739   1.746   4.704   3.373 -0.0946  0.8240 -0.3784
   51CHL1   C19 3740   1.676   4.571   3.398 -0.1049 -0.5921 -0.0661
   51CHL1  H19A 3741   1.669   4.514   3.303  2.3824  1.9274 -1.9341
   51CHL1  H19B 3742   1.739   4.510   3.467 -1.0045  1.9016  3.2643
   51CHL1  H19C 3743   1.576   4.582   3.445  0.0875 -1.3988  0.5670
   51CHL1    C1 3744   1.645   4.788   3.292  0.3583 -0.3151 -0.6629
   51CHL1   H1A 3745   1.540   4.792   3.329  0.2849 -0.1673 -0.8877
   51CHL1   H1B 3746   1.682   4.893   3.290  0.4336 -0.3473 -1.2232
   51CHL1    C2 3747   1.634   4.744   3.145  0.6608 -0.3248 -0.8232
   51CHL1   H2A 3748   1.575   4.822   3.094  0.5864 -0.7398 -1.3902
   51CHL1   H2B 3749   1.574   4.651   3.138  1.1105 -0.4987 -3.4726
   51CHL1   C20 3750   1.722   4.789   4.073  0.0133  0.4894 -0.6627
   51CHL1   H20 3751   1.731   4.679   4.082  2.0949  0.7353  1.3058
   51CHL1   C21 3752   1.580   4.840   4.045  0.9919 -0.6541  0.2123
   51CHL1  H21A 3753   1.580   4.951   4.051  1.6861 -0.6078 -0.5792
   51CHL1  H21B 3754   1.517   4.825   4.136 -0.6159  0.1789 -0.7037
   51CHL1  H21C 3755   1.511   4.797   3.969 -1.0336  0.7393  1.1753
   51CHL1   C22 3756   1.790   4.827   4.211 -0.3455  0.0594  0.1058
   51CHL1  H22A 3757   1.881   4.764   4.211 -0.0960  0.4184  0.3905
   51CHL1  H22B 3758   1.820   4.933   4.225  1.5107 -0.4365  0.1679
   51CHL1   C23 3759   1.706   4.776   4.327 -0.4777  0.5831  0.1712
   51CHL1  H23A 3760   1.612   4.836   4.326 -0.6721  0.3362  1.6598
   51CHL1  H23B 3761   1.697   4.665   4.316  2.0815  0.2744  0.6736
   51CHL1   C24 3762   1.757   4.796   4.476  0.1800 -0.5927 -0.0854
   51CHL1  H24A 3763   1.859   4.752   4.471  0.2180 -0.5927  0.7065
   51CHL1  H24B 3764   1.760   4.906   4.492 -3.3396 -0.6050  1.7579
   51CHL1   C25 3765   1.671   4.735   4.590  0.0656 -0.0274  0.2573
   51CHL1   H25 3766   1.675   4.625   4.573  1.5801 -0.0464  0.6008
   51CHL1   C26 3767   1.752   4.764   4.714  0.1572  0.3586 -0.0994
   51CHL1  H26A 3768   1.859   4.739   4.694 -0.8197 -4.2654 -0.6231
   51CHL1  H26B 3769   1.751   4.870   4.748  0.0055 -0.3261  2.1927
   51CHL1  H26C 3770   1.718   4.690   4.789 -0.2963 -1.5228 -2.0393
   51CHL1   C27 3771   1.525   4.790   4.585 -0.6942 -0.4466  0.2950
   51CHL1  H27A 3772   1.527   4.897   4.615 -2.9487 -0.4061  0.4119
   51CHL1  H27B 3773   1.472   4.781   4.489  1.3193 -0.4724 -0.8831
   51CHL1  H27C 3774   1.480   4.728   4.665  1.7202 -0.1390  2.0274
   52CHL1    C3 3775   6.700   1.735   3.505  0.0518  0.0000 -0.0086
   52CHL1    H3 3776   6.769   1.821   3.520 -1.1275  0.8199  0.8656
   52CHL1    O3 3777   6.696   1.718   3.363 -0.4519 -0.4803 -0.1364
   52CHL1   H3' 3778   6.624   1.656   3.353  0.4760 -1.4440 -1.0554
   52CHL1    C4 3779   6.759   1.601   3.568  0.3342 -0.4187 -0.0204
   52CHL1   H4A 3780   6.699   1.516   3.528 -0.7465  0.5796 -0.6046
   52CHL1   H4B 3781   6.863   1.579   3.537 -0.1472 -0.5882 -1.5944
   52CHL1    C5 3782   6.754   1.594   3.724 -0.2684  0.1287  0.2565
   52CHL1    C6 3783   6.864   1.563   3.797 -0.1429 -0.1857  0.2141
   52CHL1    H6 3784   6.960   1.540   3.749 -0.0842 -0.9112  0.6718
   52CHL1    C7 3785   6.870   1.549   3.945  0.4467 -0.0522 -0.8805
   52CHL1   H7A 3786   6.897   1.444   3.969  0.6505  0.3221  0.6137
   52CHL1   H7B 3787   6.957   1.608   3.980  1.4563 -1.9442 -0.0671
   52CHL1    C8 3788   6.737   1.574   4.022  0.1809  0.1096  0.4810
   52CHL1    H8 3789   6.683   1.477   4.012  1.6842 -0.7934  0.7330
   52CHL1   C14 3790   6.758   1.598   4.172 -0.1956  0.0550 -0.4886
   52CHL1   H14 3791   6.816   1.692   4.179 -1.8201  0.9909  1.4088
   52CHL1   C15 3792   6.848   1.502   4.251 -0.0442  0.9772  0.4736
   52CHL1  H15A 3793   6.806   1.402   4.228 -2.1525  1.9415 -0.1541
   52CHL1  H15B 3794   6.956   1.512   4.224 -0.2368  3.6982  0.4165
   52CHL1   C16 3795   6.822   1.540   4.396  0.1562 -0.2015  0.0888
   52CHL1  H16A 3796   6.791   1.441   4.435  0.5134 -2.2980 -4.3404
   52CHL1  H16B 3797   6.916   1.574   4.446 -2.0946  0.9986  3.9057
   52CHL1   C17 3798   6.695   1.638   4.391  0.3384 -0.0143  0.0280
   52CHL1   H17 3799   6.733   1.742   4.392 -1.5317  0.8190 -2.5662
   52CHL1   C13 3800   6.632   1.617   4.254 -0.3440  0.4680  0.0631
   52CHL1   C18 3801   6.551   1.476   4.257  0.1358 -0.1731  0.7089
   52CHL1  H18A 3802   6.452   1.493   4.306  0.5800  0.9562  1.2417
   52CHL1  H18B 3803   6.533   1.449   4.150  1.1233  1.9963 -0.0658
   52CHL1  H18C 3804   6.604   1.397   4.313  2.7562 -1.2114 -2.8624
   52CHL1   C12 3805   6.549   1.730   4.189  0.7152  0.3223 -0.2022
   52CHL1  H12A 3806   6.452   1.737   4.241  0.8276 -0.5870  0.1516
   52CHL1  H12B 3807   6.607   1.823   4.205  1.4356 -0.0857 -0.3755
   52CHL1   C11 3808   6.519   1.712   4.030 -0.4812  0.0668  0.0186
   52CHL1  H11A 3809   6.453   1.622   4.028 -1.6545  0.9118 -0.5574
   52CHL1  H11B 3810   6.456   1.791   3.984  0.8448  1.4688  0.5397
   52CHL1    C9 3811   6.651   1.682   3.952 -0.4361  0.1176  0.4364
   52CHL1    H9 3812   6.714   1.773   3.955 -0.3655  0.1556 -1.1803
   52CHL1   C10 3813   6.632   1.651   3.799 -0.2452  0.3297 -0.1392
   52CHL1   C19 3814   6.526   1.536   3.783 -0.2012  0.2689  0.2124
   52CHL1  H19A 3815   6.424   1.562   3.819 -0.7240 -0.7221 -0.4935
   52CHL1  H19B 3816   6.517   1.501   3.678  0.3318 -0.5084  0.4166
   52CHL1  H19C 3817   6.565   1.444   3.832 -1.2173 -0.1052  0.3434
   52CHL1    C1 3818   6.575   1.781   3.723  0.4852  0.3136  0.2882
   52CHL1   H1A 3819   6.469   1.790   3.753  0.4278  0.8888 -0.0833
   52CHL1   H1B 3820   6.630   1.874   3.748  2.0143 -0.3547 -0.4478
   52CHL1    C2 3821   6.563   1.768   3.571 -0.2564 -0.2177  0.1776
   52CHL1   H2A 3822   6.525   1.862   3.527 -0.3057 -0.7894 -1.0458
   52CHL1   H2B 3823   6.489   1.686   3.557 -0.1561 -0.3562  0.4472
   52CHL1   C20 3824   6.602   1.634   4.511  0.1044 -0.2064  0.1249
   52CHL1   H20 3825   6.548   1.537   4.512 -0.2981 -0.1124 -2.7314
   52CHL1   C21 3826   6.485   1.737   4.522 -0.2277  0.0308  0.1925
   52CHL1  H21A 3827   6.521   1.836   4.486 -0.1386 -0.0024  0.1916
   52CHL1  H21B 3828   6.448   1.745   4.627 -1.1128 -0.8102 -0.0476
   52CHL1  H21C 3829   6.405   1.701   4.454 -1.7582 -0.0587  1.9364
   52CHL1   C22 3830   6.678   1.645   4.651 -0.2285  0.1364 -0.3227
   52CHL1  H22A 3831   6.787   1.627   4.642 -0.3569 -0.7763 -0.1857
   52CHL1  H22B 3832   6.670   1.749   4.690 -1.7734 -0.3393  0.7590
   52CHL1   C23 3833   6.615   1.545   4.745  0.2919 -0.2184  0.1349
   52CHL1  H23A 3834   6.506   1.561   4.736 -0.0586 -1.4180  1.7230
   52CHL1  H23B 3835   6.628   1.442   4.705 -2.0898 -0.3453 -0.4151
   52CHL1   C24 3836   6.664   1.571   4.889 -0.2190  0.4988  0.5567
   52CHL1  H24A 3837   6.767   1.531   4.879 -0.2458  0.9312 -2.0496
   52CHL1  H24B 3838   6.666   1.680   4.913 -2.0770  1.1362 -1.7643
   52CHL1   C25 3839   6.574   1.496   5.002  0.0311  0.1484  0.2504
   52CHL1   H25 3840   6.466   1.522   5.002  0.0326  0.2629  1.8368
   52CHL1   C26 3841   6.586   1.353   4.976  0.1515 -1.0763 -0.1368
   52CHL1  H26A 3842   6.688   1.311   4.963  0.3596 -2.3904  4.3129
   52CHL1  H26B 3843   6.535   1.302   5.060  0.3654 -1.4278 -0.2193
   52CHL1  H26C 3844   6.517   1.321   4.894  0.3940 -2.0150  0.0193
   52CHL1   C27 3845   6.631   1.537   5.139 -0.0693 -0.2236  0.3593
   52CHL1  H27A 3846   6.582   1.479   5.221  1.6191 -1.7276  0.3785
   52CHL1  H27B 3847   6.739   1.510   5.143  0.0730  0.3287  0.2235
   52CHL1  H27C 3848   6.624   1.644   5.165 -0.4432 -0.0000 -0.6369
   53CHL1    C3 3849   4.680   4.101   3.533  0.2989  0.2085 -0.2452
   53CHL1    H3 3850   4.774   4.159   3.544  0.8434 -0.6033 -0.5603
   53CHL1    O3 3851   4.681   4.013   3.429 -0.3070  0.0860 -0.4034
   53CHL1   H3' 3852   4.752   3.957   3.460  0.1042 -0.3947 -2.1253
   53CHL1    C4 3853   4.658   4.019   3.661 -0.6477  0.4672  0.2562
   53CHL1   H4A 3854   4.571   3.953   3.642 -0.6958  0.8758 -1.0849
   53CHL1   H4B 3855   4.744   3.950   3.676 -1.2080 -0.0557  1.0936
   53CHL1    C5 3856   4.637   4.110   3.786  0.7001 -0.3469  0.4063
   53CHL1    C6 3857   4.711   4.108   3.899 -1.4273 -0.3947  0.5789
   53CHL1    H6 3858   4.786   4.029   3.916 -2.1320 -0.7465  2.2526
   53CHL1    C7 3859   4.689   4.184   4.026 -0.7707 -0.0583  0.5001
   53CHL1   H7A 3860   4.681   4.105   4.103  0.1097  0.0267  0.6959
   53CHL1   H7B 3861   4.773   4.249   4.060  0.6266 -0.4903 -1.8565
   53CHL1    C8 3862   4.560   4.268   4.022  0.1317 -0.2099 -0.1295
   53CHL1    H8 3863   4.478   4.201   4.054  1.6003 -2.7912 -1.4725
   53CHL1   C14 3864   4.570   4.381   4.124  0.0988  0.0233  0.4024
   53CHL1   H14 3865   4.656   4.443   4.093  0.0907 -0.6507 -1.0486
   53CHL1   C15 3866   4.605   4.334   4.269  0.3189  0.9505 -0.1008
   53CHL1  H15A 3867   4.562   4.232   4.284 -1.8195  2.0542  1.9715
   53CHL1  H15B 3868   4.713   4.320   4.289 -0.2127 -0.7292  2.0328
   53CHL1   C16 3869   4.557   4.451   4.349  0.2130  0.4874 -0.3505
   53CHL1  H16A 3870   4.478   4.411   4.417  2.9077 -3.7377  0.7060
   53CHL1  H16B 3871   4.643   4.500   4.400 -0.6342 -0.7709  2.4795
   53CHL1   C17 3872   4.496   4.551   4.251  1.1751 -0.3351 -0.1669
   53CHL1   H17 3873   4.571   4.624   4.213  0.6670 -0.2581 -1.0506
   53CHL1   C13 3874   4.443   4.466   4.133  0.4197  0.2372  0.6155
   53CHL1   C18 3875   4.310   4.400   4.181  0.1318  0.7194  0.1083
   53CHL1  H18A 3876   4.236   4.467   4.229  1.3778  1.7624  0.6311
   53CHL1  H18B 3877   4.253   4.356   4.096  0.7816 -0.5526  0.3086
   53CHL1  H18C 3878   4.337   4.308   4.236  2.1316  1.5716  0.6520
   53CHL1   C12 3879   4.428   4.535   3.991  0.3044 -0.0538 -0.2012
   53CHL1  H12A 3880   4.333   4.592   3.989 -0.1770 -0.5877  2.9783
   53CHL1  H12B 3881   4.519   4.592   3.961 -0.7547  0.1692 -3.3047
   53CHL1   C11 3882   4.424   4.426   3.880 -0.0719 -0.3797 -0.1905
   53CHL1  H11A 3883   4.331   4.365   3.876  0.5394 -1.3337 -0.2407
   53CHL1  H11B 3884   4.434   4.488   3.788 -2.4376  0.9776  0.4037
   53CHL1    C9 3885   4.538   4.323   3.883  0.2164  0.1847  0.4200
   53CHL1    H9 3886   4.628   4.384   3.866 -0.0505  1.0697  1.9397
   53CHL1   C10 3887   4.529   4.216   3.767  0.3458  0.4429  0.3780
   53CHL1   C19 3888   4.388   4.147   3.770  0.3979  0.4321 -0.1257
   53CHL1  H19A 3889   4.367   4.086   3.860  0.9321 -0.5644 -0.6548
   53CHL1  H19B 3890   4.314   4.226   3.744  2.1023  1.9650 -0.5066
   53CHL1  H19C 3891   4.393   4.082   3.680  1.8863 -1.8779  1.5235
   53CHL1    C1 3892   4.559   4.290   3.631  0.6883 -0.1110 -0.6171
   53CHL1   H1A 3893   4.486   4.372   3.618  1.0346  0.3505  0.2247
   53CHL1   H1B 3894   4.658   4.339   3.643  0.8952 -0.5641 -0.4339
   53CHL1    C2 3895   4.568   4.197   3.509 -0.1621 -0.4430 -0.1438
   53CHL1   H2A 3896   4.600   4.270   3.432 -0.2659 -0.4841 -0.2266
   53CHL1   H2B 3897   4.475   4.138   3.494  0.6283 -2.2075  1.5129
   53CHL1   C20 3898   4.394   4.639   4.332 -0.1517  0.2707  0.1602
   53CHL1   H20 3899   4.306   4.580   4.366  1.0690 -0.3101  2.5380
   53CHL1   C21 3900   4.335   4.750   4.242 -0.2640 -0.2554  0.5486
   53CHL1  H21A 3901   4.415   4.799   4.182 -0.3259  0.3917  0.9860
   53CHL1  H21B 3902   4.282   4.833   4.293  0.8224  0.5279  0.4481
   53CHL1  H21C 3903   4.269   4.695   4.171 -2.0050 -1.4950  3.0126
   53CHL1   C22 3904   4.445   4.703   4.458 -0.5656 -0.0859 -0.5545
   53CHL1  H22A 3905   4.363   4.749   4.517 -0.1541  0.0892 -0.1096
   53CHL1  H22B 3906   4.478   4.622   4.527  2.0267 -0.2457 -1.8401
   53CHL1   C23 3907   4.549   4.808   4.447  0.4011  0.7659  1.0465
   53CHL1  H23A 3908   4.634   4.765   4.390 -0.7927 -0.4166  0.0742
   53CHL1  H23B 3909   4.511   4.892   4.386 -1.6608 -0.2694  0.8250
   53CHL1   C24 3910   4.594   4.863   4.583 -0.2186  0.3313 -0.3357
   53CHL1  H24A 3911   4.642   4.960   4.560 -1.1643  0.3888 -2.3239
   53CHL1  H24B 3912   4.509   4.886   4.651 -1.4282  0.3585 -1.7894
   53CHL1   C25 3913   4.689   4.765   4.653  1.1249 -0.1295 -0.6487
   53CHL1   H25 3914   4.634   4.668   4.656 -0.0118  0.5116  1.8447
   53CHL1   C26 3915   4.825   4.737   4.584 -0.3150  0.6556  0.0857
   53CHL1  H26A 3916   4.884   4.671   4.651 -1.5440 -0.1920  0.3651
   53CHL1  H26B 3917   4.813   4.695   4.482  2.6059  0.9494 -0.4705
   53CHL1  H26C 3918   4.868   4.839   4.581 -0.3468  0.6565 -0.4258
   53CHL1   C27 3919   4.715   4.810   4.793  0.3916 -1.2318  0.1434
   53CHL1  H27A 3920   4.623   4.802   4.854  0.1962 -0.1377  0.0100
   53CHL1  H27B 3921   4.799   4.751   4.836  1.3246 -0.0503 -0.0215
   53CHL1  H27C 3922   4.747   4.916   4.792  2.3503 -1.7693  1.1413
   54CHL1    C3 3923   1.768   5.153   3.150  0.2056 -0.4584 -0.0233
   54CHL1    H3 3924   1.712   5.059   3.168  1.4922 -1.4596 -1.0647
   54CHL1    O3 3925   1.773   5.167   3.006  0.0633  0.4506 -0.0389
   54CHL1   H3' 3926   1.836   5.240   3.003  1.6615 -0.8205  0.7698
   54CHL1    C4 3927   1.705   5.282   3.204  0.3794 -0.6562  0.5399
   54CHL1   H4A 3928   1.776   5.364   3.176  2.2864 -1.8636  1.6093
   54CHL1   H4B 3929   1.607   5.299   3.155  1.0173  1.6146 -0.0921
   54CHL1    C5 3930   1.703   5.278   3.356 -0.5976 -0.4879  0.4069
   54CHL1    C6 3931   1.595   5.312   3.429  0.4660  0.0928  0.8257
   54CHL1    H6 3932   1.502   5.333   3.375  1.7156  0.5241 -1.3222
   54CHL1    C7 3933   1.590   5.310   3.575 -0.2347  0.0627 -0.5376
   54CHL1   H7A 3934   1.512   5.384   3.606 -0.8776 -0.3610 -1.1231
   54CHL1   H7B 3935   1.554   5.208   3.599  2.1853 -0.3526  1.7968
   54CHL1    C8 3936   1.727   5.333   3.642  0.6905  0.9475 -0.0958
   54CHL1    H8 3937   1.750   5.441   3.627 -2.5730  2.1226  2.0784
   54CHL1   C14 3938   1.715   5.299   3.789 -0.6387 -0.2252 -0.0459
   54CHL1   H14 3939   1.686   5.192   3.792 -2.5112  0.2591  0.0302
   54CHL1   C15 3940   1.603   5.359   3.876  0.4197 -0.1205  0.4627
   54CHL1  H15A 3941   1.607   5.470   3.874  1.2665 -0.1459  0.6614
   54CHL1  H15B 3942   1.496   5.330   3.861  0.5260  0.0219 -0.6783
   54CHL1   C16 3943   1.647   5.320   4.016 -0.5361  0.1013  0.3574
   54CHL1  H16A 3944   1.638   5.415   4.074 -1.8662  1.4101 -1.8546
   54CHL1  H16B 3945   1.578   5.241   4.054 -1.1466 -0.5228 -1.9295
   54CHL1   C17 3946   1.787   5.260   4.015  0.6730  0.1472  0.1383
   54CHL1   H17 3947   1.787   5.149   4.003  1.5628  0.2903 -1.5193
   54CHL1   C13 3948   1.845   5.308   3.875 -0.0782 -0.3870 -0.8561
   54CHL1   C18 3949   1.898   5.448   3.873  0.2045 -0.1697  0.2217
   54CHL1  H18A 3950   1.945   5.479   3.777 -0.9719 -2.3302 -1.1250
   54CHL1  H18B 3951   1.811   5.517   3.881  0.1621 -0.1310 -0.4952
   54CHL1  H18C 3952   1.971   5.467   3.955  0.7226  0.7899 -0.4381
   54CHL1   C12 3953   1.942   5.207   3.811 -0.3506  0.2578  0.1698
   54CHL1  H12A 3954   2.041   5.213   3.861 -0.6578  2.5681  0.6281
   54CHL1  H12B 3955   1.896   5.110   3.842  0.6470 -0.2309  0.1704
   54CHL1   C11 3956   1.958   5.236   3.660 -0.4651  0.4480 -0.5031
   54CHL1  H11A 3957   2.018   5.328   3.645 -0.4740  0.5707  0.1891
   54CHL1  H11B 3958   2.022   5.152   3.625  1.3554  2.0922 -1.2838
   54CHL1    C9 3959   1.824   5.231   3.583 -0.1069  0.3143  0.2483
   54CHL1    H9 3960   1.783   5.127   3.590  0.4583  0.1990  2.8084
   54CHL1   C10 3961   1.840   5.246   3.419 -0.5933 -0.4158  0.0251
   54CHL1   C19 3962   1.932   5.371   3.404  0.0395 -0.1548  0.2744
   54CHL1  H19A 3963   1.907   5.457   3.469  3.0600  0.5994  0.6260
   54CHL1  H19B 3964   2.041   5.357   3.422  1.0233  2.5897 -2.5662
   54CHL1  H19C 3965   1.921   5.410   3.301  0.7293  0.6983  0.5145
   54CHL1    C1 3966   1.911   5.124   3.361  0.1613  0.4633  0.0023
   54CHL1   H1A 3967   2.017   5.135   3.393  0.1364 -1.7323  0.9870
   54CHL1   H1B 3968   1.870   5.026   3.395 -2.2390  1.9623  1.7341
   54CHL1    C2 3969   1.909   5.130   3.206 -0.5322 -0.3575 -0.1482
   54CHL1   H2A 3970   1.953   5.036   3.166 -0.5211 -0.9279  1.1392
   54CHL1   H2B 3971   1.984   5.205   3.174 -0.4800 -1.3056 -2.4645
   54CHL1   C20 3972   1.857   5.301   4.151 -0.1703  0.8942 -0.8949
   54CHL1   H20 3973   1.864   5.411   4.159 -0.4560  1.1057 -2.9312
   54CHL1   C21 3974   1.996   5.235   4.149  0.8862  0.3930 -0.5616
   54CHL1  H21A 3975   2.050   5.257   4.054  2.3403  3.6151  0.8412
   54CHL1  H21B 3976   1.989   5.126   4.168 -0.7833  0.3219 -1.3778
   54CHL1  H21C 3977   2.061   5.275   4.230 -0.8809  3.1618 -0.3878
   54CHL1   C22 3978   1.778   5.250   4.278 -0.2049  0.4483  0.3934
   54CHL1  H22A 3979   1.683   5.308   4.287 -2.2707 -2.7351  0.7266
   54CHL1  H22B 3980   1.726   5.154   4.259 -0.4798  0.8878 -1.2180
   54CHL1   C23 3981   1.858   5.265   4.408 -0.2503  0.8290  0.3415
   54CHL1  H23A 3982   1.938   5.188   4.408  0.4739  1.5401 -1.3112
   54CHL1  H23B 3983   1.900   5.367   4.415 -2.1427  1.6473  0.4824
   54CHL1   C24 3984   1.764   5.236   4.529 -0.2823 -0.2119  0.1311
   54CHL1  H24A 3985   1.702   5.146   4.510 -1.5339  0.0647  2.4772
   54CHL1  H24B 3986   1.829   5.218   4.617 -2.9474 -1.2271  2.0478
   54CHL1   C25 3987   1.680   5.364   4.554 -0.3370  0.3171  1.2081
   54CHL1   H25 3988   1.680   5.423   4.459 -0.7488 -1.9028 -0.2576
   54CHL1   C26 3989   1.533   5.322   4.580 -0.2775 -0.6852 -0.3595
   54CHL1  H26A 3990   1.456   5.379   4.523 -0.4258  2.0071  2.2810
   54CHL1  H26B 3991   1.510   5.215   4.560 -0.5467 -0.5344 -0.8793
   54CHL1  H26C 3992   1.512   5.343   4.687 -0.6155 -1.5731 -0.2437
   54CHL1   C27 3993   1.738   5.454   4.659 -0.4083 -0.0142 -0.2958
   54CHL1  H27A 3994   1.683   5.549   4.671 -1.3851 -0.6963  0.8699
   54CHL1  H27B 3995   1.734   5.407   4.759  1.0764 -0.9651 -0.6471
   54CHL1  H27C 3996   1.842   5.475   4.627  0.6678 -0.1015  2.8341
   55CHL1    C3 3997   0.944   0.294   3.393 -0.1005  0.7872  0.4507
   55CHL1    H3 3998   0.835   0.310   3.407 -0.1914 -0.8065  1.9629
   55CHL1    O3 3999   0.976   0.293   3.253 -0.0657 -0.3329 -0.5612
   55CHL1   H3' 4000   1.069   0.271   3.244 -0.4795 -2.3594 -0.3737
   55CHL1    C4 4001   1.020   0.405   3.463  0.0281  0.5605  0.3727
   55CHL1   H4A 4002   1.126   0.391   3.435  0.5791 -1.8029  3.1569
   55CHL1   H4B 4003   0.981   0.495   3.411  2.3192 -0.2219 -3.0090
   55CHL1    C5 4004   1.002   0.404   3.614 -0.2796  0.5632 -0.6864
   55CHL1    C6 4005   0.942   0.506   3.677  0.2033 -0.5394  0.5119
   55CHL1    H6 4006   0.917   0.599   3.624 -1.0161 -0.3334  1.4118
   55CHL1    C7 4007   0.913   0.517   3.823  0.1472 -0.0517 -0.2346
   55CHL1   H7A 4008   0.934   0.619   3.860 -1.4455  0.7688 -1.4647
   55CHL1   H7B 4009   0.806   0.499   3.848  0.8584 -0.9285  2.5307
   55CHL1    C8 4010   1.005   0.417   3.896 -0.6895 -0.0233  0.5132
   55CHL1    H8 4011   1.106   0.462   3.891 -1.4390  1.6435 -1.6885
   55CHL1   C14 4012   0.961   0.401   4.039 -0.1807 -0.3712  0.5240
   55CHL1   H14 4013   0.859   0.359   4.027 -0.0969 -0.4195 -0.0515
   55CHL1   C15 4014   0.948   0.527   4.121 -0.2646  0.4993 -0.2896
   55CHL1  H15A 4015   1.034   0.597   4.111  0.1658  0.7775  3.5927
   55CHL1  H15B 4016   0.849   0.575   4.102  0.6150  2.4219 -0.2902
   55CHL1   C16 4017   0.940   0.486   4.264  0.2405 -0.3120 -0.0234
   55CHL1  H16A 4018   1.013   0.541   4.328  0.5844 -0.2270 -0.4826
   55CHL1  H16B 4019   0.841   0.504   4.311  0.3832 -0.5386  0.3726
   55CHL1   C17 4020   0.973   0.328   4.273 -0.5098 -0.3812 -0.3169
   55CHL1   H17 4021   0.874   0.278   4.267  0.4020 -2.3856  0.5963
   55CHL1   C13 4022   1.034   0.306   4.127 -0.0719  0.3521  0.4671
   55CHL1   C18 4023   1.184   0.345   4.131 -0.1636  0.2312  0.2081
   55CHL1  H18A 4024   1.189   0.453   4.155 -1.3152  0.3564 -0.0791
   55CHL1  H18B 4025   1.236   0.282   4.206  0.8655 -0.4181 -1.0108
   55CHL1  H18C 4026   1.238   0.334   4.034  0.9379  1.7103  0.6181
   55CHL1   C12 4027   1.019   0.164   4.065 -0.4663 -0.2162  0.2887
   55CHL1  H12A 4028   1.075   0.081   4.113  0.3785  0.3792  0.3637
   55CHL1  H12B 4029   0.915   0.129   4.080 -0.9373  1.4183  1.0941
   55CHL1   C11 4030   1.061   0.164   3.920  0.3984  0.5049 -0.2542
   55CHL1  H11A 4031   1.171   0.176   3.921  0.3864  0.7834 -1.0134
   55CHL1  H11B 4032   1.031   0.065   3.879 -1.8910  0.7325  0.6980
   55CHL1    C9 4033   0.993   0.273   3.833 -0.5064 -0.0236 -0.6165
   55CHL1    H9 4034   0.884   0.257   3.837 -0.3297 -1.0863  2.5908
   55CHL1   C10 4035   1.041   0.270   3.683  0.2821 -0.1904  0.3269
   55CHL1   C19 4036   1.193   0.255   3.678 -0.4898 -0.5776 -0.3326
   55CHL1  H19A 4037   1.233   0.161   3.723  2.1614  0.1294 -1.0170
   55CHL1  H19B 4038   1.235   0.259   3.576 -0.6544  0.5467 -0.3675
   55CHL1  H19C 4039   1.228   0.347   3.730 -1.8067 -0.2215 -0.0416
   55CHL1    C1 4040   0.977   0.147   3.603 -0.6989 -0.3540 -0.4046
   55CHL1   H1A 4041   1.034   0.066   3.654 -1.9580 -0.0053  1.6870
   55CHL1   H1B 4042   0.874   0.125   3.638 -0.5789  0.8031  0.7266
   55CHL1    C2 4043   0.981   0.155   3.450 -0.2094 -0.5437  0.1242
   55CHL1   H2A 4044   0.912   0.082   3.404 -0.0431 -1.7362  1.6716
   55CHL1   H2B 4045   1.082   0.125   3.415 -1.2630 -2.7069 -1.2605
   55CHL1   C20 4046   1.037   0.279   4.403  0.1217  0.2999  0.6038
   55CHL1   H20 4047   1.141   0.317   4.408  0.0670  0.4024  1.0658
   55CHL1   C21 4048   1.051   0.126   4.398 -0.6945 -0.0065 -0.1260
   55CHL1  H21A 4049   1.116   0.092   4.314  1.8676  1.2246  1.2183
   55CHL1  H21B 4050   0.949   0.083   4.393 -0.8315  0.4742 -2.1701
   55CHL1  H21C 4051   1.103   0.080   4.485  2.2561 -1.4308 -2.4282
   55CHL1   C22 4052   0.979   0.329   4.534  0.5434  0.5612  0.1638
   55CHL1  H22A 4053   1.056   0.319   4.614  0.1894  2.7444  0.8605
   55CHL1  H22B 4054   0.970   0.440   4.529 -2.2779  0.4141  0.3515
   55CHL1   C23 4055   0.846   0.260   4.568 -0.2486 -0.5479 -1.1073
   55CHL1  H23A 4056   0.805   0.229   4.470  1.7680 -0.3638 -2.0615
   55CHL1  H23B 4057   0.874   0.167   4.623 -2.5815 -0.7976 -0.2114
   55CHL1   C24 4058   0.742   0.349   4.644 -0.4533  0.2110  0.2993
   55CHL1  H24A 4059   0.700   0.427   4.578  2.3110  2.7083  1.2323
   55CHL1  H24B 4060   0.665   0.272   4.665 -1.0388  0.7356  0.0995
   55CHL1   C25 4061   0.797   0.410   4.770  0.4129  0.2387 -0.1572
   55CHL1   H25 4062   0.887   0.470   4.744  1.3367 -0.7218  0.7297
   55CHL1   C26 4063   0.694   0.507   4.847  0.3309  0.6350  0.1908
   55CHL1  H26A 4064   0.756   0.563   4.921  1.9300 -2.1826  1.1587
   55CHL1  H26B 4065   0.642   0.573   4.775 -1.5559 -1.0108 -0.0342
   55CHL1  H26C 4066   0.616   0.444   4.893  0.3155  0.4473 -0.0922
   55CHL1   C27 4067   0.834   0.303   4.876 -0.2199  0.1713 -0.0021
   55CHL1  H27A 4068   0.919   0.234   4.857  0.0307  0.4556  0.0710
   55CHL1  H27B 4069   0.882   0.361   4.958  0.3092 -1.3170  0.7697
   55CHL1  H27C 4070   0.745   0.243   4.903 -0.3351  0.6962  0.8310
   56CHL1    C3 4071   6.483   6.466   3.023 -0.0612 -0.2362 -0.1681
   56CHL1    H3 4072   6.483   6.355   3.032 -0.5321 -0.1082  2.2499
   56CHL1    O3 4073   6.464   6.509   2.891  0.3615  0.2903  0.1978
   56CHL1   H3' 4074   6.538   6.488   2.834  1.1074  0.6666  1.0109
   56CHL1    C4 4075   6.375   6.523   3.117 -0.3219 -0.2808  0.0585
   56CHL1   H4A 4076   6.378   6.634   3.116  1.0555 -0.2903 -1.8316
   56CHL1   H4B 4077   6.277   6.496   3.073  0.2320 -1.2442 -0.5937
   56CHL1    C5 4078   6.388   6.486   3.262 -0.8863 -0.6714  0.0859
   56CHL1    C6 4079   6.295   6.416   3.332  0.0260  0.2605 -0.2055
   56CHL1    H6 4080   6.201   6.398   3.278  1.0405 -0.6609 -1.7308
   56CHL1    C7 4081   6.303   6.372   3.477 -0.9578 -0.1758 -0.6738
   56CHL1   H7A 4082   6.207   6.386   3.532 -0.3882 -0.2199  0.3516
   56CHL1   H7B 4083   6.329   6.264   3.480  1.1299  0.3155  1.4250
   56CHL1    C8 4084   6.418   6.455   3.545  0.2675 -0.0011 -0.3893
   56CHL1    H8 4085   6.380   6.559   3.559 -1.8658 -1.1111  3.4169
   56CHL1   C14 4086   6.462   6.393   3.683 -0.5319 -0.0527  0.1635
   56CHL1   H14 4087   6.485   6.287   3.659 -1.3048 -0.1119 -0.3542
   56CHL1   C15 4088   6.353   6.390   3.797 -0.1387 -0.2734  0.5186
   56CHL1  H15A 4089   6.291   6.482   3.792  2.0493  1.3650  1.5125
   56CHL1  H15B 4090   6.299   6.298   3.767 -0.0355 -0.7551  1.7569
   56CHL1   C16 4091   6.430   6.365   3.928  0.4590  0.1669  0.1851
   56CHL1  H16A 4092   6.415   6.450   3.998  0.1133  0.2625 -0.0026
   56CHL1  H16B 4093   6.401   6.273   3.983 -0.6056 -1.1948 -2.4710
   56CHL1   C17 4094   6.574   6.362   3.887 -0.6900 -0.6443 -0.3141
   56CHL1   H17 4095   6.595   6.256   3.860  1.7344 -0.0198 -1.1700
   56CHL1   C13 4096   6.584   6.446   3.756  0.5292 -0.1458  0.4466
   56CHL1   C18 4097   6.567   6.595   3.788 -0.1877 -0.5493 -0.5313
   56CHL1  H18A 4098   6.473   6.619   3.842  1.9857  1.1617  2.8380
   56CHL1  H18B 4099   6.647   6.647   3.845  0.5004 -0.2333 -1.7375
   56CHL1  H18C 4100   6.558   6.652   3.693 -1.5331 -1.1245 -0.7765
   56CHL1   C12 4101   6.705   6.418   3.662  0.0087  0.1295 -0.6436
   56CHL1  H12A 4102   6.807   6.443   3.698 -1.1165  1.1604  2.1322
   56CHL1  H12B 4103   6.718   6.310   3.642  0.8483 -0.2029  1.4347
   56CHL1   C11 4104   6.691   6.496   3.528  0.1674  0.0297 -0.5950
   56CHL1  H11A 4105   6.695   6.603   3.556  1.1857 -0.0402 -0.4278
   56CHL1  H11B 4106   6.776   6.461   3.466 -0.4623 -1.3276 -0.7363
   56CHL1    C9 4107   6.548   6.449   3.460 -0.4097  0.0460 -0.0715
   56CHL1    H9 4108   6.562   6.341   3.437  0.4670  0.2612 -0.6111
   56CHL1   C10 4109   6.524   6.527   3.328  0.0336 -0.2626  0.7977
   56CHL1   C19 4110   6.539   6.680   3.341  0.8181 -0.2419  0.5255
   56CHL1  H19A 4111   6.643   6.714   3.359  0.1800  1.9446  0.4091
   56CHL1  H19B 4112   6.499   6.735   3.253  0.3930  0.0462  0.8927
   56CHL1  H19C 4113   6.481   6.712   3.431 -0.4603 -1.3739  0.1384
   56CHL1    C1 4114   6.641   6.478   3.236 -0.2520 -0.5286 -0.3409
   56CHL1   H1A 4115   6.730   6.534   3.271 -1.0874  0.7934 -0.2627
   56CHL1   H1B 4116   6.651   6.369   3.256 -1.7937 -0.2288  2.5586
   56CHL1    C2 4117   6.620   6.509   3.085  0.3625 -0.0961  1.3541
   56CHL1   H2A 4118   6.704   6.461   3.031  2.5429  1.7037  2.9669
   56CHL1   H2B 4119   6.628   6.619   3.069  0.1935 -0.3559 -0.8292
   56CHL1   C20 4120   6.665   6.413   4.004 -0.0280 -0.8635  0.4648
   56CHL1   H20 4121   6.641   6.519   4.027 -0.1137 -0.6937 -0.3763
   56CHL1   C21 4122   6.811   6.394   3.959  0.4807 -0.7071 -0.3196
   56CHL1  H21A 4123   6.830   6.295   3.912 -0.8785 -2.0327  1.7855
   56CHL1  H21B 4124   6.876   6.407   4.047 -0.3709  1.6399  0.0377
   56CHL1  H21C 4125   6.845   6.477   3.893 -0.8143 -0.2722 -0.4680
   56CHL1   C22 4126   6.661   6.326   4.133 -0.3529 -0.3585 -0.1011
   56CHL1  H22A 4127   6.560   6.280   4.138 -0.3702 -0.4118 -0.8869
   56CHL1  H22B 4128   6.739   6.248   4.126 -0.0391 -0.1939  1.2745
   56CHL1   C23 4129   6.693   6.412   4.257 -0.4116  0.1112 -1.1338
   56CHL1  H23A 4130   6.798   6.449   4.256 -0.4554  1.3931  4.9250
   56CHL1  H23B 4131   6.619   6.491   4.280 -2.2045 -2.0962  1.2557
   56CHL1   C24 4132   6.700   6.322   4.378 -0.0423  0.7511 -0.6642
   56CHL1  H24A 4133   6.606   6.263   4.378 -1.7767  3.3405 -1.9040
   56CHL1  H24B 4134   6.788   6.254   4.364 -0.6718 -0.1077 -0.5238
   56CHL1   C25 4135   6.732   6.394   4.509  0.3053 -0.9543 -0.5738
   56CHL1   H25 4136   6.813   6.468   4.489 -0.2046 -0.3925 -0.5956
   56CHL1   C26 4137   6.608   6.471   4.567 -0.0119 -0.0211 -0.7443
   56CHL1  H26A 4138   6.515   6.423   4.530 -0.4919 -0.9150  1.4568
   56CHL1  H26B 4139   6.607   6.472   4.678 -0.2342  2.1175 -0.7100
   56CHL1  H26C 4140   6.611   6.573   4.521  0.1071 -1.0060 -3.0562
   56CHL1   C27 4141   6.787   6.301   4.619 -0.7180 -0.0004 -0.4910
   56CHL1  H27A 4142   6.708   6.240   4.668 -0.6375 -0.3014 -0.7307
   56CHL1  H27B 4143   6.867   6.234   4.580 -1.0218 -1.0019  0.5420
   56CHL1  H27C 4144   6.834   6.358   4.702  0.6715 -1.2800 -0.3446
   57SAPC     N 4145   0.279   0.622   7.490  0.7336  0.3725  0.3557
   57SAPC   C12 4146   0.269   0.646   7.345  0.1371  0.0830 -0.2421
   57SAPC  H12A 4147   0.197   0.576   7.304 -0.3123 -0.0488  0.7593
   57SAPC  H12B 4148   0.368   0.628   7.305  0.3671  1.5821 -0.4075
   57SAPC   C13 4149   0.152   0.667   7.553  0.4418 -0.5411 -0.0150
   57SAPC  H13A 4150   0.141   0.774   7.554  0.0028 -0.5089  3.2563
   57SAPC  H13B 4151   0.066   0.624   7.504  0.3171 -1.4994  0.9903
   57SAPC  H13C 4152   0.147   0.636   7.657 -2.0983 -3.9711 -0.9586
   57SAPC   C14 4153   0.297   0.473   7.513 -0.1664  0.8241 -0.3353
   57SAPC  H14A 4154   0.220   0.407   7.476 -0.4278  0.4219  0.8933
   57SAPC  H14B 4155   0.389   0.449   7.462  0.7752 -0.3395  1.7669
   57SAPC  H14C 4156   0.310   0.455   7.619 -0.3452  0.6134 -0.3508
   57SAPC   C15 4157   0.389   0.691   7.549 -0.3292  0.0210 -0.7367
   57SAPC  H15A 4158   0.427   0.632   7.632 -1.5530  0.0259 -0.1606
   57SAPC  H15B 4159   0.472   0.723   7.488  0.2640  1.1235  0.5815
   57SAPC  H15C 4160   0.355   0.788   7.581  1.1412 -0.1606  1.6697
   57SAPC   C11 4161   0.237   0.789   7.287  0.0267  0.1707 -0.9288
   57SAPC  H11A 4162   0.237   0.777   7.177 -2.5025 -0.4093 -0.9225
   57SAPC  H11B 4163   0.314   0.862   7.319 -0.4741 -0.4188  1.8590
   57SAPC     P 4164  -0.027   0.786   7.243 -0.0868  0.4539 -0.4703
   57SAPC   O13 4165  -0.021   0.637   7.251  0.0357 -0.3142 -0.1827
   57SAPC   O14 4166  -0.144   0.862   7.284  0.7334  0.8129  0.1740
   57SAPC   O12 4167   0.104   0.835   7.327  0.1562  0.4127  0.0533
   57SAPC   O11 4168   0.014   0.837   7.099  0.0420  0.0594 -0.4347
   57SAPC    C1 4169   0.037   0.976   7.069  0.0210  0.0656 -0.0027
   57SAPC    HA 4170  -0.062   1.026   7.055  0.4090  0.3496 -2.0429
   57SAPC    HB 4171   0.104   1.025   7.141  3.2762 -3.0841 -0.6060
   57SAPC    C2 4172   0.099   1.013   6.929  0.5280  0.3455 -0.3407
   57SAPC    HS 4173   0.084   1.123   6.920 -0.1238  0.1481 -2.1509
   57SAPC   O21 4174   0.026   0.942   6.822  0.5740  0.6019 -0.3413
   57SAPC   C21 4175  -0.091   0.996   6.795 -0.4966  0.7952 -0.1494
   57SAPC   O22 4176  -0.136   1.099   6.840  0.0703 -0.3908 -0.2734
   57SAPC   C22 4177  -0.157   0.919   6.685 -0.4490  0.3357 -0.5799
   57SAPC   H2R 4178  -0.096   0.917   6.592 -2.2355  1.3686 -1.8250
   57SAPC   H2S 4179  -0.148   0.815   6.723 -1.5216  0.2850 -0.4286
   57SAPC    C3 4180   0.254   0.984   6.928  0.5185  0.2481  0.1351
   57SAPC    HX 4181   0.246   0.885   6.979 -0.6663  1.1791  1.8536
   57SAPC    HY 4182   0.312   1.056   6.990  0.2373 -0.5005  1.3002
   57SAPC   O31 4183   0.300   0.966   6.796  0.3233 -0.9537  0.1053
   57SAPC   C31 4184   0.418   0.892   6.790 -0.4699 -0.2548 -0.0374
   57SAPC   O32 4185   0.476   0.854   6.893  0.4303 -0.7235  0.4605
   57SAPC   C32 4186   0.464   0.865   6.649 -0.2306  0.3460 -0.5905
   57SAPC   H2X 4187   0.480   0.967   6.607 -0.8171  0.7970  0.2627
   57SAPC   H2Y 4188   0.382   0.815   6.593 -0.1474  0.9556 -1.2848
   57SAPC   C23 4189  -0.300   0.943   6.658 -0.1063  0.4896 -0.0451
   57SAPC   H3R 4190  -0.311   1.032   6.593  0.0210 -0.1347 -0.9335
   57SAPC   H3S 4191  -0.360   0.954   6.751  0.2580 -0.2708  0.2902
   57SAPC   C24 4192  -0.356   0.827   6.581 -0.5743 -0.0939 -0.5526
   57SAPC   H4R 4193  -0.334   0.730   6.630 -2.0477 -1.3651 -2.2409
   57SAPC   H4S 4194  -0.303   0.822   6.484 -1.1418  0.9909 -0.9330
   57SAPC   C25 4195  -0.511   0.833   6.571  0.8522  0.9029 -0.0939
   57SAPC   H5R 4196  -0.565   0.854   6.665  2.0146 -0.6850  0.9953
   57SAPC   C26 4197  -0.587   0.845   6.458  0.1291 -0.1234  0.3213
   57SAPC   H6R 4198  -0.696   0.851   6.462  0.1509 -0.5246  1.9012
   57SAPC   C27 4199  -0.534   0.824   6.310  0.4402 -0.7307 -0.3243
   57SAPC   H7R 4200  -0.430   0.863   6.296  0.2968  0.5769  1.8068
   57SAPC   H7S 4201  -0.596   0.883   6.239 -1.4940 -3.3419 -0.9361
   57SAPC   C28 4202  -0.545   0.679   6.258  0.0350  0.3524  0.3953
   57SAPC   H8R 4203  -0.611   0.610   6.313  0.8538 -0.8038 -0.0471
   57SAPC   C29 4204  -0.468   0.620   6.169  0.9743  0.1818  0.0511
   57SAPC   H9R 4205  -0.491   0.515   6.149 -0.9229  0.4156  0.7822
   57SAPC  C210 4206  -0.358   0.677   6.086 -0.2117 -0.8441 -0.1009
   57SAPC  H10R 4207  -0.290   0.732   6.155 -0.2099 -1.5787  0.4911
   57SAPC  H10S 4208  -0.392   0.753   6.013 -0.1309  0.1813  0.9052
   57SAPC  C211 4209  -0.264   0.576   6.024  0.3889 -0.1134 -0.5926
   57SAPC  H11R 4210  -0.204   0.519   6.097  1.0370  0.1343 -0.9238
   57SAPC  C212 4211  -0.237   0.559   5.892 -1.3060  0.3949  0.1523
   57SAPC  H12R 4212  -0.172   0.477   5.857 -1.7214  0.4837 -0.8756
   57SAPC  C213 4213  -0.291   0.629   5.775  0.2526 -0.0634  0.9375
   57SAPC  H13R 4214  -0.247   0.582   5.684  1.7732 -0.0599  1.6504
   57SAPC  H13S 4215  -0.250   0.732   5.769 -3.4869  1.6362  1.3276
   57SAPC  C214 4216  -0.445   0.630   5.761  0.0656 -0.2552  1.0141
   57SAPC  H14R 4217  -0.509   0.620   5.850 -1.4473 -0.2750 -0.0360
   57SAPC  C215 4218  -0.507   0.656   5.641 -0.2235  0.3269  0.0255
   57SAPC  H15R 4219  -0.616   0.672   5.636 -0.0730  1.3373 -0.3386
   57SAPC  C216 4220  -0.453   0.692   5.507 -0.3798 -0.2165  0.2956
   57SAPC  H16R 4221  -0.347   0.727   5.513  0.5193 -2.3801 -1.5826
   57SAPC  H16S 4222  -0.511   0.782   5.477 -0.9030 -0.7263 -0.2397
   57SAPC  C217 4223  -0.462   0.569   5.406  0.7029 -0.2952  0.2847
   57SAPC  H17R 4224  -0.567   0.534   5.401 -0.3472  2.6524 -1.3360
   57SAPC  H17S 4225  -0.404   0.483   5.446 -0.0259 -0.8980  0.0546
   57SAPC  C218 4226  -0.413   0.604   5.269 -0.6212 -0.3222  0.2098
   57SAPC  H18R 4227  -0.307   0.637   5.271 -0.7724  0.1643  0.3290
   57SAPC  H18S 4228  -0.479   0.687   5.236 -1.6131 -0.3116  2.1008
   57SAPC  C219 4229  -0.427   0.492   5.162  0.3922  0.5276 -0.1827
   57SAPC  H19R 4230  -0.536   0.472   5.154  0.3005  1.0578 -0.3004
   57SAPC  H19S 4231  -0.374   0.399   5.193  0.5034 -0.1963 -2.3836
   57SAPC  C220 4232  -0.374   0.543   5.029 -1.1793 -0.3165 -0.7091
   57SAPC  H20R 4233  -0.451   0.617   4.998 -2.1141 -0.4644  1.1344
   57SAPC  H20S 4234  -0.381   0.464   4.952 -0.9165  1.2062 -2.3534
   57SAPC  H20T 4235  -0.271   0.584   5.037 -1.1336 -0.6116  0.3459
   57SAPC   C33 4236   0.591   0.779   6.616  0.2410  0.2198 -0.6236
   57SAPC   H3X 4237   0.602   0.685   6.673 -0.3934 -0.5673 -1.7475
   57SAPC   H3Y 4238   0.688   0.830   6.632  1.3751 -2.0308  0.1383
   57SAPC   C34 4239   0.583   0.722   6.469  0.5903  0.5009 -0.0441
   57SAPC   H4X 4240   0.495   0.655   6.458  0.2216  0.1755  3.6184
   57SAPC   H4Y 4241   0.677   0.666   6.448  0.3005 -0.2642  0.6082
   57SAPC   C35 4242   0.556   0.838   6.373 -0.5570  0.9584  0.6053
   57SAPC   H5X 4243   0.616   0.927   6.404 -0.5473  1.0143  0.4283
   57SAPC   H5Y 4244   0.451   0.873   6.382 -0.8804  0.2256 -0.2278
   57SAPC   C36 4245   0.589   0.813   6.227  0.4602  0.0893  0.5833
   57SAPC   H6X 4246   0.528   0.728   6.189  0.8006  0.0112  0.2099
   57SAPC   H6Y 4247   0.692   0.774   6.218  1.6913  1.5190  5.4696
   57SAPC   C37 4248   0.571   0.938   6.142 -0.2678 -0.0262 -0.1347
   57SAPC   H7X 4249   0.656   1.008   6.160 -0.8458  0.6850 -0.1186
   57SAPC   H7Y 4250   0.479   0.993   6.172  0.9752  1.3891  1.3706
   57SAPC   C38 4251   0.555   0.912   5.992  0.3794 -0.0622  0.5921
   57SAPC   H8X 4252   0.511   1.006   5.952  2.8451  1.5308  1.4125
   57SAPC   H8Y 4253   0.480   0.830   5.983  2.6804 -2.4640  1.6525
   57SAPC   C39 4254   0.676   0.856   5.920 -0.5009  0.1315  0.6136
   57SAPC   H9X 4255   0.691   0.754   5.961  0.2237 -0.1690 -0.3561
   57SAPC   H9Y 4256   0.767   0.915   5.943 -1.3853  0.9043  2.3541
   57SAPC  C310 4257   0.644   0.849   5.768  0.2034  0.0234  0.2126
   57SAPC  H10X 4258   0.546   0.802   5.749 -0.1108 -0.1722  2.0981
   57SAPC  H10Y 4259   0.721   0.789   5.715  1.5617  2.8892 -1.3329
   57SAPC  C311 4260   0.644   0.995   5.700  1.2980  0.4505 -0.4653
   57SAPC  H11X 4261   0.741   1.038   5.735  2.0918  1.0388 -3.1422
   57SAPC  H11Y 4262   0.561   1.060   5.736  0.3595 -1.0235  0.0973
   57SAPC  C312 4263   0.647   0.989   5.552  0.3039  0.3596 -0.1065
   57SAPC  H12X 4264   0.559   0.931   5.516 -0.9062  1.4158  1.0354
   57SAPC  H12Y 4265   0.740   0.938   5.521  0.8289  0.5080  1.1656
   57SAPC  C313 4266   0.652   1.126   5.483 -0.1484  0.4893 -0.2481
   57SAPC  H13X 4267   0.745   1.178   5.513  0.4297 -1.1026  0.8393
   57SAPC  H13Y 4268   0.564   1.189   5.508 -0.4852 -0.2505  0.4420
   57SAPC  C314 4269   0.659   1.093   5.330 -0.3409 -0.5283  0.1128
   57SAPC  H14X 4270   0.580   1.024   5.295  0.0890 -0.0650 -1.9071
   57SAPC  H14Y 4271   0.760   1.060   5.298 -0.6572  0.0424 -1.5529
   57SAPC  C315 4272   0.631   1.223   5.245  0.3538 -0.0741 -0.0741
   57SAPC  H15X 4273   0.701   1.291   5.297 -0.3312  0.2770  0.4101
   57SAPC  H15Y 4274   0.528   1.257   5.272  0.0556  0.3199 -1.5871
   57SAPC  C316 4275   0.655   1.208   5.098 -0.4699 -0.1830  0.3202
   57SAPC  H16X 4276   0.572   1.142   5.067 -1.1181  1.0554 -0.6990
   57SAPC  H16Y 4277   0.757   1.165   5.088  0.0356  0.2302  2.9038
   57SAPC  C317 4278   0.656   1.338   5.021  0.5472  0.7116 -0.0332
   57SAPC  H17X 4279   0.735   1.414   5.039 -0.9524  2.4138 -0.3735
   57SAPC  H17Y 4280   0.564   1.389   5.055  1.4985  1.0171  2.2676
   57SAPC  C318 4281   0.654   1.324   4.864 -0.6089 -0.5504 -0.4264
   57SAPC  H18X 4282   0.612   1.419   4.826  1.2408  0.1962 -0.7042
   57SAPC  H18Y 4283   0.579   1.249   4.831 -0.5075 -1.2082  0.7783
   57SAPC  H18Z 4284   0.753   1.315   4.815  1.4102  0.0862  3.1397
   58SAPC     N 4285   4.257   4.028   7.185 -0.1984 -0.4124 -0.3071
   58SAPC   C12 4286   4.183   4.094   7.302  0.1979  0.6535  0.9613
   58SAPC  H12A 4287   4.260   4.116   7.375  1.9170  0.4680 -0.7058
   58SAPC  H12B 4288   4.121   4.018   7.347  2.3927 -1.1980  1.0581
   58SAPC   C13 4289   4.318   4.141   7.104 -0.2168 -0.0678  0.5044
   58SAPC  H13A 4290   4.373   4.101   7.020 -1.0725 -0.5473  0.1528
   58SAPC  H13B 4291   4.236   4.205   7.075 -1.3599 -2.0391 -0.8868
   58SAPC  H13C 4292   4.380   4.201   7.168  0.5540  0.5884 -0.8226
   58SAPC   C14 4293   4.372   3.947   7.234  0.0030  0.0709 -0.1412
   58SAPC  H14A 4294   4.442   4.016   7.279 -1.0544  0.9278  0.2340
   58SAPC  H14B 4295   4.344   3.879   7.312 -2.4196  0.9467 -0.1634
   58SAPC  H14C 4296   4.428   3.887   7.164  2.3938 -0.6207  2.1990
   58SAPC   C15 4297   4.168   3.949   7.106  0.0761  0.3733 -0.0497
   58SAPC  H15A 4298   4.101   4.016   7.054  0.9363  1.4827  0.2470
   58SAPC  H15B 4299   4.224   3.893   7.032 -2.1305 -0.6494 -1.0695
   58SAPC  H15C 4300   4.116   3.875   7.165 -0.1427 -0.2143 -0.9449
   58SAPC   C11 4301   4.091   4.212   7.273 -0.1885  0.0510 -0.3522
   58SAPC  H11A 4302   4.159   4.299   7.258 -0.2315 -0.1163 -1.6217
   58SAPC  H11B 4303   4.037   4.235   7.367  0.4361 -1.0301  0.2954
   58SAPC     P 4304   3.952   4.275   7.065 -0.1954 -0.3594  0.5130
   58SAPC   O13 4305   3.857   4.203   6.976  0.5086  0.5971  0.4487
   58SAPC   O14 4306   3.901   4.393   7.138 -0.1038  0.2566  0.3142
   58SAPC   O12 4307   4.008   4.170   7.165 -0.0475 -0.2462 -0.0376
   58SAPC   O11 4308   4.085   4.308   6.985 -0.1921  0.2786 -0.3172
   58SAPC    C1 4309   4.087   4.354   6.849  0.4051 -0.0755  0.0905
   58SAPC    HA 4310   3.993   4.342   6.790  0.6544 -2.2642  0.0885
   58SAPC    HB 4311   4.090   4.465   6.859 -1.7183  0.1056 -0.7158
   58SAPC    C2 4312   4.201   4.295   6.762  0.6542  0.0856  0.7803
   58SAPC    HS 4313   4.307   4.317   6.788  2.1109 -1.3735 -3.1301
   58SAPC   O21 4314   4.190   4.355   6.630  0.3775 -0.1917  0.5104
   58SAPC   C21 4315   4.226   4.485   6.617 -0.1054  0.2065  0.7061
   58SAPC   O22 4316   4.279   4.544   6.708  0.1305 -0.1804  0.0083
   58SAPC   C22 4317   4.189   4.541   6.485  0.3538  0.0601  0.7288
   58SAPC   H2R 4318   4.098   4.494   6.442  1.0701 -0.1220 -0.6539
   58SAPC   H2S 4319   4.169   4.648   6.507  1.4193 -0.2385  3.5854
   58SAPC    C3 4320   4.196   4.138   6.747 -0.0732 -0.2632 -0.0298
   58SAPC    HX 4321   4.110   4.113   6.682 -0.4397 -0.8021  0.6459
   58SAPC    HY 4322   4.176   4.087   6.844  0.1515 -0.3783 -0.0422
   58SAPC   O31 4323   4.320   4.090   6.699 -0.0843  0.2478  0.1050
   58SAPC   C31 4324   4.323   4.058   6.567 -0.0216  0.6848 -0.4899
   58SAPC   O32 4325   4.223   4.061   6.490 -0.3428 -0.3443 -0.8511
   58SAPC   C32 4326   4.469   4.031   6.520  0.5758 -0.1121 -0.3305
   58SAPC   H2X 4327   4.485   3.926   6.550 -2.7852 -0.5531  0.3212
   58SAPC   H2Y 4328   4.528   4.117   6.559  0.9499 -0.8222  0.7010
   58SAPC   C23 4329   4.303   4.524   6.380 -0.0670  0.9310  1.3036
   58SAPC   H3R 4330   4.302   4.419   6.344 -1.1032  1.2822  0.2325
   58SAPC   H3S 4331   4.400   4.542   6.430  1.4043  0.6283 -1.2577
   58SAPC   C24 4332   4.302   4.620   6.258 -0.0746 -0.0218  0.7877
   58SAPC   H4R 4333   4.387   4.595   6.191 -0.8500  2.9023 -1.4878
   58SAPC   H4S 4334   4.320   4.721   6.300 -0.8370 -0.2131  1.5905
   58SAPC   C25 4335   4.174   4.602   6.183 -0.4246  0.8228  0.3208
   58SAPC   H5R 4336   4.123   4.507   6.203 -0.9186  1.5785  3.1014
   58SAPC   C26 4337   4.101   4.694   6.122  0.0989 -0.2182 -0.0282
   58SAPC   H6R 4338   4.003   4.666   6.081  0.1425  0.8645 -0.9443
   58SAPC   C27 4339   4.147   4.837   6.102  0.1341 -0.1601 -0.4473
   58SAPC   H7R 4340   4.254   4.843   6.075  0.6168  1.1892  1.6235
   58SAPC   H7S 4341   4.142   4.889   6.199  2.7154  0.0691 -0.3800
   58SAPC   C28 4342   4.065   4.914   5.996 -0.2525 -0.1154  0.4863
   58SAPC   H8R 4343   4.008   4.999   6.035  0.1241 -0.0974  1.0023
   58SAPC   C29 4344   4.061   4.893   5.860 -0.5539  0.6331  0.0692
   58SAPC   H9R 4345   3.996   4.963   5.806 -2.0297 -0.1071  0.8148
   58SAPC  C210 4346   4.145   4.786   5.791  0.1136 -0.1896  0.5001
   58SAPC  H10R 4347   4.092   4.690   5.771 -1.8508  1.0719 -0.6987
   58SAPC  H10S 4348   4.225   4.762   5.864  0.4131 -1.4912 -0.2107
   58SAPC  C211 4349   4.216   4.851   5.674 -0.0990  0.1122 -0.1105
   58SAPC  H11R 4350   4.273   4.942   5.700 -1.3440 -0.2220  4.6657
   58SAPC  C212 4351   4.212   4.819   5.543  0.4593  0.0949  0.0638
   58SAPC  H12R 4352   4.290   4.864   5.479 -0.6454 -0.4135 -1.6952
   58SAPC  C213 4353   4.123   4.716   5.474 -0.3417  0.0496  0.1310
   58SAPC  H13R 4354   4.046   4.786   5.435  2.1117  0.9614 -3.5740
   58SAPC  H13S 4355   4.095   4.640   5.550  3.9937 -0.7288  1.1645
   58SAPC  C214 4356   4.192   4.654   5.352  0.1042 -0.0668 -0.7179
   58SAPC  H14R 4357   4.294   4.619   5.377  0.3374  1.0067 -0.0803
   58SAPC  C215 4358   4.137   4.640   5.229  0.5667  0.6004 -0.4594
   58SAPC  H15R 4359   4.194   4.601   5.144  1.2039  0.7459 -0.1023
   58SAPC  C216 4360   3.997   4.689   5.187 -0.4981  0.3678  0.1003
   58SAPC  H16R 4361   3.988   4.797   5.213 -0.2400 -0.1036  2.4249
   58SAPC  H16S 4362   3.921   4.625   5.237  0.5074 -1.7814 -1.0163
   58SAPC  C217 4363   3.987   4.684   5.033 -0.5529 -0.1983 -0.0400
   58SAPC  H17R 4364   3.887   4.717   5.000 -0.3751  2.2117  1.5186
   58SAPC  H17S 4365   3.994   4.576   5.007  3.1421  0.1082 -0.8510
   58SAPC  C218 4366   4.089   4.766   4.959  0.8186 -0.2463 -0.1391
   58SAPC  H18R 4367   4.092   4.736   4.852 -0.4538 -0.2205 -0.2079
   58SAPC  H18S 4368   4.192   4.748   4.997  1.7289  1.5027 -1.6297
   58SAPC  C219 4369   4.068   4.918   4.970 -0.4227 -0.1061  1.1250
   58SAPC  H19R 4370   4.088   4.941   5.077 -0.3610 -0.6231  1.2265
   58SAPC  H19S 4371   3.964   4.950   4.947 -1.0112 -2.0463  0.9854
   58SAPC  C220 4372   4.167   5.001   4.885 -0.1546 -0.0334  0.0702
   58SAPC  H20R 4373   4.165   4.957   4.783 -0.7239 -0.5763  0.3110
   58SAPC  H20S 4374   4.275   4.997   4.908  0.3838 -1.7228 -2.3377
   58SAPC  H20T 4375   4.147   5.110   4.883 -1.8446 -0.2787  1.1768
   58SAPC   C33 4376   4.480   4.039   6.360 -0.0034  0.4043  0.8023
   58SAPC   H3X 4377   4.461   4.142   6.323  1.1182  0.0181 -0.9921
   58SAPC   H3Y 4378   4.402   3.970   6.321  1.1454  0.0503 -1.0050
   58SAPC   C34 4379   4.614   3.986   6.323  0.6721  0.1591 -0.0944
   58SAPC   H4X 4380   4.622   3.888   6.374 -0.1634  1.5211  2.8484
   58SAPC   H4Y 4381   4.696   4.048   6.363  1.7210 -0.6945 -0.8607
   58SAPC   C35 4382   4.641   3.963   6.174  0.2211  0.4864  0.2194
   58SAPC   H5X 4383   4.579   3.885   6.124 -1.7193  1.8670  0.3337
   58SAPC   H5Y 4384   4.748   3.937   6.163  0.5230  1.8521 -0.2937
   58SAPC   C36 4385   4.633   4.086   6.089  0.0799 -0.8373 -0.3640
   58SAPC   H6X 4386   4.682   4.172   6.140 -2.0715  1.2675 -1.6425
   58SAPC   H6Y 4387   4.527   4.118   6.083  0.8302  1.8062 -0.4933
   58SAPC   C37 4388   4.708   4.083   5.949  0.0392 -0.6412 -0.1774
   58SAPC   H7X 4389   4.803   4.024   5.952  1.4323  1.5169  0.8342
   58SAPC   H7Y 4390   4.738   4.189   5.938  0.7682 -0.8390 -0.1484
   58SAPC   C38 4391   4.626   4.032   5.838 -0.1402 -0.2095 -0.3227
   58SAPC   H8X 4392   4.530   4.087   5.831 -0.5094 -1.0566 -3.7392
   58SAPC   H8Y 4393   4.610   3.923   5.850  0.5971 -0.2459  0.4364
   58SAPC   C39 4394   4.701   4.049   5.710 -0.0187 -0.0113  1.2374
   58SAPC   H9X 4395   4.788   3.981   5.702 -0.0045  0.2095 -0.9729
   58SAPC   H9Y 4396   4.734   4.153   5.688  0.1427 -0.4601 -0.8808
   58SAPC  C310 4397   4.621   4.004   5.588 -0.7134 -0.1571 -0.0318
   58SAPC  H10X 4398   4.536   4.074   5.571 -0.6852  0.3577  1.7268
   58SAPC  H10Y 4399   4.574   3.907   5.615 -2.7178  0.6178 -0.5103
   58SAPC  C311 4400   4.700   3.983   5.459  0.8550 -0.0808 -0.1243
   58SAPC  H11X 4401   4.786   3.916   5.480 -0.0276 -0.6866  1.8461
   58SAPC  H11Y 4402   4.743   4.077   5.417 -0.6330  0.0401 -1.4692
   58SAPC  C312 4403   4.605   3.922   5.357 -0.5079  0.0361  0.8020
   58SAPC  H12X 4404   4.533   3.998   5.320 -1.6993 -1.8333 -0.9421
   58SAPC  H12Y 4405   4.540   3.840   5.392 -1.1255 -1.9726 -4.2298
   58SAPC  C313 4406   4.686   3.869   5.239 -0.4468 -0.3700 -0.0256
   58SAPC  H13X 4407   4.738   3.776   5.270  0.2012  0.5565  1.8466
   58SAPC  H13Y 4408   4.763   3.943   5.210 -1.0123 -0.0198 -0.6743
   58SAPC  C314 4409   4.601   3.837   5.115  0.1204 -1.0143 -0.4783
   58SAPC  H14X 4410   4.502   3.800   5.147  0.5139  0.5311  2.8924
   58SAPC  H14Y 4411   4.659   3.768   5.049  2.4003 -0.8489  1.2044
   58SAPC  C315 4412   4.562   3.952   5.022 -0.7288  0.1154 -0.4587
   58SAPC  H15X 4413   4.645   4.022   5.000 -2.1369  1.7352 -0.9161
   58SAPC  H15Y 4414   4.476   4.005   5.070  0.0447 -0.7176  2.0100
   58SAPC  C316 4415   4.496   3.910   4.887  0.6016  1.1018  0.0765
   58SAPC  H16X 4416   4.564   3.846   4.827 -1.4309 -0.2478 -0.8908
   58SAPC  H16Y 4417   4.463   3.999   4.830 -0.0773  0.1340 -1.0868
   58SAPC  C317 4418   4.365   3.830   4.910 -0.2673 -0.0179  0.6000
   58SAPC  H17X 4419   4.327   3.895   4.992  2.1873  1.8932  0.3343
   58SAPC  H17Y 4420   4.393   3.728   4.943 -0.2767  0.3104  1.6599
   58SAPC  C318 4421   4.265   3.821   4.789 -0.7951 -0.6390  0.1305
   58SAPC  H18X 4422   4.185   3.752   4.822 -1.1638 -0.4865 -0.4247
   58SAPC  H18Y 4423   4.327   3.796   4.701 -0.0679  1.6874 -0.0915
   58SAPC  H18Z 4424   4.216   3.917   4.762  0.1298 -0.5114 -1.1641
   59SAPC     N 4425   2.271   2.136   7.485  0.7852  0.0509 -0.1203
   59SAPC   C12 4426   2.377   2.241   7.470  0.0062 -0.3177  0.3885
   59SAPC  H12A 4427   2.338   2.302   7.390  3.8162  1.8645 -0.0530
   59SAPC  H12B 4428   2.464   2.195   7.426  0.9647  0.1696  1.7039
   59SAPC   C13 4429   2.234   2.090   7.351 -0.1504 -0.3759  0.5086
   59SAPC  H13A 4430   2.167   2.006   7.359  1.5379 -2.0277 -1.4504
   59SAPC  H13B 4431   2.175   2.166   7.302 -1.4803 -2.0990 -0.6843
   59SAPC  H13C 4432   2.312   2.055   7.285  0.0325 -2.6770  1.8576
   59SAPC   C14 4433   2.294   2.031   7.581  0.1154  0.4410  0.3942
   59SAPC  H14A 4434   2.294   2.062   7.685 -1.0215  0.2910  0.4474
   59SAPC  H14B 4435   2.221   1.954   7.566 -0.6259  0.7619  2.0555
   59SAPC  H14C 4436   2.395   1.998   7.560 -0.2118 -0.4535  0.2146
   59SAPC   C15 4437   2.150   2.203   7.549  0.5117  0.3056 -0.0573
   59SAPC  H15A 4438   2.175   2.256   7.640 -4.5957  1.7489  0.7660
   59SAPC  H15B 4439   2.104   2.270   7.479  2.5322 -0.9902 -2.8088
   59SAPC  H15C 4440   2.071   2.133   7.573  2.1025 -2.0807 -1.3632
   59SAPC   C11 4441   2.426   2.329   7.597  0.8773 -0.2332 -0.1477
   59SAPC  H11A 4442   2.326   2.364   7.630  0.7078  2.0428 -2.7541
   59SAPC  H11B 4443   2.479   2.424   7.577 -0.7472  1.0359  1.2702
   59SAPC     P 4444   2.634   2.204   7.683  0.0880 -0.0542 -0.0555
   59SAPC   O13 4445   2.730   2.274   7.770 -0.4890 -0.3745 -0.1200
   59SAPC   O14 4446   2.638   2.056   7.687 -0.0256 -0.0783  0.4208
   59SAPC   O12 4447   2.482   2.249   7.706 -0.0101 -0.9048  0.1067
   59SAPC   O11 4448   2.685   2.260   7.546 -0.1644 -0.2647  0.2473
   59SAPC    C1 4449   2.744   2.172   7.449 -0.0680  0.4015 -0.5456
   59SAPC    HA 4450   2.824   2.117   7.502 -0.5413  0.6733  0.4641
   59SAPC    HB 4451   2.671   2.099   7.409 -0.0422  0.3422 -0.4839
   59SAPC    C2 4452   2.805   2.249   7.322  0.2948  0.4877 -0.1526
   59SAPC    HS 4453   2.861   2.339   7.354  1.7480  0.2571 -1.9026
   59SAPC   O21 4454   2.696   2.277   7.228  0.2962  0.0307  0.0674
   59SAPC   C21 4455   2.687   2.410   7.201  0.3627  0.8864  0.5763
   59SAPC   O22 4456   2.752   2.499   7.252 -0.0349  0.4274  0.0226
   59SAPC   C22 4457   2.570   2.431   7.107 -0.3866  0.1883  0.3357
   59SAPC   H2R 4458   2.597   2.389   7.008  0.6079  2.7380 -0.5429
   59SAPC   H2S 4459   2.486   2.375   7.155 -0.3180 -2.8242 -2.7038
   59SAPC    C3 4460   2.912   2.166   7.244 -0.1366 -0.0467  0.7215
   59SAPC    HX 4461   2.869   2.068   7.214 -0.1097  0.4259 -0.9211
   59SAPC    HY 4462   3.001   2.147   7.308 -0.3239  0.6293  1.1969
   59SAPC   O31 4463   2.950   2.227   7.124 -0.2318 -0.1279  0.5889
   59SAPC   C31 4464   3.034   2.327   7.126 -0.0897  0.9452 -0.4596
   59SAPC   O32 4465   3.090   2.368   7.227  0.8359  0.2489  0.0444
   59SAPC   C32 4466   3.049   2.392   6.989  0.5411 -0.5120 -0.1526
   59SAPC   H2X 4467   3.000   2.330   6.911 -0.4279 -0.4881  0.4199
   59SAPC   H2Y 4468   3.159   2.409   6.980  0.3336  1.0023 -0.2260
   59SAPC   C23 4469   2.516   2.572   7.070 -0.3052  0.7378  0.0131
   59SAPC   H3R 4470   2.493   2.628   7.163  2.8139  1.8019  0.2567
   59SAPC   H3S 4471   2.415   2.555   7.026 -0.2055  0.4725 -0.1128
   59SAPC   C24 4472   2.611   2.641   6.969  0.1413 -0.5331 -0.1291
   59SAPC   H4R 4473   2.651   2.564   6.900  1.3016 -0.3626  0.3355
   59SAPC   H4S 4474   2.702   2.673   7.023  0.6480 -1.6583 -0.2855
   59SAPC   C25 4475   2.539   2.744   6.880  0.2959  0.7866 -0.4408
   59SAPC   H5R 4476   2.473   2.818   6.929 -0.7245 -0.2501 -0.2017
   59SAPC   C26 4477   2.530   2.734   6.745  0.0810 -0.2097  0.3060
   59SAPC   H6R 4478   2.484   2.819   6.693  0.4129  0.2202  0.7121
   59SAPC   C27 4479   2.597   2.635   6.654 -0.1270  0.3950 -0.1593
   59SAPC   H7R 4480   2.525   2.557   6.622  1.3004 -2.0817  2.2688
   59SAPC   H7S 4481   2.670   2.581   6.718 -0.1587  0.3832 -0.1327
   59SAPC   C28 4482   2.678   2.697   6.543  0.7616 -0.2826 -0.2946
   59SAPC   H8R 4483   2.762   2.757   6.580  0.9130 -1.5252  1.4708
   59SAPC   C29 4484   2.651   2.698   6.408 -0.9061 -0.0211 -0.2495
   59SAPC   H9R 4485   2.719   2.766   6.354 -0.1767  0.4967  1.2575
   59SAPC  C210 4486   2.539   2.619   6.345  0.3360 -0.2542 -0.0031
   59SAPC  H10R 4487   2.459   2.595   6.419  0.5934  0.8164  0.6600
   59SAPC  H10S 4488   2.578   2.527   6.299 -1.9599 -1.6664  0.7022
   59SAPC  C211 4489   2.473   2.693   6.231 -0.2307  0.2206 -0.4400
   59SAPC  H11R 4490   2.536   2.704   6.141 -0.9571 -0.7324 -1.0823
   59SAPC  C212 4491   2.356   2.753   6.231  0.3214 -0.3510 -1.0462
   59SAPC  H12R 4492   2.324   2.798   6.137  1.4242  2.0184 -0.3568
   59SAPC  C213 4493   2.259   2.765   6.352 -0.0107 -0.2532  0.4999
   59SAPC  H13R 4494   2.312   2.750   6.448 -1.7480 -0.6898  1.4350
   59SAPC  H13S 4495   2.196   2.674   6.361 -0.7057  0.3288  1.6377
   59SAPC  C214 4496   2.172   2.881   6.377 -0.5231  0.5519  0.1748
   59SAPC  H14R 4497   2.178   2.952   6.293 -0.3805 -1.6410 -1.7774
   59SAPC  C215 4498   2.097   2.915   6.485  0.0154 -0.3400 -0.1871
   59SAPC  H15R 4499   2.025   2.998   6.479  0.7922  0.3795  0.1031
   59SAPC  C216 4500   2.062   2.827   6.605  0.0760  0.6870  0.4941
   59SAPC  H16R 4501   2.098   2.724   6.583  0.0255  0.7174  0.2583
   59SAPC  H16S 4502   1.952   2.841   6.614 -0.2963 -1.5684  0.0557
   59SAPC  C217 4503   2.116   2.878   6.742  0.5157  0.7563 -0.4355
   59SAPC  H17R 4504   2.065   2.972   6.771 -1.6847 -0.8613  1.1702
   59SAPC  H17S 4505   2.228   2.881   6.742  0.5514 -0.2095 -0.4767
   59SAPC  C218 4506   2.082   2.766   6.853 -0.1865  0.0202 -0.1549
   59SAPC  H18R 4507   2.132   2.670   6.831  0.5228  0.3494 -0.0316
   59SAPC  H18S 4508   1.972   2.754   6.863 -0.1233  0.9551  2.6973
   59SAPC  C219 4509   2.147   2.805   6.985 -0.3985 -0.1708 -0.0128
   59SAPC  H19R 4510   2.110   2.907   7.011  2.0913  1.0660 -0.9908
   59SAPC  H19S 4511   2.253   2.834   6.969 -0.6633  2.5129  2.2675
   59SAPC  C220 4512   2.123   2.717   7.106  0.5242  0.4622 -0.1393
   59SAPC  H20R 4513   2.197   2.745   7.183  2.2704 -1.5477 -0.9809
   59SAPC  H20S 4514   2.135   2.608   7.083 -1.5876 -0.3864  2.3055
   59SAPC  H20T 4515   2.013   2.721   7.124  0.1210  2.8908 -2.5228
   59SAPC   C33 4516   2.982   2.530   6.988  0.1006  0.8443  0.3704
   59SAPC   H3X 4517   3.013   2.591   7.075 -1.2183  1.4316  0.4490
   59SAPC   H3Y 4518   2.871   2.525   6.994  0.0626 -1.9587 -1.0620
   59SAPC   C34 4519   3.012   2.604   6.853 -0.2794  0.3798  0.7712
   59SAPC   H4X 4520   3.123   2.612   6.858  0.0470 -2.5853  0.4994
   59SAPC   H4Y 4521   2.961   2.702   6.860  0.3626  0.7222  0.6383
   59SAPC   C35 4522   2.973   2.525   6.723 -0.2556 -0.3449  0.3181
   59SAPC   H5X 4523   2.862   2.510   6.720 -0.4566  1.2373 -1.6946
   59SAPC   H5Y 4524   3.030   2.431   6.707 -0.7918 -0.5463 -0.4994
   59SAPC   C36 4525   3.016   2.609   6.595  0.1614 -0.0957 -0.5430
   59SAPC   H6X 4526   3.123   2.637   6.606 -0.0721  0.3035  1.0327
   59SAPC   H6Y 4527   2.956   2.701   6.607  1.7135  0.8243  0.5446
   59SAPC   C37 4528   2.999   2.518   6.479 -0.7031  0.2981  0.8569
   59SAPC   H7X 4529   2.890   2.497   6.475 -0.7205  0.4605  0.3369
   59SAPC   H7Y 4530   3.055   2.424   6.497  0.5934  0.9893  0.5620
   59SAPC   C38 4531   3.038   2.565   6.338 -0.4717 -0.3040  0.2997
   59SAPC   H8X 4532   3.148   2.579   6.330 -0.4439 -0.0189  1.1284
   59SAPC   H8Y 4533   2.996   2.666   6.319  1.5398  0.6860  0.8665
   59SAPC   C39 4534   2.989   2.475   6.227 -1.0890  0.4433  0.3984
   59SAPC   H9X 4535   2.882   2.445   6.237 -0.7618 -1.8306 -1.8382
   59SAPC   H9Y 4536   3.039   2.376   6.237 -0.4735  0.4691 -2.0017
   59SAPC  C310 4537   3.031   2.523   6.083  0.0882 -0.0136  0.2232
   59SAPC  H10X 4538   3.141   2.539   6.083 -0.2931  3.4400  1.3160
   59SAPC  H10Y 4539   2.978   2.618   6.063 -1.5112 -1.0922 -0.9255
   59SAPC  C311 4540   2.986   2.441   5.960 -1.0502  0.5146  0.5079
   59SAPC  H11X 4541   2.880   2.410   5.959 -0.7356 -0.6187 -0.6151
   59SAPC  H11Y 4542   3.027   2.338   5.967  0.1464  1.0626  2.4977
   59SAPC  C312 4543   3.014   2.530   5.834 -0.3260  0.4548 -0.5710
   59SAPC  H12X 4544   3.123   2.555   5.831  0.1603 -1.5301 -1.7430
   59SAPC  H12Y 4545   2.951   2.621   5.823  0.4830  0.9904 -0.8985
   59SAPC  C313 4546   2.995   2.453   5.703 -0.3197  0.3259  0.1572
   59SAPC  H13X 4547   2.887   2.427   5.699 -0.1987 -0.1871  0.1121
   59SAPC  H13Y 4548   3.051   2.358   5.716 -0.0912  0.3078 -0.9078
   59SAPC  C314 4549   3.046   2.538   5.586  0.4146  0.3977 -0.0684
   59SAPC  H14X 4550   3.150   2.569   5.609  0.5603  1.8180 -2.2788
   59SAPC  H14Y 4551   2.984   2.629   5.573 -1.3082 -0.6345  0.6623
   59SAPC  C315 4552   3.032   2.459   5.447  0.2082 -0.6730 -0.5158
   59SAPC  H15X 4553   2.931   2.466   5.402 -0.5312 -2.2650  0.7870
   59SAPC  H15Y 4554   3.033   2.353   5.479 -0.5651 -0.6870 -0.5185
   59SAPC  C316 4555   3.153   2.500   5.359  0.6694 -0.0970  0.1889
   59SAPC  H16X 4556   3.253   2.489   5.406  0.9249 -4.8520 -0.9172
   59SAPC  H16Y 4557   3.146   2.605   5.325 -0.2317 -0.2168 -0.0129
   59SAPC  C317 4558   3.148   2.411   5.231 -0.8757  0.8738  0.5081
   59SAPC  H17X 4559   3.041   2.401   5.205 -0.4807 -2.4622 -0.3096
   59SAPC  H17Y 4560   3.203   2.316   5.250 -1.0256  0.9514  1.4091
   59SAPC  C318 4561   3.210   2.472   5.108 -0.4611 -0.4068  0.3344
   59SAPC  H18X 4562   3.164   2.571   5.086  1.3757  0.5398  0.5998
   59SAPC  H18Y 4563   3.201   2.396   5.027 -0.2330 -0.9299  0.7972
   59SAPC  H18Z 4564   3.316   2.502   5.117 -0.7729  0.6835  0.5301
   60SAPC     N 4565   0.773   1.603   7.867  0.9179  0.3433 -0.4373
   60SAPC   C12 4566   0.851   1.617   7.737 -0.2742  0.0089 -0.1870
   60SAPC  H12A 4567   0.888   1.523   7.700 -0.8433 -0.0186 -0.7056
   60SAPC  H12B 4568   0.931   1.682   7.770 -2.3041  2.6707 -0.1374
   60SAPC   C13 4569   0.714   1.737   7.923  0.1744 -0.5334  0.0699
   60SAPC  H13A 4570   0.691   1.708   8.025  0.1940 -2.0003 -0.3290
   60SAPC  H13B 4571   0.792   1.811   7.923  1.0499 -1.4075 -1.6431
   60SAPC  H13C 4572   0.637   1.774   7.857  2.4449  3.7531 -0.5357
   60SAPC   C14 4573   0.656   1.509   7.846 -0.3003 -0.0089 -0.3107
   60SAPC  H14A 4574   0.603   1.478   7.935 -1.0169  0.8581 -0.4190
   60SAPC  H14B 4575   0.593   1.554   7.771 -1.4423 -2.6567 -1.0308
   60SAPC  H14C 4576   0.696   1.415   7.811  0.2915 -0.6254  1.8700
   60SAPC   C15 4577   0.855   1.549   7.973 -0.2700  0.0680 -0.3735
   60SAPC  H15A 4578   0.935   1.616   8.000  0.3582 -1.3847  1.6554
   60SAPC  H15B 4579   0.803   1.530   8.066 -0.7368 -1.6792 -0.9457
   60SAPC  H15C 4580   0.901   1.454   7.949  1.9097  0.9500  0.0871
   60SAPC   C11 4581   0.773   1.682   7.624 -0.1510 -0.1527  0.0482
   60SAPC  H11A 4582   0.839   1.701   7.537  0.2279 -2.6934 -0.2849
   60SAPC  H11B 4583   0.728   1.782   7.646 -0.4448  0.3936 -2.6636
   60SAPC     P 4584   0.687   1.487   7.473  0.2299 -0.0091 -0.0582
   60SAPC   O13 4585   0.826   1.444   7.469 -0.3130  0.1967  0.9580
   60SAPC   O14 4586   0.587   1.379   7.491  0.0528 -0.0024  0.5092
   60SAPC   O12 4587   0.664   1.597   7.588  0.2235  0.4880 -0.2212
   60SAPC   O11 4588   0.658   1.573   7.342 -0.4705  0.4444 -0.0117
   60SAPC    C1 4589   0.528   1.600   7.286  0.9250  0.4300  0.8060
   60SAPC    HA 4590   0.443   1.543   7.330  0.3041 -0.0456 -0.9360
   60SAPC    HB 4591   0.498   1.706   7.297 -2.4774 -0.0127 -2.2547
   60SAPC    C2 4592   0.518   1.580   7.130  0.4828 -0.2753 -0.2801
   60SAPC    HS 4593   0.412   1.580   7.098 -0.9819 -3.0428  3.8580
   60SAPC   O21 4594   0.576   1.458   7.081 -0.5050  0.0808  0.0394
   60SAPC   C21 4595   0.507   1.353   7.109  0.2753  1.0328  1.1025
   60SAPC   O22 4596   0.399   1.347   7.162 -0.0440  0.5667 -0.2877
   60SAPC   C22 4597   0.583   1.239   7.042  0.1852 -0.2556  1.0073
   60SAPC   H2R 4598   0.692   1.247   7.065  0.8529 -1.7245 -1.3190
   60SAPC   H2S 4599   0.553   1.141   7.086 -0.4394 -0.6152 -0.1827
   60SAPC    C3 4600   0.580   1.706   7.067  0.2046  0.6607 -0.5994
   60SAPC    HX 4601   0.684   1.699   7.106 -1.1393  0.1043  3.4168
   60SAPC    HY 4602   0.545   1.803   7.109 -0.3747  0.5313 -0.7634
   60SAPC   O31 4603   0.564   1.702   6.922  0.4422 -0.1113 -0.2033
   60SAPC   C31 4604   0.664   1.646   6.858 -0.1494  0.3035  1.0522
   60SAPC   O32 4605   0.778   1.635   6.900 -0.3756 -0.1034  0.2672
   60SAPC   C32 4606   0.609   1.617   6.715  0.3899 -0.6946  0.0988
   60SAPC   H2X 4607   0.533   1.696   6.697  1.9589  0.5626 -1.4053
   60SAPC   H2Y 4608   0.564   1.516   6.708 -1.1597  0.0805 -2.8121
   60SAPC   C23 4609   0.559   1.217   6.886 -0.4362  0.2227  0.2724
   60SAPC   H3R 4610   0.548   1.319   6.845  1.5507  1.3932  2.4930
   60SAPC   H3S 4611   0.465   1.162   6.860 -0.7627  0.9888 -0.2019
   60SAPC   C24 4612   0.685   1.156   6.823 -0.5318  0.0755 -0.0278
   60SAPC   H4R 4613   0.653   1.130   6.720  0.1896  1.0351 -0.5139
   60SAPC   H4S 4614   0.705   1.057   6.870  0.4955  0.7388  0.9846
   60SAPC   C25 4615   0.807   1.242   6.821 -0.6682 -0.8909  0.4113
   60SAPC   H5R 4616   0.819   1.320   6.898 -1.0621 -2.3929  2.0607
   60SAPC   C26 4617   0.909   1.234   6.726 -0.1696  1.0702 -0.3174
   60SAPC   H6R 4618   0.991   1.307   6.736  1.1682 -0.4709  0.5974
   60SAPC   C27 4619   0.917   1.130   6.614  1.0939  0.3036  0.0312
   60SAPC   H7R 4620   0.821   1.133   6.559 -0.6339  0.7185  2.8946
   60SAPC   H7S 4621   0.920   1.028   6.656 -1.9080  0.0929 -0.0942
   60SAPC   C28 4622   1.038   1.147   6.526  0.0895 -0.5440 -0.1554
   60SAPC   H8R 4623   1.129   1.108   6.572  0.4739  1.2116  0.6710
   60SAPC   C29 4624   1.041   1.192   6.398  0.2622 -0.0744 -0.1581
   60SAPC   H9R 4625   1.137   1.204   6.347  0.7449 -0.8299  0.5440
   60SAPC  C210 4626   0.925   1.248   6.323  0.1570  1.0417 -0.2563
   60SAPC  H10R 4627   0.853   1.306   6.385  0.5018 -2.1443  3.5381
   60SAPC  H10S 4628   0.876   1.158   6.281 -0.6503  0.4036  1.9380
   60SAPC  C211 4629   0.967   1.345   6.217 -0.4724 -0.0482  0.1777
   60SAPC  H11R 4630   1.043   1.419   6.244  0.3667  0.1959 -2.5433
   60SAPC  C212 4631   0.918   1.355   6.090  0.2462  0.3855 -0.2017
   60SAPC  H12R 4632   0.965   1.424   6.019  0.4908 -1.2976 -1.7495
   60SAPC  C213 4633   0.816   1.267   6.011  0.6871  0.0128  0.4244
   60SAPC  H13R 4634   0.822   1.163   6.050 -0.5185 -0.1766  0.1489
   60SAPC  H13S 4635   0.837   1.258   5.903  0.8873 -1.3578  0.5709
   60SAPC  C214 4636   0.682   1.328   6.056  0.5998  0.3436  0.7209
   60SAPC  H14R 4637   0.682   1.352   6.163  2.0739  0.0494  0.8090
   60SAPC  C215 4638   0.577   1.359   5.976  0.1827  0.6117 -0.2530
   60SAPC  H15R 4639   0.477   1.384   6.014 -0.2030  0.0693 -0.8808
   60SAPC  C216 4640   0.566   1.335   5.830 -0.1871 -0.0607  0.0815
   60SAPC  H16R 4641   0.475   1.278   5.803 -1.6549  2.3065 -0.2696
   60SAPC  H16S 4642   0.658   1.279   5.804  0.1499  0.1388  0.8059
   60SAPC  C217 4643   0.564   1.469   5.751 -0.8331  0.0897  0.1258
   60SAPC  H17R 4644   0.628   1.544   5.803 -1.4002  0.1541  0.7398
   60SAPC  H17S 4645   0.464   1.516   5.764 -1.6786 -1.3584 -0.8966
   60SAPC  C218 4646   0.597   1.448   5.605 -1.1545  0.3755 -0.3081
   60SAPC  H18R 4647   0.519   1.387   5.555 -0.0009 -0.1183 -1.5773
   60SAPC  H18S 4648   0.690   1.389   5.590  0.3861  2.9502 -1.5606
   60SAPC  C219 4649   0.614   1.580   5.531 -0.0554 -0.0662  0.8324
   60SAPC  H19R 4650   0.678   1.644   5.596 -1.4998  1.2732  1.0039
   60SAPC  H19S 4651   0.515   1.630   5.527  0.0588  0.0851 -0.7142
   60SAPC  C220 4652   0.651   1.558   5.382 -0.2141 -0.2427 -0.7689
   60SAPC  H20R 4653   0.563   1.519   5.327 -1.8277  3.2179 -0.9203
   60SAPC  H20S 4654   0.742   1.494   5.374 -0.4020 -0.5000 -0.8200
   60SAPC  H20T 4655   0.686   1.656   5.341  0.5777 -0.4989 -0.7316
   60SAPC   C33 4656   0.726   1.634   6.613 -0.5049  0.0110 -0.3671
   60SAPC   H3X 4657   0.791   1.545   6.623 -1.5622 -0.7464  0.0010
   60SAPC   H3Y 4658   0.781   1.727   6.639  0.6062 -0.8976  0.6193
   60SAPC   C34 4659   0.671   1.639   6.470 -0.0560  0.2727  0.0640
   60SAPC   H4X 4660   0.573   1.690   6.466 -0.6236 -0.6769  1.3103
   60SAPC   H4Y 4661   0.661   1.535   6.432 -1.0017  0.0948  0.7857
   60SAPC   C35 4662   0.775   1.706   6.377 -0.2532  0.2470 -0.1143
   60SAPC   H5X 4663   0.880   1.686   6.407  0.2332  3.4978  0.7564
   60SAPC   H5Y 4664   0.773   1.815   6.397  0.8989 -0.0487  1.8227
   60SAPC   C36 4665   0.739   1.670   6.230  0.3910 -0.6554 -0.3491
   60SAPC   H6X 4666   0.647   1.730   6.212  1.2125  1.3864  1.8401
   60SAPC   H6Y 4667   0.707   1.564   6.215 -0.0848 -0.5173 -0.3400
   60SAPC   C37 4668   0.848   1.718   6.142 -0.2709 -0.4598  0.2753
   60SAPC   H7X 4669   0.943   1.665   6.168 -0.7980 -0.9732  1.2206
   60SAPC   H7Y 4670   0.854   1.825   6.169 -1.7847 -0.3422  0.2127
   60SAPC   C38 4671   0.812   1.713   5.993  0.5985  0.2939  0.3678
   60SAPC   H8X 4672   0.715   1.763   5.974  0.5795 -0.6071 -2.4164
   60SAPC   H8Y 4673   0.798   1.605   5.969 -1.8350  0.2011  1.9178
   60SAPC   C39 4674   0.919   1.770   5.903 -1.2107 -0.8666 -0.2699
   60SAPC   H9X 4675   1.000   1.694   5.909 -1.5543 -1.1575  0.8766
   60SAPC   H9Y 4676   0.954   1.865   5.950 -2.4388  0.9182 -2.7377
   60SAPC  C310 4677   0.874   1.806   5.765 -0.4489  1.1572  0.1010
   60SAPC  H10X 4678   0.803   1.891   5.757  0.2127  1.8607  1.3268
   60SAPC  H10Y 4679   0.821   1.716   5.726  1.5851 -0.6121  1.1778
   60SAPC  C311 4680   0.987   1.816   5.671 -0.3392 -0.3870 -0.1587
   60SAPC  H11X 4681   1.059   1.733   5.687  1.6449  1.5376  1.5852
   60SAPC  H11Y 4682   1.043   1.909   5.697  0.7662  0.0540 -3.5484
   60SAPC  C312 4683   0.938   1.835   5.528 -0.8897 -0.3122 -0.3237
   60SAPC  H12X 4684   0.868   1.920   5.525 -0.4815  0.1106  1.4108
   60SAPC  H12Y 4685   0.885   1.744   5.491 -0.4689 -0.1027 -1.4936
   60SAPC  C313 4686   1.057   1.856   5.432  0.1338 -1.7717  0.0083
   60SAPC  H13X 4687   1.103   1.755   5.430 -0.6497 -2.1601  0.8326
   60SAPC  H13Y 4688   1.137   1.913   5.484 -0.7722 -1.8989  1.6069
   60SAPC  C314 4689   1.013   1.896   5.288  0.5110  0.3898  0.3573
   60SAPC  H14X 4690   0.940   1.828   5.237  1.1347  0.8707 -1.2241
   60SAPC  H14Y 4691   1.108   1.892   5.232  0.9232  4.5252  0.4668
   60SAPC  C315 4692   0.991   2.054   5.274 -0.2571  0.8065 -0.3487
   60SAPC  H15X 4693   1.034   2.102   5.364  0.0698  2.4647 -1.3548
   60SAPC  H15Y 4694   0.883   2.079   5.275 -0.1337  1.5055 -2.0096
   60SAPC  C316 4695   1.059   2.101   5.151 -0.6306 -0.8563  0.7506
   60SAPC  H16X 4696   1.006   2.062   5.062 -1.4241  0.8626  0.4328
   60SAPC  H16Y 4697   1.164   2.071   5.132 -1.1394 -2.8294  0.8865
   60SAPC  C317 4698   1.042   2.254   5.150 -0.1256  0.2721  0.1045
   60SAPC  H17X 4699   1.080   2.317   5.233  0.3129  2.1767 -1.4768
   60SAPC  H17Y 4700   0.933   2.276   5.154  0.0377  0.8602  2.9345
   60SAPC  C318 4701   1.110   2.313   5.027 -0.4933 -0.1733  0.1636
   60SAPC  H18X 4702   1.221   2.308   5.032 -0.4126  1.6339  0.8988
   60SAPC  H18Y 4703   1.077   2.415   4.998 -0.8954 -0.3828 -0.1259
   60SAPC  H18Z 4704   1.086   2.250   4.939  0.6660  0.2166 -0.4450
   61SAPC     N 4705   0.609   5.051   7.313  0.3088 -0.3222 -0.3040
   61SAPC   C12 4706   0.564   5.000   7.179 -0.0992  0.4010  0.2560
   61SAPC  H12A 4707   0.642   4.945   7.129 -2.1002 -1.2782 -1.1821
   61SAPC  H12B 4708   0.554   5.086   7.113 -1.9884 -1.3072 -1.8477
   61SAPC   C13 4709   0.528   5.162   7.374 -0.3906 -0.1347 -1.6600
   61SAPC  H13A 4710   0.426   5.128   7.390 -0.3999  0.5635  0.0388
   61SAPC  H13B 4711   0.566   5.195   7.470  0.1532  1.2241 -2.3224
   61SAPC  H13C 4712   0.514   5.254   7.320 -2.6000  1.5023  1.3772
   61SAPC   C14 4713   0.613   4.934   7.405 -0.2254  0.4860  0.5141
   61SAPC  H14A 4714   0.650   4.971   7.500 -1.1121 -1.1145  1.5275
   61SAPC  H14B 4715   0.510   4.902   7.413 -0.5122  0.8487 -1.4160
   61SAPC  H14C 4716   0.685   4.861   7.373  1.7391  1.9816  1.2587
   61SAPC   C15 4717   0.746   5.110   7.306  0.1587  1.0787  0.5618
   61SAPC  H15A 4718   0.779   5.153   7.399  1.4691 -1.2471  1.2483
   61SAPC  H15B 4719   0.827   5.043   7.284 -1.6054 -1.5859  1.7349
   61SAPC  H15C 4720   0.745   5.191   7.234  1.0924  0.2202 -0.4540
   61SAPC   C11 4721   0.434   4.920   7.170 -0.2491 -0.5798 -0.4115
   61SAPC  H11A 4722   0.415   4.907   7.061 -0.1819 -1.2196 -0.3520
   61SAPC  H11B 4723   0.355   4.981   7.219 -0.3410 -2.3907  1.8306
   61SAPC     P 4724   0.550   4.689   7.153  0.0076  0.4095  0.1336
   61SAPC   O13 4725   0.684   4.745   7.129 -0.1730 -0.0417  0.5408
   61SAPC   O14 4726   0.543   4.570   7.242 -0.2162  0.9359 -0.6718
   61SAPC   O12 4727   0.454   4.796   7.228  0.3562  0.1316 -0.9921
   61SAPC   O11 4728   0.467   4.669   7.017  0.0150 -0.3938  0.7770
   61SAPC    C1 4729   0.322   4.652   7.020  0.4245 -0.1385  0.0487
   61SAPC    HA 4730   0.264   4.698   7.102 -3.7033 -0.0372 -2.6095
   61SAPC    HB 4731   0.272   4.700   6.933  1.7252  1.2381  0.0209
   61SAPC    C2 4732   0.273   4.499   7.011 -0.0231 -0.2196 -0.2095
   61SAPC    HS 4733   0.301   4.447   7.105  2.1162  2.5464  0.8099
   61SAPC   O21 4734   0.328   4.434   6.899  0.0448 -0.2965 -0.3415
   61SAPC   C21 4735   0.282   4.312   6.883 -0.4106  0.3614  0.4933
   61SAPC   O22 4736   0.259   4.232   6.971 -0.1718  0.1845  0.2483
   61SAPC   C22 4737   0.271   4.285   6.738 -0.5125 -0.3694  0.3664
   61SAPC   H2R 4738   0.265   4.381   6.682  0.3290  1.2519  2.8569
   61SAPC   H2S 4739   0.369   4.238   6.716 -0.2253  0.2175  0.3600
   61SAPC    C3 4740   0.116   4.493   7.004  0.1751 -0.0782  0.0892
   61SAPC    HX 4741   0.082   4.573   7.073  1.6778 -0.0793  0.8819
   61SAPC    HY 4742   0.079   4.395   7.041  1.6877 -1.3224 -1.5135
   61SAPC   O31 4743   0.060   4.512   6.872 -0.2651 -0.1876 -0.2941
   61SAPC   C31 4744  -0.069   4.557   6.870  0.0792 -0.2912  0.5489
   61SAPC   O32 4745  -0.133   4.576   6.967  0.4870 -0.0961 -0.6260
   61SAPC   C32 4746  -0.113   4.554   6.720  0.8779  0.8554 -0.3156
   61SAPC   H2X 4747  -0.064   4.468   6.669 -0.4995  0.9824 -1.9410
   61SAPC   H2Y 4748  -0.077   4.649   6.676 -0.3181  1.2514 -0.4820
   61SAPC   C23 4749   0.147   4.191   6.716 -0.3078  0.0596 -0.1757
   61SAPC   H3R 4750   0.063   4.237   6.772  0.5537  1.6663 -0.1429
   61SAPC   H3S 4751   0.178   4.095   6.764 -0.7804  0.1309  0.2747
   61SAPC   C24 4752   0.114   4.152   6.567 -0.2875  0.1189  0.1351
   61SAPC   H4R 4753   0.024   4.087   6.557 -1.6603  2.0829 -1.0667
   61SAPC   H4S 4754   0.197   4.085   6.537  0.4522 -0.0893  2.4576
   61SAPC   C25 4755   0.095   4.274   6.479  0.3334  0.0323  0.5800
   61SAPC   H5R 4756   0.027   4.349   6.522 -0.0503  0.4166 -0.6434
   61SAPC   C26 4757   0.148   4.297   6.359  0.0594  0.4820  0.8580
   61SAPC   H6R 4758   0.111   4.392   6.317 -1.0507  0.0005  0.7166
   61SAPC   C27 4759   0.232   4.197   6.279 -0.7884  0.0628  0.2812
   61SAPC   H7R 4760   0.175   4.130   6.211  1.4091 -1.9375  0.2697
   61SAPC   H7S 4761   0.280   4.127   6.351 -1.4870  0.5486  1.2493
   61SAPC   C28 4762   0.334   4.280   6.207 -0.3385 -0.0661  0.7179
   61SAPC   H8R 4763   0.405   4.336   6.270  1.6453  0.2681 -1.6264
   61SAPC   C29 4764   0.335   4.320   6.080  0.0940 -0.1544  0.3439
   61SAPC   H9R 4765   0.423   4.382   6.059 -0.7445  1.1032  0.4518
   61SAPC  C210 4766   0.244   4.267   5.972 -0.6645  0.1175  0.3550
   61SAPC  H10R 4767   0.265   4.160   5.955  0.2028 -0.0365  2.1661
   61SAPC  H10S 4768   0.273   4.324   5.882  1.5713 -1.4597 -0.0012
   61SAPC  C211 4769   0.099   4.278   5.988 -0.9875 -0.0050  0.6945
   61SAPC  H11R 4770   0.069   4.297   6.092 -0.4586  0.4814  0.7647
   61SAPC  C212 4771  -0.002   4.250   5.903  0.6086 -0.2028 -0.3632
   61SAPC  H12R 4772  -0.103   4.248   5.947  0.1922  0.1266 -1.2844
   61SAPC  C213 4773  -0.002   4.227   5.755  0.5516 -0.4677  0.0449
   61SAPC  H13R 4774   0.049   4.313   5.707  1.6395 -1.5421 -0.7939
   61SAPC  H13S 4775  -0.106   4.234   5.716 -0.0008  1.1315  1.6845
   61SAPC  C214 4776   0.056   4.098   5.712 -0.0637  0.2872 -0.3174
   61SAPC  H14R 4777   0.054   4.028   5.797  0.2498  0.4523 -0.1761
   61SAPC  C215 4778   0.124   4.061   5.606 -0.1110 -0.6053  0.6561
   61SAPC  H15R 4779   0.164   3.959   5.598 -0.8519 -0.9859  1.6610
   61SAPC  C216 4780   0.153   4.156   5.494 -0.0353 -0.2162 -0.1770
   61SAPC  H16R 4781   0.239   4.217   5.529 -1.3401 -0.8276  4.7486
   61SAPC  H16S 4782   0.069   4.227   5.478 -0.5380 -0.1053  2.5658
   61SAPC  C217 4783   0.172   4.076   5.363 -0.1394 -0.9994 -0.2791
   61SAPC  H17R 4784   0.252   4.001   5.382  2.0758  1.0695 -0.8422
   61SAPC  H17S 4785   0.211   4.152   5.292  0.4280 -0.2926  0.7668
   61SAPC  C218 4786   0.053   4.016   5.288  1.0887  0.0900  0.3821
   61SAPC  H18R 4787  -0.022   4.094   5.261  0.8432 -0.8958 -2.0751
   61SAPC  H18S 4788   0.005   3.956   5.368 -0.4245  2.5319  1.4292
   61SAPC  C219 4789   0.091   3.931   5.165  0.0949 -0.3009 -0.2998
   61SAPC  H19R 4790   0.012   3.869   5.117  1.0487 -0.5748 -1.5582
   61SAPC  H19S 4791   0.171   3.860   5.197  0.2727 -0.2230 -0.5680
   61SAPC  C220 4792   0.160   4.012   5.058 -1.3974  0.3999 -0.1566
   61SAPC  H20R 4793   0.271   4.008   5.072 -1.6223 -1.1522  1.5796
   61SAPC  H20S 4794   0.118   4.115   5.064 -0.2888  0.9381 -1.2938
   61SAPC  H20T 4795   0.128   3.998   4.953  0.2152  3.1899 -1.1473
   61SAPC   C33 4796  -0.263   4.548   6.710  0.1830  0.0023  0.2962
   61SAPC   H3X 4797  -0.319   4.633   6.756 -2.9917 -2.3595  1.1931
   61SAPC   H3Y 4798  -0.299   4.455   6.758  0.4926  0.8896  2.3483
   61SAPC   C34 4799  -0.299   4.534   6.560 -0.0760  0.2491 -0.2056
   61SAPC   H4X 4800  -0.409   4.526   6.547 -0.0045 -0.4493 -0.4184
   61SAPC   H4Y 4801  -0.265   4.429   6.545  4.4085  1.2710  1.3465
   61SAPC   C35 4802  -0.221   4.627   6.459 -1.1519 -0.2094 -0.1170
   61SAPC   H5X 4803  -0.125   4.581   6.427 -0.7441  0.5676 -0.0399
   61SAPC   H5Y 4804  -0.197   4.727   6.502  2.6544 -1.2355  0.5542
   61SAPC   C36 4805  -0.301   4.654   6.331  0.2603  0.3058 -0.0470
   61SAPC   H6X 4806  -0.382   4.725   6.358  1.6412  1.6011  0.8619
   61SAPC   H6Y 4807  -0.359   4.562   6.306  0.7486 -0.2971  0.9843
   61SAPC   C37 4808  -0.229   4.708   6.208  0.3257 -0.3666 -0.0033
   61SAPC   H7X 4809  -0.140   4.643   6.194  0.1004 -1.1071  1.7064
   61SAPC   H7Y 4810  -0.185   4.807   6.230 -0.9138 -0.0590  1.2960
   61SAPC   C38 4811  -0.316   4.716   6.085  0.1557  0.5976 -0.1984
   61SAPC   H8X 4812  -0.402   4.782   6.107 -1.7172 -0.5078 -3.4920
   61SAPC   H8Y 4813  -0.353   4.613   6.064 -0.6709  1.0327 -0.9531
   61SAPC   C39 4814  -0.252   4.790   5.967 -1.1987  0.8473  0.4120
   61SAPC   H9X 4815  -0.204   4.888   5.986 -0.2980  0.7323 -1.0932
   61SAPC   H9Y 4816  -0.318   4.803   5.879  0.0565 -0.6145 -0.8045
   61SAPC  C310 4817  -0.143   4.692   5.920  0.8242 -0.1267  0.4509
   61SAPC  H10X 4818  -0.182   4.595   5.957  0.1861  0.4235  1.2535
   61SAPC  H10Y 4819  -0.040   4.706   5.961  0.7706  1.4405  0.0933
   61SAPC  C311 4820  -0.129   4.705   5.763  0.1291  0.0906  0.0872
   61SAPC  H11X 4821  -0.078   4.801   5.743  0.4260 -0.1559 -0.3634
   61SAPC  H11Y 4822  -0.229   4.712   5.715  0.1312 -2.2634 -0.3830
   61SAPC  C312 4823  -0.056   4.593   5.700 -0.0058  0.4144 -0.8734
   61SAPC  H12X 4824  -0.096   4.494   5.729 -1.1002  1.6702  2.3964
   61SAPC  H12Y 4825   0.048   4.590   5.738 -0.0764 -1.3795 -0.7664
   61SAPC  C313 4826  -0.047   4.611   5.552  0.2744  0.2425  0.7608
   61SAPC  H13X 4827   0.005   4.709   5.540 -1.7586  1.4472  1.3148
   61SAPC  H13Y 4828  -0.150   4.618   5.512  0.4786 -1.0458 -0.0415
   61SAPC  C314 4829   0.022   4.495   5.469  0.0929 -0.0617 -0.2159
   61SAPC  H14X 4830  -0.045   4.407   5.473 -0.4873  0.4106  1.3853
   61SAPC  H14Y 4831   0.119   4.464   5.512  1.7298  0.9869 -2.8769
   61SAPC  C315 4832   0.062   4.545   5.331  0.6230 -0.6174 -0.0567
   61SAPC  H15X 4833   0.125   4.635   5.348 -2.0394  1.7924 -2.0097
   61SAPC  H15Y 4834  -0.024   4.576   5.267  0.1954 -0.3241  0.6510
   61SAPC  C316 4835   0.144   4.440   5.250 -0.2677 -0.0975  0.3008
   61SAPC  H16X 4836   0.071   4.366   5.212 -0.8361  0.0168  1.1441
   61SAPC  H16Y 4837   0.207   4.385   5.323 -0.6103 -1.4374 -0.3927
   61SAPC  C317 4838   0.233   4.500   5.136 -0.3974 -0.3280  0.0261
   61SAPC  H17X 4839   0.300   4.569   5.192 -0.4444  0.8149 -1.2892
   61SAPC  H17Y 4840   0.176   4.560   5.061 -0.3556 -1.1443 -0.6665
   61SAPC  C318 4841   0.298   4.382   5.063  0.4077 -0.9002 -0.0874
   61SAPC  H18X 4842   0.356   4.317   5.132  0.2167 -1.9430 -0.8672
   61SAPC  H18Y 4843   0.366   4.418   4.983 -0.6554  1.0301 -0.1728
   61SAPC  H18Z 4844   0.229   4.312   5.010 -0.4608 -0.0590 -0.0897
   62SAPC     N 4845   2.571   0.370   7.305  0.6208 -0.4116  0.0665
   62SAPC   C12 4846   2.558   0.516   7.287 -0.2286 -1.2943  0.5143
   62SAPC  H12A 4847   2.649   0.559   7.249 -0.6768 -1.0454 -0.3036
   62SAPC  H12B 4848   2.560   0.557   7.387  2.1089  0.2294 -0.0942
   62SAPC   C13 4849   2.703   0.336   7.360 -0.2659  0.3429  1.0418
   62SAPC  H13A 4850   2.704   0.228   7.374  1.7945 -0.0667 -1.5977
   62SAPC  H13B 4851   2.785   0.353   7.293 -1.4118 -1.7682 -1.0555
   62SAPC  H13C 4852   2.716   0.377   7.459 -0.2849 -3.0081  2.5940
   62SAPC   C14 4853   2.474   0.316   7.400  0.3999 -0.4786 -0.4288
   62SAPC  H14A 4854   2.480   0.208   7.408  2.1264 -0.5754 -2.1187
   62SAPC  H14B 4855   2.489   0.347   7.502  0.8053 -1.0873 -0.2915
   62SAPC  H14C 4856   2.372   0.338   7.374  0.5891  0.4932 -0.3770
   62SAPC   C15 4857   2.555   0.306   7.168 -0.4759  0.3198 -0.0895
   62SAPC  H15A 4858   2.463   0.344   7.125  0.1824  2.0134 -0.0521
   62SAPC  H15B 4859   2.638   0.344   7.110  1.0479  0.8108  2.2814
   62SAPC  H15C 4860   2.563   0.198   7.163 -2.1622  0.1461  0.3441
   62SAPC   C11 4861   2.437   0.575   7.212  0.2292 -0.0468  0.4151
   62SAPC  H11A 4862   2.427   0.555   7.103 -0.9965  1.4314  0.2166
   62SAPC  H11B 4863   2.457   0.684   7.217  0.8628 -0.1809  0.8947
   62SAPC     P 4864   2.242   0.593   7.390  0.1600  0.0206  0.0733
   62SAPC   O13 4865   2.099   0.559   7.387  0.0297  0.3048 -0.4493
   62SAPC   O14 4866   2.317   0.581   7.516  0.1486 -0.0209 -0.3042
   62SAPC   O12 4867   2.311   0.524   7.269 -0.0512 -0.2420  0.1035
   62SAPC   O11 4868   2.252   0.746   7.338 -0.5587 -0.5325  0.0946
   62SAPC    C1 4869   2.164   0.810   7.245  0.4085  0.3525 -0.2583
   62SAPC    HA 4870   2.061   0.784   7.278 -0.1359 -0.4648 -2.4342
   62SAPC    HB 4871   2.168   0.921   7.258 -2.3225  0.3600  1.3673
   62SAPC    C2 4872   2.182   0.786   7.090 -0.5052  0.1260 -0.5574
   62SAPC    HS 4873   2.186   0.676   7.071 -0.4539  0.2793 -1.4522
   62SAPC   O21 4874   2.301   0.852   7.046 -0.3112 -0.6127  0.2661
   62SAPC   C21 4875   2.364   0.797   6.953 -0.6260 -0.3416 -0.3445
   62SAPC   O22 4876   2.335   0.689   6.900 -0.2908  0.0338  0.0930
   62SAPC   C22 4877   2.482   0.887   6.918 -0.2127  0.2282  0.4712
   62SAPC   H2R 4878   2.431   0.971   6.866  0.7347  0.0663 -0.7773
   62SAPC   H2S 4879   2.525   0.928   7.011 -0.9224  0.5926  0.6451
   62SAPC    C3 4880   2.066   0.841   7.010 -0.0880  0.4994 -0.0038
   62SAPC    HX 4881   2.076   0.951   7.014  2.5098  0.3232  0.4513
   62SAPC    HY 4882   1.969   0.824   7.062  1.3268 -0.1136  2.6444
   62SAPC   O31 4883   2.055   0.783   6.875 -0.2768  0.0208 -0.3100
   62SAPC   C31 4884   2.089   0.865   6.771  0.5369  0.4220 -0.4017
   62SAPC   O32 4885   2.121   0.978   6.781  0.1422  0.0107 -0.9370
   62SAPC   C32 4886   2.078   0.780   6.645  0.9591 -0.0382 -0.5437
   62SAPC   H2X 4887   1.971   0.784   6.612  1.1201 -1.0993 -1.2342
   62SAPC   H2Y 4888   2.090   0.674   6.674 -0.2205  0.1391  0.7261
   62SAPC   C23 4889   2.583   0.820   6.819  0.2249  0.0261 -0.1717
   62SAPC   H3R 4890   2.528   0.779   6.732 -1.1102  0.9071  0.2199
   62SAPC   H3S 4891   2.627   0.746   6.889  0.7856  0.6652  0.1579
   62SAPC   C24 4892   2.690   0.910   6.755  0.0030 -0.5086 -0.6315
   62SAPC   H4R 4893   2.770   0.856   6.700 -1.0665 -1.1940 -1.5573
   62SAPC   H4S 4894   2.738   0.946   6.848 -1.9460  1.9974 -0.4807
   62SAPC   C25 4895   2.632   1.030   6.685  0.1211 -0.4786  0.2707
   62SAPC   H5R 4896   2.567   1.088   6.752 -1.5645 -2.5906  0.5740
   62SAPC   C26 4897   2.641   1.063   6.554  0.4816  0.6583  0.0978
   62SAPC   H6R 4898   2.582   1.145   6.512 -0.3059 -0.0894 -0.2816
   62SAPC   C27 4899   2.702   0.970   6.454 -0.4876 -0.8167  0.3973
   62SAPC   H7R 4900   2.635   0.954   6.366 -0.4226 -0.0433  0.2080
   62SAPC   H7S 4901   2.719   0.869   6.499  0.5450 -1.8755 -2.1608
   62SAPC   C28 4902   2.837   1.011   6.401 -0.2740  0.6776  0.2004
   62SAPC   H8R 4903   2.919   1.006   6.474  0.6115 -0.6404 -0.8571
   62SAPC   C29 4904   2.856   1.056   6.280  0.1884  0.3412  0.3880
   62SAPC   H9R 4905   2.960   1.079   6.250  0.8820 -1.5844  1.1424
   62SAPC  C210 4906   2.750   1.086   6.177  0.2739 -0.0615  0.7090
   62SAPC  H10R 4907   2.652   1.111   6.223 -0.0805 -0.4675  0.1875
   62SAPC  H10S 4908   2.740   0.996   6.113  0.1778 -1.6796  2.8806
   62SAPC  C211 4909   2.795   1.209   6.100 -1.0175 -0.1520 -0.5056
   62SAPC  H11R 4910   2.834   1.288   6.165 -2.3702  1.7443 -1.8801
   62SAPC  C212 4911   2.778   1.237   5.964  0.2254  0.0826 -1.1276
   62SAPC  H12R 4912   2.814   1.336   5.933  1.1446  0.1939  0.1841
   62SAPC  C213 4913   2.707   1.155   5.864 -0.3676  0.1878  0.1267
   62SAPC  H13R 4914   2.672   1.217   5.778 -2.5365  0.6309  1.2678
   62SAPC  H13S 4915   2.616   1.113   5.911 -0.8367  2.7603  1.7014
   62SAPC  C214 4916   2.808   1.049   5.827  0.0606  0.0274  0.3237
   62SAPC  H14R 4917   2.814   0.967   5.900  0.9168 -0.0862  0.1384
   62SAPC  C215 4918   2.870   1.034   5.710 -0.1561 -0.4950 -0.7638
   62SAPC  H15R 4919   2.926   0.941   5.690 -1.3868 -0.8262 -2.9889
   62SAPC  C216 4920   2.868   1.134   5.601  0.2114  0.1980 -0.0601
   62SAPC  H16R 4921   2.971   1.158   5.569  0.9674 -2.5527  0.0921
   62SAPC  H16S 4922   2.826   1.226   5.648 -0.7928 -0.5003  0.4662
   62SAPC  C217 4923   2.783   1.096   5.476  0.3609  0.1549  0.1419
   62SAPC  H17R 4924   2.680   1.070   5.506 -0.5403  1.4436 -1.6515
   62SAPC  H17S 4925   2.817   1.000   5.431 -0.3371 -0.1970  0.3494
   62SAPC  C218 4926   2.771   1.208   5.373 -0.7733 -0.2662 -0.4532
   62SAPC  H18R 4927   2.870   1.234   5.331  0.3759 -1.8577  1.1293
   62SAPC  H18S 4928   2.723   1.297   5.421 -2.1451 -1.1241 -0.1655
   62SAPC  C219 4929   2.682   1.163   5.253 -0.4161  0.7655 -0.1865
   62SAPC  H19R 4930   2.658   1.248   5.187  0.2802  1.9431  1.0293
   62SAPC  H19S 4931   2.587   1.130   5.300  0.0722  0.1731  0.4036
   62SAPC  C220 4932   2.732   1.041   5.173 -0.2242  0.3355 -0.0667
   62SAPC  H20R 4933   2.839   1.054   5.147  0.4939 -1.2282  1.8546
   62SAPC  H20S 4934   2.676   1.022   5.078  2.6325 -0.7827 -1.6404
   62SAPC  H20T 4935   2.722   0.953   5.240  0.9719 -0.1029 -0.4409
   62SAPC   C33 4936   2.183   0.824   6.542 -0.0584 -0.2151  0.1051
   62SAPC   H3X 4937   2.191   0.739   6.471  1.6268 -0.6797  0.7942
   62SAPC   H3Y 4938   2.278   0.840   6.598  1.1976 -1.9077 -1.4393
   62SAPC   C34 4939   2.155   0.950   6.470  0.3268  0.2110 -0.3736
   62SAPC   H4X 4940   2.071   1.011   6.510  0.9336 -0.2086  1.6632
   62SAPC   H4Y 4941   2.132   0.936   6.362 -0.6544  0.9617 -0.2809
   62SAPC   C35 4942   2.272   1.045   6.480  0.2686  0.4191  0.3500
   62SAPC   H5X 4943   2.369   0.992   6.466  0.4977  0.8009  0.5023
   62SAPC   H5Y 4944   2.283   1.091   6.580 -0.1386  0.3501  0.4268
   62SAPC   C36 4945   2.257   1.152   6.367  0.3451 -0.3116 -0.3514
   62SAPC   H6X 4946   2.162   1.209   6.384  0.2828 -0.8211  1.1746
   62SAPC   H6Y 4947   2.266   1.101   6.269  1.4714 -0.8008 -0.0014
   62SAPC   C37 4948   2.368   1.253   6.373 -0.5465 -0.1757 -0.2180
   62SAPC   H7X 4949   2.465   1.203   6.352  0.2230  1.4775 -0.8115
   62SAPC   H7Y 4950   2.374   1.278   6.481 -0.0507  0.0788 -0.3017
   62SAPC   C38 4951   2.346   1.364   6.275  0.3372  0.3255  0.4264
   62SAPC   H8X 4952   2.398   1.462   6.288  1.2999 -0.1270  0.0917
   62SAPC   H8Y 4953   2.237   1.383   6.267  0.5489  2.2177  1.3807
   62SAPC   C39 4954   2.395   1.325   6.132  0.1023  0.4162  0.8982
   62SAPC   H9X 4955   2.322   1.256   6.085  2.2220 -0.8993 -0.6099
   62SAPC   H9Y 4956   2.494   1.276   6.135  0.5129  1.1019 -0.6482
   62SAPC  C310 4957   2.409   1.445   6.031  0.1353  0.2335  0.2538
   62SAPC  H10X 4958   2.485   1.505   6.085 -0.7772 -0.4256  2.3658
   62SAPC  H10Y 4959   2.313   1.501   6.028  0.3885  0.6630 -0.2060
   62SAPC  C311 4960   2.443   1.421   5.887  0.0634  0.0669 -0.3533
   62SAPC  H11X 4961   2.527   1.350   5.871  0.3420  0.9124 -3.4450
   62SAPC  H11Y 4962   2.477   1.514   5.837  1.3118  1.4825  2.9003
   62SAPC  C312 4963   2.321   1.363   5.815  0.1280  0.5083 -0.1204
   62SAPC  H12X 4964   2.235   1.431   5.834 -0.2823 -0.6082  2.4423
   62SAPC  H12Y 4965   2.304   1.259   5.848 -1.4622  1.3013  1.7302
   62SAPC  C313 4966   2.355   1.349   5.663  0.3913  0.5310  0.2697
   62SAPC  H13X 4967   2.440   1.280   5.645  1.4306  2.1546 -1.3082
   62SAPC  H13Y 4968   2.399   1.445   5.628  1.0512  0.0860 -0.1479
   62SAPC  C314 4969   2.239   1.297   5.568 -0.2142 -0.2727  0.4459
   62SAPC  H14X 4970   2.138   1.294   5.615 -1.0608 -0.5426 -1.3098
   62SAPC  H14Y 4971   2.273   1.198   5.529 -0.1101 -0.1334  0.1824
   62SAPC  C315 4972   2.234   1.388   5.443 -0.1252 -0.4805  0.0467
   62SAPC  H15X 4973   2.344   1.386   5.428  0.2591 -0.1535  2.4684
   62SAPC  H15Y 4974   2.194   1.489   5.468  1.8194  0.7512 -1.5112
   62SAPC  C316 4975   2.162   1.333   5.318  0.6498  0.2576  0.5690
   62SAPC  H16X 4976   2.051   1.341   5.318  0.6399  0.2521 -0.4736
   62SAPC  H16Y 4977   2.194   1.227   5.307  2.5033  0.8397 -0.0428
   62SAPC  C317 4978   2.207   1.412   5.200  0.5791 -0.0964  0.1782
   62SAPC  H17X 4979   2.318   1.426   5.195  0.5541  1.1875  2.0830
   62SAPC  H17Y 4980   2.180   1.515   5.232  1.4591  1.7023 -4.0651
   62SAPC  C318 4981   2.157   1.370   5.062  0.3514  0.0435  0.3139
   62SAPC  H18X 4982   2.181   1.457   4.997 -2.2642  0.3625 -0.3368
   62SAPC  H18Y 4983   2.047   1.369   5.055  0.3876 -3.0567 -4.1820
   62SAPC  H18Z 4984   2.207   1.277   5.028  0.5651  0.5736 -0.8755
   63SAPC     N 4985   3.261   3.871   7.443 -0.0791 -0.2901  0.3853
   63SAPC   C12 4986   3.307   3.926   7.308  0.2144 -0.0657 -0.0311
   63SAPC  H12A 4987   3.388   3.996   7.320  1.5586 -1.4013 -0.9246
   63SAPC  H12B 4988   3.230   3.985   7.261  2.2287 -0.1025 -3.7473
   63SAPC   C13 4989   3.148   3.780   7.425 -0.3356 -0.0210 -0.3291
   63SAPC  H13A 4990   3.128   3.730   7.518 -1.8121 -0.4391 -0.8522
   63SAPC  H13B 4991   3.060   3.834   7.393 -0.1842 -0.1728 -1.0099
   63SAPC  H13C 4992   3.164   3.709   7.345  0.5921  1.7703 -1.7938
   63SAPC   C14 4993   3.382   3.802   7.510 -1.1272  0.0466  0.0469
   63SAPC  H14A 4994   3.357   3.754   7.604 -0.1573 -0.3530  0.1164
   63SAPC  H14B 4995   3.411   3.714   7.454 -1.9044 -1.9457  2.5692
   63SAPC  H14C 4996   3.462   3.874   7.521  0.9163 -1.7011 -2.1524
   63SAPC   C15 4997   3.227   3.992   7.534 -0.1091  0.2397 -0.0173
   63SAPC  H15A 4998   3.308   4.063   7.543  0.6913 -0.8633  2.5578
   63SAPC  H15B 4999   3.147   4.049   7.490 -2.7352 -2.7730  0.4496
   63SAPC  H15C 5000   3.189   3.952   7.627  1.0091  0.8199  0.7112
   63SAPC   C11 5001   3.337   3.828   7.190  0.2631 -0.1564 -0.3620
   63SAPC  H11A 5002   3.342   3.888   7.097 -0.1177  0.1745 -0.1698
   63SAPC  H11B 5003   3.249   3.762   7.175  0.9274 -1.0377 -0.5006
   63SAPC     P 5004   3.482   3.603   7.220  0.2624  0.3313 -0.2294
   63SAPC   O13 5005   3.615   3.566   7.270  0.0443 -0.0500  0.1542
   63SAPC   O14 5006   3.373   3.545   7.302  0.9076  0.2025  0.5981
   63SAPC   O12 5007   3.465   3.760   7.214 -0.0694 -0.4234 -0.1325
   63SAPC   O11 5008   3.459   3.553   7.070 -0.0580  0.0574 -0.3233
   63SAPC    C1 5009   3.507   3.618   6.957  0.1396 -0.3523 -0.2452
   63SAPC    HA 5010   3.442   3.699   6.918  0.3180 -0.0950 -0.0127
   63SAPC    HB 5011   3.606   3.663   6.980 -0.0264 -1.2674  2.6066
   63SAPC    C2 5012   3.540   3.511   6.852  0.7557  0.2716 -0.8095
   63SAPC    HS 5013   3.610   3.556   6.778 -0.1470  1.2975 -1.0659
   63SAPC   O21 5014   3.408   3.473   6.799  0.6931 -0.2155  0.7098
   63SAPC   C21 5015   3.409   3.468   6.661  0.0827 -0.1938  0.0592
   63SAPC   O22 5016   3.493   3.502   6.585  0.0347 -0.1857  0.0576
   63SAPC   C22 5017   3.278   3.404   6.625  0.5036 -0.4555 -0.1585
   63SAPC   H2R 5018   3.266   3.307   6.677 -0.4311  1.1092  2.7353
   63SAPC   H2S 5019   3.192   3.472   6.645  0.6463 -0.0382 -0.9092
   63SAPC    C3 5020   3.610   3.380   6.901 -0.8245 -0.8083  0.0132
   63SAPC    HX 5021   3.540   3.335   6.974 -1.4958  0.4200  0.1474
   63SAPC    HY 5022   3.702   3.410   6.956 -0.5459 -0.6640 -0.5251
   63SAPC   O31 5023   3.648   3.294   6.793  0.0799  0.2656 -0.1799
   63SAPC   C31 5024   3.745   3.329   6.724 -0.4079  0.5471 -0.8052
   63SAPC   O32 5025   3.811   3.431   6.748  0.6670 -0.3069  0.5614
   63SAPC   C32 5026   3.757   3.236   6.602  0.3419 -0.8266 -0.5833
   63SAPC   H2X 5027   3.666   3.263   6.543  1.0217  0.4457 -1.0926
   63SAPC   H2Y 5028   3.741   3.137   6.651 -0.8230 -0.0141  0.7503
   63SAPC   C23 5029   3.282   3.377   6.472 -0.2356 -0.2477  0.2232
   63SAPC   H3R 5030   3.307   3.473   6.423  3.6376 -1.3334 -0.2758
   63SAPC   H3S 5031   3.185   3.332   6.443  0.2083 -0.2870 -1.3051
   63SAPC   C24 5032   3.388   3.276   6.423 -0.1580 -0.5540 -0.4597
   63SAPC   H4R 5033   3.392   3.199   6.504 -1.1921 -0.2045 -0.0508
   63SAPC   H4S 5034   3.488   3.323   6.413 -0.1943 -0.0698  1.1585
   63SAPC   C25 5035   3.346   3.200   6.302 -0.3565  0.2015  0.4578
   63SAPC   H5R 5036   3.256   3.139   6.315 -0.0772 -0.7698 -1.6941
   63SAPC   C26 5037   3.406   3.215   6.185  0.1829 -0.0704 -0.9094
   63SAPC   H6R 5038   3.349   3.163   6.106  2.5514 -6.4565  0.9644
   63SAPC   C27 5039   3.522   3.307   6.145 -0.1740  0.7989  0.8326
   63SAPC   H7R 5040   3.564   3.370   6.226 -1.6593  1.8263  0.8360
   63SAPC   H7S 5041   3.475   3.380   6.076  0.3641  0.4346  0.0670
   63SAPC   C28 5042   3.638   3.219   6.097  0.4420 -0.4244  0.2319
   63SAPC   H8R 5043   3.684   3.161   6.177  2.3555  0.5925 -0.0731
   63SAPC   C29 5044   3.668   3.199   5.964  0.4824  0.0448 -1.0419
   63SAPC   H9R 5045   3.753   3.131   5.945  0.2034 -1.2341  1.7677
   63SAPC  C210 5046   3.592   3.253   5.856  0.2054 -0.2006  0.4106
   63SAPC  H10R 5047   3.561   3.358   5.872 -0.8988 -0.6117  1.1087
   63SAPC  H10S 5048   3.488   3.214   5.866 -0.1580 -0.1625 -2.3982
   63SAPC  C211 5049   3.651   3.233   5.722  0.3610  0.7153 -0.6569
   63SAPC  H11R 5050   3.728   3.154   5.725  0.2405  0.5970  2.0162
   63SAPC  C212 5051   3.600   3.276   5.606  1.1316 -0.0504 -0.5497
   63SAPC  H12R 5052   3.648   3.276   5.507 -1.9189 -0.2613 -2.1371
   63SAPC  C213 5053   3.479   3.355   5.601 -0.4874  0.2702  0.0550
   63SAPC  H13R 5054   3.504   3.458   5.571 -1.1237  0.7033  0.9608
   63SAPC  H13S 5055   3.428   3.364   5.699 -1.2825 -0.1123 -0.3147
   63SAPC  C214 5056   3.370   3.295   5.515 -0.2903  0.5673  0.0213
   63SAPC  H14R 5057   3.312   3.209   5.551 -1.6182  0.0073 -3.1573
   63SAPC  C215 5058   3.313   3.362   5.408 -0.0194  0.3223  0.2786
   63SAPC  H15R 5059   3.246   3.313   5.336 -0.0040  0.6200  0.0629
   63SAPC  C216 5060   3.362   3.496   5.358  1.3015  1.0138 -0.6975
   63SAPC  H16R 5061   3.384   3.566   5.441  1.5666  0.4137 -0.2534
   63SAPC  H16S 5062   3.287   3.543   5.290 -2.1410 -3.4989 -0.5047
   63SAPC  C217 5063   3.479   3.494   5.275  0.1759 -0.7269  1.1378
   63SAPC  H17R 5064   3.560   3.426   5.311 -0.5669 -0.5253  3.3393
   63SAPC  H17S 5065   3.526   3.595   5.274  1.7948 -1.4416  0.2639
   63SAPC  C218 5066   3.448   3.460   5.120  0.3473 -0.0332 -0.4413
   63SAPC  H18R 5067   3.389   3.539   5.069  0.9666  1.3382  0.8965
   63SAPC  H18S 5068   3.395   3.362   5.126 -0.5551  0.5322  2.9820
   63SAPC  C219 5069   3.577   3.432   5.046  0.5541 -0.2663 -0.5123
   63SAPC  H19R 5070   3.662   3.390   5.104  1.7152  1.0499 -1.1971
   63SAPC  H19S 5071   3.634   3.523   5.017  1.1757 -0.6991 -0.6564
   63SAPC  C220 5072   3.559   3.345   4.927 -0.1495 -0.4665  0.0640
   63SAPC  H20R 5073   3.467   3.384   4.878  1.1938  0.3960 -1.9206
   63SAPC  H20S 5074   3.551   3.236   4.945 -0.9839 -0.5035 -0.4588
   63SAPC  H20T 5075   3.639   3.356   4.850 -0.9074 -3.2044 -1.2656
   63SAPC   C33 5076   3.886   3.235   6.531  0.1827  0.5189  0.1521
   63SAPC   H3X 5077   3.881   3.143   6.470  1.0986 -0.8460  2.0172
   63SAPC   H3Y 5078   3.976   3.216   6.594 -0.8722 -0.9505  1.2764
   63SAPC   C34 5079   3.902   3.353   6.433  0.2612 -0.6727 -0.1277
   63SAPC   H4X 5080   3.976   3.417   6.485 -0.5275 -0.5017  0.8081
   63SAPC   H4Y 5081   3.807   3.410   6.441 -1.2755 -3.1609  0.7729
   63SAPC   C35 5082   3.938   3.316   6.287 -0.0619 -0.0558  1.1645
   63SAPC   H5X 5083   3.941   3.402   6.216  1.7689  1.7394  3.2466
   63SAPC   H5Y 5084   3.851   3.256   6.252  0.3809  0.0854 -0.2484
   63SAPC   C36 5085   4.072   3.237   6.274  0.4108  0.1370 -0.5872
   63SAPC   H6X 5086   4.069   3.151   6.344  2.0135 -0.9034 -1.7302
   63SAPC   H6Y 5087   4.149   3.310   6.308  1.0959 -1.0958  0.6141
   63SAPC   C37 5088   4.108   3.168   6.141 -0.0442 -0.4023 -0.2896
   63SAPC   H7X 5089   4.058   3.069   6.138  1.6252 -1.3738  1.8465
   63SAPC   H7Y 5090   4.218   3.150   6.141  0.0931  0.3777 -0.9001
   63SAPC   C38 5091   4.067   3.251   6.014  0.1154 -0.5212 -0.8163
   63SAPC   H8X 5092   4.120   3.348   6.024 -1.0139 -0.0911  1.7791
   63SAPC   H8Y 5093   3.958   3.273   6.011  0.0995 -0.3064  0.6773
   63SAPC   C39 5094   4.094   3.179   5.890 -0.2754 -0.5458 -0.1811
   63SAPC   H9X 5095   4.028   3.089   5.888 -0.7695 -0.1908 -0.0945
   63SAPC   H9Y 5096   4.202   3.160   5.879 -0.0805  0.1606  0.4579
   63SAPC  C310 5097   4.050   3.253   5.759  0.0108 -0.0751 -0.1032
   63SAPC  H10X 5098   4.094   3.353   5.740  0.8648 -0.3483  0.3768
   63SAPC  H10Y 5099   3.943   3.284   5.757 -0.2481 -0.7907  1.4245
   63SAPC  C311 5100   4.065   3.163   5.638 -0.2469  0.9968  0.0845
   63SAPC  H11X 5101   4.016   3.065   5.653 -1.0961  1.6019  1.4424
   63SAPC  H11Y 5102   4.172   3.134   5.626 -0.3647 -0.3420  1.9524
   63SAPC  C312 5103   4.036   3.231   5.502 -0.4647  0.1084  0.3580
   63SAPC  H12X 5104   4.100   3.320   5.485 -0.7866  0.0877 -1.1318
   63SAPC  H12Y 5105   3.936   3.281   5.499 -0.4851  0.0434 -0.1099
   63SAPC  C313 5106   4.048   3.132   5.384 -0.2550 -0.6357 -0.3013
   63SAPC  H13X 5107   3.995   3.044   5.425 -0.0380  0.0975  1.6444
   63SAPC  H13Y 5108   4.155   3.102   5.386 -0.3169 -0.8142  1.2825
   63SAPC  C314 5109   3.979   3.179   5.260  0.2414 -0.0673  0.4461
   63SAPC  H14X 5110   4.043   3.257   5.213 -0.3947 -0.7032 -1.5890
   63SAPC  H14Y 5111   3.884   3.228   5.291 -0.0092 -2.0214  3.0716
   63SAPC  C315 5112   3.944   3.063   5.159 -0.5597 -0.4412 -0.4273
   63SAPC  H15X 5113   3.908   2.971   5.209  0.1808 -0.6732 -0.3173
   63SAPC  H15Y 5114   4.034   3.042   5.097 -2.1992  2.8573 -4.4429
   63SAPC  C316 5115   3.834   3.112   5.059  0.3035 -0.3763  0.5813
   63SAPC  H16X 5116   3.853   3.210   5.010 -1.0439 -1.0899 -1.4973
   63SAPC  H16Y 5117   3.732   3.118   5.103 -0.2350  0.3377 -0.7140
   63SAPC  C317 5118   3.821   3.015   4.947  0.1156  0.0074 -0.4203
   63SAPC  H17X 5119   3.770   2.925   4.988 -0.1800  0.2581 -0.2342
   63SAPC  H17Y 5120   3.926   2.985   4.926  0.2709  0.9539 -1.0777
   63SAPC  C318 5121   3.743   3.058   4.828  0.0445  0.5118  0.3513
   63SAPC  H18X 5122   3.753   2.981   4.748 -1.5203  1.1723 -0.5135
   63SAPC  H18Y 5123   3.783   3.158   4.801  1.0645  0.1479  0.4583
   63SAPC  H18Z 5124   3.635   3.059   4.853 -0.9949 -0.9796 -3.3309
   64SAPC     N 5125   3.300   4.821   6.737 -0.2117  0.3144  0.6104
   64SAPC   C12 5126   3.352   4.942   6.803 -0.5894 -0.1138 -0.0585
   64SAPC  H12A 5127   3.446   4.965   6.754 -0.5942 -0.3565 -0.1807
   64SAPC  H12B 5128   3.381   4.913   6.903 -0.7753  1.3315  0.4476
   64SAPC   C13 5129   3.229   4.732   6.825 -0.0730 -0.0979  0.7127
   64SAPC  H13A 5130   3.182   4.649   6.774  0.4612 -0.9776  1.6009
   64SAPC  H13B 5131   3.291   4.685   6.900  1.8520  2.2872  0.7514
   64SAPC  H13C 5132   3.144   4.785   6.864  0.6586  1.5514  0.1718
   64SAPC   C14 5133   3.208   4.858   6.626  0.3832 -0.6486 -0.3865
   64SAPC  H14A 5134   3.244   4.935   6.560  0.6744 -0.8160 -0.4280
   64SAPC  H14B 5135   3.184   4.768   6.571 -0.8957 -0.9582  0.6292
   64SAPC  H14C 5136   3.116   4.887   6.675  0.4731 -2.1833  0.7797
   64SAPC   C15 5137   3.423   4.744   6.682  0.2559  0.1110 -0.3614
   64SAPC  H15A 5138   3.487   4.724   6.767 -0.2459 -1.0017 -0.2291
   64SAPC  H15B 5139   3.409   4.644   6.643  2.6881 -0.5492  0.3317
   64SAPC  H15C 5140   3.490   4.798   6.617 -0.4942  1.3974 -0.1194
   64SAPC   C11 5141   3.259   5.063   6.825  0.1809  0.2081  0.1340
   64SAPC  H11A 5142   3.213   5.096   6.730 -0.9579 -2.1620 -0.2058
   64SAPC  H11B 5143   3.322   5.147   6.862  0.7038  1.1398 -2.6920
   64SAPC     P 5144   3.123   5.104   7.047 -0.4162 -0.2088  0.1609
   64SAPC   O13 5145   3.080   5.012   7.153  0.4946 -0.0787  0.3457
   64SAPC   O14 5146   3.236   5.201   7.075 -0.5146  0.0025  0.1440
   64SAPC   O12 5147   3.147   5.022   6.913 -0.0742 -0.3444  0.3820
   64SAPC   O11 5148   2.991   5.177   7.024  0.4632  0.5977 -0.3781
   64SAPC    C1 5149   2.889   5.136   6.938  0.6432 -0.2970  0.8380
   64SAPC    HA 5150   2.877   5.025   6.942 -2.2630 -0.1099 -0.2500
   64SAPC    HB 5151   2.789   5.177   6.964 -0.6034 -1.9402 -0.9720
   64SAPC    C2 5152   2.920   5.176   6.782  0.5888  0.7406  0.0380
   64SAPC    HS 5153   2.996   5.105   6.739 -0.2160  0.5635 -1.1475
   64SAPC   O21 5154   2.963   5.313   6.775 -0.1126  0.0630 -0.6804
   64SAPC   C21 5155   3.036   5.351   6.678 -0.8216  0.6820 -0.1503
   64SAPC   O22 5156   3.086   5.280   6.594  0.0446 -0.0535  0.1996
   64SAPC   C22 5157   3.045   5.509   6.689 -0.4315  0.2544  0.1169
   64SAPC   H2R 5158   2.943   5.544   6.661 -1.3406 -0.6890  2.0919
   64SAPC   H2S 5159   3.073   5.532   6.794 -0.3794 -1.4091  0.4911
   64SAPC    C3 5160   2.797   5.159   6.677  0.3527  0.1915 -1.2762
   64SAPC    HX 5161   2.729   5.232   6.726  2.8693  0.8132  1.6412
   64SAPC    HY 5162   2.756   5.056   6.686  1.9007 -0.4128 -0.7381
   64SAPC   O31 5163   2.817   5.206   6.544  0.9304  0.2550  0.8297
   64SAPC   C31 5164   2.866   5.113   6.465 -0.7648 -0.2906  0.1889
   64SAPC   O32 5165   2.896   5.000   6.497  0.7479 -0.4161 -0.5597
   64SAPC   C32 5166   2.889   5.161   6.324  0.1618 -0.0941  0.4826
   64SAPC   H2X 5167   2.999   5.172   6.310 -0.2294  1.9134 -1.4789
   64SAPC   H2Y 5168   2.833   5.257   6.317 -0.0379 -0.3236 -1.9400
   64SAPC   C23 5169   3.145   5.552   6.585  0.5125 -0.0736 -0.2950
   64SAPC   H3R 5170   3.107   5.537   6.482  1.3015  0.8745 -0.7396
   64SAPC   H3S 5171   3.235   5.489   6.600  0.7336  0.3618  0.2743
   64SAPC   C24 5172   3.183   5.702   6.595 -0.7264  0.0041 -0.1268
   64SAPC   H4R 5173   3.280   5.698   6.541 -1.0161 -2.0553 -0.5813
   64SAPC   H4S 5174   3.197   5.727   6.702 -2.0537 -0.6313  0.2272
   64SAPC   C25 5175   3.073   5.792   6.540 -0.3023  0.3934  0.2274
   64SAPC   H5R 5176   2.970   5.761   6.564  0.9032 -5.1026 -0.2138
   64SAPC   C26 5177   3.092   5.912   6.492  0.3017 -0.0269  0.8085
   64SAPC   H6R 5178   3.007   5.960   6.441 -1.0707 -3.3096 -0.2646
   64SAPC   C27 5179   3.227   5.971   6.471 -0.2680 -0.1227  0.2921
   64SAPC   H7R 5180   3.304   5.891   6.460 -1.8599 -1.7317  0.4371
   64SAPC   H7S 5181   3.256   6.023   6.565  0.0693  0.3097 -0.0443
   64SAPC   C28 5182   3.236   6.078   6.366 -0.2751 -0.3190  0.3776
   64SAPC   H8R 5183   3.236   6.181   6.403 -1.3380  0.3943 -1.5265
   64SAPC   C29 5184   3.247   6.053   6.236  0.2846  0.0798 -0.3509
   64SAPC   H9R 5185   3.262   6.134   6.163  0.9535  0.1350 -0.1526
   64SAPC  C210 5186   3.220   5.921   6.169  0.7895 -0.3619 -0.6848
   64SAPC  H10R 5187   3.234   5.848   6.252  0.8241  0.6916  0.2616
   64SAPC  H10S 5188   3.296   5.898   6.091  0.8293  0.7724 -1.0061
   64SAPC  C211 5189   3.086   5.900   6.101 -0.0542  0.3445  0.2102
   64SAPC  H11R 5190   3.004   5.941   6.163  0.6666  0.2480  1.2718
   64SAPC  C212 5191   3.065   5.839   5.984  0.0358 -0.1499 -0.7068
   64SAPC  H12R 5192   2.964   5.845   5.940  0.7647  1.8569 -2.2741
   64SAPC  C213 5193   3.162   5.777   5.891 -0.1779  0.2172 -0.0151
   64SAPC  H13R 5194   3.117   5.697   5.829  2.0672 -1.9948  1.0498
   64SAPC  H13S 5195   3.226   5.721   5.962 -1.4061 -1.4446 -0.1611
   64SAPC  C214 5196   3.231   5.880   5.803 -0.1229  0.3385  0.0870
   64SAPC  H14R 5197   3.274   5.967   5.854  0.5536  1.0582 -1.6444
   64SAPC  C215 5198   3.246   5.876   5.671  0.0932  0.3399  1.1049
   64SAPC  H15R 5199   3.292   5.963   5.623  0.6298  0.2094  1.3692
   64SAPC  C216 5200   3.200   5.763   5.580  0.1665  0.1266  0.8490
   64SAPC  H16R 5201   3.095   5.785   5.551  0.4792 -0.4433 -0.8288
   64SAPC  H16S 5202   3.208   5.662   5.626  0.2687 -0.3273 -0.1411
   64SAPC  C217 5203   3.278   5.768   5.443 -0.0316 -0.3658 -0.6826
   64SAPC  H17R 5204   3.265   5.664   5.407  3.2839 -1.0121 -0.3715
   64SAPC  H17S 5205   3.387   5.788   5.449 -0.3893  1.3077  1.4166
   64SAPC  C218 5206   3.213   5.869   5.344  0.3249  0.5472  0.2204
   64SAPC  H18R 5207   3.238   5.976   5.361  0.6689  0.5628 -0.3621
   64SAPC  H18S 5208   3.105   5.845   5.344  0.7428 -1.7136 -1.8588
   64SAPC  C219 5209   3.278   5.854   5.202 -0.1575 -0.2830  0.7919
   64SAPC  H19R 5210   3.387   5.839   5.204  0.0098  0.2020 -1.5800
   64SAPC  H19S 5211   3.261   5.950   5.147  1.6713 -0.7829 -0.7552
   64SAPC  C220 5212   3.221   5.747   5.110 -0.5259  0.8496  0.0952
   64SAPC  H20R 5213   3.213   5.650   5.164 -0.1629  0.5390 -0.4117
   64SAPC  H20S 5214   3.299   5.736   5.033 -0.0708  3.2376  0.1229
   64SAPC  H20T 5215   3.127   5.772   5.057  0.6969  0.2108 -2.4923
   64SAPC   C33 5216   2.826   5.068   6.213  0.4210  0.2142  0.4761
   64SAPC   H3X 5217   2.721   5.046   6.240 -0.7305  1.5025 -2.5128
   64SAPC   H3Y 5218   2.887   4.976   6.202  0.0567  0.1306 -1.1334
   64SAPC   C34 5219   2.817   5.136   6.072 -0.0982 -0.1690  0.5559
   64SAPC   H4X 5220   2.909   5.198   6.070  0.5704 -1.1077  1.0269
   64SAPC   H4Y 5221   2.723   5.192   6.055  0.1693  0.0382 -0.2662
   64SAPC   C35 5222   2.808   5.033   5.958  0.3545  0.1933 -0.3642
   64SAPC   H5X 5223   2.724   4.961   5.970 -0.0417  0.5474 -0.9586
   64SAPC   H5Y 5224   2.904   4.978   5.962 -0.4691 -1.3538 -1.0422
   64SAPC   C36 5225   2.810   5.091   5.817  0.1167 -0.0229  0.5602
   64SAPC   H6X 5226   2.896   5.155   5.791 -0.8766  1.5599  1.0037
   64SAPC   H6Y 5227   2.719   5.154   5.805  0.3549  0.1561 -0.4074
   64SAPC   C37 5228   2.813   4.984   5.706  0.2092  0.5050 -0.4295
   64SAPC   H7X 5229   2.741   4.902   5.728  1.7176 -0.3498  1.5989
   64SAPC   H7Y 5230   2.910   4.941   5.739 -0.6191 -0.6880  0.5531
   64SAPC   C38 5231   2.804   5.037   5.568  0.0854  0.0811  1.4960
   64SAPC   H8X 5232   2.885   5.112   5.553  0.3928 -0.1195  2.1390
   64SAPC   H8Y 5233   2.709   5.091   5.545  1.5373  1.6866 -1.3193
   64SAPC   C39 5234   2.824   4.933   5.453 -0.2326  1.0041  0.3379
   64SAPC   H9X 5235   2.742   4.862   5.479 -0.6235  1.5648  0.6361
   64SAPC   H9Y 5236   2.925   4.889   5.465 -0.4681 -0.4768 -2.1804
   64SAPC  C310 5237   2.816   4.989   5.307  0.6315 -0.8339  0.0153
   64SAPC  H10X 5238   2.727   5.053   5.290  0.9399 -0.3690  0.1238
   64SAPC  H10Y 5239   2.823   4.903   5.236  1.8506 -1.2189  0.5693
   64SAPC  C311 5240   2.946   5.054   5.270 -0.3145  0.4409  0.4874
   64SAPC  H11X 5241   3.032   5.008   5.324  1.8050 -0.7310 -3.4697
   64SAPC  H11Y 5242   2.956   5.164   5.286  1.2613  0.1693  1.6989
   64SAPC  C312 5243   2.985   5.022   5.125  0.6978 -0.5617 -0.9976
   64SAPC  H12X 5244   2.908   5.069   5.061 -0.2997  0.2438  0.7256
   64SAPC  H12Y 5245   2.981   4.911   5.123 -0.7363 -0.5367 -0.2145
   64SAPC  C313 5246   3.124   5.086   5.093 -1.3070  0.2328  0.2373
   64SAPC  H13X 5247   3.199   5.043   5.163 -0.6982  0.1477 -0.4555
   64SAPC  H13Y 5248   3.109   5.191   5.127 -2.2586 -0.3546  1.7668
   64SAPC  C314 5249   3.164   5.082   4.942  1.1661  0.2867 -0.1312
   64SAPC  H14X 5250   3.073   5.100   4.881 -0.1867 -2.3025  0.9426
   64SAPC  H14Y 5251   3.203   4.981   4.920 -1.4375 -0.5306 -1.4004
   64SAPC  C315 5252   3.270   5.185   4.911  0.2202 -0.0165  0.4532
   64SAPC  H15X 5253   3.338   5.199   4.998 -1.9276  0.6765  2.1000
   64SAPC  H15Y 5254   3.215   5.281   4.904 -0.7198  0.0657  5.3967
   64SAPC  C316 5255   3.331   5.166   4.768  0.5478 -0.6148  0.1453
   64SAPC  H16X 5256   3.401   5.252   4.764  1.2904 -1.1620  0.9640
   64SAPC  H16Y 5257   3.244   5.165   4.698 -0.1112 -0.1221  0.9273
   64SAPC  C317 5258   3.415   5.041   4.749 -0.1850  0.0187  0.5091
   64SAPC  H17X 5259   3.420   5.011   4.642 -0.5789 -1.9842  1.0227
   64SAPC  H17Y 5260   3.365   4.953   4.793  0.2537 -0.3237  0.3345
   64SAPC  C318 5261   3.560   5.045   4.808  0.9088 -0.5034  0.8256
   64SAPC  H18X 5262   3.617   4.952   4.786  1.0964 -0.2553  0.2515
   64SAPC  H18Y 5263   3.559   5.072   4.916 -0.3776 -0.9773  0.9469
   64SAPC  H18Z 5264   3.628   5.117   4.758  0.5455 -0.0679  0.9570
   65SAPC     N 5265   1.650   5.725   2.346  0.0279 -0.2186 -0.4079
   65SAPC   C12 5266   1.777   5.654   2.367  0.3114  0.2412 -0.5134
   65SAPC  H12A 5267   1.798   5.596   2.277 -2.9320 -0.9114 -0.6484
   65SAPC  H12B 5268   1.756   5.577   2.440  0.3842  0.3506 -0.3785
   65SAPC   C13 5269   1.539   5.641   2.291 -0.2994 -0.7719 -0.2310
   65SAPC  H13A 5270   1.446   5.697   2.288 -0.5146 -1.1090 -0.0195
   65SAPC  H13B 5271   1.557   5.621   2.187  0.7471 -0.9926 -0.0180
   65SAPC  H13C 5272   1.514   5.551   2.345 -2.6270  0.4565  0.9039
   65SAPC   C14 5273   1.606   5.780   2.476 -0.2943 -0.0311 -0.1188
   65SAPC  H14A 5274   1.682   5.851   2.505  2.9758 -3.3304  0.1142
   65SAPC  H14B 5275   1.504   5.810   2.493 -0.2454 -0.9215  2.1569
   65SAPC  H14C 5276   1.625   5.708   2.555 -1.3082 -1.2355 -0.9359
   65SAPC   C15 5277   1.669   5.829   2.239  0.0487  0.4391  0.0318
   65SAPC  H15A 5278   1.583   5.884   2.203 -1.1726 -0.7213  1.0739
   65SAPC  H15B 5279   1.746   5.899   2.266 -0.2373  0.2415  1.4350
   65SAPC  H15C 5280   1.715   5.784   2.152  1.5519  1.1973  0.3986
   65SAPC   C11 5281   1.894   5.743   2.402 -0.4840  0.5650 -0.4001
   65SAPC  H11A 5282   1.891   5.826   2.328  2.5570  1.2863  0.1482
   65SAPC  H11B 5283   1.988   5.688   2.380 -0.7334  0.2640 -0.7226
   65SAPC     P 5284   1.893   5.698   2.657  0.1239  0.4033  0.0216
   65SAPC   O13 5285   1.772   5.603   2.670 -0.0162 -0.3295 -0.2755
   65SAPC   O14 5286   2.026   5.631   2.644 -0.0978 -0.2565 -0.5893
   65SAPC   O12 5287   1.875   5.792   2.534 -0.2515 -0.0345 -0.0439
   65SAPC   O11 5288   1.886   5.796   2.783 -0.6688 -0.4240  0.6814
   65SAPC    C1 5289   1.791   5.907   2.781 -0.1967  0.2663 -0.3819
   65SAPC    HA 5290   1.808   5.974   2.694 -0.5027 -2.1767 -2.4412
   65SAPC    HB 5291   1.689   5.865   2.794  0.3997 -0.4500  2.8982
   65SAPC    C2 5292   1.805   5.986   2.915 -0.3428 -0.2701  0.2674
   65SAPC    HS 5293   1.743   6.077   2.901  0.7942  0.4963  0.1289
   65SAPC   O21 5294   1.944   6.021   2.929  0.3169  0.0706  0.0265
   65SAPC   C21 5295   1.960   6.119   3.020 -0.5742 -0.5883  0.9860
   65SAPC   O22 5296   1.868   6.178   3.070  0.0575 -0.4457 -0.0106
   65SAPC   C22 5297   2.112   6.152   3.037  0.0827 -0.5535 -0.4682
   65SAPC   H2R 5298   2.158   6.057   3.071  0.5384 -0.1262  0.1157
   65SAPC   H2S 5299   2.146   6.191   2.939  0.1374  1.3194  0.2627
   65SAPC    C3 5300   1.742   5.893   3.031  0.1794 -0.1801  0.2964
   65SAPC    HX 5301   1.816   5.810   3.038 -1.6393 -1.8977  0.0837
   65SAPC    HY 5302   1.650   5.841   2.998  0.5443  0.8082 -2.5131
   65SAPC   O31 5303   1.735   5.956   3.160  0.1262  0.5410 -0.0337
   65SAPC   C31 5304   1.637   6.047   3.171 -0.3909  0.3816 -0.5267
   65SAPC   O32 5305   1.554   6.077   3.095 -0.0544 -0.1827  0.3786
   65SAPC   C32 5306   1.642   6.106   3.306 -0.4641  0.1662  0.6871
   65SAPC   H2X 5307   1.747   6.104   3.343 -0.8097  1.2616  1.7969
   65SAPC   H2Y 5308   1.580   6.040   3.370  0.8819 -1.0725  0.7657
   65SAPC   C23 5309   2.122   6.265   3.143  0.0336 -0.2703  0.2424
   65SAPC   H3R 5310   2.084   6.237   3.243 -0.8868  0.5804  0.1492
   65SAPC   H3S 5311   2.061   6.349   3.103 -1.2736 -0.3794  1.9233
   65SAPC   C24 5312   2.266   6.313   3.158 -0.3450 -0.7367  0.3938
   65SAPC   H4R 5313   2.309   6.333   3.058  1.1357 -2.7148  0.5608
   65SAPC   H4S 5314   2.305   6.218   3.201 -0.6085 -0.6008  0.9390
   65SAPC   C25 5315   2.269   6.428   3.254 -0.2126 -0.4103  0.2416
   65SAPC   H5R 5316   2.210   6.516   3.226  1.6562  0.2260 -1.9687
   65SAPC   C26 5317   2.337   6.437   3.370  0.3324 -0.4081 -0.1485
   65SAPC   H6R 5318   2.316   6.523   3.435  0.7015  0.1464 -0.7646
   65SAPC   C27 5319   2.443   6.339   3.426  0.2301 -0.1233 -0.1301
   65SAPC   H7R 5320   2.463   6.256   3.355  0.8710 -0.6144  0.5989
   65SAPC   H7S 5321   2.400   6.298   3.521 -0.6443 -0.6490 -0.7370
   65SAPC   C28 5322   2.579   6.394   3.454  0.3240 -1.0150 -0.3721
   65SAPC   H8R 5323   2.649   6.396   3.369  2.7443  2.3727  1.4434
   65SAPC   C29 5324   2.631   6.437   3.575 -0.3065  0.1362  1.2642
   65SAPC   H9R 5325   2.735   6.474   3.573 -0.2632  0.0718 -1.4242
   65SAPC  C210 5326   2.574   6.458   3.716  0.5375 -0.6500 -0.2861
   65SAPC  H10R 5327   2.519   6.554   3.719  1.5582 -0.0583  1.8552
   65SAPC  H10S 5328   2.656   6.475   3.789 -0.0812  1.4935 -0.0302
   65SAPC  C211 5329   2.494   6.344   3.765 -0.0882  0.0587  0.2537
   65SAPC  H11R 5330   2.540   6.246   3.747 -2.0841 -0.8144 -0.3507
   65SAPC  C212 5331   2.369   6.351   3.814 -0.3870  0.7741  0.4168
   65SAPC  H12R 5332   2.322   6.257   3.849 -0.2939  0.2600 -0.7817
   65SAPC  C213 5333   2.273   6.470   3.828  0.3968 -0.0033 -0.1076
   65SAPC  H13R 5334   2.249   6.502   3.725 -1.5554  1.5540  0.7573
   65SAPC  H13S 5335   2.324   6.556   3.878 -1.3413  0.9710  0.0607
   65SAPC  C214 5336   2.143   6.448   3.912  0.4508 -0.2885  0.4865
   65SAPC  H14R 5337   2.146   6.473   4.019 -1.2578  0.6348  0.3544
   65SAPC  C215 5338   2.026   6.420   3.848 -0.2933 -1.0854 -0.8502
   65SAPC  H15R 5339   1.939   6.408   3.915  0.8794  0.3158  1.0484
   65SAPC  C216 5340   2.003   6.408   3.701  0.7000 -1.0154  0.7280
   65SAPC  H16R 5341   1.913   6.348   3.675 -0.6251  1.1450  0.1183
   65SAPC  H16S 5342   2.092   6.368   3.649  1.5056  1.2824  0.2214
   65SAPC  C217 5343   1.956   6.542   3.635  0.1364 -0.6089 -0.4152
   65SAPC  H17R 5344   2.040   6.614   3.649 -2.5159  2.7931 -0.7483
   65SAPC  H17S 5345   1.862   6.586   3.676  1.1449  1.2808 -0.0102
   65SAPC  C218 5346   1.942   6.545   3.478  0.5026 -0.3738  0.3371
   65SAPC  H18R 5347   1.875   6.460   3.453  2.4868 -1.1243 -2.9391
   65SAPC  H18S 5348   2.037   6.511   3.430  0.0065 -0.3004 -0.7126
   65SAPC  C219 5349   1.893   6.676   3.411 -0.7369 -0.1354 -0.5749
   65SAPC  H19R 5350   1.973   6.750   3.430 -1.0048 -0.2143  0.9560
   65SAPC  H19S 5351   1.797   6.704   3.460 -0.2758  1.3752 -0.4854
   65SAPC  C220 5352   1.865   6.645   3.269  0.1191  0.3429 -0.0850
   65SAPC  H20R 5353   1.848   6.536   3.260  1.2646  0.1902 -0.5366
   65SAPC  H20S 5354   1.956   6.663   3.208  2.1243  0.6540  2.8083
   65SAPC  H20T 5355   1.789   6.713   3.224  0.7138  0.8903 -0.2715
   65SAPC   C33 5356   1.570   6.251   3.311  0.3584  0.3886 -0.0335
   65SAPC   H3X 5357   1.483   6.242   3.242  1.3524  1.6423 -1.5179
   65SAPC   H3Y 5358   1.639   6.325   3.266  0.6323 -0.4334 -1.0241
   65SAPC   C34 5359   1.513   6.300   3.444 -0.0909 -0.5817 -0.3308
   65SAPC   H4X 5360   1.407   6.268   3.456  0.1112 -0.8596  0.8351
   65SAPC   H4Y 5361   1.519   6.410   3.433  1.4183 -0.8049 -2.2564
   65SAPC   C35 5362   1.602   6.277   3.571  0.6569 -0.8499  0.0071
   65SAPC   H5X 5363   1.701   6.327   3.561  0.1748  0.3108  0.8185
   65SAPC   H5Y 5364   1.605   6.167   3.581  1.2301 -0.8245  0.1036
   65SAPC   C36 5365   1.540   6.333   3.697  0.5648 -0.2137 -0.4083
   65SAPC   H6X 5366   1.433   6.306   3.708  0.6595 -0.1570  0.7344
   65SAPC   H6Y 5367   1.541   6.444   3.706 -0.6226 -0.3444  2.2023
   65SAPC   C37 5368   1.621   6.298   3.824  0.7544  0.9780 -0.2024
   65SAPC   H7X 5369   1.724   6.337   3.826 -0.5185  4.7244 -0.4675
   65SAPC   H7Y 5370   1.629   6.188   3.840  1.2383  1.0985  0.4146
   65SAPC   C38 5371   1.551   6.360   3.943  0.0620  0.0625 -0.5286
   65SAPC   H8X 5372   1.450   6.313   3.950  0.1484  0.1414  1.9984
   65SAPC   H8Y 5373   1.551   6.471   3.937  0.2563  0.0248 -1.5480
   65SAPC   C39 5374   1.625   6.326   4.067 -0.0678 -0.0618 -0.0845
   65SAPC   H9X 5375   1.735   6.310   4.062  0.3362  2.3883 -0.2381
   65SAPC   H9Y 5376   1.580   6.227   4.089 -1.6471  0.9995  1.7866
   65SAPC  C310 5377   1.604   6.423   4.193 -0.4739 -0.3236 -0.0283
   65SAPC  H10X 5378   1.495   6.439   4.204 -0.6493 -1.8156  0.6567
   65SAPC  H10Y 5379   1.647   6.524   4.177 -1.3839  0.3033  1.3812
   65SAPC  C311 5380   1.662   6.363   4.325  0.2915  0.3776  0.0638
   65SAPC  H11X 5381   1.637   6.255   4.336 -0.0546  0.3332 -1.0940
   65SAPC  H11Y 5382   1.613   6.423   4.405 -0.5693  2.1907 -1.7419
   65SAPC  C312 5383   1.814   6.389   4.345  0.5085  0.4456 -0.1882
   65SAPC  H12X 5384   1.824   6.497   4.372  0.7076  0.0264  1.5660
   65SAPC  H12Y 5385   1.864   6.377   4.247  1.0724  0.5569  0.0840
   65SAPC  C313 5386   1.883   6.291   4.445 -0.6137 -0.8560  0.9113
   65SAPC  H13X 5387   1.850   6.188   4.422  1.1215 -1.0528 -0.9406
   65SAPC  H13Y 5388   1.862   6.320   4.550 -0.0525  2.7990  0.1440
   65SAPC  C314 5389   2.038   6.301   4.429  0.5279 -0.3433  0.0829
   65SAPC  H14X 5390   2.078   6.262   4.333  0.2258  1.3638 -0.7858
   65SAPC  H14Y 5391   2.089   6.247   4.512  0.6571 -2.1907 -1.1349
   65SAPC  C315 5392   2.090   6.450   4.439 -0.2000  0.0294 -0.2954
   65SAPC  H15X 5393   2.046   6.491   4.532 -0.0885 -1.1144  0.2916
   65SAPC  H15Y 5394   2.059   6.528   4.367 -0.9670  0.3164  0.3351
   65SAPC  C316 5395   2.249   6.443   4.445  0.5555 -0.6054 -0.0647
   65SAPC  H16X 5396   2.279   6.348   4.494  0.6738  0.0657  1.1753
   65SAPC  H16Y 5397   2.283   6.527   4.509  0.9491 -1.4953  0.9221
   65SAPC  C317 5398   2.304   6.460   4.303 -0.2290 -0.5463 -0.2751
   65SAPC  H17X 5399   2.282   6.555   4.251  2.2907  1.4590  2.0397
   65SAPC  H17Y 5400   2.256   6.378   4.245  2.4329 -1.2189 -1.7075
   65SAPC  C318 5401   2.451   6.431   4.300  0.3971 -0.2214 -0.0902
   65SAPC  H18X 5402   2.504   6.498   4.370 -0.5406 -0.2630  0.6704
   65SAPC  H18Y 5403   2.493   6.464   4.202 -0.4112  1.0228 -0.0410
   65SAPC  H18Z 5404   2.483   6.328   4.326  4.0467  0.5585 -0.8540
   66SAPC     N 5405   4.565   6.619   2.813 -0.7890 -0.0517 -0.4530
   66SAPC   C12 5406   4.585   6.746   2.743 -1.0266 -0.7549  0.2743
   66SAPC  H12A 5407   4.521   6.740   2.656 -0.5172 -0.5839 -0.1165
   66SAPC  H12B 5408   4.683   6.752   2.699 -2.0894 -2.7967 -2.6804
   66SAPC   C13 5409   4.432   6.602   2.877 -0.0872 -0.0741  0.0443
   66SAPC  H13A 5410   4.430   6.509   2.934 -0.4522  0.7328  1.3976
   66SAPC  H13B 5411   4.397   6.687   2.934 -2.3508  0.3559 -1.8608
   66SAPC  H13C 5412   4.358   6.595   2.799 -2.1051  0.8147  1.7814
   66SAPC   C14 5413   4.582   6.511   2.710  0.8598 -0.3138 -0.0492
   66SAPC  H14A 5414   4.514   6.520   2.627  0.7502  1.5347  0.1999
   66SAPC  H14B 5415   4.681   6.520   2.668 -0.0557 -0.5089 -2.3766
   66SAPC  H14C 5416   4.568   6.411   2.750  0.6271 -0.0120  0.6389
   66SAPC   C15 5417   4.670   6.612   2.919 -0.5414  0.5095 -0.2376
   66SAPC  H15A 5418   4.669   6.692   2.990  3.9062 -0.4729  1.2490
   66SAPC  H15B 5419   4.670   6.525   2.983  0.1587  1.9473  1.8140
   66SAPC  H15C 5420   4.768   6.609   2.874 -1.3574 -0.6469 -2.0809
   66SAPC   C11 5421   4.566   6.888   2.808 -0.4255 -0.5490 -0.3064
   66SAPC  H11A 5422   4.459   6.915   2.820  0.2808  1.5836  2.5019
   66SAPC  H11B 5423   4.607   6.970   2.745 -0.0513  1.6700  2.6123
   66SAPC     P 5424   4.769   6.964   2.956 -0.0405 -0.1196  0.1845
   66SAPC   O13 5425   4.837   6.959   2.821  0.1939  0.3228  0.3917
   66SAPC   O14 5426   4.742   7.095   3.017  0.0454 -0.2311 -0.5008
   66SAPC   O12 5427   4.628   6.901   2.939 -0.1254 -0.9404 -0.0991
   66SAPC   O11 5428   4.847   6.872   3.054 -0.0034 -0.4191  0.1490
   66SAPC    C1 5429   4.847   6.895   3.194 -0.1019 -0.2489  0.2456
   66SAPC    HA 5430   4.888   6.993   3.227 -0.5238  0.4477 -1.1881
   66SAPC    HB 5431   4.740   6.891   3.224 -0.5510 -1.1239 -1.3360
   66SAPC    C2 5432   4.905   6.775   3.268  0.3630  0.3829 -0.3921
   66SAPC    HS 5433   4.847   6.690   3.224 -0.4519  1.5915 -1.7469
   66SAPC   O21 5434   4.885   6.804   3.412  0.2593 -0.6182  0.4333
   66SAPC   C21 5435   4.763   6.781   3.460 -0.4517  0.0583  0.7034
   66SAPC   O22 5436   4.672   6.727   3.401 -0.4331 -0.7622  0.0344
   66SAPC   C22 5437   4.755   6.817   3.604  0.4315 -0.2733 -0.4213
   66SAPC   H2R 5438   4.856   6.824   3.650  0.5910 -1.1525 -0.6362
   66SAPC   H2S 5439   4.710   6.917   3.622  0.0330 -0.6105  0.5357
   66SAPC    C3 5440   5.052   6.754   3.242 -0.0460 -0.6919  0.4357
   66SAPC    HX 5441   5.066   6.751   3.132  1.5628 -0.2599  0.6018
   66SAPC    HY 5442   5.086   6.654   3.276 -1.0951 -1.1307  0.2169
   66SAPC   O31 5443   5.132   6.869   3.299  0.5804  0.2458  0.0545
   66SAPC   C31 5444   5.193   6.844   3.418  0.0402 -0.2674 -0.2087
   66SAPC   O32 5445   5.192   6.737   3.476 -0.2998  0.5736  0.3189
   66SAPC   C32 5446   5.264   6.971   3.461 -0.5510  0.0590 -0.6960
   66SAPC   H2X 5447   5.309   7.009   3.366  0.4150 -0.2743 -0.3857
   66SAPC   H2Y 5448   5.346   6.941   3.530 -1.5516 -0.4427  0.3080
   66SAPC   C23 5449   4.672   6.728   3.691  0.0231  0.0950  0.1225
   66SAPC   H3R 5450   4.704   6.622   3.686  1.8849  0.5405  1.5752
   66SAPC   H3S 5451   4.568   6.735   3.652  1.3593  0.2494 -3.9140
   66SAPC   C24 5452   4.677   6.773   3.834  0.2120  0.4501 -0.4472
   66SAPC   H4R 5453   4.586   6.721   3.871  0.1668  1.6997  1.3174
   66SAPC   H4S 5454   4.659   6.882   3.846  1.1882  0.6257 -0.4808
   66SAPC   C25 5455   4.791   6.737   3.928  0.8203 -0.4200  0.3901
   66SAPC   H5R 5456   4.888   6.739   3.877  0.7797 -0.7887  0.2956
   66SAPC   C26 5457   4.784   6.707   4.063 -0.2747  0.1408  0.8826
   66SAPC   H6R 5458   4.876   6.676   4.115 -1.3472 -2.4653  1.4097
   66SAPC   C27 5459   4.661   6.690   4.148  0.5400  0.6049 -0.4421
   66SAPC   H7R 5460   4.569   6.721   4.096 -0.7225 -1.8625  0.1496
   66SAPC   H7S 5461   4.664   6.773   4.221  0.4354  3.1994 -3.2132
   66SAPC   C28 5462   4.660   6.541   4.198  0.1115  0.7548 -0.0972
   66SAPC   H8R 5463   4.760   6.499   4.214 -0.0670 -0.1411 -1.1949
   66SAPC   C29 5464   4.556   6.458   4.209 -0.2322 -0.6537  0.2608
   66SAPC   H9R 5465   4.579   6.356   4.244 -2.6423 -1.8362 -1.2941
   66SAPC  C210 5466   4.404   6.492   4.192 -0.1254  0.9957 -0.0723
   66SAPC  H10R 5467   4.375   6.466   4.088  1.4308  0.4000 -0.3769
   66SAPC  H10S 5468   4.381   6.600   4.194 -0.3088  0.9631 -0.4038
   66SAPC  C211 5469   4.323   6.418   4.293  0.4795 -0.1602 -0.5936
   66SAPC  H11R 5470   4.338   6.462   4.393  1.6323  0.2900 -0.9411
   66SAPC  C212 5471   4.247   6.307   4.262 -0.2293 -0.0132 -0.5227
   66SAPC  H12R 5472   4.194   6.253   4.342  0.2927  1.2472  0.7026
   66SAPC  C213 5473   4.231   6.247   4.123  0.6041 -0.0827 -0.9626
   66SAPC  H13R 5474   4.179   6.321   4.059 -1.4788  0.9641  1.7248
   66SAPC  H13S 5475   4.159   6.164   4.137 -0.6822  1.2777  1.0419
   66SAPC  C214 5476   4.352   6.184   4.053  0.0322 -0.2110 -0.1917
   66SAPC  H14R 5477   4.425   6.141   4.122  0.3757 -2.0493 -1.6364
   66SAPC  C215 5478   4.387   6.179   3.922 -0.6159  0.2430 -0.2790
   66SAPC  H15R 5479   4.489   6.146   3.897 -0.0790  0.4119  1.5423
   66SAPC  C216 5480   4.307   6.238   3.808  0.8231  0.4402 -0.1889
   66SAPC  H16R 5481   4.202   6.203   3.825 -0.1751  1.2944 -3.7859
   66SAPC  H16S 5482   4.327   6.202   3.705 -2.8046  0.3094 -0.9874
   66SAPC  C217 5483   4.314   6.393   3.788  0.5522 -0.3576 -0.3095
   66SAPC  H17R 5484   4.415   6.427   3.756  0.6502  0.8592  1.1317
   66SAPC  H17S 5485   4.302   6.440   3.888  1.9975 -0.7293  0.0636
   66SAPC  C218 5486   4.211   6.454   3.685 -0.5805 -0.0084 -0.3926
   66SAPC  H18R 5487   4.116   6.477   3.738 -1.0433 -0.5527 -0.9720
   66SAPC  H18S 5488   4.205   6.370   3.613 -0.2508  1.4995 -2.2665
   66SAPC  C219 5489   4.250   6.587   3.623  0.3314  0.0201  0.6925
   66SAPC  H19R 5490   4.298   6.651   3.700  1.0899  0.3014  0.0096
   66SAPC  H19S 5491   4.164   6.647   3.587  0.9894 -0.1552 -1.3391
   66SAPC  C220 5492   4.344   6.579   3.499  0.5828 -0.2676  0.2930
   66SAPC  H20R 5493   4.299   6.537   3.406 -2.1605 -0.5219  1.6262
   66SAPC  H20S 5494   4.439   6.532   3.530  0.2333 -2.2020 -1.3233
   66SAPC  H20T 5495   4.361   6.685   3.470  0.6150 -0.0055  1.2258
   66SAPC   C33 5496   5.176   7.082   3.528  1.0454 -0.2550  0.1482
   66SAPC   H3X 5497   5.090   7.099   3.459  0.0785  0.2267  1.4270
   66SAPC   H3Y 5498   5.241   7.171   3.528  1.5337 -0.6052  0.5744
   66SAPC   C34 5499   5.104   7.053   3.663  0.2037 -0.2530 -0.3982
   66SAPC   H4X 5500   5.047   6.958   3.657  2.6027 -1.7538 -0.5485
   66SAPC   H4Y 5501   5.031   7.137   3.666 -1.2683 -1.4555 -1.3253
   66SAPC   C35 5502   5.187   7.040   3.796  0.4088  0.0279  0.6230
   66SAPC   H5X 5503   5.257   7.126   3.797  1.1844 -0.4864 -1.7368
   66SAPC   H5Y 5504   5.236   6.940   3.790 -0.0492 -0.2837  1.7820
   66SAPC   C36 5505   5.101   7.026   3.918 -0.1046  0.3663  0.0237
   66SAPC   H6X 5506   5.036   6.938   3.904 -0.9150  0.5606  2.1946
   66SAPC   H6Y 5507   5.021   7.104   3.923  0.4159  0.9986 -1.1194
   66SAPC   C37 5508   5.176   7.017   4.044 -0.0549 -0.1690 -0.1933
   66SAPC   H7X 5509   5.185   7.120   4.083 -1.9156  0.0456 -0.2840
   66SAPC   H7Y 5510   5.274   6.973   4.014  0.9155  1.4301  0.5407
   66SAPC   C38 5511   5.117   6.928   4.153 -0.3531 -0.0853 -0.4860
   66SAPC   H8X 5512   5.078   6.835   4.107 -0.1637 -0.7712  0.7011
   66SAPC   H8Y 5513   5.022   6.980   4.175  1.0805  1.9775  1.2660
   66SAPC   C39 5514   5.200   6.894   4.284  1.7472 -0.3909 -0.2261
   66SAPC   H9X 5515   5.163   6.806   4.341  3.0948 -1.3351 -0.7434
   66SAPC   H9Y 5516   5.196   6.979   4.354  0.0779  0.7518 -1.6243
   66SAPC  C310 5517   5.347   6.861   4.238 -0.3440  1.3218  0.0071
   66SAPC  H10X 5518   5.393   6.951   4.191  2.3198  0.2907  0.4757
   66SAPC  H10Y 5519   5.332   6.787   4.156 -2.1891 -0.0073  1.4475
   66SAPC  C311 5520   5.444   6.802   4.350 -0.5809  0.3077 -0.1874
   66SAPC  H11X 5521   5.486   6.888   4.406  3.6586 -0.1447 -2.2863
   66SAPC  H11Y 5522   5.534   6.765   4.295  1.1297 -0.5256  2.9585
   66SAPC  C312 5523   5.388   6.679   4.425  0.2510  0.5135  0.6134
   66SAPC  H12X 5524   5.343   6.621   4.342  0.1339  1.9608 -0.3838
   66SAPC  H12Y 5525   5.316   6.691   4.509  1.1578  1.0521  1.3360
   66SAPC  C313 5526   5.492   6.587   4.497  0.4916 -0.3065 -0.3189
   66SAPC  H13X 5527   5.438   6.515   4.561 -1.3714  0.8642 -0.5147
   66SAPC  H13Y 5528   5.545   6.652   4.569 -0.7350  0.1661  0.1667
   66SAPC  C314 5529   5.605   6.527   4.405 -0.4772  0.6433 -0.3098
   66SAPC  H14X 5530   5.671   6.611   4.374 -0.3325  1.1298  1.2518
   66SAPC  H14Y 5531   5.559   6.482   4.314 -1.9834  0.8145  0.3420
   66SAPC  C315 5532   5.700   6.428   4.477  0.3876 -0.2401 -0.3086
   66SAPC  H15X 5533   5.633   6.367   4.541  0.3009  1.7671  1.6262
   66SAPC  H15Y 5534   5.778   6.476   4.540  0.1335 -2.2428  1.6747
   66SAPC  C316 5535   5.761   6.330   4.382 -0.2118  0.1913 -0.5340
   66SAPC  H16X 5536   5.682   6.319   4.304  0.1336  0.2255 -0.8970
   66SAPC  H16Y 5537   5.777   6.236   4.438 -0.8109 -0.6302 -1.6906
   66SAPC  C317 5538   5.883   6.371   4.310  0.0171  0.5087  0.3522
   66SAPC  H17X 5539   5.965   6.411   4.373  1.3961  1.3717 -1.8346
   66SAPC  H17Y 5540   5.852   6.446   4.233  1.3866 -0.0658 -0.8136
   66SAPC  C318 5541   5.930   6.261   4.211  0.0089  0.4152 -0.3066
   66SAPC  H18X 5542   5.988   6.185   4.268 -1.3352 -0.3890  0.0272
   66SAPC  H18Y 5543   5.989   6.301   4.126 -1.4037  0.7211 -1.1763
   66SAPC  H18Z 5544   5.849   6.196   4.171 -1.1988  2.9827 -2.4234
   67SAPC     N 5545   2.994   0.249   2.608 -1.0039  0.1264 -0.0382
   67SAPC   C12 5546   2.866   0.258   2.534  0.8393 -0.2036  0.7703
   67SAPC  H12A 5547   2.808   0.171   2.562  0.8795 -1.0015 -1.4652
   67SAPC  H12B 5548   2.884   0.232   2.431  1.4548 -2.1689  1.3118
   67SAPC   C13 5549   2.984   0.282   2.749  0.3167  0.0571  0.0265
   67SAPC  H13A 5550   2.909   0.228   2.806  0.2637  0.0651 -0.0364
   67SAPC  H13B 5551   3.078   0.257   2.796  0.8245  0.4328 -0.7818
   67SAPC  H13C 5552   2.978   0.387   2.774  0.8952 -0.1246  1.0018
   67SAPC   C14 5553   3.042   0.104   2.606  0.5506 -0.7645 -0.1826
   67SAPC  H14A 5554   3.127   0.095   2.673 -0.1675  3.0859  1.5585
   67SAPC  H14B 5555   2.965   0.036   2.639  2.2366 -1.8459  1.7539
   67SAPC  H14C 5556   3.073   0.073   2.507  1.4213 -1.4379  0.2800
   67SAPC   C15 5557   3.107   0.329   2.549  1.0080  0.0363  0.2132
   67SAPC  H15A 5558   3.094   0.436   2.549  1.8506  0.1526  0.7219
   67SAPC  H15B 5559   3.195   0.288   2.597  0.1424 -3.1763 -0.6661
   67SAPC  H15C 5560   3.112   0.296   2.447 -0.5026  1.7610 -0.4558
   67SAPC   C11 5561   2.779   0.379   2.555 -1.0291 -0.1038  0.8090
   67SAPC  H11A 5562   2.758   0.394   2.663 -3.3053  1.2965  0.2378
   67SAPC  H11B 5563   2.676   0.366   2.515 -0.5065 -0.8861 -0.3216
   67SAPC     P 5564   2.877   0.623   2.579  0.0382 -0.1017  0.2310
   67SAPC   O13 5565   3.020   0.632   2.598 -0.5307 -0.0941  0.4207
   67SAPC   O14 5566   2.811   0.739   2.508 -0.0479  0.4193 -0.1250
   67SAPC   O12 5567   2.841   0.495   2.492 -0.1661 -0.0771 -0.1005
   67SAPC   O11 5568   2.803   0.607   2.721 -0.6240  0.2829 -0.7037
   67SAPC    C1 5569   2.835   0.698   2.825  0.4794  0.4696  0.9712
   67SAPC    HA 5570   2.921   0.764   2.801 -0.5979  1.0940 -1.4458
   67SAPC    HB 5571   2.752   0.771   2.837 -1.2546 -0.7804 -2.4762
   67SAPC    C2 5572   2.870   0.634   2.957 -0.0735 -0.0834 -0.1465
   67SAPC    HS 5573   2.946   0.554   2.941  0.3730  0.0877  1.0512
   67SAPC   O21 5574   2.750   0.592   3.023 -0.0753 -0.1762  0.0867
   67SAPC   C21 5575   2.715   0.462   3.013  0.2389  0.2963 -0.0726
   67SAPC   O22 5576   2.785   0.378   2.960  0.2354  0.0478  0.6490
   67SAPC   C22 5577   2.587   0.441   3.102  0.0204  0.3607  0.5921
   67SAPC   H2R 5578   2.536   0.539   3.113  1.5811  1.7461 -2.8844
   67SAPC   H2S 5579   2.521   0.387   3.030  0.0139  0.3388  0.6144
   67SAPC    C3 5580   2.944   0.733   3.053 -0.7807  0.0328 -0.2212
   67SAPC    HX 5581   2.877   0.816   3.083  2.5337  2.1951  1.9514
   67SAPC    HY 5582   3.025   0.776   2.991 -0.4391  0.8343  0.7554
   67SAPC   O31 5583   3.002   0.654   3.163  0.2917  0.3720  0.5788
   67SAPC   C31 5584   3.051   0.732   3.255 -0.1679  0.4794 -0.4009
   67SAPC   O32 5585   3.060   0.854   3.253  0.4151  0.8449 -0.1185
   67SAPC   C32 5586   3.107   0.647   3.367  0.2908  0.4294  0.0992
   67SAPC   H2X 5587   3.135   0.549   3.325  1.4123  1.1927 -1.0263
   67SAPC   H2Y 5588   3.022   0.631   3.437  0.0967  0.3185 -0.1597
   67SAPC   C23 5589   2.618   0.367   3.234 -0.3106 -0.0143  0.0813
   67SAPC   H3R 5590   2.656   0.266   3.209  1.1102  0.4385  0.2967
   67SAPC   H3S 5591   2.538   0.354   3.309 -0.3877 -0.8395 -0.1399
   67SAPC   C24 5592   2.731   0.438   3.315 -0.2235 -1.1552 -0.7637
   67SAPC   H4R 5593   2.826   0.423   3.260 -0.7554 -3.4531 -1.1631
   67SAPC   H4S 5594   2.731   0.403   3.420  1.5481  2.1714  0.4957
   67SAPC   C25 5595   2.707   0.589   3.328  0.1709  0.3584  0.2743
   67SAPC   H5R 5596   2.677   0.641   3.236  1.5814  1.1297  0.2196
   67SAPC   C26 5597   2.733   0.668   3.436  0.3521  0.0110 -0.1347
   67SAPC   H6R 5598   2.712   0.776   3.433  1.4100  0.3936  2.7696
   67SAPC   C27 5599   2.781   0.642   3.572 -0.8379 -0.6842  0.2241
   67SAPC   H7R 5600   2.844   0.726   3.609 -1.6033 -0.1741  0.4020
   67SAPC   H7S 5601   2.851   0.556   3.565 -0.7079 -0.4710 -2.0650
   67SAPC   C28 5602   2.672   0.621   3.667 -0.4613  0.1842 -0.7859
   67SAPC   H8R 5603   2.587   0.691   3.670 -0.5173  0.1388  2.6834
   67SAPC   C29 5604   2.675   0.530   3.769 -0.5956 -0.1845 -0.3854
   67SAPC   H9R 5605   2.590   0.523   3.839 -1.5880  0.5482 -1.4627
   67SAPC  C210 5606   2.785   0.437   3.809  0.4091 -0.4455  0.0671
   67SAPC  H10R 5607   2.833   0.479   3.900  0.2868 -0.3691  0.0966
   67SAPC  H10S 5608   2.866   0.417   3.735  0.2511 -1.9681  0.2832
   67SAPC  C211 5609   2.721   0.307   3.848 -0.0811  0.1000  0.4757
   67SAPC  H11R 5610   2.692   0.232   3.772  0.2759  0.6488 -0.2198
   67SAPC  C212 5611   2.671   0.264   3.967  0.7405 -0.3385 -0.3432
   67SAPC  H12R 5612   2.611   0.172   3.972 -1.8276  1.3270  1.7970
   67SAPC  C213 5613   2.651   0.349   4.092 -0.3708  0.6715  0.2545
   67SAPC  H13R 5614   2.545   0.341   4.124 -0.4144 -0.1518 -0.0683
   67SAPC  H13S 5615   2.661   0.458   4.071 -2.1339  1.3291  2.3506
   67SAPC  C214 5616   2.751   0.306   4.197  0.0335  0.5574  0.1308
   67SAPC  H14R 5617   2.856   0.329   4.177  0.2103  1.0409  1.5583
   67SAPC  C215 5618   2.721   0.229   4.301  0.0993  0.4274 -0.4102
   67SAPC  H15R 5619   2.802   0.198   4.370 -1.1243  1.8643  1.8009
   67SAPC  C216 5620   2.594   0.160   4.354 -0.2043 -0.2031 -0.0766
   67SAPC  H16R 5621   2.507   0.181   4.288 -0.0539  0.4776 -0.0728
   67SAPC  H16S 5622   2.562   0.216   4.444 -1.7129  0.1259 -0.7745
   67SAPC  C217 5623   2.606   0.015   4.398 -0.0283 -0.7144 -0.4583
   67SAPC  H17R 5624   2.505  -0.023   4.427  0.0075 -0.2125  0.3643
   67SAPC  H17S 5625   2.663   0.015   4.493  1.4449  1.1593 -1.2897
   67SAPC  C218 5626   2.687  -0.073   4.294 -0.2593  0.8353  0.4274
   67SAPC  H18R 5627   2.697  -0.180   4.323 -0.1379  1.0340  1.1383
   67SAPC  H18S 5628   2.789  -0.030   4.288 -0.1016  0.4706  0.4947
   67SAPC  C219 5629   2.623  -0.084   4.154 -0.2227 -0.7456  0.1631
   67SAPC  H19R 5630   2.606   0.021   4.122 -0.6275 -1.2600 -1.4225
   67SAPC  H19S 5631   2.520  -0.127   4.157 -0.3401 -0.4255  1.6529
   67SAPC  C220 5632   2.702  -0.161   4.048  0.0904 -0.0242 -0.0374
   67SAPC  H20R 5633   2.630  -0.171   3.965 -0.9896 -0.8696  0.9666
   67SAPC  H20S 5634   2.734  -0.259   4.090 -2.2541 -0.5398  0.6832
   67SAPC  H20T 5635   2.791  -0.100   4.021  0.6378 -0.4194  0.8020
   67SAPC   C33 5636   3.237   0.714   3.426  0.0093  0.1038 -0.2380
   67SAPC   H3X 5637   3.204   0.816   3.457 -2.0744  0.0636 -2.0936
   67SAPC   H3Y 5638   3.319   0.722   3.352  1.2764 -1.3190  0.9391
   67SAPC   C34 5639   3.297   0.635   3.547  0.2946 -0.5162  0.2084
   67SAPC   H4X 5640   3.380   0.693   3.593 -1.4980  1.5879  0.9727
   67SAPC   H4Y 5641   3.341   0.548   3.496  1.6062 -0.0133  0.4456
   67SAPC   C35 5642   3.190   0.596   3.646  0.0826 -0.3996 -0.3164
   67SAPC   H5X 5643   3.123   0.519   3.600  1.1346 -0.5631 -1.6238
   67SAPC   H5Y 5644   3.131   0.686   3.673  0.5259 -0.4963  1.0313
   67SAPC   C36 5645   3.250   0.535   3.772 -0.3095  0.2569 -0.3399
   67SAPC   H6X 5646   3.320   0.609   3.816  0.8914  0.4287 -2.4065
   67SAPC   H6Y 5647   3.321   0.456   3.737 -0.1176  0.8226 -1.2777
   67SAPC   C37 5648   3.139   0.493   3.872  0.0865  0.8651 -0.4820
   67SAPC   H7X 5649   3.080   0.412   3.823  2.0481  0.1687 -1.8413
   67SAPC   H7Y 5650   3.075   0.583   3.883 -1.6923 -0.0641 -2.5528
   67SAPC   C38 5651   3.196   0.440   4.010 -0.1668 -0.1183 -0.2612
   67SAPC   H8X 5652   3.195   0.522   4.084 -1.2591 -0.8611  0.5988
   67SAPC   H8Y 5653   3.302   0.413   3.995 -0.2543 -1.0137  0.5763
   67SAPC   C39 5654   3.109   0.323   4.065  0.2630 -0.0521  0.0362
   67SAPC   H9X 5655   3.107   0.232   4.002  1.4303 -1.8277  2.3703
   67SAPC   H9Y 5656   3.010   0.371   4.050  0.0733 -0.4661 -0.0500
   67SAPC  C310 5657   3.133   0.290   4.210 -1.3302 -0.2928  0.6525
   67SAPC  H10X 5658   3.099   0.356   4.293  0.5824  0.1778  1.1124
   67SAPC  H10Y 5659   3.244   0.298   4.215 -1.1244  0.5226 -2.9340
   67SAPC  C311 5660   3.091   0.141   4.239 -1.0952 -0.2591 -0.1566
   67SAPC  H11X 5661   3.132   0.072   4.163  0.1824  1.1310 -0.7741
   67SAPC  H11Y 5662   2.980   0.130   4.233 -1.6940  2.0388  3.3529
   67SAPC  C312 5663   3.130   0.100   4.378  0.0901  0.0077 -0.8215
   67SAPC  H12X 5664   3.073   0.155   4.456  3.6948  1.9854  0.6515
   67SAPC  H12Y 5665   3.239   0.117   4.390 -0.5627  2.8684  2.5420
   67SAPC  C313 5666   3.105  -0.055   4.410 -0.1844  0.3780 -0.5464
   67SAPC  H13X 5667   3.191  -0.099   4.355 -1.1756 -0.1821 -1.6696
   67SAPC  H13Y 5668   3.007  -0.085   4.368 -1.5959  0.3120  2.5049
   67SAPC  C314 5669   3.102  -0.090   4.556 -0.5131 -0.3035  0.1642
   67SAPC  H14X 5670   3.072  -0.197   4.556 -0.1304 -0.4143 -0.2627
   67SAPC  H14Y 5671   3.012  -0.037   4.593 -1.9489 -3.2001  1.0708
   67SAPC  C315 5672   3.220  -0.058   4.650 -0.7090 -0.1095  0.3653
   67SAPC  H15X 5673   3.235   0.052   4.650 -0.8453 -0.0917 -0.2336
   67SAPC  H15Y 5674   3.309  -0.112   4.613 -0.6762  0.3949 -0.3022
   67SAPC  C316 5675   3.175  -0.097   4.792  0.6625 -0.2486  0.3435
   67SAPC  H16X 5676   3.143  -0.203   4.799  0.9473 -0.2578  1.6545
   67SAPC  H16Y 5677   3.092  -0.026   4.815  1.5913  1.3596 -1.0580
   67SAPC  C317 5678   3.275  -0.073   4.912  0.5722  0.0210  0.0746
   67SAPC  H17X 5679   3.309   0.032   4.900  2.0677 -0.4021  0.3810
   67SAPC  H17Y 5680   3.355  -0.149   4.898 -0.8843 -1.5595 -0.0705
   67SAPC  C318 5681   3.217  -0.099   5.047  0.6573  0.8702 -0.3879
   67SAPC  H18X 5682   3.126  -0.039   5.069 -0.2101 -0.8261  0.8330
   67SAPC  H18Y 5683   3.282  -0.093   5.138  1.1610 -2.2410 -0.4501
   67SAPC  H18Z 5684   3.169  -0.199   5.044  1.0574  0.6441  0.3427
   68SAPC     N 5685   4.989   4.714   2.597  0.1348  0.2866 -0.3978
   68SAPC   C12 5686   5.109   4.706   2.687  0.4108  0.3215  0.2505
   68SAPC  H12A 5687   5.064   4.663   2.775 -1.8336 -2.3192 -1.9861
   68SAPC  H12B 5688   5.146   4.805   2.708  0.3496  0.1814  1.0307
   68SAPC   C13 5689   4.880   4.796   2.661  0.2013 -0.1161 -0.5992
   68SAPC  H13A 5690   4.898   4.901   2.675 -2.4880  0.3815 -0.2976
   68SAPC  H13B 5691   4.792   4.788   2.598 -1.2592 -1.2464  1.4519
   68SAPC  H13C 5692   4.867   4.747   2.757  0.1561 -0.1249 -0.6101
   68SAPC   C14 5693   5.015   4.782   2.476 -0.5149 -0.7975  0.8363
   68SAPC  H14A 5694   5.084   4.729   2.411  0.0813  0.1665  0.6573
   68SAPC  H14B 5695   4.930   4.795   2.411  1.4877 -2.2831 -2.3289
   68SAPC  H14C 5696   5.060   4.881   2.477  1.1475 -1.4431 -1.3700
   68SAPC   C15 5697   4.940   4.577   2.569  0.1279  0.3871 -0.1677
   68SAPC  H15A 5698   4.925   4.535   2.668 -0.5221  0.0395 -0.4066
   68SAPC  H15B 5699   4.850   4.559   2.512  1.0219  0.3352 -1.5836
   68SAPC  H15C 5700   5.014   4.520   2.515 -0.9651 -0.5945 -0.6679
   68SAPC   C11 5701   5.234   4.622   2.646 -0.3024 -0.3014 -0.1925
   68SAPC  H11A 5702   5.315   4.626   2.723 -1.4768 -0.6183  1.0934
   68SAPC  H11B 5703   5.281   4.667   2.556  1.3165  0.5889  1.0315
   68SAPC     P 5704   5.198   4.379   2.726 -0.4578 -0.1669 -0.2216
   68SAPC   O13 5705   5.123   4.265   2.678 -0.6153  0.7387 -0.0278
   68SAPC   O14 5706   5.332   4.349   2.772 -0.5296  0.2032 -0.2566
   68SAPC   O12 5707   5.207   4.488   2.620  0.3100  0.4798 -0.8273
   68SAPC   O11 5708   5.125   4.440   2.853 -0.1995 -0.4927 -0.0686
   68SAPC    C1 5709   5.103   4.353   2.968 -0.1972 -0.6459  0.0795
   68SAPC    HA 5710   4.998   4.372   2.997 -2.0514 -2.8062 -4.3403
   68SAPC    HB 5711   5.116   4.243   2.957  3.1231 -0.3459 -0.1012
   68SAPC    C2 5712   5.216   4.391   3.073 -0.0768 -0.0953  0.2687
   68SAPC    HS 5713   5.315   4.364   3.030 -1.0903 -3.0261 -0.4012
   68SAPC   O21 5714   5.191   4.328   3.194  0.8661  0.3006 -0.0875
   68SAPC   C21 5715   5.294   4.325   3.278  0.4775  0.7969  0.3299
   68SAPC   O22 5716   5.401   4.376   3.255  0.0987 -0.5002  0.5154
   68SAPC   C22 5717   5.261   4.236   3.399  0.4685 -0.1346  0.2512
   68SAPC   H2R 5718   5.155   4.202   3.394  0.4801 -0.2289  0.5931
   68SAPC   H2S 5719   5.328   4.147   3.409 -1.6943 -1.7721  1.0112
   68SAPC    C3 5720   5.233   4.551   3.084  0.6651 -0.2246  0.7459
   68SAPC    HX 5721   5.250   4.602   2.987  2.1941 -0.3713  0.9071
   68SAPC    HY 5722   5.321   4.577   3.147  1.7602  0.8083 -1.1301
   68SAPC   O31 5723   5.113   4.604   3.149  0.5068 -0.1211 -0.1008
   68SAPC   C31 5724   5.115   4.738   3.162 -0.1093 -0.3771  0.0009
   68SAPC   O32 5725   5.210   4.811   3.136 -0.6059  0.9189  0.8372
   68SAPC   C32 5726   4.991   4.787   3.242  0.4648  0.1987  0.1923
   68SAPC   H2X 5727   4.953   4.708   3.310 -2.1064  1.4434  0.3070
   68SAPC   H2Y 5728   4.910   4.789   3.167  1.3618  0.2019 -0.8083
   68SAPC   C23 5729   5.280   4.305   3.539  0.7520  0.0465 -0.2492
   68SAPC   H3R 5730   5.386   4.323   3.567  0.8934  1.4038 -1.5284
   68SAPC   H3S 5731   5.241   4.234   3.615  0.1183  0.3676 -0.2624
   68SAPC   C24 5732   5.202   4.437   3.550  0.1336 -0.2700  0.3417
   68SAPC   H4R 5733   5.253   4.509   3.482  1.4272  0.0548  1.5846
   68SAPC   H4S 5734   5.211   4.473   3.655 -1.5161  1.6888 -0.1238
   68SAPC   C25 5735   5.056   4.418   3.516  0.2572 -0.1625  0.5883
   68SAPC   H5R 5736   5.038   4.427   3.407  2.1450  0.1320  0.2672
   68SAPC   C26 5737   4.958   4.406   3.598  0.1623 -0.1730 -0.3545
   68SAPC   H6R 5738   4.861   4.367   3.562  0.0793 -2.1122  1.7337
   68SAPC   C27 5739   4.958   4.416   3.749  0.1431 -0.3295  0.1685
   68SAPC   H7R 5740   5.059   4.384   3.784  0.6883  1.2785  0.1220
   68SAPC   H7S 5741   4.881   4.346   3.787  2.4504 -0.6673  4.9236
   68SAPC   C28 5742   4.936   4.554   3.804  0.8535  0.5268 -0.4886
   68SAPC   H8R 5743   4.900   4.629   3.733  0.3982  1.1647  0.3886
   68SAPC   C29 5744   4.963   4.592   3.935  0.6952  0.2852  0.4311
   68SAPC   H9R 5745   4.948   4.696   3.967  0.8628  0.2846  0.5113
   68SAPC  C210 5746   5.013   4.494   4.041 -1.1438  0.0586  0.0684
   68SAPC  H10R 5747   5.124   4.487   4.046 -1.1244 -1.5973 -1.6636
   68SAPC  H10S 5748   4.975   4.393   4.015 -0.9321 -0.1086  0.3854
   68SAPC  C211 5749   4.955   4.522   4.174  0.1559  0.6349 -0.6780
   68SAPC  H11R 5750   4.847   4.502   4.179  0.3625 -0.1513  1.3991
   68SAPC  C212 5751   5.021   4.555   4.288 -0.6235  0.0101  0.1735
   68SAPC  H12R 5752   4.972   4.557   4.387  2.1070  1.3255  1.6243
   68SAPC  C213 5753   5.165   4.571   4.298 -0.7540  0.7036  0.0961
   68SAPC  H13R 5754   5.196   4.657   4.235  1.8677 -0.3248 -0.1791
   68SAPC  H13S 5755   5.203   4.477   4.251  1.5617  1.6007  0.0627
   68SAPC  C214 5756   5.238   4.584   4.430  0.2732 -0.0621  0.7065
   68SAPC  H14R 5757   5.283   4.685   4.430 -1.5813  0.8242 -1.3844
   68SAPC  C215 5758   5.254   4.495   4.525 -0.1953 -0.3243  0.0481
   68SAPC  H15R 5759   5.307   4.515   4.620 -0.6903  0.6909  0.1322
   68SAPC  C216 5760   5.186   4.356   4.530  0.1054  0.3441  0.3644
   68SAPC  H16R 5761   5.261   4.274   4.528  0.6961  0.8304  1.3923
   68SAPC  H16S 5762   5.112   4.350   4.448  0.8610 -0.6389 -0.2833
   68SAPC  C217 5763   5.135   4.327   4.675  0.4664 -0.6398 -0.5956
   68SAPC  H17R 5764   5.080   4.231   4.675  0.3265 -0.5639 -0.1238
   68SAPC  H17S 5765   5.065   4.412   4.694 -0.6935 -1.4898 -0.9529
   68SAPC  C218 5766   5.236   4.324   4.794 -0.3661 -0.5059 -0.5044
   68SAPC  H18R 5767   5.175   4.318   4.887  2.1368  2.7365  1.5609
   68SAPC  H18S 5768   5.282   4.424   4.802  0.5815 -1.0302  1.1806
   68SAPC  C219 5769   5.341   4.213   4.799  1.0534  0.0446 -0.2369
   68SAPC  H19R 5770   5.408   4.217   4.710  1.1738 -0.2742 -0.1605
   68SAPC  H19S 5771   5.290   4.115   4.791  2.3648 -0.6444 -0.4044
   68SAPC  C220 5772   5.430   4.227   4.916 -0.0904 -0.3689 -0.1391
   68SAPC  H20R 5773   5.477   4.327   4.931 -2.6728  0.8386  0.5146
   68SAPC  H20S 5774   5.509   4.149   4.907 -0.5426 -0.6180 -2.7832
   68SAPC  H20T 5775   5.389   4.204   5.017  0.0894  1.2433  0.3288
   68SAPC   C33 5776   5.003   4.922   3.315  0.0183  0.2934  0.2517
   68SAPC   H3X 5777   4.905   4.942   3.363 -0.1551 -2.0017  0.9671
   68SAPC   H3Y 5778   5.025   5.005   3.244  1.2919 -0.1367  0.1344
   68SAPC   C34 5779   5.110   4.942   3.421  0.0780  0.0620  1.2022
   68SAPC   H4X 5780   5.112   5.050   3.446 -1.2685  0.4327 -0.1693
   68SAPC   H4Y 5781   5.211   4.920   3.379 -1.2992 -1.1882 -1.7027
   68SAPC   C35 5782   5.079   4.856   3.543 -0.1551 -0.1504 -0.5665
   68SAPC   H5X 5783   5.086   4.746   3.526  0.0295 -0.1181 -0.7094
   68SAPC   H5Y 5784   4.974   4.877   3.570  0.0900 -0.4001  0.6604
   68SAPC   C36 5785   5.163   4.909   3.662 -0.5806 -0.5370 -0.1678
   68SAPC   H6X 5786   5.147   5.019   3.667  0.3186 -0.4475  1.3938
   68SAPC   H6Y 5787   5.271   4.891   3.644 -0.2287  0.8969  0.3500
   68SAPC   C37 5788   5.121   4.849   3.800  0.5393 -0.5635  0.5078
   68SAPC   H7X 5789   5.157   4.744   3.793  0.0238 -0.6581 -1.1046
   68SAPC   H7Y 5790   5.011   4.856   3.803  0.4522 -0.5794 -1.2130
   68SAPC   C38 5791   5.187   4.917   3.921  0.1500 -0.4629  0.6454
   68SAPC   H8X 5792   5.169   4.850   4.008 -1.6762  0.1768  0.7922
   68SAPC   H8Y 5793   5.137   5.013   3.946 -0.7076 -0.6886 -0.1325
   68SAPC   C39 5794   5.335   4.938   3.905 -0.3467  0.5057 -0.2890
   68SAPC   H9X 5795   5.350   5.037   3.858  1.1765  1.7064  2.4682
   68SAPC   H9Y 5796   5.373   4.854   3.843 -1.2022 -0.1275  0.0248
   68SAPC  C310 5797   5.426   4.934   4.031  0.0867 -0.3690 -1.2625
   68SAPC  H10X 5798   5.526   4.897   3.998  0.3222 -0.0281 -0.9347
   68SAPC  H10Y 5799   5.391   4.861   4.107  0.5556 -0.9617 -1.6055
   68SAPC  C311 5800   5.432   5.080   4.086  0.0137  0.2949  0.4018
   68SAPC  H11X 5801   5.331   5.121   4.062  0.6940  2.1549  0.5406
   68SAPC  H11Y 5802   5.498   5.142   4.022 -2.5568  2.9216  0.0587
   68SAPC  C312 5803   5.489   5.072   4.230 -0.0981 -1.1981 -0.2446
   68SAPC  H12X 5804   5.586   5.017   4.233  1.4307  1.3633  0.0765
   68SAPC  H12Y 5805   5.414   5.020   4.293 -0.6830 -1.8795 -1.4778
   68SAPC  C313 5806   5.519   5.216   4.282 -0.8520  0.7148  0.4869
   68SAPC  H13X 5807   5.428   5.280   4.286 -0.8253  0.7625  0.3317
   68SAPC  H13Y 5808   5.593   5.261   4.212 -1.0924  0.1430 -0.1418
   68SAPC  C314 5809   5.571   5.222   4.425  0.2068  0.2075 -0.0717
   68SAPC  H14X 5810   5.672   5.178   4.437  0.3947  0.2833 -1.2792
   68SAPC  H14Y 5811   5.499   5.171   4.492  1.1999 -2.3752 -0.8127
   68SAPC  C315 5812   5.589   5.369   4.462  0.6864  0.1708  0.1935
   68SAPC  H15X 5813   5.492   5.422   4.456  0.5291 -0.0937  0.3817
   68SAPC  H15Y 5814   5.667   5.417   4.399 -0.9518  0.4919 -1.6623
   68SAPC  C316 5815   5.633   5.384   4.611  0.5712 -0.0182  0.8010
   68SAPC  H16X 5816   5.555   5.342   4.678 -0.8074 -1.4947 -1.5752
   68SAPC  H16Y 5817   5.647   5.492   4.633 -0.7318  0.4888 -0.6796
   68SAPC  C317 5818   5.773   5.327   4.647 -0.2575  1.3973 -0.3423
   68SAPC  H17X 5819   5.764   5.217   4.637  0.4447  1.4084 -1.1759
   68SAPC  H17Y 5820   5.810   5.354   4.749  0.1857 -0.8581  0.1343
   68SAPC  C318 5821   5.892   5.358   4.551  0.5222 -0.8367  0.8862
   68SAPC  H18X 5822   5.910   5.465   4.527  1.0612 -1.9873 -5.3982
   68SAPC  H18Y 5823   5.871   5.323   4.448  1.4814 -2.4496  1.2180
   68SAPC  H18Z 5824   5.984   5.316   4.596  1.6271 -0.8570 -1.3019
   69SAPC     N 5825   4.592   3.459   2.483 -0.3223 -0.0842  0.1715
   69SAPC   C12 5826   4.470   3.370   2.510  0.0017 -0.3707  0.4849
   69SAPC  H12A 5827   4.512   3.275   2.539  2.2612  0.1086 -0.9981
   69SAPC  H12B 5828   4.418   3.353   2.417 -0.8949  0.8990  0.7324
   69SAPC   C13 5829   4.644   3.417   2.351 -0.4711  0.4236 -0.6008
   69SAPC  H13A 5830   4.627   3.312   2.333  1.4999  0.0919 -0.7923
   69SAPC  H13B 5831   4.616   3.482   2.270 -1.4161  0.9862  0.1584
   69SAPC  H13C 5832   4.752   3.429   2.349 -0.5990  2.9662  1.6070
   69SAPC   C14 5833   4.548   3.596   2.466 -0.0397  0.7115  0.6595
   69SAPC  H14A 5834   4.498   3.624   2.557 -0.7366 -1.0518  0.8522
   69SAPC  H14B 5835   4.634   3.660   2.450  0.1869  0.1359 -0.5181
   69SAPC  H14C 5836   4.488   3.608   2.378  0.2902 -0.5170  0.2413
   69SAPC   C15 5837   4.685   3.445   2.596  0.3932  0.7663  0.0216
   69SAPC  H15A 5838   4.728   3.346   2.588 -2.7358 -0.6721 -0.4572
   69SAPC  H15B 5839   4.767   3.515   2.590 -0.4230  1.8759  1.1199
   69SAPC  H15C 5840   4.634   3.445   2.691 -2.1776  0.7953 -1.2641
   69SAPC   C11 5841   4.379   3.425   2.612  1.1103 -0.1597 -1.1049
   69SAPC  H11A 5842   4.306   3.499   2.572  1.2035  0.7982  0.4139
   69SAPC  H11B 5843   4.416   3.483   2.700 -0.2192 -2.0709  0.7975
   69SAPC     P 5844   4.328   3.204   2.747  0.1107 -0.2944  0.0859
   69SAPC   O13 5845   4.204   3.131   2.784  0.6027  0.0269  0.7193
   69SAPC   O14 5846   4.434   3.126   2.684  0.0908 -0.4210 -0.5261
   69SAPC   O12 5847   4.287   3.325   2.653 -0.3597  0.4883 -0.2292
   69SAPC   O11 5848   4.383   3.267   2.881  0.1952 -0.4868 -0.2758
   69SAPC    C1 5849   4.319   3.384   2.943 -0.9305 -0.0145 -0.0033
   69SAPC    HA 5850   4.333   3.479   2.887  1.5808 -0.7700 -0.7817
   69SAPC    HB 5851   4.210   3.368   2.955 -1.2059 -0.7255 -2.7785
   69SAPC    C2 5852   4.395   3.424   3.072  0.0441  0.4162 -0.6220
   69SAPC    HS 5853   4.503   3.398   3.061  0.1771  0.4476  0.4430
   69SAPC   O21 5854   4.340   3.344   3.175 -0.6202 -0.0326 -0.1989
   69SAPC   C21 5855   4.414   3.297   3.276  0.0253  0.3901  0.4520
   69SAPC   O22 5856   4.532   3.320   3.290 -0.5565 -0.9612  0.2360
   69SAPC   C22 5857   4.320   3.220   3.366 -0.6116 -0.4630 -0.1952
   69SAPC   H2R 5858   4.240   3.284   3.407 -0.0596  0.0422  0.1135
   69SAPC   H2S 5859   4.266   3.152   3.297 -0.0111  0.2049 -1.3632
   69SAPC    C3 5860   4.382   3.579   3.104  0.8837  0.1882  0.1598
   69SAPC    HX 5861   4.277   3.602   3.074 -0.2638 -1.5655  2.5136
   69SAPC    HY 5862   4.457   3.633   3.042  1.6731 -0.7543  0.2742
   69SAPC   O31 5863   4.396   3.614   3.242 -0.0039  0.3551  0.8956
   69SAPC   C31 5864   4.520   3.621   3.291 -0.2595  0.2136  0.0578
   69SAPC   O32 5865   4.620   3.587   3.236  0.4539  0.1729 -0.1299
   69SAPC   C32 5866   4.515   3.704   3.419 -0.4295  0.6287 -0.6466
   69SAPC   H2X 5867   4.411   3.739   3.436 -0.5870 -0.2020  0.2010
   69SAPC   H2Y 5868   4.576   3.796   3.407 -2.3412  2.2351  1.0900
   69SAPC   C23 5869   4.393   3.134   3.477 -0.2717 -0.5417  0.1515
   69SAPC   H3R 5870   4.416   3.205   3.559  3.1603 -1.0261 -0.2548
   69SAPC   H3S 5871   4.488   3.094   3.436 -0.4148 -1.3498  0.5857
   69SAPC   C24 5872   4.295   3.019   3.532  0.1187 -0.1867  0.1820
   69SAPC   H4R 5873   4.269   2.955   3.445  0.1478  1.0414 -0.7626
   69SAPC   H4S 5874   4.200   3.070   3.559  0.7267  0.6908  0.7556
   69SAPC   C25 5875   4.362   2.940   3.641  0.3411 -0.1327 -0.4532
   69SAPC   H5R 5876   4.447   2.877   3.611  0.9372  0.6330 -0.4051
   69SAPC   C26 5877   4.323   2.935   3.772 -0.6266  0.6936 -0.1203
   69SAPC   H6R 5878   4.390   2.879   3.840  1.1960  0.2470 -2.1717
   69SAPC   C27 5879   4.212   3.009   3.840 -0.4853  0.4788  0.0765
   69SAPC   H7R 5880   4.135   3.029   3.763  0.6545 -2.6700 -2.0599
   69SAPC   H7S 5881   4.251   3.108   3.873 -0.2370  0.4221 -0.0463
   69SAPC   C28 5882   4.139   2.947   3.960 -0.1295 -0.1099  0.4800
   69SAPC   H8R 5883   4.031   2.929   3.950 -0.1608 -0.3764  1.2719
   69SAPC   C29 5884   4.191   2.926   4.086  0.1081  0.2035  0.2719
   69SAPC   H9R 5885   4.127   2.894   4.169  2.1842 -0.5462  1.6664
   69SAPC  C210 5886   4.333   2.959   4.128 -0.1647 -0.4998 -0.5242
   69SAPC  H10R 5887   4.323   3.045   4.198  1.3023  0.7258 -1.7481
   69SAPC  H10S 5888   4.392   2.994   4.040  0.9079  1.3736  0.8585
   69SAPC  C211 5889   4.398   2.841   4.200  0.2950 -0.2300 -0.4285
   69SAPC  H11R 5890   4.450   2.776   4.128  0.2660  1.0241 -1.6532
   69SAPC  C212 5891   4.413   2.824   4.331 -0.1381 -0.3327 -0.1026
   69SAPC  H12R 5892   4.461   2.733   4.368  0.5440  0.5902  1.3825
   69SAPC  C213 5893   4.360   2.913   4.439 -0.1308 -0.0971  0.9943
   69SAPC  H13R 5894   4.265   2.866   4.474 -1.4171  0.0023 -2.0611
   69SAPC  H13S 5895   4.323   3.013   4.409  1.6735  0.0809 -0.8158
   69SAPC  C214 5896   4.465   2.931   4.547  0.0676  0.3774  0.3297
   69SAPC  H14R 5897   4.567   2.928   4.508 -0.5091  1.7085 -1.4144
   69SAPC  C215 5898   4.430   2.932   4.676 -0.4726  0.9822  0.1982
   69SAPC  H15R 5899   4.507   2.938   4.755 -0.1142 -0.1781 -0.0429
   69SAPC  C216 5900   4.293   2.935   4.726  0.7769 -0.1773  0.3002
   69SAPC  H16R 5901   4.288   2.899   4.831  1.9141  0.1288  0.4772
   69SAPC  H16S 5902   4.225   2.867   4.671 -0.2090  0.4744  0.6925
   69SAPC  C217 5903   4.229   3.072   4.720  0.6097 -0.6357  0.5800
   69SAPC  H17R 5904   4.122   3.062   4.750  0.4001  0.7659  0.3751
   69SAPC  H17S 5905   4.225   3.110   4.615  1.8253 -2.6411 -0.2511
   69SAPC  C218 5906   4.292   3.172   4.810  0.5791 -0.5658  0.4155
   69SAPC  H18R 5907   4.397   3.204   4.791  0.4814 -1.4414 -1.8757
   69SAPC  H18S 5908   4.307   3.130   4.911 -1.1838  1.5188  1.6376
   69SAPC  C219 5909   4.222   3.304   4.835  0.3173  0.3556  0.4121
   69SAPC  H19R 5910   4.128   3.283   4.889  1.8262 -2.5181  2.1509
   69SAPC  H19S 5911   4.210   3.355   4.737  1.1171  0.3047  0.2776
   69SAPC  C220 5912   4.306   3.396   4.919 -0.6201  0.4117  0.1938
   69SAPC  H20R 5913   4.411   3.397   4.882 -0.6669 -0.6742 -0.0139
   69SAPC  H20S 5914   4.310   3.365   5.026 -1.3601  0.3459  0.2105
   69SAPC  H20T 5915   4.282   3.504   4.913 -0.2353  0.5232  0.5782
   69SAPC   C33 5916   4.565   3.612   3.539  0.0648  0.7134 -0.0028
   69SAPC   H3X 5917   4.505   3.519   3.546  1.7484 -0.2974  1.8840
   69SAPC   H3Y 5918   4.555   3.659   3.639  0.7786  2.1191 -0.5547
   69SAPC   C34 5919   4.709   3.563   3.519 -0.0704  0.3547 -0.6941
   69SAPC   H4X 5920   4.791   3.634   3.497  0.5705 -0.3394 -0.6182
   69SAPC   H4Y 5921   4.715   3.476   3.450  3.3129 -2.3584  2.5269
   69SAPC   C35 5922   4.763   3.489   3.644 -0.3495  0.1119 -0.0446
   69SAPC   H5X 5923   4.760   3.564   3.726  0.5957  0.5389 -0.3868
   69SAPC   H5Y 5924   4.870   3.459   3.633  0.3984  3.0285 -2.0725
   69SAPC   C36 5925   4.687   3.352   3.681  0.6821 -0.2423 -0.1787
   69SAPC   H6X 5926   4.768   3.278   3.698  0.8627 -0.4695 -1.8540
   69SAPC   H6Y 5927   4.632   3.304   3.597 -0.8869 -0.8196  1.1251
   69SAPC   C37 5928   4.602   3.360   3.812  0.5074  0.7010 -0.3105
   69SAPC   H7X 5929   4.529   3.441   3.788  1.2675  0.9955 -1.7311
   69SAPC   H7Y 5930   4.660   3.403   3.897 -0.6754 -0.1539  0.9887
   69SAPC   C38 5931   4.537   3.227   3.852 -0.1963 -0.6741 -0.0139
   69SAPC   H8X 5932   4.494   3.174   3.765 -0.5595 -2.6746  1.3145
   69SAPC   H8Y 5933   4.450   3.256   3.914 -0.3924 -2.6697  0.7302
   69SAPC   C39 5934   4.614   3.137   3.939 -0.7893 -0.0464 -0.4712
   69SAPC   H9X 5935   4.718   3.112   3.909 -0.2305 -0.3128  1.5821
   69SAPC   H9Y 5936   4.568   3.036   3.944 -0.9306  0.0362 -0.1320
   69SAPC  C310 5937   4.638   3.185   4.082  0.0495  0.2670  0.6491
   69SAPC  H10X 5938   4.538   3.214   4.120 -0.4325 -1.4837  0.8392
   69SAPC  H10Y 5939   4.695   3.280   4.087  2.2460 -0.9811  0.3964
   69SAPC  C311 5940   4.696   3.073   4.172  0.2357 -0.3763  0.0002
   69SAPC  H11X 5941   4.797   3.052   4.132  0.0054 -0.3791 -0.5810
   69SAPC  H11Y 5942   4.632   2.983   4.173 -0.0939 -0.1462 -0.1743
   69SAPC  C312 5943   4.724   3.114   4.322 -0.0243 -0.1785  0.1776
   69SAPC  H12X 5944   4.638   3.125   4.391 -0.0704 -0.6111  0.1962
   69SAPC  H12Y 5945   4.780   3.210   4.315 -2.0054  0.8973 -3.7444
   69SAPC  C313 5946   4.821   3.017   4.391  0.0005 -0.0873  0.1632
   69SAPC  H13X 5947   4.912   3.022   4.327  1.5423  2.4051  2.3565
   69SAPC  H13Y 5948   4.780   2.915   4.375  0.0826 -0.1789  0.5294
   69SAPC  C314 5949   4.845   3.032   4.540 -0.3608 -0.2097 -0.1355
   69SAPC  H14X 5950   4.747   3.035   4.592 -0.7994  1.1645 -0.9843
   69SAPC  H14Y 5951   4.895   3.129   4.556 -2.3675  1.0485 -1.0732
   69SAPC  C315 5952   4.929   2.925   4.615 -0.1075  0.3635  0.3716
   69SAPC  H15X 5953   4.873   2.829   4.626  1.8752 -0.9176 -0.1391
   69SAPC  H15Y 5954   4.949   2.947   4.722 -1.8678  2.8964  0.2561
   69SAPC  C316 5955   5.063   2.898   4.549  0.5086  0.0201 -0.0548
   69SAPC  H16X 5956   5.099   2.999   4.518  0.1639  1.1785  2.9502
   69SAPC  H16Y 5957   5.044   2.825   4.468 -0.1122  0.8112 -0.6269
   69SAPC  C317 5958   5.170   2.831   4.642  0.4060  0.1969 -0.5621
   69SAPC  H17X 5959   5.192   2.910   4.718  2.1982  0.4188 -1.2585
   69SAPC  H17Y 5960   5.258   2.821   4.575  0.1489  0.7563 -0.9972
   69SAPC  C318 5961   5.137   2.696   4.703  0.4848 -0.6411  0.0660
   69SAPC  H18X 5962   5.229   2.646   4.742  0.4009 -1.7886 -1.1504
   69SAPC  H18Y 5963   5.078   2.637   4.631 -1.3347  2.2185 -0.9151
   69SAPC  H18Z 5964   5.076   2.715   4.794  0.6103  1.4379 -0.2263
   70SAPC     N 5965   0.278   1.500   2.605 -0.0994 -0.8669 -0.5191
   70SAPC   C12 5966   0.326   1.440   2.728 -0.3432  0.7677 -0.5535
   70SAPC  H12A 5967   0.402   1.497   2.779 -0.5852 -1.0303  2.0044
   70SAPC  H12B 5968   0.381   1.351   2.699  1.1828  1.6106 -0.3456
   70SAPC   C13 5969   0.406   1.514   2.518  0.4879  0.1308 -0.5020
   70SAPC  H13A 5970   0.488   1.564   2.568  0.6165 -0.1078 -0.4742
   70SAPC  H13B 5971   0.440   1.413   2.502 -0.1664 -0.1246 -0.2676
   70SAPC  H13C 5972   0.384   1.557   2.421  0.4908 -0.4134 -0.7440
   70SAPC   C14 5973   0.175   1.425   2.527 -0.1454 -0.4848 -0.2560
   70SAPC  H14A 5974   0.132   1.493   2.455  1.7090  1.1138  0.0390
   70SAPC  H14B 5975   0.209   1.340   2.470 -0.4059 -0.4084 -0.5289
   70SAPC  H14C 5976   0.100   1.395   2.598 -0.8783  1.0707 -0.3225
   70SAPC   C15 5977   0.215   1.636   2.632 -0.2037  0.1341 -0.4255
   70SAPC  H15A 5978   0.271   1.705   2.694 -1.1148  0.1573  0.3847
   70SAPC  H15B 5979   0.173   1.687   2.546 -1.2690  0.1893  0.1141
   70SAPC  H15C 5980   0.130   1.609   2.692  1.0942  0.3604  1.5924
   70SAPC   C11 5981   0.223   1.399   2.838 -1.0585 -0.0567  0.5766
   70SAPC  H11A 5982   0.288   1.346   2.911  1.1600  1.9538  0.2055
   70SAPC  H11B 5983   0.169   1.318   2.784  1.9055 -0.4742 -2.0814
   70SAPC     P 5984   0.002   1.512   2.911 -0.0030 -0.2369  0.0357
   70SAPC   O13 5985  -0.045   1.643   2.956  0.0397 -0.0750 -0.6871
   70SAPC   O14 5986  -0.056   1.463   2.787 -0.2838  0.0524 -0.5695
   70SAPC   O12 5987   0.161   1.516   2.901  0.4295  0.0520  0.4203
   70SAPC   O11 5988  -0.031   1.413   3.024  0.1137  0.7733 -0.4350
   70SAPC    C1 5989   0.023   1.444   3.157 -0.1051  0.2280 -0.3271
   70SAPC    HA 5990   0.067   1.545   3.170  0.6218 -0.2355  1.0220
   70SAPC    HB 5991  -0.062   1.425   3.226 -1.2609 -2.2970 -2.2361
   70SAPC    C2 5992   0.158   1.361   3.205 -0.2375 -0.3850  0.3675
   70SAPC    HS 5993   0.229   1.369   3.120 -0.0255  3.1072  0.7290
   70SAPC   O21 5994   0.123   1.228   3.244  0.0803 -0.1923  0.4105
   70SAPC   C21 5995   0.217   1.139   3.251 -0.2969 -0.1902 -0.1082
   70SAPC   O22 5996   0.335   1.147   3.215  0.6773  0.0603 -0.0151
   70SAPC   C22 5997   0.154   1.004   3.301 -0.8955  0.7023  0.1315
   70SAPC   H2R 5998   0.070   0.983   3.232 -0.0402 -0.6312 -0.5413
   70SAPC   H2S 5999   0.233   0.926   3.293 -1.4950  0.0386  0.5426
   70SAPC    C3 6000   0.235   1.428   3.328 -0.5389 -0.2321 -0.6667
   70SAPC    HX 6001   0.316   1.358   3.358 -0.1936 -0.3768 -1.9003
   70SAPC    HY 6002   0.160   1.434   3.409 -0.3759 -0.4424 -0.4965
   70SAPC   O31 6003   0.284   1.557   3.298  0.1394 -0.3954 -0.4146
   70SAPC   C31 6004   0.333   1.630   3.397  0.2071  0.0220  0.0164
   70SAPC   O32 6005   0.323   1.602   3.515 -0.4605  0.2605 -0.0433
   70SAPC   C32 6006   0.400   1.754   3.334  0.0044  0.0403  0.0270
   70SAPC   H2X 6007   0.340   1.786   3.247  1.0842  2.1737  0.0152
   70SAPC   H2Y 6008   0.503   1.714   3.318 -0.8099 -1.4552 -1.8768
   70SAPC   C23 6009   0.118   0.995   3.451  0.1280  0.4073  0.0637
   70SAPC   H3R 6010   0.034   0.923   3.460 -0.6539  1.3348  0.3518
   70SAPC   H3S 6011   0.068   1.087   3.487 -3.3262 -0.5121 -1.9551
   70SAPC   C24 6012   0.238   0.960   3.539  1.3868  0.1560  0.1650
   70SAPC   H4R 6013   0.327   1.018   3.506  0.4329  1.2363 -0.6067
   70SAPC   H4S 6014   0.265   0.853   3.522  0.5320  0.0899 -0.9087
   70SAPC   C25 6015   0.203   0.967   3.685 -0.7531 -0.2901 -0.3050
   70SAPC   H5R 6016   0.114   0.910   3.717 -1.6793  0.1354 -1.9619
   70SAPC   C26 6017   0.257   1.047   3.773  0.4353 -0.1322  0.2098
   70SAPC   H6R 6018   0.220   1.027   3.874  0.2739  1.8293  0.5799
   70SAPC   C27 6019   0.374   1.142   3.764  0.5572 -0.0286 -0.2180
   70SAPC   H7R 6020   0.447   1.123   3.683  1.5071 -1.2046  0.8781
   70SAPC   H7S 6021   0.436   1.123   3.854  1.5679 -2.3533 -1.3283
   70SAPC   C28 6022   0.325   1.283   3.753  0.2584 -0.3825 -0.4520
   70SAPC   H8R 6023   0.227   1.290   3.703  1.2009 -1.4744 -2.6364
   70SAPC   C29 6024   0.402   1.392   3.768  0.2698 -0.2952 -0.2202
   70SAPC   H9R 6025   0.348   1.488   3.762  0.0421 -0.4685 -1.0547
   70SAPC  C210 6026   0.537   1.391   3.833  0.2554 -0.3232 -0.7045
   70SAPC  H10R 6027   0.594   1.473   3.784 -0.1801  0.1425 -0.4529
   70SAPC  H10S 6028   0.591   1.298   3.805 -1.3529 -1.7475  0.6691
   70SAPC  C211 6029   0.530   1.406   3.987  0.1330  0.3181 -0.4181
   70SAPC  H11R 6030   0.522   1.312   4.044  0.3642  2.0761  2.7482
   70SAPC  C212 6031   0.522   1.525   4.055 -0.4931 -0.9480 -0.2134
   70SAPC  H12R 6032   0.527   1.523   4.165  0.0051 -1.5642 -0.2446
   70SAPC  C213 6033   0.533   1.664   3.987  1.1732 -0.1914  0.2162
   70SAPC  H13R 6034   0.441   1.711   4.027  0.5080 -0.4687 -0.9376
   70SAPC  H13S 6035   0.514   1.652   3.879  1.4671  1.1160 -0.0066
   70SAPC  C214 6036   0.647   1.760   4.028  0.4213  0.5737  0.0567
   70SAPC  H14R 6037   0.709   1.793   3.943  0.1725  2.0959  0.4377
   70SAPC  C215 6038   0.669   1.810   4.144 -0.2524 -0.9621 -0.8503
   70SAPC  H15R 6039   0.754   1.879   4.154 -0.2093 -0.7751 -2.3361
   70SAPC  C216 6040   0.581   1.793   4.274  0.1585 -0.7190  0.2848
   70SAPC  H16R 6041   0.482   1.749   4.250 -0.6572 -0.1434  2.4032
   70SAPC  H16S 6042   0.550   1.890   4.316 -2.3504 -2.2080  2.1494
   70SAPC  C217 6043   0.649   1.712   4.382 -0.2577 -0.7636  0.4271
   70SAPC  H17R 6044   0.739   1.772   4.410 -1.1633  0.2498  1.3034
   70SAPC  H17S 6045   0.687   1.618   4.338  0.7264 -1.0205  1.7461
   70SAPC  C218 6046   0.560   1.690   4.499 -0.3907 -0.1195 -0.0102
   70SAPC  H18R 6047   0.515   1.779   4.548 -0.4558 -1.1945  1.9958
   70SAPC  H18S 6048   0.614   1.631   4.577  1.0016 -0.1766 -0.9830
   70SAPC  C219 6049   0.427   1.609   4.460 -0.8273  0.3772 -0.5480
   70SAPC  H19R 6050   0.470   1.535   4.390  2.5862  3.2994 -1.8564
   70SAPC  H19S 6051   0.359   1.671   4.399  0.3102  0.8246 -1.3831
   70SAPC  C220 6052   0.362   1.559   4.592  0.0531  0.5268 -0.1308
   70SAPC  H20R 6053   0.287   1.485   4.558  0.8407 -0.5287  0.3806
   70SAPC  H20S 6054   0.302   1.638   4.643 -0.3860  1.1329 -1.5221
   70SAPC  H20T 6055   0.430   1.512   4.666 -2.3001 -1.6072  0.8107
   70SAPC   C33 6056   0.407   1.885   3.423 -0.0396 -0.4184  0.1419
   70SAPC   H3X 6057   0.307   1.909   3.465  0.1373  0.1894  0.2236
   70SAPC   H3Y 6058   0.437   1.963   3.350  1.9593 -2.9528 -1.9604
   70SAPC   C34 6059   0.511   1.873   3.532 -0.2001 -0.1158 -0.2122
   70SAPC   H4X 6060   0.608   1.853   3.482 -0.7183  0.6775 -1.6107
   70SAPC   H4Y 6061   0.491   1.782   3.591 -1.9900 -0.5022 -1.3237
   70SAPC   C35 6062   0.526   1.998   3.623  0.1283 -0.5626  0.6088
   70SAPC   H5X 6063   0.432   2.004   3.683  0.0394  1.5018  0.3538
   70SAPC   H5Y 6064   0.528   2.085   3.553  1.2729 -0.9856  0.1000
   70SAPC   C36 6065   0.651   2.019   3.713 -0.0125 -0.0423  0.3227
   70SAPC   H6X 6066   0.737   2.028   3.643  0.7473 -3.1396  0.7064
   70SAPC   H6Y 6067   0.676   1.926   3.769 -1.2424  0.3281  1.5284
   70SAPC   C37 6068   0.644   2.141   3.799  0.1540  0.2927 -0.1609
   70SAPC   H7X 6069   0.691   2.226   3.745 -1.5378  1.9471  0.8439
   70SAPC   H7Y 6070   0.542   2.176   3.824  0.5457  0.1751  1.7719
   70SAPC   C38 6071   0.706   2.118   3.938 -0.5040  0.7097  0.0158
   70SAPC   H8X 6072   0.804   2.066   3.924 -0.2473  1.4915 -1.3232
   70SAPC   H8Y 6073   0.628   2.053   3.982 -1.0606  0.1403 -1.7184
   70SAPC   C39 6074   0.732   2.250   4.011 -0.3645 -0.9655 -0.2910
   70SAPC   H9X 6075   0.627   2.286   4.010 -0.4222 -1.0294  1.5622
   70SAPC   H9Y 6076   0.793   2.322   3.953  0.4566  0.3242  2.0535
   70SAPC  C310 6077   0.787   2.215   4.151 -0.0380 -0.1680  0.7056
   70SAPC  H10X 6078   0.887   2.169   4.134 -0.3059 -0.6643  0.4737
   70SAPC  H10Y 6079   0.724   2.139   4.200 -1.3586  0.9869  0.8573
   70SAPC  C311 6080   0.803   2.340   4.246 -0.0232 -0.0162  0.2544
   70SAPC  H11X 6081   0.706   2.365   4.295 -0.1188 -0.9721  0.5691
   70SAPC  H11Y 6082   0.834   2.433   4.194 -1.2785  0.2989  0.0260
   70SAPC  C312 6083   0.900   2.305   4.363  0.4180  0.4347  0.2561
   70SAPC  H12X 6084   0.994   2.274   4.313  0.4464 -0.0696  0.6214
   70SAPC  H12Y 6085   0.857   2.217   4.416 -0.7967 -0.2806 -1.7963
   70SAPC  C313 6086   0.930   2.408   4.468 -0.0341 -0.0716  0.9290
   70SAPC  H13X 6087   0.836   2.434   4.522 -0.1243  2.4034 -0.2880
   70SAPC  H13Y 6088   0.962   2.509   4.432 -3.3033  1.0821  0.9424
   70SAPC  C314 6089   1.045   2.363   4.563  0.0111  0.0530 -0.5110
   70SAPC  H14X 6090   1.131   2.322   4.506 -0.7403  0.3090 -1.8751
   70SAPC  H14Y 6091   1.011   2.281   4.631  1.2929 -0.8290 -0.9038
   70SAPC  C315 6092   1.090   2.486   4.650  0.3213 -0.1184  0.0465
   70SAPC  H15X 6093   1.132   2.567   4.587  0.3020 -0.3896 -0.3268
   70SAPC  H15Y 6094   1.165   2.449   4.723  1.1466  0.3166 -0.5687
   70SAPC  C316 6095   0.974   2.547   4.728 -0.3948 -0.0667  0.4312
   70SAPC  H16X 6096   0.921   2.473   4.793 -1.4886 -0.1046 -0.4744
   70SAPC  H16Y 6097   0.899   2.593   4.660  0.9307  0.2855 -0.8160
   70SAPC  C317 6098   1.024   2.652   4.819 -0.0834 -0.7005 -0.1894
   70SAPC  H17X 6099   1.074   2.738   4.769 -2.3834  0.8183  0.0041
   70SAPC  H17Y 6100   1.080   2.615   4.908 -1.0054  1.7139  1.5120
   70SAPC  C318 6101   0.905   2.727   4.902  0.1811  0.7391  0.8612
   70SAPC  H18X 6102   0.868   2.650   4.973  0.4630  2.5293  3.0340
   70SAPC  H18Y 6103   0.825   2.755   4.831  0.9610  1.0924  0.1027
   70SAPC  H18Z 6104   0.941   2.814   4.960  1.3886  1.0182 -0.2544
   71SAPC     N 6105   6.053   1.872   2.861 -0.6193 -0.4669 -0.4954
   71SAPC   C12 6106   6.168   1.792   2.917  0.7494 -0.7013 -0.2452
   71SAPC  H12A 6107   6.173   1.812   3.023 -2.0501 -0.5545 -0.0741
   71SAPC  H12B 6108   6.254   1.835   2.867 -1.4967  2.7666 -1.4607
   71SAPC   C13 6109   6.079   2.019   2.886 -0.3257  0.1816 -0.5424
   71SAPC  H13A 6110   6.105   2.038   2.989  0.5037 -0.2785 -0.6633
   71SAPC  H13B 6111   6.155   2.066   2.825  0.7625  0.2604  0.8296
   71SAPC  H13C 6112   5.988   2.073   2.865 -0.6362  0.3445  1.0841
   71SAPC   C14 6113   6.049   1.837   2.719  0.1472  0.1855 -0.1569
   71SAPC  H14A 6114   6.143   1.833   2.665  0.2721 -3.0728  0.0887
   71SAPC  H14B 6115   6.008   1.738   2.721 -3.4329  1.5199  1.6010
   71SAPC  H14C 6116   5.976   1.881   2.653 -0.3547 -1.6825 -0.9027
   71SAPC   C15 6117   5.929   1.823   2.930  0.4226  0.1732  0.4281
   71SAPC  H15A 6118   5.911   1.721   2.898 -0.7880 -0.1108  1.8956
   71SAPC  H15B 6119   5.937   1.808   3.036 -2.3557  2.3805  1.0744
   71SAPC  H15C 6120   5.845   1.886   2.904  0.1701 -0.7755 -1.2472
   71SAPC   C11 6121   6.166   1.639   2.890  0.2473  0.1812 -0.3552
   71SAPC  H11A 6122   6.068   1.591   2.914  0.0712  1.0125  0.6760
   71SAPC  H11B 6123   6.231   1.597   2.970 -1.4049 -2.4524 -0.2903
   71SAPC     P 6124   6.361   1.586   2.730  0.1245 -0.1772 -0.0287
   71SAPC   O13 6125   6.378   1.547   2.590  0.3809  0.4042 -0.8439
   71SAPC   O14 6126   6.429   1.714   2.773  0.0218 -0.3623  0.5445
   71SAPC   O12 6127   6.206   1.606   2.755 -0.1851  0.2948 -0.1273
   71SAPC   O11 6128   6.401   1.469   2.835  0.7437 -0.0413  0.1973
   71SAPC    C1 6129   6.314   1.354   2.857  0.1526 -0.4492  0.6603
   71SAPC    HA 6130   6.207   1.382   2.854 -0.0168 -0.8999  2.0183
   71SAPC    HB 6131   6.321   1.284   2.771 -2.8116 -0.5243  0.3882
   71SAPC    C2 6132   6.344   1.291   2.994 -0.2602  0.1304  0.1275
   71SAPC    HS 6133   6.301   1.188   2.991 -0.0235  0.0531 -0.7505
   71SAPC   O21 6134   6.285   1.381   3.088 -0.0777 -0.5476  0.0785
   71SAPC   C21 6135   6.173   1.325   3.132  0.8047 -0.2026  0.3972
   71SAPC   O22 6136   6.126   1.214   3.103 -0.0264 -0.5739  1.0138
   71SAPC   C22 6137   6.107   1.427   3.226 -0.2897 -0.7228  0.2796
   71SAPC   H2R 6138   6.193   1.488   3.260  0.2089 -1.2091 -0.0886
   71SAPC   H2S 6139   6.031   1.490   3.174 -1.7576 -0.9592  2.0433
   71SAPC    C3 6140   6.498   1.266   3.020  0.7000  0.2169  0.7649
   71SAPC    HX 6141   6.551   1.350   2.971  1.6994 -0.3331  0.8834
   71SAPC    HY 6142   6.521   1.170   2.970  1.1778  1.2811 -1.1296
   71SAPC   O31 6143   6.535   1.260   3.164  0.1371  0.6560  0.3923
   71SAPC   C31 6144   6.529   1.136   3.214 -0.6524  0.0130  0.7262
   71SAPC   O32 6145   6.494   1.035   3.156 -0.4557 -0.1895  0.1551
   71SAPC   C32 6146   6.589   1.136   3.347 -0.6109  0.3835  0.0662
   71SAPC   H2X 6147   6.619   1.237   3.383 -1.8384  0.4325  1.0262
   71SAPC   H2Y 6148   6.682   1.075   3.350 -1.9182 -1.6907  0.9087
   71SAPC   C23 6149   6.015   1.352   3.338 -0.2631 -0.0240  0.5870
   71SAPC   H3R 6150   5.939   1.293   3.281  0.9982 -1.8364  0.6894
   71SAPC   H3S 6151   5.970   1.435   3.395 -0.4987  0.5140 -0.3512
   71SAPC   C24 6152   6.093   1.257   3.430  0.5189 -0.0071  0.2670
   71SAPC   H4R 6153   6.172   1.306   3.491  0.2555 -2.3759  2.7376
   71SAPC   H4S 6154   6.140   1.180   3.365 -2.2979 -0.7056 -1.0901
   71SAPC   C25 6155   6.000   1.176   3.519 -0.4937 -0.8241  0.1561
   71SAPC   H5R 6156   5.927   1.114   3.465 -2.2392  0.0527  1.4064
   71SAPC   C26 6157   5.999   1.180   3.657 -0.0202 -0.4632  0.9977
   71SAPC   H6R 6158   5.915   1.127   3.704 -0.8146 -1.5198 -1.4520
   71SAPC   C27 6159   6.086   1.257   3.754  0.4512  0.0209 -0.0282
   71SAPC   H7R 6160   6.097   1.360   3.714 -0.9154 -0.0305 -0.5857
   71SAPC   H7S 6161   6.192   1.226   3.764  0.6081  0.2481 -0.9112
   71SAPC   C28 6162   6.017   1.259   3.889 -0.0871  0.5008  0.6087
   71SAPC   H8R 6163   5.929   1.325   3.895  1.0351  2.0564  0.8478
   71SAPC   C29 6164   6.054   1.180   3.994  0.2488 -0.2127 -0.2714
   71SAPC   H9R 6165   5.989   1.183   4.082  0.7349  0.7146  0.0797
   71SAPC  C210 6166   6.176   1.093   4.008 -0.1256  0.2056  0.2693
   71SAPC  H10R 6167   6.229   1.081   3.911 -0.4101 -2.8164  0.3926
   71SAPC  H10S 6168   6.147   0.989   4.035 -0.8232  0.1475 -0.6691
   71SAPC  C211 6169   6.275   1.143   4.118 -0.4701  0.0308 -0.2047
   71SAPC  H11R 6170   6.337   1.230   4.092  0.5680 -0.8459 -0.7626
   71SAPC  C212 6171   6.272   1.100   4.247  0.5060 -0.7233  0.0464
   71SAPC  H12R 6172   6.343   1.145   4.318  2.0322  1.4930 -2.6770
   71SAPC  C213 6173   6.190   0.991   4.310 -0.4250 -0.0688  0.3894
   71SAPC  H13R 6174   6.106   0.968   4.241 -1.0881  1.3162  0.7013
   71SAPC  H13S 6175   6.144   1.030   4.403  0.3967  0.9010  0.4051
   71SAPC  C214 6176   6.261   0.860   4.340  0.4246  0.3024 -0.4869
   71SAPC  H14R 6177   6.341   0.827   4.271  1.1314 -2.0510  1.3164
   71SAPC  C215 6178   6.259   0.792   4.453 -0.3775 -0.6806  0.1975
   71SAPC  H15R 6179   6.317   0.699   4.462 -0.9763 -0.9867  0.9439
   71SAPC  C216 6180   6.166   0.821   4.569  0.0482  0.1869  0.2951
   71SAPC  H16R 6181   6.107   0.728   4.582  0.5032 -0.3538 -1.3697
   71SAPC  H16S 6182   6.093   0.901   4.543 -0.7142 -1.2054 -2.0641
   71SAPC  C217 6183   6.235   0.847   4.707 -0.2066 -0.4444 -0.3562
   71SAPC  H17R 6184   6.342   0.876   4.697 -0.7817  2.0427  0.2357
   71SAPC  H17S 6185   6.250   0.745   4.749 -0.5178 -0.0789  0.6575
   71SAPC  C218 6186   6.152   0.928   4.804  0.0025  0.2137 -0.6742
   71SAPC  H18R 6187   6.052   0.880   4.811  0.6541 -1.0576  0.3640
   71SAPC  H18S 6188   6.153   1.035   4.774  3.7299  0.7220  0.7077
   71SAPC  C219 6189   6.208   0.920   4.951  0.0359 -0.2563 -0.1935
   71SAPC  H19R 6190   6.312   0.959   4.943  0.7738 -1.8967  0.8481
   71SAPC  H19S 6191   6.215   0.817   4.992 -2.7970  0.9152  3.8070
   71SAPC  C220 6192   6.130   1.012   5.041  0.7745 -0.6015  0.3552
   71SAPC  H20R 6193   6.164   0.995   5.146 -0.7088  0.6213  1.0717
   71SAPC  H20S 6194   6.020   0.991   5.037  0.2857  1.7435  0.1317
   71SAPC  H20T 6195   6.142   1.120   5.019 -0.1544 -0.0149  2.4664
   71SAPC   C33 6196   6.494   1.081   3.449 -0.5184 -0.5977  0.3133
   71SAPC   H3X 6197   6.449   0.989   3.406  0.5258 -0.2892 -1.5109
   71SAPC   H3Y 6198   6.414   1.157   3.464 -0.8921 -1.4934  3.7642
   71SAPC   C34 6199   6.551   1.035   3.586  0.4409 -0.3126  0.5881
   71SAPC   H4X 6200   6.614   0.945   3.572 -0.5710 -1.7517  4.0970
   71SAPC   H4Y 6201   6.475   0.985   3.651 -0.8491 -0.6161 -1.1039
   71SAPC   C35 6202   6.614   1.142   3.672  0.0798 -0.1505  0.0062
   71SAPC   H5X 6203   6.536   1.220   3.685  2.2558  2.2890 -0.7928
   71SAPC   H5Y 6204   6.688   1.193   3.606  0.1697 -2.3010 -1.6627
   71SAPC   C36 6205   6.676   1.075   3.800 -0.1762  0.2611 -0.0803
   71SAPC   H6X 6206   6.751   0.998   3.769 -1.5676  0.1211 -3.6319
   71SAPC   H6Y 6207   6.594   1.017   3.847  3.0988 -4.5166  0.5068
   71SAPC   C37 6208   6.734   1.171   3.898 -0.2752 -0.9020 -0.3065
   71SAPC   H7X 6209   6.672   1.261   3.917  1.6954 -0.0390  2.7478
   71SAPC   H7Y 6210   6.819   1.214   3.842 -0.8927 -0.6129 -1.0310
   71SAPC   C38 6211   6.779   1.116   4.029  0.3602  0.7682 -0.3949
   71SAPC   H8X 6212   6.855   1.189   4.066 -0.0087  1.3172 -0.7098
   71SAPC   H8Y 6213   6.834   1.019   4.023  2.5482  1.9360 -0.2910
   71SAPC   C39 6214   6.662   1.100   4.129 -0.2138 -0.4041 -0.3816
   71SAPC   H9X 6215   6.595   1.019   4.095  0.2205 -0.1913 -1.8044
   71SAPC   H9Y 6216   6.604   1.195   4.135 -1.2928 -1.0988  0.5763
   71SAPC  C310 6217   6.717   1.068   4.264 -0.0507  0.2345 -0.0115
   71SAPC  H10X 6218   6.745   1.163   4.315  1.4269  0.6444 -1.5054
   71SAPC  H10Y 6219   6.795   0.991   4.244  0.7499  0.7295  1.0977
   71SAPC  C311 6220   6.614   0.993   4.357 -0.1231 -0.5802 -0.7956
   71SAPC  H11X 6221   6.566   0.901   4.318  0.6505 -1.8713  1.1234
   71SAPC  H11Y 6222   6.531   1.064   4.378  0.8551  0.5405 -0.5736
   71SAPC  C312 6223   6.669   0.960   4.493 -0.2875  0.5079  0.2635
   71SAPC  H12X 6224   6.745   0.881   4.477 -0.4368  0.2120  0.9511
   71SAPC  H12Y 6225   6.590   0.905   4.548 -0.2509 -0.0093 -0.1913
   71SAPC  C313 6226   6.721   1.068   4.588 -0.3114  0.4141 -0.1765
   71SAPC  H13X 6227   6.639   1.139   4.612 -1.3828 -0.2285 -1.8054
   71SAPC  H13Y 6228   6.808   1.106   4.531 -0.8362 -1.4543 -2.3380
   71SAPC  C314 6229   6.778   1.004   4.718 -0.7950  0.4966  0.5103
   71SAPC  H14X 6230   6.827   0.912   4.680  0.5618  1.8731 -1.2144
   71SAPC  H14Y 6231   6.700   0.971   4.790  0.1108 -1.1279  0.8011
   71SAPC  C315 6232   6.877   1.099   4.781 -0.3522 -0.7632 -0.6345
   71SAPC  H15X 6233   6.816   1.191   4.785 -0.9710 -1.2201  1.1546
   71SAPC  H15Y 6234   6.963   1.112   4.711 -0.7153 -2.1004 -1.3715
   71SAPC  C316 6235   6.914   1.073   4.931 -0.5324  0.3120 -0.8642
   71SAPC  H16X 6236   6.962   0.973   4.924 -3.4858 -1.4348  1.5673
   71SAPC  H16Y 6237   6.825   1.070   4.997  1.2633 -1.5429  1.6648
   71SAPC  C317 6238   7.009   1.181   4.990 -0.5156  0.1575  1.3096
   71SAPC  H17X 6239   7.021   1.173   5.100  1.2845 -0.0914  1.1220
   71SAPC  H17Y 6240   6.958   1.279   4.975 -1.0901 -0.2946  0.1807
   71SAPC  C318 6241   7.145   1.183   4.924 -0.7341  0.1758 -0.1144
   71SAPC  H18X 6242   7.205   1.093   4.950 -0.6299  0.1601 -0.4004
   71SAPC  H18Y 6243   7.208   1.270   4.953  1.1659 -0.6036 -1.6449
   71SAPC  H18Z 6244   7.140   1.187   4.813  0.3841 -1.3526 -0.2588
   72SAPC     N 6245   6.309   0.286   2.263 -0.1673 -0.1341  0.0183
   72SAPC   C12 6246   6.427   0.324   2.352  0.5871 -0.4916 -0.4913
   72SAPC  H12A 6247   6.416   0.427   2.382  3.7791  0.0312 -0.7891
   72SAPC  H12B 6248   6.517   0.314   2.294  0.0168 -1.0388 -1.3119
   72SAPC   C13 6249   6.182   0.309   2.343 -0.3720  0.4515  0.1885
   72SAPC  H13A 6250   6.183   0.276   2.446 -0.5300  0.7947  0.3013
   72SAPC  H13B 6251   6.151   0.412   2.340 -0.3363  0.5846  2.3729
   72SAPC  H13C 6252   6.105   0.246   2.300  1.4411 -2.7632  1.2361
   72SAPC   C14 6253   6.303   0.370   2.141 -0.3139 -0.0317 -0.3274
   72SAPC  H14A 6254   6.224   0.349   2.070  1.7495  0.1751 -2.8650
   72SAPC  H14B 6255   6.299   0.472   2.175  3.0500 -0.7069  2.7462
   72SAPC  H14C 6256   6.393   0.360   2.081 -0.7593 -3.4364 -0.6478
   72SAPC   C15 6257   6.320   0.143   2.227 -0.0705  0.3093  0.0758
   72SAPC  H15A 6258   6.405   0.121   2.163 -1.3070  1.6652 -2.1306
   72SAPC  H15B 6259   6.328   0.093   2.322  1.4527 -1.9893 -1.1610
   72SAPC  H15C 6260   6.231   0.109   2.176 -0.4281  1.4777 -0.1013
   72SAPC   C11 6261   6.450   0.248   2.484 -0.1732 -0.0940 -0.6416
   72SAPC  H11A 6262   6.356   0.253   2.544 -1.1845 -0.3287 -2.1403
   72SAPC  H11B 6263   6.527   0.307   2.538  0.2252 -0.0485 -1.2562
   72SAPC     P 6264   6.639   0.090   2.408 -0.4360 -0.2600 -0.0230
   72SAPC   O13 6265   6.645  -0.054   2.361 -0.6155 -0.0806  0.1177
   72SAPC   O14 6266   6.674   0.188   2.309 -0.9474 -0.2108  0.1186
   72SAPC   O12 6267   6.492   0.117   2.471 -0.4380 -0.0849  0.4486
   72SAPC   O11 6268   6.722   0.103   2.540 -0.6880  0.3907  0.0419
   72SAPC    C1 6269   6.673   0.034   2.659  0.0260  0.0283  0.3299
   72SAPC    HA 6270   6.593  -0.041   2.643 -1.9128  1.4625  2.5206
   72SAPC    HB 6271   6.765  -0.004   2.707 -0.5836 -0.1462  1.3970
   72SAPC    C2 6272   6.619   0.128   2.772 -0.5752  0.4004  0.0245
   72SAPC    HS 6273   6.526   0.171   2.730 -0.4235  0.3842 -0.3341
   72SAPC   O21 6274   6.720   0.227   2.802  0.2105 -0.0744  0.4643
   72SAPC   C21 6275   6.676   0.350   2.804  0.3199  0.2821  0.4551
   72SAPC   O22 6276   6.567   0.394   2.780 -0.0341 -0.2140  0.4752
   72SAPC   C22 6277   6.798   0.435   2.829 -0.1613  0.1963 -0.3158
   72SAPC   H2R 6278   6.871   0.386   2.896  0.4457 -0.8006 -1.6702
   72SAPC   H2S 6279   6.844   0.456   2.730 -0.5995 -2.5025 -1.1728
   72SAPC    C3 6280   6.580   0.046   2.894 -0.0229 -0.1096  0.3101
   72SAPC    HX 6281   6.658  -0.024   2.930 -1.4070 -1.7851  0.1968
   72SAPC    HY 6282   6.502  -0.025   2.858 -0.2877  1.1670 -1.8371
   72SAPC   O31 6283   6.532   0.133   3.002  0.0947 -0.5661  0.1351
   72SAPC   C31 6284   6.414   0.185   2.981  0.7660  0.2395  0.3472
   72SAPC   O32 6285   6.323   0.131   2.916  0.2582 -0.2223 -0.5868
   72SAPC   C32 6286   6.388   0.317   3.051 -0.7453  0.3712 -0.0394
   72SAPC   H2X 6287   6.281   0.311   3.079 -0.3324 -1.3584  1.3343
   72SAPC   H2Y 6288   6.402   0.404   2.983  1.0025  0.5310  0.4740
   72SAPC   C23 6289   6.751   0.575   2.894  0.4182 -0.1973  0.3080
   72SAPC   H3R 6290   6.677   0.619   2.824  1.3590 -1.7417 -1.7794
   72SAPC   H3S 6291   6.842   0.638   2.903 -0.5884  1.2230  0.8016
   72SAPC   C24 6292   6.685   0.562   3.028 -0.1299 -0.1894 -0.4410
   72SAPC   H4R 6293   6.737   0.471   3.065  1.8166 -0.4258 -3.5117
   72SAPC   H4S 6294   6.577   0.534   3.031 -0.9219  2.0652 -3.2960
   72SAPC   C25 6295   6.707   0.677   3.121 -0.3695 -0.0998  1.1360
   72SAPC   H5R 6296   6.647   0.768   3.109  0.4834  0.2138 -1.5568
   72SAPC   C26 6297   6.799   0.680   3.223  0.4397 -0.5804  0.6679
   72SAPC   H6R 6298   6.791   0.766   3.291 -1.5174 -0.7505  0.7229
   72SAPC   C27 6299   6.896   0.571   3.252 -0.0228 -0.8950 -0.3814
   72SAPC   H7R 6300   6.966   0.546   3.169  1.8285 -2.5013  1.5672
   72SAPC   H7S 6301   6.838   0.478   3.272 -0.6765 -0.1344  1.3937
   72SAPC   C28 6302   6.990   0.604   3.374 -0.3120  0.6654  0.5284
   72SAPC   H8R 6303   7.091   0.637   3.345  0.5675 -1.0406  1.4614
   72SAPC   C29 6304   6.961   0.586   3.504  0.5257  0.3824  0.2671
   72SAPC   H9R 6305   7.041   0.611   3.575  0.7383  0.5500 -0.0299
   72SAPC  C210 6306   6.829   0.530   3.561  0.4579 -0.4866 -0.1459
   72SAPC  H10R 6307   6.853   0.471   3.652  0.1210  0.0246  0.2805
   72SAPC  H10S 6308   6.765   0.471   3.492 -1.2039 -1.5783  2.1619
   72SAPC  C211 6309   6.725   0.630   3.610 -0.0618  0.5325  0.1423
   72SAPC  H11R 6310   6.649   0.655   3.534 -2.0475 -2.3892  0.9927
   72SAPC  C212 6311   6.712   0.679   3.741 -0.3289  0.6270 -0.3208
   72SAPC  H12R 6312   6.621   0.731   3.776 -0.0341 -0.3537  2.0866
   72SAPC  C213 6313   6.804   0.649   3.855  0.0705  0.1559  0.2745
   72SAPC  H13R 6314   6.797   0.735   3.926 -3.3194  0.0494  0.2381
   72SAPC  H13S 6315   6.906   0.647   3.813  0.6187  1.2318  1.4696
   72SAPC  C214 6316   6.780   0.508   3.911  0.8049  0.0992  1.1550
   72SAPC  H14R 6317   6.766   0.433   3.831  1.4582  1.7694 -0.6019
   72SAPC  C215 6318   6.760   0.466   4.035  0.4180  0.5003  0.4093
   72SAPC  H15R 6319   6.736   0.360   4.051 -0.3357  0.1442 -2.5392
   72SAPC  C216 6320   6.778   0.552   4.157 -0.4616 -0.0663  0.1352
   72SAPC  H16R 6321   6.700   0.631   4.153 -0.2707  0.1319  0.2756
   72SAPC  H16S 6322   6.876   0.605   4.156 -0.7594  0.5947  2.0903
   72SAPC  C217 6323   6.762   0.486   4.299  0.5732 -0.5226  0.5171
   72SAPC  H17R 6324   6.847   0.420   4.324  0.2977 -1.2867 -0.4706
   72SAPC  H17S 6325   6.663   0.435   4.294 -1.0030  2.3079  0.5475
   72SAPC  C218 6326   6.748   0.579   4.419  0.3172 -0.4640  0.0152
   72SAPC  H18R 6327   6.681   0.665   4.400 -0.6961 -1.3609 -0.5381
   72SAPC  H18S 6328   6.844   0.635   4.414 -0.7424  1.3142 -2.7482
   72SAPC  C219 6329   6.737   0.510   4.554 -0.4836  0.1463 -0.5702
   72SAPC  H19R 6330   6.818   0.438   4.578 -0.8918 -0.2797 -0.4498
   72SAPC  H19S 6331   6.639   0.459   4.555 -0.3739 -0.0610  0.1104
   72SAPC  C220 6332   6.730   0.610   4.671  0.6012 -0.6400  0.5192
   72SAPC  H20R 6333   6.644   0.680   4.676  2.6060  2.0183 -0.0168
   72SAPC  H20S 6334   6.820   0.674   4.680  0.6726 -0.9275  2.2934
   72SAPC  H20T 6335   6.737   0.556   4.768 -0.1762  1.1868  1.6471
   72SAPC   C33 6336   6.465   0.335   3.190 -1.2624  0.6143 -0.5512
   72SAPC   H3X 6337   6.476   0.441   3.221  1.0677  0.1047  0.6004
   72SAPC   H3Y 6338   6.566   0.291   3.177 -1.3168  0.5408 -0.7314
   72SAPC   C34 6339   6.389   0.265   3.305 -0.0528  0.4268 -0.3497
   72SAPC   H4X 6340   6.375   0.157   3.283 -0.4126  0.3768  0.1007
   72SAPC   H4Y 6341   6.289   0.313   3.299 -0.3329 -0.1318 -0.2912
   72SAPC   C35 6342   6.450   0.280   3.443  0.6325 -0.3005 -0.6121
   72SAPC   H5X 6343   6.455   0.387   3.474  1.9289 -1.0539  2.0470
   72SAPC   H5Y 6344   6.558   0.258   3.436  1.6531  2.1791  3.5907
   72SAPC   C36 6345   6.376   0.188   3.549 -0.5440  0.4228  0.0317
   72SAPC   H6X 6346   6.389   0.080   3.526  1.0316  0.7967 -0.9817
   72SAPC   H6Y 6347   6.270   0.220   3.553 -0.0471  2.2456 -0.7989
   72SAPC   C37 6348   6.436   0.202   3.691 -0.1396 -0.2288  0.1250
   72SAPC   H7X 6349   6.440   0.304   3.734  0.8447 -0.9301  1.7746
   72SAPC   H7Y 6350   6.537   0.157   3.681  1.4532  3.1752 -0.6475
   72SAPC   C38 6351   6.372   0.108   3.802 -0.1844  0.0453 -0.3483
   72SAPC   H8X 6352   6.364   0.005   3.763 -0.2734 -0.8174  1.8413
   72SAPC   H8Y 6353   6.267   0.143   3.814  0.3184  1.6469 -0.2975
   72SAPC   C39 6354   6.450   0.102   3.931  0.5548  0.2320 -0.0986
   72SAPC   H9X 6355   6.450   0.204   3.975 -1.0254  1.5848 -3.0010
   72SAPC   H9Y 6356   6.553   0.066   3.910  0.7693  0.3764  0.6524
   72SAPC  C310 6357   6.378   0.020   4.035  0.7345 -0.2802 -0.6655
   72SAPC  H10X 6358   6.353  -0.081   3.997  1.1217  0.2887 -2.5765
   72SAPC  H10Y 6359   6.285   0.078   4.055  0.2311 -1.0819 -0.6396
   72SAPC  C311 6360   6.453   0.009   4.172 -0.3311 -0.0442  0.2341
   72SAPC  H11X 6361   6.493   0.106   4.209 -0.3249 -0.4410  1.3020
   72SAPC  H11Y 6362   6.544  -0.054   4.161 -1.0486 -0.9514 -0.7048
   72SAPC  C312 6363   6.362  -0.042   4.282  0.0799 -0.3399 -0.1365
   72SAPC  H12X 6364   6.275   0.027   4.277 -0.9167 -1.3988  1.4186
   72SAPC  H12Y 6365   6.413  -0.025   4.379 -2.1515 -0.8512  1.2017
   72SAPC  C313 6366   6.306  -0.184   4.273  0.3266  0.1058  0.6349
   72SAPC  H13X 6367   6.383  -0.261   4.295  0.1217  0.6237  3.4891
   72SAPC  H13Y 6368   6.268  -0.199   4.170 -0.4782  0.7502  0.8251
   72SAPC  C314 6369   6.189  -0.203   4.376  0.1770 -0.0186 -0.2409
   72SAPC  H14X 6370   6.146  -0.304   4.361  1.0448 -0.3539 -0.5145
   72SAPC  H14Y 6371   6.109  -0.129   4.357  0.6238  0.4985 -0.1515
   72SAPC  C315 6372   6.226  -0.192   4.526 -0.0825 -0.7523  0.5704
   72SAPC  H15X 6373   6.263  -0.091   4.551 -3.1193  0.5804  0.1843
   72SAPC  H15Y 6374   6.308  -0.264   4.549  0.2987 -0.4165  0.2552
   72SAPC  C316 6375   6.115  -0.235   4.626 -0.0830 -0.5687  0.6408
   72SAPC  H16X 6376   6.084  -0.340   4.607  0.1279 -0.7234  1.1153
   72SAPC  H16Y 6377   6.026  -0.178   4.591 -0.7878 -0.2744  2.7559
   72SAPC  C317 6378   6.149  -0.206   4.775  0.0415  0.8165  0.8350
   72SAPC  H17X 6379   6.057  -0.162   4.819  0.6291  1.2478  1.6640
   72SAPC  H17Y 6380   6.227  -0.126   4.787 -0.0954  0.7182  2.8094
   72SAPC  C318 6381   6.194  -0.334   4.848 -0.2847 -0.1839  0.1409
   72SAPC  H18X 6382   6.108  -0.404   4.841 -2.8001  2.6834  0.4103
   72SAPC  H18Y 6383   6.218  -0.318   4.955  0.7180  1.5803 -0.3122
   72SAPC  H18Z 6384   6.283  -0.378   4.797  0.6674  3.8712 -2.0612
   73SLPC     N 6385   5.124   2.085   7.660  0.1403  0.1690  0.0062
   73SLPC   C13 6386   5.085   2.027   7.788 -0.2963  0.0341 -0.1483
   73SLPC  H13A 6387   4.994   2.073   7.823 -1.4272 -3.1458  1.4914
   73SLPC  H13B 6388   5.062   1.922   7.779 -0.1248 -0.1903  1.6101
   73SLPC  H13C 6389   5.166   2.028   7.860  1.1371  1.3075 -1.6882
   73SLPC   C14 6390   5.177   2.217   7.696  0.0614 -0.0362  0.3477
   73SLPC  H14A 6391   5.266   2.227   7.756  0.0928 -1.5701  0.6149
   73SLPC  H14B 6392   5.203   2.275   7.608  3.3315  0.0667  1.2419
   73SLPC  H14C 6393   5.094   2.270   7.740  0.8751  2.4282 -0.8852
   73SLPC   C15 6394   4.996   2.103   7.579  0.4313 -0.1151  0.0309
   73SLPC  H15A 6395   4.921   2.164   7.628  1.6684  1.4302  0.0979
   73SLPC  H15B 6396   5.024   2.145   7.484  3.0854 -2.0419 -0.1367
   73SLPC  H15C 6397   4.956   2.005   7.558  2.2330 -0.5388 -1.6470
   73SLPC   C12 6398   5.224   1.998   7.590 -1.0637  0.4619  0.0263
   73SLPC  H12A 6399   5.198   1.894   7.595  0.0667  0.1626 -0.1364
   73SLPC  H12B 6400   5.324   2.003   7.630 -0.3085 -2.0134 -1.3590
   73SLPC   C11 6401   5.249   2.012   7.432  0.7121  0.6786 -0.3910
   73SLPC  H11A 6402   5.347   1.966   7.408  1.7315  2.3199  0.5082
   73SLPC  H11B 6403   5.252   2.119   7.401 -2.4862  0.6187 -1.2458
   73SLPC     P 6404   5.128   1.794   7.353  0.0393  0.5212  0.2608
   73SLPC   O13 6405   5.115   1.723   7.479 -0.0020 -0.3471 -0.3791
   73SLPC   O14 6406   5.020   1.765   7.254 -0.5344 -0.1356 -1.0214
   73SLPC   O12 6407   5.146   1.950   7.352  0.0522 -0.8292 -0.0102
   73SLPC   O11 6408   5.259   1.741   7.274  0.1527 -0.4981 -0.3498
   73SLPC    C1 6409   5.306   1.822   7.163  0.2185 -0.1102 -0.4384
   73SLPC    HA 6410   5.220   1.877   7.118 -0.0721 -1.6963 -1.9488
   73SLPC    HB 6411   5.377   1.901   7.195  0.5469 -0.7452  0.4386
   73SLPC    C2 6412   5.375   1.737   7.049  0.7797  0.7766  0.1934
   73SLPC    HS 6413   5.400   1.801   6.962  1.0425 -0.9796 -1.0761
   73SLPC   O21 6414   5.284   1.623   7.015  0.3001  0.2813 -0.5768
   73SLPC   C21 6415   5.182   1.644   6.928  0.3720  0.6497  0.4751
   73SLPC   O22 6416   5.145   1.752   6.892  0.2536  0.5266 -0.6161
   73SLPC   C22 6417   5.121   1.506   6.890 -0.4052 -0.0339 -0.3207
   73SLPC   H2R 6418   5.103   1.437   6.975 -1.2756 -1.3689 -1.5293
   73SLPC   H2S 6419   5.020   1.520   6.845  0.2619  2.4181 -1.2350
   73SLPC    C3 6420   5.511   1.679   7.097  0.7037 -0.6424 -0.0485
   73SLPC    HX 6421   5.485   1.599   7.168  0.4196 -2.1073 -1.7355
   73SLPC    HY 6422   5.569   1.761   7.145 -1.0592  1.4573 -1.2973
   73SLPC   O31 6423   5.595   1.638   6.988  0.2703 -0.2490 -0.1028
   73SLPC   C31 6424   5.622   1.509   6.971  0.2227  1.0077  0.2099
   73SLPC   O32 6425   5.572   1.417   7.037  0.1180 -0.6380  0.1650
   73SLPC   C32 6426   5.732   1.499   6.869 -0.1076 -0.0823  0.0032
   73SLPC   H2X 6427   5.818   1.554   6.914  0.4438 -0.3586 -0.6941
   73SLPC   H2Y 6428   5.702   1.562   6.783 -0.8847  2.0226  1.7215
   73SLPC   C23 6429   5.224   1.436   6.790 -0.2290 -1.1567  0.1363
   73SLPC   H3R 6430   5.176   1.343   6.754 -1.5946  0.3003 -1.9768
   73SLPC   H3S 6431   5.322   1.425   6.842  0.4066 -1.1685 -1.0338
   73SLPC   C24 6432   5.245   1.524   6.663  0.1199  0.0265  0.7629
   73SLPC   H4R 6433   5.314   1.467   6.597 -0.8989  0.9461 -1.1646
   73SLPC   H4S 6434   5.307   1.613   6.687 -0.3499  0.5472  0.0909
   73SLPC   C25 6435   5.118   1.568   6.594  0.2084  0.0509  0.5623
   73SLPC   H5R 6436   5.069   1.648   6.654  0.8693  0.4737  0.5498
   73SLPC   H5S 6437   5.049   1.485   6.568 -1.6159  1.2586  1.3801
   73SLPC   C26 6438   5.152   1.636   6.461  0.4338 -0.2738 -0.2508
   73SLPC   H6R 6439   5.197   1.735   6.484 -1.2498  0.7307 -1.0322
   73SLPC   H6S 6440   5.055   1.666   6.415  1.1925  1.4754 -0.7703
   73SLPC   C27 6441   5.227   1.557   6.361  0.1937 -0.0352 -1.2492
   73SLPC   H7R 6442   5.211   1.450   6.382 -0.2844 -0.1755 -2.2665
   73SLPC   H7S 6443   5.331   1.582   6.390 -0.6561  3.2006 -0.5156
   73SLPC   C28 6444   5.212   1.599   6.218 -0.0504 -0.4131  0.1980
   73SLPC   H8R 6445   5.297   1.563   6.158  0.2350 -1.0813  0.9761
   73SLPC   H8S 6446   5.208   1.709   6.202  1.0953 -0.7178 -2.7985
   73SLPC   C29 6447   5.079   1.550   6.166  0.6965  0.8013  0.4927
   73SLPC   H9R 6448   5.005   1.528   6.243  0.3086 -2.0068 -0.5649
   73SLPC  C210 6449   5.047   1.515   6.038 -1.0283 -0.5006  0.2381
   73SLPC  H10R 6450   4.945   1.490   6.006 -2.2251  2.9963  0.8153
   73SLPC  C211 6451   5.136   1.541   5.918 -0.4867 -0.9130 -0.1535
   73SLPC  H11R 6452   5.243   1.520   5.940 -0.0715  0.4578 -0.7460
   73SLPC  H11S 6453   5.136   1.651   5.905  0.7512 -0.9234 -0.3078
   73SLPC  C212 6454   5.091   1.457   5.804  0.0725  0.1412  0.1663
   73SLPC  H12R 6455   5.097   1.348   5.812 -1.0449  0.0046 -0.6629
   73SLPC  C213 6456   5.023   1.497   5.696 -0.0604  0.1517 -0.3341
   73SLPC  H13R 6457   4.987   1.424   5.622 -0.1873  0.7229 -0.8346
   73SLPC  C214 6458   4.994   1.638   5.668  0.5887 -0.2081 -0.3354
   73SLPC  H14R 6459   4.979   1.653   5.559  2.0978  0.8539 -0.4325
   73SLPC  H14S 6460   5.080   1.706   5.691  2.2315 -1.7376 -1.6416
   73SLPC  C215 6461   4.862   1.685   5.729  0.6567 -0.2444  0.0192
   73SLPC  H15R 6462   4.886   1.793   5.739 -1.4047  0.4404 -1.6810
   73SLPC  H15S 6463   4.846   1.658   5.835  2.0034 -1.5955 -0.0928
   73SLPC  C216 6464   4.741   1.666   5.638  0.6302  0.9370 -0.2514
   73SLPC  H16R 6465   4.745   1.561   5.602  1.5702 -0.2227  2.8610
   73SLPC  H16S 6466   4.748   1.729   5.547 -1.9278 -1.4729 -2.2476
   73SLPC  C217 6467   4.607   1.670   5.716 -0.4218  0.5556 -0.4894
   73SLPC  H17R 6468   4.589   1.771   5.759  0.9447  0.7989 -0.4640
   73SLPC  H17S 6469   4.612   1.584   5.786  1.6681 -0.2318 -1.5068
   73SLPC  C218 6470   4.490   1.635   5.617 -0.0814 -0.1842 -1.0568
   73SLPC  H18R 6471   4.467   1.725   5.555  0.1517  0.9431  0.4363
   73SLPC  H18S 6472   4.401   1.613   5.678  0.2546 -0.1741 -0.5596
   73SLPC  H18T 6473   4.520   1.544   5.560  2.9453  1.0108 -1.5628
   73SLPC   C33 6474   5.764   1.354   6.821  0.4492 -0.1672 -0.2071
   73SLPC   H3X 6475   5.668   1.310   6.788  0.3479  1.1517 -1.8421
   73SLPC   H3Y 6476   5.807   1.283   6.895 -1.1009 -0.6213  0.2923
   73SLPC   C34 6477   5.857   1.350   6.700  0.7169 -0.2712  0.7397
   73SLPC   H4X 6478   5.883   1.242   6.691  2.6879  0.1485  0.8137
   73SLPC   H4Y 6479   5.946   1.415   6.717 -0.4079  0.9752  2.2194
   73SLPC   C35 6480   5.792   1.398   6.573 -0.4502  0.2747 -0.3855
   73SLPC   H5X 6481   5.768   1.503   6.598 -1.8162 -0.0403 -0.2941
   73SLPC   H5Y 6482   5.706   1.334   6.543  0.1043 -0.0651 -1.2736
   73SLPC   C36 6483   5.885   1.406   6.455  0.8203 -0.0998 -0.4143
   73SLPC   H6X 6484   5.929   1.304   6.448 -0.1602 -0.5095 -0.7473
   73SLPC   H6Y 6485   5.974   1.465   6.485  0.4626  0.1369  0.1970
   73SLPC   C37 6486   5.832   1.455   6.323 -0.4259  0.7606 -0.3068
   73SLPC   H7X 6487   5.805   1.562   6.337 -0.8410  0.4876  1.1761
   73SLPC   H7Y 6488   5.742   1.398   6.292 -1.7622  1.9715  1.1417
   73SLPC   C38 6489   5.939   1.467   6.213 -0.2312  0.5463  0.6912
   73SLPC   H8X 6490   6.008   1.381   6.230  1.2818  1.5552 -0.1535
   73SLPC   H8Y 6491   6.003   1.557   6.219 -0.1174  0.4726  0.5949
   73SLPC   C39 6492   5.877   1.463   6.074  0.1019 -0.3864  0.3115
   73SLPC   H9X 6493   5.793   1.535   6.077  2.5761  2.6938  0.4561
   73SLPC   H9Y 6494   5.840   1.359   6.058  0.9401 -0.7496  0.6543
   73SLPC  C310 6495   5.971   1.496   5.956  1.4688 -0.5502  0.4086
   73SLPC  H10X 6496   6.052   1.420   5.963  0.8352 -1.3177 -0.3145
   73SLPC  H10Y 6497   6.018   1.595   5.974  1.2469 -0.3760  0.0443
   73SLPC  C311 6498   5.899   1.490   5.820 -0.7856 -0.1603  0.5604
   73SLPC  H11X 6499   5.809   1.555   5.831 -3.7698 -4.1351  1.8624
   73SLPC  H11Y 6500   5.872   1.384   5.802 -0.8656 -0.3594  1.7604
   73SLPC  C312 6501   5.993   1.540   5.712  0.6258 -0.3557  0.8064
   73SLPC  H12X 6502   6.088   1.482   5.716  1.4085  0.8530  0.4833
   73SLPC  H12Y 6503   6.021   1.647   5.724  0.7359 -0.1510 -0.9414
   73SLPC  C313 6504   5.933   1.528   5.565  0.2590  0.1756 -0.6539
   73SLPC  H13X 6505   6.005   1.582   5.500  0.5269  1.4616  0.6487
   73SLPC  H13Y 6506   5.839   1.589   5.568 -0.5924 -1.1401  1.0499
   73SLPC  C314 6507   5.905   1.390   5.502  0.3458  0.3757 -0.3112
   73SLPC  H14X 6508   5.841   1.398   5.412  0.6398 -1.1296 -0.6810
   73SLPC  H14Y 6509   5.852   1.327   5.576 -0.1364  0.5314 -0.5185
   73SLPC  C315 6510   6.029   1.308   5.460  0.1603 -0.6170  0.4737
   73SLPC  H15X 6511   6.006   1.226   5.390  0.5251  0.5428 -1.0543
   73SLPC  H15Y 6512   6.080   1.267   5.550 -0.3716  0.1080  1.1222
   73SLPC  C316 6513   6.130   1.379   5.357  0.1001 -0.1407 -0.1204
   73SLPC  H16X 6514   6.172   1.472   5.402  1.6034 -0.2907 -1.1500
   73SLPC  H16Y 6515   6.071   1.406   5.266  0.4622  2.3972  0.3167
   73SLPC  C317 6516   6.252   1.296   5.326 -0.1872 -0.1146  0.7365
   73SLPC  H17X 6517   6.313   1.336   5.242 -0.9386  1.1237  0.7626
   73SLPC  H17Y 6518   6.219   1.200   5.281  0.2999  0.2477 -0.4301
   73SLPC  C318 6519   6.349   1.266   5.438 -0.4185  0.4889  0.0934
   73SLPC  H18X 6520   6.318   1.190   5.512  1.8613  1.2004  1.9053
   73SLPC  H18Y 6521   6.367   1.355   5.502  1.5741 -0.6063  1.1259
   73SLPC  H18Z 6522   6.453   1.236   5.411 -0.1854 -0.0607  1.5181
   74SLPC     N 6523   3.161   1.588   7.396 -0.1519 -0.2629  0.0463
   74SLPC   C13 6524   3.241   1.504   7.490 -0.6745  0.2695  0.1688
   74SLPC  H13A 6525   3.327   1.563   7.520 -0.3955  0.1854 -0.4570
   74SLPC  H13B 6526   3.180   1.475   7.574 -2.4397 -0.4499 -1.3017
   74SLPC  H13C 6527   3.269   1.410   7.446  1.4330  0.9157  0.0105
   74SLPC   C14 6528   3.240   1.636   7.286 -0.0844  0.3491  0.2095
   74SLPC  H14A 6529   3.334   1.684   7.311 -0.9057  1.8133  0.6452
   74SLPC  H14B 6530   3.253   1.556   7.216 -0.9749  1.2339 -1.0113
   74SLPC  H14C 6531   3.186   1.711   7.231 -0.9506 -0.3088  0.1528
   74SLPC   C15 6532   3.114   1.703   7.472  0.1904 -0.0720 -0.5199
   74SLPC  H15A 6533   3.053   1.676   7.556  1.1792 -1.6219 -0.2480
   74SLPC  H15B 6534   3.199   1.761   7.503  0.5928 -1.0248  0.2273
   74SLPC  H15C 6535   3.059   1.763   7.401 -0.6469  0.7785  0.8006
   74SLPC   C12 6536   3.042   1.508   7.346  0.4057 -0.1895  0.8568
   74SLPC  H12A 6537   2.970   1.492   7.425  0.5996 -0.7819  0.9154
   74SLPC  H12B 6538   3.063   1.403   7.334 -1.0760 -0.4302  0.2140
   74SLPC   C11 6539   2.972   1.566   7.221 -0.5303 -0.1638  0.9314
   74SLPC  H11A 6540   2.890   1.498   7.192 -0.1258 -0.6963  1.0163
   74SLPC  H11B 6541   3.050   1.558   7.143 -0.8128  0.6762  0.5471
   74SLPC     P 6542   2.801   1.740   7.280  0.1011 -0.8446  0.4533
   74SLPC   O13 6543   2.748   1.624   7.350  0.5407 -0.1631  0.1504
   74SLPC   O14 6544   2.798   1.867   7.358  0.1952 -0.1718 -0.8630
   74SLPC   O12 6545   2.942   1.705   7.219  0.3548  0.4948  0.1492
   74SLPC   O11 6546   2.721   1.762   7.155  0.3708  0.1678  0.0074
   74SLPC    C1 6547   2.731   1.681   7.035 -0.1211  1.3233  0.1368
   74SLPC    HA 6548   2.796   1.728   6.958 -0.2079 -0.9958 -1.4833
   74SLPC    HB 6549   2.769   1.576   7.040  2.1989  2.1524  0.9804
   74SLPC    C2 6550   2.589   1.668   6.976 -0.3206  0.1969  0.0267
   74SLPC    HS 6551   2.589   1.596   6.892 -0.1683  0.9936 -0.6746
   74SLPC   O21 6552   2.533   1.796   6.936 -0.8328  0.3652 -0.4664
   74SLPC   C21 6553   2.576   1.836   6.815 -0.0730 -0.3679  0.3999
   74SLPC   O22 6554   2.665   1.775   6.755 -0.1100  0.3372  0.2104
   74SLPC   C22 6555   2.507   1.969   6.776 -0.5725 -0.1169  0.1995
   74SLPC   H2R 6556   2.400   1.938   6.782 -0.7231  0.4724  0.7583
   74SLPC   H2S 6557   2.535   2.038   6.858  0.9178  2.0487 -1.9779
   74SLPC    C3 6558   2.486   1.594   7.072 -0.4263  0.5005 -0.0603
   74SLPC    HX 6559   2.477   1.652   7.166 -0.1931 -0.1716  0.3739
   74SLPC    HY 6560   2.530   1.499   7.108 -1.7921  0.4525  1.5789
   74SLPC   O31 6561   2.357   1.575   7.014 -0.4256 -0.1964 -0.3075
   74SLPC   C31 6562   2.349   1.455   6.955 -0.2454 -0.1248 -0.1574
   74SLPC   O32 6563   2.447   1.394   6.918  0.4463 -0.0652  0.1068
   74SLPC   C32 6564   2.202   1.426   6.915  0.3095 -0.3984  0.0189
   74SLPC   H2X 6565   2.142   1.449   7.006  2.5142  3.4911  0.7070
   74SLPC   H2Y 6566   2.184   1.322   6.882  1.2380 -0.3686 -0.6175
   74SLPC   C23 6567   2.526   2.030   6.631 -0.6405 -0.1973  0.5009
   74SLPC   H3R 6568   2.463   2.122   6.628 -2.0129 -1.1404 -1.1919
   74SLPC   H3S 6569   2.493   1.964   6.548 -0.4024 -0.3765  0.5487
   74SLPC   C24 6570   2.667   2.083   6.600 -0.4452 -0.2104  0.8470
   74SLPC   H4R 6571   2.734   1.996   6.580  0.0103  0.6928 -2.0172
   74SLPC   H4S 6572   2.715   2.120   6.693  1.2643 -0.4333  0.1093
   74SLPC   C25 6573   2.677   2.182   6.483 -0.7086 -0.4663  0.2156
   74SLPC   H5R 6574   2.780   2.222   6.479 -1.1920  0.9153  0.8961
   74SLPC   H5S 6575   2.613   2.272   6.498  1.1916  0.9864  0.0485
   74SLPC   C26 6576   2.636   2.106   6.356  0.5472  0.3289 -0.7508
   74SLPC   H6R 6577   2.532   2.072   6.374  1.4444 -1.7273  0.9865
   74SLPC   H6S 6578   2.690   2.011   6.337 -0.5231 -0.2895 -0.7981
   74SLPC   C27 6579   2.646   2.189   6.228  0.8758 -0.4229 -0.3386
   74SLPC   H7R 6580   2.751   2.204   6.194  0.8025  2.8211  0.5284
   74SLPC   H7S 6581   2.599   2.284   6.260  4.1914  1.1018  0.4303
   74SLPC   C28 6582   2.580   2.130   6.105 -0.4653 -0.0364  0.2469
   74SLPC   H8R 6583   2.493   2.067   6.133 -0.6666  0.0981 -0.0684
   74SLPC   H8S 6584   2.654   2.058   6.066 -0.4394 -0.5060  1.1455
   74SLPC   C29 6585   2.560   2.233   5.997  0.9253  0.1821  0.5251
   74SLPC   H9R 6586   2.502   2.321   6.026 -2.6811 -1.4137 -1.2165
   74SLPC  C210 6587   2.586   2.216   5.866  0.0667 -0.4533  0.1523
   74SLPC  H10R 6588   2.570   2.311   5.811 -0.0463  1.0577  2.6622
   74SLPC  C211 6589   2.649   2.103   5.788 -0.8675 -0.6311  0.3395
   74SLPC  H11R 6590   2.587   2.073   5.701  1.1002  0.4640 -1.5382
   74SLPC  H11S 6591   2.647   2.011   5.851  0.3382 -1.6422 -1.0345
   74SLPC  C212 6592   2.793   2.123   5.740 -0.2107  0.3362 -0.4342
   74SLPC  H12R 6593   2.848   2.155   5.830  1.9895 -0.9855 -1.2323
   74SLPC  C213 6594   2.848   2.079   5.622 -0.4142 -0.1890 -0.1268
   74SLPC  H13R 6595   2.956   2.077   5.605 -0.6838 -1.5105 -1.9280
   74SLPC  C214 6596   2.788   2.022   5.498  0.2030  0.0393  0.6393
   74SLPC  H14R 6597   2.677   2.018   5.493  0.2382  0.4689 -1.6650
   74SLPC  H14S 6598   2.818   1.916   5.493 -2.6145 -0.8077 -0.5001
   74SLPC  C215 6599   2.831   2.096   5.376 -0.1820 -0.4040 -0.4779
   74SLPC  H15R 6600   2.933   2.134   5.396 -0.1079 -0.8946  0.0792
   74SLPC  H15S 6601   2.770   2.186   5.353  0.5411 -0.3652 -2.4428
   74SLPC  C216 6602   2.829   2.013   5.244 -0.4771  0.7320  0.4000
   74SLPC  H16R 6603   2.728   1.969   5.229  0.6635 -1.6163 -0.8264
   74SLPC  H16S 6604   2.893   1.924   5.257 -0.0348  1.3678  3.4753
   74SLPC  C217 6605   2.868   2.096   5.124 -0.4735 -0.2675  0.8420
   74SLPC  H17R 6606   2.969   2.141   5.138 -0.7430  0.6292 -0.0118
   74SLPC  H17S 6607   2.801   2.183   5.107 -1.5810 -1.2389  0.1009
   74SLPC  C218 6608   2.861   2.009   4.998 -0.9594  0.5822 -0.0038
   74SLPC  H18R 6609   2.758   1.970   4.984 -0.2388 -1.3173 -0.2471
   74SLPC  H18S 6610   2.921   1.915   4.994 -0.4582  0.8376  1.1017
   74SLPC  H18T 6611   2.878   2.069   4.906 -1.0293  1.6636  0.6724
   74SLPC   C33 6612   2.159   1.520   6.802 -0.5694 -0.0324  0.1849
   74SLPC   H3X 6613   2.170   1.624   6.840  0.8755 -0.1102  0.0143
   74SLPC   H3Y 6614   2.048   1.521   6.795 -0.6912  1.6755  1.5818
   74SLPC   C34 6615   2.239   1.495   6.670 -0.4777 -0.0366 -0.5101
   74SLPC   H4X 6616   2.237   1.394   6.625 -2.5129  0.4415 -1.6318
   74SLPC   H4Y 6617   2.344   1.506   6.705  0.0362 -1.4889 -1.4863
   74SLPC   C35 6618   2.212   1.597   6.563 -0.1309 -0.5067  1.1116
   74SLPC   H5X 6619   2.104   1.621   6.549  0.5426  1.5553 -1.1437
   74SLPC   H5Y 6620   2.224   1.553   6.462  0.5476  1.3829  0.3293
   74SLPC   C36 6621   2.280   1.732   6.580  0.3244 -1.0076  0.1212
   74SLPC   H6X 6622   2.388   1.718   6.555 -0.1089 -1.4788 -1.6393
   74SLPC   H6Y 6623   2.267   1.767   6.684 -0.3274  0.2792 -0.3722
   74SLPC   C37 6624   2.212   1.844   6.479 -0.4371  1.0168 -0.3888
   74SLPC   H7X 6625   2.245   1.944   6.516 -1.4506  0.5938  1.8005
   74SLPC   H7Y 6626   2.106   1.851   6.509 -1.0639  0.3845 -2.3248
   74SLPC   C38 6627   2.238   1.797   6.330  0.2922  0.1051 -0.1753
   74SLPC   H8X 6628   2.233   1.686   6.321 -0.2654  0.1309 -0.2010
   74SLPC   H8Y 6629   2.341   1.831   6.303  1.1588 -1.9067  0.4244
   74SLPC   C39 6630   2.145   1.873   6.233  0.3917 -0.7114  0.0571
   74SLPC   H9X 6631   2.165   1.981   6.246  3.3074 -1.1972  0.2108
   74SLPC   H9Y 6632   2.040   1.858   6.268 -0.4275  1.5184 -1.2423
   74SLPC  C310 6633   2.162   1.823   6.086 -0.6707 -0.3324  0.1928
   74SLPC  H10X 6634   2.085   1.864   6.017  1.3574  0.6246 -1.6501
   74SLPC  H10Y 6635   2.163   1.713   6.080 -1.7595 -0.3387 -0.0544
   74SLPC  C311 6636   2.294   1.877   6.024  0.0914  0.4006  0.2612
   74SLPC  H11X 6637   2.381   1.819   6.061  1.2101  1.2741 -0.8680
   74SLPC  H11Y 6638   2.322   1.968   6.081  0.8614  0.2285  0.1640
   74SLPC  C312 6639   2.290   1.898   5.876 -0.5541 -0.3111 -0.2133
   74SLPC  H12X 6640   2.383   1.951   5.847  1.4932 -3.1770  0.7265
   74SLPC  H12Y 6641   2.203   1.960   5.845 -0.4742  0.8988  1.7967
   74SLPC  C313 6642   2.283   1.766   5.791  0.1605  1.1898  0.2942
   74SLPC  H13X 6643   2.198   1.698   5.817 -1.4683  2.2100 -2.0219
   74SLPC  H13Y 6644   2.366   1.694   5.809 -0.4303  0.9301  2.2771
   74SLPC  C314 6645   2.264   1.791   5.639  0.7360  0.1355  0.9437
   74SLPC  H14X 6646   2.199   1.879   5.619  0.4809  0.2276  2.1402
   74SLPC  H14Y 6647   2.212   1.700   5.601  0.8588  0.4943 -0.1231
   74SLPC  C315 6648   2.400   1.804   5.579 -0.1905  0.5371  0.7797
   74SLPC  H15X 6649   2.435   1.700   5.561 -0.9832  0.1144  1.6110
   74SLPC  H15Y 6650   2.466   1.860   5.649  0.2075 -0.2464  1.0413
   74SLPC  C316 6651   2.393   1.872   5.434  0.5535  0.4197 -0.5428
   74SLPC  H16X 6652   2.497   1.882   5.396  0.8698  1.6401  0.5612
   74SLPC  H16Y 6653   2.370   1.979   5.449 -0.6164  0.0191  0.7343
   74SLPC  C317 6654   2.299   1.808   5.335  0.1335  0.2801 -0.0420
   74SLPC  H17X 6655   2.192   1.810   5.366  0.3304 -1.3436  0.8666
   74SLPC  H17Y 6656   2.328   1.702   5.320  1.1077  0.4708  0.4060
   74SLPC  C318 6657   2.314   1.857   5.193  0.8962 -0.2283  0.5845
   74SLPC  H18X 6658   2.260   1.803   5.113 -0.9697  1.1321  0.8581
   74SLPC  H18Y 6659   2.423   1.865   5.171  0.4388  1.1298 -1.5579
   74SLPC  H18Z 6660   2.277   1.962   5.191  1.0048 -0.1699  1.4677
   75SLPC     N 6661   4.900   0.628   7.188  0.1008 -0.1047 -0.1624
   75SLPC   C13 6662   4.760   0.666   7.202  0.0196 -0.5397  0.1072
   75SLPC  H13A 6663   4.702   0.648   7.113  0.3147  1.1879 -0.4711
   75SLPC  H13B 6664   4.699   0.627   7.282 -2.3316  1.0930 -0.7721
   75SLPC  H13C 6665   4.768   0.769   7.233  1.3506 -0.9458  1.2399
   75SLPC   C14 6666   4.972   0.616   7.322 -0.4715 -0.6326  0.1894
   75SLPC  H14A 6667   4.940   0.532   7.382 -1.5949 -0.0245  0.4795
   75SLPC  H14B 6668   5.074   0.584   7.308 -0.9118 -1.8674 -0.2589
   75SLPC  H14C 6669   4.969   0.704   7.384  1.1675 -0.5606  0.2312
   75SLPC   C15 6670   4.964   0.745   7.110  0.0010  0.0089 -0.2358
   75SLPC  H15A 6671   5.065   0.722   7.078 -0.5004 -1.7297 -0.6843
   75SLPC  H15B 6672   4.905   0.772   7.023 -0.2659  1.4354  0.3591
   75SLPC  H15C 6673   4.970   0.827   7.179 -0.9428 -0.6359  0.6375
   75SLPC   C12 6674   4.910   0.498   7.113 -0.1138 -0.5458 -0.6586
   75SLPC  H12A 6675   5.013   0.490   7.081  0.2413  3.4522 -1.0485
   75SLPC  H12B 6676   4.851   0.519   7.026 -1.1107  0.1645  0.1581
   75SLPC   C11 6677   4.865   0.367   7.176 -0.2685  0.5174 -0.5292
   75SLPC  H11A 6678   4.930   0.363   7.266  2.3010  2.2495 -2.1848
   75SLPC  H11B 6679   4.894   0.280   7.114 -2.1854  0.8663 -2.0029
   75SLPC     P 6680   4.618   0.346   7.085  0.3333 -0.1267  0.0162
   75SLPC   O13 6681   4.479   0.337   7.145 -0.0485  0.4967  0.4707
   75SLPC   O14 6682   4.651   0.453   6.988 -0.5022 -0.9438 -0.6214
   75SLPC   O12 6683   4.725   0.356   7.203 -0.1887 -0.6704 -0.2265
   75SLPC   O11 6684   4.651   0.200   7.022 -0.1294  0.1149  0.4883
   75SLPC    C1 6685   4.547   0.125   6.954 -0.3152 -0.2176 -0.5993
   75SLPC    HA 6686   4.541   0.023   6.998  1.5564  0.5022  1.5481
   75SLPC    HB 6687   4.447   0.165   6.979 -0.5596 -0.3957 -1.2793
   75SLPC    C2 6688   4.560   0.115   6.803 -0.3710  0.2005  0.0718
   75SLPC    HS 6689   4.666   0.146   6.789 -0.1499  0.0378  1.2355
   75SLPC   O21 6690   4.475   0.217   6.747  0.0552  0.1890  0.1691
   75SLPC   C21 6691   4.501   0.265   6.621  0.7227 -0.5369 -0.6411
   75SLPC   O22 6692   4.606   0.248   6.566 -0.4507  0.1063 -0.1997
   75SLPC   C22 6693   4.380   0.345   6.578 -0.1841 -0.0417  0.3954
   75SLPC   H2R 6694   4.296   0.279   6.547 -0.4734 -0.3890  1.8225
   75SLPC   H2S 6695   4.358   0.397   6.674  1.2430 -1.5130  1.6061
   75SLPC    C3 6696   4.529  -0.025   6.742 -0.2849 -0.0050 -0.4834
   75SLPC    HX 6697   4.421  -0.044   6.760  0.1023  0.2440  2.7704
   75SLPC    HY 6698   4.581  -0.106   6.798  2.2367  1.6541 -0.2616
   75SLPC   O31 6699   4.554  -0.031   6.606  0.1347 -0.4961 -1.0267
   75SLPC   C31 6700   4.683  -0.051   6.579  0.6570 -0.4631 -0.5368
   75SLPC   O32 6701   4.775  -0.052   6.660  0.7008  0.4867  0.0321
   75SLPC   C32 6702   4.698  -0.087   6.431  0.2927 -0.2702 -0.2600
   75SLPC   H2X 6703   4.600  -0.118   6.390  0.9881  1.1871 -3.2926
   75SLPC   H2Y 6704   4.771  -0.170   6.429  0.9230  0.2714 -0.2298
   75SLPC   C23 6705   4.412   0.451   6.469 -0.1011 -0.0027 -0.4537
   75SLPC   H3R 6706   4.484   0.513   6.526 -0.3358 -0.4351  0.3423
   75SLPC   H3S 6707   4.319   0.507   6.444  1.1125  2.7933  0.8871
   75SLPC   C24 6708   4.451   0.386   6.334 -0.7793  0.1032 -0.0931
   75SLPC   H4R 6709   4.367   0.319   6.306  1.5724 -2.6870 -1.0846
   75SLPC   H4S 6710   4.542   0.322   6.338 -0.4852  0.5770  2.0581
   75SLPC   C25 6711   4.472   0.480   6.219 -0.7043 -0.6476  0.0215
   75SLPC   H5R 6712   4.561   0.544   6.236 -0.8916 -0.0305 -1.2091
   75SLPC   H5S 6713   4.389   0.554   6.211 -0.4264 -0.3077  0.2389
   75SLPC   C26 6714   4.487   0.415   6.082 -0.4859 -0.1251  0.1943
   75SLPC   H6R 6715   4.388   0.372   6.056 -0.7059 -0.7131  1.8622
   75SLPC   H6S 6716   4.560   0.331   6.090 -0.5166 -0.0913  0.8561
   75SLPC   C27 6717   4.540   0.516   5.974 -0.0018  0.0169  0.5108
   75SLPC   H7R 6718   4.649   0.500   5.960  0.0051  0.6470 -0.2871
   75SLPC   H7S 6719   4.532   0.615   6.025  0.0440 -0.0020  0.5547
   75SLPC   C28 6720   4.456   0.524   5.848 -0.3947 -0.8666 -0.7407
   75SLPC   H8R 6721   4.455   0.625   5.801  0.9867 -0.3573  0.2473
   75SLPC   H8S 6722   4.350   0.509   5.876  0.5786 -1.7526  3.0246
   75SLPC   C29 6723   4.491   0.427   5.743  0.1520 -0.2776  0.7624
   75SLPC   H9R 6724   4.477   0.324   5.779 -2.6343 -0.7812 -1.4381
   75SLPC  C210 6725   4.532   0.441   5.614  0.6907  0.7211 -0.4963
   75SLPC  H10R 6726   4.539   0.348   5.555  0.5130  0.7909 -0.6278
   75SLPC  C211 6727   4.559   0.563   5.539 -0.9497  0.2295  0.7662
   75SLPC  H11R 6728   4.645   0.542   5.472 -2.1881 -2.5878 -0.1324
   75SLPC  H11S 6729   4.610   0.642   5.597  0.1372  1.6621 -1.9291
   75SLPC  C212 6730   4.430   0.615   5.474 -0.9201 -0.2054 -0.0311
   75SLPC  H12R 6731   4.350   0.635   5.547 -0.0349  3.5328  0.1618
   75SLPC  C213 6732   4.405   0.630   5.345  0.0206  0.2650 -0.3822
   75SLPC  H13R 6733   4.303   0.659   5.316  0.7674  1.0697 -2.3523
   75SLPC  C214 6734   4.488   0.601   5.222  0.1969 -0.4680 -0.0848
   75SLPC  H14R 6735   4.472   0.496   5.189 -1.3100 -0.1680 -0.3576
   75SLPC  H14S 6736   4.595   0.608   5.250  0.0377  1.3993  0.1693
   75SLPC  C215 6737   4.459   0.696   5.102 -0.3965  0.7946 -0.3781
   75SLPC  H15R 6738   4.464   0.802   5.134  1.4038  0.9302 -0.9957
   75SLPC  H15S 6739   4.357   0.693   5.057 -0.9037  2.8586  0.4828
   75SLPC  C216 6740   4.557   0.660   4.987  0.6945  0.3228  0.3631
   75SLPC  H16R 6741   4.518   0.563   4.949 -1.6228  1.4180 -0.2082
   75SLPC  H16S 6742   4.664   0.654   5.017  1.2054  4.6348  0.0171
   75SLPC  C217 6743   4.540   0.752   4.862 -0.6339  0.4231  0.2006
   75SLPC  H17R 6744   4.577   0.854   4.884 -1.1069  0.7077 -0.3112
   75SLPC  H17S 6745   4.430   0.768   4.857 -0.6751  0.5275  1.2284
   75SLPC  C218 6746   4.599   0.693   4.738  0.6121  0.0464 -0.8272
   75SLPC  H18R 6747   4.584   0.761   4.652  0.6282  0.9460 -0.1395
   75SLPC  H18S 6748   4.558   0.595   4.708  0.3320  0.1873 -0.9060
   75SLPC  H18T 6749   4.708   0.676   4.751  0.5523  1.2525  2.3870
   75SLPC   C33 6750   4.758   0.039   6.359  0.1068 -0.2447  0.4317
   75SLPC   H3X 6751   4.850   0.066   6.415 -1.2330 -0.7202  3.0450
   75SLPC   H3Y 6752   4.695   0.130   6.372  0.2037  0.1878 -1.8685
   75SLPC   C34 6753   4.784   0.014   6.209  0.0449 -0.7238 -0.5026
   75SLPC   H4X 6754   4.698  -0.043   6.168 -1.0548 -0.3823  1.2177
   75SLPC   H4Y 6755   4.868  -0.059   6.203  0.6228 -0.0694 -0.4750
   75SLPC   C35 6756   4.819   0.140   6.120  0.3002 -0.0507  0.0626
   75SLPC   H5X 6757   4.919   0.178   6.150 -0.7590  2.5175  0.6157
   75SLPC   H5Y 6758   4.743   0.221   6.121 -1.4107 -1.4744 -2.2916
   75SLPC   C36 6759   4.841   0.108   5.977  0.6930  0.1264 -0.2808
   75SLPC   H6X 6760   4.779   0.025   5.937 -0.9498  0.7468  0.8729
   75SLPC   H6Y 6761   4.945   0.069   5.970  1.0110  0.7964  0.5074
   75SLPC   C37 6762   4.838   0.229   5.890  0.1196 -0.2187  0.4420
   75SLPC   H7X 6763   4.885   0.318   5.937  0.2389  0.5241 -1.0088
   75SLPC   H7Y 6764   4.737   0.261   5.855 -0.3966 -1.9511  0.2759
   75SLPC   C38 6765   4.920   0.205   5.765 -0.2611  0.1263  0.3072
   75SLPC   H8X 6766   4.897   0.109   5.715  1.0887  0.4149 -0.9895
   75SLPC   H8Y 6767   5.029   0.197   5.785  0.3571  1.9834 -1.7958
   75SLPC   C39 6768   4.912   0.318   5.659 -0.7225  0.6141 -0.3582
   75SLPC   H9X 6769   4.976   0.407   5.679  0.6998  0.0747 -2.2497
   75SLPC   H9Y 6770   4.809   0.359   5.662 -1.0461 -0.2065  0.4318
   75SLPC  C310 6771   4.947   0.270   5.521 -0.3396 -0.0462 -0.2690
   75SLPC  H10X 6772   4.885   0.180   5.499 -1.1532  0.3094  0.5057
   75SLPC  H10Y 6773   5.055   0.245   5.518 -0.2723 -0.2068  2.0798
   75SLPC  C311 6774   4.916   0.373   5.406 -0.1627 -0.0901 -0.0575
   75SLPC  H11X 6775   4.978   0.465   5.414 -0.5382  0.5184 -3.0661
   75SLPC  H11Y 6776   4.812   0.408   5.424 -0.3498 -0.2344 -0.8082
   75SLPC  C312 6777   4.900   0.317   5.263  0.5502  0.0379  0.0414
   75SLPC  H12X 6778   4.820   0.241   5.274  1.7917 -1.5398 -1.3469
   75SLPC  H12Y 6779   4.986   0.255   5.230 -0.9049 -2.0354 -0.0944
   75SLPC  C313 6780   4.865   0.416   5.151  0.5412 -0.2913  0.2438
   75SLPC  H13X 6781   4.942   0.493   5.173 -1.2373  1.3351  1.0514
   75SLPC  H13Y 6782   4.771   0.474   5.162  0.1419 -0.6482 -1.0876
   75SLPC  C314 6783   4.863   0.356   5.008 -0.6011 -0.2368 -0.2592
   75SLPC  H14X 6784   4.938   0.274   5.011  0.4203  0.7035  1.5344
   75SLPC  H14Y 6785   4.880   0.431   4.928 -1.5504 -1.0662 -1.2972
   75SLPC  C315 6786   4.721   0.317   4.971 -0.3984  0.1367  0.1208
   75SLPC  H15X 6787   4.649   0.398   4.994  0.8208  0.7623  1.9193
   75SLPC  H15Y 6788   4.679   0.235   5.033  0.8934 -0.0390  0.8145
   75SLPC  C316 6789   4.704   0.281   4.827 -0.4188  0.2370 -0.1788
   75SLPC  H16X 6790   4.768   0.201   4.784  0.0047 -0.3022  1.3718
   75SLPC  H16Y 6791   4.732   0.364   4.758  4.5311 -0.2630  0.8335
   75SLPC  C317 6792   4.566   0.217   4.796  0.3847 -0.2934 -0.1071
   75SLPC  H17X 6793   4.486   0.284   4.834 -1.3373 -1.6448 -1.2275
   75SLPC  H17Y 6794   4.557   0.119   4.847 -0.3340  0.1286  0.6105
   75SLPC  C318 6795   4.532   0.192   4.649 -0.5397 -0.0309 -0.0640
   75SLPC  H18X 6796   4.427   0.158   4.641 -0.3483 -0.8590  0.8115
   75SLPC  H18Y 6797   4.603   0.115   4.612  0.0004  1.4935 -2.4501
   75SLPC  H18Z 6798   4.538   0.276   4.575 -2.5923  0.1711 -0.0474
   76SLPC     N 6799   6.549   1.987   7.767 -0.3822 -0.9339 -0.2827
   76SLPC   C13 6800   6.472   2.069   7.863  0.2168 -0.3610 -0.2674
   76SLPC  H13A 6801   6.430   2.154   7.812 -0.1132 -1.0224 -1.1292
   76SLPC  H13B 6802   6.391   2.008   7.901  0.7771  0.1967  1.9396
   76SLPC  H13C 6803   6.527   2.090   7.954  1.0859  2.2507 -1.3014
   76SLPC   C14 6804   6.460   1.949   7.660 -1.1118  0.2745  0.8749
   76SLPC  H14A 6805   6.406   2.036   7.625 -1.2928  0.3592  1.3627
   76SLPC  H14B 6806   6.516   1.903   7.579 -0.6841 -0.5778  1.6366
   76SLPC  H14C 6807   6.389   1.872   7.684  1.0242 -1.5172  1.8657
   76SLPC   C15 6808   6.588   1.867   7.843 -0.7627  0.4933 -0.6764
   76SLPC  H15A 6809   6.653   1.891   7.926  0.1259  0.4509 -1.3413
   76SLPC  H15B 6810   6.498   1.812   7.867  1.0978 -3.2660 -1.5570
   76SLPC  H15C 6811   6.646   1.796   7.786 -0.3819  0.6036 -0.4244
   76SLPC   C12 6812   6.675   2.066   7.716  0.3031 -0.0371  0.6149
   76SLPC  H12A 6813   6.723   2.097   7.808  2.7368 -2.6175  0.3530
   76SLPC  H12B 6814   6.637   2.147   7.656 -0.3276 -1.1410 -0.5090
   76SLPC   C11 6815   6.770   1.986   7.633  0.2087 -0.1261  0.5344
   76SLPC  H11A 6816   6.781   1.885   7.677 -1.9438 -0.7108 -0.1547
   76SLPC  H11B 6817   6.872   2.027   7.647  0.7118 -1.9552  2.6839
   76SLPC     P 6818   6.803   2.049   7.386 -0.0669 -0.2627 -0.1825
   76SLPC   O13 6819   6.779   2.196   7.414 -0.5519 -0.5349  0.3890
   76SLPC   O14 6820   6.949   2.018   7.390  0.1646  0.2410  0.2335
   76SLPC   O12 6821   6.716   1.976   7.497  0.9197  0.0978 -0.3979
   76SLPC   O11 6822   6.731   2.011   7.252 -0.0826  0.1362  0.3973
   76SLPC    C1 6823   6.598   2.074   7.220  0.8632  0.3959 -0.3243
   76SLPC    HA 6824   6.510   2.035   7.275  0.9523 -3.4633 -2.5648
   76SLPC    HB 6825   6.606   2.180   7.253  0.3653 -0.1879  1.7779
   76SLPC    C2 6826   6.559   2.080   7.073 -0.3549 -0.0568 -0.2845
   76SLPC    HS 6827   6.459   2.120   7.044  0.2123 -0.8794 -3.7154
   76SLPC   O21 6828   6.580   1.951   7.016 -0.5859  0.0735  0.2420
   76SLPC   C21 6829   6.508   1.916   6.911  0.6252  0.4506  0.6217
   76SLPC   O22 6830   6.409   1.972   6.861 -0.9300 -0.2585 -0.3804
   76SLPC   C22 6831   6.562   1.786   6.853  0.0286 -0.7339 -0.8474
   76SLPC   H2R 6832   6.666   1.820   6.834 -0.4031  1.9130  0.9414
   76SLPC   H2S 6833   6.552   1.709   6.933 -1.9918 -1.1196 -1.4248
   76SLPC    C3 6834   6.647   2.182   6.998 -0.3934  0.4857  0.2129
   76SLPC    HX 6835   6.751   2.156   7.029 -0.8968 -1.4131  0.4838
   76SLPC    HY 6836   6.641   2.285   7.039  0.1793 -0.3685  2.6270
   76SLPC   O31 6837   6.631   2.184   6.850  0.2228 -0.1220  0.4671
   76SLPC   C31 6838   6.520   2.249   6.810 -0.4368 -0.2146 -0.0452
   76SLPC   O32 6839   6.455   2.324   6.882  0.5128 -0.6704 -0.0399
   76SLPC   C32 6840   6.509   2.239   6.659 -0.3609 -0.1163 -0.1136
   76SLPC   H2X 6841   6.431   2.310   6.625 -0.7954 -0.7880 -0.5309
   76SLPC   H2Y 6842   6.472   2.134   6.650  1.1657 -0.7627  0.6228
   76SLPC   C23 6843   6.488   1.748   6.726  0.1979  0.1472  0.6347
   76SLPC   H3R 6844   6.478   1.836   6.659  1.2000  0.1585  0.4906
   76SLPC   H3S 6845   6.384   1.707   6.727  0.3492 -0.2903 -0.3296
   76SLPC   C24 6846   6.556   1.637   6.644  0.2355 -0.1358 -0.2340
   76SLPC   H4R 6847   6.507   1.540   6.668  0.1101 -0.0180 -0.0063
   76SLPC   H4S 6848   6.666   1.632   6.654  0.2317  0.3450  0.0449
   76SLPC   C25 6849   6.527   1.645   6.491 -0.8783 -0.3124 -0.5073
   76SLPC   H5R 6850   6.535   1.752   6.462 -1.2897  0.1439  1.0095
   76SLPC   H5S 6851   6.423   1.618   6.460 -1.5346  1.2863  0.1795
   76SLPC   C26 6852   6.628   1.559   6.415  0.6949 -0.2410  0.4269
   76SLPC   H6R 6853   6.616   1.451   6.439  1.2146 -0.3095  0.3930
   76SLPC   H6S 6854   6.728   1.583   6.455  0.0512  0.5054  1.6726
   76SLPC   C27 6855   6.621   1.592   6.256 -0.1942  0.2455 -0.8438
   76SLPC   H7R 6856   6.598   1.699   6.237 -1.1990  0.3036  0.5502
   76SLPC   H7S 6857   6.534   1.527   6.231  0.4680  0.1764 -3.2421
   76SLPC   C28 6858   6.742   1.547   6.171 -0.4818 -0.3724 -0.2619
   76SLPC   H8R 6859   6.765   1.441   6.194  0.8224  0.0897  0.6875
   76SLPC   H8S 6860   6.827   1.607   6.210 -0.4700  0.6110 -1.7230
   76SLPC   C29 6861   6.716   1.563   6.020 -0.8452 -1.0525  0.6598
   76SLPC   H9R 6862   6.634   1.635   6.007  0.9282  0.8178 -0.7293
   76SLPC  C210 6863   6.770   1.501   5.921  0.2713  0.4220 -0.5162
   76SLPC  H10R 6864   6.739   1.534   5.821  0.6943  1.2243 -0.3861
   76SLPC  C211 6865   6.886   1.401   5.919  0.2211  0.4122 -0.1624
   76SLPC  H11R 6866   6.944   1.417   6.012  0.0393  1.0178 -0.1446
   76SLPC  H11S 6867   6.953   1.442   5.840 -1.5591  1.8427 -1.0185
   76SLPC  C212 6868   6.853   1.257   5.893  0.5137 -0.1325 -0.6089
   76SLPC  H12R 6869   6.761   1.245   5.834 -0.2967  2.2595  0.0260
   76SLPC  C213 6870   6.908   1.149   5.956 -0.0746 -0.4952 -0.1621
   76SLPC  H13R 6871   6.868   1.053   5.922 -1.6003  0.5773 -1.5213
   76SLPC  C214 6872   7.027   1.152   6.050  0.4635  0.0945 -0.1994
   76SLPC  H14R 6873   7.091   1.237   6.019  1.3932 -0.1822  0.8633
   76SLPC  H14S 6874   7.084   1.057   6.043 -0.3454 -0.4380  0.2418
   76SLPC  C215 6875   6.979   1.167   6.206  0.6789  0.1716  0.0346
   76SLPC  H15R 6876   6.904   1.087   6.223 -0.4007  0.5930 -2.3278
   76SLPC  H15S 6877   6.926   1.265   6.213 -1.7303 -0.8442 -2.1571
   76SLPC  C216 6878   7.087   1.157   6.311  0.1898 -0.3617 -0.2217
   76SLPC  H16R 6879   7.113   1.050   6.324 -0.6044 -0.5801 -0.3918
   76SLPC  H16S 6880   7.041   1.193   6.406 -0.8000  1.7428 -1.4264
   76SLPC  C217 6881   7.215   1.239   6.282  0.0216  0.4930 -0.0124
   76SLPC  H17R 6882   7.192   1.347   6.294 -0.6343  0.2337  1.2777
   76SLPC  H17S 6883   7.248   1.216   6.178  1.6086  0.0509  0.5561
   76SLPC  C218 6884   7.323   1.223   6.392  0.1375 -0.0454  0.1333
   76SLPC  H18R 6885   7.404   1.300   6.397 -0.6585  0.7549  1.0767
   76SLPC  H18S 6886   7.378   1.127   6.395  0.6361  0.1983 -0.6064
   76SLPC  H18T 6887   7.271   1.232   6.489  1.7498  0.4983  0.9740
   76SLPC   C33 6888   6.635   2.269   6.572  0.2110 -0.3989  0.4375
   76SLPC   H3X 6889   6.720   2.209   6.610 -0.1514 -1.5243 -0.4924
   76SLPC   H3Y 6890   6.665   2.376   6.565 -1.7453  0.1222 -0.6887
   76SLPC   C34 6891   6.625   2.227   6.417  0.3046 -0.1374  0.7516
   76SLPC   H4X 6892   6.707   2.265   6.352  1.5643 -1.3502  1.5744
   76SLPC   H4Y 6893   6.540   2.276   6.365  0.9049  0.5838  0.4397
   76SLPC   C35 6894   6.638   2.073   6.403  0.2109  0.0881 -0.1511
   76SLPC   H5X 6895   6.552   2.039   6.464  0.1198 -3.7524 -2.1080
   76SLPC   H5Y 6896   6.730   2.034   6.452 -0.2782 -2.7454 -1.2625
   76SLPC   C36 6897   6.620   2.021   6.254 -0.3731 -0.5385 -0.0196
   76SLPC   H6X 6898   6.537   2.079   6.210 -1.3008  0.1912  2.5019
   76SLPC   H6Y 6899   6.604   1.911   6.252 -1.8463 -0.4197  2.1859
   76SLPC   C37 6900   6.739   2.048   6.171 -1.0943  0.0388 -0.6974
   76SLPC   H7X 6901   6.821   1.978   6.197 -0.6685  1.3379  1.8547
   76SLPC   H7Y 6902   6.779   2.150   6.189  0.4561 -0.8164  1.0543
   76SLPC   C38 6903   6.718   2.037   6.022  0.0430 -0.3779 -0.2326
   76SLPC   H8X 6904   6.672   2.131   5.987 -0.0193 -0.4359 -0.3081
   76SLPC   H8Y 6905   6.656   1.945   6.008  0.0678 -0.0986 -2.6349
   76SLPC   C39 6906   6.850   2.009   5.950  1.0245  0.1178 -0.2254
   76SLPC   H9X 6907   6.893   1.915   5.991 -0.3968 -0.5511 -0.1730
   76SLPC   H9Y 6908   6.910   2.099   5.976  0.0166  0.9312 -0.6290
   76SLPC  C310 6909   6.834   1.979   5.801  0.1672  0.5503  0.6072
   76SLPC  H10X 6910   6.938   1.980   5.764 -0.0622 -0.7856 -0.1452
   76SLPC  H10Y 6911   6.767   2.058   5.759  0.3927  0.3463 -0.1651
   76SLPC  C311 6912   6.771   1.844   5.763  0.5468 -1.0456 -0.4330
   76SLPC  H11X 6913   6.664   1.840   5.792  0.8559 -1.9687  0.6187
   76SLPC  H11Y 6914   6.819   1.757   5.812  1.0963 -1.3681 -1.5151
   76SLPC  C312 6915   6.777   1.817   5.613 -0.6051 -0.8247 -0.7730
   76SLPC  H12X 6916   6.723   1.889   5.547 -1.5468 -1.1887 -0.4204
   76SLPC  H12Y 6917   6.731   1.716   5.612  1.0252 -1.7143  2.2760
   76SLPC  C313 6918   6.918   1.788   5.559  0.5326 -0.7403 -0.4569
   76SLPC  H13X 6919   6.973   1.711   5.618  0.8866 -0.1424  0.0103
   76SLPC  H13Y 6920   6.967   1.888   5.561  1.6031 -1.2329  2.0074
   76SLPC  C314 6921   6.910   1.748   5.409  0.2400  0.2063 -0.5113
   76SLPC  H14X 6922   6.854   1.828   5.356 -0.2025 -0.1386 -0.5756
   76SLPC  H14Y 6923   6.858   1.656   5.375 -1.0495  1.5657 -2.4260
   76SLPC  C315 6924   7.050   1.755   5.346  0.7109 -0.6079 -0.1606
   76SLPC  H15X 6925   7.108   1.685   5.409 -1.5057 -2.4315 -0.0239
   76SLPC  H15Y 6926   7.088   1.860   5.348 -0.3255 -0.2185 -0.0593
   76SLPC  C316 6927   7.027   1.718   5.194  0.6972 -0.2086 -0.9464
   76SLPC  H16X 6928   6.974   1.808   5.158  2.3750  0.4093 -2.0139
   76SLPC  H16Y 6929   6.960   1.631   5.176 -1.9636  1.6182 -0.3958
   76SLPC  C317 6930   7.165   1.718   5.122 -0.0817 -0.1021 -0.2096
   76SLPC  H17X 6931   7.240   1.742   5.201 -1.4285  1.1621  0.7290
   76SLPC  H17Y 6932   7.174   1.800   5.047  0.5633  0.2719  0.2646
   76SLPC  C318 6933   7.204   1.585   5.056  0.5959  0.2510  0.0447
   76SLPC  H18X 6934   7.200   1.499   5.126 -2.6929 -1.5541 -2.0678
   76SLPC  H18Y 6935   7.304   1.579   5.007  1.4067 -0.9039  1.7391
   76SLPC  H18Z 6936   7.125   1.546   4.988  0.2695  0.5474  0.2509
   77SLPC     N 6937   1.207   1.104   7.337 -0.3977 -0.0457  0.6013
   77SLPC   C13 6938   1.169   1.082   7.486 -0.5296 -0.0253  0.1473
   77SLPC  H13A 6939   1.167   0.979   7.517 -0.2416  0.2741  1.2266
   77SLPC  H13B 6940   1.232   1.146   7.546  0.3982 -0.3053 -0.5065
   77SLPC  H13C 6941   1.065   1.111   7.494 -0.9951 -1.5502 -0.0540
   77SLPC   C14 6942   1.220   1.251   7.315  0.2763 -0.9239 -0.5900
   77SLPC  H14A 6943   1.239   1.280   7.212  3.7067 -0.2846  0.1020
   77SLPC  H14B 6944   1.136   1.305   7.355  1.4728 -0.0103  0.7890
   77SLPC  H14C 6945   1.305   1.287   7.372  1.1226 -2.8015 -0.6132
   77SLPC   C15 6946   1.094   1.042   7.263 -0.0875 -0.0003 -0.5400
   77SLPC  H15A 6947   1.086   1.048   7.156 -1.0354  2.3895 -0.4038
   77SLPC  H15B 6948   1.106   0.937   7.288  2.4083 -0.0362 -1.6406
   77SLPC  H15C 6949   1.001   1.080   7.303  0.4149 -2.8388  4.0764
   77SLPC   C12 6950   1.339   1.039   7.297 -0.2362 -0.0695 -1.1183
   77SLPC  H12A 6951   1.361   1.063   7.194  0.5134 -1.5516 -1.3393
   77SLPC  H12B 6952   1.338   0.931   7.303  2.7779 -0.1260  0.3113
   77SLPC   C11 6953   1.465   1.079   7.379  1.2238  0.6145 -0.7080
   77SLPC  H11A 6954   1.542   1.009   7.340  0.3852 -1.3621  1.0031
   77SLPC  H11B 6955   1.449   1.037   7.481  0.8435  1.0687 -0.5769
   77SLPC     P 6956   1.612   1.268   7.299  0.1097 -0.0358  0.1973
   77SLPC   O13 6957   1.614   1.419   7.305 -0.1215 -0.5776  0.1607
   77SLPC   O14 6958   1.733   1.198   7.348 -0.4843  0.3884  0.7200
   77SLPC   O12 6959   1.492   1.216   7.374 -0.0786  0.8031  0.5008
   77SLPC   O11 6960   1.580   1.216   7.149 -0.3856 -0.4074 -0.0477
   77SLPC    C1 6961   1.480   1.278   7.070 -0.1681 -0.2119  0.1658
   77SLPC    HA 6962   1.407   1.198   7.042  0.6270 -0.2958 -1.8429
   77SLPC    HB 6963   1.440   1.367   7.121 -0.1690 -0.2043  0.1513
   77SLPC    C2 6964   1.545   1.321   6.936 -0.1493  0.6258  0.2255
   77SLPC    HS 6965   1.459   1.364   6.880  0.0408 -1.8438 -2.1795
   77SLPC   O21 6966   1.597   1.214   6.866 -0.5812  0.1347  0.1662
   77SLPC   C21 6967   1.518   1.121   6.804 -0.1626  0.6289  0.9441
   77SLPC   O22 6968   1.400   1.107   6.821  0.1304  0.1285 -0.6611
   77SLPC   C22 6969   1.596   1.023   6.715  0.5265 -0.1022 -0.0949
   77SLPC   H2R 6970   1.691   1.067   6.678  0.2569  1.8119  1.3200
   77SLPC   H2S 6971   1.625   0.931   6.771  4.4488  1.0644  0.0723
   77SLPC    C3 6972   1.655   1.429   6.953 -0.6305 -0.9082  0.6463
   77SLPC    HX 6973   1.746   1.385   6.998  0.0828  1.4593  1.6776
   77SLPC    HY 6974   1.615   1.510   7.019  1.0212 -0.1441  0.7501
   77SLPC   O31 6975   1.673   1.496   6.829  0.0886  0.0484  0.4506
   77SLPC   C31 6976   1.775   1.451   6.751 -0.2082  0.0195  0.6440
   77SLPC   O32 6977   1.841   1.349   6.768  0.2560 -0.6296  0.4418
   77SLPC   C32 6978   1.783   1.544   6.629 -0.4894  0.0649  0.1955
   77SLPC   H2X 6979   1.884   1.589   6.627 -0.8044  0.7784 -0.1008
   77SLPC   H2Y 6980   1.701   1.619   6.639 -0.7724 -0.3264  0.8564
   77SLPC   C23 6981   1.513   0.971   6.590 -0.0135  0.1118 -0.6428
   77SLPC   H3R 6982   1.408   0.941   6.612  0.6282 -1.0968  0.9634
   77SLPC   H3S 6983   1.559   0.885   6.537 -1.1412 -0.5203 -0.6331
   77SLPC   C24 6984   1.508   1.081   6.480 -0.1524 -0.3037  0.5580
   77SLPC   H4R 6985   1.473   1.172   6.532 -1.0177 -0.0162 -0.4699
   77SLPC   H4S 6986   1.434   1.046   6.404 -1.9240  0.5877  1.7983
   77SLPC   C25 6987   1.642   1.096   6.409 -0.0276 -0.4513 -0.9371
   77SLPC   H5R 6988   1.697   1.002   6.389 -0.6010 -0.7877 -0.9512
   77SLPC   H5S 6989   1.707   1.163   6.469 -1.4352  0.7509 -0.7004
   77SLPC   C26 6990   1.622   1.150   6.263 -0.9580 -0.4630 -0.0261
   77SLPC   H6R 6991   1.566   1.246   6.264 -1.5138 -0.7561 -1.2543
   77SLPC   H6S 6992   1.565   1.073   6.207 -0.1194 -0.3266 -1.0957
   77SLPC   C27 6993   1.752   1.184   6.187  0.7201 -0.1719 -0.7321
   77SLPC   H7R 6994   1.810   1.252   6.253  0.1473  1.2536 -1.6684
   77SLPC   H7S 6995   1.733   1.246   6.097 -0.7865 -0.3070 -0.5287
   77SLPC   C28 6996   1.843   1.065   6.150 -0.4499  0.1896 -0.4910
   77SLPC   H8R 6997   1.784   1.000   6.082  1.5556 -3.3273  0.9035
   77SLPC   H8S 6998   1.856   1.005   6.242 -0.5287 -0.6117 -0.9880
   77SLPC   C29 6999   1.978   1.108   6.094 -0.6139  0.4871  1.1910
   77SLPC   H9R 7000   2.051   1.151   6.165 -0.1854 -0.1646  1.1513
   77SLPC  C210 7001   2.022   1.103   5.966  0.3249 -0.6320 -0.1467
   77SLPC  H10R 7002   2.118   1.151   5.942  0.2994 -0.4047  0.2007
   77SLPC  C211 7003   1.945   1.068   5.845  0.2351  0.4053  0.7495
   77SLPC  H11R 7004   1.933   0.958   5.847  1.5115  0.1961 -0.7820
   77SLPC  H11S 7005   2.021   1.089   5.767  0.7194 -1.0105  0.8240
   77SLPC  C212 7006   1.819   1.135   5.808  0.1979  0.7874 -0.3076
   77SLPC  H12R 7007   1.778   1.206   5.881 -0.1248  0.7115 -0.4118
   77SLPC  C213 7008   1.756   1.103   5.692  0.4902  0.2618  0.3948
   77SLPC  H13R 7009   1.660   1.147   5.661 -0.9669 -2.7774  0.2037
   77SLPC  C214 7010   1.810   1.004   5.586 -1.3012  0.4749 -0.4017
   77SLPC  H14R 7011   1.746   0.915   5.568  3.1655 -2.8531 -1.6374
   77SLPC  H14S 7012   1.907   0.963   5.622 -1.3792  0.6981  0.0663
   77SLPC  C215 7013   1.850   1.066   5.448  0.0161  0.3883 -0.6271
   77SLPC  H15R 7014   1.893   0.990   5.379  0.2768  0.6832 -0.7888
   77SLPC  H15S 7015   1.924   1.145   5.471 -0.0692  0.5455 -0.8794
   77SLPC  C216 7016   1.720   1.127   5.391 -0.1896 -0.3682 -0.4454
   77SLPC  H16R 7017   1.754   1.184   5.302  1.3751 -0.9270 -0.2575
   77SLPC  H16S 7018   1.669   1.205   5.451  0.3409 -1.0139  0.8986
   77SLPC  C217 7019   1.608   1.023   5.350 -0.2410 -0.9806 -0.2548
   77SLPC  H17R 7020   1.585   0.968   5.444  1.8722 -1.1632  0.2113
   77SLPC  H17S 7021   1.643   0.947   5.277 -2.3262 -1.4948 -0.7925
   77SLPC  C218 7022   1.476   1.091   5.305  0.5597  0.2434 -0.4416
   77SLPC  H18R 7023   1.492   1.115   5.198  1.4506  0.1172 -0.3480
   77SLPC  H18S 7024   1.470   1.186   5.363  1.5643 -0.7883  1.4725
   77SLPC  H18T 7025   1.390   1.025   5.328  0.5776  1.0274  2.3344
   77SLPC   C33 7026   1.759   1.464   6.496  0.0102  0.2983 -0.8478
   77SLPC   H3X 7027   1.652   1.436   6.484  0.8050 -2.2672 -2.9885
   77SLPC   H3Y 7028   1.807   1.365   6.512 -0.6665  0.1526  0.3997
   77SLPC   C34 7029   1.806   1.527   6.372 -0.2737  0.1776  0.0066
   77SLPC   H4X 7030   1.865   1.451   6.316 -1.3767 -3.2965  3.1642
   77SLPC   H4Y 7031   1.868   1.616   6.399 -0.5400 -0.1457  1.7537
   77SLPC   C35 7032   1.691   1.585   6.290 -0.3460  0.1775 -0.1741
   77SLPC   H5X 7033   1.634   1.645   6.364  0.7548  1.1213 -0.0693
   77SLPC   H5Y 7034   1.626   1.502   6.254  1.5906 -0.9797 -1.1456
   77SLPC   C36 7035   1.719   1.672   6.166  0.3304 -0.0184  0.5528
   77SLPC   H6X 7036   1.761   1.770   6.198  0.6612 -0.3712  1.2263
   77SLPC   H6Y 7037   1.620   1.699   6.125  0.6099  0.1210 -0.0403
   77SLPC   C37 7038   1.803   1.608   6.061  0.5348 -0.3575 -0.7604
   77SLPC   H7X 7039   1.752   1.516   6.027 -1.1514 -0.3764  1.5818
   77SLPC   H7Y 7040   1.898   1.579   6.111  0.9407 -0.8887 -1.8088
   77SLPC   C38 7041   1.833   1.696   5.936 -0.0088  0.1712  0.5436
   77SLPC   H8X 7042   1.891   1.786   5.965 -0.1623  0.2089  0.7402
   77SLPC   H8Y 7043   1.740   1.742   5.897  0.7941 -0.1521 -1.8744
   77SLPC   C39 7044   1.901   1.613   5.829 -0.0918  0.0456  0.2194
   77SLPC   H9X 7045   1.851   1.514   5.824 -0.2711 -0.0515  2.6285
   77SLPC   H9Y 7046   2.008   1.595   5.856 -0.5298  0.8211  2.6985
   77SLPC  C310 7047   1.891   1.668   5.687 -0.6393  0.1907  0.8265
   77SLPC  H10X 7048   1.988   1.710   5.653 -0.4424 -0.6833  0.2481
   77SLPC  H10Y 7049   1.818   1.750   5.673 -2.1037 -1.1621  0.1810
   77SLPC  C311 7050   1.847   1.561   5.584 -0.4970 -0.0405 -0.4595
   77SLPC  H11X 7051   1.738   1.550   5.602 -0.1135 -3.0441  0.6273
   77SLPC  H11Y 7052   1.892   1.461   5.605 -0.4607  0.0043 -0.3245
   77SLPC  C312 7053   1.889   1.602   5.445 -0.5732  0.1459  0.4716
   77SLPC  H12X 7054   2.000   1.599   5.437 -0.7074  0.5998 -4.5243
   77SLPC  H12Y 7055   1.856   1.707   5.439 -0.0966  0.4489  2.4589
   77SLPC  C313 7056   1.824   1.522   5.330 -0.7219 -0.2935 -0.1403
   77SLPC  H13X 7057   1.822   1.417   5.366 -1.4712 -0.8409 -1.6742
   77SLPC  H13Y 7058   1.883   1.507   5.237  0.8594 -1.9477  1.0537
   77SLPC  C314 7059   1.687   1.568   5.301  0.0668  0.5198  0.5760
   77SLPC  H14X 7060   1.689   1.663   5.242  0.6661  0.4851  0.5349
   77SLPC  H14Y 7061   1.649   1.597   5.401 -2.1569 -0.2859  0.0268
   77SLPC  C315 7062   1.583   1.466   5.247 -0.4601  0.3993 -0.6816
   77SLPC  H15X 7063   1.590   1.382   5.320  0.7008  0.4222 -0.7581
   77SLPC  H15Y 7064   1.612   1.423   5.149  0.6718  1.1735 -0.6970
   77SLPC  C316 7065   1.437   1.524   5.233 -0.0753  0.7964  0.5670
   77SLPC  H16X 7066   1.445   1.624   5.185 -1.9413  0.6280 -0.1995
   77SLPC  H16Y 7067   1.397   1.530   5.336 -0.2056  1.9069  0.4613
   77SLPC  C317 7068   1.346   1.422   5.157  1.1489 -0.4784 -0.0481
   77SLPC  H17X 7069   1.358   1.322   5.203 -0.7948 -1.1624 -0.9222
   77SLPC  H17Y 7070   1.374   1.418   5.049 -3.4508  0.3509 -1.5214
   77SLPC  C318 7071   1.196   1.467   5.161 -0.1011 -0.0885 -0.2520
   77SLPC  H18X 7072   1.171   1.475   5.269 -2.9711  0.1247 -0.8602
   77SLPC  H18Y 7073   1.129   1.396   5.108 -1.1340  1.0944 -0.6004
   77SLPC  H18Z 7074   1.185   1.567   5.113  2.5516 -1.3494 -3.9665
   78SLPC     N 7075   3.771   5.234   7.043 -0.5723 -0.7238 -0.3902
   78SLPC   C13 7076   3.624   5.238   7.040  0.6783 -0.9195  0.0169
   78SLPC  H13A 7077   3.578   5.218   7.136  0.3650  0.6655  0.2120
   78SLPC  H13B 7078   3.588   5.335   7.011  0.8156 -0.6160  0.8484
   78SLPC  H13C 7079   3.583   5.159   6.978  0.4870 -1.6349  1.0298
   78SLPC   C14 7080   3.824   5.354   7.125  0.2148 -0.0436  0.1880
   78SLPC  H14A 7081   3.778   5.351   7.222 -0.4266  0.8855 -0.0811
   78SLPC  H14B 7082   3.929   5.339   7.146  0.4262  0.3005 -0.5840
   78SLPC  H14C 7083   3.807   5.448   7.074 -0.2736 -0.6363 -0.7780
   78SLPC   C15 7084   3.825   5.234   6.901 -0.2709  0.3700 -0.6424
   78SLPC  H15A 7085   3.800   5.316   6.836 -0.3196  1.9401  1.2601
   78SLPC  H15B 7086   3.932   5.221   6.893 -0.5577 -1.7413 -1.7371
   78SLPC  H15C 7087   3.783   5.145   6.856  2.9557 -1.1389 -0.9956
   78SLPC   C12 7088   3.807   5.115   7.125  0.2161  0.1284  0.1691
   78SLPC  H12A 7089   3.759   5.115   7.222  0.9910 -1.4829  0.5871
   78SLPC  H12B 7090   3.912   5.126   7.148  0.0639  1.1923  0.3714
   78SLPC   C11 7091   3.787   4.977   7.054 -0.4978 -0.0087  0.0524
   78SLPC  H11A 7092   3.838   4.899   7.114  1.3331 -0.0535 -1.4474
   78SLPC  H11B 7093   3.846   4.983   6.960 -2.9089  2.0061 -1.4517
   78SLPC     P 7094   3.579   4.815   7.060  0.3493  0.0326 -0.3121
   78SLPC   O13 7095   3.633   4.756   7.187  0.1257 -0.0148  0.3151
   78SLPC   O14 7096   3.432   4.848   7.087 -0.5757  0.5113 -0.5959
   78SLPC   O12 7097   3.650   4.943   7.029 -0.3204 -0.3680  0.5619
   78SLPC   O11 7098   3.605   4.712   6.944  0.3292  0.1869  0.5881
   78SLPC    C1 7099   3.732   4.643   6.929  0.4420  0.7928  0.2833
   78SLPC    HA 7100   3.821   4.710   6.929 -0.6646  2.3051 -0.0932
   78SLPC    HB 7101   3.748   4.577   7.017 -0.6033 -2.2927 -1.6612
   78SLPC    C2 7102   3.741   4.552   6.804 -0.1837 -0.2780 -0.2825
   78SLPC    HS 7103   3.839   4.499   6.814 -2.5443 -4.9048  1.2964
   78SLPC   O21 7104   3.733   4.632   6.686 -0.7631 -0.5803  0.6764
   78SLPC   C21 7105   3.847   4.690   6.645  0.3400  0.5949 -0.6782
   78SLPC   O22 7106   3.954   4.681   6.702  0.2995 -0.5772 -0.1463
   78SLPC   C22 7107   3.825   4.767   6.522  0.1540 -0.1277 -0.4939
   78SLPC   H2R 7108   3.750   4.841   6.559  1.4164  0.4992  0.9611
   78SLPC   H2S 7109   3.916   4.826   6.499 -0.4595  0.2723 -2.0203
   78SLPC    C3 7110   3.628   4.449   6.808  0.5397 -0.8915  0.3235
   78SLPC    HX 7111   3.538   4.514   6.814  0.7473 -0.7112  2.3053
   78SLPC    HY 7112   3.627   4.396   6.905 -0.0946  1.0696  1.4447
   78SLPC   O31 7113   3.639   4.366   6.691 -0.3288  0.0121 -0.8275
   78SLPC   C31 7114   3.531   4.362   6.610  0.2589  0.2459  0.2743
   78SLPC   O32 7115   3.424   4.417   6.637  0.2892  0.4664  0.3139
   78SLPC   C32 7116   3.549   4.277   6.480 -0.3029  0.1827 -0.3592
   78SLPC   H2X 7117   3.526   4.169   6.493 -0.0189 -0.2315 -2.8128
   78SLPC   H2Y 7118   3.656   4.286   6.450 -0.0365  1.4906  0.8221
   78SLPC   C23 7119   3.780   4.682   6.397 -0.4346 -0.0627  0.3802
   78SLPC   H3R 7120   3.698   4.612   6.424  0.9383 -2.3909 -1.0930
   78SLPC   H3S 7121   3.866   4.615   6.374 -0.0908  0.0843  1.2368
   78SLPC   C24 7122   3.747   4.763   6.281  1.3367 -0.7384  0.7325
   78SLPC   H4R 7123   3.839   4.820   6.253  0.5497 -0.0113 -0.4483
   78SLPC   H4S 7124   3.671   4.838   6.313  1.3144  0.1657 -1.2873
   78SLPC   C25 7125   3.696   4.682   6.165  0.4651 -0.1437 -0.3371
   78SLPC   H5R 7126   3.588   4.659   6.181 -0.9646  3.3757 -3.3891
   78SLPC   H5S 7127   3.763   4.595   6.148  0.7426  0.0869 -0.4273
   78SLPC   C26 7128   3.681   4.764   6.042 -0.0365  0.4559 -0.0475
   78SLPC   H6R 7129   3.772   4.817   6.007  1.0545 -1.4477 -0.2379
   78SLPC   H6S 7130   3.612   4.849   6.063  2.5052  3.2501 -2.1388
   78SLPC   C27 7131   3.627   4.680   5.929  0.5560 -0.9235 -0.7425
   78SLPC   H7R 7132   3.518   4.699   5.925  0.3294 -1.9922  0.1243
   78SLPC   H7S 7133   3.647   4.573   5.950 -0.7244 -1.0896 -0.2979
   78SLPC   C28 7134   3.684   4.719   5.793  0.2998  0.6537 -0.1400
   78SLPC   H8R 7135   3.773   4.653   5.797 -0.3850 -0.2800  0.0850
   78SLPC   H8S 7136   3.714   4.825   5.780  2.5583 -0.1414 -2.3094
   78SLPC   C29 7137   3.605   4.674   5.662 -0.4397  0.1565 -0.1022
   78SLPC   H9R 7138   3.524   4.603   5.683  1.2309 -1.2297  2.1447
   78SLPC  C210 7139   3.626   4.724   5.542 -0.0511  0.3865 -0.8993
   78SLPC  H10R 7140   3.564   4.684   5.460 -0.8695 -2.2955  0.9123
   78SLPC  C211 7141   3.736   4.823   5.505  0.2867 -0.5618 -0.0377
   78SLPC  H11R 7142   3.800   4.776   5.427 -0.4112  0.6062 -1.3636
   78SLPC  H11S 7143   3.809   4.841   5.587  1.1371  2.6533 -1.3500
   78SLPC  C212 7144   3.676   4.947   5.452 -0.1864  0.2026  0.1535
   78SLPC  H12R 7145   3.649   5.016   5.533 -0.5603  0.8237 -0.4892
   78SLPC  C213 7146   3.648   4.979   5.318 -0.0945 -0.2306 -0.0032
   78SLPC  H13R 7147   3.595   5.074   5.299  0.2730 -0.3655 -2.0123
   78SLPC  C214 7148   3.686   4.898   5.197 -0.1134 -0.6013 -0.6116
   78SLPC  H14R 7149   3.754   4.815   5.226  1.1670  0.7904  0.5067
   78SLPC  H14S 7150   3.754   4.951   5.128 -0.9371  0.0154 -0.9634
   78SLPC  C215 7151   3.576   4.841   5.108  0.0207  0.0674 -0.1693
   78SLPC  H15R 7152   3.629   4.794   5.023  0.4545  1.4105 -0.6696
   78SLPC  H15S 7153   3.511   4.921   5.066  1.9598  1.1441 -1.2393
   78SLPC  C216 7154   3.490   4.731   5.179  0.5981 -0.1145  0.0305
   78SLPC  H16R 7155   3.401   4.780   5.225  0.5805  0.7958 -0.9504
   78SLPC  H16S 7156   3.554   4.682   5.255  0.3565  1.4247  1.2931
   78SLPC  C217 7157   3.427   4.624   5.094  0.7556 -0.3305 -0.3677
   78SLPC  H17R 7158   3.386   4.553   5.169 -1.6708  2.1111  0.7797
   78SLPC  H17S 7159   3.506   4.575   5.033  2.2389 -1.0779  2.0101
   78SLPC  C218 7160   3.317   4.681   5.000  0.6741 -0.0752 -0.0203
   78SLPC  H18R 7161   3.242   4.731   5.065  0.1739  0.0054 -0.6416
   78SLPC  H18S 7162   3.260   4.600   4.950  0.0293 -0.2395  0.9579
   78SLPC  H18T 7163   3.354   4.748   4.919 -2.2745  0.7652 -0.8058
   78SLPC   C33 7164   3.485   4.344   6.360  0.4466  0.2144  0.2955
   78SLPC   H3X 7165   3.493   4.455   6.364  0.8960  0.1852  0.1704
   78SLPC   H3Y 7166   3.378   4.311   6.358  0.8757 -1.2501 -2.2085
   78SLPC   C34 7167   3.554   4.295   6.233  0.3725 -1.0044 -0.2242
   78SLPC   H4X 7168   3.550   4.185   6.229 -3.5817 -1.3173  3.9214
   78SLPC   H4Y 7169   3.657   4.336   6.221 -0.7675  1.4531 -2.7825
   78SLPC   C35 7170   3.477   4.354   6.105  0.0703 -0.8379 -0.7034
   78SLPC   H5X 7171   3.478   4.465   6.104 -0.0536 -0.8430 -1.5702
   78SLPC   H5Y 7172   3.372   4.320   6.116 -1.3317  2.3850 -2.8302
   78SLPC   C36 7173   3.531   4.305   5.973  0.2958  0.6626  0.0347
   78SLPC   H6X 7174   3.544   4.194   5.981 -2.3014  0.3554  1.0650
   78SLPC   H6Y 7175   3.633   4.349   5.966  0.8027 -0.1567  1.7273
   78SLPC   C37 7176   3.454   4.343   5.846 -0.9963  0.1336 -0.6225
   78SLPC   H7X 7177   3.440   4.453   5.848 -1.6035  0.0729  1.9777
   78SLPC   H7Y 7178   3.349   4.308   5.847 -2.1930  3.2186  2.2052
   78SLPC   C38 7179   3.517   4.299   5.715 -0.2930 -0.6418  0.1437
   78SLPC   H8X 7180   3.538   4.191   5.733  2.1507 -0.5092 -1.4921
   78SLPC   H8Y 7181   3.608   4.360   5.699  1.0334 -2.2472  1.1891
   78SLPC   C39 7182   3.431   4.315   5.597  0.3401 -0.2945 -0.1770
   78SLPC   H9X 7183   3.412   4.422   5.575 -0.1150 -0.3199  0.0665
   78SLPC   H9Y 7184   3.334   4.266   5.621  0.7643  0.1447  2.6906
   78SLPC  C310 7185   3.502   4.265   5.468  0.8138  0.2535  0.0767
   78SLPC  H10X 7186   3.426   4.222   5.399  1.4713 -0.6895 -0.0756
   78SLPC  H10Y 7187   3.570   4.180   5.488  0.9222  0.1273 -0.7873
   78SLPC  C311 7188   3.573   4.374   5.389 -0.5580 -0.0547 -0.7180
   78SLPC  H11X 7189   3.640   4.439   5.450 -1.0998 -0.6944  0.5834
   78SLPC  H11Y 7190   3.487   4.430   5.347 -1.7520 -2.0286 -1.0149
   78SLPC  C312 7191   3.664   4.320   5.273 -0.0808  0.2809 -0.0198
   78SLPC  H12X 7192   3.605   4.234   5.235  0.7126 -0.3175  0.0914
   78SLPC  H12Y 7193   3.757   4.273   5.311 -0.7330  0.6814  2.1993
   78SLPC  C313 7194   3.712   4.413   5.159  0.2660 -0.5126 -0.4068
   78SLPC  H13X 7195   3.823   4.423   5.158  0.4095 -1.9691 -0.4510
   78SLPC  H13Y 7196   3.670   4.514   5.178 -0.5172 -0.8750 -0.1711
   78SLPC  C314 7197   3.654   4.379   5.019 -0.2817  0.8121  0.1599
   78SLPC  H14X 7198   3.543   4.374   5.024 -0.2918  0.0859 -0.6385
   78SLPC  H14Y 7199   3.693   4.279   4.992 -0.7534  1.0345 -1.4202
   78SLPC  C315 7200   3.703   4.481   4.913  0.1553  0.4824  0.1948
   78SLPC  H15X 7201   3.812   4.463   4.925  0.1145 -0.2175 -0.3874
   78SLPC  H15Y 7202   3.670   4.586   4.923 -2.8918 -0.4591  0.9910
   78SLPC  C316 7203   3.658   4.439   4.771 -0.4296 -0.3097  0.3618
   78SLPC  H16X 7204   3.550   4.414   4.759 -0.5412 -0.3174  1.3002
   78SLPC  H16Y 7205   3.716   4.348   4.745  0.0446  0.3040 -0.8405
   78SLPC  C317 7206   3.708   4.538   4.668 -0.2126 -0.1421  0.0709
   78SLPC  H17X 7207   3.812   4.567   4.691 -0.6518  0.4824  1.4037
   78SLPC  H17Y 7208   3.640   4.623   4.692 -1.3662 -0.9684 -0.1300
   78SLPC  C318 7209   3.696   4.488   4.524  0.6490 -0.2074  0.7468
   78SLPC  H18X 7210   3.649   4.387   4.527  0.1903 -0.0462 -0.4756
   78SLPC  H18Y 7211   3.793   4.479   4.471  0.1291  0.0907 -0.2803
   78SLPC  H18Z 7212   3.623   4.553   4.471 -0.7548 -1.3570  1.2077
   79SLPC     N 7213   0.766   2.260   7.466 -0.4460  0.3162  0.5937
   79SLPC   C13 7214   0.637   2.277   7.533 -0.2033  0.2113 -0.3495
   79SLPC  H13A 7215   0.561   2.235   7.468  0.5971 -0.2403 -1.0018
   79SLPC  H13B 7216   0.645   2.216   7.622 -0.6918  0.2541 -0.2701
   79SLPC  H13C 7217   0.608   2.381   7.541  0.5193  0.6089 -2.4014
   79SLPC   C14 7218   0.764   2.325   7.328  0.3177 -0.4748  0.3658
   79SLPC  H14A 7219   0.861   2.334   7.282 -0.6990  1.6990 -1.5414
   79SLPC  H14B 7220   0.706   2.280   7.249 -0.4631  2.6464 -0.9868
   79SLPC  H14C 7221   0.731   2.427   7.340  2.9133  0.4029  0.7181
   79SLPC   C15 7222   0.799   2.121   7.434 -0.1866  0.6370  0.1598
   79SLPC  H15A 7223   0.799   2.058   7.522  1.7152  1.2963  0.6930
   79SLPC  H15B 7224   0.724   2.082   7.367  0.1252  2.0218 -1.0466
   79SLPC  H15C 7225   0.897   2.114   7.389 -0.0119  1.4363  0.4008
   79SLPC   C12 7226   0.866   2.331   7.553 -1.1429  0.5989 -0.4728
   79SLPC  H12A 7227   0.961   2.301   7.513 -1.0448 -0.5008  0.5374
   79SLPC  H12B 7228   0.865   2.298   7.655  1.5057 -1.3250 -0.9635
   79SLPC   C11 7229   0.862   2.486   7.564 -0.3479 -0.2967  0.0678
   79SLPC  H11A 7230   0.913   2.532   7.477 -1.1221 -0.2751 -0.3893
   79SLPC  H11B 7231   0.923   2.516   7.652  1.4100 -0.3071 -1.0994
   79SLPC     P 7232   0.667   2.656   7.517  0.1103 -0.4252  0.2150
   79SLPC   O13 7233   0.524   2.672   7.562  0.3958  0.3487 -0.1149
   79SLPC   O14 7234   0.754   2.779   7.520  0.5750  0.4455 -0.7650
   79SLPC   O12 7235   0.734   2.543   7.596  0.8211  0.0637  0.2446
   79SLPC   O11 7236   0.671   2.601   7.376 -0.1351  0.5600  0.1210
   79SLPC    C1 7237   0.621   2.681   7.265 -0.1149  0.0325 -0.8617
   79SLPC    HA 7238   0.512   2.698   7.282 -0.2634 -1.2241 -0.4026
   79SLPC    HB 7239   0.670   2.780   7.265  0.0613 -0.0534 -0.9884
   79SLPC    C2 7240   0.611   2.603   7.126 -0.8650  0.3962  0.5127
   79SLPC    HS 7241   0.550   2.511   7.134 -1.9843  1.2124  1.9966
   79SLPC   O21 7242   0.748   2.581   7.092  0.2338 -0.1458  0.6787
   79SLPC   C21 7243   0.768   2.469   7.016  0.3040 -0.4558 -0.0825
   79SLPC   O22 7244   0.684   2.391   6.981  0.2677  0.1174  0.0874
   79SLPC   C22 7245   0.916   2.455   6.984 -0.0272  0.2693 -0.4393
   79SLPC   H2R 7246   0.958   2.549   7.025 -1.4171  1.0589 -0.7443
   79SLPC   H2S 7247   0.952   2.375   7.052 -0.1663 -0.2277 -0.9379
   79SLPC    C3 7248   0.549   2.699   7.021  0.5061  0.1308 -0.5366
   79SLPC    HX 7249   0.576   2.802   7.050 -0.3259  0.0426  0.6293
   79SLPC    HY 7250   0.438   2.701   7.032  0.2579 -0.7057 -2.4605
   79SLPC   O31 7251   0.593   2.668   6.891 -1.0269  0.2626 -0.1659
   79SLPC   C31 7252   0.513   2.584   6.823  0.2905 -0.2265  0.2029
   79SLPC   O32 7253   0.400   2.556   6.861  0.1419  0.4869  0.5353
   79SLPC   C32 7254   0.574   2.544   6.694  0.3087  0.7927  0.7062
   79SLPC   H2X 7255   0.506   2.468   6.650 -0.3350  0.6451  1.9158
   79SLPC   H2Y 7256   0.679   2.509   6.702 -0.1985 -1.3534 -1.0545
   79SLPC   C23 7257   0.968   2.442   6.840  0.0305  0.0625 -0.0285
   79SLPC   H3R 7258   0.901   2.385   6.772  0.1157 -1.0214  0.7788
   79SLPC   H3S 7259   1.058   2.377   6.831 -1.5631 -2.2793  0.1992
   79SLPC   C24 7260   0.989   2.583   6.777  0.5986  0.1522 -0.4767
   79SLPC   H4R 7261   1.044   2.653   6.843  0.2169 -1.7753  2.0277
   79SLPC   H4S 7262   0.886   2.620   6.756 -1.2253 -3.3760  1.3228
   79SLPC   C25 7263   1.063   2.574   6.643 -0.0294  0.0945  0.1172
   79SLPC   H5R 7264   1.004   2.506   6.577 -0.7020 -0.1780  0.9787
   79SLPC   H5S 7265   1.162   2.528   6.663  0.3227  1.5522  1.8886
   79SLPC   C26 7266   1.071   2.709   6.566  0.1066 -0.5664  0.8003
   79SLPC   H6R 7267   1.131   2.780   6.627  0.5071 -0.1660 -0.0468
   79SLPC   H6S 7268   0.973   2.755   6.545 -0.0298 -1.0542  0.3575
   79SLPC   C27 7269   1.134   2.681   6.425  0.0352  0.6867 -0.5255
   79SLPC   H7R 7270   1.082   2.594   6.378 -2.8439  1.1024  1.5796
   79SLPC   H7S 7271   1.238   2.650   6.448 -0.7744 -0.4773  1.9482
   79SLPC   C28 7272   1.129   2.797   6.324  0.3995 -0.2281 -0.6876
   79SLPC   H8R 7273   1.024   2.832   6.325  0.3649 -0.2999  1.1772
   79SLPC   H8S 7274   1.156   2.756   6.224  1.5961 -1.9459  0.2855
   79SLPC   C29 7275   1.227   2.912   6.354  0.1001 -0.2921 -0.3261
   79SLPC   H9R 7276   1.230   2.941   6.460 -0.0540 -0.7533 -0.1918
   79SLPC  C210 7277   1.299   2.978   6.271  0.1880 -0.1623  0.0900
   79SLPC  H10R 7278   1.364   3.046   6.328  0.7194  0.2809 -1.0141
   79SLPC  C211 7279   1.310   2.965   6.125  0.1694  0.5601 -0.0519
   79SLPC  H11R 7280   1.280   2.864   6.090  0.5380  0.7518 -0.9610
   79SLPC  H11S 7281   1.419   2.967   6.101  0.6189  0.1579  1.8337
   79SLPC  C212 7282   1.232   3.061   6.040 -0.7775 -0.4106  0.0472
   79SLPC  H12R 7283   1.171   3.135   6.094 -0.0461 -0.9050  1.6158
   79SLPC  C213 7284   1.237   3.072   5.907  0.5343  0.4950  0.7409
   79SLPC  H13R 7285   1.184   3.151   5.851 -1.0653 -0.4967  0.7730
   79SLPC  C214 7286   1.324   2.983   5.817  0.1054 -0.4482 -0.4855
   79SLPC  H14R 7287   1.263   2.917   5.751  0.1096  1.9868 -3.1184
   79SLPC  H14S 7288   1.393   2.924   5.881 -0.7288  2.1308  3.0966
   79SLPC  C215 7289   1.400   3.059   5.709  0.8275  0.0547 -0.1688
   79SLPC  H15R 7290   1.484   2.993   5.676  0.6009 -1.7605  2.5383
   79SLPC  H15S 7291   1.443   3.154   5.748  2.0027 -0.9043  0.9648
   79SLPC  C216 7292   1.319   3.078   5.580 -0.6261 -0.3902 -0.1442
   79SLPC  H16R 7293   1.233   3.145   5.603  0.9465  1.3448  0.9758
   79SLPC  H16S 7294   1.282   2.978   5.547 -0.4256 -0.4127 -0.3041
   79SLPC  C217 7295   1.392   3.157   5.472  0.4150  0.4542  0.1870
   79SLPC  H17R 7296   1.485   3.103   5.443  1.2029  1.7644  0.1759
   79SLPC  H17S 7297   1.420   3.256   5.514 -1.2949  0.7665  0.6712
   79SLPC  C218 7298   1.310   3.179   5.343  0.3322 -0.2607  0.4915
   79SLPC  H18R 7299   1.220   3.233   5.379  0.7159  0.7337  0.0036
   79SLPC  H18S 7300   1.277   3.085   5.295 -0.7766  1.2494 -1.8862
   79SLPC  H18T 7301   1.362   3.241   5.267 -1.0976 -0.7728 -0.9631
   79SLPC   C33 7302   0.569   2.657   6.589 -0.0491 -0.1468  0.2074
   79SLPC   H3X 7303   0.583   2.756   6.636 -2.7556  0.5225 -0.2795
   79SLPC   H3Y 7304   0.467   2.660   6.546 -0.7059 -1.3551  1.6200
   79SLPC   C34 7305   0.678   2.632   6.481  0.5693  0.2394  0.2013
   79SLPC   H4X 7306   0.704   2.524   6.473 -1.3687 -0.1755 -1.2249
   79SLPC   H4Y 7307   0.779   2.672   6.507  1.0083 -1.0070  0.5070
   79SLPC   C35 7308   0.622   2.671   6.344  0.0087 -0.1140  0.2833
   79SLPC   H5X 7309   0.582   2.773   6.356  1.7912  0.9146 -1.8164
   79SLPC   H5Y 7310   0.536   2.608   6.313 -1.0277 -0.1248  2.9114
   79SLPC   C36 7311   0.730   2.679   6.235 -0.0369 -0.6697  0.2090
   79SLPC   H6X 7312   0.762   2.583   6.188  2.6402  1.3130 -2.3721
   79SLPC   H6Y 7313   0.820   2.721   6.284 -0.0670  1.4589 -1.4539
   79SLPC   C37 7314   0.705   2.773   6.115  0.7672  0.2393 -0.3980
   79SLPC   H7X 7315   0.635   2.852   6.147  1.5536  1.1586 -0.8922
   79SLPC   H7Y 7316   0.636   2.719   6.046 -1.2074  1.4147  0.5782
   79SLPC   C38 7317   0.819   2.823   6.042 -0.3846 -0.2028  0.5205
   79SLPC   H8X 7318   0.886   2.746   5.998  1.0812  1.6641 -0.7170
   79SLPC   H8Y 7319   0.881   2.881   6.115  0.7750 -1.5987  0.6897
   79SLPC   C39 7320   0.786   2.919   5.928  0.2439 -0.3333  0.6607
   79SLPC   H9X 7321   0.709   2.994   5.956 -1.4830 -0.9292 -2.1124
   79SLPC   H9Y 7322   0.736   2.854   5.853  0.5365 -1.5201  1.4744
   79SLPC  C310 7323   0.909   2.985   5.869 -0.3077 -0.2085  0.5485
   79SLPC  H10X 7324   0.992   2.912   5.879  0.1232  0.4661  2.2085
   79SLPC  H10Y 7325   0.930   3.074   5.932 -3.0818  0.1040  1.1651
   79SLPC  C311 7326   0.904   3.031   5.719  0.1615  0.2196 -0.0861
   79SLPC  H11X 7327   0.981   3.110   5.703 -0.5047  0.5138 -2.0814
   79SLPC  H11Y 7328   0.815   3.080   5.675  0.7764  0.2826 -1.3225
   79SLPC  C312 7329   0.925   2.925   5.607 -0.2635 -0.3679  0.4312
   79SLPC  H12X 7330   0.844   2.850   5.605 -1.1819  0.6055 -0.2458
   79SLPC  H12Y 7331   1.022   2.873   5.621  0.0468  0.3614  1.1224
   79SLPC  C313 7332   0.935   2.983   5.464  0.7349  0.3362  0.6036
   79SLPC  H13X 7333   1.033   3.035   5.465  1.2093 -0.5365  0.1695
   79SLPC  H13Y 7334   0.850   3.053   5.446  0.6422  0.2764  0.8145
   79SLPC  C314 7335   0.928   2.874   5.354 -0.7447  0.5060 -0.4491
   79SLPC  H14X 7336   0.915   2.932   5.261 -0.8295  2.1353  0.5446
   79SLPC  H14Y 7337   0.840   2.807   5.363  1.2247 -2.8400 -3.3592
   79SLPC  C315 7338   1.052   2.790   5.349 -0.0872 -0.3788 -0.7490
   79SLPC  H15X 7339   1.072   2.729   5.440 -0.8529  1.3190  0.6300
   79SLPC  H15Y 7340   1.134   2.864   5.356 -0.2723 -0.2771  0.6666
   79SLPC  C316 7341   1.079   2.706   5.222  0.1021 -0.4818  0.1529
   79SLPC  H16X 7342   1.076   2.771   5.132  2.4230 -2.2842 -1.3298
   79SLPC  H16Y 7343   0.998   2.630   5.217  0.4306 -0.8360  0.2404
   79SLPC  C317 7344   1.213   2.628   5.235 -0.0098  0.8813 -0.6511
   79SLPC  H17X 7345   1.216   2.559   5.148  0.3568 -3.5552  2.4918
   79SLPC  H17Y 7346   1.193   2.563   5.323 -1.6627  1.3053 -0.6883
   79SLPC  C318 7347   1.343   2.707   5.254  0.4028  0.1716  0.0448
   79SLPC  H18X 7348   1.353   2.788   5.179  0.4763  0.1920  0.0759
   79SLPC  H18Y 7349   1.433   2.642   5.242  0.6927  0.3452  1.1565
   79SLPC  H18Z 7350   1.352   2.752   5.355  0.5304 -1.4280  0.7896
   80SLPC     N 7351   0.493   6.189   7.393  0.2628 -0.1393  0.4548
   80SLPC   C13 7352   0.585   6.091   7.331 -0.4220 -0.5794 -0.6279
   80SLPC  H13A 7353   0.540   6.041   7.247 -1.2333  1.1652 -1.2982
   80SLPC  H13B 7354   0.667   6.144   7.284 -1.2608  1.3117 -0.0490
   80SLPC  H13C 7355   0.620   6.018   7.402  1.4948  0.7077 -0.1788
   80SLPC   C14 7356   0.562   6.312   7.438  0.3343 -0.7338  0.2250
   80SLPC  H14A 7357   0.499   6.395   7.466  1.7978  0.4936  0.0266
   80SLPC  H14B 7358   0.619   6.293   7.528  1.7014 -0.8776 -0.6363
   80SLPC  H14C 7359   0.630   6.353   7.366  2.6658 -1.5887  1.8049
   80SLPC   C15 7360   0.437   6.125   7.518  0.2777 -0.0499 -0.0449
   80SLPC  H15A 7361   0.377   6.042   7.486  0.8042 -0.5005  0.1164
   80SLPC  H15B 7362   0.518   6.089   7.580 -0.5889  0.6150  1.5402
   80SLPC  H15C 7363   0.368   6.187   7.573  0.6647  0.9656 -0.6691
   80SLPC   C12 7364   0.379   6.229   7.297 -0.6382 -0.5968 -0.3136
   80SLPC  H12A 7365   0.329   6.134   7.288  1.9274 -2.3745  2.4904
   80SLPC  H12B 7366   0.424   6.267   7.207  2.0952  1.2435  1.6937
   80SLPC   C11 7367   0.278   6.333   7.339  0.1415  0.1910 -0.4064
   80SLPC  H11A 7368   0.230   6.297   7.432 -0.0712  0.2301 -0.4995
   80SLPC  H11B 7369   0.202   6.353   7.259  1.7266  1.7037 -1.6109
   80SLPC     P 7370   0.399   6.549   7.250 -0.1119 -1.0733 -0.5016
   80SLPC   O13 7371   0.281   6.625   7.194 -0.2146 -0.0241  0.1867
   80SLPC   O14 7372   0.507   6.636   7.299  0.0920 -0.2404 -0.1319
   80SLPC   O12 7373   0.347   6.453   7.360 -0.0293 -0.0932  0.0846
   80SLPC   O11 7374   0.453   6.457   7.137  0.0586  0.0569 -0.1284
   80SLPC    C1 7375   0.541   6.518   7.044 -0.0018 -0.0925  1.3112
   80SLPC    HA 7376   0.509   6.619   7.012 -0.9261 -0.3305  1.4479
   80SLPC    HB 7377   0.644   6.509   7.086  1.3894 -0.6675 -1.9657
   80SLPC    C2 7378   0.543   6.426   6.918 -0.1230  0.0891 -0.2197
   80SLPC    HS 7379   0.621   6.461   6.847  1.2241 -0.9552  0.6966
   80SLPC   O21 7380   0.410   6.411   6.867  0.1484  0.3582 -0.3612
   80SLPC   C21 7381   0.412   6.392   6.736 -0.5975  0.5171 -0.1511
   80SLPC   O22 7382   0.515   6.391   6.668 -0.1004 -0.6415  0.4550
   80SLPC   C22 7383   0.271   6.376   6.676  0.2293  0.3779  0.2650
   80SLPC   H2R 7384   0.214   6.320   6.754 -4.7992  1.8512 -1.9588
   80SLPC   H2S 7385   0.221   6.475   6.680  1.6848  1.1470 -0.0628
   80SLPC    C3 7386   0.611   6.293   6.961  0.5210  0.1485 -0.3453
   80SLPC    HX 7387   0.535   6.235   7.018  1.1177 -1.1254 -0.7940
   80SLPC    HY 7388   0.691   6.302   7.037 -2.0698  2.0164  2.4178
   80SLPC   O31 7389   0.632   6.195   6.853 -0.2104  0.2245 -0.7067
   80SLPC   C31 7390   0.746   6.217   6.791 -0.4294 -0.1781  0.3774
   80SLPC   O32 7391   0.823   6.306   6.820  0.7110 -0.5273  0.0733
   80SLPC   C32 7392   0.764   6.127   6.661  0.4134 -0.2120  0.0189
   80SLPC   H2X 7393   0.668   6.121   6.604 -1.2658  1.2621  2.4864
   80SLPC   H2Y 7394   0.793   6.030   6.706  0.4915  0.6886  2.0502
   80SLPC   C23 7395   0.263   6.324   6.531  0.3117  0.1155  0.1934
   80SLPC   H3R 7396   0.349   6.366   6.475 -0.8525  1.0416 -0.9943
   80SLPC   H3S 7397   0.171   6.363   6.483  0.4551 -0.8680 -0.9258
   80SLPC   C24 7398   0.225   6.179   6.524  0.2123  0.0800  0.0040
   80SLPC   H4R 7399   0.130   6.158   6.578 -0.9876 -1.5038 -2.5001
   80SLPC   H4S 7400   0.311   6.123   6.567  0.9140 -1.4100 -3.0170
   80SLPC   C25 7401   0.216   6.128   6.374  0.2624 -0.1047  0.0570
   80SLPC   H5R 7402   0.141   6.189   6.319  2.1823  1.1094 -1.3480
   80SLPC   H5S 7403   0.192   6.020   6.364 -1.4613  0.3898 -1.8896
   80SLPC   C26 7404   0.346   6.142   6.293 -0.3951 -1.3002 -0.2299
   80SLPC   H6R 7405   0.435   6.104   6.348  0.3577 -0.2794 -0.7209
   80SLPC   H6S 7406   0.357   6.248   6.264 -0.6825 -1.3271 -0.4375
   80SLPC   C27 7407   0.343   6.054   6.167  0.3554  0.0270  0.2579
   80SLPC   H7R 7408   0.255   6.087   6.107  1.0345  3.6117  0.9768
   80SLPC   H7S 7409   0.323   5.948   6.193 -2.9620  0.8149  1.4889
   80SLPC   C28 7410   0.464   6.064   6.069  0.6543  0.1539  0.1797
   80SLPC   H8R 7411   0.561   6.091   6.117  0.4354 -0.1089  0.7772
   80SLPC   H8S 7412   0.449   6.148   5.997  2.4448  0.3647 -0.0048
   80SLPC   C29 7413   0.481   5.937   5.996  0.2473  0.1054 -0.3885
   80SLPC   H9R 7414   0.533   5.854   6.047 -0.0979  0.3636  0.4023
   80SLPC  C210 7415   0.425   5.917   5.871  0.3210 -0.5149  0.0336
   80SLPC  H10R 7416   0.449   5.818   5.829  1.7562 -0.1221 -0.1243
   80SLPC  C211 7417   0.344   6.011   5.784  0.0337 -0.7133  0.2919
   80SLPC  H11R 7418   0.289   6.088   5.843 -1.9373 -0.2632 -1.9717
   80SLPC  H11S 7419   0.263   5.946   5.744 -0.3098 -1.2185  1.7316
   80SLPC  C212 7420   0.437   6.078   5.684 -0.6429 -0.0230  0.1569
   80SLPC  H12R 7421   0.523   6.133   5.723 -0.0106 -1.7793  1.3216
   80SLPC  C213 7422   0.419   6.081   5.551 -0.2692 -0.1001  0.6066
   80SLPC  H13R 7423   0.501   6.127   5.495 -0.0826  0.7826  1.5783
   80SLPC  C214 7424   0.313   6.008   5.473  0.4370  0.3091  0.2162
   80SLPC  H14R 7425   0.227   5.970   5.532  0.2120  0.7480  0.1726
   80SLPC  H14S 7426   0.357   5.920   5.421 -0.9892 -0.4563  0.2262
   80SLPC  C215 7427   0.244   6.086   5.357 -0.2635  0.4731 -0.0572
   80SLPC  H15R 7428   0.196   6.174   5.403 -0.3062 -0.2288  1.2887
   80SLPC  H15S 7429   0.180   6.012   5.304 -0.9688 -1.1686  2.8670
   80SLPC  C216 7430   0.347   6.138   5.249 -0.7896 -0.3390  0.0550
   80SLPC  H16R 7431   0.413   6.061   5.204  0.0072  0.4907 -0.2234
   80SLPC  H16S 7432   0.410   6.213   5.302 -1.5876 -0.2031  0.8362
   80SLPC  C217 7433   0.271   6.213   5.150  0.4004  0.2552  0.4367
   80SLPC  H17R 7434   0.225   6.296   5.207  0.5984 -0.1183  1.1449
   80SLPC  H17S 7435   0.189   6.146   5.115 -0.0641 -0.0247  2.0011
   80SLPC  C218 7436   0.332   6.264   5.020 -0.5431  0.9700  0.0850
   80SLPC  H18R 7437   0.356   6.173   4.961  0.3513  0.1089  1.7135
   80SLPC  H18S 7438   0.422   6.325   5.043  0.1859 -0.5500  1.4248
   80SLPC  H18T 7439   0.260   6.319   4.956 -1.7496 -1.1752 -0.5003
   80SLPC   C33 7440   0.888   6.163   6.575  0.3797  0.1208 -0.5386
   80SLPC   H3X 7441   0.914   6.072   6.518  2.0238 -0.5809  1.2050
   80SLPC   H3Y 7442   0.974   6.169   6.646  0.3898 -1.1897 -0.4245
   80SLPC   C34 7443   0.869   6.285   6.487 -1.0515 -0.0357 -1.0126
   80SLPC   H4X 7444   0.833   6.367   6.552  0.1524 -0.3904  0.1351
   80SLPC   H4Y 7445   0.781   6.270   6.420 -1.3579  1.5139 -0.9965
   80SLPC   C35 7446   1.003   6.318   6.408 -0.2124  0.6847 -0.6271
   80SLPC   H5X 7447   1.060   6.230   6.372 -2.4048 -0.1355 -2.2626
   80SLPC   H5Y 7448   1.058   6.375   6.487 -1.0501  0.0606  0.4373
   80SLPC   C36 7449   0.976   6.408   6.293  0.4554  0.1047  0.1799
   80SLPC   H6X 7450   0.912   6.487   6.336  1.4833  0.2273  1.5566
   80SLPC   H6Y 7451   0.917   6.351   6.218  1.6406  0.7438 -1.2962
   80SLPC   C37 7452   1.105   6.461   6.235 -1.0530 -0.0214  1.0987
   80SLPC   H7X 7453   1.177   6.386   6.196 -1.3436 -0.1206  0.7515
   80SLPC   H7Y 7454   1.165   6.519   6.308  1.8071 -0.8907 -0.4207
   80SLPC   C38 7455   1.080   6.565   6.118 -0.1195  0.2222 -0.5554
   80SLPC   H8X 7456   0.992   6.631   6.134  0.2225  0.5440  0.0266
   80SLPC   H8Y 7457   1.049   6.501   6.033 -0.1749 -1.1752  0.4670
   80SLPC   C39 7458   1.211   6.641   6.081 -0.3524  0.2830 -0.1602
   80SLPC   H9X 7459   1.292   6.565   6.069 -0.5423 -0.4000  2.2595
   80SLPC   H9Y 7460   1.228   6.698   6.175  0.5075  0.6582 -0.5319
   80SLPC  C310 7461   1.210   6.731   5.959 -0.5450 -0.2029 -0.1110
   80SLPC  H10X 7462   1.150   6.815   6.000 -1.9970 -1.6410  0.7829
   80SLPC  H10Y 7463   1.151   6.684   5.877 -0.2400  0.7736 -0.9222
   80SLPC  C311 7464   1.341   6.781   5.905  0.0211  0.5270 -0.2916
   80SLPC  H11X 7465   1.405   6.694   5.880 -0.1695  0.1795  0.4112
   80SLPC  H11Y 7466   1.394   6.852   5.972  0.9480  1.3741 -1.8410
   80SLPC  C312 7467   1.328   6.855   5.771  0.0159  0.4718 -0.0323
   80SLPC  H12X 7468   1.429   6.874   5.732  0.6973 -1.6041  0.5931
   80SLPC  H12Y 7469   1.296   6.958   5.797 -1.1499  0.0149  0.4514
   80SLPC  C313 7470   1.244   6.795   5.672 -0.2864  0.4804 -0.2305
   80SLPC  H13X 7471   1.137   6.808   5.700 -0.7527 -1.4412 -0.9399
   80SLPC  H13Y 7472   1.277   6.689   5.673  0.2846  0.5788 -2.3807
   80SLPC  C314 7473   1.270   6.840   5.530  0.2510 -0.2216 -0.1784
   80SLPC  H14X 7474   1.244   6.948   5.527 -0.1724 -0.2539  1.5532
   80SLPC  H14Y 7475   1.190   6.788   5.473 -0.0295 -2.0994  1.7876
   80SLPC  C315 7476   1.403   6.817   5.458  0.4200  0.0091 -0.4036
   80SLPC  H15X 7477   1.410   6.708   5.438  0.0453 -0.2604  0.8308
   80SLPC  H15Y 7478   1.492   6.852   5.515  0.8864  0.8888 -1.6305
   80SLPC  C316 7479   1.398   6.885   5.326 -0.4163 -0.1878 -0.0296
   80SLPC  H16X 7480   1.387   6.994   5.343 -0.1528 -0.1602 -0.0440
   80SLPC  H16Y 7481   1.310   6.853   5.266 -0.4926 -1.3216  0.6452
   80SLPC  C317 7482   1.527   6.873   5.242 -0.2827  0.0407 -0.8766
   80SLPC  H17X 7483   1.610   6.891   5.312  0.6823 -0.3940 -1.8725
   80SLPC  H17Y 7484   1.536   6.959   5.173  3.9559 -0.1006 -0.7248
   80SLPC  C318 7485   1.540   6.733   5.170 -0.2971  0.5330 -0.0040
   80SLPC  H18X 7486   1.554   6.652   5.243  3.3099  1.4888  0.5549
   80SLPC  H18Y 7487   1.630   6.734   5.104  1.6456 -0.6988  2.4741
   80SLPC  H18Z 7488   1.457   6.715   5.098  1.1974 -0.3579 -1.5729
   81SLPC     N 7489   5.388   1.594   2.674 -0.0881  0.0333  0.3401
   81SLPC   C13 7490   5.431   1.631   2.536 -0.0003 -0.4192  0.5381
   81SLPC  H13A 7491   5.502   1.559   2.500 -1.0405 -0.5706 -1.3776
   81SLPC  H13B 7492   5.352   1.624   2.462  0.7415 -0.7606 -0.2412
   81SLPC  H13C 7493   5.475   1.730   2.531 -0.8966 -0.0180  0.4283
   81SLPC   C14 7494   5.283   1.689   2.719  0.3671  0.0637  0.0339
   81SLPC  H14A 7495   5.282   1.690   2.827 -0.3573  0.2906  0.0276
   81SLPC  H14B 7496   5.303   1.790   2.689 -0.8733  0.1847 -0.4066
   81SLPC  H14C 7497   5.191   1.658   2.673  0.6080 -2.9334  1.2899
   81SLPC   C15 7498   5.514   1.613   2.757 -0.5844 -0.0135 -0.2412
   81SLPC  H15A 7499   5.556   1.707   2.724 -1.8839  1.4550  2.0325
   81SLPC  H15B 7500   5.495   1.618   2.863 -0.1184 -2.4528 -0.0033
   81SLPC  H15C 7501   5.585   1.536   2.734  0.3649  0.3909  1.2082
   81SLPC   C12 7502   5.351   1.443   2.690 -0.8405 -0.5411 -0.4427
   81SLPC  H12A 7503   5.248   1.436   2.658 -1.0119  0.3734 -0.1077
   81SLPC  H12B 7504   5.355   1.418   2.795  1.8943 -0.8786 -0.5691
   81SLPC   C11 7505   5.441   1.346   2.612 -0.3187 -0.4719  0.5681
   81SLPC  H11A 7506   5.436   1.371   2.504 -2.9242 -0.3605  0.6555
   81SLPC  H11B 7507   5.399   1.244   2.626  1.6643 -1.2177  1.3533
   81SLPC     P 7508   5.675   1.244   2.582 -0.1959  0.0825 -0.1536
   81SLPC   O13 7509   5.612   1.182   2.459 -0.0800  0.2103 -0.3944
   81SLPC   O14 7510   5.810   1.307   2.567  0.7654 -0.0312 -0.4010
   81SLPC   O12 7511   5.578   1.351   2.651 -0.3108  0.1827  1.0042
   81SLPC   O11 7512   5.683   1.130   2.692 -0.1422 -0.9250  0.0259
   81SLPC    C1 7513   5.728   1.167   2.827 -0.3604 -0.3521 -0.5285
   81SLPC    HA 7514   5.819   1.111   2.859  0.0848  0.6592 -0.0033
   81SLPC    HB 7515   5.748   1.276   2.834 -2.1449  0.1207 -2.1069
   81SLPC    C2 7516   5.620   1.145   2.945 -0.1632  0.5934 -0.3931
   81SLPC    HS 7517   5.673   1.182   3.036  1.0616  0.3507 -0.9760
   81SLPC   O21 7518   5.590   1.005   2.962  0.6061  0.4602  0.3080
   81SLPC   C21 7519   5.681   0.935   3.030  0.1081  0.1012 -0.0106
   81SLPC   O22 7520   5.795   0.969   3.059  0.3135 -0.1244  0.7154
   81SLPC   C22 7521   5.612   0.798   3.063  0.2572  0.2343 -0.3696
   81SLPC   H2R 7522   5.581   0.750   2.968  1.2092 -1.5279  0.1697
   81SLPC   H2S 7523   5.697   0.732   3.089 -1.2690 -0.8764  2.2303
   81SLPC    C3 7524   5.487   1.219   2.926 -0.4414 -0.2236 -1.0140
   81SLPC    HX 7525   5.417   1.178   2.851 -1.2319 -0.0985 -0.3649
   81SLPC    HY 7526   5.506   1.326   2.903  2.4902 -0.1861  0.9790
   81SLPC   O31 7527   5.431   1.231   3.060 -0.1398  0.1585 -0.2259
   81SLPC   C31 7528   5.312   1.164   3.071  0.0948  0.8141  0.0560
   81SLPC   O32 7529   5.256   1.111   2.981  0.0872  0.3275 -0.3905
   81SLPC   C32 7530   5.270   1.160   3.217 -0.0048 -0.3953  0.3862
   81SLPC   H2X 7531   5.353   1.171   3.290 -0.2771  0.7910  0.5378
   81SLPC   H2Y 7532   5.215   1.064   3.231  0.2723 -0.5151  0.6496
   81SLPC   C23 7533   5.497   0.808   3.165  0.1945 -0.5408 -0.4122
   81SLPC   H3R 7534   5.460   0.705   3.187 -1.0956 -0.0443 -0.1204
   81SLPC   H3S 7535   5.402   0.860   3.138  0.3020  0.1069  0.4214
   81SLPC   C24 7536   5.534   0.870   3.305 -0.2597  0.0936  0.8013
   81SLPC   H4R 7537   5.444   0.864   3.370 -1.1634 -1.5083 -0.5179
   81SLPC   H4S 7538   5.551   0.979   3.301  3.2106 -0.2941  1.3665
   81SLPC   C25 7539   5.653   0.811   3.380  0.1264  0.3283  0.3511
   81SLPC   H5R 7540   5.744   0.821   3.317 -0.6140  2.2844 -0.4817
   81SLPC   H5S 7541   5.626   0.704   3.392 -0.6027  0.7149  2.5846
   81SLPC   C26 7542   5.680   0.870   3.519  0.2607  0.5933  0.0559
   81SLPC   H6R 7543   5.586   0.915   3.558  0.3222  1.7340 -1.0393
   81SLPC   H6S 7544   5.755   0.952   3.523  1.1250 -0.1527 -0.3961
   81SLPC   C27 7545   5.731   0.763   3.613  0.3860  0.3436 -0.6004
   81SLPC   H7R 7546   5.815   0.711   3.562 -1.1262 -1.2380 -1.6026
   81SLPC   H7S 7547   5.649   0.689   3.628  0.0501  0.4932 -1.6392
   81SLPC   C28 7548   5.776   0.803   3.760  0.1922 -0.4257  0.8443
   81SLPC   H8R 7549   5.854   0.876   3.728 -0.4866 -0.1704 -0.2736
   81SLPC   H8S 7550   5.821   0.710   3.799  0.3800 -0.5030  0.4470
   81SLPC   C29 7551   5.675   0.851   3.862  0.4137  0.5512 -0.2973
   81SLPC   H9R 7552   5.587   0.899   3.818 -0.8597 -1.5619 -0.2263
   81SLPC  C210 7553   5.669   0.827   3.997  0.3408 -0.1015 -0.1091
   81SLPC  H10R 7554   5.584   0.868   4.054 -0.0049 -2.3070  1.0627
   81SLPC  C211 7555   5.766   0.756   4.082  0.2900  0.5330 -0.5276
   81SLPC  H11R 7556   5.854   0.728   4.020  0.7588 -1.4623  0.9345
   81SLPC  H11S 7557   5.723   0.658   4.110  1.3407 -0.7132 -3.0023
   81SLPC  C212 7558   5.814   0.838   4.199  0.3625 -0.0362  0.1121
   81SLPC  H12R 7559   5.811   0.947   4.194  2.0872  0.0435  0.2986
   81SLPC  C213 7560   5.852   0.794   4.314  0.6252 -0.4770 -0.1896
   81SLPC  H13R 7561   5.882   0.858   4.398  2.1458 -2.8831  1.2248
   81SLPC  C214 7562   5.868   0.654   4.365 -0.5189 -0.1094  0.1609
   81SLPC  H14R 7563   5.960   0.635   4.424 -1.5239 -1.8293  1.2820
   81SLPC  H14S 7564   5.874   0.583   4.280  0.4162 -0.6979  0.6981
   81SLPC  C215 7565   5.761   0.611   4.460 -0.4147 -0.2264  0.0810
   81SLPC  H15R 7566   5.760   0.500   4.459  0.7233 -0.2513 -0.7450
   81SLPC  H15S 7567   5.661   0.647   4.428 -1.0342 -1.3514  0.6587
   81SLPC  C216 7568   5.783   0.653   4.608 -0.6208  0.1407 -0.5369
   81SLPC  H16R 7569   5.768   0.763   4.616  0.8275  0.2219  3.3573
   81SLPC  H16S 7570   5.890   0.635   4.630 -0.5649  0.8749 -0.1872
   81SLPC  C217 7571   5.684   0.574   4.692 -0.3207 -0.2845 -0.2349
   81SLPC  H17R 7572   5.669   0.470   4.655  1.6460 -0.3844 -0.8728
   81SLPC  H17S 7573   5.583   0.618   4.683 -0.0131  0.1084 -2.2609
   81SLPC  C218 7574   5.725   0.549   4.843  0.3257 -0.0709  0.0439
   81SLPC  H18R 7575   5.823   0.496   4.836  0.6913  0.7388 -1.4434
   81SLPC  H18S 7576   5.657   0.481   4.897  1.4510  0.0201  1.6294
   81SLPC  H18T 7577   5.729   0.645   4.899  0.5776  0.0591 -0.1922
   81SLPC   C33 7578   5.152   1.261   3.256 -0.5127  0.7325 -0.2104
   81SLPC   H3X 7579   5.083   1.265   3.168 -0.4901  0.1201 -0.2607
   81SLPC   H3Y 7580   5.201   1.360   3.271  2.3823 -0.6529  0.1366
   81SLPC   C34 7581   5.076   1.217   3.383  0.7383 -0.6777  0.6314
   81SLPC   H4X 7582   5.026   1.121   3.361  0.3569 -0.4840  0.6523
   81SLPC   H4Y 7583   4.990   1.285   3.401 -0.1113 -1.3752 -0.6261
   81SLPC   C35 7584   5.161   1.199   3.508  0.0328  0.0528 -0.5394
   81SLPC   H5X 7585   5.229   1.285   3.526  0.8728 -0.7159  0.0381
   81SLPC   H5Y 7586   5.220   1.106   3.494 -0.5867 -0.4365  0.0449
   81SLPC   C36 7587   5.077   1.168   3.628  0.4949 -0.2165  0.3807
   81SLPC   H6X 7588   5.033   1.066   3.618  1.8828 -0.6754 -1.6538
   81SLPC   H6Y 7589   4.984   1.222   3.654  0.7039  0.0141  0.6590
   81SLPC   C37 7590   5.156   1.155   3.761 -0.1027 -0.3971 -0.5529
   81SLPC   H7X 7591   5.208   1.250   3.783  0.5830 -0.7877 -0.4669
   81SLPC   H7Y 7592   5.235   1.077   3.755  0.8726  0.3526  1.4474
   81SLPC   C38 7593   5.065   1.109   3.875 -0.4213 -0.2757  0.1012
   81SLPC   H8X 7594   5.047   1.004   3.846  1.5820 -0.3471 -1.0661
   81SLPC   H8Y 7595   4.973   1.172   3.868 -0.4947 -0.2694  0.9827
   81SLPC   C39 7596   5.133   1.120   4.016  0.2236 -0.3377 -0.0277
   81SLPC   H9X 7597   5.064   1.103   4.101 -1.4040  4.1250 -0.1964
   81SLPC   H9Y 7598   5.173   1.224   4.025 -2.0829  0.5583  0.4642
   81SLPC  C310 7599   5.255   1.030   4.038 -0.6793  0.7347  0.0345
   81SLPC  H10X 7600   5.332   1.036   3.958  0.2872  0.3433  0.9151
   81SLPC  H10Y 7601   5.221   0.924   4.034 -0.7293  0.6960  1.1742
   81SLPC  C311 7602   5.336   1.040   4.171 -0.1243 -0.5328 -0.0399
   81SLPC  H11X 7603   5.360   1.145   4.197 -0.3979  0.3729 -3.1052
   81SLPC  H11Y 7604   5.431   0.982   4.171 -0.5696 -1.2895  0.7553
   81SLPC  C312 7605   5.261   0.991   4.291 -0.1718 -0.0844 -0.5283
   81SLPC  H12X 7606   5.194   0.906   4.267 -0.7739 -0.0190  0.8084
   81SLPC  H12Y 7607   5.194   1.071   4.328 -0.3206 -0.4113 -0.0718
   81SLPC  C313 7608   5.357   0.956   4.408  0.6048 -0.1233  0.0540
   81SLPC  H13X 7609   5.413   1.046   4.442 -1.0403  0.3866  1.5613
   81SLPC  H13Y 7610   5.421   0.874   4.371  0.3296  0.1110 -0.9731
   81SLPC  C314 7611   5.277   0.905   4.528  0.0134  0.6152  0.0422
   81SLPC  H14X 7612   5.192   0.838   4.504 -0.0042  0.6823 -0.0860
   81SLPC  H14Y 7613   5.220   0.977   4.591 -0.5269 -1.0260  1.5045
   81SLPC  C315 7614   5.366   0.845   4.637 -0.3356 -0.4940 -0.2968
   81SLPC  H15X 7615   5.445   0.919   4.662 -0.9360 -0.1975  0.7719
   81SLPC  H15Y 7616   5.436   0.770   4.593  1.4018  1.4451 -1.0328
   81SLPC  C316 7617   5.287   0.795   4.759 -0.0380 -0.6504  0.0280
   81SLPC  H16X 7618   5.201   0.732   4.727 -0.6192  0.3635 -0.4647
   81SLPC  H16Y 7619   5.254   0.892   4.802  0.1824 -0.9781  0.9699
   81SLPC  C317 7620   5.371   0.720   4.869 -0.2731 -0.2771  0.2334
   81SLPC  H17X 7621   5.469   0.765   4.893  0.4720 -1.9401  0.4813
   81SLPC  H17Y 7622   5.396   0.623   4.821 -0.7437  0.3502 -1.3178
   81SLPC  C318 7623   5.295   0.711   4.999 -0.1890 -0.6416 -0.2462
   81SLPC  H18X 7624   5.252   0.806   5.037  1.7647  0.2559 -0.1501
   81SLPC  H18Y 7625   5.365   0.672   5.076 -2.6508 -1.2663  1.8397
   81SLPC  H18Z 7626   5.214   0.636   4.984  1.6377 -2.4736 -1.4736
   82SLPC     N 7627   4.937   0.562   2.959 -0.3927 -0.2191 -0.0429
   82SLPC   C13 7628   4.985   0.451   2.867 -0.5091  0.0991 -0.2885
   82SLPC  H13A 7629   5.005   0.488   2.767 -0.0026  1.5606  0.3156
   82SLPC  H13B 7630   5.072   0.407   2.912  0.2736  1.5537 -0.3227
   82SLPC  H13C 7631   4.918   0.368   2.854  0.3826 -0.9035  1.2350
   82SLPC   C14 7632   5.040   0.668   2.953  0.1533  0.0721  0.3983
   82SLPC  H14A 7633   5.017   0.736   2.872 -1.0486 -0.8125 -0.0204
   82SLPC  H14B 7634   5.044   0.731   3.040  0.0918  1.9783 -0.9140
   82SLPC  H14C 7635   5.137   0.621   2.949 -0.4626 -1.3379  1.4075
   82SLPC   C15 7636   4.935   0.506   3.093 -0.3335 -0.8679 -0.3223
   82SLPC  H15A 7637   4.870   0.420   3.089  1.8000 -2.5453 -0.6598
   82SLPC  H15B 7638   5.039   0.494   3.122 -0.1395  2.0240  0.5134
   82SLPC  H15C 7639   4.887   0.570   3.165  0.2267 -2.1796  1.2853
   82SLPC   C12 7640   4.803   0.628   2.924  0.1973  0.2222  0.8898
   82SLPC  H12A 7641   4.790   0.724   2.972 -2.1058  1.2175 -1.4294
   82SLPC  H12B 7642   4.731   0.554   2.955  1.7701 -1.2335  1.2230
   82SLPC   C11 7643   4.777   0.670   2.782 -0.1995 -0.2891  0.9747
   82SLPC  H11A 7644   4.668   0.688   2.779  0.2706  3.2600  0.1601
   82SLPC  H11B 7645   4.793   0.585   2.712 -0.2631 -0.0661  0.6892
   82SLPC     P 7646   4.818   0.932   2.715  0.3526 -0.2042  0.1022
   82SLPC   O13 7647   4.945   1.012   2.691  0.1601  0.1159 -0.7331
   82SLPC   O14 7648   4.720   0.932   2.602  0.3041  0.7303 -0.5739
   82SLPC   O12 7649   4.864   0.787   2.750 -0.0663  0.2566  0.7519
   82SLPC   O11 7650   4.750   0.975   2.852 -0.0448 -0.3581  0.0616
   82SLPC    C1 7651   4.829   1.005   2.960 -1.1717 -0.3292 -0.4604
   82SLPC    HA 7652   4.912   0.932   2.974  0.2933  1.0981 -1.3621
   82SLPC    HB 7653   4.884   1.101   2.950 -0.5495 -0.2666  2.5911
   82SLPC    C2 7654   4.751   0.993   3.093  0.4003 -1.2123 -0.4018
   82SLPC    HS 7655   4.815   0.926   3.155 -0.9188 -1.3270  0.8914
   82SLPC   O21 7656   4.621   0.936   3.075 -0.1720 -0.2035 -0.3632
   82SLPC   C21 7657   4.581   0.865   3.176 -0.3085  0.4874  0.1141
   82SLPC   O22 7658   4.644   0.837   3.278  0.0531 -0.1595  0.1021
   82SLPC   C22 7659   4.431   0.828   3.166 -0.0064 -0.0731  0.8731
   82SLPC   H2R 7660   4.388   0.879   3.077 -2.7276 -2.3031  0.7722
   82SLPC   H2S 7661   4.426   0.719   3.145 -3.4774  0.2269 -0.4607
   82SLPC    C3 7662   4.740   1.131   3.159  0.1963 -0.0199  0.4280
   82SLPC    HX 7663   4.657   1.187   3.112 -0.9964 -1.9134  0.1722
   82SLPC    HY 7664   4.837   1.181   3.137  0.3052  0.0033  0.9386
   82SLPC   O31 7665   4.729   1.117   3.305  0.3416  0.2051 -0.1547
   82SLPC   C31 7666   4.612   1.140   3.355  0.0950  0.0325  0.1249
   82SLPC   O32 7667   4.506   1.161   3.294  0.0980 -0.2088 -0.5854
   82SLPC   C32 7668   4.612   1.126   3.510  0.3364 -1.0966  0.1128
   82SLPC   H2X 7669   4.718   1.155   3.530  0.3036  1.7099 -2.8929
   82SLPC   H2Y 7670   4.589   1.020   3.533  1.0298 -0.9138  1.8849
   82SLPC   C23 7671   4.347   0.872   3.294 -0.2886  0.2139 -0.3078
   82SLPC   H3R 7672   4.240   0.886   3.267 -1.2558 -0.2105  2.9543
   82SLPC   H3S 7673   4.390   0.969   3.325 -2.1518  2.0257 -2.9467
   82SLPC   C24 7674   4.357   0.767   3.406 -0.0560 -0.0435 -0.2965
   82SLPC   H4R 7675   4.464   0.742   3.423  0.3124  1.5944 -0.0521
   82SLPC   H4S 7676   4.295   0.677   3.383  1.2604 -0.5403 -2.1899
   82SLPC   C25 7677   4.301   0.824   3.535 -0.3514  0.3132  0.1754
   82SLPC   H5R 7678   4.200   0.859   3.503 -1.8129 -1.1266  2.8322
   82SLPC   H5S 7679   4.357   0.909   3.580  0.9054 -0.5635  0.2965
   82SLPC   C26 7680   4.275   0.712   3.633 -0.5979 -0.1401 -0.5866
   82SLPC   H6R 7681   4.374   0.666   3.651 -0.5981  0.1762  0.2692
   82SLPC   H6S 7682   4.215   0.636   3.579 -0.9963  1.2067 -2.1074
   82SLPC   C27 7683   4.196   0.761   3.763  0.3283  0.2647 -0.1147
   82SLPC   H7R 7684   4.094   0.795   3.735  1.1016  3.6960  0.7903
   82SLPC   H7S 7685   4.254   0.841   3.814  0.4339  1.4089 -1.9451
   82SLPC   C28 7686   4.171   0.645   3.861  0.0233  0.5430  0.0105
   82SLPC   H8R 7687   4.115   0.565   3.808 -0.0766 -1.5397  3.0124
   82SLPC   H8S 7688   4.107   0.692   3.939  1.0030  2.3814 -0.2480
   82SLPC   C29 7689   4.294   0.591   3.926 -0.3875 -0.1712 -0.3310
   82SLPC   H9R 7690   4.389   0.593   3.871  0.1508 -0.9003  0.5287
   82SLPC  C210 7691   4.295   0.529   4.047 -0.4410  0.4673  0.0817
   82SLPC  H10R 7692   4.394   0.517   4.095 -1.1719 -0.6075  1.3740
   82SLPC  C211 7693   4.187   0.487   4.140 -0.3634  0.6665 -0.4596
   82SLPC  H11R 7694   4.230   0.398   4.191  3.7163  2.7999  0.2413
   82SLPC  H11S 7695   4.108   0.455   4.070  1.4491 -1.2358 -1.7566
   82SLPC  C212 7696   4.135   0.590   4.234 -0.0616  0.4389 -0.0607
   82SLPC  H12R 7697   4.052   0.651   4.195  0.2254  0.2402 -0.9997
   82SLPC  C213 7698   4.177   0.616   4.354 -0.2631 -0.0028 -0.2199
   82SLPC  H13R 7699   4.131   0.703   4.403 -0.6225 -0.2494 -0.1117
   82SLPC  C214 7700   4.288   0.554   4.434  0.3591 -0.3195 -0.1971
   82SLPC  H14R 7701   4.375   0.623   4.435 -2.1169  3.0270  0.3973
   82SLPC  H14S 7702   4.333   0.465   4.384  0.4970  0.3775 -1.3377
   82SLPC  C215 7703   4.243   0.505   4.574  1.2043  0.3824 -0.5340
   82SLPC  H15R 7704   4.208   0.590   4.636  1.4177 -0.8458  1.3577
   82SLPC  H15S 7705   4.330   0.449   4.615  0.9765 -0.3275 -0.9955
   82SLPC  C216 7706   4.128   0.404   4.561 -0.5503  0.2676  0.4099
   82SLPC  H16R 7707   4.151   0.325   4.487 -1.0533 -0.8724  1.4514
   82SLPC  H16S 7708   4.037   0.459   4.527 -1.5160 -1.6127 -0.1708
   82SLPC  C217 7709   4.102   0.333   4.697 -0.4562  1.1773  0.4013
   82SLPC  H17R 7710   4.068   0.403   4.777 -1.5498 -0.6966  1.6465
   82SLPC  H17S 7711   4.202   0.299   4.729 -1.1592 -0.6314  0.7882
   82SLPC  C218 7712   4.003   0.212   4.678  0.2579  0.1940  0.2601
   82SLPC  H18R 7713   4.038   0.132   4.609  1.3030  0.6806  0.2050
   82SLPC  H18S 7714   3.907   0.252   4.637  1.2317  0.3464 -2.0100
   82SLPC  H18T 7715   3.979   0.170   4.778  4.6522 -0.5368  1.2029
   82SLPC   C33 7716   4.508   1.215   3.589  0.1241 -0.3835  0.0499
   82SLPC   H3X 7717   4.406   1.198   3.549 -0.6908 -0.9067  2.2320
   82SLPC   H3Y 7718   4.528   1.324   3.598  0.8593 -0.5465  0.4805
   82SLPC   C34 7719   4.505   1.162   3.736 -0.1785  0.0887 -0.1943
   82SLPC   H4X 7720   4.481   1.053   3.743 -0.6636  0.2937  2.1577
   82SLPC   H4Y 7721   4.424   1.219   3.786  0.1319  0.7755 -0.4658
   82SLPC   C35 7722   4.632   1.180   3.822  0.1989  0.4453  0.3489
   82SLPC   H5X 7723   4.656   1.287   3.807  0.8497  0.0400 -1.8378
   82SLPC   H5Y 7724   4.717   1.122   3.780  1.2979  1.0206  1.7076
   82SLPC   C36 7725   4.599   1.152   3.964  0.3717  0.6451  0.4031
   82SLPC   H6X 7726   4.565   1.047   3.975 -1.2398  0.8547 -2.0137
   82SLPC   H6Y 7727   4.508   1.207   3.997 -0.5358 -1.4169  1.5446
   82SLPC   C37 7728   4.723   1.167   4.053 -0.0944  0.1429 -0.9400
   82SLPC   H7X 7729   4.758   1.272   4.059  2.1914 -0.6245  3.0278
   82SLPC   H7Y 7730   4.801   1.113   3.996  2.3285  0.7930  1.5637
   82SLPC   C38 7731   4.705   1.116   4.195  0.3101 -0.1732  0.1232
   82SLPC   H8X 7732   4.663   1.013   4.190 -2.1888  0.7842  0.3920
   82SLPC   H8Y 7733   4.626   1.186   4.229 -0.0093  1.0672 -2.8158
   82SLPC   C39 7734   4.828   1.109   4.287  0.1697 -0.3678  0.2331
   82SLPC   H9X 7735   4.879   1.207   4.287 -0.9761  0.3209 -2.2020
   82SLPC   H9Y 7736   4.898   1.027   4.258  1.2935  0.7617 -0.3716
   82SLPC  C310 7737   4.782   1.081   4.429  0.4957 -0.5099  0.1319
   82SLPC  H10X 7738   4.728   0.984   4.423 -1.6069  0.6965 -2.1381
   82SLPC  H10Y 7739   4.703   1.151   4.464  0.1385  0.2340 -1.9924
   82SLPC  C311 7740   4.894   1.091   4.533 -0.1873 -0.2746  0.8241
   82SLPC  H11X 7741   4.953   1.185   4.519 -1.6315  0.6845  1.0070
   82SLPC  H11Y 7742   4.966   1.007   4.522  1.1924  0.5539  2.9350
   82SLPC  C312 7743   4.850   1.079   4.678 -0.2067  0.3811 -0.0290
   82SLPC  H12X 7744   4.749   1.033   4.685 -0.2598  0.6370  1.1825
   82SLPC  H12Y 7745   4.835   1.181   4.721  1.5442  1.5267 -1.9718
   82SLPC  C313 7746   4.950   1.002   4.772  0.1859 -0.4340  0.8376
   82SLPC  H13X 7747   5.052   1.043   4.761  0.2050 -0.5859  0.3991
   82SLPC  H13Y 7748   4.951   0.895   4.743  0.9133  0.3608 -2.4828
   82SLPC  C314 7749   4.895   1.016   4.918 -0.6731  0.5000 -0.2917
   82SLPC  H14X 7750   4.785   1.010   4.927 -0.8089  0.8595 -1.5376
   82SLPC  H14Y 7751   4.930   1.114   4.957  0.8650 -0.7800  1.7586
   82SLPC  C315 7752   4.970   0.904   5.013 -0.1356 -0.2087  0.2920
   82SLPC  H15X 7753   5.076   0.892   4.979 -0.8499 -2.7431 -1.3433
   82SLPC  H15Y 7754   4.922   0.805   5.000 -0.0244 -0.1613 -0.5761
   82SLPC  C316 7755   4.987   0.952   5.159 -0.0852  0.0270 -0.2905
   82SLPC  H16X 7756   5.044   1.048   5.161  1.8293 -1.0635  0.9861
   82SLPC  H16Y 7757   5.049   0.883   5.220 -1.2702  1.3114  2.5738
   82SLPC  C317 7758   4.853   0.964   5.240  0.0041 -0.2152  0.2010
   82SLPC  H17X 7759   4.786   1.033   5.184 -1.3002 -1.0941  0.6204
   82SLPC  H17Y 7760   4.888   1.003   5.337  2.0984  0.0324 -0.6153
   82SLPC  C318 7761   4.785   0.822   5.255 -0.2932 -0.1440  0.0513
   82SLPC  H18X 7762   4.692   0.821   5.316 -0.6672  3.7548 -0.2179
   82SLPC  H18Y 7763   4.856   0.739   5.278 -2.4157 -2.9202 -2.5621
   82SLPC  H18Z 7764   4.743   0.801   5.155 -1.2101  1.6760  0.0109
   83SLPC     N 7765   0.565   2.318   3.092  0.4435  0.2749 -0.1774
   83SLPC   C13 7766   0.518   2.204   3.015  0.0505 -0.3472 -0.1672
   83SLPC  H13A 7767   0.556   2.215   2.915  1.3154  0.0077  0.3278
   83SLPC  H13B 7768   0.563   2.114   3.054  0.2632  0.6655  2.0778
   83SLPC  H13C 7769   0.412   2.188   3.024  0.0047 -1.5972 -2.3212
   83SLPC   C14 7770   0.501   2.448   3.044 -0.3396  0.3397 -0.0715
   83SLPC  H14A 7771   0.530   2.466   2.942  1.6681  1.2278  0.5975
   83SLPC  H14B 7772   0.395   2.442   3.065 -0.2608 -2.7330 -0.1610
   83SLPC  H14C 7773   0.536   2.533   3.100  0.5607  0.5036 -0.8637
   83SLPC   C15 7774   0.707   2.335   3.073 -0.1915 -0.1841  0.3350
   83SLPC  H15A 7775   0.747   2.414   3.134 -0.0855  0.4818 -0.5660
   83SLPC  H15B 7776   0.769   2.248   3.083 -0.6880 -0.5403  0.3412
   83SLPC  H15C 7777   0.725   2.373   2.973 -1.0550  0.7561  0.5142
   83SLPC   C12 7778   0.534   2.290   3.244 -0.2787 -0.2988  0.4165
   83SLPC  H12A 7779   0.581   2.352   3.318 -0.2120 -1.2544  1.1878
   83SLPC  H12B 7780   0.579   2.195   3.267  0.8093 -0.3567 -1.6717
   83SLPC   C11 7781   0.383   2.298   3.289  0.0433  0.1712  0.4383
   83SLPC  H11A 7782   0.356   2.404   3.273 -0.5469  0.1769  1.3963
   83SLPC  H11B 7783   0.390   2.284   3.399  2.4341 -2.8280  0.0543
   83SLPC     P 7784   0.161   2.253   3.167 -0.2603 -0.1895 -0.3067
   83SLPC   O13 7785   0.175   2.395   3.128  0.1628 -0.6647 -0.7902
   83SLPC   O14 7786   0.125   2.152   3.058  0.0794  0.3310  0.1854
   83SLPC   O12 7787   0.302   2.204   3.218  0.8129  0.9147 -0.8599
   83SLPC   O11 7788   0.072   2.238   3.298  0.0301  0.6332  0.1870
   83SLPC    C1 7789   0.095   2.137   3.402  0.4671 -0.4862 -0.0944
   83SLPC    HA 7790   0.076   2.031   3.374 -1.4688  0.1509 -1.3792
   83SLPC    HB 7791   0.198   2.148   3.441 -0.2660  1.3847  1.4654
   83SLPC    C2 7792   0.006   2.165   3.523 -0.0887  0.1531  0.0847
   83SLPC    HS 7793   0.048   2.256   3.572  0.4155  0.0126 -0.0792
   83SLPC   O21 7794   0.014   2.044   3.607  0.2691 -0.6150  0.5067
   83SLPC   C21 7795   0.117   2.040   3.686 -0.5596  0.6191 -0.8566
   83SLPC   O22 7796   0.201   2.127   3.689 -0.6334 -0.0805 -0.3777
   83SLPC   C22 7797   0.130   1.905   3.758  0.1156  0.3996  0.5627
   83SLPC   H2R 7798   0.028   1.869   3.782  0.1539  0.4398  0.7945
   83SLPC   H2S 7799   0.170   1.834   3.683  1.8166 -0.7201  2.4179
   83SLPC    C3 7800  -0.142   2.185   3.493  0.2534 -0.5375  0.0420
   83SLPC    HX 7801  -0.179   2.100   3.433 -1.6507  1.6368 -2.0515
   83SLPC    HY 7802  -0.164   2.269   3.425 -2.5180 -1.3827 -0.2281
   83SLPC   O31 7803  -0.207   2.198   3.618  0.1341  0.3957 -0.8474
   83SLPC   C31 7804  -0.338   2.225   3.622 -0.2487  0.0629  0.5525
   83SLPC   O32 7805  -0.408   2.241   3.524  0.1441  0.1969 -0.1838
   83SLPC   C32 7806  -0.386   2.247   3.763 -0.5329 -0.3684 -0.1064
   83SLPC   H2X 7807  -0.497   2.250   3.768 -0.4882  0.9352  0.5864
   83SLPC   H2Y 7808  -0.351   2.343   3.806 -3.6942  1.0156 -0.3389
   83SLPC   C23 7809   0.226   1.911   3.879  0.7775  0.3457  0.0235
   83SLPC   H3R 7810   0.322   1.968   3.872  1.4294 -0.8489 -1.3461
   83SLPC   H3S 7811   0.265   1.808   3.894 -0.4620  0.0031  1.0941
   83SLPC   C24 7812   0.161   1.958   4.009  1.1185  0.5442 -0.2520
   83SLPC   H4R 7813   0.060   1.913   4.022  2.0120 -1.0689  1.8264
   83SLPC   H4S 7814   0.138   2.066   4.021 -0.0059  0.3790 -0.7291
   83SLPC   C25 7815   0.238   1.923   4.133 -0.2680 -0.4316  0.0408
   83SLPC   H5R 7816   0.347   1.941   4.127 -0.0826 -1.4608  0.1357
   83SLPC   H5S 7817   0.232   1.813   4.136  1.4048 -0.5438  0.1350
   83SLPC   C26 7818   0.175   1.997   4.258  0.4172  0.1053 -0.1547
   83SLPC   H6R 7819   0.065   2.002   4.251  0.3203  0.6183  1.2962
   83SLPC   H6S 7820   0.196   2.105   4.267  0.0071  0.1038  1.1585
   83SLPC   C27 7821   0.186   1.914   4.388 -0.0220  0.0091  0.4012
   83SLPC   H7R 7822   0.294   1.892   4.405 -0.1986 -0.1340  1.4004
   83SLPC   H7S 7823   0.144   1.814   4.364 -0.7310  0.2163  0.7408
   83SLPC   C28 7824   0.131   1.981   4.517  0.1885  0.2894  0.6726
   83SLPC   H8R 7825   0.021   1.983   4.509  0.2710  0.8763 -0.7117
   83SLPC   H8S 7826   0.160   2.088   4.524 -3.5592  1.5924 -1.1481
   83SLPC   C29 7827   0.163   1.897   4.639  0.0009  0.1940 -0.2837
   83SLPC   H9R 7828   0.097   1.810   4.648  0.8816 -0.5151 -0.6081
   83SLPC  C210 7829   0.245   1.920   4.740 -0.2565 -0.5887 -0.2648
   83SLPC  H10R 7830   0.226   1.856   4.827  0.6265  1.2385  1.3613
   83SLPC  C211 7831   0.336   2.041   4.762 -0.6921 -0.1455  0.3353
   83SLPC  H11R 7832   0.387   2.063   4.665  1.6479  1.4288  1.8128
   83SLPC  H11S 7833   0.414   2.005   4.832 -2.8257 -0.7696  2.4949
   83SLPC  C212 7834   0.267   2.166   4.812 -0.3379  0.1939 -0.0901
   83SLPC  H12R 7835   0.259   2.249   4.741 -1.7294  0.9861  0.9433
   83SLPC  C213 7836   0.220   2.171   4.939 -0.2364  0.3023  0.2316
   83SLPC  H13R 7837   0.180   2.266   4.975 -0.9502  0.4346 -0.8639
   83SLPC  C214 7838   0.236   2.060   5.038 -0.1747  0.0143  0.0289
   83SLPC  H14R 7839   0.345   2.049   5.053  0.0554  1.4039 -0.4628
   83SLPC  H14S 7840   0.205   1.957   5.012 -0.0819  0.7915 -3.6848
   83SLPC  C215 7841   0.181   2.105   5.181  0.4296 -0.2652 -0.2757
   83SLPC  H15R 7842   0.173   2.018   5.249 -1.8399  0.7924  0.9143
   83SLPC  H15S 7843   0.078   2.144   5.169  0.7197  1.4076  2.0050
   83SLPC  C216 7844   0.266   2.210   5.255  0.2954  0.5675  0.9088
   83SLPC  H16R 7845   0.256   2.304   5.196 -0.7308  0.0137  0.1833
   83SLPC  H16S 7846   0.374   2.183   5.256  0.4739  1.1404 -0.5483
   83SLPC  C217 7847   0.224   2.241   5.393  0.7077 -0.1346 -0.2286
   83SLPC  H17R 7848   0.243   2.159   5.465 -0.4687 -0.4506 -0.2562
   83SLPC  H17S 7849   0.115   2.261   5.398  0.4571 -1.4510 -0.1448
   83SLPC  C218 7850   0.282   2.367   5.453 -0.1019 -0.5728 -0.4200
   83SLPC  H18R 7851   0.265   2.460   5.395 -1.9050  0.7061  2.0219
   83SLPC  H18S 7852   0.393   2.353   5.454 -0.1112 -0.7287  1.2872
   83SLPC  H18T 7853   0.260   2.388   5.560 -0.5853  2.3970 -1.0092
   83SLPC   C33 7854  -0.327   2.148   3.861 -0.2229 -0.4681  0.0108
   83SLPC   H3X 7855  -0.217   2.162   3.857 -0.4484  1.3252 -1.1826
   83SLPC   H3Y 7856  -0.348   2.045   3.825 -3.0362 -0.1277  0.4550
   83SLPC   C34 7857  -0.385   2.171   4.000 -0.5246 -0.2278 -0.4915
   83SLPC   H4X 7858  -0.487   2.128   3.995 -0.6294  0.0901 -1.3084
   83SLPC   H4Y 7859  -0.387   2.278   4.028  2.6091 -0.8561  2.8592
   83SLPC   C35 7860  -0.318   2.090   4.120 -0.4459 -0.6802 -0.0659
   83SLPC   H5X 7861  -0.292   1.989   4.083 -0.6038 -1.4230  1.7171
   83SLPC   H5Y 7862  -0.388   2.071   4.205  1.5693  2.3273  2.5179
   83SLPC   C36 7863  -0.204   2.171   4.185  0.1687  0.2862  0.1479
   83SLPC   H6X 7864  -0.214   2.281   4.179  2.6263  0.4879 -1.7796
   83SLPC   H6Y 7865  -0.116   2.152   4.121 -2.2831 -1.7589 -2.9303
   83SLPC   C37 7866  -0.188   2.146   4.336 -0.2802  0.2431  0.7978
   83SLPC   H7X 7867  -0.149   2.049   4.372 -1.5719 -0.4437  0.4125
   83SLPC   H7Y 7868  -0.291   2.143   4.380 -0.9157 -0.7891 -0.7026
   83SLPC   C38 7869  -0.106   2.244   4.416  0.8698 -0.2183 -0.7988
   83SLPC   H8X 7870  -0.134   2.343   4.373 -0.2767 -0.5781 -0.9082
   83SLPC   H8Y 7871   0.002   2.218   4.413  0.5778 -1.4413 -1.8471
   83SLPC   C39 7872  -0.141   2.234   4.564 -0.1239  0.2276 -0.7890
   83SLPC   H9X 7873  -0.119   2.131   4.600  0.0922  0.4847 -0.1634
   83SLPC   H9Y 7874  -0.248   2.259   4.579  0.1139  1.1923 -0.6605
   83SLPC  C310 7875  -0.060   2.333   4.646  0.3340 -0.1062 -0.3258
   83SLPC  H10X 7876  -0.073   2.435   4.603 -0.1145  0.3231  0.7952
   83SLPC  H10Y 7877   0.047   2.311   4.663  0.5414  2.6835  2.9619
   83SLPC  C311 7878  -0.100   2.323   4.793  0.7999  0.0480  0.1171
   83SLPC  H11X 7879  -0.081   2.229   4.850 -0.1889  0.2112  0.7419
   83SLPC  H11Y 7880  -0.211   2.333   4.799  0.9619  1.4406  1.2788
   83SLPC  C312 7881  -0.031   2.438   4.871  0.0177  0.3608 -0.0447
   83SLPC  H12X 7882  -0.064   2.535   4.828  2.2541  0.6170 -1.3339
   83SLPC  H12Y 7883   0.079   2.431   4.861 -0.1723 -0.2567 -1.9913
   83SLPC  C313 7884  -0.079   2.442   5.023  0.8152  0.0150 -0.2029
   83SLPC  H13X 7885  -0.054   2.356   5.088 -1.4855  1.4961  2.8767
   83SLPC  H13Y 7886  -0.189   2.455   5.020  0.9700  1.4128 -0.3764
   83SLPC  C314 7887  -0.025   2.566   5.107  0.0243  0.1561  0.6684
   83SLPC  H14X 7888  -0.064   2.576   5.211  0.7501  0.4586  0.9222
   83SLPC  H14Y 7889  -0.051   2.655   5.045 -1.2754 -1.2047 -0.8201
   83SLPC  C315 7890   0.129   2.571   5.118 -0.1493 -0.4435 -0.4615
   83SLPC  H15X 7891   0.163   2.554   5.014 -1.1960 -1.5577 -0.6376
   83SLPC  H15Y 7892   0.170   2.486   5.175  1.3830  0.5236 -0.0509
   83SLPC  C316 7893   0.179   2.711   5.169  0.4995 -0.7939 -0.8013
   83SLPC  H16X 7894   0.125   2.732   5.264 -1.4786 -1.2776 -1.7771
   83SLPC  H16Y 7895   0.164   2.791   5.094 -0.6408 -0.2834 -0.0619
   83SLPC  C317 7896   0.329   2.714   5.203 -0.0305  0.0657 -0.5113
   83SLPC  H17X 7897   0.398   2.676   5.125  1.3976 -0.7604  1.0870
   83SLPC  H17Y 7898   0.350   2.639   5.283 -0.1605 -0.1327 -0.6626
   83SLPC  C318 7899   0.368   2.855   5.254  0.2056  0.3705  0.0784
   83SLPC  H18X 7900   0.474   2.870   5.285 -0.2484  1.5894  1.1738
   83SLPC  H18Y 7901   0.294   2.885   5.331 -0.6859 -1.1971 -0.1249
   83SLPC  H18Z 7902   0.352   2.932   5.175  1.0866 -1.0761 -1.5664
   84SLPC     N 7903   2.553   5.465   2.544 -1.1230  0.1348  0.1920
   84SLPC   C13 7904   2.698   5.416   2.505  0.5559 -0.5890  0.2071
   84SLPC  H13A 7905   2.757   5.499   2.471  1.9883 -1.4336  0.5207
   84SLPC  H13B 7906   2.755   5.381   2.590  0.6390  2.2774  1.4278
   84SLPC  H13C 7907   2.696   5.337   2.432  3.2756 -1.0054  0.4490
   84SLPC   C14 7908   2.488   5.351   2.598  0.8013 -0.0629  0.4171
   84SLPC  H14A 7909   2.467   5.267   2.534 -1.9375  0.3750  0.6083
   84SLPC  H14B 7910   2.529   5.311   2.690  0.2886  1.0927  1.1838
   84SLPC  H14C 7911   2.388   5.382   2.627  1.2990  1.7378  0.3350
   84SLPC   C15 7912   2.496   5.507   2.416  0.1769 -0.1235  0.8811
   84SLPC  H15A 7913   2.540   5.596   2.373 -0.9076 -0.1650 -0.3714
   84SLPC  H15B 7914   2.518   5.439   2.335  1.0408  0.7246  0.3882
   84SLPC  H15C 7915   2.389   5.521   2.417 -0.1266 -1.3067 -2.5532
   84SLPC   C12 7916   2.556   5.583   2.640  0.2554  0.5408  0.4970
   84SLPC  H12A 7917   2.592   5.546   2.735  3.1129  2.6534  0.3863
   84SLPC  H12B 7918   2.455   5.621   2.641 -0.1694 -0.4169 -1.2948
   84SLPC   C11 7919   2.645   5.709   2.611  0.0374  0.4684  0.1166
   84SLPC  H11A 7920   2.626   5.792   2.683  2.4973  0.3607  0.9715
   84SLPC  H11B 7921   2.615   5.735   2.507  2.0496  3.0319  0.1003
   84SLPC     P 7922   2.892   5.760   2.564 -0.4547  0.1906 -0.0961
   84SLPC   O13 7923   3.004   5.764   2.655  0.3308 -0.4811 -0.4922
   84SLPC   O14 7924   2.920   5.721   2.429  0.3153  0.1594 -0.1546
   84SLPC   O12 7925   2.785   5.665   2.621 -0.0268 -0.1137 -0.0172
   84SLPC   O11 7926   2.816   5.896   2.563  0.1977  0.5969 -0.0391
   84SLPC    C1 7927   2.878   6.006   2.634  0.3831  0.2811  0.3900
   84SLPC    HA 7928   2.989   6.010   2.635  0.4446 -0.5681  2.5585
   84SLPC    HB 7929   2.841   6.098   2.584 -1.4199  0.1300  1.3661
   84SLPC    C2 7930   2.850   6.004   2.789 -0.1981 -0.0476  0.1627
   84SLPC    HS 7931   2.897   5.916   2.838 -3.1446 -1.2972  0.9599
   84SLPC   O21 7932   2.707   6.011   2.813  0.0620  0.7962 -0.3366
   84SLPC   C21 7933   2.667   5.918   2.892 -0.1835  0.6100 -0.1878
   84SLPC   O22 7934   2.725   5.817   2.932  0.4204 -0.3734  0.3162
   84SLPC   C22 7935   2.519   5.936   2.913 -0.2212  0.3871 -0.5157
   84SLPC   H2R 7936   2.475   5.951   2.812  0.9638  2.1072 -0.8323
   84SLPC   H2S 7937   2.470   5.849   2.959 -0.1693  0.9549  0.6365
   84SLPC    C3 7938   2.922   6.127   2.856 -0.2829  0.3543  0.2965
   84SLPC    HX 7939   2.889   6.227   2.821  1.1965  0.8765  0.3346
   84SLPC    HY 7940   3.032   6.129   2.838 -0.5551  0.4807 -1.5057
   84SLPC   O31 7941   2.891   6.115   2.993  0.2603 -0.7262  0.0176
   84SLPC   C31 7942   2.970   6.183   3.075 -0.0044 -0.1945 -0.4400
   84SLPC   O32 7943   3.052   6.270   3.041 -0.1766 -0.3089  0.1169
   84SLPC   C32 7944   2.933   6.152   3.215  0.0769  0.6616 -0.7359
   84SLPC   H2X 7945   2.935   6.042   3.227 -1.8758  0.5544 -0.9618
   84SLPC   H2Y 7946   2.827   6.184   3.228  0.5324  1.3514  1.7411
   84SLPC   C23 7947   2.501   6.051   3.011 -0.5918 -0.0983  0.2884
   84SLPC   H3R 7948   2.399   6.094   3.015  0.0953  1.9697 -1.9743
   84SLPC   H3S 7949   2.553   6.142   2.974 -3.6437  1.0178 -1.6125
   84SLPC   C24 7950   2.534   6.014   3.159  0.3300 -0.2153 -0.4184
   84SLPC   H4R 7951   2.533   6.112   3.211  1.3138  0.0706 -0.9128
   84SLPC   H4S 7952   2.641   5.984   3.167  0.8036  1.4909 -0.0338
   84SLPC   C25 7953   2.445   5.913   3.223  0.1457  0.5467  0.5706
   84SLPC   H5R 7954   2.487   5.812   3.202  0.0668 -0.1843  3.4535
   84SLPC   H5S 7955   2.342   5.928   3.183 -0.3380 -0.3363  1.4250
   84SLPC   C26 7956   2.428   5.932   3.377 -0.0426  0.5137  0.6076
   84SLPC   H6R 7957   2.346   5.859   3.394  0.2592 -0.8359 -2.9104
   84SLPC   H6S 7958   2.412   6.040   3.399  1.8646  0.3449  3.3480
   84SLPC   C27 7959   2.551   5.883   3.453  0.2911  0.0323 -0.6538
   84SLPC   H7R 7960   2.642   5.932   3.412  2.6940 -4.3221 -1.0974
   84SLPC   H7S 7961   2.554   5.773   3.443  3.0352 -0.1587  1.1870
   84SLPC   C28 7962   2.528   5.916   3.602 -0.1328 -0.3111 -0.0131
   84SLPC   H8R 7963   2.427   5.887   3.637  1.1812  0.7186  5.4998
   84SLPC   H8S 7964   2.532   6.026   3.613  1.2084 -0.3495 -0.0235
   84SLPC   C29 7965   2.636   5.855   3.685 -0.2517 -0.4091 -0.0698
   84SLPC   H9R 7966   2.705   5.793   3.625  0.5610  1.0784 -0.7480
   84SLPC  C210 7967   2.631   5.836   3.821 -0.3502 -0.5308 -0.1702
   84SLPC  H10R 7968   2.722   5.793   3.867 -0.4154  0.8488  1.3317
   84SLPC  C211 7969   2.539   5.896   3.922  0.2402  0.0881  0.3064
   84SLPC  H11R 7970   2.518   5.828   4.008 -1.3259  0.7777  0.5084
   84SLPC  H11S 7971   2.441   5.907   3.870 -0.4230 -2.1997  0.9729
   84SLPC  C212 7972   2.584   6.026   3.978 -0.6440  0.5297  0.5661
   84SLPC  H12R 7973   2.583   6.120   3.920  0.5926  0.8507  1.0336
   84SLPC  C213 7974   2.619   6.030   4.103  0.9278 -0.3379 -0.2641
   84SLPC  H13R 7975   2.639   6.128   4.150  0.7339 -0.0551 -0.7671
   84SLPC  C214 7976   2.616   5.932   4.214 -0.1344  0.5078  0.4604
   84SLPC  H14R 7977   2.691   5.853   4.193 -2.0038 -0.4183 -3.6238
   84SLPC  H14S 7978   2.517   5.882   4.226 -0.9961  2.0792  0.2506
   84SLPC  C215 7979   2.653   5.981   4.354 -0.5801 -0.6384  0.0211
   84SLPC  H15R 7980   2.754   6.026   4.363 -0.5340 -0.8067  0.3809
   84SLPC  H15S 7981   2.667   5.899   4.428  0.3575 -0.6416 -0.1465
   84SLPC  C216 7982   2.554   6.079   4.416 -0.6114  0.5322  0.4683
   84SLPC  H16R 7983   2.457   6.044   4.373  1.1497 -2.2240 -1.6214
   84SLPC  H16S 7984   2.592   6.178   4.385  2.2553 -0.3065  1.0640
   84SLPC  C217 7985   2.542   6.065   4.569 -0.6752 -0.4538  0.2511
   84SLPC  H17R 7986   2.635   6.102   4.617 -0.6556 -0.2997  0.0968
   84SLPC  H17S 7987   2.539   5.956   4.592  1.7021 -1.1270 -2.0979
   84SLPC  C218 7988   2.418   6.139   4.638 -0.2209  0.6332  0.2796
   84SLPC  H18R 7989   2.437   6.246   4.613 -0.3547  0.6288  0.1615
   84SLPC  H18S 7990   2.421   6.121   4.747  0.1899  0.6338  0.2693
   84SLPC  H18T 7991   2.318   6.099   4.610  0.0109  0.6476 -0.6098
   84SLPC   C33 7992   3.021   6.222   3.328 -0.0176 -0.1910  0.6358
   84SLPC   H3X 7993   3.035   6.331   3.313  2.3932 -0.1341  2.5829
   84SLPC   H3Y 7994   3.127   6.188   3.321 -0.5585 -1.5983 -1.8377
   84SLPC   C34 7995   2.975   6.204   3.470 -0.1194 -0.1605 -0.1855
   84SLPC   H4X 7996   2.870   6.239   3.474  0.2222  0.8163  2.0409
   84SLPC   H4Y 7997   3.038   6.272   3.531 -0.2014  0.1723 -0.4728
   84SLPC   C35 7998   2.974   6.062   3.514 -0.1968 -0.0338 -0.0109
   84SLPC   H5X 7999   3.075   6.020   3.499  0.3997  0.7008  1.7506
   84SLPC   H5Y 8000   2.903   5.995   3.461  1.2417 -1.8271  0.2673
   84SLPC   C36 8001   2.936   6.040   3.660 -0.3250  0.4246 -0.4427
   84SLPC   H6X 8002   2.906   5.934   3.674 -2.1565  1.0241  0.6282
   84SLPC   H6Y 8003   2.860   6.111   3.700  0.8422  1.6016 -0.2632
   84SLPC   C37 8004   3.056   6.054   3.759 -0.7071 -0.8296  0.0310
   84SLPC   H7X 8005   3.087   6.161   3.765  1.7478 -1.5428  1.6877
   84SLPC   H7Y 8006   3.136   5.987   3.721 -0.1703 -2.2098  3.2294
   84SLPC   C38 8007   3.016   6.017   3.899 -0.2524  1.1154 -0.0914
   84SLPC   H8X 8008   2.973   5.915   3.896  1.7736  0.2363 -0.9508
   84SLPC   H8Y 8009   2.940   6.084   3.946 -0.0645  2.0167 -1.0533
   84SLPC   C39 8010   3.133   6.003   3.998 -0.4790 -0.1495 -0.2918
   84SLPC   H9X 8011   3.188   6.099   4.007 -0.5600 -0.1057 -0.2621
   84SLPC   H9Y 8012   3.208   5.929   3.962  0.3725  0.4003  0.3276
   84SLPC  C310 8013   3.083   5.965   4.140 -0.2674  0.4677  0.7554
   84SLPC  H10X 8014   3.009   5.882   4.139 -1.3450  1.3229  2.8066
   84SLPC  H10Y 8015   3.024   6.055   4.170 -0.3231  0.2059  1.4640
   84SLPC  C311 8016   3.191   5.946   4.244 -0.4578  0.7797 -0.1283
   84SLPC  H11X 8017   3.263   6.030   4.233  1.6168 -0.9137 -0.1210
   84SLPC  H11Y 8018   3.245   5.849   4.239 -0.6803  0.6270  0.3722
   84SLPC  C312 8019   3.127   5.962   4.388  0.2294  0.4482  0.0443
   84SLPC  H12X 8020   3.056   5.877   4.401  0.5486  0.3954  1.5610
   84SLPC  H12Y 8021   3.067   6.055   4.389 -1.2279 -0.3640 -2.2587
   84SLPC  C313 8022   3.226   5.969   4.506 -0.0584  0.1919 -0.1311
   84SLPC  H13X 8023   3.318   6.018   4.468  0.4251  0.0459  0.8272
   84SLPC  H13Y 8024   3.260   5.864   4.520  0.8758  0.5098  0.0339
   84SLPC  C314 8025   3.177   6.005   4.645  0.1338  0.4957  0.2593
   84SLPC  H14X 8026   3.165   6.115   4.651 -2.3084  0.3306 -0.7000
   84SLPC  H14Y 8027   3.268   5.996   4.710  2.0310 -0.0549 -2.3063
   84SLPC  C315 8028   3.046   5.945   4.699 -0.0363  0.0983 -0.8524
   84SLPC  H15X 8029   3.050   5.834   4.704  0.2634  0.1149 -0.7091
   84SLPC  H15Y 8030   2.962   5.969   4.630 -1.1004 -2.9972 -0.7660
   84SLPC  C316 8031   3.022   5.984   4.843 -0.2198 -0.4670  0.4442
   84SLPC  H16X 8032   2.992   6.091   4.848 -0.1897 -0.4354 -0.0025
   84SLPC  H16Y 8033   3.114   5.963   4.901  0.4891  1.8856  0.3085
   84SLPC  C317 8034   2.897   5.908   4.898 -0.5977  0.1817 -0.1550
   84SLPC  H17X 8035   2.889   5.936   5.005  0.0619 -3.7183  1.0494
   84SLPC  H17Y 8036   2.907   5.798   4.900  0.9299  0.3099 -0.0285
   84SLPC  C318 8037   2.759   5.923   4.832 -0.2586 -0.2544  0.7985
   84SLPC  H18X 8038   2.740   6.031   4.818 -1.6618 -0.2770  2.2817
   84SLPC  H18Y 8039   2.678   5.878   4.894  1.1706 -1.2134  2.0761
   84SLPC  H18Z 8040   2.766   5.862   4.739  1.4316 -3.7701  3.0197
   85SLPC     N 8041   2.265   3.960   2.474  0.4708  0.1800 -0.4013
   85SLPC   C13 8042   2.372   4.035   2.408  0.6308 -0.3987  1.0704
   85SLPC  H13A 8043   2.341   4.139   2.407  1.3334 -0.1769 -0.6029
   85SLPC  H13B 8044   2.458   4.047   2.471 -0.0690  2.4385  1.6496
   85SLPC  H13C 8045   2.400   4.007   2.308  0.0958  0.4236  0.6722
   85SLPC   C14 8046   2.322   3.831   2.530 -0.3362  0.9086  0.1004
   85SLPC  H14A 8047   2.240   3.780   2.577 -1.6136  1.3421 -1.5832
   85SLPC  H14B 8048   2.352   3.767   2.448 -0.2791  1.1052 -0.0332
   85SLPC  H14C 8049   2.405   3.847   2.598 -0.6455 -0.6431  0.8837
   85SLPC   C15 8050   2.161   3.933   2.372 -0.2285  0.2801 -0.2423
   85SLPC  H15A 8051   2.102   4.017   2.339 -1.7504 -0.3011  0.8710
   85SLPC  H15B 8052   2.214   3.893   2.287  0.5664  0.6549  0.0607
   85SLPC  H15C 8053   2.085   3.866   2.410 -1.3494  2.0720  0.8247
   85SLPC   C12 8054   2.206   4.043   2.591 -0.3664 -0.7068 -0.2511
   85SLPC  H12A 8055   2.290   4.078   2.649  0.5185 -0.5696 -1.5765
   85SLPC  H12B 8056   2.152   3.976   2.656  0.7838 -2.0760 -0.6641
   85SLPC   C11 8057   2.112   4.164   2.550  0.2825  0.2007 -0.0043
   85SLPC  H11A 8058   2.103   4.225   2.642  0.0082 -1.1713  0.8935
   85SLPC  H11B 8059   2.015   4.122   2.517  2.0145 -3.0538 -1.4164
   85SLPC     P 8060   2.219   4.383   2.475  0.2412  0.0258 -0.2637
   85SLPC   O13 8061   2.328   4.405   2.378  0.0977 -0.4043  0.2286
   85SLPC   O14 8062   2.094   4.468   2.469  0.2639 -0.5486 -0.2378
   85SLPC   O12 8063   2.171   4.234   2.447 -0.1878  0.3528 -0.1200
   85SLPC   O11 8064   2.273   4.375   2.621 -1.0368  0.2854  0.1471
   85SLPC    C1 8065   2.286   4.490   2.705 -0.3673 -0.3718 -0.1392
   85SLPC    HA 8066   2.369   4.558   2.673 -1.4437  1.0751  0.0468
   85SLPC    HB 8067   2.193   4.550   2.694 -1.0827 -0.8539  2.4751
   85SLPC    C2 8068   2.314   4.447   2.856  0.7724 -0.1490 -0.2952
   85SLPC    HS 8069   2.389   4.366   2.861  0.4842 -0.4177 -0.3254
   85SLPC   O21 8070   2.191   4.415   2.920  0.2283  0.9908 -0.1949
   85SLPC   C21 8071   2.152   4.289   2.922  0.0046  0.2572 -0.0685
   85SLPC   O22 8072   2.217   4.194   2.885 -0.0822  0.3120 -0.1601
   85SLPC   C22 8073   2.002   4.283   2.956  0.0079 -0.0626  0.7836
   85SLPC   H2R 8074   1.949   4.379   2.940  1.6187  0.8797  0.8130
   85SLPC   H2S 8075   1.951   4.217   2.883  1.1268 -0.1032  0.0157
   85SLPC    C3 8076   2.380   4.550   2.944  0.1765  0.4417  0.0616
   85SLPC    HX 8077   2.300   4.623   2.968 -2.0351 -1.9704  0.4764
   85SLPC    HY 8078   2.450   4.606   2.877  0.2477 -0.5430 -0.7057
   85SLPC   O31 8079   2.449   4.502   3.060  0.1373  0.2941 -0.0935
   85SLPC   C31 8080   2.376   4.495   3.172 -0.2680 -0.9123 -0.4943
   85SLPC   O32 8081   2.262   4.543   3.178  0.1866  0.6182  0.4165
   85SLPC   C32 8082   2.451   4.443   3.289 -0.6942 -0.9362  0.2642
   85SLPC   H2X 8083   2.556   4.422   3.260  0.8970  2.1423  3.0400
   85SLPC   H2Y 8084   2.397   4.351   3.321 -0.0227 -0.8855  1.6589
   85SLPC   C23 8085   1.969   4.233   3.100  0.2963  0.2562  0.1155
   85SLPC   H3R 8086   1.995   4.125   3.106 -0.1074  0.1469 -0.0411
   85SLPC   H3S 8087   1.859   4.222   3.110  0.2546 -0.6729 -1.1730
   85SLPC   C24 8088   2.025   4.316   3.216 -0.5660 -0.4666 -0.3849
   85SLPC   H4R 8089   2.014   4.425   3.200 -0.3898 -0.2015  1.0813
   85SLPC   H4S 8090   2.134   4.294   3.227 -0.1860  0.8659 -1.2678
   85SLPC   C25 8091   1.957   4.276   3.352  0.1540  0.3781 -0.0227
   85SLPC   H5R 8092   1.855   4.321   3.358  1.0069  2.6013 -1.0921
   85SLPC   H5S 8093   1.934   4.167   3.351 -0.1058  0.3659  2.3255
   85SLPC   C26 8094   2.024   4.314   3.489  0.3655 -0.6894  0.2196
   85SLPC   H6R 8095   2.037   4.423   3.473 -0.0497 -0.9636 -2.5524
   85SLPC   H6S 8096   2.121   4.260   3.490 -0.0846 -1.5358 -0.5114
   85SLPC   C27 8097   1.932   4.288   3.610  0.2701 -0.1842 -0.0271
   85SLPC   H7R 8098   1.876   4.193   3.618 -2.5219  1.4500  1.6128
   85SLPC   H7S 8099   1.851   4.364   3.623 -0.1959 -0.6391 -0.2447
   85SLPC   C28 8100   2.027   4.313   3.728  0.2278 -0.3205 -0.8817
   85SLPC   H8R 8101   2.085   4.407   3.715  2.2518 -1.3693  0.1759
   85SLPC   H8S 8102   2.102   4.231   3.729 -0.2932 -0.8281  1.1065
   85SLPC   C29 8103   1.958   4.324   3.864 -0.2092  0.4269  0.3807
   85SLPC   H9R 8104   1.918   4.425   3.881  0.1679  0.5809  0.3813
   85SLPC  C210 8105   1.935   4.225   3.948 -0.7998  0.0620 -0.2027
   85SLPC  H10R 8106   1.886   4.258   4.041 -2.2772  1.0304 -1.2753
   85SLPC  C211 8107   1.985   4.081   3.933 -0.7805 -0.0295  0.0191
   85SLPC  H11R 8108   2.071   4.065   4.001  0.0477  0.2935 -0.9248
   85SLPC  H11S 8109   2.018   4.068   3.827  0.2663  1.9421  0.0488
   85SLPC  C212 8110   1.882   3.974   3.948 -0.5436  0.1957  0.7852
   85SLPC  H12R 8111   1.804   3.962   3.872  0.1130  1.8456 -0.2205
   85SLPC  C213 8112   1.877   3.888   4.051 -0.1539  0.8099 -0.6219
   85SLPC  H13R 8113   1.797   3.813   4.058 -1.3120  1.9643 -1.0665
   85SLPC  C214 8114   1.961   3.884   4.174 -0.5023  0.2455  0.4578
   85SLPC  H14R 8115   1.994   3.985   4.206  0.4257 -0.2718  1.2023
   85SLPC  H14S 8116   2.051   3.824   4.149 -0.4003 -0.0100  1.3936
   85SLPC  C215 8117   1.899   3.840   4.308  0.2575  0.3595  0.4193
   85SLPC  H15R 8118   1.862   3.738   4.283 -1.6942  1.2150 -0.4271
   85SLPC  H15S 8119   1.809   3.905   4.320  0.0492  0.5544 -1.8313
   85SLPC  C216 8120   1.996   3.856   4.425 -0.3752  0.9697 -0.3722
   85SLPC  H16R 8121   2.031   3.960   4.444  2.6353  0.5955 -3.0185
   85SLPC  H16S 8122   2.079   3.789   4.392 -1.0845 -0.4158  0.5403
   85SLPC  C217 8123   1.926   3.796   4.554  0.0170  0.0283  0.3263
   85SLPC  H17R 8124   1.901   3.688   4.548 -1.5948  0.4132 -0.4751
   85SLPC  H17S 8125   1.834   3.855   4.576 -0.1869 -0.8665  2.0267
   85SLPC  C218 8126   2.017   3.809   4.686  0.3449  0.1771 -0.5368
   85SLPC  H18R 8127   1.952   3.822   4.776  1.0377  1.0382 -0.1442
   85SLPC  H18S 8128   2.070   3.906   4.672 -0.3386  0.4583 -1.2828
   85SLPC  H18T 8129   2.073   3.714   4.681  0.1337  0.0429 -0.3849
   85SLPC   C33 8130   2.453   4.550   3.401 -0.0441 -0.0629  0.0473
   85SLPC   H3X 8131   2.368   4.620   3.387  0.3145  0.4970  0.6140
   85SLPC   H3Y 8132   2.542   4.615   3.407  0.1848 -0.2054 -1.5137
   85SLPC   C34 8133   2.428   4.480   3.532  0.2455  0.7162 -0.4767
   85SLPC   H4X 8134   2.509   4.417   3.573  0.2756 -0.2618 -1.9874
   85SLPC   H4Y 8135   2.342   4.413   3.514  1.3486 -1.4043  1.5825
   85SLPC   C35 8136   2.392   4.582   3.644 -0.2309  0.1783  0.6132
   85SLPC   H5X 8137   2.295   4.632   3.627 -0.8346 -0.3660  2.2326
   85SLPC   H5Y 8138   2.472   4.659   3.654 -0.5805  0.8917 -1.6058
   85SLPC   C36 8139   2.383   4.504   3.780 -0.6439  0.0685  0.8319
   85SLPC   H6X 8140   2.467   4.432   3.771  0.4398  1.5498 -4.4137
   85SLPC   H6Y 8141   2.286   4.450   3.779 -0.7483  0.1726 -1.8848
   85SLPC   C37 8142   2.393   4.593   3.901  0.1618  0.1210  0.5637
   85SLPC   H7X 8143   2.328   4.683   3.899  0.9230  0.6916 -1.1524
   85SLPC   H7Y 8144   2.496   4.634   3.909  0.1663  0.2503 -0.0872
   85SLPC   C38 8145   2.369   4.516   4.037 -0.4602  0.2454  1.4092
   85SLPC   H8X 8146   2.427   4.575   4.111  0.7684 -1.3016  1.7234
   85SLPC   H8Y 8147   2.424   4.420   4.027  0.1224  0.7500 -0.7210
   85SLPC   C39 8148   2.223   4.508   4.074 -0.2139 -0.1592 -0.0585
   85SLPC   H9X 8149   2.180   4.435   4.002 -0.7974 -0.5677  0.6917
   85SLPC   H9Y 8150   2.166   4.603   4.069 -3.9063 -2.2399 -1.2248
   85SLPC  C310 8151   2.208   4.457   4.222  0.0829 -0.0450 -0.8699
   85SLPC  H10X 8152   2.180   4.544   4.284 -0.1170  0.4595 -1.6620
   85SLPC  H10Y 8153   2.303   4.407   4.251 -1.0505 -0.4447  2.6190
   85SLPC  C311 8154   2.087   4.360   4.228  0.0763  0.4924  0.0752
   85SLPC  H11X 8155   2.114   4.285   4.151 -0.1540 -0.2309  0.6896
   85SLPC  H11Y 8156   1.993   4.408   4.192  0.4115 -0.1876 -1.8621
   85SLPC  C312 8157   2.062   4.296   4.368  0.2397 -0.1917  0.0318
   85SLPC  H12X 8158   2.153   4.242   4.402 -0.5995 -0.4726  1.9841
   85SLPC  H12Y 8159   1.981   4.227   4.336 -0.8865  1.2914 -0.4049
   85SLPC  C313 8160   2.016   4.388   4.479  0.6024 -0.2696 -0.1343
   85SLPC  H13X 8161   1.912   4.419   4.454  0.5125 -0.2102  0.2953
   85SLPC  H13Y 8162   2.072   4.484   4.484  0.5087 -0.2395  0.5367
   85SLPC  C314 8163   2.013   4.322   4.617  0.1591  0.2536  0.1726
   85SLPC  H14X 8164   2.114   4.294   4.654  0.1568  0.3566  0.2575
   85SLPC  H14Y 8165   1.944   4.234   4.618 -1.2110  1.2582  2.1591
   85SLPC  C315 8166   1.964   4.433   4.724 -0.4587  0.4112  0.6960
   85SLPC  H15X 8167   1.859   4.457   4.695 -0.2694  0.5002  0.0719
   85SLPC  H15Y 8168   2.017   4.529   4.705 -1.8688  1.3441  1.3476
   85SLPC  C316 8169   1.988   4.381   4.866  0.5984  0.0793  0.5108
   85SLPC  H16X 8170   1.975   4.461   4.942 -0.9306 -0.1559  0.5367
   85SLPC  H16Y 8171   2.092   4.344   4.874  0.1096 -2.5854 -3.0730
   85SLPC  C317 8172   1.899   4.261   4.904 -0.0101  0.1450  0.2267
   85SLPC  H17X 8173   1.897   4.180   4.827  0.1243  2.3163 -2.1960
   85SLPC  H17Y 8174   1.797   4.304   4.909  0.0066  0.3641 -0.9609
   85SLPC  C318 8175   1.943   4.188   5.027 -0.1304  0.2378 -0.0884
   85SLPC  H18X 8176   2.036   4.131   5.008 -0.8298 -1.6260  1.6471
   85SLPC  H18Y 8177   1.868   4.119   5.073  0.1267 -0.0326 -0.0711
   85SLPC  H18Z 8178   1.969   4.259   5.109  0.1066 -0.9253  0.8791
   86SLPC     N 8179   0.879   0.517   2.925 -0.7537  0.5149  0.0186
   86SLPC   C13 8180   0.774   0.488   2.824 -0.3483 -0.2112  0.0419
   86SLPC  H13A 8181   0.706   0.572   2.826  0.5470  0.5089  1.0059
   86SLPC  H13B 8182   0.825   0.492   2.729  0.3294 -1.2026  0.3447
   86SLPC  H13C 8183   0.720   0.396   2.842 -1.1475  0.5205  1.6604
   86SLPC   C14 8184   0.971   0.400   2.927 -0.5477  0.4415 -1.1389
   86SLPC  H14A 8185   1.025   0.374   2.837 -1.3223 -1.0265 -1.2296
   86SLPC  H14B 8186   1.040   0.413   3.008  0.6883 -1.0623 -1.8839
   86SLPC  H14C 8187   0.910   0.315   2.956 -0.6909  0.9557  0.1161
   86SLPC   C15 8188   0.813   0.535   3.060 -0.0369 -0.4135 -0.1760
   86SLPC  H15A 8189   0.747   0.620   3.067 -1.0830 -1.3237  4.3574
   86SLPC  H15B 8190   0.776   0.444   3.103 -0.4970  0.0766  0.4863
   86SLPC  H15C 8191   0.890   0.570   3.128  1.4978 -1.8083 -1.1325
   86SLPC   C12 8192   0.963   0.642   2.887  0.7526 -0.2040  0.0617
   86SLPC  H12A 8193   1.031   0.663   2.969 -0.2797 -0.3021  0.9708
   86SLPC  H12B 8194   0.890   0.721   2.879  1.4445  0.4771  0.2986
   86SLPC   C11 8195   1.047   0.644   2.757  0.8441 -0.3232 -1.0315
   86SLPC  H11A 8196   1.055   0.749   2.723 -0.1375  0.1122  0.0602
   86SLPC  H11B 8197   0.989   0.585   2.682 -1.1824  1.0643 -0.6160
   86SLPC     P 8198   1.285   0.677   2.849  0.0410 -0.2250  0.1467
   86SLPC   O13 8199   1.419   0.616   2.838  0.5822  0.4053  0.2555
   86SLPC   O14 8200   1.266   0.817   2.812 -0.6017  0.3472 -0.0300
   86SLPC   O12 8201   1.177   0.585   2.789  0.1926 -0.2210  0.6187
   86SLPC   O11 8202   1.242   0.667   2.996  0.8224 -0.6357 -0.0781
   86SLPC    C1 8203   1.294   0.565   3.084  0.4383  0.4870 -0.0561
   86SLPC    HA 8204   1.266   0.459   3.066  0.7938  0.4053 -0.1348
   86SLPC    HB 8205   1.405   0.558   3.083  0.4850  1.0911  0.4848
   86SLPC    C2 8206   1.248   0.595   3.228 -0.0242 -0.0173 -0.4127
   86SLPC    HS 8207   1.158   0.535   3.254  0.4177  0.3544  2.3403
   86SLPC   O21 8208   1.224   0.742   3.256 -0.3216  0.8375 -0.3624
   86SLPC   C21 8209   1.099   0.776   3.254 -0.3278  0.2724  0.5435
   86SLPC   O22 8210   1.008   0.698   3.236 -0.0908  0.3501  0.5757
   86SLPC   C22 8211   1.081   0.925   3.285 -0.0854 -0.1526  0.2417
   86SLPC   H2R 8212   1.148   0.951   3.369 -2.0386  0.9362  1.5507
   86SLPC   H2S 8213   1.119   0.984   3.199 -2.7225  0.3005 -0.7118
   86SLPC    C3 8214   1.347   0.539   3.333 -1.0617  0.1231 -0.1308
   86SLPC    HX 8215   1.446   0.587   3.326 -1.4420  0.8652 -0.5551
   86SLPC    HY 8216   1.368   0.431   3.318  2.2069  0.7682 -0.8667
   86SLPC   O31 8217   1.301   0.547   3.472  0.7603 -0.2697 -0.5210
   86SLPC   C31 8218   1.336   0.658   3.529 -0.5936 -0.6961 -0.5010
   86SLPC   O32 8219   1.399   0.756   3.483 -0.6312  0.0573  0.2695
   86SLPC   C32 8220   1.307   0.640   3.682 -0.1959  0.1333  0.5856
   86SLPC   H2X 8221   1.341   0.544   3.727  0.1417  1.5526  3.6456
   86SLPC   H2Y 8222   1.196   0.638   3.686 -0.2775  2.8896  1.6838
   86SLPC   C23 8223   0.937   0.963   3.327  0.2530  0.0137 -0.5496
   86SLPC   H3R 8224   0.860   0.914   3.263  1.4542  0.0034 -2.0473
   86SLPC   H3S 8225   0.918   1.073   3.325 -2.7344 -0.4330 -1.5688
   86SLPC   C24 8226   0.897   0.915   3.468 -0.1923  0.2586  0.1574
   86SLPC   H4R 8227   0.917   0.806   3.467 -0.8564  0.1382 -0.0814
   86SLPC   H4S 8228   0.789   0.930   3.483 -0.1313 -0.6188  1.6266
   86SLPC   C25 8229   0.961   0.993   3.579  0.1552 -0.1274  0.2268
   86SLPC   H5R 8230   0.933   1.099   3.559  0.0181 -0.4529 -1.4513
   86SLPC   H5S 8231   1.072   0.993   3.576  0.1691 -0.9711 -3.0453
   86SLPC   C26 8232   0.904   0.958   3.717  0.1997 -0.0060  0.2804
   86SLPC   H6R 8233   0.889   0.848   3.718 -3.4189  0.2818 -2.5566
   86SLPC   H6S 8234   0.802   1.000   3.726  0.2327 -0.0494  0.9136
   86SLPC   C27 8235   0.990   1.012   3.835  0.7977  0.5687  0.0359
   86SLPC   H7R 8236   0.967   1.121   3.839 -3.0452 -0.1401  1.8761
   86SLPC   H7S 8237   1.094   0.982   3.808  0.5374  0.5591 -0.9909
   86SLPC   C28 8238   0.947   0.938   3.959 -0.2206 -0.0148  0.0284
   86SLPC   H8R 8239   1.009   0.972   4.044  0.2070 -0.3065 -0.1676
   86SLPC   H8S 8240   0.978   0.833   3.940 -2.0366 -1.2084  2.8932
   86SLPC   C29 8241   0.801   0.945   3.996 -0.3956 -0.2184 -0.3991
   86SLPC   H9R 8242   0.736   0.900   3.920 -1.9328 -1.2684  1.4225
   86SLPC  C210 8243   0.739   0.994   4.105 -0.6421 -0.0580  0.3256
   86SLPC  H10R 8244   0.631   0.974   4.107 -0.9624  1.5400  0.1458
   86SLPC  C211 8245   0.813   1.070   4.215  0.3400  0.1010  0.2425
   86SLPC  H11R 8246   0.757   1.167   4.213  0.7037  0.6048  4.6134
   86SLPC  H11S 8247   0.919   1.087   4.187  0.2178  0.5532  0.0404
   86SLPC  C212 8248   0.806   1.002   4.349  0.4275  0.1294  0.1786
   86SLPC  H12R 8249   0.855   0.903   4.355  2.3221  1.1084  4.2321
   86SLPC  C213 8250   0.777   1.054   4.466  1.1572  0.0362  0.3589
   86SLPC  H13R 8251   0.775   0.988   4.553  0.8613 -2.4782 -1.4551
   86SLPC  C214 8252   0.721   1.194   4.490  0.3241  0.3923 -0.2597
   86SLPC  H14R 8253   0.749   1.256   4.403  3.1279  0.3636  0.5427
   86SLPC  H14S 8254   0.769   1.258   4.567 -2.5893 -0.1748  2.2517
   86SLPC  C215 8255   0.566   1.208   4.497  0.4843 -0.0348  0.2136
   86SLPC  H15R 8256   0.524   1.308   4.521 -1.1801 -0.7093  0.1981
   86SLPC  H15S 8257   0.527   1.146   4.580  0.5523  1.2238  1.2275
   86SLPC  C216 8258   0.497   1.162   4.359 -0.0131 -0.4431 -0.8565
   86SLPC  H16R 8259   0.509   1.052   4.354 -2.1656 -0.8396  1.1815
   86SLPC  H16S 8260   0.553   1.213   4.277  1.0138 -0.8139 -0.4108
   86SLPC  C217 8261   0.348   1.185   4.356  0.0491  0.2478 -0.5797
   86SLPC  H17R 8262   0.317   1.286   4.388 -0.6665 -0.1549  0.0306
   86SLPC  H17S 8263   0.315   1.119   4.439  2.2153  0.1811  0.3065
   86SLPC  C218 8264   0.288   1.144   4.222  0.3214  0.2700  0.7525
   86SLPC  H18R 8265   0.319   1.209   4.138  0.1478 -2.0359 -1.2270
   86SLPC  H18S 8266   0.177   1.154   4.231 -0.0652 -2.7130  0.4546
   86SLPC  H18T 8267   0.316   1.039   4.197  0.8863  0.7855 -0.8573
   86SLPC   C33 8268   1.354   0.753   3.774  0.0167  0.4728  0.6181
   86SLPC   H3X 8269   1.312   0.851   3.744 -0.3715 -0.3264 -1.6675
   86SLPC   H3Y 8270   1.462   0.776   3.772  0.0739  0.2397  0.9894
   86SLPC   C34 8271   1.298   0.730   3.913  0.1560  0.2002 -0.5020
   86SLPC   H4X 8272   1.290   0.622   3.933 -0.9179 -0.0458 -2.0830
   86SLPC   H4Y 8273   1.195   0.772   3.918 -0.0147 -0.2428 -0.3051
   86SLPC   C35 8274   1.389   0.780   4.027  0.3108 -0.0769  0.6934
   86SLPC   H5X 8275   1.413   0.888   4.016  0.4627 -0.1059  0.7329
   86SLPC   H5Y 8276   1.487   0.730   4.012  0.1421  0.3901 -2.9492
   86SLPC   C36 8277   1.327   0.734   4.163  0.0175 -1.0953 -0.2892
   86SLPC   H6X 8278   1.312   0.624   4.157  0.7857 -1.2076 -0.3249
   86SLPC   H6Y 8279   1.229   0.783   4.178 -0.2697 -1.7595  0.0173
   86SLPC   C37 8280   1.424   0.763   4.277 -0.4598 -0.1668 -0.7175
   86SLPC   H7X 8281   1.447   0.871   4.281 -1.6683  0.0795 -0.1596
   86SLPC   H7Y 8282   1.516   0.704   4.252  1.0591  1.7658  0.0834
   86SLPC   C38 8283   1.372   0.714   4.408  0.7782 -0.2728 -1.3142
   86SLPC   H8X 8284   1.436   0.748   4.492 -0.5891  0.5867 -0.5827
   86SLPC   H8Y 8285   1.382   0.603   4.410  0.1816 -0.3814  1.8036
   86SLPC   C39 8286   1.233   0.756   4.449 -0.2844  1.0554  0.0515
   86SLPC   H9X 8287   1.201   0.720   4.550  0.5945 -1.4307 -0.4845
   86SLPC   H9Y 8288   1.168   0.699   4.379 -1.2411 -0.4021  2.0117
   86SLPC  C310 8289   1.211   0.903   4.441  0.9527 -0.0968 -0.4898
   86SLPC  H10X 8290   1.111   0.927   4.485  1.0863 -0.9752  0.3380
   86SLPC  H10Y 8291   1.222   0.949   4.341 -2.9074  3.4513  0.4463
   86SLPC  C311 8292   1.302   0.977   4.539 -0.5756 -0.5891 -0.0305
   86SLPC  H11X 8293   1.396   1.001   4.486 -1.0471 -2.1776 -1.7140
   86SLPC  H11Y 8294   1.322   0.910   4.626  1.0184 -1.2633 -0.8732
   86SLPC  C312 8295   1.228   1.092   4.609 -0.3665 -0.4104 -0.2451
   86SLPC  H12X 8296   1.148   1.064   4.681  0.0369  0.4027  0.5395
   86SLPC  H12Y 8297   1.197   1.150   4.519  2.5707 -2.4907 -2.8230
   86SLPC  C313 8298   1.323   1.180   4.698 -0.3043 -0.1105 -0.1723
   86SLPC  H13X 8299   1.258   1.246   4.760  2.3146  1.6848  0.8078
   86SLPC  H13Y 8300   1.383   1.254   4.640 -3.5116  2.2292 -0.8183
   86SLPC  C314 8301   1.418   1.113   4.791 -0.0598 -0.7655  0.2412
   86SLPC  H14X 8302   1.476   1.031   4.743  0.2800 -0.4442  0.1019
   86SLPC  H14Y 8303   1.346   1.068   4.863  0.4352 -1.1872  0.4780
   86SLPC  C315 8304   1.516   1.202   4.862  0.2787  0.1958 -0.0672
   86SLPC  H15X 8305   1.464   1.259   4.941 -1.3508  1.0364 -1.6679
   86SLPC  H15Y 8306   1.565   1.270   4.788 -0.9299  3.9907  2.3367
   86SLPC  C316 8307   1.635   1.120   4.920  0.2030  0.2310 -0.4720
   86SLPC  H16X 8308   1.692   1.087   4.831 -0.3118 -2.0658 -0.0380
   86SLPC  H16Y 8309   1.600   1.033   4.980 -0.3326  1.1636  0.6009
   86SLPC  C317 8310   1.741   1.199   4.998  0.1984 -0.3394  0.4692
   86SLPC  H17X 8311   1.683   1.253   5.076  1.7000  1.8463  0.1546
   86SLPC  H17Y 8312   1.785   1.275   4.930 -3.4421 -1.3097 -3.3547
   86SLPC  C318 8313   1.852   1.099   5.050  0.1989  0.1521 -0.1021
   86SLPC  H18X 8314   1.792   1.038   5.122 -0.8677 -0.2614 -1.2972
   86SLPC  H18Y 8315   1.945   1.152   5.079  0.0042 -0.6064  2.1098
   86SLPC  H18Z 8316   1.863   1.039   4.957 -2.3684 -0.0679 -0.3422
   87SLPC     N 8317   0.224   0.031   2.462 -0.2531  0.5171 -0.6178
   87SLPC   C13 8318   0.134  -0.091   2.475 -0.7073  0.2440  0.3509
   87SLPC  H13A 8319   0.138  -0.129   2.576  0.0928 -2.0596 -0.4662
   87SLPC  H13B 8320   0.034  -0.081   2.437  0.1339 -2.0105 -2.8514
   87SLPC  H13C 8321   0.172  -0.169   2.410 -0.6125  0.2304  0.4207
   87SLPC   C14 8322   0.197   0.077   2.317  0.0450 -0.2130  0.3675
   87SLPC  H14A 8323   0.092   0.070   2.293 -0.1018  0.9849  0.5669
   87SLPC  H14B 8324   0.229   0.178   2.294 -1.9747  0.0703 -1.5172
   87SLPC  H14C 8325   0.245   0.001   2.258 -2.0165 -1.1046 -0.2381
   87SLPC   C15 8326   0.363  -0.005   2.476 -0.5773  0.1227 -0.0371
   87SLPC  H15A 8327   0.406  -0.014   2.574  1.6390 -0.0431 -0.9427
   87SLPC  H15B 8328   0.382  -0.097   2.423 -0.0148  0.1219  0.1592
   87SLPC  H15C 8329   0.416   0.078   2.430 -2.0561  1.8461  1.2630
   87SLPC   C12 8330   0.193   0.139   2.562  0.4469 -0.5003  0.5436
   87SLPC  H12A 8331   0.087   0.161   2.559  0.5956  0.1863 -0.0290
   87SLPC  H12B 8332   0.245   0.230   2.537 -1.6650  0.7818  0.5641
   87SLPC   C11 8333   0.230   0.126   2.715 -0.3232 -0.0078  0.5837
   87SLPC  H11A 8334   0.190   0.026   2.744  0.0151 -0.2873  0.1277
   87SLPC  H11B 8335   0.177   0.203   2.773 -0.6168 -0.2421  0.6321
   87SLPC     P 8336   0.437   0.284   2.725  0.1896  0.0555  0.1310
   87SLPC   O13 8337   0.578   0.284   2.779 -1.0780  0.0921  0.5519
   87SLPC   O14 8338   0.421   0.340   2.588 -0.1487 -0.0364 -0.4056
   87SLPC   O12 8339   0.369   0.140   2.738 -0.1956 -0.2215 -0.4256
   87SLPC   O11 8340   0.342   0.358   2.826  0.0996 -1.0417 -0.1136
   87SLPC    C1 8341   0.345   0.341   2.963 -0.3612 -0.1024 -0.2828
   87SLPC    HA 8342   0.241   0.349   3.000 -0.4757 -1.8911 -0.1770
   87SLPC    HB 8343   0.401   0.250   2.994  1.4394  0.7958 -0.7625
   87SLPC    C2 8344   0.421   0.459   3.032  0.6713 -0.2141  0.5890
   87SLPC    HS 8345   0.528   0.461   3.004  0.8026 -2.3836  0.8096
   87SLPC   O21 8346   0.398   0.435   3.169  0.4050  0.3586  0.0773
   87SLPC   C21 8347   0.478   0.344   3.220 -0.3485  0.3557  0.5886
   87SLPC   O22 8348   0.582   0.303   3.164 -0.3692  0.0774 -0.6071
   87SLPC   C22 8349   0.428   0.300   3.356  0.1518  0.7789 -0.3975
   87SLPC   H2R 8350   0.370   0.386   3.395  0.4023  0.7392  0.0604
   87SLPC   H2S 8351   0.375   0.202   3.347  0.6853  0.3417  0.9843
   87SLPC    C3 8352   0.362   0.595   2.990  0.0933 -0.1333 -0.1325
   87SLPC    HX 8353   0.255   0.612   3.012  0.0999 -1.7946  1.4909
   87SLPC    HY 8354   0.387   0.614   2.884  1.1001 -1.1981 -0.1120
   87SLPC   O31 8355   0.420   0.698   3.075  0.1699 -0.5516  0.3232
   87SLPC   C31 8356   0.539   0.742   3.045  0.5142 -0.2312 -0.6295
   87SLPC   O32 8357   0.596   0.708   2.944  0.0703 -0.0022  0.0606
   87SLPC   C32 8358   0.598   0.829   3.151  0.3843 -0.4054 -0.6019
   87SLPC   H2X 8359   0.564   0.931   3.122  1.0852  0.1720  0.5141
   87SLPC   H2Y 8360   0.707   0.812   3.147  0.5332  0.0962  0.7923
   87SLPC   C23 8361   0.540   0.278   3.458 -0.2248 -0.5099 -0.1873
   87SLPC   H3R 8362   0.590   0.378   3.460 -0.5086 -0.3759  0.5388
   87SLPC   H3S 8363   0.615   0.202   3.429 -0.5552 -1.7682  2.0510
   87SLPC   C24 8364   0.492   0.221   3.598  0.5865  0.0776 -0.0532
   87SLPC   H4R 8365   0.454   0.120   3.570  2.1006 -0.0056 -2.0777
   87SLPC   H4S 8366   0.404   0.275   3.639 -0.9550 -0.4497 -2.4021
   87SLPC   C25 8367   0.595   0.207   3.701  0.3285 -0.3204  0.1660
   87SLPC   H5R 8368   0.646   0.306   3.703 -1.6515  0.7880 -1.0275
   87SLPC   H5S 8369   0.670   0.133   3.666  2.7335  1.8752  0.3533
   87SLPC   C26 8370   0.550   0.157   3.843  0.1140 -0.2312  0.2923
   87SLPC   H6R 8371   0.485   0.068   3.830  0.0626 -0.0109 -1.0755
   87SLPC   H6S 8372   0.485   0.236   3.888 -0.8578 -1.8837  1.9585
   87SLPC   C27 8373   0.666   0.137   3.943 -0.0588  0.4486  0.8891
   87SLPC   H7R 8374   0.701   0.233   3.985  0.9963  0.2992  0.3845
   87SLPC   H7S 8375   0.752   0.089   3.891  0.9666  3.4810 -0.4519
   87SLPC   C28 8376   0.632   0.031   4.046 -0.0720  0.4088  0.3040
   87SLPC   H8R 8377   0.724   0.017   4.106  0.8336 -0.1937 -1.1629
   87SLPC   H8S 8378   0.609  -0.065   3.994 -2.5162  1.0743  0.0143
   87SLPC   C29 8379   0.512   0.063   4.129 -0.1082  0.0383 -0.1487
   87SLPC   H9R 8380   0.421   0.091   4.074 -0.1244 -0.3616 -0.3200
   87SLPC  C210 8381   0.505   0.056   4.266 -0.9671 -0.0466 -0.4651
   87SLPC  H10R 8382   0.412   0.063   4.324 -0.7344 -3.6123  0.6208
   87SLPC  C211 8383   0.619   0.013   4.360 -0.1503 -0.2117  0.5468
   87SLPC  H11R 8384   0.604   0.031   4.469  0.5583  1.2170  0.4398
   87SLPC  H11S 8385   0.701   0.080   4.324 -2.1974  0.8636 -2.5120
   87SLPC  C212 8386   0.669  -0.131   4.350  0.0311 -0.5932 -0.0929
   87SLPC  H12R 8387   0.763  -0.142   4.294 -0.1083 -4.2997  0.1312
   87SLPC  C213 8388   0.608  -0.238   4.415 -0.3310 -0.1146 -0.0852
   87SLPC  H13R 8389   0.662  -0.334   4.414  1.1183  0.6430  1.0911
   87SLPC  C214 8390   0.481  -0.222   4.500  0.1343 -0.7063  0.4411
   87SLPC  H14R 8391   0.399  -0.283   4.457  0.6539 -0.5058 -0.8884
   87SLPC  H14S 8392   0.437  -0.120   4.506 -0.5409 -1.0121  0.7171
   87SLPC  C215 8393   0.498  -0.278   4.642  0.6598 -0.7129  0.7148
   87SLPC  H15R 8394   0.566  -0.213   4.700  1.5657 -1.7414  0.8365
   87SLPC  H15S 8395   0.530  -0.385   4.644  2.7267 -0.1312  0.4722
   87SLPC  C216 8396   0.363  -0.264   4.723 -0.0344 -0.6282 -0.0201
   87SLPC  H16R 8397   0.356  -0.318   4.820  0.4185 -1.4553 -0.4374
   87SLPC  H16S 8398   0.277  -0.299   4.663 -0.2756 -1.4864  0.7957
   87SLPC  C217 8399   0.346  -0.117   4.768  0.3012 -0.2090  0.0433
   87SLPC  H17R 8400   0.348  -0.050   4.679 -0.0371  1.4570  1.2418
   87SLPC  H17S 8401   0.436  -0.087   4.826 -0.8344  2.5560  0.4990
   87SLPC  C218 8402   0.215  -0.096   4.844 -0.3345 -0.2605 -0.2045
   87SLPC  H18R 8403   0.204   0.014   4.854  0.3996 -0.1560 -0.5040
   87SLPC  H18S 8404   0.213  -0.135   4.949  0.8369 -1.2707 -0.5250
   87SLPC  H18T 8405   0.132  -0.131   4.779 -2.9536  1.5416  1.9401
   87SLPC   C33 8406   0.544   0.803   3.300 -0.0787  0.0525  0.5877
   87SLPC   H3X 8407   0.436   0.827   3.303 -0.1233 -0.0656 -0.0016
   87SLPC   H3Y 8408   0.574   0.888   3.364 -0.3586  0.0259  0.7551
   87SLPC   C34 8409   0.614   0.681   3.371 -0.2931 -0.2251 -0.2625
   87SLPC   H4X 8410   0.719   0.712   3.386  0.8124 -1.8819 -3.6081
   87SLPC   H4Y 8411   0.612   0.586   3.314 -0.9442 -2.3489  3.0559
   87SLPC   C35 8412   0.556   0.653   3.510 -0.2737 -0.2786 -0.2628
   87SLPC   H5X 8413   0.619   0.575   3.558  1.6264  1.1299 -0.3440
   87SLPC   H5Y 8414   0.451   0.628   3.485 -0.9992  2.3103 -0.1409
   87SLPC   C36 8415   0.571   0.768   3.614 -0.3431 -0.0098  0.6129
   87SLPC   H6X 8416   0.516   0.861   3.585  0.1646  0.3021  0.6418
   87SLPC   H6Y 8417   0.678   0.799   3.613 -0.3337  0.0091 -1.4581
   87SLPC   C37 8418   0.536   0.743   3.760  0.6451 -0.7057  0.9347
   87SLPC   H7X 8419   0.528   0.841   3.812  1.2469  0.4543 -1.0384
   87SLPC   H7Y 8420   0.628   0.700   3.803  1.8237 -0.3344 -1.0701
   87SLPC   C38 8421   0.414   0.652   3.791  0.1257 -0.7753 -0.7379
   87SLPC   H8X 8422   0.406   0.570   3.716  0.5913 -0.3695 -1.2422
   87SLPC   H8Y 8423   0.322   0.708   3.766  0.2022 -0.6240 -0.6857
   87SLPC   C39 8424   0.410   0.609   3.938  0.4653 -0.2737 -0.3196
   87SLPC   H9X 8425   0.496   0.539   3.937  2.9347  2.5763 -1.4326
   87SLPC   H9Y 8426   0.314   0.554   3.953 -0.6834  1.3394 -1.4208
   87SLPC  C310 8427   0.423   0.711   4.048 -0.6720  0.3677 -0.4716
   87SLPC  H10X 8428   0.362   0.802   4.032  0.1215  1.3090  1.5283
   87SLPC  H10Y 8429   0.529   0.742   4.061 -0.7464 -0.2979  2.5892
   87SLPC  C311 8430   0.380   0.644   4.184 -0.4317 -0.8640 -0.6722
   87SLPC  H11X 8431   0.278   0.605   4.163 -0.7045 -0.0279 -0.9639
   87SLPC  H11Y 8432   0.376   0.724   4.261  2.6590 -1.4533  0.2350
   87SLPC  C312 8433   0.486   0.543   4.234 -0.5859  0.0480 -0.8458
   87SLPC  H12X 8434   0.582   0.599   4.234  0.2684 -1.3793 -0.7954
   87SLPC  H12Y 8435   0.516   0.465   4.160  0.0340  1.5762 -2.2709
   87SLPC  C313 8436   0.462   0.483   4.369 -0.5256  0.9317 -1.3386
   87SLPC  H13X 8437   0.451   0.551   4.456  0.2474  1.3805 -1.5816
   87SLPC  H13Y 8438   0.547   0.412   4.381  0.8581  2.3906 -2.1142
   87SLPC  C314 8439   0.332   0.405   4.385  0.5511 -0.4918 -0.6144
   87SLPC  H14X 8440   0.328   0.346   4.290 -0.3765  2.1533 -2.3519
   87SLPC  H14Y 8441   0.256   0.486   4.388  1.6765  0.5842 -0.3058
   87SLPC  C315 8442   0.314   0.321   4.516 -0.3724 -0.1134  0.2851
   87SLPC  H15X 8443   0.384   0.237   4.534 -1.0808 -0.4763  1.4652
   87SLPC  H15Y 8444   0.219   0.263   4.507  0.0908 -0.7819 -0.4362
   87SLPC  C316 8445   0.323   0.408   4.646 -0.4072 -0.2504  0.1565
   87SLPC  H16X 8446   0.234   0.473   4.633 -1.3549 -0.7453  3.2764
   87SLPC  H16Y 8447   0.419   0.460   4.662  0.7579 -2.3472  0.3947
   87SLPC  C317 8448   0.306   0.332   4.772  0.1580  0.7126 -0.1793
   87SLPC  H17X 8449   0.384   0.253   4.780  1.4860  2.0535  0.6286
   87SLPC  H17Y 8450   0.219   0.263   4.760  2.2683 -2.0921 -0.5723
   87SLPC  C318 8451   0.289   0.405   4.906  0.0413  0.4013 -0.1500
   87SLPC  H18X 8452   0.384   0.452   4.942 -0.2491 -0.8633  2.5369
   87SLPC  H18Y 8453   0.282   0.331   4.988  1.6573 -0.8944 -1.1039
   87SLPC  H18Z 8454   0.199   0.469   4.899  0.1978  0.5983 -0.4013
   88SLPC     N 8455   6.427   6.255   2.615  0.1047 -0.3470 -0.3121
   88SLPC   C13 8456   6.318   6.355   2.623 -0.1907 -0.3778  0.3843
   88SLPC  H13A 8457   6.278   6.387   2.528 -2.2378  0.2313  1.4088
   88SLPC  H13B 8458   6.232   6.315   2.674 -1.9688  1.2303 -1.2019
   88SLPC  H13C 8459   6.352   6.435   2.687  0.0034 -0.2308  0.0995
   88SLPC   C14 8460   6.379   6.141   2.529 -0.7628 -0.8174 -0.1102
   88SLPC  H14A 8461   6.448   6.058   2.535 -0.0113 -0.1304  1.0496
   88SLPC  H14B 8462   6.280   6.111   2.558 -1.1105 -0.1944 -0.6200
   88SLPC  H14C 8463   6.372   6.178   2.427 -0.8465 -1.1594 -0.2292
   88SLPC   C15 8464   6.449   6.201   2.745  0.5788  0.4509  0.4565
   88SLPC  H15A 8465   6.488   6.267   2.821  1.4931 -1.2652  1.5674
   88SLPC  H15B 8466   6.365   6.151   2.791  1.3503  0.4065  1.8858
   88SLPC  H15C 8467   6.524   6.123   2.740 -1.2626 -1.3062 -2.2499
   88SLPC   C12 8468   6.551   6.319   2.549  0.6416 -0.3251 -0.8104
   88SLPC  H12A 8469   6.523   6.344   2.447  1.7268 -0.3109 -1.1171
   88SLPC  H12B 8470   6.635   6.252   2.553  2.7796  2.2075  0.0304
   88SLPC   C11 8471   6.611   6.439   2.625 -0.1527  0.4742 -0.3742
   88SLPC  H11A 8472   6.532   6.516   2.634  1.7315  2.4615 -0.0839
   88SLPC  H11B 8473   6.687   6.497   2.568  0.7860 -0.6603 -0.3156
   88SLPC     P 8474   6.808   6.325   2.753 -0.2941  0.1430  0.0457
   88SLPC   O13 8475   6.826   6.259   2.881  0.3696 -0.0748 -0.3408
   88SLPC   O14 8476   6.817   6.238   2.633  0.2365 -0.3652  0.4166
   88SLPC   O12 8477   6.674   6.401   2.752  0.0476 -0.3730 -0.2677
   88SLPC   O11 8478   6.910   6.454   2.749  0.2444 -0.4377  0.1640
   88SLPC    C1 8479   6.906   6.572   2.832  0.0494  0.1163  0.0005
   88SLPC    HA 8480   6.926   6.666   2.775  2.9344 -0.2643  0.2443
   88SLPC    HB 8481   6.809   6.588   2.884  1.1719  2.1033  1.6087
   88SLPC    C2 8482   7.020   6.574   2.935  0.5066 -0.0912  0.2845
   88SLPC    HS 8483   7.111   6.541   2.881  0.9067  2.3017 -0.6191
   88SLPC   O21 8484   6.975   6.478   3.039  0.1790 -0.1663  0.7166
   88SLPC   C21 8485   7.039   6.368   3.044  0.1328 -0.2930 -0.3974
   88SLPC   O22 8486   7.143   6.339   2.988 -0.3884  0.8160 -0.6097
   88SLPC   C22 8487   6.972   6.272   3.147 -0.7621  0.0572 -0.6480
   88SLPC   H2R 8488   6.865   6.301   3.148 -0.6899  0.3625  0.4838
   88SLPC   H2S 8489   6.988   6.173   3.101 -1.3797 -0.0037 -0.7372
   88SLPC    C3 8490   7.048   6.717   2.994  0.1823  0.0351  0.0112
   88SLPC    HX 8491   7.086   6.787   2.917 -0.0426  1.3364  1.0525
   88SLPC    HY 8492   7.121   6.698   3.076  0.1672  2.9066  0.7743
   88SLPC   O31 8493   6.923   6.770   3.047 -0.3232  0.1962 -0.1463
   88SLPC   C31 8494   6.954   6.882   3.121  0.4290 -0.5040  0.0623
   88SLPC   O32 8495   7.062   6.927   3.141 -0.3108  0.1273 -0.9860
   88SLPC   C32 8496   6.835   6.933   3.190  0.6501  0.1206  0.2148
   88SLPC   H2X 8497   6.778   6.846   3.229 -0.9997  1.3257  0.5977
   88SLPC   H2Y 8498   6.776   6.986   3.112  0.4157  0.4104  0.5840
   88SLPC   C23 8499   7.011   6.280   3.296 -0.8855 -0.3365  0.6028
   88SLPC   H3R 8500   6.977   6.378   3.337 -0.9911 -0.1454  0.0576
   88SLPC   H3S 8501   7.122   6.285   3.303 -0.8136 -1.5327  0.5909
   88SLPC   C24 8502   6.944   6.173   3.378 -0.5668  0.9151  0.2671
   88SLPC   H4R 8503   6.964   6.076   3.328 -0.4111 -0.2146  2.4367
   88SLPC   H4S 8504   6.834   6.190   3.369 -0.3582  1.8668 -0.7549
   88SLPC   C25 8505   6.997   6.162   3.518 -0.2769  0.8607 -0.3553
   88SLPC   H5R 8506   6.964   6.249   3.578  0.8813  0.8541  0.3157
   88SLPC   H5S 8507   7.108   6.170   3.515  0.0544 -2.4323 -0.6800
   88SLPC   C26 8508   6.978   6.019   3.587 -0.2233 -0.3194  0.4689
   88SLPC   H6R 8509   7.024   5.939   3.526 -0.8467 -1.1161  1.0277
   88SLPC   H6S 8510   6.871   5.993   3.575 -0.3030  0.3262 -0.3870
   88SLPC   C27 8511   7.013   5.998   3.736  1.2741 -0.2508 -0.4038
   88SLPC   H7R 8512   6.974   6.074   3.807  0.3243 -0.9685 -0.1313
   88SLPC   H7S 8513   7.123   6.011   3.747  1.2455  1.3107 -1.5834
   88SLPC   C28 8514   6.980   5.851   3.781  0.1383  0.5238 -0.5018
   88SLPC   H8R 8515   7.031   5.815   3.873  2.4247  0.8567 -1.5656
   88SLPC   H8S 8516   7.028   5.777   3.713  0.0020 -0.8560  0.8467
   88SLPC   C29 8517   6.831   5.818   3.787 -0.3101 -0.5760 -0.2960
   88SLPC   H9R 8518   6.789   5.811   3.686 -1.4008 -2.1242  0.2201
   88SLPC  C210 8519   6.763   5.787   3.899 -0.1470  0.2389  0.0327
   88SLPC  H10R 8520   6.657   5.765   3.882  0.3320 -1.2011 -1.2790
   88SLPC  C211 8521   6.796   5.777   4.048 -0.8208  0.3877 -0.5092
   88SLPC  H11R 8522   6.902   5.808   4.061 -0.5484 -1.4582  2.9665
   88SLPC  H11S 8523   6.789   5.673   4.086  0.9071  0.1161 -0.8440
   88SLPC  C212 8524   6.706   5.869   4.131 -0.1520 -0.2817  0.6636
   88SLPC  H12R 8525   6.601   5.868   4.098 -0.5338 -0.5362  1.8505
   88SLPC  C213 8526   6.740   5.939   4.244  0.4276  0.5019  0.1821
   88SLPC  H13R 8527   6.660   5.991   4.299  0.4550 -0.2842  1.0023
   88SLPC  C214 8528   6.884   5.946   4.293  0.1411  0.5739 -0.4624
   88SLPC  H14R 8529   6.912   6.043   4.339  0.0335  0.1127  0.6269
   88SLPC  H14S 8530   6.956   5.936   4.209 -0.5052 -1.6865 -0.8163
   88SLPC  C215 8531   6.927   5.833   4.392 -0.4481 -0.1175 -0.3105
   88SLPC  H15R 8532   7.034   5.850   4.415 -0.9338  0.3492  1.9023
   88SLPC  H15S 8533   6.917   5.734   4.343  2.5154  0.5970 -2.6067
   88SLPC  C216 8534   6.851   5.844   4.529  0.4964  0.3655  0.7231
   88SLPC  H16R 8535   6.756   5.790   4.508  0.6004  1.2096 -2.5018
   88SLPC  H16S 8536   6.843   5.951   4.558  0.5355  0.4870  0.2933
   88SLPC  C217 8537   6.934   5.767   4.636 -0.0268 -0.0006  0.2731
   88SLPC  H17R 8538   6.880   5.789   4.730 -0.2151 -0.1781  0.2062
   88SLPC  H17S 8539   7.034   5.811   4.654  2.1864 -3.3851 -2.3801
   88SLPC  C218 8540   6.957   5.622   4.605  0.3477  0.1515 -0.3364
   88SLPC  H18R 8541   7.008   5.605   4.508  1.4513  1.5295 -0.0255
   88SLPC  H18S 8542   6.860   5.569   4.606 -0.5507  1.6339 -2.6220
   88SLPC  H18T 8543   7.022   5.565   4.676  1.3206 -0.7503 -1.8704
   88SLPC   C33 8544   6.852   7.014   3.320  0.4755  0.0770  0.2534
   88SLPC   H3X 8545   6.764   7.079   3.337 -1.3688 -2.6261  1.6990
   88SLPC   H3Y 8546   6.946   7.072   3.304  0.3760 -0.5535 -3.5301
   88SLPC   C34 8547   6.857   6.925   3.443 -0.1590 -0.1686 -0.4076
   88SLPC   H4X 8548   6.936   6.851   3.418 -0.8398  0.2217 -4.3169
   88SLPC   H4Y 8549   6.759   6.884   3.475  1.0451 -1.5449  1.7439
   88SLPC   C35 8550   6.903   6.994   3.577  0.1697  0.1250  0.2633
   88SLPC   H5X 8551   6.832   7.075   3.603  0.5514 -0.1442  2.2314
   88SLPC   H5Y 8552   7.004   7.031   3.548 -0.9149  2.0559 -1.3613
   88SLPC   C36 8553   6.909   6.900   3.698 -0.4879 -0.2443  0.0179
   88SLPC   H6X 8554   6.995   6.831   3.686  0.8403  1.0612  1.5592
   88SLPC   H6Y 8555   6.822   6.832   3.692  0.6233 -1.7003 -0.0358
   88SLPC   C37 8556   6.916   6.972   3.835  0.3304  0.2602 -0.4191
   88SLPC   H7X 8557   6.812   6.990   3.870  0.9577  2.7655  0.3582
   88SLPC   H7Y 8558   6.965   7.072   3.834 -0.4938  0.6703 -0.7098
   88SLPC   C38 8559   6.998   6.890   3.940  1.0508 -0.4993 -0.1928
   88SLPC   H8X 8560   7.066   6.958   3.997 -0.8149  0.6587  0.7596
   88SLPC   H8Y 8561   7.061   6.815   3.889  0.3758 -0.8304 -0.5562
   88SLPC   C39 8562   6.919   6.811   4.052 -0.0791 -0.3646  0.1915
   88SLPC   H9X 8563   6.986   6.741   4.106 -1.1143 -0.3467  1.5528
   88SLPC   H9Y 8564   6.847   6.741   4.005  0.4952 -1.1656  0.4810
   88SLPC  C310 8565   6.872   6.905   4.165 -0.4879  0.4004  0.4798
   88SLPC  H10X 8566   6.808   6.989   4.130  1.3523  1.7614  0.2374
   88SLPC  H10Y 8567   6.961   6.956   4.206  0.2753 -0.1396 -0.4802
   88SLPC  C311 8568   6.801   6.824   4.282  0.0702 -0.1594  0.2034
   88SLPC  H11X 8569   6.873   6.748   4.318 -0.6469 -0.3787  1.1982
   88SLPC  H11Y 8570   6.716   6.765   4.242  0.9353 -0.8491 -0.6810
   88SLPC  C312 8571   6.756   6.909   4.399 -0.1108  0.5211 -0.0318
   88SLPC  H12X 8572   6.673   6.977   4.367 -1.9374 -1.4851  0.2144
   88SLPC  H12Y 8573   6.845   6.970   4.424  0.4988 -0.8693  1.3423
   88SLPC  C313 8574   6.698   6.831   4.517 -0.2069 -0.0016 -0.4415
   88SLPC  H13X 8575   6.750   6.736   4.540 -1.8102 -0.7341  0.3117
   88SLPC  H13Y 8576   6.597   6.794   4.491 -1.1908  0.2417  2.6762
   88SLPC  C314 8577   6.693   6.910   4.645 -0.1173 -0.3799  0.2627
   88SLPC  H14X 8578   6.641   7.006   4.628  0.7311  0.1461  0.5917
   88SLPC  H14Y 8579   6.797   6.943   4.665 -0.5224  0.1023  1.7140
   88SLPC  C315 8580   6.640   6.839   4.767 -0.0642  0.3793 -0.0118
   88SLPC  H15X 8581   6.647   6.729   4.752 -0.6925  0.4333 -0.7831
   88SLPC  H15Y 8582   6.531   6.856   4.775 -0.5117 -1.4330 -1.4098
   88SLPC  C316 8583   6.713   6.874   4.900 -0.2411 -0.4205  0.4525
   88SLPC  H16X 8584   6.823   6.882   4.884 -0.6450 -0.7485 -3.5395
   88SLPC  H16Y 8585   6.701   6.787   4.969 -0.0218 -1.1974 -0.4579
   88SLPC  C317 8586   6.674   7.005   4.967  0.0258  0.2156  0.7261
   88SLPC  H17X 8587   6.670   6.991   5.077  0.2258  0.2973  0.7437
   88SLPC  H17Y 8588   6.568   7.023   4.938  0.6697  0.5329 -1.6534
   88SLPC  C318 8589   6.755   7.130   4.928 -0.0225  0.6635 -0.0168
   88SLPC  H18X 8590   6.853   7.120   4.979 -1.6086  1.9069  3.6037
   88SLPC  H18Y 8591   6.707   7.223   4.965 -2.6479 -0.6553  0.0990
   88SLPC  H18Z 8592   6.766   7.138   4.818 -1.8986  2.6175 -0.1364
   89SAPE     N 8593   3.495   0.409   7.009  0.6385  0.4513 -0.3132
   89SAPE   HN1 8594   3.437   0.394   6.924 -2.4180 -2.9089  2.0214
   89SAPE   HN2 8595   3.479   0.326   7.070  0.9729 -0.3443 -1.2885
   89SAPE   HN3 8596   3.452   0.487   7.064 -2.9213 -0.9580 -0.8462
   89SAPE   C12 8597   3.639   0.426   6.989  0.4065 -0.7282  0.3154
   89SAPE  H12A 8598   3.653   0.527   6.945  1.6065 -0.6637  0.8059
   89SAPE  H12B 8599   3.669   0.359   6.905 -0.9452  2.0432 -2.5682
   89SAPE   C11 8600   3.731   0.414   7.105  0.3050  0.0502 -0.2608
   89SAPE  H11A 8601   3.831   0.424   7.059  0.8174  3.5779  1.3515
   89SAPE  H11B 8602   3.726   0.310   7.145 -1.9914  0.0954 -0.2918
   89SAPE     P 8603   3.762   0.642   7.224 -0.4300 -0.4708 -0.3376
   89SAPE   O13 8604   3.647   0.729   7.260  0.1249  0.1419 -0.5948
   89SAPE   O14 8605   3.875   0.633   7.314 -0.4718  0.0645  0.1042
   89SAPE   O12 8606   3.702   0.497   7.216 -0.2876 -0.0885 -0.0169
   89SAPE   O11 8607   3.810   0.683   7.078  0.4972 -0.1693 -0.8239
   89SAPE    C1 8608   3.854   0.818   7.045  0.2752  0.5345  0.4303
   89SAPE    HA 8609   3.762   0.877   7.021 -0.6684 -1.2600 -0.5728
   89SAPE    HB 8610   3.910   0.869   7.126 -0.3874 -0.2415  1.3915
   89SAPE    C2 8611   3.937   0.802   6.916  0.6661  0.5174 -0.0171
   89SAPE    HS 8612   3.976   0.902   6.890  0.0202  0.5085 -1.0802
   89SAPE   O21 8613   3.868   0.736   6.810 -0.2858 -0.5302  0.1959
   89SAPE   C21 8614   3.780   0.805   6.753 -0.2030  0.4071 -0.0356
   89SAPE   O22 8615   3.764   0.925   6.758  1.1390 -0.0332  0.0328
   89SAPE   C22 8616   3.683   0.712   6.674  0.4733 -0.1327  0.3388
   89SAPE   H2R 8617   3.750   0.637   6.627  2.7757 -0.9869  4.4574
   89SAPE   H2S 8618   3.610   0.668   6.745  0.6820 -0.5875  0.2710
   89SAPE    C3 8619   4.071   0.727   6.948  0.4121  0.1905 -0.1162
   89SAPE    HX 8620   4.039   0.628   6.988 -1.2770  0.3013 -1.1018
   89SAPE    HY 8621   4.136   0.788   7.014  0.4559  1.1652 -1.0347
   89SAPE   O31 8622   4.139   0.698   6.829  0.0522 -0.3536  0.8309
   89SAPE   C31 8623   4.212   0.798   6.772 -0.1907 -0.1458  0.8229
   89SAPE   O32 8624   4.234   0.906   6.821 -0.3782  0.1598  1.0391
   89SAPE   C32 8625   4.264   0.739   6.637  0.2400 -0.2584 -0.7725
   89SAPE   H2X 8626   4.229   0.634   6.626  0.5348 -0.4218 -0.2466
   89SAPE   H2Y 8627   4.375   0.732   6.648  0.1573 -0.5029 -0.0586
   89SAPE   C23 8628   3.595   0.793   6.566  0.2269  0.0671 -0.0405
   89SAPE   H3R 8629   3.527   0.861   6.621 -1.6454 -0.3918 -1.6885
   89SAPE   H3S 8630   3.525   0.724   6.514  1.2071 -0.6013 -0.5071
   89SAPE   C24 8631   3.684   0.854   6.463 -0.0671 -0.7083  0.0740
   89SAPE   H4R 8632   3.758   0.782   6.420 -1.5884 -2.1355 -0.2416
   89SAPE   H4S 8633   3.750   0.930   6.509  0.0722 -2.0655  2.2600
   89SAPE   C25 8634   3.607   0.910   6.350 -0.3071 -0.1955  0.2664
   89SAPE   H5R 8635   3.561   1.008   6.369 -0.0523  0.1098 -0.6382
   89SAPE   C26 8636   3.586   0.845   6.231  0.3186 -0.2590 -0.1356
   89SAPE   H6R 8637   3.538   0.901   6.149  0.0442 -0.8868 -0.4120
   89SAPE   C27 8638   3.636   0.704   6.187 -0.2880  0.1558  0.0830
   89SAPE   H7R 8639   3.550   0.639   6.163  0.4818 -1.5175  1.6005
   89SAPE   H7S 8640   3.681   0.654   6.276  1.5033  3.0391  0.9463
   89SAPE   C28 8641   3.743   0.701   6.082  0.0597 -0.1911  0.1216
   89SAPE   H8R 8642   3.845   0.688   6.120  0.3743  0.6039 -0.4243
   89SAPE   C29 8643   3.724   0.707   5.952 -0.5644 -0.3936  0.1071
   89SAPE   H9R 8644   3.814   0.686   5.892 -0.5858 -3.5594  1.0011
   89SAPE  C210 8645   3.590   0.720   5.884  1.0234  0.4482  0.0962
   89SAPE  H10R 8646   3.518   0.777   5.946 -0.0281 -1.3896  0.6518
   89SAPE  H10S 8647   3.533   0.625   5.883 -2.3390  2.2958  1.4099
   89SAPE  C211 8648   3.600   0.776   5.743  0.1157  0.0124 -0.2028
   89SAPE  H11R 8649   3.582   0.885   5.739 -1.0579 -0.2126 -2.1776
   89SAPE  C212 8650   3.641   0.705   5.633 -0.2745  0.2337 -0.3476
   89SAPE  H12R 8651   3.675   0.761   5.545 -1.3540 -0.4049 -1.2057
   89SAPE  C213 8652   3.680   0.559   5.625 -0.0360 -0.5571  0.3246
   89SAPE  H13R 8653   3.689   0.526   5.731  1.6215 -1.9632 -0.2201
   89SAPE  H13S 8654   3.782   0.561   5.581  0.1766 -1.1618  0.7700
   89SAPE  C214 8655   3.598   0.464   5.535 -0.5395  0.2912 -0.8857
   89SAPE  H14R 8656   3.584   0.361   5.572 -1.7312 -0.6484 -3.7128
   89SAPE  C215 8657   3.554   0.492   5.412  0.2001 -0.2492 -0.0921
   89SAPE  H15R 8658   3.503   0.421   5.345 -0.5613 -1.5272  1.7867
   89SAPE  C216 8659   3.569   0.625   5.338  0.2273 -0.1265 -0.0376
   89SAPE  H16R 8660   3.537   0.720   5.386 -1.5541 -0.7978  0.1866
   89SAPE  H16S 8661   3.500   0.618   5.250  1.2142 -2.4295 -0.7076
   89SAPE  C217 8662   3.714   0.640   5.274  0.2881  0.0738  0.2321
   89SAPE  H17R 8663   3.781   0.646   5.363 -1.0494  3.5628  1.1848
   89SAPE  H17S 8664   3.710   0.738   5.221  0.6403 -0.0188  0.0368
   89SAPE  C218 8665   3.740   0.537   5.165 -0.1986  1.0150 -0.2252
   89SAPE  H18R 8666   3.716   0.433   5.195 -0.4630  0.7788 -1.2170
   89SAPE  H18S 8667   3.848   0.543   5.142 -0.3438 -0.1011 -1.3179
   89SAPE  C219 8668   3.657   0.557   5.033 -0.8884 -0.2155 -0.2868
   89SAPE  H19R 8669   3.666   0.663   4.999 -0.6728 -0.3935 -0.7841
   89SAPE  H19S 8670   3.548   0.537   5.040 -1.0117 -0.2581 -1.9175
   89SAPE  C220 8671   3.715   0.469   4.922 -0.4723 -0.4857 -0.0011
   89SAPE  H20R 8672   3.702   0.360   4.938  0.5292 -0.6582 -0.2857
   89SAPE  H20S 8673   3.824   0.487   4.910  0.0393 -1.4296  2.4678
   89SAPE  H20T 8674   3.669   0.497   4.825  0.3718  2.2609  0.3250
   89SAPE   C33 8675   4.207   0.818   6.519 -0.0099  0.4218  0.6867
   89SAPE   H3X 8676   4.220   0.927   6.537  0.0744  0.7903 -1.3561
   89SAPE   H3Y 8677   4.101   0.786   6.508 -0.7314  3.0324 -0.8651
   89SAPE   C34 8678   4.268   0.787   6.388  1.1410 -0.3705  0.0478
   89SAPE   H4X 8679   4.255   0.679   6.366 -0.2426 -0.7130  2.2680
   89SAPE   H4Y 8680   4.373   0.824   6.393  1.0846  0.0609 -1.4391
   89SAPE   C35 8681   4.198   0.863   6.272 -0.0241  0.8455  0.5036
   89SAPE   H5X 8682   4.211   0.971   6.295 -2.0090  1.8104 -2.3057
   89SAPE   H5Y 8683   4.090   0.837   6.284 -0.1176  1.4035  0.8946
   89SAPE   C36 8684   4.232   0.826   6.128  0.3487 -0.6554 -0.1763
   89SAPE   H6X 8685   4.249   0.716   6.118  4.7068 -0.1480 -0.2908
   89SAPE   H6Y 8686   4.331   0.868   6.101  0.2778 -0.4070 -0.0497
   89SAPE   C37 8687   4.121   0.869   6.028  0.2120 -0.3607 -0.3812
   89SAPE   H7X 8688   4.078   0.969   6.049 -0.9711 -1.0413  0.6147
   89SAPE   H7Y 8689   4.035   0.801   6.049 -0.3871 -0.1320 -1.9869
   89SAPE   C38 8690   4.185   0.851   5.883  0.0041 -0.4003 -0.4761
   89SAPE   H8X 8691   4.250   0.761   5.883  0.4356 -0.0937 -0.4860
   89SAPE   H8Y 8692   4.248   0.940   5.860 -0.0844 -0.1260  0.3040
   89SAPE   C39 8693   4.071   0.837   5.775 -0.3814 -0.2859 -0.1793
   89SAPE   H9X 8694   4.014   0.932   5.780  0.4652  0.2286 -0.1722
   89SAPE   H9Y 8695   3.999   0.755   5.794 -1.9770  0.7819 -1.3871
   89SAPE  C310 8696   4.130   0.813   5.637  0.1371 -0.3946 -0.7418
   89SAPE  H10X 8697   4.083   0.719   5.600  0.3599 -0.7965 -0.0067
   89SAPE  H10Y 8698   4.241   0.816   5.641  0.0863 -0.3118  1.1463
   89SAPE  C311 8699   4.081   0.918   5.533 -0.2937  0.1936  0.4062
   89SAPE  H11X 8700   4.131   1.015   5.551  1.1054  0.4238 -3.6026
   89SAPE  H11Y 8701   3.971   0.922   5.545 -0.5763  1.5272 -1.9826
   89SAPE  C312 8702   4.112   0.868   5.386  0.0140 -0.9916  0.0108
   89SAPE  H12X 8703   4.097   0.758   5.380  0.3906 -1.0363 -0.1664
   89SAPE  H12Y 8704   4.214   0.890   5.346 -0.6107  0.0161 -1.1090
   89SAPE  C313 8705   3.999   0.939   5.302  0.0774  0.0851  0.1008
   89SAPE  H13X 8706   4.001   1.050   5.315 -0.4113  0.1825 -0.6264
   89SAPE  H13Y 8707   3.910   0.896   5.352  0.0359 -0.4829 -0.4563
   89SAPE  C314 8708   3.990   0.893   5.158 -0.0066 -0.3625 -0.4440
   89SAPE  H14X 8709   3.895   0.929   5.113  0.8990  1.5648 -0.9347
   89SAPE  H14Y 8710   4.004   0.783   5.158 -0.2055 -0.4315 -2.3692
   89SAPE  C315 8711   4.089   0.958   5.071  0.3585  0.4574  0.4083
   89SAPE  H15X 8712   4.068   0.922   4.967  2.0526 -1.7731  0.7640
   89SAPE  H15Y 8713   4.195   0.940   5.097 -0.0744 -2.0404  0.6858
   89SAPE  C316 8714   4.079   1.111   5.055  0.7008 -0.0979  0.4618
   89SAPE  H16X 8715   4.078   1.174   5.147 -1.1320  2.2700 -1.0577
   89SAPE  H16Y 8716   3.978   1.121   5.009  0.0957  0.5170  1.8771
   89SAPE  C317 8717   4.175   1.174   4.954  0.0602 -0.3231 -0.0306
   89SAPE  H17X 8718   4.155   1.117   4.861 -0.8131 -0.3580  0.1700
   89SAPE  H17Y 8719   4.282   1.157   4.980 -0.1390 -2.4196 -0.4059
   89SAPE  C318 8720   4.146   1.323   4.962 -0.8599  0.4230  0.1295
   89SAPE  H18X 8721   4.188   1.366   5.055  0.3811 -0.9466  0.2303
   89SAPE  H18Y 8722   4.037   1.343   4.952 -1.2693 -1.3247  0.7075
   89SAPE  H18Z 8723   4.200   1.370   4.877  0.6668 -0.9273  0.3006
   90SAPE     N 8724   1.103   0.286   6.974  0.9762 -0.5062 -0.3258
   90SAPE   HN1 8725   1.072   0.213   7.042  1.0984 -0.4423 -0.2019
   90SAPE   HN2 8726   1.152   0.360   7.028  0.5571  0.0767 -0.7260
   90SAPE   HN3 8727   1.013   0.314   6.930  0.5646  2.1509  1.9955
   90SAPE   C12 8728   1.188   0.225   6.862 -0.1265  0.6325  0.1606
   90SAPE  H12A 8729   1.289   0.202   6.903 -0.8369 -2.3421  0.4493
   90SAPE  H12B 8730   1.195   0.294   6.775 -2.0893  0.3078 -0.2819
   90SAPE   C11 8731   1.126   0.092   6.800  0.9653 -0.2965 -0.7245
   90SAPE  H11A 8732   1.187   0.075   6.709  0.9563 -0.4845 -0.6944
   90SAPE  H11B 8733   1.022   0.115   6.767  1.0787 -0.5186 -1.2546
   90SAPE     P 8734   1.221  -0.117   6.927 -0.0725  0.2525  0.0815
   90SAPE   O13 8735   1.356  -0.066   6.885  0.4101  0.7042 -0.6292
   90SAPE   O14 8736   1.210  -0.150   7.068  0.4971  0.3323  0.1263
   90SAPE   O12 8737   1.115  -0.006   6.897  0.2554 -0.3178 -0.7438
   90SAPE   O11 8738   1.175  -0.235   6.839  0.2162  0.5960  0.0302
   90SAPE    C1 8739   1.263  -0.312   6.759 -0.4324 -0.2013 -0.0475
   90SAPE    HA 8740   1.356  -0.343   6.811  0.3724  2.0578 -0.0327
   90SAPE    HB 8741   1.214  -0.407   6.731 -1.3327 -0.8580  3.3584
   90SAPE    C2 8742   1.295  -0.236   6.628 -0.3398 -0.6088 -0.9787
   90SAPE    HS 8743   1.370  -0.155   6.639  0.6656 -1.6785  0.4763
   90SAPE   O21 8744   1.177  -0.180   6.571 -0.5769 -0.3966  0.1640
   90SAPE   C21 8745   1.198  -0.073   6.490 -0.2141  0.6056 -0.0156
   90SAPE   O22 8746   1.310  -0.033   6.455  0.3220  0.1504 -0.1268
   90SAPE   C22 8747   1.062  -0.011   6.461  0.3774 -0.0412  0.4876
   90SAPE   H2R 8748   1.005  -0.092   6.412 -0.8842  0.2644  1.3974
   90SAPE   H2S 8749   1.008   0.008   6.556  0.9607  3.4495  0.2711
   90SAPE    C3 8750   1.344  -0.336   6.524  0.2089 -0.7242  0.1872
   90SAPE    HX 8751   1.371  -0.277   6.433  0.1885  0.7110  1.0900
   90SAPE    HY 8752   1.255  -0.397   6.498 -0.6842  0.1070  1.2391
   90SAPE   O31 8753   1.452  -0.426   6.567  0.4361 -0.2656  0.4964
   90SAPE   C31 8754   1.568  -0.367   6.572 -0.9228  0.5861  0.4035
   90SAPE   O32 8755   1.591  -0.248   6.548 -0.0581 -0.1710 -0.0574
   90SAPE   C32 8756   1.683  -0.461   6.611  0.2724  0.5801 -0.4378
   90SAPE   H2X 8757   1.782  -0.410   6.611  0.8758 -0.5614 -0.9662
   90SAPE   H2Y 8758   1.686  -0.534   6.528 -1.1660 -0.3614  0.2864
   90SAPE   C23 8759   1.065   0.116   6.367  0.5968  0.5513  0.3327
   90SAPE   H3R 8760   1.132   0.107   6.279  1.1154  0.9105  0.6833
   90SAPE   H3S 8761   1.110   0.202   6.420  0.9916  0.0300  0.8605
   90SAPE   C24 8762   0.924   0.166   6.329  0.1811 -0.1940  0.4173
   90SAPE   H4R 8763   0.941   0.269   6.294  1.7262 -0.1592  1.1804
   90SAPE   H4S 8764   0.874   0.170   6.429  0.6916 -1.2384  0.7299
   90SAPE   C25 8765   0.857   0.070   6.229  0.4747  0.6533 -1.4072
   90SAPE   H5R 8766   0.801  -0.010   6.280 -0.0173  3.0607  2.1284
   90SAPE   C26 8767   0.854   0.069   6.101 -0.1339  0.0224 -0.1004
   90SAPE   H6R 8768   0.788   0.001   6.046  2.2950 -1.1642 -1.7235
   90SAPE   C27 8769   0.908   0.187   6.019  0.2480 -0.1239 -0.3240
   90SAPE   H7R 8770   0.994   0.145   5.963  0.9926 -1.1263  1.4866
   90SAPE   H7S 8771   0.946   0.270   6.083 -1.5983 -1.1869  2.3514
   90SAPE   C28 8772   0.818   0.256   5.917  0.1090 -0.0677 -0.5526
   90SAPE   H8R 8773   0.781   0.355   5.948  0.2363 -0.2441  0.1782
   90SAPE   C29 8774   0.791   0.196   5.797 -0.1870 -0.1545  0.6364
   90SAPE   H9R 8775   0.729   0.251   5.724 -0.5740  1.5945  2.1848
   90SAPE  C210 8776   0.830   0.064   5.735  0.2055  0.9828  0.4944
   90SAPE  H10R 8777   0.875  -0.003   5.811  2.6960  1.7324 -0.2245
   90SAPE  H10S 8778   0.919   0.093   5.675  0.4073 -1.0623 -0.2654
   90SAPE  C211 8779   0.733  -0.011   5.636 -0.5479  0.1445 -1.0550
   90SAPE  H11R 8780   0.663  -0.085   5.676 -1.3377  1.2436 -0.3399
   90SAPE  C212 8781   0.733   0.013   5.503  0.1253  0.7442 -0.0178
   90SAPE  H12R 8782   0.660  -0.043   5.444  0.7069  0.3140 -0.3486
   90SAPE  C213 8783   0.830   0.091   5.415  0.2062 -0.7686  0.2750
   90SAPE  H13R 8784   0.928   0.040   5.428 -0.0482 -1.3926 -0.2042
   90SAPE  H13S 8785   0.856   0.194   5.447  0.4671 -0.6362 -0.3516
   90SAPE  C214 8786   0.781   0.107   5.270  0.0467  0.4582 -0.3832
   90SAPE  H14R 8787   0.738   0.202   5.236 -0.4713  0.1296 -0.6452
   90SAPE  C215 8788   0.803   0.021   5.167 -0.4969  0.9559  0.8790
   90SAPE  H15R 8789   0.769   0.053   5.068  1.0080  3.0441  0.9763
   90SAPE  C216 8790   0.865  -0.114   5.175 -1.1036 -0.8102 -0.4317
   90SAPE  H16R 8791   0.788  -0.194   5.164 -1.0549 -0.6858 -1.8394
   90SAPE  H16S 8792   0.922  -0.113   5.271  0.9525  1.5914 -1.5661
   90SAPE  C217 8793   0.968  -0.136   5.060  0.5700  0.3432  0.0867
   90SAPE  H17R 8794   1.028  -0.044   5.043  1.2509 -0.2738 -1.0074
   90SAPE  H17S 8795   0.915  -0.149   4.963  0.7636  0.1803  0.0016
   90SAPE  C218 8796   1.063  -0.261   5.071 -0.2579 -0.1230  0.0636
   90SAPE  H18R 8797   1.000  -0.350   5.095 -0.6890  0.4682  1.2077
   90SAPE  H18S 8798   1.127  -0.244   5.160  1.2653 -1.6390 -0.6869
   90SAPE  C219 8799   1.146  -0.289   4.948 -0.2568 -0.8450  0.3375
   90SAPE  H19R 8800   1.210  -0.205   4.914 -1.6550 -0.3980 -1.3453
   90SAPE  H19S 8801   1.077  -0.314   4.864  0.2480 -1.4370  0.0899
   90SAPE  C220 8802   1.252  -0.404   4.963  0.0096 -0.0084 -0.2540
   90SAPE  H20R 8803   1.305  -0.419   4.867 -1.5899 -0.5358 -1.0942
   90SAPE  H20S 8804   1.207  -0.492   5.015 -0.6527  1.2818  1.4538
   90SAPE  H20T 8805   1.326  -0.371   5.039 -0.7464  0.8038  0.1558
   90SAPE   C33 8806   1.659  -0.525   6.750 -0.2271  1.3844  0.0428
   90SAPE   H3X 8807   1.560  -0.575   6.757  0.0627  0.6608 -0.8763
   90SAPE   H3Y 8808   1.650  -0.444   6.826  0.5156  0.7886  0.7890
   90SAPE   C34 8809   1.779  -0.611   6.792  0.3661 -0.1762 -0.2568
   90SAPE   H4X 8810   1.766  -0.644   6.897 -0.1719 -0.0362 -0.2761
   90SAPE   H4Y 8811   1.863  -0.539   6.794 -0.6451  1.2144 -2.5503
   90SAPE   C35 8812   1.812  -0.745   6.708  0.6240  0.3288 -0.1787
   90SAPE   H5X 8813   1.741  -0.757   6.624  0.2261  3.3732 -0.3696
   90SAPE   H5Y 8814   1.796  -0.833   6.774 -2.1528  0.9694  0.1100
   90SAPE   C36 8815   1.956  -0.768   6.660  0.1959  0.4309 -0.6831
   90SAPE   H6X 8816   1.981  -0.876   6.666 -1.0225  0.1459 -0.3033
   90SAPE   H6Y 8817   2.022  -0.717   6.734 -0.3768 -0.7024  0.6498
   90SAPE   C37 8818   1.980  -0.729   6.513  0.4139  0.4850  0.3123
   90SAPE   H7X 8819   2.090  -0.721   6.499  0.4563 -1.3223 -0.7394
   90SAPE   H7Y 8820   1.936  -0.628   6.498 -0.8348  0.0672  1.0579
   90SAPE   C38 8821   1.947  -0.825   6.392  1.2022  0.1000 -0.3012
   90SAPE   H8X 8822   1.837  -0.818   6.377  1.4391  2.1105 -1.3212
   90SAPE   H8Y 8823   1.973  -0.928   6.427 -0.9137  0.1218  1.6078
   90SAPE   C39 8824   2.021  -0.791   6.267  0.2597 -0.6486  0.3614
   90SAPE   H9X 8825   2.128  -0.819   6.276  0.3516 -1.3172 -1.9933
   90SAPE   H9Y 8826   2.007  -0.682   6.246 -1.5112 -1.1128 -1.1129
   90SAPE  C310 8827   1.950  -0.866   6.156  0.2372  0.2757  0.9832
   90SAPE  H10X 8828   1.848  -0.823   6.146  0.2868  0.1940  0.0686
   90SAPE  H10Y 8829   1.941  -0.976   6.168  0.2256  0.0819 -0.5528
   90SAPE  C311 8830   2.035  -0.840   6.032 -0.2050  0.5511 -0.0293
   90SAPE  H11X 8831   2.084  -0.939   6.020  0.4470  0.8510  0.1250
   90SAPE  H11Y 8832   2.100  -0.751   6.049  0.4986 -0.1052  0.8557
   90SAPE  C312 8833   1.946  -0.797   5.912 -0.1585 -0.3816 -0.1561
   90SAPE  H12X 8834   1.901  -0.695   5.921  0.9067  0.2038 -1.1635
   90SAPE  H12Y 8835   1.854  -0.859   5.904 -0.9779  0.4380  1.9764
   90SAPE  C313 8836   2.026  -0.798   5.782  0.2933 -0.6365 -0.0172
   90SAPE  H13X 8837   2.085  -0.892   5.785  2.7411  0.8417  0.9661
   90SAPE  H13Y 8838   2.106  -0.721   5.788 -0.5202  0.1916  0.3605
   90SAPE  C314 8839   1.931  -0.779   5.668  0.1880 -0.6791 -0.6564
   90SAPE  H14X 8840   1.898  -0.672   5.669 -1.1977 -1.0352  2.4345
   90SAPE  H14Y 8841   1.841  -0.842   5.683 -0.1347  0.1248  0.9197
   90SAPE  C315 8842   1.996  -0.814   5.535  0.0007 -0.0321 -0.0645
   90SAPE  H15X 8843   2.042  -0.915   5.540 -1.9151 -0.9188  0.4714
   90SAPE  H15Y 8844   2.080  -0.742   5.520  1.4044 -1.9418 -2.0004
   90SAPE  C316 8845   1.907  -0.790   5.415  0.0804 -0.1138 -0.5227
   90SAPE  H16X 8846   1.965  -0.788   5.320  2.3044 -3.9662  0.5630
   90SAPE  H16Y 8847   1.864  -0.687   5.411 -0.3686 -0.2154  0.9757
   90SAPE  C317 8848   1.791  -0.898   5.387 -0.4511  0.4068 -0.4545
   90SAPE  H17X 8849   1.738  -0.917   5.483 -1.1289 -2.2338 -1.2486
   90SAPE  H17Y 8850   1.847  -0.994   5.387  0.9428  1.1704  0.9914
   90SAPE  C318 8851   1.702  -0.871   5.266  0.1677 -0.0139 -0.0562
   90SAPE  H18X 8852   1.640  -0.963   5.255  0.3790 -0.1403 -0.1909
   90SAPE  H18Y 8853   1.770  -0.850   5.181 -0.8190 -0.4973 -0.9948
   90SAPE  H18Z 8854   1.638  -0.784   5.290  1.0962  0.5986  0.2261
   91SAPE     N 8855   3.859   1.233   7.367 -0.8325  0.3462 -0.2963
   91SAPE   HN1 8856   3.787   1.158   7.361 -1.1212  0.6141 -0.2304
   91SAPE   HN2 8857   3.914   1.220   7.455  1.5690  0.9283 -1.6141
   91SAPE   HN3 8858   3.812   1.325   7.365  0.0411  0.8011 -0.3168
   91SAPE   C12 8859   3.959   1.218   7.249 -1.3793  0.1915 -0.2927
   91SAPE  H12A 8860   3.950   1.112   7.214  0.6432  0.5313 -2.0279
   91SAPE  H12B 8861   4.058   1.230   7.297 -0.6273  1.0613 -1.9758
   91SAPE   C11 8862   3.930   1.325   7.146 -0.1940 -0.2566 -0.4463
   91SAPE  H11A 8863   3.820   1.335   7.153 -0.2494 -2.1435  3.1428
   91SAPE  H11B 8864   3.971   1.301   7.045  3.3150 -3.1717  1.4224
   91SAPE     P 8865   3.976   1.554   7.289  0.0404  0.0554  0.3526
   91SAPE   O13 8866   3.942   1.497   7.421  0.4120 -0.6833  0.5977
   91SAPE   O14 8867   4.090   1.646   7.302 -0.7620  0.0390 -0.1834
   91SAPE   O12 8868   4.009   1.443   7.186 -0.5299 -0.8852  0.2351
   91SAPE   O11 8869   3.857   1.626   7.226  0.0949 -0.8789  0.1090
   91SAPE    C1 8870   3.868   1.755   7.156 -0.3201  0.5522 -0.2958
   91SAPE    HA 8871   3.769   1.805   7.160 -1.1200 -1.0537  2.0517
   91SAPE    HB 8872   3.929   1.828   7.213 -0.1370  1.6418 -1.8039
   91SAPE    C2 8873   3.908   1.768   7.005 -0.2006  0.0639  0.5055
   91SAPE    HS 8874   3.847   1.849   6.959 -1.2386 -1.2033 -0.4418
   91SAPE   O21 8875   3.874   1.647   6.933  0.2845  0.4292  0.1560
   91SAPE   C21 8876   3.753   1.608   6.931  0.1365  0.3374 -0.0089
   91SAPE   O22 8877   3.655   1.668   6.967  0.4840 -0.2577  0.1982
   91SAPE   C22 8878   3.754   1.476   6.870  0.2491 -0.1354 -0.0236
   91SAPE   H2R 8879   3.842   1.411   6.891 -0.6108 -2.1687 -2.1965
   91SAPE   H2S 8880   3.670   1.427   6.925 -1.7667  2.4409 -0.6432
   91SAPE    C3 8881   4.058   1.801   6.988  0.1518  0.0008  0.5354
   91SAPE    HX 8882   4.123   1.728   7.040 -0.0435 -1.6445 -1.4037
   91SAPE    HY 8883   4.066   1.900   7.037  2.9423  0.9064 -1.5085
   91SAPE   O31 8884   4.085   1.812   6.848 -0.1363 -0.1200 -0.7174
   91SAPE   C31 8885   4.185   1.736   6.804  0.0784 -1.2020  0.6578
   91SAPE   O32 8886   4.268   1.665   6.858 -0.8926  0.4473  0.1563
   91SAPE   C32 8887   4.189   1.754   6.645 -0.2316  0.3279  0.0906
   91SAPE   H2X 8888   4.126   1.840   6.613  0.1423  0.5225 -0.1249
   91SAPE   H2Y 8889   4.129   1.663   6.623  2.4585 -2.1069  2.0651
   91SAPE   C23 8890   3.737   1.476   6.715 -0.1844 -0.4141 -0.3966
   91SAPE   H3R 8891   3.678   1.566   6.686  2.2228  1.1570 -0.6452
   91SAPE   H3S 8892   3.665   1.397   6.684 -1.5954  0.4927  0.4612
   91SAPE   C24 8893   3.866   1.460   6.629  0.2122  0.1026  0.2018
   91SAPE   H4R 8894   3.948   1.530   6.655 -1.6131  3.2705 -1.8578
   91SAPE   H4S 8895   3.833   1.494   6.528 -0.8068  1.9822  1.1191
   91SAPE   C25 8896   3.917   1.317   6.622 -0.1545  0.0828  0.9791
   91SAPE   H5R 8897   3.936   1.268   6.719 -0.3368 -0.1250  0.9092
   91SAPE   C26 8898   3.921   1.244   6.507 -0.8329 -0.6059  0.5131
   91SAPE   H6R 8899   3.947   1.137   6.510 -1.1228 -0.6725  0.6775
   91SAPE   C27 8900   3.895   1.295   6.367  0.2381 -0.4285 -0.7189
   91SAPE   H7R 8901   3.950   1.232   6.293 -0.3794 -1.9620  0.0777
   91SAPE   H7S 8902   3.931   1.400   6.363  1.1979 -0.7683 -1.4561
   91SAPE   C28 8903   3.743   1.279   6.348  0.0253 -0.6383  0.0191
   91SAPE   H8R 8904   3.688   1.281   6.442  1.9547 -0.2595  1.2027
   91SAPE   C29 8905   3.672   1.264   6.228 -1.2130 -0.3758  0.3082
   91SAPE   H9R 8906   3.563   1.249   6.229 -1.7696  2.5696  3.8605
   91SAPE  C210 8907   3.735   1.269   6.093 -0.0549  0.6352 -0.6351
   91SAPE  H10R 8908   3.823   1.337   6.095 -0.6233  1.3737  0.7398
   91SAPE  H10S 8909   3.658   1.308   6.024 -0.8793  1.9220  0.9602
   91SAPE  C211 8910   3.791   1.130   6.054 -0.6232 -0.2622  0.1413
   91SAPE  H11R 8911   3.848   1.073   6.129  0.4859  0.2013 -0.3337
   91SAPE  C212 8912   3.779   1.082   5.928 -0.9315 -0.0054 -0.1130
   91SAPE  H12R 8913   3.848   0.999   5.907  1.1549  1.5393  0.2801
   91SAPE  C213 8914   3.714   1.152   5.813  0.1268  0.0845 -0.1127
   91SAPE  H13R 8915   3.662   1.246   5.842 -0.5124 -0.1254 -0.5490
   91SAPE  H13S 8916   3.639   1.078   5.777  0.4917 -1.3494  1.9112
   91SAPE  C214 8917   3.815   1.193   5.714 -0.7293  0.4007  0.2867
   91SAPE  H14R 8918   3.909   1.232   5.754  0.7145 -1.5765 -1.0026
   91SAPE  C215 8919   3.810   1.161   5.584 -0.5341 -0.4117  0.7003
   91SAPE  H15R 8920   3.891   1.181   5.514 -0.3793  2.1033  1.5118
   91SAPE  C216 8921   3.689   1.102   5.519 -0.0661  0.2121  0.3229
   91SAPE  H16R 8922   3.595   1.127   5.574  0.7456 -1.5323  2.6781
   91SAPE  H16S 8923   3.695   0.992   5.529  1.9085  0.4254  2.8994
   91SAPE  C217 8924   3.672   1.148   5.376  0.2108  0.1502 -0.4128
   91SAPE  H17R 8925   3.765   1.131   5.318 -0.0695 -0.9843 -0.5530
   91SAPE  H17S 8926   3.646   1.256   5.368  0.7079  0.2312 -1.0118
   91SAPE  C218 8927   3.566   1.053   5.305 -0.6733 -0.5332  0.4095
   91SAPE  H18R 8928   3.470   1.060   5.361 -1.3441  0.2004 -0.8023
   91SAPE  H18S 8929   3.605   0.950   5.319  0.7697  0.1257  1.5312
   91SAPE  C219 8930   3.547   1.084   5.155  0.1174 -0.2189 -0.6356
   91SAPE  H19R 8931   3.498   1.184   5.153 -0.5103 -0.5345 -1.9960
   91SAPE  H19S 8932   3.465   1.016   5.125 -0.4379 -0.3878  1.1115
   91SAPE  C220 8933   3.666   1.086   5.061  0.8148 -0.2138  0.5434
   91SAPE  H20R 8934   3.632   1.110   4.958  2.1412 -3.8765 -0.9296
   91SAPE  H20S 8935   3.719   0.988   5.060  1.0286 -0.1236  1.6833
   91SAPE  H20T 8936   3.737   1.160   5.104 -1.6034  1.0345  2.5991
   91SAPE   C33 8937   4.335   1.746   6.592 -0.5917  0.0786 -0.1505
   91SAPE   H3X 8938   4.395   1.673   6.650 -1.0245  1.6029  2.3531
   91SAPE   H3Y 8939   4.380   1.847   6.581  0.4290 -0.3436  0.0378
   91SAPE   C34 8940   4.323   1.684   6.454 -0.3600 -0.1166 -0.1037
   91SAPE   H4X 8941   4.268   1.587   6.451 -0.2053 -0.2307  0.6347
   91SAPE   H4Y 8942   4.428   1.671   6.417 -1.2415 -0.3934 -2.7518
   91SAPE   C35 8943   4.263   1.776   6.351 -0.3879  0.1942  0.4337
   91SAPE   H5X 8944   4.317   1.873   6.350 -0.0072  0.0269 -2.0795
   91SAPE   H5Y 8945   4.157   1.795   6.381 -0.7676 -0.1679 -0.6328
   91SAPE   C36 8946   4.259   1.718   6.209 -0.1722 -1.2289 -0.3728
   91SAPE   H6X 8947   4.184   1.640   6.186 -2.5282  0.7036  0.3330
   91SAPE   H6Y 8948   4.359   1.677   6.183  0.0617 -0.8292 -0.1095
   91SAPE   C37 8949   4.242   1.834   6.103  0.5213  0.3861 -0.0968
   91SAPE   H7X 8950   4.332   1.899   6.110  1.0918 -0.4398  0.4715
   91SAPE   H7Y 8951   4.148   1.887   6.127  0.1849 -0.9563  1.7363
   91SAPE   C38 8952   4.228   1.772   5.957  0.5159  0.4836 -0.2939
   91SAPE   H8X 8953   4.127   1.726   5.944  0.8860 -0.7261  0.9434
   91SAPE   H8Y 8954   4.304   1.693   5.942 -1.7162 -2.2151  1.6248
   91SAPE   C39 8955   4.231   1.881   5.854 -0.5796  0.0451  0.6424
   91SAPE   H9X 8956   4.332   1.921   5.829 -0.2548  0.0148  1.8341
   91SAPE   H9Y 8957   4.198   1.975   5.902  1.2325  1.2837 -0.4182
   91SAPE  C310 8958   4.164   1.843   5.719 -0.2138  0.3149 -0.5056
   91SAPE  H10X 8959   4.060   1.809   5.736  0.2447 -0.4963  0.7968
   91SAPE  H10Y 8960   4.225   1.758   5.681 -0.1971  0.4628 -0.8162
   91SAPE  C311 8961   4.167   1.954   5.609 -0.3958  0.1484  0.4724
   91SAPE  H11X 8962   4.275   1.982   5.606 -0.7984  1.6815 -0.0779
   91SAPE  H11Y 8963   4.123   2.053   5.633  1.3674  0.9928  0.3625
   91SAPE  C312 8964   4.127   1.905   5.465 -0.2601 -0.0943 -0.8262
   91SAPE  H12X 8965   4.038   1.839   5.460  0.0729 -0.4742 -2.1427
   91SAPE  H12Y 8966   4.212   1.844   5.427  0.2708 -1.4447  2.1793
   91SAPE  C313 8967   4.092   2.021   5.369  0.1721  0.9096  0.2785
   91SAPE  H13X 8968   4.009   2.076   5.417  0.0858  2.4761 -1.5526
   91SAPE  H13Y 8969   4.054   1.982   5.272  1.4178  0.6763 -0.1458
   91SAPE  C314 8970   4.200   2.120   5.341 -0.7272 -0.3619  0.1141
   91SAPE  H14X 8971   4.233   2.171   5.435  0.5405  2.9349 -1.9392
   91SAPE  H14Y 8972   4.154   2.198   5.278  0.9475  1.3187  0.8650
   91SAPE  C315 8973   4.321   2.064   5.269 -0.1796  0.0040  0.2759
   91SAPE  H15X 8974   4.295   2.008   5.177  1.1284  0.0422 -0.1418
   91SAPE  H15Y 8975   4.375   1.990   5.332  1.8540 -0.0831 -1.4525
   91SAPE  C316 8976   4.434   2.169   5.230 -0.3948  0.3841  0.1266
   91SAPE  H16X 8977   4.450   2.248   5.307 -1.7324  0.0720  0.7535
   91SAPE  H16Y 8978   4.423   2.215   5.129 -0.2729 -0.1639 -0.1405
   91SAPE  C317 8979   4.568   2.092   5.217 -0.1875  0.2103  0.0162
   91SAPE  H17X 8980   4.561   1.997   5.159  0.9606 -0.7779  1.4062
   91SAPE  H17Y 8981   4.601   2.065   5.320 -0.7927  0.3075  0.2382
   91SAPE  C318 8982   4.680   2.170   5.146  0.0041  0.2222 -0.0790
   91SAPE  H18X 8983   4.736   2.243   5.208  3.4784 -0.8947 -1.6557
   91SAPE  H18Y 8984   4.634   2.243   5.076  0.7445  2.5168  1.6904
   91SAPE  H18Z 8985   4.737   2.112   5.070 -0.1292  0.5750 -0.4536
   92SAPE     N 8986   3.319   2.052   7.677  0.3815 -0.0352 -0.5176
   92SAPE   HN1 8987   3.329   1.961   7.628 -0.5841  0.2342 -1.2407
   92SAPE   HN2 8988   3.393   2.057   7.750 -0.0116  1.9212 -0.2049
   92SAPE   HN3 8989   3.225   2.044   7.720  0.4288 -0.8427 -0.5410
   92SAPE   C12 8990   3.336   2.162   7.578 -0.2001 -0.4694  0.1483
   92SAPE  H12A 8991   3.447   2.169   7.572 -0.0290  1.7113  3.2616
   92SAPE  H12B 8992   3.313   2.254   7.635  1.1046 -1.2847  2.1238
   92SAPE   C11 8993   3.259   2.139   7.447  0.1119  0.4368  0.4694
   92SAPE  H11A 8994   3.282   2.213   7.368  1.1908 -0.5305 -0.1516
   92SAPE  H11B 8995   3.151   2.152   7.467 -0.2553  0.4138 -1.3971
   92SAPE     P 8996   3.411   1.972   7.309 -0.1008  0.5153  0.2410
   92SAPE   O13 8997   3.499   2.092   7.301  0.0516 -0.1161  0.5080
   92SAPE   O14 8998   3.471   1.843   7.357 -0.6782  0.0680  0.6165
   92SAPE   O12 8999   3.282   2.008   7.403  0.3218 -0.1856  0.3995
   92SAPE   O11 9000   3.352   1.943   7.167 -0.1900 -0.0445  0.1044
   92SAPE    C1 9001   3.211   1.972   7.133 -0.4321  0.7014  0.2818
   92SAPE    HA 9002   3.144   1.911   7.197  0.3467 -1.1720 -0.5871
   92SAPE    HB 9003   3.186   2.079   7.147  0.1967  0.6865  1.6723
   92SAPE    C2 9004   3.191   1.936   6.975  0.3094 -0.2160  0.5749
   92SAPE    HS 9005   3.227   1.834   6.951  0.2451  0.5135 -3.1644
   92SAPE   O21 9006   3.265   2.043   6.912 -0.5196  0.3956 -0.6045
   92SAPE   C21 9007   3.297   2.011   6.790  0.4528  0.1637 -0.5016
   92SAPE   O22 9008   3.297   1.899   6.742 -0.1725 -0.1715 -0.2979
   92SAPE   C22 9009   3.338   2.134   6.719 -0.2318 -0.0325  0.4326
   92SAPE   H2R 9010   3.301   2.221   6.776 -0.2185 -1.1304  2.2152
   92SAPE   H2S 9011   3.449   2.139   6.720 -0.1407 -0.8996  2.9570
   92SAPE    C3 9012   3.039   1.936   6.932  0.9064 -0.3375  0.1510
   92SAPE    HX 9013   2.988   2.028   6.969 -0.6162 -0.8035 -0.7046
   92SAPE    HY 9014   2.996   1.852   6.990  2.1088  0.1865  1.9122
   92SAPE   O31 9015   3.012   1.946   6.789 -0.8071 -0.3686  0.3403
   92SAPE   C31 9016   3.011   1.825   6.735  0.0908 -0.8000 -0.2573
   92SAPE   O32 9017   3.037   1.717   6.790 -0.2373 -0.4085  0.0811
   92SAPE   C32 9018   2.978   1.841   6.583 -0.1118 -0.6690 -0.3374
   92SAPE   H2X 9019   2.978   1.948   6.555  1.4237 -1.0507 -1.9942
   92SAPE   H2Y 9020   2.875   1.799   6.577 -1.7399  2.3301  2.9868
   92SAPE   C23 9021   3.290   2.145   6.573 -0.0236 -0.2377 -0.5407
   92SAPE   H3R 9022   3.181   2.165   6.574  0.0401  0.1106  0.7445
   92SAPE   H3S 9023   3.306   2.050   6.517 -0.8835 -2.2971  2.4818
   92SAPE   C24 9024   3.354   2.269   6.504  0.1116 -0.5127  0.5920
   92SAPE   H4R 9025   3.465   2.261   6.511  0.1951  1.3982  3.9733
   92SAPE   H4S 9026   3.338   2.362   6.562 -0.2526  0.2972 -0.7780
   92SAPE   C25 9027   3.300   2.292   6.373  0.5340 -0.3931 -0.1279
   92SAPE   H5R 9028   3.203   2.343   6.362 -0.0465 -1.4646 -0.1281
   92SAPE   C26 9029   3.366   2.262   6.257 -0.3148 -0.5703  0.1077
   92SAPE   H6R 9030   3.320   2.290   6.161 -0.5144  1.4540  0.7424
   92SAPE   C27 9031   3.512   2.219   6.241  0.9982  0.0605  0.0758
   92SAPE   H7R 9032   3.527   2.144   6.160  2.6421  0.0098  0.3904
   92SAPE   H7S 9033   3.523   2.157   6.332 -3.0219 -0.4009  0.4564
   92SAPE   C28 9034   3.612   2.330   6.251  0.4898 -0.4101 -0.1870
   92SAPE   H8R 9035   3.601   2.392   6.341  0.3865 -1.2172  0.3745
   92SAPE   C29 9036   3.723   2.350   6.181 -0.0957  0.2617  0.2582
   92SAPE   H9R 9037   3.785   2.438   6.204  1.8771 -0.7065 -1.0415
   92SAPE  C210 9038   3.772   2.263   6.065 -0.4088  0.4194 -0.3129
   92SAPE  H10R 9039   3.752   2.156   6.089  1.4596 -0.0976 -0.9203
   92SAPE  H10S 9040   3.881   2.267   6.084 -0.6370  0.5375  1.1056
   92SAPE  C211 9041   3.719   2.304   5.923 -0.1541  0.4337  0.2706
   92SAPE  H11R 9042   3.612   2.329   5.927 -0.4042  0.0246 -2.1262
   92SAPE  C212 9043   3.787   2.311   5.805 -0.3840 -0.0082 -0.1177
   92SAPE  H12R 9044   3.737   2.357   5.718 -0.5153  0.4356  0.1870
   92SAPE  C213 9045   3.939   2.295   5.783  0.1660 -0.0108  0.1043
   92SAPE  H13R 9046   3.948   2.225   5.697  0.5480  0.6165 -0.3694
   92SAPE  H13S 9047   3.982   2.236   5.867  0.0823  0.3259  0.3869
   92SAPE  C214 9048   4.007   2.423   5.797 -0.9921 -0.7610  0.4006
   92SAPE  H14R 9049   4.040   2.449   5.899  0.8406 -2.4709  0.3031
   92SAPE  C215 9050   4.046   2.498   5.688 -0.2648  0.2766 -0.7279
   92SAPE  H15R 9051   4.120   2.578   5.695  2.0178 -1.5507 -2.3116
   92SAPE  C216 9052   4.000   2.462   5.548 -0.3518  0.0942 -0.5029
   92SAPE  H16R 9053   3.894   2.492   5.534 -0.8557 -2.0856 -1.8741
   92SAPE  H16S 9054   4.019   2.353   5.535 -0.4876 -0.0483  0.3806
   92SAPE  C217 9055   4.074   2.532   5.433 -0.4395 -0.5766 -0.2320
   92SAPE  H17R 9056   4.041   2.485   5.338 -0.1424 -0.0225 -0.6168
   92SAPE  H17S 9057   4.182   2.506   5.432 -0.4139 -0.4734 -1.0923
   92SAPE  C218 9058   4.053   2.680   5.441  0.2439 -0.1034  0.4592
   92SAPE  H18R 9059   4.092   2.713   5.540  2.2281  1.7597 -0.8396
   92SAPE  H18S 9060   3.951   2.719   5.419  0.1966 -0.1019  0.6766
   92SAPE  C219 9061   4.140   2.762   5.348 -0.0947  0.4236 -0.5051
   92SAPE  H19R 9062   4.249   2.743   5.364 -0.6222 -1.4432  1.3735
   92SAPE  H19S 9063   4.128   2.869   5.375 -1.2339  0.3050 -0.4958
   92SAPE  C220 9064   4.103   2.744   5.201  0.3681  0.3544  0.1212
   92SAPE  H20R 9065   4.099   2.638   5.165  0.0094  0.3471  0.1784
   92SAPE  H20S 9066   4.174   2.805   5.142 -1.4815  0.8762 -1.6646
   92SAPE  H20T 9067   4.001   2.780   5.175  0.1442 -0.4374 -0.1381
   92SAPE   C33 9068   3.081   1.775   6.483 -0.3384 -0.9807  0.2793
   92SAPE   H3X 9069   3.045   1.673   6.456  0.8335 -0.6201 -3.1592
   92SAPE   H3Y 9070   3.180   1.760   6.529 -0.2684  0.1900  0.5203
   92SAPE   C34 9071   3.121   1.857   6.361 -0.1640  0.0869  0.0061
   92SAPE   H4X 9072   3.216   1.816   6.322  0.2638  0.4716  0.6311
   92SAPE   H4Y 9073   3.141   1.958   6.404 -1.1190 -0.7805  2.6927
   92SAPE   C35 9074   3.025   1.860   6.244  1.1249  0.1419 -0.3102
   92SAPE   H5X 9075   2.922   1.885   6.278  0.7560  0.0032 -1.2828
   92SAPE   H5Y 9076   3.016   1.764   6.189  0.7808 -0.7452  1.2336
   92SAPE   C36 9077   3.053   1.978   6.148  0.4269  0.3320  0.6182
   92SAPE   H6X 9078   3.088   2.067   6.205  0.2856  0.0019  1.2206
   92SAPE   H6Y 9079   2.961   2.010   6.094  2.3846  3.4637 -1.1794
   92SAPE   C37 9080   3.144   1.944   6.040 -0.1663  0.3863  0.4288
   92SAPE   H7X 9081   3.123   1.852   5.980 -0.6075  0.8145 -0.0840
   92SAPE   H7Y 9082   3.243   1.915   6.081  0.2087 -1.1959 -1.4515
   92SAPE   C38 9083   3.170   2.060   5.943 -0.2924  0.0880  0.1458
   92SAPE   H8X 9084   3.198   2.155   5.994 -0.3575 -0.0777  0.4971
   92SAPE   H8Y 9085   3.076   2.092   5.894  0.3165  1.2491 -0.3034
   92SAPE   C39 9086   3.270   2.015   5.839 -0.2585 -0.7603  0.1085
   92SAPE   H9X 9087   3.236   1.920   5.793  0.0985 -1.2316  0.8140
   92SAPE   H9Y 9088   3.371   2.005   5.883  0.6313  2.3362 -0.9976
   92SAPE  C310 9089   3.279   2.129   5.733  0.5564 -0.1424 -0.4349
   92SAPE  H10X 9090   3.176   2.149   5.696  0.6003  0.3992 -0.2608
   92SAPE  H10Y 9091   3.345   2.085   5.655  1.4475  1.4715 -0.6121
   92SAPE  C311 9092   3.347   2.262   5.776  0.0109 -0.2768  0.6328
   92SAPE  H11X 9093   3.440   2.226   5.827  0.0665 -1.1366 -0.0614
   92SAPE  H11Y 9094   3.287   2.316   5.853  1.2674  1.3335  0.5370
   92SAPE  C312 9095   3.395   2.349   5.651  0.3270 -0.1086 -0.2310
   92SAPE  H12X 9096   3.461   2.427   5.694 -1.4031  2.7415 -2.3930
   92SAPE  H12Y 9097   3.305   2.400   5.609 -1.1693 -2.4450 -0.0581
   92SAPE  C313 9098   3.466   2.271   5.542  0.1453 -0.2166 -0.6665
   92SAPE  H13X 9099   3.401   2.198   5.489 -0.5195 -0.1308  0.0011
   92SAPE  H13Y 9100   3.544   2.207   5.590 -0.4595 -0.0437  0.5896
   92SAPE  C314 9101   3.520   2.376   5.446 -0.5335 -0.0969  0.9608
   92SAPE  H14X 9102   3.597   2.443   5.491 -0.8931  1.3184 -0.4474
   92SAPE  H14Y 9103   3.442   2.447   5.413  1.1520  0.8713 -1.1696
   92SAPE  C315 9104   3.588   2.307   5.326  0.1310 -0.1233  0.0280
   92SAPE  H15X 9105   3.508   2.236   5.296 -0.0006  0.2299 -0.4624
   92SAPE  H15Y 9106   3.683   2.260   5.360 -0.6539 -2.4025 -0.7627
   92SAPE  C316 9107   3.608   2.405   5.208  0.3230 -0.6389  0.9934
   92SAPE  H16X 9108   3.525   2.478   5.222 -2.1385 -3.1335  0.2704
   92SAPE  H16Y 9109   3.598   2.350   5.112  1.2293 -0.6515  0.9001
   92SAPE  C317 9110   3.738   2.475   5.212  0.6288 -0.3455  0.0625
   92SAPE  H17X 9111   3.824   2.406   5.227  2.6981  1.5478 -2.2860
   92SAPE  H17Y 9112   3.740   2.544   5.299 -0.2447 -0.3523  0.0983
   92SAPE  C318 9113   3.772   2.571   5.094 -0.2025 -0.4421  0.7872
   92SAPE  H18X 9114   3.778   2.508   5.003 -0.9194 -2.9765  2.3949
   92SAPE  H18Y 9115   3.875   2.609   5.110  0.6882 -2.7400  0.7744
   92SAPE  H18Z 9116   3.692   2.648   5.082 -0.4563 -0.5246  1.8586
   93SAPE     N 9117   5.807   5.484   7.170 -0.2343  0.8046 -0.3533
   93SAPE   HN1 9118   5.865   5.550   7.114  2.4728 -1.3395 -0.2549
   93SAPE   HN2 9119   5.767   5.542   7.246 -0.0772 -1.5034  1.5983
   93SAPE   HN3 9120   5.868   5.423   7.228 -2.0188  1.1021  1.9990
   93SAPE   C12 9121   5.710   5.415   7.083  0.0176  0.6731  0.3542
   93SAPE  H12A 9122   5.655   5.351   7.155 -0.1039 -0.3116 -0.5929
   93SAPE  H12B 9123   5.760   5.344   7.014  1.3063  1.0272  0.9056
   93SAPE   C11 9124   5.623   5.515   7.012  0.9828  0.4854  0.2119
   93SAPE  H11A 9125   5.552   5.464   6.942 -0.0975  3.7198 -1.2314
   93SAPE  H11B 9126   5.677   5.572   6.934 -2.7162  1.5321 -1.8314
   93SAPE     P 9127   5.521   5.734   7.058 -0.1879 -0.0733 -0.0604
   93SAPE   O13 9128   5.452   5.800   7.168 -0.2068 -0.2297 -0.0620
   93SAPE   O14 9129   5.648   5.797   7.014 -0.2305 -0.3715  0.1711
   93SAPE   O12 9130   5.547   5.591   7.106 -0.2023 -0.1721 -0.2660
   93SAPE   O11 9131   5.418   5.715   6.947  0.8417 -0.5817  0.6739
   93SAPE    C1 9132   5.465   5.716   6.812  0.4127  0.4231  0.3971
   93SAPE    HA 9133   5.527   5.804   6.785 -1.9206  2.7053  2.0587
   93SAPE    HB 9134   5.533   5.629   6.798  1.4990  1.0466  1.5643
   93SAPE    C2 9135   5.347   5.706   6.711  0.0473  0.0291  0.1653
   93SAPE    HS 9136   5.297   5.805   6.715 -0.5875 -0.2718 -0.2242
   93SAPE   O21 9137   5.256   5.593   6.739  0.2789 -0.9936  0.6440
   93SAPE   C21 9138   5.125   5.622   6.720  0.7807 -0.1402  0.0358
   93SAPE   O22 9139   5.079   5.736   6.706 -0.1589 -0.1634 -0.5235
   93SAPE   C22 9140   5.033   5.502   6.723  0.3746 -0.3064  0.3815
   93SAPE   H2R 9141   5.067   5.428   6.647 -0.6479  1.5208 -1.9810
   93SAPE   H2S 9142   5.038   5.459   6.825  0.0095  0.6763  0.8257
   93SAPE    C3 9143   5.397   5.710   6.566  0.0150  0.0771 -0.7163
   93SAPE    HX 9144   5.445   5.612   6.544  2.3419  0.6560  1.3563
   93SAPE    HY 9145   5.488   5.773   6.560  0.6133 -0.2984  2.6930
   93SAPE   O31 9146   5.305   5.745   6.466 -0.3189  0.2624 -0.1269
   93SAPE   C31 9147   5.259   5.874   6.468  0.2128  0.5541 -0.0391
   93SAPE   O32 9148   5.322   5.965   6.527 -0.0846 -0.2254  0.5383
   93SAPE   C32 9149   5.123   5.892   6.398 -0.5642 -0.8018  0.1044
   93SAPE   H2X 9150   5.080   5.974   6.459  1.0057  0.5983 -0.5891
   93SAPE   H2Y 9151   5.068   5.795   6.404 -1.3676 -0.3324  0.5136
   93SAPE   C23 9152   4.885   5.543   6.683  0.0470 -0.3400  0.7875
   93SAPE   H3R 9153   4.881   5.577   6.577  1.2643 -1.8976  0.2076
   93SAPE   H3S 9154   4.848   5.617   6.756 -0.8247  0.3200 -0.2798
   93SAPE   C24 9155   4.787   5.420   6.687  0.8334  0.8640 -0.0181
   93SAPE   H4R 9156   4.773   5.373   6.787 -1.3343  1.4287  0.0031
   93SAPE   H4S 9157   4.832   5.332   6.636  1.5309  1.3823 -0.3061
   93SAPE   C25 9158   4.653   5.450   6.626  0.6788 -0.2187  0.1120
   93SAPE   H5R 9159   4.570   5.474   6.695  0.5488 -1.3570  0.3693
   93SAPE   C26 9160   4.621   5.453   6.494 -0.1306 -0.2053 -0.1559
   93SAPE   H6R 9161   4.522   5.488   6.462 -1.0919 -1.3915  1.3326
   93SAPE   C27 9162   4.722   5.404   6.389  0.4866 -0.4425  0.2024
   93SAPE   H7R 9163   4.693   5.306   6.345  1.1746  0.0513 -1.4459
   93SAPE   H7S 9164   4.819   5.380   6.436 -0.5173 -0.1408  2.5549
   93SAPE   C28 9165   4.733   5.522   6.293  0.1110 -0.3865  0.4979
   93SAPE   H8R 9166   4.768   5.619   6.331  2.0699 -0.7084 -0.3336
   93SAPE   C29 9167   4.731   5.506   6.157 -0.0587  0.6782 -0.2058
   93SAPE   H9R 9168   4.733   5.600   6.099  0.2113  0.2253 -0.9425
   93SAPE  C210 9169   4.722   5.377   6.080  0.0167  0.3759 -0.6696
   93SAPE  H10R 9170   4.626   5.372   6.024 -2.1501 -0.6726  2.7737
   93SAPE  H10S 9171   4.717   5.292   6.151  0.0371  1.3087  0.4868
   93SAPE  C211 9172   4.844   5.351   6.001  0.4137 -0.2928  0.7077
   93SAPE  H11R 9173   4.935   5.311   6.048  0.4557  0.3282  1.1725
   93SAPE  C212 9174   4.856   5.373   5.869 -0.2644  0.7525  0.0122
   93SAPE  H12R 9175   4.958   5.353   5.831 -0.2990  2.4278 -1.0665
   93SAPE  C213 9176   4.761   5.447   5.774 -0.8217  0.0508 -0.7445
   93SAPE  H13R 9177   4.679   5.509   5.816  1.3379  0.9292  2.5679
   93SAPE  H13S 9178   4.707   5.375   5.708  0.1393 -0.5660 -0.8737
   93SAPE  C214 9179   4.840   5.533   5.683  0.2364 -0.7454 -0.2779
   93SAPE  H14R 9180   4.849   5.629   5.737 -2.9944  0.1337 -1.0299
   93SAPE  C215 9181   4.914   5.507   5.573 -0.2086  0.2323 -0.2509
   93SAPE  H15R 9182   4.964   5.588   5.517  0.4875  0.8703  1.2301
   93SAPE  C216 9183   4.923   5.374   5.511  0.6845  0.8137  0.5792
   93SAPE  H16R 9184   4.873   5.300   5.577 -0.2516 -2.0849 -2.9859
   93SAPE  H16S 9185   5.025   5.336   5.488 -0.3032 -1.1082 -0.9334
   93SAPE  C217 9186   4.846   5.369   5.374 -0.1549  0.0287 -0.2093
   93SAPE  H17R 9187   4.745   5.413   5.391  0.1212  0.3100  0.7234
   93SAPE  H17S 9188   4.839   5.265   5.336 -1.0921  0.7214 -2.0397
   93SAPE  C218 9189   4.935   5.432   5.270  0.2847 -0.8172  0.0957
   93SAPE  H18R 9190   5.015   5.371   5.222  1.0927  0.6581 -0.4998
   93SAPE  H18S 9191   4.974   5.527   5.313 -0.7372  0.2721 -1.2525
   93SAPE  C219 9192   4.853   5.487   5.149  0.3842  0.0927 -0.3680
   93SAPE  H19R 9193   4.914   5.559   5.091  0.7549  0.6223  0.6373
   93SAPE  H19S 9194   4.764   5.542   5.188  0.3006 -0.7600  0.6997
   93SAPE  C220 9195   4.828   5.369   5.046  0.0276 -0.1496 -0.4495
   93SAPE  H20R 9196   4.794   5.422   4.954  0.5924 -2.6251 -2.1779
   93SAPE  H20S 9197   4.750   5.300   5.083 -0.5374  1.4876  1.6193
   93SAPE  H20T 9198   4.924   5.316   5.027  1.3633  2.1824 -0.6186
   93SAPE   C33 9199   5.127   5.944   6.246  0.5415  0.0798  0.4871
   93SAPE   H3X 9200   5.184   5.869   6.187 -0.8203  0.6162 -1.6236
   93SAPE   H3Y 9201   5.174   6.045   6.242 -0.2146  0.4838  1.3977
   93SAPE   C34 9202   4.992   5.949   6.172 -0.4124  0.1073 -1.2696
   93SAPE   H4X 9203   4.923   5.983   6.253  1.8297  1.6899  0.1010
   93SAPE   H4Y 9204   4.954   5.848   6.149 -0.9419  0.4065 -1.7174
   93SAPE   C35 9205   4.994   6.028   6.037  0.0556  0.7119 -0.1910
   93SAPE   H5X 9206   5.039   6.125   6.066 -1.3817  1.2959  0.1476
   93SAPE   H5Y 9207   4.891   6.049   6.001  0.3722  1.8813 -0.4318
   93SAPE   C36 9208   5.078   5.968   5.928  0.5653  0.9803 -0.0740
   93SAPE   H6X 9209   5.022   5.875   5.904  1.2998  0.1544  1.2550
   93SAPE   H6Y 9210   5.175   5.935   5.970  0.7789  0.7533 -0.7412
   93SAPE   C37 9211   5.119   6.062   5.816  0.4236  0.2327 -0.1492
   93SAPE   H7X 9212   5.206   6.126   5.840 -1.6504  3.0640  0.3308
   93SAPE   H7Y 9213   5.043   6.143   5.804 -1.0728 -0.9923  0.6783
   93SAPE   C38 9214   5.113   5.985   5.686  0.6415 -0.1774  0.3022
   93SAPE   H8X 9215   5.145   6.047   5.599  0.3284 -1.5182 -0.7994
   93SAPE   H8Y 9216   5.017   5.934   5.665  1.0563 -1.0289  0.4068
   93SAPE   C39 9217   5.219   5.871   5.686  0.0432 -0.1487 -0.5583
   93SAPE   H9X 9218   5.208   5.794   5.765 -1.1857  0.0667 -0.4940
   93SAPE   H9Y 9219   5.327   5.898   5.693  0.1348 -0.6348 -0.0684
   93SAPE  C310 9220   5.214   5.783   5.560 -0.4024 -0.1250 -0.0459
   93SAPE  H10X 9221   5.234   5.845   5.470  0.9932 -0.5164 -0.0357
   93SAPE  H10Y 9222   5.114   5.738   5.541 -0.9262  0.9622  0.1118
   93SAPE  C311 9223   5.319   5.671   5.565  0.4030 -0.4078 -0.8734
   93SAPE  H11X 9224   5.302   5.627   5.666  1.9435 -1.8193 -1.1826
   93SAPE  H11Y 9225   5.425   5.703   5.568 -0.1784  2.0559  4.4654
   93SAPE  C312 9226   5.286   5.564   5.457 -0.5790  0.4644  0.1630
   93SAPE  H12X 9227   5.176   5.547   5.465 -0.7949  1.0121 -1.2915
   93SAPE  H12Y 9228   5.339   5.467   5.466  1.1398  1.3312 -0.2801
   93SAPE  C313 9229   5.312   5.608   5.317  0.2113 -0.1595  0.5332
   93SAPE  H13X 9230   5.412   5.653   5.299  0.3398 -0.6877 -0.0948
   93SAPE  H13Y 9231   5.238   5.686   5.291  1.8876  1.1597 -0.4692
   93SAPE  C314 9232   5.297   5.501   5.215  0.5023 -0.5753  0.6747
   93SAPE  H14X 9233   5.212   5.445   5.260  1.1082 -0.2836  2.2642
   93SAPE  H14Y 9234   5.387   5.438   5.220 -0.2599 -1.7970 -0.4390
   93SAPE  C315 9235   5.284   5.547   5.069  0.8083  0.5472 -0.2977
   93SAPE  H15X 9236   5.377   5.600   5.041  0.8007  0.9518  0.4230
   93SAPE  H15Y 9237   5.204   5.624   5.070 -0.4111 -0.6636 -1.0913
   93SAPE  C316 9238   5.246   5.437   4.969 -0.0415  0.0948  0.3138
   93SAPE  H16X 9239   5.182   5.367   5.027  0.6552 -1.3505 -0.6028
   93SAPE  H16Y 9240   5.341   5.386   4.942  0.5823  1.5864 -0.3863
   93SAPE  C317 9241   5.150   5.487   4.859 -0.4670  0.3154  0.1682
   93SAPE  H17X 9242   5.058   5.533   4.901 -0.3371  1.7014 -0.9882
   93SAPE  H17Y 9243   5.122   5.392   4.808  0.1010 -1.0576  2.2757
   93SAPE  C318 9244   5.230   5.580   4.764  0.6317 -0.3460  0.4976
   93SAPE  H18X 9245   5.158   5.612   4.685 -0.8179  0.0525  1.9101
   93SAPE  H18Y 9246   5.321   5.528   4.727 -0.2788 -1.7803  0.1979
   93SAPE  H18Z 9247   5.252   5.675   4.818 -1.7557  2.2761 -2.6926
   94SAPE     N 9248   5.845   2.841   7.416 -0.8956  0.0140 -0.4728
   94SAPE   HN1 9249   5.772   2.796   7.475 -1.6180  1.6393 -0.0653
   94SAPE   HN2 9250   5.913   2.864   7.491 -2.1400 -0.3107  0.7976
   94SAPE   HN3 9251   5.800   2.927   7.379 -0.7455  0.0853 -0.4895
   94SAPE   C12 9252   5.911   2.754   7.317 -0.2213 -0.9794  0.0893
   94SAPE  H12A 9253   5.834   2.713   7.249  0.9254 -2.2287 -0.5063
   94SAPE  H12B 9254   5.959   2.665   7.364  1.3709  1.2633  3.0993
   94SAPE   C11 9255   6.008   2.840   7.237  0.2403 -0.2059 -0.4837
   94SAPE  H11A 9256   6.056   2.761   7.176 -0.1368 -2.1561  1.5945
   94SAPE  H11B 9257   6.098   2.863   7.298 -0.2967  0.1031  0.2110
   94SAPE     P 9258   5.873   2.940   7.046  0.2437  0.0619  0.3218
   94SAPE   O13 9259   5.754   2.860   7.075  0.0903 -0.1722  0.0216
   94SAPE   O14 9260   5.859   3.081   7.002  0.2302  0.5859  0.4315
   94SAPE   O12 9261   5.961   2.956   7.177  0.4862 -0.9383 -0.2019
   94SAPE   O11 9262   5.976   2.863   6.957 -0.7764  0.3868 -0.0678
   94SAPE    C1 9263   6.112   2.904   6.939 -0.3714 -0.1948  0.2848
   94SAPE    HA 9264   6.140   2.989   7.004 -0.1296 -0.2687  0.2780
   94SAPE    HB 9265   6.170   2.812   6.964  1.0742  0.0432 -1.9169
   94SAPE    C2 9266   6.147   2.938   6.793 -0.6019  0.1582  0.1316
   94SAPE    HS 9267   6.257   2.952   6.782 -0.4193 -1.5553 -0.4084
   94SAPE   O21 9268   6.089   3.059   6.751 -0.6098 -0.2734 -0.2956
   94SAPE   C21 9269   6.139   3.170   6.800  0.3137  0.3143 -0.0265
   94SAPE   O22 9270   6.235   3.180   6.873  0.1543 -0.0217  0.4591
   94SAPE   C22 9271   6.068   3.298   6.747 -0.8476  0.5732  0.0104
   94SAPE   H2R 9272   5.959   3.295   6.768 -0.5270 -1.6059  1.6504
   94SAPE   H2S 9273   6.111   3.390   6.791  1.0889  0.9804 -2.5113
   94SAPE    C3 9274   6.096   2.828   6.697  0.2682 -0.5077 -0.6408
   94SAPE    HX 9275   6.001   2.787   6.738 -0.2829  0.1487 -1.2246
   94SAPE    HY 9276   6.170   2.746   6.701 -0.4825 -1.1708  0.0679
   94SAPE   O31 9277   6.086   2.871   6.560  0.2971 -0.0838  0.0587
   94SAPE   C31 9278   6.185   2.908   6.489  0.7879 -0.5084 -0.7736
   94SAPE   O32 9279   6.304   2.909   6.535  0.6355  0.4446 -0.0341
   94SAPE   C32 9280   6.144   2.960   6.354  0.6007  0.3398  0.2579
   94SAPE   H2X 9281   6.164   3.069   6.340  3.7128 -0.2355 -0.3497
   94SAPE   H2Y 9282   6.034   2.944   6.342  0.2708  0.6123  2.4549
   94SAPE   C23 9283   6.077   3.306   6.594  0.3497 -0.2994  0.2957
   94SAPE   H3R 9284   6.014   3.235   6.537 -1.8773  0.9925  1.0482
   94SAPE   H3S 9285   6.182   3.307   6.556  0.5484  0.2410  0.8374
   94SAPE   C24 9286   6.027   3.451   6.539 -0.6310  0.5692 -0.3746
   94SAPE   H4R 9287   6.053   3.440   6.432 -1.7921 -1.3352 -0.5111
   94SAPE   H4S 9288   6.094   3.529   6.581  0.0696 -1.1859  1.9269
   94SAPE   C25 9289   5.881   3.481   6.572  0.1948 -0.7073  1.1181
   94SAPE   H5R 9290   5.859   3.489   6.679  2.8033  1.1220  1.6089
   94SAPE   C26 9291   5.787   3.505   6.482  1.2518 -0.0962 -0.3790
   94SAPE   H6R 9292   5.685   3.538   6.508  0.5184 -1.5301 -1.3336
   94SAPE   C27 9293   5.805   3.508   6.331 -0.0940 -1.0908  0.3633
   94SAPE   H7R 9294   5.908   3.484   6.299 -0.2150 -0.2944 -0.6597
   94SAPE   H7S 9295   5.790   3.610   6.290  0.7750 -1.9127 -2.1677
   94SAPE   C28 9296   5.708   3.433   6.258 -0.0704 -0.6665 -0.7993
   94SAPE   H8R 9297   5.615   3.415   6.315  0.7043  1.3108  1.2374
   94SAPE   C29 9298   5.732   3.365   6.150  0.3852  0.4142 -0.2178
   94SAPE   H9R 9299   5.649   3.309   6.102 -0.0405  0.6796  0.2081
   94SAPE  C210 9300   5.849   3.361   6.065 -0.9551 -0.0287  0.2419
   94SAPE  H10R 9301   5.873   3.460   6.022 -1.3359 -0.4380 -0.9604
   94SAPE  H10S 9302   5.827   3.300   5.975 -1.2677 -0.6754  0.7488
   94SAPE  C211 9303   5.974   3.303   6.141 -0.1545 -0.7388  0.8057
   94SAPE  H11R 9304   5.955   3.238   6.227  3.3931 -0.9355  1.5939
   94SAPE  C212 9305   6.101   3.316   6.113 -0.6528 -0.2374  0.7213
   94SAPE  H12R 9306   6.182   3.280   6.178  0.1655 -0.8745 -0.6112
   94SAPE  C213 9307   6.148   3.375   5.986  0.3141 -0.5884  0.0858
   94SAPE  H13R 9308   6.180   3.479   6.006 -0.6932 -0.5844  1.8326
   94SAPE  H13S 9309   6.061   3.392   5.919  0.8894  1.1110 -0.2604
   94SAPE  C214 9310   6.248   3.298   5.904 -0.5432  0.4496  0.8718
   94SAPE  H14R 9311   6.251   3.190   5.926 -1.4458  0.4711  1.1659
   94SAPE  C215 9312   6.322   3.339   5.794  0.2564  0.1090 -0.3670
   94SAPE  H15R 9313   6.366   3.262   5.730 -2.1253 -1.5762 -0.1201
   94SAPE  C216 9314   6.344   3.478   5.744  0.4352 -0.0451  1.1575
   94SAPE  H16R 9315   6.452   3.505   5.746  0.4010  0.5387 -1.5274
   94SAPE  H16S 9316   6.297   3.556   5.806  3.9152  2.2223  1.2500
   94SAPE  C217 9317   6.288   3.489   5.599 -0.8056 -0.5398 -0.1763
   94SAPE  H17R 9318   6.321   3.400   5.541 -3.0085 -0.9857 -0.8308
   94SAPE  H17S 9319   6.335   3.582   5.559 -4.1559  2.0100  1.3340
   94SAPE  C218 9320   6.135   3.501   5.584  0.2970  0.1816 -1.0231
   94SAPE  H18R 9321   6.105   3.587   5.648  2.9253  0.6643 -0.3162
   94SAPE  H18S 9322   6.085   3.414   5.631 -1.4689  1.0866 -1.1495
   94SAPE  C219 9323   6.095   3.522   5.440  0.5153  0.1682  0.4262
   94SAPE  H19R 9324   6.148   3.453   5.370 -0.2137  1.0832 -1.0834
   94SAPE  H19S 9325   6.136   3.622   5.417 -2.2505  1.8117  2.0787
   94SAPE  C220 9326   5.948   3.526   5.417 -0.4521  0.0237  0.1031
   94SAPE  H20R 9327   5.910   3.422   5.423 -1.8877  0.6005  2.1586
   94SAPE  H20S 9328   5.922   3.567   5.317  1.1542 -1.4765 -1.0036
   94SAPE  H20T 9329   5.889   3.577   5.496 -0.7702 -0.9754  0.5240
   94SAPE   C33 9330   6.221   2.888   6.245  0.0512  0.3511  0.4979
   94SAPE   H3X 9331   6.204   2.779   6.263 -0.3713  0.7917  3.1017
   94SAPE   H3Y 9332   6.328   2.915   6.253 -0.5777  3.3959 -0.1311
   94SAPE   C34 9333   6.188   2.937   6.103 -0.0117  0.3796 -0.0853
   94SAPE   H4X 9334   6.220   3.044   6.098 -0.3839  0.5135  0.3059
   94SAPE   H4Y 9335   6.077   2.936   6.101 -0.0281  1.2753 -0.2747
   94SAPE   C35 9336   6.248   2.855   5.987  0.1207  0.4069  0.3392
   94SAPE   H5X 9337   6.217   2.750   6.004 -0.5735  0.5398 -0.0756
   94SAPE   H5Y 9338   6.359   2.850   5.991  0.1639  1.5223  1.3558
   94SAPE   C36 9339   6.204   2.882   5.844 -0.0702 -0.2734  0.5761
   94SAPE   H6X 9340   6.227   2.989   5.826 -1.5980 -0.1151 -0.7048
   94SAPE   H6Y 9341   6.093   2.878   5.837 -0.0876 -0.6016  0.9968
   94SAPE   C37 9342   6.264   2.794   5.739  0.7066  0.4743  0.7303
   94SAPE   H7X 9343   6.224   2.691   5.753 -0.5395  0.6310 -1.2450
   94SAPE   H7Y 9344   6.370   2.776   5.766  0.0014 -1.1494  2.7359
   94SAPE   C38 9345   6.240   2.843   5.594 -0.1994  0.2423 -0.3470
   94SAPE   H8X 9346   6.290   2.940   5.572 -0.4599  0.4469 -0.0428
   94SAPE   H8Y 9347   6.134   2.865   5.571 -0.3121 -0.5098 -0.5822
   94SAPE   C39 9348   6.293   2.729   5.496  0.0185  0.3421  0.1843
   94SAPE   H9X 9349   6.246   2.632   5.521  1.7989 -0.7997 -0.7286
   94SAPE   H9Y 9350   6.402   2.727   5.515  0.1591 -0.7040 -0.6305
   94SAPE  C310 9351   6.278   2.766   5.350 -0.2688 -0.0340  0.2316
   94SAPE  H10X 9352   6.332   2.862   5.339  0.0095 -0.4050 -2.1707
   94SAPE  H10Y 9353   6.170   2.774   5.324 -0.2274  1.9064  0.4999
   94SAPE  C311 9354   6.329   2.668   5.247  0.2136 -0.0149  0.7357
   94SAPE  H11X 9355   6.439   2.660   5.256  0.4354  0.1574 -1.3336
   94SAPE  H11Y 9356   6.301   2.712   5.149 -1.1295  0.6212  1.3777
   94SAPE  C312 9357   6.257   2.528   5.262 -0.7954 -0.1988 -0.4685
   94SAPE  H12X 9358   6.151   2.555   5.248 -0.8852  0.0474  0.5743
   94SAPE  H12Y 9359   6.278   2.492   5.365  1.0587  0.4798 -0.5625
   94SAPE  C313 9360   6.304   2.422   5.160 -0.4612 -0.4387 -0.2011
   94SAPE  H13X 9361   6.415   2.425   5.152 -0.4772 -1.7133 -1.1605
   94SAPE  H13Y 9362   6.265   2.433   5.057 -0.0338 -0.4681 -0.3700
   94SAPE  C314 9363   6.277   2.270   5.195  0.2470  0.4502 -0.5289
   94SAPE  H14X 9364   6.181   2.251   5.248 -0.7574  1.4864 -1.8925
   94SAPE  H14Y 9365   6.361   2.244   5.263  0.7972 -0.3908 -1.5069
   94SAPE  C315 9366   6.294   2.181   5.078  0.1879 -0.6513  0.6094
   94SAPE  H15X 9367   6.288   2.242   4.986  0.9896  0.9835  1.5806
   94SAPE  H15Y 9368   6.204   2.115   5.077  0.0476 -0.4623  0.6750
   94SAPE  C316 9369   6.433   2.109   5.074 -0.1781  0.1893 -0.6569
   94SAPE  H16X 9370   6.444   2.039   5.160  0.8523  0.6302 -0.4199
   94SAPE  H16Y 9371   6.511   2.184   5.099  0.7677 -0.9687 -0.0140
   94SAPE  C317 9372   6.481   2.041   4.942 -0.2698  0.1798  0.1653
   94SAPE  H17X 9373   6.489   2.117   4.862  1.1573  1.0900  1.1306
   94SAPE  H17Y 9374   6.416   1.954   4.918 -0.0174 -0.0078  0.1678
   94SAPE  C318 9375   6.608   1.977   4.960 -0.6563  0.2341  0.0151
   94SAPE  H18X 9376   6.627   1.913   4.871 -1.3951 -0.7524  0.5379
   94SAPE  H18Y 9377   6.606   1.903   5.043  2.1148 -0.1534 -0.1801
   94SAPE  H18Z 9378   6.702   2.036   4.963  0.0548 -0.8311 -0.6159
   95SAPE     N 9379   0.253   0.078   7.233 -0.0240 -0.3215 -0.5506
   95SAPE   HN1 9380   0.307  -0.000   7.191  0.4836 -1.2180  1.6047
   95SAPE   HN2 9381   0.152   0.076   7.209  0.3965  0.7177 -2.6130
   95SAPE   HN3 9382   0.290   0.162   7.185 -0.8152  1.0946  1.1718
   95SAPE   C12 9383   0.274   0.090   7.384  0.4374  0.5020  0.3885
   95SAPE  H12A 9384   0.253  -0.007   7.435  0.3538 -1.4588 -3.0845
   95SAPE  H12B 9385   0.209   0.169   7.426  0.5461  1.2807 -0.8668
   95SAPE   C11 9386   0.414   0.122   7.431 -0.0157  0.0628  0.1153
   95SAPE  H11A 9387   0.487   0.042   7.405 -0.3695  0.2244 -1.5355
   95SAPE  H11B 9388   0.411   0.139   7.540  1.6109  3.0924 -0.2166
   95SAPE     P 9389   0.574   0.269   7.268 -0.0147  0.3175 -0.5083
   95SAPE   O13 9390   0.574   0.414   7.235 -0.3132  0.0339 -0.8714
   95SAPE   O14 9391   0.704   0.215   7.316 -0.2783  0.3438 -0.1989
   95SAPE   O12 9392   0.457   0.244   7.372 -0.1262 -0.0025  0.8902
   95SAPE   O11 9393   0.517   0.195   7.136 -0.1427  0.1644 -0.0841
   95SAPE    C1 9394   0.605   0.118   7.058  0.0637  0.4442 -0.1412
   95SAPE    HA 9395   0.708   0.159   7.057  0.0141  0.5659 -0.4705
   95SAPE    HB 9396   0.605   0.015   7.100  3.4373 -0.0587 -1.0784
   95SAPE    C2 9397   0.548   0.138   6.921  0.1924 -0.3093  0.6231
   95SAPE    HS 9398   0.542   0.248   6.908 -1.2817  0.1455  4.0581
   95SAPE   O21 9399   0.420   0.073   6.892  0.3285  0.6460 -0.6138
   95SAPE   C21 9400   0.332   0.156   6.837  0.5669 -1.0973 -0.2694
   95SAPE   O22 9401   0.353   0.278   6.800 -0.2352  0.4026 -0.5824
   95SAPE   C22 9402   0.190   0.095   6.818 -0.6776  0.3398 -0.7017
   95SAPE   H2R 9403   0.179   0.002   6.878  2.2865 -0.0879 -0.6949
   95SAPE   H2S 9404   0.116   0.173   6.844  0.0281  0.4809  0.9494
   95SAPE    C3 9405   0.643   0.084   6.815 -0.4702 -0.0405 -0.4686
   95SAPE    HX 9406   0.652  -0.025   6.838  0.1908 -0.1120 -1.0345
   95SAPE    HY 9407   0.746   0.122   6.832  0.3757 -2.9479  1.8746
   95SAPE   O31 9408   0.593   0.106   6.683 -0.2008  0.2352  0.4109
   95SAPE   C31 9409   0.624   0.222   6.613  0.9544 -0.1002 -0.1489
   95SAPE   O32 9410   0.682   0.320   6.655  0.2053  0.5434 -0.6080
   95SAPE   C32 9411   0.562   0.206   6.472 -0.2325 -0.1127 -0.1980
   95SAPE   H2X 9412   0.465   0.152   6.466  0.2981 -1.1481  0.3968
   95SAPE   H2Y 9413   0.638   0.144   6.420  1.6594  1.4593  0.5600
   95SAPE   C23 9414   0.176   0.050   6.669 -0.0740  0.6514 -0.5199
   95SAPE   H3R 9415   0.199   0.139   6.607  2.9490 -0.9217 -1.8465
   95SAPE   H3S 9416   0.073   0.022   6.640  0.1543  1.2376 -1.9586
   95SAPE   C24 9417   0.275  -0.059   6.622 -0.5145  0.0064 -0.5817
   95SAPE   H4R 9418   0.267  -0.142   6.696 -0.3994  2.2571  2.1447
   95SAPE   H4S 9419   0.382  -0.029   6.634 -0.6866  0.4406 -0.1014
   95SAPE   C25 9420   0.245  -0.108   6.484  0.2470 -0.0519 -0.4629
   95SAPE   H5R 9421   0.138  -0.114   6.458  0.8822  0.6055 -3.6762
   95SAPE   C26 9422   0.337  -0.155   6.404 -0.0807 -0.1118  1.1975
   95SAPE   H6R 9423   0.299  -0.188   6.306  0.9492  1.3709  0.2469
   95SAPE   C27 9424   0.484  -0.179   6.421  0.1392  0.8142 -0.1494
   95SAPE   H7R 9425   0.508  -0.182   6.529 -2.3046 -0.9712  0.4156
   95SAPE   H7S 9426   0.534  -0.087   6.383  0.8412  1.1309  1.4818
   95SAPE   C28 9427   0.532  -0.308   6.362  0.4354 -0.1414  0.5031
   95SAPE   H8R 9428   0.511  -0.397   6.423 -1.5392  1.4714  2.3151
   95SAPE   C29 9429   0.576  -0.332   6.240 -0.2103  0.7026 -0.2788
   95SAPE   H9R 9430   0.616  -0.432   6.218 -0.1111  0.8937 -0.9640
   95SAPE  C210 9431   0.615  -0.230   6.140  0.1279 -0.3125 -0.8561
   95SAPE  H10R 9432   0.723  -0.214   6.162 -0.4473  0.0894  2.2172
   95SAPE  H10S 9433   0.572  -0.131   6.166 -1.3533 -1.3726  0.9448
   95SAPE  C211 9434   0.577  -0.264   6.004  0.5521  0.2205  0.7105
   95SAPE  H11R 9435   0.469  -0.256   5.987  0.1423 -2.4555  1.7041
   95SAPE  C212 9436   0.638  -0.334   5.908 -1.4142 -0.6395 -0.2940
   95SAPE  H12R 9437   0.583  -0.356   5.816 -0.1637 -0.5037 -1.1021
   95SAPE  C213 9438   0.784  -0.373   5.920 -0.0434  0.1037  0.0268
   95SAPE  H13R 9439   0.812  -0.382   6.027 -0.6875 -1.8848  0.0717
   95SAPE  H13S 9440   0.851  -0.300   5.869 -0.1088  1.0891  1.2929
   95SAPE  C214 9441   0.795  -0.515   5.858 -0.1655 -0.1263  0.4146
   95SAPE  H14R 9442   0.754  -0.596   5.919  0.7129  1.1039  2.7480
   95SAPE  C215 9443   0.852  -0.544   5.739 -0.4791 -0.5851 -0.1248
   95SAPE  H15R 9444   0.839  -0.643   5.693 -1.0690 -0.8822  0.6472
   95SAPE  C216 9445   0.908  -0.446   5.637 -0.8360 -0.1458 -0.1091
   95SAPE  H16R 9446   1.016  -0.463   5.615 -0.1942  1.8450  1.1901
   95SAPE  H16S 9447   0.907  -0.343   5.678  0.5856  1.2068 -3.1179
   95SAPE  C217 9448   0.826  -0.443   5.500  0.2055  0.4727 -0.4978
   95SAPE  H17R 9449   0.842  -0.542   5.453  1.0969  0.7547 -0.8123
   95SAPE  H17S 9450   0.873  -0.362   5.440 -0.1927  0.8477 -0.3074
   95SAPE  C218 9451   0.669  -0.424   5.516 -0.0174 -0.1300  0.0030
   95SAPE  H18R 9452   0.661  -0.366   5.610  0.7058  2.0488 -1.2242
   95SAPE  H18S 9453   0.619  -0.521   5.538  1.1148 -2.3937 -5.6692
   95SAPE  C219 9454   0.604  -0.349   5.398  0.4002 -0.6635 -0.4195
   95SAPE  H19R 9455   0.628  -0.394   5.299 -0.6519 -0.6613 -0.6843
   95SAPE  H19S 9456   0.651  -0.248   5.400  0.9418 -0.9102 -0.2789
   95SAPE  C220 9457   0.451  -0.346   5.416 -1.2213  0.0259 -0.1772
   95SAPE  H20R 9458   0.420  -0.447   5.452 -0.5064 -0.9827 -2.2505
   95SAPE  H20S 9459   0.399  -0.326   5.320  1.4261  2.0790 -1.3156
   95SAPE  H20T 9460   0.419  -0.269   5.490 -0.7981 -1.8661  2.1129
   95SAPE   C33 9461   0.560   0.339   6.388  1.0267 -0.2522  0.1517
   95SAPE   H3X 9462   0.658   0.391   6.396  0.8330  0.0031  1.0819
   95SAPE   H3Y 9463   0.485   0.415   6.420  2.9451  2.2258 -0.9202
   95SAPE   C34 9464   0.535   0.308   6.242  0.1347 -0.3351  0.3938
   95SAPE   H4X 9465   0.431   0.269   6.236 -0.6412  1.7280 -0.1829
   95SAPE   H4Y 9466   0.602   0.222   6.217  0.8102 -0.1460  1.5094
   95SAPE   C35 9467   0.565   0.421   6.139  0.7754 -0.1931  0.1296
   95SAPE   H5X 9468   0.673   0.438   6.123  0.4468  1.7311 -0.2830
   95SAPE   H5Y 9469   0.521   0.516   6.175 -2.7507 -1.2035 -1.0390
   95SAPE   C36 9470   0.500   0.380   6.012  0.0351 -0.8536 -0.4369
   95SAPE   H6X 9471   0.390   0.382   6.030  0.0683  1.9289 -0.2152
   95SAPE   H6Y 9472   0.520   0.275   5.980  0.8430 -0.8892  0.1631
   95SAPE   C37 9473   0.526   0.479   5.893 -0.1884 -0.4346  0.0851
   95SAPE   H7X 9474   0.636   0.481   5.883 -0.2719  1.2348 -0.8730
   95SAPE   H7Y 9475   0.498   0.583   5.922 -0.2772 -0.6650  0.8530
   95SAPE   C38 9476   0.475   0.427   5.758 -0.1653 -0.3793  0.1245
   95SAPE   H8X 9477   0.365   0.424   5.770 -0.6354  1.9937 -2.5855
   95SAPE   H8Y 9478   0.514   0.325   5.734 -0.7645 -1.0816  1.9620
   95SAPE   C39 9479   0.498   0.507   5.636  0.0506 -0.3726  1.2509
   95SAPE   H9X 9480   0.604   0.488   5.607 -0.5359  0.9123 -2.1936
   95SAPE   H9Y 9481   0.493   0.614   5.667  0.8915 -0.0106  0.2167
   95SAPE  C310 9482   0.407   0.471   5.518 -0.2283 -0.4250 -0.2916
   95SAPE  H10X 9483   0.308   0.516   5.542 -0.5095 -1.4367  0.5091
   95SAPE  H10Y 9484   0.397   0.361   5.515 -0.4996 -0.4847  1.5891
   95SAPE  C311 9485   0.450   0.528   5.384  0.3933 -0.3643 -0.0961
   95SAPE  H11X 9486   0.388   0.483   5.303  0.2044  1.2885 -0.9089
   95SAPE  H11Y 9487   0.554   0.501   5.356 -0.3508 -2.2183 -1.3341
   95SAPE  C312 9488   0.442   0.683   5.373  1.1422  0.2160  0.1170
   95SAPE  H12X 9489   0.498   0.734   5.455 -1.8888  0.2026  2.3458
   95SAPE  H12Y 9490   0.335   0.707   5.390  0.8307 -1.0639  0.0819
   95SAPE  C313 9491   0.490   0.732   5.231 -0.2263  0.0585  0.2722
   95SAPE  H13X 9492   0.593   0.690   5.223 -0.3134 -0.2096  0.5417
   95SAPE  H13Y 9493   0.509   0.841   5.234  1.3874 -0.2155  2.6558
   95SAPE  C314 9494   0.408   0.693   5.107 -0.0492 -0.3872  0.3330
   95SAPE  H14X 9495   0.307   0.732   5.129  1.3807  1.9055  3.6734
   95SAPE  H14Y 9496   0.415   0.584   5.086  0.2157 -0.2879 -0.0913
   95SAPE  C315 9497   0.462   0.760   4.982  0.3383  1.0980 -0.0783
   95SAPE  H15X 9498   0.572   0.742   4.975  0.2452  0.4773  0.0034
   95SAPE  H15Y 9499   0.446   0.868   5.002  0.6787  0.7602  2.2215
   95SAPE  C316 9500   0.394   0.731   4.852  0.8878  0.2247  0.4793
   95SAPE  H16X 9501   0.290   0.701   4.876  1.4278 -0.5637  2.0032
   95SAPE  H16Y 9502   0.429   0.639   4.801  0.3075  1.9717 -3.4297
   95SAPE  C317 9503   0.396   0.843   4.746 -0.4846  0.6300  0.3146
   95SAPE  H17X 9504   0.499   0.876   4.722  0.2352 -1.8774 -0.3706
   95SAPE  H17Y 9505   0.336   0.932   4.775 -1.3028 -0.0916  0.9086
   95SAPE  C318 9506   0.358   0.787   4.613  0.3689 -0.7415  0.7395
   95SAPE  H18X 9507   0.420   0.699   4.585  0.4027 -1.5590  3.1605
   95SAPE  H18Y 9508   0.374   0.870   4.540  0.7894 -0.3462  1.2785
   95SAPE  H18Z 9509   0.250   0.759   4.614  0.2850 -0.8002  4.5338
   96SAPE     N 9510   5.887   3.299   7.155 -0.8880  0.2708 -0.4445
   96SAPE   HN1 9511   5.888   3.218   7.090 -0.4637  1.2609 -1.7109
   96SAPE   HN2 9512   5.982   3.296   7.196 -0.9896  0.0407 -0.2206
   96SAPE   HN3 9513   5.813   3.287   7.228  0.9726  0.8198  1.6354
   96SAPE   C12 9514   5.851   3.424   7.080 -0.0962 -0.1762  0.0311
   96SAPE  H12A 9515   5.756   3.403   7.027  1.2091 -0.9759 -2.1096
   96SAPE  H12B 9516   5.936   3.444   7.011  0.2691 -1.1086  0.1904
   96SAPE   C11 9517   5.831   3.535   7.189  0.7755 -0.5829 -0.7391
   96SAPE  H11A 9518   5.922   3.544   7.252  0.5559 -0.6235 -0.4107
   96SAPE  H11B 9519   5.750   3.507   7.260  2.4014 -2.3070  0.5370
   96SAPE     P 9520   5.666   3.714   7.080 -0.3271 -0.2279 -0.0360
   96SAPE   O13 9521   5.589   3.600   7.034 -0.2532 -0.1055 -0.3304
   96SAPE   O14 9522   5.587   3.803   7.173 -0.0553  0.5109 -0.0356
   96SAPE   O12 9523   5.801   3.664   7.135  0.1690  0.2745  0.1033
   96SAPE   O11 9524   5.701   3.793   6.955  0.5015 -0.0679  0.7030
   96SAPE    C1 9525   5.816   3.876   6.949  0.3923 -1.0824 -0.2435
   96SAPE    HA 9526   5.798   3.980   6.915  2.5459 -1.2722 -2.1972
   96SAPE    HB 9527   5.873   3.881   7.045  1.0195 -1.9927 -0.5581
   96SAPE    C2 9528   5.927   3.838   6.850  0.3883 -0.2291 -0.1149
   96SAPE    HS 9529   5.994   3.923   6.872 -1.4568  0.9371  1.2649
   96SAPE   O21 9530   5.876   3.843   6.720 -0.0385  0.0399 -0.4711
   96SAPE   C21 9531   5.968   3.881   6.630 -0.5464 -0.7095  0.1641
   96SAPE   O22 9532   6.075   3.934   6.647 -0.7378 -0.5159 -0.6295
   96SAPE   C22 9533   5.901   3.884   6.495  0.3203  0.9538 -0.4889
   96SAPE   H2R 9534   5.866   3.781   6.471  2.0650  0.7070 -2.2104
   96SAPE   H2S 9535   5.810   3.942   6.522 -1.6070 -1.7365 -0.8111
   96SAPE    C3 9536   5.995   3.704   6.885 -0.2238  0.1104 -0.1228
   96SAPE    HX 9537   5.931   3.616   6.861  1.0944 -0.7781 -0.4835
   96SAPE    HY 9538   6.008   3.700   6.995  0.4739 -0.4162 -0.2186
   96SAPE   O31 9539   6.122   3.683   6.821 -0.4700  0.1279 -0.1049
   96SAPE   C31 9540   6.222   3.734   6.882 -0.0965  0.4101  1.3664
   96SAPE   O32 9541   6.222   3.802   6.982  0.2547 -0.2929 -0.2754
   96SAPE   C32 9542   6.345   3.701   6.809 -0.3676 -0.2916 -0.3033
   96SAPE   H2X 9543   6.409   3.649   6.883 -1.6370 -1.5536 -0.0516
   96SAPE   H2Y 9544   6.405   3.789   6.776 -1.4590  1.3310  1.7938
   96SAPE   C23 9545   5.988   3.935   6.376  0.5097  0.0821 -0.0566
   96SAPE   H3R 9546   6.074   3.866   6.361  0.2452 -0.2663  0.0096
   96SAPE   H3S 9547   6.033   4.033   6.400 -0.0604  0.7817 -1.7226
   96SAPE   C24 9548   5.905   3.950   6.245 -0.2285  0.1809 -0.0440
   96SAPE   H4R 9549   5.876   3.846   6.220 -1.0605  0.2295  0.6693
   96SAPE   H4S 9550   5.973   3.985   6.165  1.2159 -0.0501  1.0359
   96SAPE   C25 9551   5.790   4.042   6.262  0.1452 -0.2371  0.4217
   96SAPE   H5R 9552   5.802   4.132   6.323 -1.7895 -1.5752  2.9983
   96SAPE   C26 9553   5.661   4.014   6.237 -0.2281  0.1592  0.4328
   96SAPE   H6R 9554   5.591   4.090   6.275 -2.0712 -1.8941  1.3723
   96SAPE   C27 9555   5.615   3.888   6.175 -0.5654 -0.4319  0.3031
   96SAPE   H7R 9556   5.697   3.838   6.120 -0.4020  0.7194 -0.5522
   96SAPE   H7S 9557   5.535   3.908   6.101 -0.8477 -0.3264  0.6344
   96SAPE   C28 9558   5.570   3.798   6.288  0.0366 -0.5342  0.3526
   96SAPE   H8R 9559   5.658   3.756   6.340  1.6970  1.7104 -0.4933
   96SAPE   C29 9560   5.444   3.790   6.329 -0.3802 -1.0534  0.7362
   96SAPE   H9R 9561   5.429   3.725   6.416 -1.1172  2.0912  3.1441
   96SAPE  C210 9562   5.329   3.851   6.262  0.6473 -0.0812 -0.0517
   96SAPE  H10R 9563   5.320   3.826   6.154 -1.0479  2.1972 -0.5239
   96SAPE  H10S 9564   5.342   3.961   6.269 -0.1258  0.0295 -0.2194
   96SAPE  C211 9565   5.192   3.821   6.327  0.4063 -0.1066 -0.4931
   96SAPE  H11R 9566   5.194   3.770   6.424  0.4929 -2.9827 -1.9051
   96SAPE  C212 9567   5.076   3.845   6.273  0.4085 -0.1810  0.9779
   96SAPE  H12R 9568   4.986   3.824   6.333 -0.1876  2.3455  1.0847
   96SAPE  C213 9569   5.045   3.902   6.135 -0.4681 -0.5076 -0.3015
   96SAPE  H13R 9570   5.085   4.004   6.119 -3.7999  0.8944 -0.3032
   96SAPE  H13S 9571   4.937   3.920   6.122  0.1626  3.3297 -1.3942
   96SAPE  C214 9572   5.080   3.810   6.019 -0.6084 -0.0072  0.7122
   96SAPE  H14R 9573   5.107   3.705   6.042 -1.2459 -0.1559  0.7865
   96SAPE  C215 9574   5.083   3.850   5.889 -0.0353  0.1173 -0.2008
   96SAPE  H15R 9575   5.107   3.782   5.807 -2.6471 -2.0293  0.6549
   96SAPE  C216 9576   5.071   3.992   5.842  0.2613  0.3466  0.5436
   96SAPE  H16R 9577   5.023   4.061   5.915  2.0433  0.3988  1.7530
   96SAPE  H16S 9578   5.009   4.007   5.751  0.0121  0.1940  0.6900
   96SAPE  C217 9579   5.217   4.048   5.822 -0.1273  0.3316  0.0413
   96SAPE  H17R 9580   5.282   4.056   5.912 -0.1749 -0.8316  0.1920
   96SAPE  H17S 9581   5.207   4.153   5.787 -0.4949  0.5163  0.6701
   96SAPE  C218 9582   5.299   3.991   5.704 -0.2206  0.2413 -0.1525
   96SAPE  H18R 9583   5.249   4.016   5.608 -1.0710 -2.5691 -0.5093
   96SAPE  H18S 9584   5.304   3.880   5.706 -0.2745  0.1526 -2.3310
   96SAPE  C219 9585   5.445   4.042   5.709  0.1658 -0.3276  0.1247
   96SAPE  H19R 9586   5.506   3.967   5.656  0.8755  0.9045 -0.8637
   96SAPE  H19S 9587   5.482   4.047   5.814  0.8382 -1.1194 -0.0668
   96SAPE  C220 9588   5.464   4.177   5.640 -0.4156 -0.2871 -0.3051
   96SAPE  H20R 9589   5.416   4.198   5.542 -0.5048  1.3660  0.0745
   96SAPE  H20S 9590   5.574   4.178   5.625 -0.0228 -0.1251  2.2660
   96SAPE  H20T 9591   5.437   4.259   5.709  0.6785 -0.0807 -0.0974
   96SAPE   C33 9592   6.334   3.614   6.673  0.0953  0.0168 -0.5353
   96SAPE   H3X 9593   6.281   3.668   6.592  0.6135  0.6099 -0.4847
   96SAPE   H3Y 9594   6.290   3.515   6.699 -2.2174  0.7749 -1.2934
   96SAPE   C34 9595   6.468   3.571   6.615  0.5636 -0.0628  0.5256
   96SAPE   H4X 9596   6.534   3.529   6.693  1.9093 -0.8264 -0.9547
   96SAPE   H4Y 9597   6.516   3.660   6.569  0.0219 -0.4823 -0.9370
   96SAPE   C35 9598   6.442   3.455   6.507 -0.8035  0.0762 -0.1401
   96SAPE   H5X 9599   6.383   3.375   6.556 -1.6611  0.0974 -1.1174
   96SAPE   H5Y 9600   6.549   3.430   6.487 -0.8794  0.1141 -0.5897
   96SAPE   C36 9601   6.376   3.504   6.374  0.1511  0.0602 -0.4779
   96SAPE   H6X 9602   6.285   3.561   6.399 -0.3759 -0.9032 -0.1385
   96SAPE   H6Y 9603   6.330   3.413   6.330  0.3420 -0.0049 -0.5482
   96SAPE   C37 9604   6.465   3.570   6.271 -1.0643 -0.0056  0.3781
   96SAPE   H7X 9605   6.537   3.499   6.224  0.2891  2.2143 -1.0606
   96SAPE   H7Y 9606   6.517   3.656   6.317  0.0131  2.6826 -5.0675
   96SAPE   C38 9607   6.397   3.637   6.153  0.6944 -0.0819 -0.6988
   96SAPE   H8X 9608   6.314   3.572   6.116 -1.2015 -0.1600  3.1872
   96SAPE   H8Y 9609   6.472   3.651   6.072 -0.4553 -3.4204 -2.5663
   96SAPE   C39 9610   6.337   3.783   6.195 -0.6981 -0.1139  0.0948
   96SAPE   H9X 9611   6.427   3.843   6.224 -0.0618 -1.8320  1.8629
   96SAPE   H9Y 9612   6.262   3.788   6.276 -0.5663 -0.9080  0.2690
   96SAPE  C310 9613   6.283   3.855   6.072 -1.1001 -0.2805  0.1052
   96SAPE  H10X 9614   6.256   3.960   6.094  0.0315  0.4008 -1.5857
   96SAPE  H10Y 9615   6.189   3.802   6.044 -1.8846  0.8986  0.4365
   96SAPE  C311 9616   6.373   3.865   5.941 -0.2657 -0.4961  0.6982
   96SAPE  H11X 9617   6.414   3.764   5.922  0.7521 -0.2520  1.5438
   96SAPE  H11Y 9618   6.453   3.937   5.968  0.2440 -1.0084  0.5646
   96SAPE  C312 9619   6.281   3.913   5.828 -0.3530  0.5452  0.7302
   96SAPE  H12X 9620   6.220   4.005   5.843  0.7610  1.1652  1.5988
   96SAPE  H12Y 9621   6.204   3.834   5.813 -0.3346  0.4857  0.9479
   96SAPE  C313 9622   6.362   3.929   5.690  0.1579  0.3503  0.3380
   96SAPE  H13X 9623   6.439   3.849   5.685  1.8144  1.8743  0.6558
   96SAPE  H13Y 9624   6.419   4.024   5.696 -0.8021  0.8940  1.1119
   96SAPE  C314 9625   6.267   3.928   5.569 -0.3187 -0.1355 -0.0697
   96SAPE  H14X 9626   6.192   4.010   5.575  1.4755  1.5678 -0.0532
   96SAPE  H14Y 9627   6.215   3.831   5.552  0.1456 -0.0769 -2.1714
   96SAPE  C315 9628   6.353   3.950   5.440  0.3703 -0.0818 -0.0978
   96SAPE  H15X 9629   6.288   3.927   5.353  0.1062 -1.0745  0.3430
   96SAPE  H15Y 9630   6.430   3.870   5.442 -0.1004 -0.5431 -0.2767
   96SAPE  C316 9631   6.398   4.098   5.418  0.1644  0.3187  0.1772
   96SAPE  H16X 9632   6.482   4.114   5.489 -0.8197  0.6255  1.3201
   96SAPE  H16Y 9633   6.313   4.168   5.430 -1.1452 -0.7162 -2.2367
   96SAPE  C317 9634   6.450   4.122   5.277  0.6060  0.5839  0.4766
   96SAPE  H17X 9635   6.365   4.105   5.207  0.7963  0.2130  0.3303
   96SAPE  H17Y 9636   6.535   4.058   5.246  0.6136  0.6465  0.3660
   96SAPE  C318 9637   6.487   4.270   5.283 -0.1580 -0.9453  0.2414
   96SAPE  H18X 9638   6.508   4.310   5.181 -1.3275  0.4882  0.5349
   96SAPE  H18Y 9639   6.582   4.278   5.340  0.2568  2.6439 -0.7546
   96SAPE  H18Z 9640   6.412   4.335   5.332  1.1212 -0.3444  1.4789
   97SAPE     N 9641   5.745   6.049   7.083  0.3268 -0.7846  0.0445
   97SAPE   HN1 9642   5.712   6.117   7.011  0.3986  1.7943  2.2830
   97SAPE   HN2 9643   5.740   5.951   7.048 -1.4714 -1.4641  1.9425
   97SAPE   HN3 9644   5.699   6.052   7.177  0.8466  0.2128  0.2728
   97SAPE   C12 9645   5.891   6.073   7.116  0.0079 -0.6847 -0.7043
   97SAPE  H12A 9646   5.943   6.049   7.021  1.2382  1.4022 -0.6277
   97SAPE  H12B 9647   5.920   5.999   7.194  0.2551  1.7001  1.5919
   97SAPE   C11 9648   5.907   6.218   7.163  0.2029 -0.1601 -0.5687
   97SAPE  H11A 9649   5.911   6.286   7.075  0.4679  2.6599  1.4768
   97SAPE  H11B 9650   6.010   6.213   7.206 -0.0795 -0.3391  0.0964
   97SAPE     P 9651   5.733   6.390   7.264  0.6494 -0.1465  0.2290
   97SAPE   O13 9652   5.625   6.376   7.365 -0.3704  0.0642  0.4384
   97SAPE   O14 9653   5.815   6.512   7.266 -0.6328  0.6153 -0.3145
   97SAPE   O12 9654   5.831   6.264   7.270 -0.2294  0.1334 -0.0468
   97SAPE   O11 9655   5.678   6.362   7.113 -0.2283 -0.9696 -0.8915
   97SAPE    C1 9656   5.568   6.441   7.059  0.4680  0.0848  0.4137
   97SAPE    HA 9657   5.482   6.446   7.129  0.2315 -1.6011  0.2673
   97SAPE    HB 9658   5.607   6.545   7.056 -2.0952  1.1016 -1.1199
   97SAPE    C2 9659   5.520   6.402   6.913  0.2517 -0.6066  0.3263
   97SAPE    HS 9660   5.479   6.299   6.923 -2.5432  0.5511  2.1776
   97SAPE   O21 9661   5.623   6.421   6.809 -0.4507 -0.1616  0.0810
   97SAPE   C21 9662   5.697   6.306   6.791 -0.2154 -0.6754  0.0973
   97SAPE   O22 9663   5.679   6.201   6.853  0.6075 -0.9264  0.1505
   97SAPE   C22 9664   5.806   6.327   6.687  0.1849  0.4661 -0.2516
   97SAPE   H2R 9665   5.891   6.366   6.746 -1.5255  2.0814  1.2858
   97SAPE   H2S 9666   5.838   6.231   6.641 -0.3803  0.0134  0.2782
   97SAPE    C3 9667   5.399   6.491   6.874  0.0035 -0.6883  0.2707
   97SAPE    HX 9668   5.410   6.601   6.886 -0.9111 -0.5615  0.0644
   97SAPE    HY 9669   5.314   6.458   6.938  0.6175 -3.1351 -0.0773
   97SAPE   O31 9670   5.372   6.466   6.741 -0.0882  0.3321  0.0575
   97SAPE   C31 9671   5.263   6.401   6.701  0.6090 -0.1317 -0.1659
   97SAPE   O32 9672   5.171   6.364   6.777  0.0677 -0.2570  0.5346
   97SAPE   C32 9673   5.275   6.358   6.558  0.6239  0.0754 -0.2424
   97SAPE   H2X 9674   5.300   6.250   6.555 -1.0264 -0.3458  0.2942
   97SAPE   H2Y 9675   5.355   6.420   6.512 -1.4326  2.0083 -1.4272
   97SAPE   C23 9676   5.762   6.441   6.583  0.1223  0.1883  0.3467
   97SAPE   H3R 9677   5.848   6.467   6.517 -0.3729  1.6446  0.2328
   97SAPE   H3S 9678   5.729   6.531   6.639 -2.0420  0.2389 -0.9064
   97SAPE   C24 9679   5.655   6.394   6.481 -0.2283  0.1063 -0.0018
   97SAPE   H4R 9680   5.575   6.340   6.536  1.3124 -1.5819  0.6937
   97SAPE   H4S 9681   5.715   6.318   6.427  0.6318  0.4466  0.4501
   97SAPE   C25 9682   5.599   6.507   6.398  0.1616  0.2738 -0.0299
   97SAPE   H5R 9683   5.527   6.574   6.448 -0.1167  0.6879 -0.9488
   97SAPE   C26 9684   5.613   6.535   6.268 -0.4224  0.5999 -0.6183
   97SAPE   H6R 9685   5.566   6.629   6.237 -0.1551  0.9051 -0.1231
   97SAPE   C27 9686   5.694   6.453   6.165  0.2118 -0.4288  0.6779
   97SAPE   H7R 9687   5.633   6.470   6.074  0.3211  2.9650  1.0878
   97SAPE   H7S 9688   5.699   6.349   6.202  1.7839 -0.8934 -0.6909
   97SAPE   C28 9689   5.830   6.510   6.144  0.0588  0.1927 -0.3872
   97SAPE   H8R 9690   5.900   6.506   6.229 -0.0681  0.3252 -0.2760
   97SAPE   C29 9691   5.879   6.543   6.023 -0.1492 -0.1343  0.5294
   97SAPE   H9R 9692   5.986   6.569   6.013 -0.1376 -0.3902 -0.0388
   97SAPE  C210 9693   5.801   6.539   5.892  0.0429 -0.1813 -0.3857
   97SAPE  H10R 9694   5.755   6.438   5.893  1.2965 -0.7808  1.9185
   97SAPE  H10S 9695   5.880   6.535   5.814  0.0067 -2.2580 -0.3732
   97SAPE  C211 9696   5.707   6.658   5.866 -0.0690 -0.8553  0.5415
   97SAPE  H11R 9697   5.688   6.715   5.958  2.1444 -0.7848  1.0023
   97SAPE  C212 9698   5.648   6.679   5.750 -0.0039  0.3583 -0.2004
   97SAPE  H12R 9699   5.562   6.749   5.752 -0.7207 -0.4917 -0.6025
   97SAPE  C213 9700   5.654   6.595   5.624  0.1089  0.0446 -0.2295
   97SAPE  H13R 9701   5.713   6.506   5.655 -1.7913 -0.7113  1.5407
   97SAPE  H13S 9702   5.706   6.661   5.552 -2.1304  0.1990 -1.8299
   97SAPE  C214 9703   5.521   6.556   5.562  0.1822 -0.2045 -0.0942
   97SAPE  H14R 9704   5.508   6.612   5.468  1.8875  2.3115  1.0550
   97SAPE  C215 9705   5.428   6.469   5.611  0.3786 -0.1477  0.0673
   97SAPE  H15R 9706   5.332   6.455   5.557 -0.0515  0.2409  0.7275
   97SAPE  C216 9707   5.440   6.402   5.741  0.1980  0.0191 -0.0461
   97SAPE  H16R 9708   5.542   6.405   5.785  0.3753  0.8910 -0.4922
   97SAPE  H16S 9709   5.408   6.297   5.758  0.5194 -0.1212 -0.2831
   97SAPE  C217 9710   5.346   6.491   5.828 -0.1443  0.0040 -0.0252
   97SAPE  H17R 9711   5.238   6.479   5.807 -0.8077  2.8712  1.2676
   97SAPE  H17S 9712   5.361   6.601   5.819 -1.1925  0.1176 -0.4936
   97SAPE  C218 9713   5.364   6.475   5.978  0.2244  0.6840 -0.1167
   97SAPE  H18R 9714   5.281   6.528   6.030 -1.1455 -2.4815  1.1904
   97SAPE  H18S 9715   5.460   6.519   6.011  0.9189 -2.3258  2.3134
   97SAPE  C219 9716   5.360   6.326   6.015  0.4955 -0.1264  0.2499
   97SAPE  H19R 9717   5.452   6.279   5.974 -0.2038  0.7117 -2.4863
   97SAPE  H19S 9718   5.269   6.290   5.963  0.2017  1.3349 -0.2925
   97SAPE  C220 9719   5.363   6.297   6.163  0.2321 -0.1410 -0.4931
   97SAPE  H20R 9720   5.455   6.350   6.196  0.5321 -0.2429 -1.1605
   97SAPE  H20S 9721   5.375   6.187   6.172 -0.9700 -0.4338 -2.0125
   97SAPE  H20T 9722   5.275   6.327   6.224  0.8269 -0.7017  0.6701
   97SAPE   C33 9723   5.144   6.370   6.477  1.1314 -0.9751 -0.3328
   97SAPE   H3X 9724   5.063   6.326   6.539  0.9006  1.5916  1.3291
   97SAPE   H3Y 9725   5.156   6.302   6.389  2.5287 -1.2104  0.0229
   97SAPE   C34 9726   5.108   6.512   6.431 -0.1774 -0.3839  0.9084
   97SAPE   H4X 9727   5.038   6.557   6.504 -4.0093  0.1189 -2.7403
   97SAPE   H4Y 9728   5.057   6.512   6.333  0.4243  0.9145  0.5795
   97SAPE   C35 9729   5.224   6.607   6.420  0.4486 -0.2500  0.5743
   97SAPE   H5X 9730   5.309   6.562   6.363  0.5778  2.6150 -1.7232
   97SAPE   H5Y 9731   5.259   6.647   6.517  0.8214  2.4580 -0.5899
   97SAPE   C36 9732   5.194   6.748   6.349 -0.0446  0.4857  0.1086
   97SAPE   H6X 9733   5.174   6.823   6.429  0.7418  0.6365  0.1734
   97SAPE   H6Y 9734   5.112   6.736   6.276  1.6770  1.3830 -2.1078
   97SAPE   C37 9735   5.320   6.805   6.277  0.8747  0.8186  0.4795
   97SAPE   H7X 9736   5.341   6.723   6.205 -2.1224 -0.4312  0.8763
   97SAPE   H7Y 9737   5.405   6.813   6.348  0.3179  0.1045  1.2413
   97SAPE   C38 9738   5.293   6.932   6.189 -0.0467 -0.1563 -0.0387
   97SAPE   H8X 9739   5.328   7.025   6.237  0.3177 -1.0970  1.5745
   97SAPE   H8Y 9740   5.182   6.936   6.193  0.0118  0.4081  1.8284
   97SAPE   C39 9741   5.332   6.918   6.044 -0.5244 -0.4985  0.2064
   97SAPE   H9X 9742   5.272   6.836   5.998 -2.0563  2.5317 -3.8335
   97SAPE   H9Y 9743   5.440   6.890   6.038  0.0895  1.2975  1.9313
   97SAPE  C310 9744   5.318   7.051   5.967 -0.3362 -0.0775  0.7577
   97SAPE  H10X 9745   5.380   7.130   6.014  0.4099 -0.1494 -0.0985
   97SAPE  H10Y 9746   5.215   7.093   5.977 -0.0238  0.9667 -0.2412
   97SAPE  C311 9747   5.353   7.037   5.812  0.2010  0.5915 -0.3322
   97SAPE  H11X 9748   5.317   6.943   5.766  0.8150 -0.1810  0.7390
   97SAPE  H11Y 9749   5.464   7.032   5.814  0.1565 -0.1429  0.7819
   97SAPE  C312 9750   5.317   7.149   5.717 -0.1673 -0.2788  0.0142
   97SAPE  H12X 9751   5.338   7.251   5.756  0.1716 -0.6669  0.8750
   97SAPE  H12Y 9752   5.206   7.138   5.711  0.1616 -4.1687 -3.6924
   97SAPE  C313 9753   5.368   7.135   5.570 -0.6127 -0.6422  0.2813
   97SAPE  H13X 9754   5.299   7.062   5.523  1.5298 -2.8799  0.4067
   97SAPE  H13Y 9755   5.474   7.101   5.577  0.2142  1.8234  1.1011
   97SAPE  C314 9756   5.367   7.271   5.496 -0.8130  0.3025 -0.4828
   97SAPE  H14X 9757   5.428   7.347   5.548 -2.2210  0.4722  0.9808
   97SAPE  H14Y 9758   5.262   7.308   5.504 -1.4135 -1.3705 -0.1607
   97SAPE  C315 9759   5.408   7.259   5.353 -0.4038  0.7672  0.9717
   97SAPE  H15X 9760   5.506   7.209   5.337 -0.3124  1.8864 -3.1314
   97SAPE  H15Y 9761   5.400   7.351   5.291  0.6718  0.2743  0.0622
   97SAPE  C316 9762   5.314   7.167   5.271  0.3817  0.4362  0.5327
   97SAPE  H16X 9763   5.209   7.205   5.275  0.6359  1.4865 -1.4450
   97SAPE  H16Y 9764   5.316   7.063   5.310  0.4368  0.4518  0.5722
   97SAPE  C317 9765   5.357   7.167   5.125 -0.0511  1.1970  0.1981
   97SAPE  H17X 9766   5.390   7.260   5.074 -1.1514  1.8377  0.6356
   97SAPE  H17Y 9767   5.272   7.134   5.061 -2.7572  2.6813  2.7802
   97SAPE  C318 9768   5.481   7.076   5.092  0.1963 -0.0236 -0.6877
   97SAPE  H18X 9769   5.452   6.970   5.080  2.0160 -0.6230 -0.1140
   97SAPE  H18Y 9770   5.562   7.098   5.164  0.4652  1.2123 -1.3224
   97SAPE  H18Z 9771   5.508   7.111   4.990  1.3862  0.7297 -0.1387
   98SAPE     N 9772   5.167   4.852   7.191 -0.0403  0.1655  0.2896
   98SAPE   HN1 9773   5.122   4.781   7.252 -1.2557  1.9126  1.5264
   98SAPE   HN2 9774   5.116   4.849   7.100  1.2666  1.2125 -0.5154
   98SAPE   HN3 9775   5.267   4.831   7.174 -0.9007 -1.0473 -5.6908
   98SAPE   C12 9776   5.149   4.990   7.256 -0.0793  0.2913  0.1648
   98SAPE  H12A 9777   5.208   4.986   7.350 -3.0549  1.2422  2.2310
   98SAPE  H12B 9778   5.043   4.995   7.289 -0.3223  0.9911 -0.6952
   98SAPE   C11 9779   5.187   5.102   7.155  0.3571  0.7877 -0.2529
   98SAPE  H11A 9780   5.201   5.199   7.207 -0.5314  0.7871  0.0015
   98SAPE  H11B 9781   5.102   5.120   7.086  1.3287 -0.3988 -1.8401
   98SAPE     P 9782   5.390   5.176   7.000 -0.2453  0.0297 -0.3916
   98SAPE   O13 9783   5.407   5.300   7.077 -0.1106 -0.2834  0.3704
   98SAPE   O14 9784   5.519   5.120   6.952 -0.0068  0.3756  0.3189
   98SAPE   O12 9785   5.310   5.066   7.085 -0.5576  0.1351  0.1358
   98SAPE   O11 9786   5.299   5.199   6.886 -0.1513 -0.2589  1.0821
   98SAPE    C1 9787   5.235   5.088   6.803 -0.2848 -0.0707 -0.0852
   98SAPE    HA 9788   5.312   5.017   6.766 -0.6343 -0.1339 -0.7077
   98SAPE    HB 9789   5.164   5.029   6.865  2.6744 -1.8497  1.8946
   98SAPE    C2 9790   5.152   5.141   6.685 -0.0116  0.8558  0.3068
   98SAPE    HS 9791   5.088   5.223   6.725 -0.1352 -0.6099  3.3939
   98SAPE   O21 9792   5.077   5.042   6.616  0.4279 -0.0201  0.5699
   98SAPE   C21 9793   4.952   5.024   6.645 -0.0938 -0.3230  0.3788
   98SAPE   O22 9794   4.900   5.085   6.737  0.4882  0.1574  0.6830
   98SAPE   C22 9795   4.894   4.906   6.556 -0.4057 -0.1122 -0.7849
   98SAPE   H2R 9796   4.953   4.897   6.463 -1.4581 -0.2820 -1.4528
   98SAPE   H2S 9797   4.896   4.813   6.617 -1.0892  0.5563  0.3052
   98SAPE    C3 9798   5.252   5.205   6.579 -0.0721  0.7067 -0.0740
   98SAPE    HX 9799   5.316   5.121   6.545  0.9612  0.6513  1.8783
   98SAPE    HY 9800   5.318   5.266   6.645 -0.8682 -0.5046  1.9212
   98SAPE   O31 9801   5.184   5.281   6.479 -0.0387 -0.6070  0.4439
   98SAPE   C31 9802   5.263   5.376   6.412  0.2166  0.0833 -0.4536
   98SAPE   O32 9803   5.384   5.377   6.418  0.1107 -0.6152  0.2387
   98SAPE   C32 9804   5.184   5.483   6.342 -0.1238  0.1916  0.3791
   98SAPE   H2X 9805   5.165   5.566   6.413 -1.1545 -1.7724  2.5539
   98SAPE   H2Y 9806   5.087   5.433   6.318 -0.1545  0.5959 -0.3510
   98SAPE   C23 9807   4.743   4.912   6.524 -0.0580  0.2238  0.9562
   98SAPE   H3R 9808   4.686   4.950   6.611 -0.5753 -0.5147  0.9514
   98SAPE   H3S 9809   4.711   4.808   6.504 -0.1444  0.4101  0.0469
   98SAPE   C24 9810   4.711   4.997   6.402  0.0681  0.4812  0.1193
   98SAPE   H4R 9811   4.719   5.107   6.411 -0.0730  0.6155 -1.1465
   98SAPE   H4S 9812   4.605   4.972   6.384  0.5267 -1.5173 -0.0901
   98SAPE   C25 9813   4.785   4.950   6.275 -0.1706 -0.5353 -0.0276
   98SAPE   H5R 9814   4.855   5.029   6.244 -0.6520  0.2958  0.9617
   98SAPE   C26 9815   4.748   4.850   6.191 -0.6991 -0.1723 -0.9292
   98SAPE   H6R 9816   4.808   4.835   6.100  1.1466 -3.4649  0.6652
   98SAPE   C27 9817   4.649   4.746   6.229  0.0880 -0.7711 -0.0881
   98SAPE   H7R 9818   4.555   4.746   6.169  0.6916  1.1654 -1.1345
   98SAPE   H7S 9819   4.602   4.771   6.327  1.2744 -1.8160  0.7713
   98SAPE   C28 9820   4.707   4.612   6.229 -0.1907  0.0127 -0.4281
   98SAPE   H8R 9821   4.773   4.592   6.315 -0.0430  1.0300 -0.2921
   98SAPE   C29 9822   4.698   4.530   6.124 -0.1279  0.4718 -0.5139
   98SAPE   H9R 9823   4.737   4.429   6.141 -1.4452 -0.0700 -0.6189
   98SAPE  C210 9824   4.635   4.553   5.989 -0.3533 -0.0486  0.0397
   98SAPE  H10R 9825   4.713   4.580   5.916 -0.4908 -1.9174 -0.8557
   98SAPE  H10S 9826   4.565   4.640   5.989  0.5673  0.7378 -1.7363
   98SAPE  C211 9827   4.546   4.448   5.952 -0.4830 -0.3037 -0.1912
   98SAPE  H11R 9828   4.495   4.405   6.039 -2.1135  0.6333 -0.6353
   98SAPE  C212 9829   4.520   4.399   5.830  0.0792 -0.7255 -0.5883
   98SAPE  H12R 9830   4.425   4.345   5.827  0.0452 -0.6973 -0.1313
   98SAPE  C213 9831   4.568   4.432   5.689 -0.0629 -0.2888  0.6870
   98SAPE  H13R 9832   4.551   4.354   5.613  0.8332 -1.4210  1.6095
   98SAPE  H13S 9833   4.678   4.436   5.700 -0.0427 -0.0150  0.3891
   98SAPE  C214 9834   4.518   4.557   5.639  0.9171  0.2533  0.2845
   98SAPE  H14R 9835   4.416   4.575   5.676  0.5153 -2.1961  0.5266
   98SAPE  C215 9836   4.572   4.644   5.556  0.0282  0.0200  0.3014
   98SAPE  H15R 9837   4.523   4.733   5.514  0.5715  0.3918  0.4424
   98SAPE  C216 9838   4.710   4.624   5.489  0.3417 -0.0462 -0.2126
   98SAPE  H16R 9839   4.710   4.673   5.389  0.9021 -1.5364 -0.9685
   98SAPE  H16S 9840   4.739   4.517   5.480  1.4388  0.1481  0.8058
   98SAPE  C217 9841   4.811   4.679   5.590  0.7191 -0.1109  0.1207
   98SAPE  H17R 9842   4.909   4.669   5.537  1.3566  0.7239  1.0868
   98SAPE  H17S 9843   4.805   4.616   5.681 -1.3801  0.4321  0.4071
   98SAPE  C218 9844   4.797   4.827   5.634  0.4968 -0.0653  0.0125
   98SAPE  H18R 9845   4.714   4.843   5.705  2.5445  2.2462  2.0961
   98SAPE  H18S 9846   4.787   4.891   5.544  1.0065 -0.7134 -0.5172
   98SAPE  C219 9847   4.926   4.857   5.704  0.4578  0.3818  0.0333
   98SAPE  H19R 9848   5.012   4.862   5.633  0.2609 -1.1350 -0.3405
   98SAPE  H19S 9849   4.953   4.776   5.775  0.7198  1.5524  1.3129
   98SAPE  C220 9850   4.918   4.994   5.775 -1.6389  0.2014  0.8850
   98SAPE  H20R 9851   5.001   5.006   5.847  1.1975 -1.3575 -1.9153
   98SAPE  H20S 9852   4.819   5.003   5.825 -3.6164  1.9889 -2.8334
   98SAPE  H20T 9853   4.924   5.077   5.701 -1.2193  1.6539  2.4819
   98SAPE   C33 9854   5.246   5.532   6.213 -0.0575 -0.0831  0.1435
   98SAPE   H3X 9855   5.351   5.561   6.237 -0.0680 -0.5545  0.7991
   98SAPE   H3Y 9856   5.197   5.628   6.186 -0.6360  0.2541  2.2149
   98SAPE   C34 9857   5.249   5.425   6.106 -0.0314  0.9801  0.3791
   98SAPE   H4X 9858   5.161   5.360   6.128  0.8302 -0.7529 -1.0302
   98SAPE   H4Y 9859   5.333   5.352   6.102 -2.1283 -1.5576 -2.4846
   98SAPE   C35 9860   5.228   5.484   5.959  0.1224  0.4409  0.7479
   98SAPE   H5X 9861   5.262   5.589   5.945  0.0126  0.2191 -1.5157
   98SAPE   H5Y 9862   5.120   5.468   5.940  0.1251  0.7874  0.4165
   98SAPE   C36 9863   5.307   5.401   5.863 -0.2069 -0.4021 -0.0828
   98SAPE   H6X 9864   5.412   5.408   5.896 -0.2102  0.4583 -0.2419
   98SAPE   H6Y 9865   5.306   5.434   5.757  0.2665 -0.8060 -0.2136
   98SAPE   C37 9866   5.270   5.254   5.857 -0.2291  0.7329 -0.6588
   98SAPE   H7X 9867   5.162   5.237   5.837 -0.2833  0.0644  0.1054
   98SAPE   H7Y 9868   5.278   5.215   5.961  0.7789 -2.0287 -1.6628
   98SAPE   C38 9869   5.365   5.170   5.773  0.0484 -0.0902  0.2165
   98SAPE   H8X 9870   5.355   5.064   5.807  2.2174 -1.3691 -2.6693
   98SAPE   H8Y 9871   5.470   5.200   5.791  0.0708  3.3481 -4.0573
   98SAPE   C39 9872   5.358   5.164   5.617  0.3829 -0.3068 -0.2357
   98SAPE   H9X 9873   5.441   5.106   5.570 -0.5341  0.2758 -2.7721
   98SAPE   H9Y 9874   5.366   5.271   5.588 -1.7754 -0.2593 -0.8141
   98SAPE  C310 9875   5.224   5.103   5.578 -0.4463 -0.0580 -0.4307
   98SAPE  H10X 9876   5.141   5.163   5.621  1.0034  0.6809  1.4610
   98SAPE  H10Y 9877   5.223   4.994   5.603  1.3900 -0.3204 -1.3252
   98SAPE  C311 9878   5.222   5.083   5.427 -0.3977  0.1757 -0.9857
   98SAPE  H11X 9879   5.303   5.008   5.412 -1.2775 -2.1255  3.8642
   98SAPE  H11Y 9880   5.234   5.175   5.366  0.9994  0.2436 -0.6282
   98SAPE  C312 9881   5.091   5.026   5.378  0.7751 -0.5725  1.0825
   98SAPE  H12X 9882   5.007   5.097   5.392  2.2717  1.2433  1.1757
   98SAPE  H12Y 9883   5.068   4.924   5.416  0.6166 -1.7502 -1.9017
   98SAPE  C313 9884   5.084   5.006   5.216  0.4522  0.2315  0.2087
   98SAPE  H13X 9885   5.160   4.934   5.178 -1.4809  0.0279 -3.7926
   98SAPE  H13Y 9886   5.103   5.111   5.184 -3.4213  1.6786  2.0824
   98SAPE  C314 9887   4.949   4.965   5.158 -0.0772  1.0668  0.1030
   98SAPE  H14X 9888   4.957   4.952   5.048 -0.1103  0.4986  0.1647
   98SAPE  H14Y 9889   4.873   5.044   5.175 -0.4495  0.7685 -0.1562
   98SAPE  C315 9890   4.889   4.838   5.208 -0.7800  0.6547  0.1851
   98SAPE  H15X 9891   4.790   4.826   5.159 -1.5638 -1.0736  2.0467
   98SAPE  H15Y 9892   4.868   4.833   5.317 -3.0075  1.1813 -0.1630
   98SAPE  C316 9893   4.975   4.720   5.158 -0.6499 -0.3406 -0.0393
   98SAPE  H16X 9894   5.070   4.727   5.215  0.2495  2.3063 -1.6623
   98SAPE  H16Y 9895   4.998   4.739   5.051  0.3551  0.0884  0.2383
   98SAPE  C317 9896   4.914   4.587   5.165 -0.7272  0.7820 -0.8498
   98SAPE  H17X 9897   4.813   4.594   5.119  0.1369  0.2033 -2.9291
   98SAPE  H17Y 9898   4.901   4.550   5.269  0.9027  0.3167 -0.7857
   98SAPE  C318 9899   4.992   4.482   5.091 -0.2537  0.9048 -0.1958
   98SAPE  H18X 9900   4.940   4.383   5.084  0.0180  0.7059  0.5490
   98SAPE  H18Y 9901   5.098   4.489   5.120 -0.4549 -0.7941  1.0741
   98SAPE  H18Z 9902   4.991   4.517   4.985  1.4151 -0.0728 -0.5627
   99SAPE     N 9903   6.364   4.778   7.098 -0.1140 -0.0140 -0.3462
   99SAPE   HN1 9904   6.334   4.698   7.039 -0.6961 -2.2002  2.6910
   99SAPE   HN2 9905   6.310   4.771   7.186 -2.2053 -1.2735 -1.6262
   99SAPE   HN3 9906   6.333   4.866   7.051  0.5859 -1.1375 -3.1489
   99SAPE   C12 9907   6.509   4.786   7.131 -0.6025 -0.2663 -0.4798
   99SAPE  H12A 9908   6.568   4.800   7.038  0.2161 -0.6252 -0.0238
   99SAPE  H12B 9909   6.545   4.696   7.184  0.8783  1.6388  1.9731
   99SAPE   C11 9910   6.521   4.896   7.238  0.3256  0.3890  0.5479
   99SAPE  H11A 9911   6.630   4.892   7.260  0.5141  0.7323 -0.2680
   99SAPE  H11B 9912   6.455   4.866   7.322  1.5217 -0.8283  1.1062
   99SAPE     P 9913   6.591   5.127   7.120  0.0824  0.1993 -0.1263
   99SAPE   O13 9914   6.523   5.186   7.003 -0.6960  0.3866 -0.0026
   99SAPE   O14 9915   6.646   5.218   7.222  0.1169 -0.1210 -0.5485
   99SAPE   O12 9916   6.490   5.025   7.180 -0.1932 -0.0584 -0.3701
   99SAPE   O11 9917   6.710   5.042   7.074 -0.2959  0.1408  0.3482
   99SAPE    C1 9918   6.825   5.094   7.024  0.4887 -0.4631  0.1664
   99SAPE    HA 9919   6.820   5.203   7.003  1.8525 -0.8461 -2.4707
   99SAPE    HB 9920   6.911   5.069   7.090  1.3629  0.8043 -0.4636
   99SAPE    C2 9921   6.861   5.034   6.880 -0.4857 -0.1081  1.1056
   99SAPE    HS 9922   6.929   5.112   6.841 -2.5512  1.0775 -0.3134
   99SAPE   O21 9923   6.747   5.006   6.793 -0.4098 -0.4352  0.1747
   99SAPE   C21 9924   6.695   5.118   6.746  0.0886 -0.8747 -0.0653
   99SAPE   O22 9925   6.735   5.233   6.772 -0.4288 -0.1952 -0.1970
   99SAPE   C22 9926   6.558   5.090   6.684 -0.5481  0.0527  0.5588
   99SAPE   H2R 9927   6.529   5.007   6.752  1.4041 -0.7003  0.5640
   99SAPE   H2S 9928   6.492   5.175   6.709  0.1927  0.0585  2.7524
   99SAPE    C3 9929   6.938   4.903   6.903 -0.5197  0.5282 -0.8288
   99SAPE    HX 9930   6.892   4.848   6.987  0.5693  2.1111  0.8874
   99SAPE    HY 9931   7.041   4.937   6.926  0.2497  0.1691 -3.4198
   99SAPE   O31 9932   6.943   4.814   6.790  0.5090 -0.0773  0.9759
   99SAPE   C31 9933   7.018   4.861   6.689  0.3093  0.2153  0.4155
   99SAPE   O32 9934   7.094   4.954   6.693 -0.4014  0.4671 -0.3551
   99SAPE   C32 9935   6.986   4.786   6.560 -0.4370  0.2945  0.2678
   99SAPE   H2X 9936   6.875   4.791   6.550 -0.3528  0.4882 -0.6838
   99SAPE   H2Y 9937   7.014   4.679   6.572 -0.7799  0.3982  2.4435
   99SAPE   C23 9938   6.559   5.037   6.537 -0.5078  0.0625 -1.0098
   99SAPE   H3R 9939   6.464   4.982   6.519  0.0861 -1.3358 -0.0741
   99SAPE   H3S 9940   6.640   4.964   6.515 -0.1094  0.3295 -0.4586
   99SAPE   C24 9941   6.577   5.155   6.443 -0.0422  0.3589  0.1935
   99SAPE   H4R 9942   6.524   5.245   6.482  1.9254  0.2924  3.4279
   99SAPE   H4S 9943   6.531   5.109   6.353  2.3815  0.1046 -0.9899
   99SAPE   C25 9944   6.714   5.202   6.421 -0.1415 -0.1428  0.0743
   99SAPE   H5R 9945   6.773   5.223   6.512  2.5391  0.3640 -1.6593
   99SAPE   C26 9946   6.793   5.179   6.317  0.7709 -0.2243 -0.2273
   99SAPE   H6R 9947   6.898   5.209   6.324  0.3631  1.1707  0.2536
   99SAPE   C27 9948   6.745   5.136   6.178  0.2933  0.7308 -0.6142
   99SAPE   H7R 9949   6.692   5.222   6.132  1.2224  0.9570 -1.2605
   99SAPE   H7S 9950   6.671   5.054   6.191  0.4631  0.7141  0.3012
   99SAPE   C28 9951   6.853   5.084   6.089 -0.2915 -0.0431 -0.7552
   99SAPE   H8R 9952   6.929   5.032   6.149 -0.7294 -0.6704 -0.7340
   99SAPE   C29 9953   6.869   5.084   5.955 -0.5466  0.6037  0.0324
   99SAPE   H9R 9954   6.966   5.041   5.924 -0.4771  1.9796 -1.8595
   99SAPE  C210 9955   6.763   5.136   5.856 -0.4415 -0.2895  1.1033
   99SAPE  H10R 9956   6.674   5.146   5.923  0.7302 -0.4664  2.7431
   99SAPE  H10S 9957   6.744   5.059   5.778  0.3821  0.2885  0.3119
   99SAPE  C211 9958   6.811   5.268   5.794 -0.2805 -0.1149 -0.0163
   99SAPE  H11R 9959   6.812   5.355   5.862  0.5892  1.3344 -1.8090
   99SAPE  C212 9960   6.878   5.274   5.680  0.7835  0.3603  0.3443
   99SAPE  H12R 9961   6.919   5.368   5.642 -1.7947  0.3281 -3.0624
   99SAPE  C213 9962   6.899   5.166   5.584  0.2762  0.3513 -0.0758
   99SAPE  H13R 9963   6.797   5.135   5.553  0.3567 -0.7901  0.7218
   99SAPE  H13S 9964   6.945   5.077   5.633 -0.1478 -0.4868 -1.1557
   99SAPE  C214 9965   6.978   5.206   5.461 -0.6032  0.7319 -0.3066
   99SAPE  H14R 9966   7.077   5.241   5.492 -0.8147  0.6563  0.4796
   99SAPE  C215 9967   6.939   5.223   5.333  1.0544 -0.1389 -0.3295
   99SAPE  H15R 9968   7.016   5.241   5.256  0.6222  1.0627 -0.4959
   99SAPE  C216 9969   6.807   5.195   5.272  0.3781 -0.5744  0.4203
   99SAPE  H16R 9970   6.815   5.208   5.162 -1.3266 -2.6227 -0.0139
   99SAPE  H16S 9971   6.732   5.266   5.313  2.9232  1.8360  1.2045
   99SAPE  C217 9972   6.772   5.055   5.310  0.1268  0.2140 -0.3946
   99SAPE  H17R 9973   6.712   5.057   5.403  1.9588  0.6098  0.8203
   99SAPE  H17S 9974   6.855   4.983   5.328 -0.4316 -0.1530  0.8254
   99SAPE  C218 9975   6.685   4.985   5.196  0.3406  0.4431  0.5476
   99SAPE  H18R 9976   6.741   4.970   5.101 -0.0434 -0.3386  0.4360
   99SAPE  H18S 9977   6.596   5.046   5.169  0.5168  0.1168 -0.8510
   99SAPE  C219 9978   6.625   4.862   5.242 -0.3050 -0.0015  0.1681
   99SAPE  H19R 9979   6.559   4.875   5.330  1.7733 -0.2571  1.8447
   99SAPE  H19S 9980   6.703   4.786   5.262 -1.5203 -2.3463 -3.0884
   99SAPE  C220 9981   6.543   4.785   5.139  0.9399 -0.4209  0.3518
   99SAPE  H20R 9982   6.467   4.849   5.089  0.1772 -0.8634  0.9108
   99SAPE  H20S 9983   6.485   4.705   5.190  2.2613  0.2636  3.1119
   99SAPE  H20T 9984   6.612   4.748   5.060 -1.2232 -0.8537 -1.4734
   99SAPE   C33 9985   7.065   4.842   6.438 -0.3004 -0.5462  0.4905
   99SAPE   H3X 9986   7.174   4.836   6.458  0.1330  0.9496 -1.1583
   99SAPE   H3Y 9987   7.045   4.950   6.417 -1.4056 -1.1584 -2.1074
   99SAPE   C34 9988   7.044   4.765   6.312 -0.2100  0.3247 -0.1343
   99SAPE   H4X 9989   6.940   4.780   6.275 -0.0899  0.3945 -0.4441
   99SAPE   H4Y 9990   7.048   4.654   6.318 -0.0573  0.3253 -0.2348
   99SAPE   C35 9991   7.139   4.800   6.193  0.6740  0.0637 -0.5564
   99SAPE   H5X 9992   7.246   4.777   6.213  0.2065 -0.7646  1.2100
   99SAPE   H5Y 9993   7.118   4.907   6.172  1.9209  0.3991 -0.1806
   99SAPE   C36 9994   7.105   4.728   6.058  0.3027  0.3632 -0.1255
   99SAPE   H6X 9995   7.017   4.782   6.018  1.4374  0.6474 -2.4281
   99SAPE   H6Y 9996   7.086   4.622   6.086 -1.3972  0.7748  0.3526
   99SAPE   C37 9997   7.215   4.738   5.958  0.0158  0.3057 -0.8589
   99SAPE   H7X 9998   7.298   4.677   5.999  0.0649  1.3330  0.6538
   99SAPE   H7Y 9999   7.257   4.841   5.963  1.4524 -0.3086  0.7100
   99SAPE   C3810000   7.172   4.684   5.814 -0.0669  0.3151 -0.3882
   99SAPE   H8X10001   7.096   4.755   5.774  2.2490  2.3311 -1.4851
   99SAPE   H8Y10002   7.131   4.584   5.838  1.8709 -0.5169 -0.3800
   99SAPE   C3910003   7.280   4.676   5.710  0.3843 -0.3135 -0.8439
   99SAPE   H9X10004   7.375   4.632   5.745 -0.0187 -1.8513 -1.5694
   99SAPE   H9Y10005   7.311   4.782   5.703 -0.4600  0.2396  2.1636
   99SAPE  C31010006   7.236   4.633   5.570  0.4162 -0.2639  0.0206
   99SAPE  H10X10007   7.174   4.708   5.516  1.8587 -1.5127 -3.6779
   99SAPE  H10Y10008   7.168   4.546   5.578 -1.5846  1.3257  1.4800
   99SAPE  C31110009   7.348   4.591   5.471 -0.6912 -0.1638 -0.5997
   99SAPE  H11X10010   7.310   4.513   5.402  0.5315 -1.3147 -0.0243
   99SAPE  H11Y10011   7.433   4.546   5.527 -0.9361  1.7137  1.4031
   99SAPE  C31210012   7.414   4.708   5.392  0.5460 -0.3438  0.8001
   99SAPE  H12X10013   7.438   4.780   5.473  0.4072 -0.3783  0.8719
   99SAPE  H12Y10014   7.343   4.764   5.328 -0.3892 -0.1868  1.9445
   99SAPE  C31310015   7.539   4.655   5.316 -0.7234 -0.2756  0.5408
   99SAPE  H13X10016   7.516   4.580   5.238 -0.1564 -1.1042  1.1614
   99SAPE  H13Y10017   7.615   4.609   5.382 -0.9280 -1.8569 -0.2792
   99SAPE  C31410018   7.626   4.765   5.251 -0.5603 -0.6874  0.7711
   99SAPE  H14X10019   7.716   4.720   5.203 -1.1245  2.4919 -3.9602
   99SAPE  H14Y10020   7.674   4.826   5.329 -0.5864 -2.9039  2.6213
   99SAPE  C31510021   7.552   4.858   5.153  0.7733 -0.2025 -0.5446
   99SAPE  H15X10022   7.621   4.941   5.128  0.2429  1.1527  2.1208
   99SAPE  H15Y10023   7.479   4.916   5.214  2.1143 -0.1278  1.0347
   99SAPE  C31610024   7.480   4.810   5.022  0.1160 -1.0028 -1.0121
   99SAPE  H16X10025   7.405   4.888   4.996  0.0709 -0.1773  1.3311
   99SAPE  H16Y10026   7.421   4.722   5.056 -1.3469  0.3773  0.1911
   99SAPE  C31710027   7.575   4.794   4.908 -0.2915 -0.1613 -0.1300
   99SAPE  H17X10028   7.678   4.761   4.935  0.5031  0.8951 -1.7734
   99SAPE  H17Y10029   7.587   4.897   4.868  1.9324 -0.1543  0.4209
   99SAPE  C31810030   7.508   4.704   4.807  0.2907 -0.1602  0.2447
   99SAPE  H18X10031   7.414   4.759   4.781 -0.9171 -1.0631  2.4866
   99SAPE  H18Y10032   7.476   4.608   4.851 -0.1366 -0.2495 -0.2482
   99SAPE  H18Z10033   7.570   4.698   4.715 -0.6819  1.8467 -0.6151
  100SAPE     N10034   2.331   3.181   7.587  0.6472 -0.1857 -0.0474
  100SAPE   HN110035   2.433   3.200   7.585  0.5058  1.1034  2.3469
  100SAPE   HN210036   2.291   3.271   7.620  1.1131 -0.1750  0.4916
  100SAPE   HN310037   2.314   3.115   7.665  0.0265 -0.5439 -0.4711
  100SAPE   C1210038   2.288   3.121   7.450  0.2171 -0.2102  0.2821
  100SAPE  H12A10039   2.359   3.037   7.436  0.2960  0.0484 -0.9819
  100SAPE  H12B10040   2.308   3.201   7.375 -1.9067 -1.8758 -2.2484
  100SAPE   C1110041   2.144   3.067   7.456 -0.3710 -0.0834  0.3043
  100SAPE  H11A10042   2.119   3.028   7.355  0.3768 -1.7156  0.7123
  100SAPE  H11B10043   2.076   3.154   7.470  1.6789  1.6661 -0.1887
  100SAPE     P10044   2.017   2.883   7.584 -0.4014 -0.0345 -0.2167
  100SAPE   O1310045   2.080   2.753   7.602  0.0083  0.1991  0.1558
  100SAPE   O1410046   1.946   2.937   7.702  0.2501 -0.1371 -0.2635
  100SAPE   O1210047   2.140   2.978   7.560 -0.1155 -0.0220  0.0042
  100SAPE   O1110048   1.936   2.893   7.451 -0.2242 -0.0912  0.2146
  100SAPE    C110049   1.824   2.976   7.428  0.7431 -0.3520  0.2751
  100SAPE    HA10050   1.778   3.013   7.523  1.4818  0.0041  0.5034
  100SAPE    HB10051   1.868   3.067   7.383  1.1976 -0.8832 -0.3786
  100SAPE    C210052   1.720   2.896   7.353  1.1311  0.1728 -0.1859
  100SAPE    HS10053   1.634   2.961   7.326  0.6655 -1.7050 -3.7501
  100SAPE   O2110054   1.678   2.795   7.449 -0.2970  0.2404  0.2065
  100SAPE   C2110055   1.556   2.753   7.446  0.9295  0.0128  0.5781
  100SAPE   O2210056   1.465   2.799   7.379  0.4432 -0.4458  0.0855
  100SAPE   C2210057   1.543   2.646   7.546  0.2948  0.2304  0.2833
  100SAPE   H2R10058   1.636   2.584   7.552  1.4355  1.9193  0.7460
  100SAPE   H2S10059   1.537   2.700   7.643 -0.0184 -1.3336  1.1768
  100SAPE    C310060   1.764   2.823   7.230  0.6594 -0.6149 -0.3026
  100SAPE    HX10061   1.832   2.751   7.281  0.2487  0.2797  1.6336
  100SAPE    HY10062   1.820   2.880   7.153  2.5593 -2.0589 -0.0397
  100SAPE   O3110063   1.655   2.763   7.161 -0.3862 -0.2852  0.1992
  100SAPE   C3110064   1.576   2.846   7.094  0.8944  0.1887 -0.0836
  100SAPE   O3210065   1.597   2.966   7.084 -0.1190 -0.1763 -1.1259
  100SAPE   C3210066   1.468   2.763   7.033  0.5027 -0.2426 -1.1038
  100SAPE   H2X10067   1.374   2.805   7.076  1.2252  1.6373 -1.2574
  100SAPE   H2Y10068   1.473   2.657   7.065  1.0320  0.0355 -0.2264
  100SAPE   C2310069   1.421   2.556   7.535 -0.7270  0.3589  0.0291
  100SAPE   H3R10070   1.328   2.617   7.523  0.4261  2.2680  0.3758
  100SAPE   H3S10071   1.405   2.488   7.621 -0.4102  0.3651  0.0928
  100SAPE   C2410072   1.425   2.471   7.408 -0.3557  0.0165  0.5493
  100SAPE   H4R10073   1.504   2.392   7.414 -1.2824 -1.0783 -1.0240
  100SAPE   H4S10074   1.452   2.524   7.315 -0.2737  0.9200  1.0757
  100SAPE   C2510075   1.291   2.415   7.382 -0.1621  0.3638 -0.8943
  100SAPE   H5R10076   1.236   2.416   7.477  0.1183 -0.5022 -0.7168
  100SAPE   C2610077   1.230   2.371   7.272  0.0198  0.8050  0.4822
  100SAPE   H6R10078   1.121   2.354   7.270  0.0183  0.6952 -2.1183
  100SAPE   C2710079   1.299   2.378   7.143 -0.7498 -0.5528 -0.0447
  100SAPE   H7R10080   1.404   2.408   7.167 -1.7534  2.2323  1.3474
  100SAPE   H7S10081   1.248   2.458   7.084 -0.8817 -2.4774 -2.7359
  100SAPE   C2810082   1.276   2.258   7.052 -0.0265 -0.2423 -0.6026
  100SAPE   H8R10083   1.236   2.169   7.102 -1.3026  1.6968  2.0729
  100SAPE   C2910084   1.319   2.265   6.928 -0.0938  0.0490  0.5652
  100SAPE   H9R10085   1.303   2.176   6.866 -1.3052 -0.2914  1.3306
  100SAPE  C21010086   1.376   2.386   6.857 -0.0542  0.3483  0.0483
  100SAPE  H10R10087   1.399   2.471   6.924 -0.1207  0.6532 -0.3109
  100SAPE  H10S10088   1.287   2.426   6.804 -0.4234  0.3389  0.6499
  100SAPE  C21110089   1.486   2.367   6.754 -0.7493 -0.5655 -0.0802
  100SAPE  H11R10090   1.586   2.359   6.798 -0.8198 -1.6560 -0.1006
  100SAPE  C21210091   1.471   2.349   6.619 -0.0984 -0.3836  1.1190
  100SAPE  H12R10092   1.557   2.354   6.551 -1.0374 -1.0347 -0.1769
  100SAPE  C21310093   1.339   2.361   6.543  0.4363 -0.3717 -0.0618
  100SAPE  H13R10094   1.317   2.465   6.509 -0.2284  0.2508  2.0558
  100SAPE  H13S10095   1.256   2.334   6.613  0.6534  1.1711  0.8416
  100SAPE  C21410096   1.339   2.269   6.420 -0.0307  0.8818  0.0039
  100SAPE  H14R10097   1.319   2.167   6.457 -0.3769  0.9567  0.0340
  100SAPE  C21510098   1.365   2.292   6.288 -0.0428 -0.5226  0.0533
  100SAPE  H15R10099   1.362   2.208   6.217 -1.9172 -0.3705 -0.1065
  100SAPE  C21610100   1.397   2.428   6.232  0.7225 -0.0283 -0.2417
  100SAPE  H16R10101   1.505   2.454   6.230  0.1825  2.4986 -0.3098
  100SAPE  H16S10102   1.354   2.507   6.297  3.0990  1.3106 -0.1878
  100SAPE  C21710103   1.332   2.433   6.093 -0.5324 -0.0507  0.6195
  100SAPE  H17R10104   1.221   2.429   6.094 -0.5627  0.2438 -0.2941
  100SAPE  H17S10105   1.352   2.339   6.037  1.9094  0.5338  0.3799
  100SAPE  C21810106   1.385   2.556   6.011 -0.3050  0.1220 -0.6994
  100SAPE  H18R10107   1.488   2.530   5.980  0.5040  0.7263  1.3451
  100SAPE  H18S10108   1.387   2.637   6.087 -1.9527 -0.9048  0.4949
  100SAPE  C21910109   1.297   2.588   5.883  0.4485 -0.3686  0.0231
  100SAPE  H19R10110   1.290   2.494   5.825  0.6991  0.5272 -1.5295
  100SAPE  H19S10111   1.360   2.654   5.820  0.1687  1.4214  1.5368
  100SAPE  C22010112   1.163   2.638   5.901  0.2475  0.1800  0.3552
  100SAPE  H20R10113   1.100   2.655   5.811  1.5623 -0.5128 -0.7337
  100SAPE  H20S10114   1.152   2.733   5.957 -1.1748  0.1673  0.1455
  100SAPE  H20T10115   1.097   2.566   5.956  2.1695 -2.0080 -0.0635
  100SAPE   C3310116   1.469   2.780   6.881 -0.5264 -0.0364  0.2293
  100SAPE   H3X10117   1.460   2.888   6.856  0.2432 -0.6256 -2.9792
  100SAPE   H3Y10118   1.380   2.726   6.843 -1.0403  0.1416  1.1579
  100SAPE   C3410119   1.594   2.720   6.816  0.7017  0.3482 -0.6040
  100SAPE   H4X10120   1.588   2.611   6.837  1.8264  0.6306  1.4263
  100SAPE   H4Y10121   1.684   2.760   6.867  0.8296 -1.9102  1.0658
  100SAPE   C3510122   1.592   2.726   6.663 -0.4675 -0.3223 -0.5419
  100SAPE   H5X10123   1.582   2.829   6.620  0.8566 -0.0200 -0.1559
  100SAPE   H5Y10124   1.506   2.667   6.626  0.6403 -0.4399 -3.1781
  100SAPE   C3610125   1.716   2.652   6.612 -0.0862 -0.2844 -0.0577
  100SAPE   H6X10126   1.707   2.552   6.659  1.6106 -0.7932 -0.7161
  100SAPE   H6Y10127   1.813   2.693   6.650 -0.5195 -1.2381  2.2386
  100SAPE   C3710128   1.717   2.636   6.462  0.4265  0.4385 -0.0297
  100SAPE   H7X10129   1.712   2.738   6.418  2.1788  1.6988  2.4814
  100SAPE   H7Y10130   1.624   2.582   6.435  1.6025 -1.0802 -1.2611
  100SAPE   C3810131   1.843   2.566   6.413  0.6132 -0.2612  0.0813
  100SAPE   H8X10132   1.862   2.461   6.446 -1.4591 -0.6948  0.0346
  100SAPE   H8Y10133   1.937   2.619   6.441  0.6344 -0.4367  0.3525
  100SAPE   C3910134   1.839   2.567   6.257 -0.2268  0.0649 -0.4018
  100SAPE   H9X10135   1.744   2.525   6.217 -0.2853 -0.6645  0.4784
  100SAPE   H9Y10136   1.914   2.498   6.213 -0.3754 -0.6807  0.5073
  100SAPE  C31010137   1.857   2.703   6.196  0.4638 -0.3357  0.2468
  100SAPE  H10X10138   1.952   2.757   6.218 -0.2408  1.5154 -1.0184
  100SAPE  H10Y10139   1.777   2.775   6.225  2.6036  2.7129 -1.0021
  100SAPE  C31110140   1.859   2.705   6.045  0.8542 -0.1974  0.2736
  100SAPE  H11X10141   1.931   2.625   6.016  0.8282 -0.5136  1.0360
  100SAPE  H11Y10142   1.891   2.803   6.006 -0.6994 -0.3526 -1.5004
  100SAPE  C31210143   1.724   2.672   5.981  0.3343  0.8095 -0.2947
  100SAPE  H12X10144   1.660   2.760   6.000  0.1187  0.3279  1.3530
  100SAPE  H12Y10145   1.673   2.582   6.022 -2.0784  2.1062 -0.2679
  100SAPE  C31310146   1.739   2.661   5.825 -0.5440  0.8957 -0.5150
  100SAPE  H13X10147   1.811   2.741   5.796  1.0653 -0.0888  0.6081
  100SAPE  H13Y10148   1.641   2.690   5.781 -1.3504 -0.8549  0.0402
  100SAPE  C31410149   1.789   2.524   5.778 -0.1785  0.1466  0.1711
  100SAPE  H14X10150   1.710   2.446   5.793  1.0581 -1.7109 -2.2687
  100SAPE  H14Y10151   1.872   2.503   5.849 -1.6833  0.3305  2.0736
  100SAPE  C31510152   1.837   2.527   5.630 -0.4252 -0.3041 -0.2892
  100SAPE  H15X10153   1.926   2.590   5.609 -1.1050  0.6533 -0.3372
  100SAPE  H15Y10154   1.759   2.581   5.572  0.4993  1.1323 -0.2270
  100SAPE  C31610155   1.867   2.385   5.575  0.0917 -1.2273  0.7999
  100SAPE  H16X10156   1.784   2.314   5.596 -2.1625  0.6015 -1.2266
  100SAPE  H16Y10157   1.960   2.347   5.621  0.0954 -0.6916  1.2325
  100SAPE  C31710158   1.884   2.390   5.426 -0.9084  0.0221  0.0100
  100SAPE  H17X10159   1.953   2.469   5.391  0.9044 -1.4207  0.1462
  100SAPE  H17Y10160   1.783   2.412   5.384  0.1079  1.2375 -1.9736
  100SAPE  C31810161   1.938   2.257   5.374 -0.3836  0.1315  0.1906
  100SAPE  H18X10162   1.943   2.264   5.263 -3.8709  0.3628 -0.0565
  100SAPE  H18Y10163   1.866   2.179   5.406 -1.6387  0.6023 -1.4043
  100SAPE  H18Z10164   2.042   2.232   5.406  0.0579 -2.1507 -2.5945
  101SAPE     N10165   2.914   5.442   7.067 -0.2862 -0.5285  0.1073
  101SAPE   HN110166   2.826   5.455   7.012 -0.0536  0.3827 -0.0757
  101SAPE   HN210167   2.976   5.519   7.033 -0.6199  0.3750  1.4788
  101SAPE   HN310168   2.940   5.344   7.046 -2.4074 -1.1324  0.0596
  101SAPE   C1210169   2.875   5.469   7.208 -0.6824  0.5367  0.1049
  101SAPE  H12A10170   2.856   5.579   7.214  2.7048  1.2198  0.0342
  101SAPE  H12B10171   2.971   5.468   7.263 -0.4679  0.9264 -0.2566
  101SAPE   C1110172   2.772   5.385   7.275  0.3933 -0.3867 -0.0494
  101SAPE  H11A10173   2.738   5.424   7.374  0.8804  0.6014 -0.2596
  101SAPE  H11B10174   2.815   5.284   7.294  0.0957 -0.4335  0.4006
  101SAPE     P10175   2.559   5.249   7.218  0.1291 -0.4285  0.1018
  101SAPE   O1310176   2.628   5.129   7.180  0.6683  0.5664  0.3062
  101SAPE   O1410177   2.485   5.247   7.346 -0.4051  0.6949  0.2161
  101SAPE   O1210178   2.651   5.381   7.200 -0.1231  0.0246 -0.5037
  101SAPE   O1110179   2.456   5.285   7.103  0.0986  0.4648  0.1347
  101SAPE    C110180   2.505   5.347   6.977 -0.0419 -0.2618  0.2281
  101SAPE    HA10181   2.517   5.455   7.002  1.2233 -0.0103 -1.2690
  101SAPE    HB10182   2.603   5.314   6.936  0.3933  1.4533 -0.1986
  101SAPE    C210183   2.392   5.323   6.868 -0.9046  0.2286  0.3258
  101SAPE    HS10184   2.370   5.214   6.879 -0.3313 -0.0509 -1.0825
  101SAPE   O2110185   2.436   5.357   6.740  0.0974 -0.2171  0.1319
  101SAPE   C2110186   2.417   5.274   6.639 -0.0266  0.6436 -0.3907
  101SAPE   O2210187   2.348   5.175   6.651 -0.1938 -0.3296 -0.0862
  101SAPE   C2210188   2.486   5.321   6.506  0.0709  0.3077  0.3997
  101SAPE   H2R10189   2.427   5.411   6.479  1.0162  0.6004 -0.7912
  101SAPE   H2S10190   2.590   5.350   6.530  0.5770 -0.5426 -0.6876
  101SAPE    C310191   2.262   5.394   6.911 -0.1972 -0.0763  0.3033
  101SAPE    HX10192   2.269   5.505   6.915 -1.1206 -0.0195  0.9176
  101SAPE    HY10193   2.235   5.366   7.016  0.7721 -1.5145  0.1975
  101SAPE   O3110194   2.155   5.368   6.813 -0.5072 -0.4128 -0.1968
  101SAPE   C3110195   2.064   5.285   6.853  0.2720  0.0548  0.2467
  101SAPE   O3210196   2.059   5.222   6.956 -0.3545  0.1673 -0.2217
  101SAPE   C3210197   1.952   5.269   6.752  0.7785  0.0547  0.5582
  101SAPE   H2X10198   1.981   5.316   6.655  0.4264  0.7145  0.7691
  101SAPE   H2Y10199   1.869   5.327   6.798  0.2087  0.4744 -0.9372
  101SAPE   C2310200   2.477   5.215   6.398  0.1687 -0.3190 -0.8020
  101SAPE   H3R10201   2.372   5.179   6.396 -0.4548  1.3771 -0.5859
  101SAPE   H3S10202   2.548   5.135   6.428  0.2661 -0.7736 -2.2127
  101SAPE   C2410203   2.520   5.271   6.259 -0.4245 -0.1136 -0.0095
  101SAPE   H4R10204   2.557   5.184   6.200  2.5388 -1.7293  3.7999
  101SAPE   H4S10205   2.620   5.311   6.285  1.1407 -2.7473 -1.4207
  101SAPE   C2510206   2.433   5.365   6.182  0.6276 -0.2047 -0.1998
  101SAPE   H5R10207   2.411   5.455   6.242  2.2404 -0.2058  0.4466
  101SAPE   C2610208   2.382   5.360   6.061 -0.1107  0.4057  0.6903
  101SAPE   H6R10209   2.317   5.441   6.026 -1.8053 -1.5087 -0.8729
  101SAPE   C2710210   2.404   5.243   5.959  0.3387 -0.4999  0.3810
  101SAPE   H7R10211   2.440   5.154   6.015 -0.7766 -0.6774  0.8447
  101SAPE   H7S10212   2.480   5.288   5.891 -1.6967  1.7517 -0.5517
  101SAPE   C2810213   2.283   5.187   5.890  0.1504  0.7963 -0.1500
  101SAPE   H8R10214   2.202   5.138   5.947  0.5375 -0.1606 -0.4106
  101SAPE   C2910215   2.248   5.199   5.759  0.0781  0.1771  0.9489
  101SAPE   H9R10216   2.156   5.159   5.716  0.9403 -0.0955 -0.7161
  101SAPE  C21010217   2.325   5.276   5.658 -0.4216 -0.1896  0.3055
  101SAPE  H10R10218   2.403   5.338   5.708 -0.0514 -0.7619  0.4433
  101SAPE  H10S10219   2.266   5.358   5.613  1.3100  0.4097 -0.9601
  101SAPE  C21110220   2.400   5.198   5.554  0.6192 -0.2004  0.1074
  101SAPE  H11R10221   2.466   5.131   5.612  1.0280  0.4533  0.4071
  101SAPE  C21210222   2.396   5.181   5.420  0.2070  0.3426  0.1224
  101SAPE  H12R10223   2.465   5.109   5.373  1.0573  1.0720  0.2310
  101SAPE  C21310224   2.294   5.240   5.328 -0.1557 -0.4590 -0.0621
  101SAPE  H13R10225   2.344   5.256   5.230 -0.3953  1.4249  0.0871
  101SAPE  H13S10226   2.285   5.342   5.371  1.2147  0.6109 -2.1510
  101SAPE  C21410227   2.159   5.173   5.317 -0.7680  0.1475 -0.2139
  101SAPE  H14R10228   2.133   5.120   5.410 -1.1367 -0.7249 -0.7978
  101SAPE  C21510229   2.065   5.166   5.217  0.1930  0.1805  0.2653
  101SAPE  H15R10230   1.982   5.096   5.234  0.2494  0.4651  1.8810
  101SAPE  C21610231   2.065   5.248   5.089 -0.5632 -0.2426  0.3968
  101SAPE  H16R10232   2.148   5.322   5.091  0.3294 -1.1961 -0.6187
  101SAPE  H16S10233   1.974   5.311   5.077  0.4518  1.1880 -0.0180
  101SAPE  C21710234   2.064   5.156   4.967  0.0176  0.6374  0.9738
  101SAPE  H17R10235   1.985   5.078   4.966 -0.4001  1.0460 -0.1344
  101SAPE  H17S10236   2.166   5.111   4.965 -0.1342  0.3035  0.0701
  101SAPE  C21810237   2.031   5.233   4.839 -0.0205 -0.4898  0.2557
  101SAPE  H18R10238   1.946   5.304   4.853 -0.6108 -0.4827 -2.7799
  101SAPE  H18S10239   2.008   5.154   4.764  0.4501 -1.1124  0.7467
  101SAPE  C21910240   2.159   5.291   4.776  0.1948 -0.4331  0.4599
  101SAPE  H19R10241   2.232   5.213   4.747  0.0937 -1.1477  2.0162
  101SAPE  H19S10242   2.201   5.366   4.847 -2.2574  1.1329  0.3820
  101SAPE  C22010243   2.125   5.366   4.645  0.4568  0.8043 -0.1953
  101SAPE  H20R10244   2.074   5.460   4.677 -0.0110  0.2729  0.6573
  101SAPE  H20S10245   2.052   5.303   4.590 -1.6991  0.4875  2.7834
  101SAPE  H20T10246   2.213   5.394   4.583  0.7511 -1.8430 -1.1180
  101SAPE   C3310247   1.898   5.125   6.735 -0.0027 -0.4043  0.0633
  101SAPE   H3X10248   1.803   5.126   6.677 -0.1683 -0.1994  0.3332
  101SAPE   H3Y10249   1.867   5.078   6.832 -1.2797 -0.3763 -0.3078
  101SAPE   C3410250   2.016   5.039   6.684  0.3833 -0.8418  0.2058
  101SAPE   H4X10251   1.997   4.930   6.700 -0.3025 -0.8101 -0.3476
  101SAPE   H4Y10252   2.102   5.059   6.751 -1.0853 -0.5519  2.1099
  101SAPE   C3510253   2.055   5.070   6.543  0.2130 -0.2665  0.7017
  101SAPE   H5X10254   2.127   4.993   6.508 -2.1998 -1.8711 -1.0167
  101SAPE   H5Y10255   2.107   5.168   6.533  0.2206 -0.3475 -0.0481
  101SAPE   C3610256   1.936   5.073   6.443  0.3903 -0.0612 -0.2907
  101SAPE   H6X10257   1.877   5.160   6.479 -0.7515 -1.6052  1.8956
  101SAPE   H6Y10258   1.861   4.991   6.443  0.5232 -0.1865 -1.2778
  101SAPE   C3710259   1.984   5.074   6.303 -0.2188  0.7619  0.7267
  101SAPE   H7X10260   2.011   4.969   6.279 -0.6579  1.1857 -1.8532
  101SAPE   H7Y10261   2.078   5.133   6.294  1.4839 -2.1003 -2.7989
  101SAPE   C3810262   1.871   5.118   6.212  0.8267 -0.5414  0.5663
  101SAPE   H8X10263   1.843   5.222   6.238  1.4389 -0.0299 -0.7044
  101SAPE   H8Y10264   1.780   5.053   6.215 -0.9703  1.7556 -1.0961
  101SAPE   C3910265   1.914   5.125   6.060  0.0780 -0.5389  0.5295
  101SAPE   H9X10266   1.983   5.039   6.047  2.4223  1.2379  0.7168
  101SAPE   H9Y10267   1.965   5.222   6.044 -0.5270 -0.5268 -1.7659
  101SAPE  C31010268   1.800   5.117   5.948 -0.1991 -0.2708  0.0393
  101SAPE  H10X10269   1.724   5.195   5.969 -1.1264 -0.5962 -1.8777
  101SAPE  H10Y10270   1.744   5.021   5.946 -1.7999  0.6534 -1.6706
  101SAPE  C31110271   1.851   5.141   5.811 -0.0735 -0.4627  0.3862
  101SAPE  H11X10272   1.905   5.048   5.782 -0.0641 -0.4733  0.4372
  101SAPE  H11Y10273   1.923   5.226   5.814 -1.2294  0.6037 -0.6519
  101SAPE  C31210274   1.730   5.177   5.716 -0.0741  0.1729  0.0180
  101SAPE  H12X10275   1.686   5.275   5.744 -3.0544 -0.9317 -0.4205
  101SAPE  H12Y10276   1.646   5.108   5.737  1.1684 -1.2913  0.3574
  101SAPE  C31310277   1.760   5.163   5.565 -0.2760  0.2042  0.3196
  101SAPE  H13X10278   1.802   5.062   5.546  0.0782  0.5647 -0.8985
  101SAPE  H13Y10279   1.835   5.243   5.549 -0.0449  0.4601  2.3903
  101SAPE  C31410280   1.635   5.189   5.481 -0.0959  0.1216  0.7541
  101SAPE  H14X10281   1.603   5.295   5.486  2.1858  0.9361 -0.4781
  101SAPE  H14Y10282   1.556   5.115   5.507  1.9264 -2.7275 -0.6817
  101SAPE  C31510283   1.666   5.160   5.330 -0.5069  0.6470 -0.4100
  101SAPE  H15X10284   1.736   5.075   5.342 -0.0961  1.2077  1.5940
  101SAPE  H15Y10285   1.720   5.245   5.282 -0.5754  0.0326 -1.5995
  101SAPE  C31610286   1.537   5.121   5.255  0.1336  0.2252  0.1577
  101SAPE  H16X10287   1.481   5.213   5.232  0.9740  1.4686  2.6656
  101SAPE  H16Y10288   1.459   5.076   5.321  0.7379  0.1007  0.8062
  101SAPE  C31710289   1.562   5.029   5.137 -0.4089 -0.5579  0.4307
  101SAPE  H17X10290   1.463   5.009   5.090 -0.1620 -0.0328 -0.3149
  101SAPE  H17Y10291   1.585   4.930   5.183 -0.1644  0.8687  3.6483
  101SAPE  C31810292   1.662   5.070   5.033  0.2656  0.3952 -0.3527
  101SAPE  H18X10293   1.636   5.174   5.005 -1.1553  0.2733  0.4589
  101SAPE  H18Y10294   1.649   5.010   4.940 -3.3155 -1.4223  1.1312
  101SAPE  H18Z10295   1.765   5.065   5.074  0.6668  1.0851 -1.2324
  102SAPE     N10296   1.215   4.360   7.299 -0.5055 -0.1946  0.8107
  102SAPE   HN110297   1.128   4.388   7.250  0.2399  0.0922 -0.3805
  102SAPE   HN210298   1.213   4.256   7.298 -0.0449 -0.2110  1.0447
  102SAPE   HN310299   1.219   4.386   7.400  1.8801 -2.3622  1.3976
  102SAPE   C1210300   1.331   4.416   7.219  0.1992 -0.3442 -0.0034
  102SAPE  H12A10301   1.319   4.382   7.114 -0.3622  1.4283 -0.5532
  102SAPE  H12B10302   1.419   4.363   7.261  1.4757  0.3795 -1.6460
  102SAPE   C1110303   1.367   4.563   7.241  0.0545 -0.4108  0.2667
  102SAPE  H11A10304   1.459   4.576   7.181  0.4945 -1.2743  0.7310
  102SAPE  H11B10305   1.389   4.595   7.345 -0.6689  1.0317 -0.0033
  102SAPE     P10306   1.207   4.682   7.052 -0.1953  0.3571  0.3575
  102SAPE   O1310307   1.101   4.590   7.007  0.2870 -0.9745 -0.6525
  102SAPE   O1410308   1.175   4.825   7.032 -0.2109 -0.4795 -0.4464
  102SAPE   O1210309   1.260   4.650   7.195 -0.0555  0.8050 -0.5259
  102SAPE   O1110310   1.342   4.650   6.973 -0.0886 -0.2778  0.5237
  102SAPE    C110311   1.430   4.727   6.890  0.7248  0.2406 -1.0017
  102SAPE    HA10312   1.394   4.830   6.871  0.9945  0.3636 -0.8496
  102SAPE    HB10313   1.528   4.728   6.944 -0.2268  0.3422  0.8072
  102SAPE    C210314   1.453   4.673   6.751  0.0043 -0.9149 -0.4482
  102SAPE    HS10315   1.498   4.756   6.692 -0.0738 -1.0890 -0.7539
  102SAPE   O2110316   1.330   4.621   6.690 -0.2096 -0.4187  0.2714
  102SAPE   C2110317   1.265   4.718   6.621 -0.1086 -0.7821 -0.1219
  102SAPE   O2210318   1.300   4.836   6.621  0.4922  0.1290  0.4380
  102SAPE   C2210319   1.133   4.669   6.564  0.7108 -0.7947 -0.4844
  102SAPE   H2R10320   1.141   4.559   6.549  2.0534 -0.7007 -0.5818
  102SAPE   H2S10321   1.047   4.688   6.632  2.1420  0.3298  1.0761
  102SAPE    C310322   1.552   4.554   6.753 -0.6357  0.0755  0.0658
  102SAPE    HX10323   1.490   4.470   6.792 -0.3669  0.1504  0.6587
  102SAPE    HY10324   1.631   4.558   6.830 -1.8618 -0.4777  1.3894
  102SAPE   O3110325   1.602   4.518   6.622 -0.2584 -0.4856  0.1445
  102SAPE   C3110326   1.678   4.615   6.575 -0.3528 -0.2034  0.7446
  102SAPE   O3210327   1.705   4.719   6.636  0.2315 -0.1666 -0.3449
  102SAPE   C3210328   1.722   4.596   6.433  0.4685  0.4484  0.3621
  102SAPE   H2X10329   1.630   4.613   6.374 -0.0693 -1.6843  0.5007
  102SAPE   H2Y10330   1.762   4.493   6.420 -1.7369 -0.5632  1.1870
  102SAPE   C2310331   1.093   4.741   6.428 -0.5454  0.0263  0.3093
  102SAPE   H3R10332   1.180   4.743   6.359 -2.3276 -0.1806 -2.0398
  102SAPE   H3S10333   1.059   4.846   6.437  1.8860  1.1462 -2.1918
  102SAPE   C2410334   0.989   4.658   6.348 -0.5569 -0.0354 -0.4950
  102SAPE   H4R10335   1.020   4.551   6.358  2.0522  0.5873 -1.0393
  102SAPE   H4S10336   0.994   4.687   6.241 -0.1396  0.2890 -0.3905
  102SAPE   C2510337   0.853   4.664   6.408  0.2580  0.9263  0.4743
  102SAPE   H5R10338   0.830   4.589   6.484 -0.0771 -1.6185 -1.9561
  102SAPE   C2610339   0.761   4.751   6.367  0.7974 -0.6203  0.3396
  102SAPE   H6R10340   0.660   4.750   6.411 -0.1378  1.7274 -1.5698
  102SAPE   C2710341   0.778   4.855   6.252  0.0864  0.2893  0.3093
  102SAPE   H7R10342   0.885   4.886   6.250  0.3781 -0.1679  3.6162
  102SAPE   H7S10343   0.726   4.950   6.278  0.6237  0.2497  1.6101
  102SAPE   C2810344   0.728   4.800   6.121  0.2592 -0.7095 -0.7617
  102SAPE   H8R10345   0.624   4.767   6.131  0.5653 -1.1000  2.2155
  102SAPE   C2910346   0.777   4.786   6.000 -0.0609 -0.0865 -1.4733
  102SAPE   H9R10347   0.717   4.726   5.931  1.0612 -3.1592  0.0491
  102SAPE  C21010348   0.912   4.824   5.945 -0.9162 -0.2426 -0.0459
  102SAPE  H10R10349   0.947   4.737   5.885 -1.3125 -0.5083  0.0973
  102SAPE  H10S10350   0.979   4.849   6.030 -0.6676 -0.3191 -0.2211
  102SAPE  C21110351   0.908   4.945   5.855 -0.2944  0.1237  0.4816
  102SAPE  H11R10352   0.875   5.036   5.907 -0.5736  0.7407 -0.7237
  102SAPE  C21210353   0.925   4.936   5.718  0.3448 -0.3999 -0.1711
  102SAPE  H12R10354   0.915   5.030   5.661  0.8390  0.6316  1.3583
  102SAPE  C21310355   0.978   4.829   5.627  0.0789 -0.2134  0.1305
  102SAPE  H13R10356   0.946   4.839   5.521  3.8469  1.0966 -1.0277
  102SAPE  H13S10357   0.941   4.729   5.659  0.3103 -0.9497 -1.7643
  102SAPE  C21410358   1.132   4.839   5.626  0.1883  0.5484  0.0570
  102SAPE  H14R10359   1.178   4.774   5.701 -1.3392 -1.4679 -0.6558
  102SAPE  C21510360   1.212   4.906   5.545  0.2654 -0.1125 -0.2632
  102SAPE  H15R10361   1.322   4.902   5.557  0.3009  0.5162 -0.3781
  102SAPE  C21610362   1.160   5.002   5.436 -0.3345 -0.3472 -0.1057
  102SAPE  H16R10363   1.217   5.096   5.451  0.7373 -0.5596 -2.4728
  102SAPE  H16S10364   1.060   5.039   5.466  0.2996  0.8106  0.6983
  102SAPE  C21710365   1.165   4.929   5.299 -0.0103  0.1914  0.3979
  102SAPE  H17R10366   1.091   4.847   5.290  1.7112 -1.2731 -1.9180
  102SAPE  H17S10367   1.266   4.885   5.282  0.7187  1.5507  1.0696
  102SAPE  C21810368   1.146   5.023   5.179 -0.4052 -0.0280  0.0855
  102SAPE  H18R10369   1.237   5.086   5.171 -1.2762  1.3383  0.5896
  102SAPE  H18S10370   1.059   5.090   5.190  0.1916  0.6152  1.0480
  102SAPE  C21910371   1.133   4.955   5.046 -0.1744  0.3892  0.2542
  102SAPE  H19R10372   1.052   4.882   5.069 -2.0437  2.8662  2.1346
  102SAPE  H19S10373   1.224   4.910   5.002 -0.9396  1.3854 -2.5318
  102SAPE  C22010374   1.086   5.054   4.932  0.7106 -0.0359  0.3370
  102SAPE  H20R10375   1.078   5.000   4.836 -0.3164  0.7185 -0.0278
  102SAPE  H20S10376   1.151   5.144   4.925 -1.0935  1.4954  1.8795
  102SAPE  H20T10377   0.984   5.097   4.949  1.8018  3.1809 -0.4896
  102SAPE   C3310378   1.820   4.703   6.375  0.3958  0.6285 -0.1620
  102SAPE   H3X10379   1.912   4.712   6.437 -0.3213  0.6808  0.9191
  102SAPE   H3Y10380   1.777   4.802   6.401  0.9473  0.3244  2.1001
  102SAPE   C3410381   1.844   4.688   6.223 -0.1465  0.5663 -0.0733
  102SAPE   H4X10382   1.893   4.589   6.214  0.4836  0.7240  1.4395
  102SAPE   H4Y10383   1.913   4.768   6.188 -1.7269  2.3679  0.7523
  102SAPE   C3510384   1.715   4.716   6.137 -0.4212  0.2425  0.1148
  102SAPE   H5X10385   1.669   4.809   6.178  1.8183  1.5270 -0.0871
  102SAPE   H5Y10386   1.650   4.627   6.144 -0.9578  0.3811 -2.2485
  102SAPE   C3610387   1.740   4.737   5.991  0.1026 -0.6298 -0.4860
  102SAPE   H6X10388   1.795   4.646   5.958  1.2270  0.8623 -3.0876
  102SAPE   H6Y10389   1.802   4.825   5.962 -0.5816 -0.0949 -0.3397
  102SAPE   C3710390   1.616   4.751   5.905  0.1612 -0.5484  0.1624
  102SAPE   H7X10391   1.540   4.824   5.940 -2.1773 -2.6344 -0.2381
  102SAPE   H7Y10392   1.560   4.656   5.921  0.1937 -1.0057 -2.1289
  102SAPE   C3810393   1.639   4.773   5.755  0.1874 -0.1884 -0.1930
  102SAPE   H8X10394   1.723   4.843   5.736  1.3697 -1.9470 -1.8945
  102SAPE   H8Y10395   1.544   4.813   5.713 -0.8481 -1.0505  1.2386
  102SAPE   C3910396   1.651   4.637   5.684 -0.2767 -0.5196 -0.4618
  102SAPE   H9X10397   1.556   4.584   5.707  0.1930 -1.3402 -0.3693
  102SAPE   H9Y10398   1.743   4.596   5.732  0.6052  1.1980 -0.6003
  102SAPE  C31010399   1.648   4.657   5.535 -0.6796 -0.0704  0.0717
  102SAPE  H10X10400   1.575   4.733   5.500 -1.1724 -0.6963 -0.2662
  102SAPE  H10Y10401   1.607   4.568   5.482 -1.5260  1.2667 -1.6084
  102SAPE  C31110402   1.789   4.699   5.476 -0.0262 -0.0712 -0.2037
  102SAPE  H11X10403   1.860   4.622   5.512  0.5344  0.1903 -0.7341
  102SAPE  H11Y10404   1.810   4.801   5.515 -1.0497  0.9976 -2.2482
  102SAPE  C31210405   1.797   4.700   5.323 -0.8160 -0.6220  0.1106
  102SAPE  H12X10406   1.739   4.783   5.277 -0.7225  0.0404  1.1562
  102SAPE  H12Y10407   1.771   4.598   5.287 -0.9300 -0.5269 -0.0811
  102SAPE  C31310408   1.943   4.721   5.279 -0.7587 -0.0488 -0.2933
  102SAPE  H13X10409   2.006   4.640   5.323 -1.5149 -0.5837 -0.1900
  102SAPE  H13Y10410   1.981   4.821   5.310  1.2586 -0.6510 -0.6667
  102SAPE  C31410411   1.946   4.716   5.129  0.2545 -0.1082 -0.0213
  102SAPE  H14X10412   1.846   4.753   5.097  0.2675 -0.5328 -0.5825
  102SAPE  H14Y10413   1.939   4.611   5.095 -2.3107  0.0519 -0.1207
  102SAPE  C31510414   2.068   4.776   5.059 -0.3614 -0.0779 -0.7015
  102SAPE  H15X10415   2.148   4.755   5.133  0.5376  1.1519 -1.2885
  102SAPE  H15Y10416   2.061   4.886   5.054 -0.7343 -0.1362 -1.7244
  102SAPE  C31610417   2.093   4.711   4.927 -0.1601  0.4572  0.9894
  102SAPE  H16X10418   1.999   4.709   4.868 -0.2354 -2.9211  1.0483
  102SAPE  H16Y10419   2.118   4.605   4.945  1.0704  0.5145 -0.1586
  102SAPE  C31710420   2.193   4.776   4.832 -0.3012  0.3486  0.3367
  102SAPE  H17X10421   2.138   4.852   4.773 -1.6646 -2.3264 -2.0001
  102SAPE  H17Y10422   2.225   4.694   4.765 -0.5484  0.9725 -0.5609
  102SAPE  C31810423   2.317   4.844   4.892  0.6628 -0.0317  0.2396
  102SAPE  H18X10424   2.368   4.910   4.819  1.5729 -0.1672  0.7335
  102SAPE  H18Y10425   2.396   4.782   4.941  0.8688 -1.1226 -1.4003
  102SAPE  H18Z10426   2.279   4.920   4.964  1.2883  1.4180 -0.9281
  103SAPE     N10427   4.241   1.798   2.878 -0.2383 -0.1296  0.2542
  103SAPE   HN110428   4.159   1.789   2.941 -0.0049 -0.6202  0.4875
  103SAPE   HN210429   4.319   1.761   2.935  0.2860  0.5646 -0.0072
  103SAPE   HN310430   4.245   1.895   2.841  1.6694 -1.0620 -2.2572
  103SAPE   C1210431   4.222   1.699   2.770  0.2803 -0.2148 -0.0678
  103SAPE  H12A10432   4.242   1.604   2.824  1.3923  0.5348  0.8838
  103SAPE  H12B10433   4.298   1.713   2.690 -0.6012  1.6284 -0.6242
  103SAPE   C1110434   4.072   1.703   2.724 -0.1744  0.6603  0.2755
  103SAPE  H11A10435   4.011   1.713   2.817  1.4881  1.4418  1.3470
  103SAPE  H11B10436   4.044   1.612   2.667 -1.4741  0.0834  1.7398
  103SAPE     P10437   3.899   1.882   2.627  0.4266 -0.2643  0.7656
  103SAPE   O1310438   3.901   2.018   2.567  0.1202  1.0001 -0.0836
  103SAPE   O1410439   3.818   1.782   2.559 -0.7880  0.6338 -0.0472
  103SAPE   O1210440   4.049   1.821   2.646 -0.2653 -0.3666 -0.1783
  103SAPE   O1110441   3.853   1.904   2.776 -0.1161 -0.3064 -0.5054
  103SAPE    C110442   3.922   1.985   2.868  0.3738 -0.0905  0.0617
  103SAPE    HA10443   4.027   1.951   2.881  1.0278  1.2898 -1.3678
  103SAPE    HB10444   3.934   2.089   2.833 -1.6473 -0.6684 -2.6481
  103SAPE    C210445   3.861   1.990   3.011 -0.3327  0.0114  0.4112
  103SAPE    HS10446   3.950   2.026   3.066 -0.5253  1.6950 -0.2998
  103SAPE   O2110447   3.814   1.866   3.066  0.4452 -0.3285 -0.2723
  103SAPE   C2110448   3.906   1.777   3.078 -0.4053  0.2209  0.1864
  103SAPE   O2210449   4.029   1.790   3.059  0.3036 -0.0277 -0.1234
  103SAPE   C2210450   3.839   1.646   3.118 -0.0431 -0.3551 -0.5909
  103SAPE   H2R10451   3.734   1.650   3.081  0.1572  0.3387 -1.1103
  103SAPE   H2S10452   3.891   1.560   3.070  1.4692 -1.0763  2.0896
  103SAPE    C310453   3.759   2.100   3.044 -0.6561 -0.8074  0.2677
  103SAPE    HX10454   3.680   2.112   2.967  0.2064  0.0233 -0.5143
  103SAPE    HY10455   3.808   2.199   3.044 -2.3920  0.1235 -1.5013
  103SAPE   O3110456   3.715   2.087   3.179  0.3445 -0.3499 -0.8761
  103SAPE   C3110457   3.602   2.019   3.196  0.6098 -0.4705  0.4825
  103SAPE   O3210458   3.532   1.973   3.108 -0.1249  0.1839  0.1178
  103SAPE   C3210459   3.586   1.991   3.350  0.1172  0.4183  1.2911
  103SAPE   H2X10460   3.611   2.083   3.407  2.8005  0.6982 -0.2107
  103SAPE   H2Y10461   3.666   1.919   3.377 -2.0199 -1.4430  3.2267
  103SAPE   C2310462   3.841   1.629   3.274 -0.2590 -0.1478 -0.2998
  103SAPE   H3R10463   3.810   1.729   3.312  0.1806 -0.5235  1.0883
  103SAPE   H3S10464   3.948   1.607   3.293 -0.1135 -0.2145 -1.1362
  103SAPE   C2410465   3.749   1.517   3.336 -0.7256 -0.8292  0.3563
  103SAPE   H4R10466   3.643   1.546   3.351 -1.2238 -3.2283  2.1264
  103SAPE   H4S10467   3.779   1.517   3.444 -2.0168  1.7889  0.8120
  103SAPE   C2510468   3.759   1.392   3.254  0.3258  0.4595 -0.2420
  103SAPE   H5R10469   3.715   1.392   3.154  0.3142  0.1784 -0.2404
  103SAPE   C2610470   3.832   1.285   3.293  0.2855  0.2040 -0.2263
  103SAPE   H6R10471   3.843   1.197   3.227  1.4059  0.6000 -0.5807
  103SAPE   C2710472   3.912   1.266   3.421 -0.4449  0.3574 -0.1390
  103SAPE   H7R10473   3.848   1.207   3.490  0.7318 -1.6913 -0.7076
  103SAPE   H7S10474   3.924   1.362   3.475 -1.1529  0.2677  0.1868
  103SAPE   C2810475   4.047   1.193   3.412  0.5319  0.2484 -0.4457
  103SAPE   H8R10476   4.083   1.177   3.309 -0.7209  1.8055 -1.1793
  103SAPE   C2910477   4.109   1.131   3.516 -0.0487  0.9821  0.0415
  103SAPE   H9R10478   4.200   1.076   3.489 -1.0105 -0.1457 -1.0080
  103SAPE  C21010479   4.075   1.130   3.667  0.6109  0.1473 -0.6369
  103SAPE  H10R10480   4.154   1.068   3.716 -1.1931 -0.9361  1.1040
  103SAPE  H10S10481   3.976   1.082   3.687  0.2705  1.3599  0.7890
  103SAPE  C21110482   4.075   1.261   3.739 -0.8959  0.4549 -0.2096
  103SAPE  H11R10483   4.033   1.344   3.681 -1.2600 -0.2682 -1.0216
  103SAPE  C21210484   4.114   1.290   3.866  0.2443  0.1159 -0.0308
  103SAPE  H12R10485   4.098   1.395   3.896 -1.1103  0.3720 -1.4652
  103SAPE  C21310486   4.190   1.194   3.961  0.0037  0.0528 -0.4694
  103SAPE  H13R10487   4.246   1.251   4.037  0.6816 -0.0962 -0.8485
  103SAPE  H13S10488   4.276   1.144   3.913 -0.5951 -0.2957 -1.2034
  103SAPE  C21410489   4.108   1.080   4.026 -0.5535  0.1461 -0.6765
  103SAPE  H14R10490   4.065   1.010   3.954  1.3277  0.1759 -1.8976
  103SAPE  C21510491   4.074   1.069   4.156 -0.8522  0.5557  0.1277
  103SAPE  H15R10492   4.018   0.978   4.181  0.0744 -0.5393 -1.6117
  103SAPE  C21610493   4.112   1.150   4.277  0.7609 -0.3227 -0.3955
  103SAPE  H16R10494   4.026   1.139   4.346 -0.3947  0.4120 -1.6635
  103SAPE  H16S10495   4.129   1.259   4.259 -2.0111  0.6760  2.1898
  103SAPE  C21710496   4.240   1.083   4.327  0.0385 -0.1834  0.3340
  103SAPE  H17R10497   4.329   1.112   4.268  0.8586 -0.3302  1.4625
  103SAPE  H17S10498   4.241   0.972   4.320 -1.4426 -0.2213  0.3661
  103SAPE  C21810499   4.256   1.115   4.470 -0.1905 -0.3061 -0.2690
  103SAPE  H18R10500   4.162   1.095   4.526 -0.5931  0.4788 -0.6471
  103SAPE  H18S10501   4.285   1.222   4.480  0.0653 -0.2845 -1.1837
  103SAPE  C21910502   4.371   1.034   4.529 -0.0339 -0.0755 -0.2872
  103SAPE  H19R10503   4.470   1.069   4.493  0.0244 -1.6220 -1.7632
  103SAPE  H19S10504   4.358   0.930   4.493 -2.3973 -0.3001  0.9679
  103SAPE  C22010505   4.360   1.025   4.685  0.5939  0.1208 -0.4447
  103SAPE  H20R10506   4.356   1.128   4.726  0.4080 -0.4042  0.9052
  103SAPE  H20S10507   4.447   0.966   4.722  0.9021 -0.0407 -1.3927
  103SAPE  H20T10508   4.267   0.966   4.696  0.4754  0.0061 -1.9476
  103SAPE   C3310509   3.454   1.921   3.389  0.6726  0.1684 -0.2908
  103SAPE   H3X10510   3.432   1.841   3.315  1.0020 -1.8103  1.6212
  103SAPE   H3Y10511   3.370   1.994   3.393  1.9085  1.5979  1.9166
  103SAPE   C3410512   3.471   1.833   3.516 -0.6697  0.0037  0.0621
  103SAPE   H4X10513   3.486   1.904   3.601 -0.1648  0.8899 -0.7525
  103SAPE   H4Y10514   3.562   1.771   3.501 -1.0311 -0.1893 -1.4917
  103SAPE   C3510515   3.349   1.744   3.546  1.0410  0.1117  0.0510
  103SAPE   H5X10516   3.337   1.694   3.447 -0.2641 -0.9478  0.7128
  103SAPE   H5Y10517   3.251   1.794   3.563  1.0436  0.4551 -0.8754
  103SAPE   C3610518   3.382   1.647   3.655 -0.3289 -0.2698 -0.3284
  103SAPE   H6X10519   3.400   1.707   3.747  0.6166  2.9303 -2.4621
  103SAPE   H6Y10520   3.481   1.596   3.653  0.3616  0.6778  2.7809
  103SAPE   C3710521   3.258   1.554   3.687 -0.2626 -0.8739 -0.8741
  103SAPE   H7X10522   3.266   1.459   3.631  0.8153 -0.2946 -1.7509
  103SAPE   H7Y10523   3.166   1.605   3.651  0.2606 -1.2810 -2.9093
  103SAPE   C3810524   3.250   1.529   3.841 -0.0674 -0.3598 -0.2188
  103SAPE   H8X10525   3.230   1.624   3.897 -0.1828 -0.3716 -0.2387
  103SAPE   H8Y10526   3.348   1.496   3.881  0.1928 -1.7950 -1.9186
  103SAPE   C3910527   3.138   1.439   3.886 -0.3520  0.0218  0.5000
  103SAPE   H9X10528   3.128   1.344   3.830 -1.0648  0.3851 -0.0004
  103SAPE   H9Y10529   3.042   1.492   3.870 -2.1508 -3.2409 -0.5212
  103SAPE  C31010530   3.144   1.406   4.042  0.0263 -0.1220 -0.0617
  103SAPE  H10X10531   3.249   1.374   4.061  0.8778  1.1045 -2.2822
  103SAPE  H10Y10532   3.073   1.321   4.050  0.3590 -0.3780  0.1788
  103SAPE  C31110533   3.111   1.513   4.142 -0.5248  0.3890 -0.4595
  103SAPE  H11X10534   3.014   1.550   4.103 -0.9354 -0.5766 -0.3813
  103SAPE  H11Y10535   3.189   1.592   4.137 -0.4053  0.1686 -2.6218
  103SAPE  C31210536   3.098   1.464   4.290 -0.8689 -0.7059 -0.3983
  103SAPE  H12X10537   3.039   1.370   4.295  0.3880 -1.5251 -0.5930
  103SAPE  H12Y10538   3.052   1.547   4.347  3.3302  2.2408 -0.8101
  103SAPE  C31310539   3.240   1.453   4.351  0.4611 -0.0733  0.2339
  103SAPE  H13X10540   3.304   1.543   4.335 -0.3660  0.9413  2.3054
  103SAPE  H13Y10541   3.285   1.365   4.301 -0.1428 -0.5678  0.5491
  103SAPE  C31410542   3.242   1.413   4.497 -0.8423 -0.1143  0.5009
  103SAPE  H14X10543   3.158   1.352   4.536 -0.2446 -0.1313  1.8140
  103SAPE  H14Y10544   3.236   1.508   4.554 -0.2928  1.3492 -1.7470
  103SAPE  C31510545   3.369   1.335   4.525  0.4252 -0.8925 -0.3043
  103SAPE  H15X10546   3.462   1.390   4.499 -1.0273  0.9309 -1.9114
  103SAPE  H15Y10547   3.362   1.256   4.447  1.2582  1.6629 -3.1833
  103SAPE  C31610548   3.378   1.281   4.668  0.2126  0.1800 -0.1920
  103SAPE  H16X10549   3.488   1.270   4.678  0.5823  2.8592 -0.5846
  103SAPE  H16Y10550   3.328   1.185   4.690  1.8995 -0.4370  1.1384
  103SAPE  C31710551   3.352   1.383   4.771  0.1462 -0.0981  0.2109
  103SAPE  H17X10552   3.247   1.419   4.761  0.4594  0.6540 -0.5331
  103SAPE  H17Y10553   3.421   1.467   4.748 -0.4053  0.1469 -0.5621
  103SAPE  C31810554   3.369   1.341   4.913  0.7945 -0.3480 -0.5956
  103SAPE  H18X10555   3.299   1.256   4.927  1.9810 -1.6819 -2.3075
  103SAPE  H18Y10556   3.352   1.421   4.988  0.3821 -1.6705  0.7773
  103SAPE  H18Z10557   3.475   1.316   4.936  0.3883 -3.0234 -1.3015
  104SAPE     N10558   3.763   1.174   2.404  0.0357 -0.4751  0.0794
  104SAPE   HN110559   3.701   1.182   2.321  2.3595 -1.9126 -1.9048
  104SAPE   HN210560   3.708   1.172   2.492 -1.8386 -1.2603 -1.0447
  104SAPE   HN310561   3.830   1.253   2.400 -0.5843  0.0621  0.1683
  104SAPE   C1210562   3.849   1.051   2.409  0.4672 -0.4323 -0.1839
  104SAPE  H12A10563   3.918   1.068   2.324  1.1781  1.1488  0.6523
  104SAPE  H12B10564   3.774   0.970   2.400  0.9509 -1.1854  1.9886
  104SAPE   C1110565   3.902   1.035   2.549  0.1627  1.0442  0.0791
  104SAPE  H11A10566   3.956   1.127   2.583  1.4564  0.0101  0.9471
  104SAPE  H11B10567   3.975   0.951   2.553 -0.9096  0.0435 -0.7969
  104SAPE     P10568   3.784   1.042   2.798 -0.2689  0.0451  0.3627
  104SAPE   O1310569   3.690   1.157   2.809 -0.0662 -0.2727 -0.4527
  104SAPE   O1410570   3.756   0.927   2.888 -0.0295  0.3664 -0.3550
  104SAPE   O1210571   3.800   0.998   2.645 -0.2108 -0.6240  0.3097
  104SAPE   O1110572   3.930   1.091   2.824 -0.3923 -0.0905  0.0587
  104SAPE    C110573   4.036   1.017   2.880 -0.0989  0.4448 -0.6168
  104SAPE    HA10574   4.018   0.907   2.879  2.1457  0.0221 -0.3194
  104SAPE    HB10575   4.131   1.039   2.827  0.4101  0.7061  0.3763
  104SAPE    C210576   4.069   1.073   3.022  0.1361  0.2008 -0.1302
  104SAPE    HS10577   4.170   1.035   3.049  0.3728  1.0920  0.2607
  104SAPE   O2110578   3.978   1.030   3.121  0.7560  0.3325 -0.6632
  104SAPE   C2110579   3.962   0.897   3.135  0.2944  0.3953  0.2674
  104SAPE   O2210580   4.040   0.812   3.093 -1.1443 -0.1020 -0.2685
  104SAPE   C2210581   3.839   0.873   3.224  0.5803  0.0675 -1.0695
  104SAPE   H2R10582   3.856   0.946   3.306 -0.1367  0.9985 -1.7325
  104SAPE   H2S10583   3.746   0.889   3.165  0.0232 -1.0976 -0.5524
  104SAPE    C310584   4.077   1.224   3.002 -0.1065 -0.1389 -0.1334
  104SAPE    HX10585   3.973   1.260   2.991 -0.3532 -1.1836 -1.5775
  104SAPE    HY10586   4.116   1.253   2.902 -1.5425  0.0184 -0.6728
  104SAPE   O3110587   4.136   1.286   3.114  0.1830  0.1838 -0.7584
  104SAPE   C3110588   4.128   1.425   3.107 -0.6815 -0.0991  1.0490
  104SAPE   O3210589   4.096   1.489   3.004 -0.0444  0.3041 -0.2119
  104SAPE   C3210590   4.186   1.491   3.231 -0.4055 -0.0897  0.2897
  104SAPE   H2X10591   4.107   1.486   3.310 -0.8410 -1.4760 -0.2046
  104SAPE   H2Y10592   4.207   1.597   3.205  0.0080 -0.6713 -1.9508
  104SAPE   C2310593   3.851   0.731   3.291  0.1046  0.3118 -0.1142
  104SAPE   H3R10594   3.912   0.726   3.384 -0.9404  2.1072  0.7277
  104SAPE   H3S10595   3.892   0.666   3.212 -0.1464  2.3929 -2.0476
  104SAPE   C2410596   3.713   0.682   3.332 -0.2121  1.2275 -0.2263
  104SAPE   H4R10597   3.728   0.574   3.355 -0.5645  0.9919 -1.0552
  104SAPE   H4S10598   3.636   0.679   3.251  0.4768 -1.2549 -0.8824
  104SAPE   C2510599   3.643   0.755   3.439  0.5103 -0.5392  0.2461
  104SAPE   H5R10600   3.587   0.841   3.401  2.1963 -0.3043 -1.9238
  104SAPE   C2610601   3.650   0.725   3.565 -0.0013 -0.2326  0.2158
  104SAPE   H6R10602   3.583   0.780   3.633 -0.1912  0.8454 -0.8031
  104SAPE   C2710603   3.723   0.609   3.627 -0.1568  0.4219 -0.2909
  104SAPE   H7R10604   3.763   0.541   3.550 -3.1698 -0.0137 -1.6203
  104SAPE   H7S10605   3.655   0.551   3.693  1.1871  0.5531  1.2769
  104SAPE   C2810606   3.831   0.661   3.717 -1.1475  0.5513 -0.5547
  104SAPE   H8R10607   3.928   0.676   3.666 -1.2526  0.1591 -0.8730
  104SAPE   C2910608   3.824   0.680   3.854  0.1226 -0.7235 -0.1486
  104SAPE   H9R10609   3.907   0.720   3.915 -0.6091 -0.5138  0.7234
  104SAPE  C21010610   3.702   0.656   3.942  0.3809 -0.7207 -0.2028
  104SAPE  H10R10611   3.617   0.668   3.871  0.7724  0.8134 -0.4534
  104SAPE  H10S10612   3.697   0.725   4.028 -0.0691  0.4402 -1.1288
  104SAPE  C21110613   3.685   0.516   3.988 -0.4315  0.0443 -0.3820
  104SAPE  H11R10614   3.703   0.438   3.912  1.4860  0.3138 -0.2537
  104SAPE  C21210615   3.677   0.474   4.117 -0.3327 -0.4662  0.3606
  104SAPE  H12R10616   3.686   0.368   4.144  0.4334 -0.1634  1.3650
  104SAPE  C21310617   3.694   0.551   4.245 -0.2666  0.7707  0.4504
  104SAPE  H13R10618   3.652   0.654   4.245 -2.3772 -0.0541  1.0654
  104SAPE  H13S10619   3.801   0.581   4.251 -0.6117  1.7535  2.6378
  104SAPE  C21410620   3.652   0.487   4.379 -0.2806 -0.0695 -0.3657
  104SAPE  H14R10621   3.565   0.419   4.384 -0.1124 -0.2692 -0.1240
  104SAPE  C21510622   3.714   0.517   4.500  0.2319 -0.0413  0.4262
  104SAPE  H15R10623   3.675   0.462   4.587 -1.7665  0.8422  0.1312
  104SAPE  C21610624   3.819   0.623   4.523 -0.1681 -0.2454  0.0363
  104SAPE  H16R10625   3.869   0.681   4.442 -1.5316  1.2784  0.2340
  104SAPE  H16S10626   3.888   0.587   4.603 -0.7789  1.4814  1.4144
  104SAPE  C21710627   3.745   0.745   4.593  0.1013 -0.4845 -0.7508
  104SAPE  H17R10628   3.690   0.717   4.685  0.7075  2.4658  0.6273
  104SAPE  H17S10629   3.668   0.796   4.531  0.7970  0.6007 -0.7402
  104SAPE  C21810630   3.841   0.866   4.620 -0.2281 -0.3080  0.4395
  104SAPE  H18R10631   3.866   0.908   4.520  0.3458  0.0509  0.7320
  104SAPE  H18S10632   3.935   0.834   4.669  0.4111 -0.5093 -0.8685
  104SAPE  C21910633   3.793   0.996   4.690 -0.1089  0.2717  0.1130
  104SAPE  H19R10634   3.787   0.979   4.799 -0.3613  1.7062  0.3463
  104SAPE  H19S10635   3.692   1.023   4.651  0.1401 -0.8347 -1.3910
  104SAPE  C22010636   3.889   1.117   4.670  0.9009  0.5291 -0.2476
  104SAPE  H20R10637   3.984   1.112   4.727  1.5007  1.5869 -1.1382
  104SAPE  H20S10638   3.836   1.205   4.712  2.0091  0.5661  1.1285
  104SAPE  H20T10639   3.905   1.149   4.565  0.2556  0.3253 -0.4184
  104SAPE   C3310640   4.312   1.421   3.295 -0.0947 -0.4401  0.6871
  104SAPE   H3X10641   4.394   1.428   3.220  1.4789  1.8238  2.4455
  104SAPE   H3Y10642   4.300   1.319   3.337 -0.5080 -0.3863  0.7093
  104SAPE   C3410643   4.373   1.502   3.407 -0.1270 -0.3268 -0.8798
  104SAPE   H4X10644   4.406   1.603   3.375  1.1172 -0.4123  0.0542
  104SAPE   H4Y10645   4.466   1.451   3.438 -1.4084 -2.0335  0.3623
  104SAPE   C3510646   4.271   1.515   3.523  0.4239  0.3821 -0.1592
  104SAPE   H5X10647   4.216   1.418   3.522 -0.3519  0.8053 -2.1678
  104SAPE   H5Y10648   4.189   1.582   3.489 -0.2039 -1.3675 -2.3032
  104SAPE   C3610649   4.338   1.548   3.660 -0.1121 -0.0799 -0.0805
  104SAPE   H6X10650   4.433   1.603   3.640 -0.6946  0.4988 -1.4204
  104SAPE   H6Y10651   4.354   1.449   3.706 -0.7259 -0.1336  0.0259
  104SAPE   C3710652   4.247   1.636   3.746  0.4003 -0.1213  0.3002
  104SAPE   H7X10653   4.146   1.590   3.742  1.4242 -2.4336 -1.0420
  104SAPE   H7Y10654   4.232   1.736   3.700 -0.5778 -0.3682  0.0493
  104SAPE   C3810655   4.295   1.630   3.891 -0.6425 -0.3486 -0.7373
  104SAPE   H8X10656   4.405   1.646   3.894 -0.6467 -0.3928  2.0515
  104SAPE   H8Y10657   4.281   1.523   3.915  0.7825 -0.8692 -2.0785
  104SAPE   C3910658   4.222   1.739   3.974  0.1806 -0.2918  0.4850
  104SAPE   H9X10659   4.114   1.758   3.953  0.1402  0.1466  1.0456
  104SAPE   H9Y10660   4.269   1.839   3.966 -0.3209 -0.0680  0.2462
  104SAPE  C31010661   4.210   1.724   4.123 -0.5451  0.0004 -0.0244
  104SAPE  H10X10662   4.178   1.824   4.159 -2.8400  0.5755 -3.2669
  104SAPE  H10Y10663   4.310   1.695   4.162 -0.0613 -1.8801 -2.4221
  104SAPE  C31110664   4.103   1.630   4.176 -0.2884 -0.3740 -0.4743
  104SAPE  H11X10665   4.098   1.531   4.124  1.7116 -0.8517  0.1194
  104SAPE  H11Y10666   4.012   1.691   4.164  1.4148  2.1272 -1.5142
  104SAPE  C31210667   4.111   1.607   4.326 -0.5310  0.5378  1.0105
  104SAPE  H12X10668   4.117   1.712   4.362 -2.1905  1.0509 -0.0957
  104SAPE  H12Y10669   4.212   1.563   4.343 -0.1020  0.4048 -1.5003
  104SAPE  C31310670   3.993   1.533   4.384  0.0552  0.5903 -0.2156
  104SAPE  H13X10671   3.994   1.429   4.346  2.0481  1.2623 -2.1920
  104SAPE  H13Y10672   3.896   1.575   4.349 -3.0690 -3.5346  2.5905
  104SAPE  C31410673   4.006   1.544   4.533  0.3687 -0.3178 -0.0526
  104SAPE  H14X10674   4.053   1.641   4.563 -1.9616  0.2468  2.0866
  104SAPE  H14Y10675   4.077   1.466   4.566 -0.9928 -1.1558  0.9743
  104SAPE  C31510676   3.873   1.539   4.598 -0.5591 -0.1342 -0.0607
  104SAPE  H15X10677   3.812   1.449   4.572 -1.4751  0.4356  0.0834
  104SAPE  H15Y10678   3.814   1.630   4.575  1.3554  1.2840  0.4543
  104SAPE  C31610679   3.881   1.528   4.754  0.5736  0.0992 -0.4042
  104SAPE  H16X10680   3.953   1.605   4.789 -0.9280  2.1244 -1.5184
  104SAPE  H16Y10681   3.921   1.428   4.780  0.5017  0.2065  0.1444
  104SAPE  C31710682   3.736   1.547   4.822 -0.5795 -0.8494 -0.2852
  104SAPE  H17X10683   3.663   1.487   4.763 -2.2940  0.2728  0.6399
  104SAPE  H17Y10684   3.711   1.655   4.820  2.8798  0.0853 -0.0007
  104SAPE  C31810685   3.727   1.487   4.966 -0.4070  0.5792  0.1357
  104SAPE  H18X10686   3.723   1.376   4.962 -0.2590  0.5860 -0.2164
  104SAPE  H18Y10687   3.634   1.510   5.022  0.5893  1.7850  1.3632
  104SAPE  H18Z10688   3.813   1.520   5.029  0.7924 -1.0205 -0.5909
  105SAPE     N10689   5.368   6.741   2.416  0.4146  0.3400  0.3884
  105SAPE   HN110690   5.316   6.830   2.427 -0.6102 -0.3640  1.4702
  105SAPE   HN210691   5.470   6.747   2.397  0.1131 -0.7524 -1.9184
  105SAPE   HN310692   5.329   6.687   2.336  2.3924 -0.4886 -0.0881
  105SAPE   C1210693   5.361   6.644   2.535 -0.0533 -0.3198  0.6629
  105SAPE  H12A10694   5.395   6.544   2.502 -0.0738  0.3315 -1.4663
  105SAPE  H12B10695   5.251   6.635   2.546 -0.7184  0.8639 -3.3716
  105SAPE   C1110696   5.416   6.697   2.662 -0.6404  0.5614  0.4476
  105SAPE  H11A10697   5.392   6.620   2.738  1.2452  0.0639  0.5850
  105SAPE  H11B10698   5.377   6.795   2.699  0.4240  2.4573 -2.9803
  105SAPE     P10699   5.659   6.582   2.658 -0.1417  0.1474  0.3914
  105SAPE   O1310700   5.608   6.463   2.587 -0.3511  0.6543  0.3278
  105SAPE   O1410701   5.792   6.636   2.620  0.2482  0.2942 -0.1577
  105SAPE   O1210702   5.557   6.703   2.637  0.3445  0.0854  0.9822
  105SAPE   O1110703   5.652   6.548   2.809 -0.2912  0.2893  0.1866
  105SAPE    C110704   5.727   6.613   2.912  0.0649  0.4860 -0.0507
  105SAPE    HA10705   5.835   6.589   2.907  0.3071  0.6958  2.7536
  105SAPE    HB10706   5.712   6.721   2.893  1.2181  0.4575 -1.2985
  105SAPE    C210707   5.685   6.582   3.061  0.3137 -0.4333  0.1624
  105SAPE    HS10708   5.769   6.609   3.128  1.0620 -0.1837 -0.8548
  105SAPE   O2110709   5.647   6.443   3.071 -0.4263 -0.8080  0.2080
  105SAPE   C2110710   5.751   6.355   3.057  0.1386 -0.2520  0.2255
  105SAPE   O2210711   5.866   6.375   3.044  0.2620  0.4258  0.2342
  105SAPE   C2210712   5.684   6.218   3.035 -0.4568  0.2236 -0.2482
  105SAPE   H2R10713   5.710   6.152   3.121 -1.3771  0.7856  0.4833
  105SAPE   H2S10714   5.573   6.225   3.039 -0.6924 -2.4448 -0.4419
  105SAPE    C310715   5.561   6.669   3.107 -0.2575 -0.0784  0.1026
  105SAPE    HX10716   5.478   6.688   3.035 -1.7589 -3.0238  0.9175
  105SAPE    HY10717   5.607   6.770   3.120  1.0148 -0.8804  2.3516
  105SAPE   O3110718   5.503   6.625   3.234 -0.1760 -0.3629 -0.0765
  105SAPE   C3110719   5.391   6.556   3.218 -0.2410  0.4965 -0.6294
  105SAPE   O3210720   5.322   6.537   3.118  0.0656 -0.1761  0.9024
  105SAPE   C3210721   5.356   6.480   3.342 -0.7501  0.0955 -0.2559
  105SAPE   H2X10722   5.298   6.553   3.402  0.6674  0.6653  0.4667
  105SAPE   H2Y10723   5.443   6.451   3.404 -1.8378 -2.0068  0.3991
  105SAPE   C2310724   5.718   6.152   2.897  0.3967  0.2585  0.4861
  105SAPE   H3R10725   5.826   6.170   2.881  0.2310  0.2768 -0.6800
  105SAPE   H3S10726   5.667   6.199   2.811 -0.1546  1.9062  1.6673
  105SAPE   C2410727   5.700   5.999   2.895  0.6267  0.0712 -0.8647
  105SAPE   H4R10728   5.687   5.961   2.792 -2.5906 -1.1740 -0.1043
  105SAPE   H4S10729   5.597   5.975   2.928  1.0245  1.7091  1.8937
  105SAPE   C2510730   5.806   5.918   2.970  0.6450 -0.3001 -1.1861
  105SAPE   H5R10731   5.905   5.914   2.922  0.3999  3.6464 -2.3707
  105SAPE   C2610732   5.789   5.841   3.083  0.4450  0.4050  0.1922
  105SAPE   H6R10733   5.870   5.772   3.111 -0.3834 -0.4295  0.5784
  105SAPE   C2710734   5.668   5.821   3.170  0.8179 -0.6772  0.2169
  105SAPE   H7R10735   5.605   5.912   3.159 -0.0171 -1.1025  1.3596
  105SAPE   H7S10736   5.695   5.810   3.277 -0.1974  0.9631  0.6865
  105SAPE   C2810737   5.588   5.703   3.130 -0.6313  0.6917  0.2694
  105SAPE   H8R10738   5.647   5.635   3.065 -1.3853  0.1256  0.1645
  105SAPE   C2910739   5.458   5.687   3.138  0.6303 -0.2074  0.5895
  105SAPE   H9R10740   5.421   5.593   3.096 -0.9749  0.2837  0.8642
  105SAPE  C21010741   5.350   5.764   3.208 -0.0199  0.1762 -0.2425
  105SAPE  H10R10742   5.391   5.833   3.284  0.4704  0.7704 -1.0339
  105SAPE  H10S10743   5.280   5.695   3.260  0.3814  1.8913  2.7790
  105SAPE  C21110744   5.263   5.846   3.113 -0.5983  0.6421 -0.1917
  105SAPE  H11R10745   5.301   5.853   3.010 -0.0561 -0.7976 -0.1081
  105SAPE  C21210746   5.158   5.916   3.154  0.1548  0.1080 -0.0194
  105SAPE  H12R10747   5.103   5.972   3.077  0.1642  0.4575  0.2263
  105SAPE  C21310748   5.095   5.919   3.292  0.3559  0.2595  0.2637
  105SAPE  H13R10749   5.058   6.022   3.310 -2.8280 -0.7223 -0.1012
  105SAPE  H13S10750   5.173   5.899   3.368 -0.4945  2.4953  1.8471
  105SAPE  C21410751   4.978   5.828   3.304  0.2393 -0.1197 -0.5026
  105SAPE  H14R10752   4.905   5.834   3.223  0.4663 -3.8784 -1.1897
  105SAPE  C21510753   4.960   5.733   3.398  0.4463 -0.3440 -0.5941
  105SAPE  H15R10754   4.874   5.665   3.400  1.8354 -2.1867  1.3995
  105SAPE  C21610755   5.047   5.710   3.523  0.8802  0.0524 -0.4148
  105SAPE  H16R10756   5.141   5.770   3.521  0.9844  0.0206  1.5486
  105SAPE  H16S10757   5.081   5.605   3.536  0.6923 -0.0357 -0.6275
  105SAPE  C21710758   4.971   5.762   3.646  0.2725  0.1982 -0.1482
  105SAPE  H17R10759   4.867   5.723   3.631  0.3807 -0.2667  0.2768
  105SAPE  H17S10760   4.979   5.871   3.629 -0.0461 -0.0570 -2.2518
  105SAPE  C21810761   5.032   5.716   3.776  0.2557 -0.5850 -0.1532
  105SAPE  H18R10762   5.130   5.764   3.796  0.5894 -1.2754 -0.0995
  105SAPE  H18S10763   5.057   5.608   3.763 -0.0907 -0.5205 -1.5231
  105SAPE  C21910764   4.932   5.728   3.893 -0.2131 -0.1607 -0.1276
  105SAPE  H19R10765   4.862   5.642   3.904 -2.4556  1.7802  1.7523
  105SAPE  H19S10766   4.867   5.816   3.874  0.1650  0.2256  0.3333
  105SAPE  C22010767   5.007   5.737   4.029 -0.3455  0.1351 -0.0637
  105SAPE  H20R10768   5.025   5.634   4.067  0.1332 -0.2970 -1.3996
  105SAPE  H20S10769   4.936   5.771   4.108 -0.8302 -1.3539  0.1741
  105SAPE  H20T10770   5.091   5.809   4.023  0.2936 -0.6494 -0.8728
  105SAPE   C3310771   5.258   6.367   3.330 -0.8403  0.0368  0.3378
  105SAPE   H3X10772   5.179   6.394   3.257 -0.5602 -0.4668 -0.1615
  105SAPE   H3Y10773   5.210   6.348   3.429 -1.0142 -1.1889  0.0261
  105SAPE   C3410774   5.332   6.239   3.287  0.0225 -0.4614  0.4767
  105SAPE   H4X10775   5.385   6.264   3.192  0.9387  0.9004  1.3077
  105SAPE   H4Y10776   5.261   6.157   3.263  1.4964 -1.7849  0.4456
  105SAPE   C3510777   5.422   6.186   3.394 -0.0073 -1.0565 -0.1414
  105SAPE   H5X10778   5.512   6.247   3.419 -2.3443  2.2389  0.9412
  105SAPE   H5Y10779   5.457   6.084   3.368  2.3869 -0.2301 -0.4328
  105SAPE   C3610780   5.349   6.160   3.523  0.1565 -0.0461  0.1187
  105SAPE   H6X10781   5.244   6.126   3.510  0.4106 -1.1533  0.8287
  105SAPE   H6Y10782   5.342   6.254   3.582  3.1621  0.3204  0.0352
  105SAPE   C3710783   5.414   6.061   3.614 -0.2370  0.8731  0.2385
  105SAPE   H7X10784   5.516   6.102   3.632 -0.2404  0.6336  0.8197
  105SAPE   H7Y10785   5.411   5.958   3.572  0.0023  1.5773 -1.6282
  105SAPE   C3810786   5.350   6.068   3.754 -0.1869  0.8387 -0.4384
  105SAPE   H8X10787   5.248   6.024   3.761  0.1892  0.0368  0.2369
  105SAPE   H8Y10788   5.338   6.175   3.779 -0.8681 -0.0150  3.6261
  105SAPE   C3910789   5.449   5.999   3.861 -0.3511 -0.4338  0.6492
  105SAPE   H9X10790   5.555   6.013   3.831 -1.0190 -0.4467 -1.8723
  105SAPE   H9Y10791   5.431   5.889   3.859 -0.4767 -0.4363  1.4862
  105SAPE  C31010792   5.424   6.055   4.001 -0.1668  0.5946  0.5586
  105SAPE  H10X10793   5.319   6.030   4.028 -0.2667 -1.7216 -1.5573
  105SAPE  H10Y10794   5.436   6.166   4.001 -1.9567  0.8276  0.2277
  105SAPE  C31110795   5.516   5.988   4.100 -0.2332  0.0097 -0.7288
  105SAPE  H11X10796   5.622   6.002   4.072 -0.2890 -0.5597 -1.2623
  105SAPE  H11Y10797   5.481   5.882   4.092 -1.0966  0.3358 -1.4104
  105SAPE  C31210798   5.495   6.041   4.244 -0.0675 -0.7113  0.1161
  105SAPE  H12X10799   5.387   6.063   4.256  0.5818  2.8753  0.5262
  105SAPE  H12Y10800   5.558   6.132   4.246  0.7274 -1.2154 -0.8976
  105SAPE  C31310801   5.543   5.939   4.348 -0.1860 -0.0188 -0.1580
  105SAPE  H13X10802   5.648   5.907   4.332 -0.0390  0.5607 -0.3914
  105SAPE  H13Y10803   5.485   5.844   4.350 -0.0622 -0.0981  1.1740
  105SAPE  C31410804   5.536   6.006   4.490 -0.9397 -0.3270  0.1613
  105SAPE  H14X10805   5.553   6.115   4.481 -0.0420 -0.6152 -2.6712
  105SAPE  H14Y10806   5.635   5.973   4.530 -0.6215 -2.0323 -1.8001
  105SAPE  C31510807   5.414   5.975   4.582 -0.7715  0.0787  0.1803
  105SAPE  H15X10808   5.434   5.881   4.637 -0.9088  0.4210  0.8260
  105SAPE  H15Y10809   5.330   5.958   4.511  0.3722 -0.1352 -1.1504
  105SAPE  C31610810   5.383   6.085   4.687 -0.1413 -0.7154  0.3074
  105SAPE  H16X10811   5.400   6.176   4.626 -1.7722 -1.6237 -1.6441
  105SAPE  H16Y10812   5.451   6.096   4.774 -1.2550  0.3168  1.0794
  105SAPE  C31710813   5.243   6.094   4.741  0.4046  0.0753 -0.2987
  105SAPE  H17X10814   5.218   5.993   4.780  2.3518 -0.2485  0.2343
  105SAPE  H17Y10815   5.178   6.125   4.656 -1.9282  0.0960  1.4065
  105SAPE  C31810816   5.220   6.204   4.852  0.0425 -0.1359  0.8889
  105SAPE  H18X10817   5.111   6.214   4.874 -0.2750 -1.1724 -0.1348
  105SAPE  H18Y10818   5.255   6.301   4.811 -0.1178 -0.2627  0.4541
  105SAPE  H18Z10819   5.273   6.188   4.949  1.4642  2.8019  0.7131
  106SAPE     N10820   0.924   1.650   2.870 -0.1606 -0.2315  0.5056
  106SAPE   HN110821   1.009   1.663   2.929  0.5411 -2.1554 -0.0112
  106SAPE   HN210822   0.843   1.685   2.925 -0.1641  0.3694  0.1286
  106SAPE   HN310823   0.915   1.552   2.837  0.0601 -0.1253  0.1201
  106SAPE   C1210824   0.935   1.748   2.757  0.6610 -0.0836  0.3111
  106SAPE  H12A10825   0.829   1.772   2.736  0.7602  0.5150  0.4919
  106SAPE  H12B10826   0.990   1.697   2.675  0.6632 -2.2414  1.5672
  106SAPE   C1110827   0.990   1.884   2.800  0.4394  0.0648 -0.0476
  106SAPE  H11A10828   1.095   1.900   2.769 -0.0026  2.1032 -0.6801
  106SAPE  H11B10829   1.003   1.888   2.910  0.2087  1.1018 -0.0452
  106SAPE     P10830   0.820   2.073   2.846 -0.3067 -0.0629 -0.3482
  106SAPE   O1310831   0.754   2.187   2.775  0.1572  0.2955 -0.3540
  106SAPE   O1410832   0.718   1.978   2.897 -0.9670  0.4251 -0.6951
  106SAPE   O1210833   0.907   1.993   2.754  0.2112  0.2222 -0.0756
  106SAPE   O1110834   0.921   2.117   2.954 -0.1369  0.4175  0.0621
  106SAPE    C110835   1.023   2.211   2.940  0.2591  0.0516  0.8372
  106SAPE    HA10836   1.077   2.195   2.845 -0.0784  0.1173  0.6320
  106SAPE    HB10837   0.984   2.315   2.929 -1.1267 -0.4581  0.8203
  106SAPE    C210838   1.133   2.202   3.048 -0.5440 -0.0081  0.0150
  106SAPE    HS10839   1.166   2.096   3.045  3.2962  1.0330 -0.8697
  106SAPE   O2110840   1.069   2.252   3.166  0.1711  0.4953 -0.4424
  106SAPE   C2110841   1.030   2.153   3.249  0.4415  0.1445 -0.7908
  106SAPE   O2210842   1.060   2.032   3.235  0.0693 -0.6144  0.1671
  106SAPE   C2210843   0.964   2.206   3.370  0.7298 -0.2427  0.7830
  106SAPE   H2R10844   0.921   2.307   3.354  0.9424 -0.0637  1.2995
  106SAPE   H2S10845   0.889   2.136   3.414  0.9160  1.5740  4.3855
  106SAPE    C310846   1.269   2.266   3.017 -0.0041 -0.1193  0.5816
  106SAPE    HX10847   1.266   2.365   2.968  0.7970  0.3797  1.5013
  106SAPE    HY10848   1.322   2.197   2.947  0.6697  1.0981 -0.1528
  106SAPE   O3110849   1.356   2.267   3.133  0.0447  0.0541  0.0100
  106SAPE   C3110850   1.435   2.367   3.157  0.1820 -0.1300 -0.0436
  106SAPE   O3210851   1.445   2.476   3.110 -0.3072 -0.0764 -0.0381
  106SAPE   C3210852   1.515   2.321   3.282 -0.2141  0.7612 -1.1151
  106SAPE   H2X10853   1.566   2.228   3.250 -0.4718  1.3498 -3.4151
  106SAPE   H2Y10854   1.453   2.299   3.372 -0.3782  0.3571 -1.3300
  106SAPE   C2310855   1.062   2.221   3.490  0.6107 -0.1116  0.1121
  106SAPE   H3R10856   1.121   2.315   3.480 -0.2732  0.9337  3.4653
  106SAPE   H3S10857   1.135   2.138   3.500  0.1714 -0.4628  0.4401
  106SAPE   C2410858   1.001   2.243   3.632 -0.3253  0.5470  1.0049
  106SAPE   H4R10859   1.090   2.246   3.699 -0.1562 -2.2855  1.0026
  106SAPE   H4S10860   0.931   2.163   3.664  1.1647 -0.2278  2.4613
  106SAPE   C2510861   0.931   2.376   3.630 -0.1378  0.2672 -0.5045
  106SAPE   H5R10862   0.836   2.380   3.575 -0.3399  2.6518 -0.0841
  106SAPE   C2610863   0.951   2.479   3.713 -0.4523  0.4245 -0.4362
  106SAPE   H6R10864   0.894   2.573   3.703 -1.5442  0.1126  2.2065
  106SAPE   C2710865   1.053   2.494   3.819  0.1284 -0.1593  0.1443
  106SAPE   H7R10866   1.019   2.587   3.870 -1.4264 -0.1346 -0.8886
  106SAPE   H7S10867   1.149   2.528   3.775 -1.2291  0.9640 -2.1148
  106SAPE   C2810868   1.070   2.388   3.920 -0.0199 -0.1608 -0.2698
  106SAPE   H8R10869   1.040   2.284   3.903 -0.4825  0.0793 -0.9779
  106SAPE   C2910870   1.120   2.413   4.043 -0.0394 -0.2582  0.2874
  106SAPE   H9R10871   1.149   2.330   4.110  0.7980  0.3557  0.7073
  106SAPE  C21010872   1.172   2.545   4.083 -0.5335 -0.2671 -0.2658
  106SAPE  H10R10873   1.094   2.600   4.140 -0.7614 -0.8840  0.0357
  106SAPE  H10S10874   1.191   2.600   3.989  0.3016 -1.2385 -0.6849
  106SAPE  C21110875   1.307   2.521   4.149  0.1987  0.6484 -0.1095
  106SAPE  H11R10876   1.387   2.467   4.097  1.0890  1.4592  0.3648
  106SAPE  C21210877   1.359   2.584   4.261 -0.2872 -0.3590  0.2817
  106SAPE  H12R10878   1.447   2.545   4.315 -0.8066 -1.7541  0.1432
  106SAPE  C21310879   1.296   2.674   4.349  0.1211 -0.1941  0.1673
  106SAPE  H13R10880   1.243   2.614   4.426 -0.8491  2.0858  1.3784
  106SAPE  H13S10881   1.209   2.718   4.296  0.6605  2.1021  1.0960
  106SAPE  C21410882   1.378   2.778   4.425  0.6850  0.3613 -0.0718
  106SAPE  H14R10883   1.396   2.879   4.384  0.7873  1.7659  3.1324
  106SAPE  C21510884   1.444   2.755   4.544  0.6156  0.7837  0.9008
  106SAPE  H15R10885   1.508   2.824   4.599  1.6592  0.4792  0.0885
  106SAPE  C21610886   1.446   2.630   4.630  0.2921  0.4888 -1.0695
  106SAPE  H16R10887   1.460   2.538   4.570  0.0093 -0.3831  0.1616
  106SAPE  H16S10888   1.351   2.618   4.686  0.6689  1.0123 -0.3112
  106SAPE  C21710889   1.571   2.636   4.723 -0.2689 -0.4401  0.1720
  106SAPE  H17R10890   1.561   2.721   4.794 -1.4022 -1.7106  1.6106
  106SAPE  H17S10891   1.664   2.641   4.663 -0.9710  0.0602 -0.9186
  106SAPE  C21810892   1.582   2.522   4.827 -0.5271 -0.2037  0.0451
  106SAPE  H18R10893   1.686   2.525   4.867  0.4091 -1.8631 -2.0186
  106SAPE  H18S10894   1.576   2.425   4.774 -1.7223 -0.2280  0.2108
  106SAPE  C21910895   1.456   2.520   4.920  0.2220  0.7047 -0.5481
  106SAPE  H19R10896   1.366   2.488   4.863  1.6918 -1.6970 -1.6951
  106SAPE  H19S10897   1.453   2.627   4.948 -4.7153  1.2637 -2.3583
  106SAPE  C22010898   1.483   2.426   5.035  0.1088 -0.1330 -0.1598
  106SAPE  H20R10899   1.492   2.320   5.002  0.1781 -0.6952  1.5330
  106SAPE  H20S10900   1.405   2.429   5.114 -0.0401 -2.5568 -0.1432
  106SAPE  H20T10901   1.577   2.450   5.090 -0.6788  0.1097  1.1412
  106SAPE   C3310902   1.626   2.420   3.312 -0.3223 -0.1501 -0.5523
  106SAPE   H3X10903   1.575   2.518   3.320 -2.8811 -1.3785 -0.6239
  106SAPE   H3Y10904   1.693   2.423   3.224  1.4103  1.7505  0.7364
  106SAPE   C3410905   1.723   2.380   3.429 -0.3240 -0.0213 -0.3437
  106SAPE   H4X10906   1.823   2.358   3.387  0.7731  0.2714  1.9625
  106SAPE   H4Y10907   1.685   2.281   3.461 -0.7320  0.5811  1.1188
  106SAPE   C3510908   1.733   2.477   3.548  0.7784  0.0316 -0.4998
  106SAPE   H5X10909   1.632   2.485   3.595  0.3674 -0.2711 -1.3209
  106SAPE   H5Y10910   1.772   2.575   3.513  0.3423  1.1505  1.9184
  106SAPE   C3610911   1.836   2.433   3.656 -0.7690 -0.0184  0.0699
  106SAPE   H6X10912   1.939   2.418   3.616  0.0279  1.6844  1.3846
  106SAPE   H6Y10913   1.805   2.329   3.681 -0.2223 -0.2017 -0.0014
  106SAPE   C3710914   1.835   2.527   3.778  0.4561  0.8593  0.1326
  106SAPE   H7X10915   1.740   2.520   3.835 -0.3561  0.3125 -1.2240
  106SAPE   H7Y10916   1.833   2.634   3.750  0.4457  0.4804 -1.4120
  106SAPE   C3810917   1.961   2.499   3.863  0.0961 -0.0162 -0.2530
  106SAPE   H8X10918   2.053   2.520   3.805 -0.2496  1.2338 -0.3635
  106SAPE   H8Y10919   1.974   2.394   3.898  0.9145  0.1593 -0.0112
  106SAPE   C3910920   1.969   2.598   3.984 -0.3114 -0.0954 -0.3710
  106SAPE   H9X10921   1.879   2.605   4.049  2.2593  1.7747  3.3332
  106SAPE   H9Y10922   1.981   2.700   3.941 -1.3179 -0.2554 -1.0848
  106SAPE  C31010923   2.074   2.551   4.080 -0.1245 -0.1646 -1.3440
  106SAPE  H10X10924   2.171   2.528   4.030  1.5465  1.0133  1.1573
  106SAPE  H10Y10925   2.047   2.448   4.110  1.6832 -0.2676  0.1540
  106SAPE  C31110926   2.088   2.646   4.201 -0.4313  0.9251  0.0632
  106SAPE  H11X10927   1.994   2.636   4.259 -0.2630 -2.4310 -0.0605
  106SAPE  H11Y10928   2.093   2.750   4.163 -2.4438  0.2002 -2.4445
  106SAPE  C31210929   2.202   2.616   4.305  0.2056  0.7349  0.3611
  106SAPE  H12X10930   2.296   2.644   4.253 -0.1643 -0.5593 -1.0941
  106SAPE  H12Y10931   2.197   2.507   4.323 -4.3817  0.1620 -2.6967
  106SAPE  C31310932   2.182   2.700   4.438  0.1338  0.3484 -0.1072
  106SAPE  H13X10933   2.098   2.660   4.498  0.1393  1.0277  0.3668
  106SAPE  H13Y10934   2.161   2.807   4.415  1.3505  0.8983  1.1641
  106SAPE  C31410935   2.307   2.692   4.528 -0.6410 -0.7415 -0.1073
  106SAPE  H14X10936   2.390   2.726   4.462 -0.4220  3.4923  2.0211
  106SAPE  H14Y10937   2.312   2.584   4.556 -0.8602 -0.6231  0.3944
  106SAPE  C31510938   2.280   2.790   4.641  0.3324  0.2805 -0.4166
  106SAPE  H15X10939   2.175   2.810   4.673  0.3816 -0.9682  0.6435
  106SAPE  H15Y10940   2.323   2.891   4.624 -2.7319  1.7005 -0.4395
  106SAPE  C31610941   2.335   2.736   4.780 -0.3657  0.2422 -0.6000
  106SAPE  H16X10942   2.304   2.630   4.779  1.3121 -0.2899  0.0720
  106SAPE  H16Y10943   2.292   2.785   4.870 -0.4559  0.4296 -0.7447
  106SAPE  C31710944   2.488   2.755   4.785  0.5660 -0.3995 -0.8107
  106SAPE  H17X10945   2.521   2.861   4.774  0.1585 -0.1171  0.4992
  106SAPE  H17Y10946   2.530   2.694   4.702  0.7944 -0.8946 -0.3313
  106SAPE  C31810947   2.567   2.685   4.910 -0.7039 -0.3141  0.1661
  106SAPE  H18X10948   2.545   2.734   5.007 -0.1970  1.0173 -0.3634
  106SAPE  H18Y10949   2.675   2.707   4.894 -0.6934 -0.1934  0.4059
  106SAPE  H18Z10950   2.544   2.577   4.915 -0.4862 -0.5095 -1.8556
  107SAPE     N10951   0.873   6.740   2.478  0.1769 -0.7537  0.2259
  107SAPE   HN110952   0.838   6.829   2.437  0.0858 -1.3767 -1.0770
  107SAPE   HN210953   0.947   6.765   2.547 -2.6831  1.5378  2.7314
  107SAPE   HN310954   0.915   6.684   2.401 -0.8382 -3.2483  1.3700
  107SAPE   C1210955   0.762   6.679   2.555  0.0624 -0.1651 -0.0392
  107SAPE  H12A10956   0.676   6.651   2.490 -0.7739  1.5095  0.2810
  107SAPE  H12B10957   0.729   6.756   2.628  0.2816 -1.2786  1.2798
  107SAPE   C1110958   0.812   6.555   2.625 -0.3475 -0.1928 -0.8334
  107SAPE  H11A10959   0.727   6.507   2.679 -0.2755  0.6133  0.0244
  107SAPE  H11B10960   0.890   6.582   2.700  0.5077  0.6868 -2.0048
  107SAPE     P10961   0.785   6.356   2.456  0.1317 -0.4106 -0.4640
  107SAPE   O1310962   0.654   6.412   2.412 -0.3167  0.0675 -0.1868
  107SAPE   O1410963   0.863   6.275   2.363 -0.0608 -0.2559  0.5514
  107SAPE   O1210964   0.872   6.462   2.527 -0.1279  0.0664 -0.4201
  107SAPE   O1110965   0.755   6.262   2.582  0.2217  0.8368 -0.0195
  107SAPE    C110966   0.857   6.181   2.637 -0.5276  0.3546  0.1215
  107SAPE    HA10967   0.871   6.091   2.573  0.7817  2.1382 -2.2362
  107SAPE    HB10968   0.958   6.228   2.633 -0.9676  1.2675 -0.4152
  107SAPE    C210969   0.838   6.129   2.785  0.0013 -0.2682  0.3674
  107SAPE    HS10970   0.738   6.086   2.803  0.5379 -1.8509 -0.2232
  107SAPE   O2110971   0.865   6.237   2.876 -0.1655  0.5043  0.3906
  107SAPE   C2110972   0.756   6.306   2.912 -0.0640  0.1699 -0.4046
  107SAPE   O2210973   0.644   6.290   2.863 -0.4526 -0.0928  0.3790
  107SAPE   C2210974   0.783   6.395   3.035  0.1687  0.3624 -0.2019
  107SAPE   H2R10975   0.765   6.339   3.129  1.3535 -0.6928 -0.5847
  107SAPE   H2S10976   0.890   6.422   3.035  0.1774  0.3294 -0.1121
  107SAPE    C310977   0.932   6.009   2.803 -0.1038 -0.4521 -0.2981
  107SAPE    HX10978   1.033   6.039   2.766  0.5783 -2.6797 -0.3734
  107SAPE    HY10979   0.904   5.917   2.748  1.6493 -1.6397  0.6979
  107SAPE   O3110980   0.939   5.973   2.946  0.4273  0.7722  0.3292
  107SAPE   C3110981   1.050   5.958   3.004 -0.3810  0.3295 -0.2079
  107SAPE   O3210982   1.160   5.948   2.950  0.3572 -0.2557  0.0718
  107SAPE   C3210983   1.033   5.952   3.151  0.0363 -0.5720 -0.3751
  107SAPE   H2X10984   1.131   5.913   3.187 -0.6364 -1.1418  0.8759
  107SAPE   H2Y10985   0.955   5.877   3.176 -0.1036  0.3110  2.0387
  107SAPE   C2310986   0.698   6.526   3.050  0.4233 -0.3382  0.2225
  107SAPE   H3R10987   0.598   6.500   3.010 -0.2513 -0.1135  1.6847
  107SAPE   H3S10988   0.745   6.599   2.982  1.0715 -1.3144 -0.4080
  107SAPE   C2410989   0.686   6.576   3.203  0.3404 -0.0978  0.4504
  107SAPE   H4R10990   0.789   6.588   3.241  1.3992 -0.1574 -2.1697
  107SAPE   H4S10991   0.632   6.498   3.262  1.5033 -0.0058  1.6796
  107SAPE   C2510992   0.612   6.705   3.205  0.2534 -0.7323 -0.7354
  107SAPE   H5R10993   0.632   6.773   3.121  1.3576 -1.2604 -0.9225
  107SAPE   C2610994   0.513   6.735   3.295  0.2193 -0.2481 -0.4703
  107SAPE   H6R10995   0.460   6.829   3.275 -0.9877 -0.8603 -0.2398
  107SAPE   C2710996   0.466   6.660   3.415  0.4137 -0.2095  0.9388
  107SAPE   H7R10997   0.425   6.565   3.377  0.0554  0.0824  0.5941
  107SAPE   H7S10998   0.365   6.699   3.438 -0.4572 -1.7556 -0.1535
  107SAPE   C2810999   0.560   6.635   3.532 -0.1578  0.5850  0.2321
  107SAPE   H8R11000   0.666   6.660   3.515  0.8029 -1.1167  3.0635
  107SAPE   C2911001   0.522   6.618   3.662 -0.3011 -0.6534 -0.0758
  107SAPE   H9R11002   0.602   6.609   3.738  1.1351  1.6472 -1.1810
  107SAPE  C21011003   0.385   6.617   3.718  0.0112  0.1218  0.0068
  107SAPE  H10R11004   0.322   6.667   3.642  2.4515  1.0258 -1.5668
  107SAPE  H10S11005   0.368   6.688   3.802 -1.0096  2.8952 -2.3953
  107SAPE  C21111006   0.348   6.474   3.758  0.1743  0.0077  0.1938
  107SAPE  H11R11007   0.317   6.416   3.670  0.4775  2.2394 -1.4436
  107SAPE  C21211008   0.309   6.435   3.881 -0.1250  0.7774  0.6580
  107SAPE  H12R11009   0.275   6.332   3.896 -1.9064  1.0185 -1.2450
  107SAPE  C21311010   0.328   6.517   4.007  0.0323  0.2004  0.1235
  107SAPE  H13R11011   0.241   6.504   4.073 -0.6577 -2.9700 -1.2201
  107SAPE  H13S11012   0.321   6.624   3.979 -0.3923  0.7511  2.2329
  107SAPE  C21411013   0.463   6.486   4.081 -0.0414  0.7087  0.5699
  107SAPE  H14R11014   0.557   6.541   4.072  0.6550 -0.4731  0.4117
  107SAPE  C21511015   0.468   6.367   4.150 -0.2944  0.3057  0.8109
  107SAPE  H15R11016   0.555   6.349   4.215 -0.0697 -1.5748  0.0475
  107SAPE  C21611017   0.363   6.263   4.170  0.4940 -0.2705  0.0199
  107SAPE  H16R11018   0.370   6.198   4.081  1.7752 -1.0161  0.6345
  107SAPE  H16S11019   0.259   6.301   4.162 -0.3392 -2.0391  1.6746
  107SAPE  C21711020   0.383   6.174   4.293 -0.0851  0.4584 -0.3532
  107SAPE  H17R11021   0.491   6.146   4.287  0.3431  1.8553  0.4304
  107SAPE  H17S11022   0.332   6.076   4.277 -2.0358  1.5630 -1.2617
  107SAPE  C21811023   0.352   6.248   4.422  0.6710 -0.2329 -0.3992
  107SAPE  H18R11024   0.252   6.295   4.410  0.0503 -0.7378  2.1964
  107SAPE  H18S11025   0.422   6.334   4.432 -1.3321  1.7864 -2.6195
  107SAPE  C21911026   0.345   6.166   4.552  0.1517 -0.1767  0.1552
  107SAPE  H19R11027   0.264   6.090   4.550 -0.1540  0.0880  1.2470
  107SAPE  H19S11028   0.311   6.238   4.630 -1.3254 -0.3639 -0.2863
  107SAPE  C22011029   0.474   6.103   4.588 -0.0150  0.0265  0.2976
  107SAPE  H20R11030   0.481   6.086   4.697 -1.5720 -1.6285  0.1955
  107SAPE  H20S11031   0.557   6.168   4.553 -2.0781  2.1934 -0.8411
  107SAPE  H20T11032   0.476   6.003   4.540  0.9375  0.1799  0.0104
  107SAPE   C3311033   1.004   6.089   3.205 -0.3670 -0.5880 -0.3354
  107SAPE   H3X11034   0.912   6.118   3.150 -1.0953 -0.9722  0.6498
  107SAPE   H3Y11035   1.082   6.167   3.196 -1.3053  0.3936 -0.0766
  107SAPE   C3411036   0.973   6.094   3.351  0.2028 -0.1687  0.4728
  107SAPE   H4X11037   0.908   6.006   3.371  2.5940 -2.7603 -2.1638
  107SAPE   H4Y11038   0.928   6.195   3.360  0.8170  0.2561 -0.8692
  107SAPE   C3511039   1.103   6.075   3.427  0.3723  0.4630 -0.6355
  107SAPE   H5X11040   1.170   6.164   3.427  1.9360 -0.6780  0.0292
  107SAPE   H5Y11041   1.174   6.003   3.382  1.3126  0.3857  0.8992
  107SAPE   C3611042   1.069   6.031   3.568  0.7677 -1.1781  0.0571
  107SAPE   H6X11043   1.046   5.923   3.561 -1.5172 -0.6560 -1.6359
  107SAPE   H6Y11044   0.974   6.080   3.599  1.0380 -0.0242 -0.8544
  107SAPE   C3711045   1.173   6.064   3.673  0.4003  0.4555 -0.0845
  107SAPE   H7X11046   1.195   6.172   3.655 -0.7106  0.5303 -1.1954
  107SAPE   H7Y11047   1.264   6.001   3.676 -0.2239 -0.4770  3.1521
  107SAPE   C3811048   1.124   6.037   3.821 -0.3735 -0.3450  0.4716
  107SAPE   H8X11049   1.103   5.928   3.817 -1.0197 -0.2593  1.1992
  107SAPE   H8Y11050   1.028   6.089   3.841  0.3488  0.6469  1.5224
  107SAPE   C3911051   1.228   6.078   3.930  0.3700  0.0440 -0.4307
  107SAPE   H9X11052   1.241   6.188   3.935  3.5555 -0.1980 -1.0291
  107SAPE   H9Y11053   1.327   6.035   3.901  1.1614  0.0772  1.9711
  107SAPE  C31011054   1.188   6.024   4.072 -0.0952 -0.2518 -0.5695
  107SAPE  H10X11055   1.214   5.916   4.085  3.0472  0.5931  1.4424
  107SAPE  H10Y11056   1.081   6.040   4.096 -0.4625  0.1144 -2.3581
  107SAPE  C31111057   1.285   6.086   4.178  0.2525  0.3150  0.3990
  107SAPE  H11X11058   1.260   6.193   4.184 -2.8430 -0.2485 -0.8555
  107SAPE  H11Y11059   1.395   6.082   4.160  0.4439  0.4783  1.4781
  107SAPE  C31211060   1.266   6.037   4.322  0.5417  0.1436 -0.5144
  107SAPE  H12X11061   1.274   5.927   4.328 -2.4113 -0.0707  1.5191
  107SAPE  H12Y11062   1.159   6.052   4.347  0.1515 -2.9114  0.0141
  107SAPE  C31311063   1.342   6.130   4.426  0.8340  0.2428  0.6597
  107SAPE  H13X11064   1.291   6.228   4.422  0.2403 -0.0308  1.3296
  107SAPE  H13Y11065   1.448   6.142   4.394  0.3644 -0.7224 -1.4650
  107SAPE  C31411066   1.331   6.059   4.564 -0.6029 -0.3447 -0.2655
  107SAPE  H14X11067   1.395   5.968   4.566  0.6029  0.4836  0.6331
  107SAPE  H14Y11068   1.232   6.027   4.605  0.6050 -1.9775  1.5410
  107SAPE  C31511069   1.406   6.138   4.678  0.6801 -0.2329 -1.1928
  107SAPE  H15X11070   1.345   6.228   4.699  1.4594 -0.0046  0.1914
  107SAPE  H15Y11071   1.511   6.166   4.654  1.1242  0.9430  1.6832
  107SAPE  C31611072   1.415   6.070   4.815 -0.2418  0.1370  0.1842
  107SAPE  H16X11073   1.463   5.970   4.801  0.1297  0.4726 -1.0620
  107SAPE  H16Y11074   1.310   6.071   4.850 -0.5631  1.7395 -0.7047
  107SAPE  C31711075   1.509   6.127   4.924  0.9781  0.5483 -0.1481
  107SAPE  H17X11076   1.505   6.067   5.017  3.6389  0.5075  0.0283
  107SAPE  H17Y11077   1.475   6.231   4.937  0.7588  0.3477  0.9367
  107SAPE  C31811078   1.655   6.131   4.882 -0.9333 -0.3317  0.0190
  107SAPE  H18X11079   1.704   6.032   4.874  2.7058  1.2148  1.1183
  107SAPE  H18Y11080   1.715   6.189   4.956  0.7319 -0.8290 -0.9181
  107SAPE  H18Z11081   1.661   6.191   4.789  2.1344  0.1940  0.4757
  108SAPE     N11082   0.951   1.449   2.370  0.2408  0.3830  0.5665
  108SAPE   HN111083   0.996   1.541   2.351  1.1015  0.0588  1.0111
  108SAPE   HN211084   0.905   1.415   2.283  2.1465 -2.2088  0.4631
  108SAPE   HN311085   0.874   1.489   2.428  0.0373  0.9112 -0.0524
  108SAPE   C1211086   1.030   1.347   2.433  0.3155  0.4236  0.2122
  108SAPE  H12A11087   1.111   1.319   2.363 -0.6897 -1.4581 -0.2455
  108SAPE  H12B11088   0.962   1.260   2.439  3.2543 -1.9970  1.1972
  108SAPE   C1111089   1.084   1.393   2.567 -0.5367  0.0613  0.1348
  108SAPE  H11A11090   1.150   1.481   2.551  0.7906 -1.2472 -2.2390
  108SAPE  H11B11091   1.152   1.320   2.616 -1.1559  0.9184  2.4003
  108SAPE     P11092   0.903   1.313   2.749 -0.1342  0.5511  0.5569
  108SAPE   O1311093   0.822   1.396   2.842 -0.3884 -0.3520  0.1281
  108SAPE   O1411094   0.828   1.225   2.659 -0.3403 -0.0021 -0.0044
  108SAPE   O1211095   0.982   1.413   2.663 -0.0173  0.1249  0.3492
  108SAPE   O1111096   1.028   1.246   2.814  0.7531 -0.3679 -0.0013
  108SAPE    C111097   1.122   1.316   2.893 -0.0818 -0.1591 -0.8729
  108SAPE    HA11098   1.222   1.274   2.868  1.5528  2.2477  1.1493
  108SAPE    HB11099   1.125   1.423   2.865 -2.1032  0.1623 -0.0710
  108SAPE    C211100   1.103   1.313   3.050 -0.7514  0.4066  0.1923
  108SAPE    HS11101   1.101   1.204   3.070  1.0169  0.0633 -1.2621
  108SAPE   O2111102   0.995   1.395   3.085 -0.2934  0.3420 -0.3771
  108SAPE   C2111103   0.885   1.325   3.112  0.6252 -0.1564  0.3465
  108SAPE   O2211104   0.872   1.205   3.104 -0.3333  0.4754 -0.3512
  108SAPE   C2211105   0.768   1.422   3.142 -0.4126  0.4193  0.2615
  108SAPE   H2R11106   0.816   1.496   3.210 -0.2836  1.4796 -0.9411
  108SAPE   H2S11107   0.744   1.472   3.046  0.5837  0.9532  0.2763
  108SAPE    C311108   1.240   1.356   3.114  0.9090 -0.2533  0.1337
  108SAPE    HX11109   1.250   1.464   3.088 -0.1349  0.7433  3.3581
  108SAPE    HY11110   1.319   1.307   3.054  1.0307  0.7006 -0.5149
  108SAPE   O3111111   1.242   1.335   3.257 -0.4338  0.5836  0.0271
  108SAPE   C3111112   1.317   1.235   3.303  0.4298  0.8368 -0.0761
  108SAPE   O3211113   1.387   1.161   3.233 -0.2558 -0.3641 -0.7213
  108SAPE   C3211114   1.311   1.230   3.460 -0.3884 -0.5020 -0.1143
  108SAPE   H2X11115   1.202   1.226   3.484 -1.3279  0.8674 -3.5748
  108SAPE   H2Y11116   1.345   1.329   3.496 -1.6555  0.0236 -0.3213
  108SAPE   C2311117   0.635   1.362   3.186  0.5658  0.2486 -0.2961
  108SAPE   H3R11118   0.598   1.291   3.109  1.1354  1.3662 -1.6561
  108SAPE   H3S11119   0.564   1.446   3.177  1.6555  1.0092 -2.8185
  108SAPE   C2411120   0.638   1.309   3.333  0.3497 -0.3142  0.3148
  108SAPE   H4R11121   0.711   1.228   3.352 -1.5857 -2.2985 -0.3530
  108SAPE   H4S11122   0.541   1.259   3.352 -0.5740  1.8059  1.6225
  108SAPE   C2511123   0.655   1.419   3.439  0.5099 -0.2843  0.7743
  108SAPE   H5R11124   0.560   1.464   3.472  1.4601  0.6396  2.4328
  108SAPE   C2611125   0.762   1.451   3.502 -0.6107 -0.1921  0.3571
  108SAPE   H6R11126   0.764   1.525   3.584 -1.5129  1.2841 -0.9071
  108SAPE   C2711127   0.902   1.391   3.486 -0.9633  0.4449 -0.4055
  108SAPE   H7R11128   0.920   1.319   3.403  0.4654  0.6759 -0.3293
  108SAPE   H7S11129   0.921   1.335   3.580 -1.2135  1.6772  0.3980
  108SAPE   C2811130   1.008   1.489   3.490 -0.0044  1.2733  0.1644
  108SAPE   H8R11131   1.049   1.515   3.391  1.0295  1.2617  0.5762
  108SAPE   C2911132   1.063   1.549   3.598  0.3845  0.7046  0.3787
  108SAPE   H9R11133   1.137   1.629   3.582 -1.0900  1.8082 -1.4194
  108SAPE  C21011134   1.014   1.549   3.735  0.4670  0.1576  0.1577
  108SAPE  H10R11135   0.945   1.463   3.747  1.4191 -0.2620  3.5169
  108SAPE  H10S11136   0.956   1.643   3.740  0.9574  0.5457 -1.0253
  108SAPE  C21111137   1.118   1.554   3.842  0.1224  0.4736  0.4027
  108SAPE  H11R11138   1.194   1.476   3.829  2.1260  2.5305 -1.0880
  108SAPE  C21211139   1.145   1.647   3.934  0.7228 -0.7785 -0.0709
  108SAPE  H12R11140   1.231   1.640   4.002  1.4675 -0.0065 -0.9156
  108SAPE  C21311141   1.066   1.772   3.960 -0.1338 -0.5411 -0.1901
  108SAPE  H13R11142   1.029   1.770   4.065  0.5910 -2.2636  0.0565
  108SAPE  H13S11143   0.975   1.777   3.896  1.3917 -0.1642 -2.4404
  108SAPE  C21411144   1.138   1.905   3.923 -0.1640 -0.7347  0.0228
  108SAPE  H14R11145   1.152   1.917   3.814 -1.1896 -0.0333 -0.0399
  108SAPE  C21511146   1.184   1.996   4.013  0.0095  0.4476  0.1191
  108SAPE  H15R11147   1.222   2.092   3.974 -0.7228  0.9386  0.6116
  108SAPE  C21611148   1.161   1.992   4.159 -0.2000 -0.7687  0.7110
  108SAPE  H16R11149   1.151   1.890   4.204 -1.5198 -0.7367  0.5093
  108SAPE  H16S11150   1.069   2.046   4.189  0.5889 -0.2131  2.2647
  108SAPE  C21711151   1.263   2.082   4.242  0.7103  0.0423 -0.0394
  108SAPE  H17R11152   1.239   2.186   4.212 -0.8129 -0.5085 -0.8008
  108SAPE  H17S11153   1.370   2.062   4.220  0.6897 -0.2350  0.1135
  108SAPE  C21811154   1.253   2.056   4.394  0.5180 -0.0582 -0.0169
  108SAPE  H18R11155   1.248   1.950   4.426  0.1073 -0.2720 -0.7522
  108SAPE  H18S11156   1.158   2.103   4.425  0.9325  1.7815 -1.3541
  108SAPE  C21911157   1.370   2.125   4.468 -0.3613  0.3286 -0.4002
  108SAPE  H19R11158   1.355   2.233   4.446 -2.9923  0.7921  2.9099
  108SAPE  H19S11159   1.465   2.098   4.418  0.0117 -2.1490  1.4778
  108SAPE  C22011160   1.374   2.110   4.615 -0.2585 -0.1159 -0.0894
  108SAPE  H20R11161   1.284   2.150   4.667 -0.1297 -0.1029  0.1271
  108SAPE  H20S11162   1.455   2.175   4.653 -1.3919  1.0353  0.4659
  108SAPE  H20T11163   1.390   2.005   4.646 -0.3019  0.0363  0.4790
  108SAPE   C3311164   1.402   1.124   3.523  0.5393 -0.6375 -0.0516
  108SAPE   H3X11165   1.504   1.156   3.492 -0.9887  2.7944 -2.0803
  108SAPE   H3Y11166   1.384   1.020   3.491 -0.9783 -0.6235  0.6507
  108SAPE   C3411167   1.382   1.134   3.674 -0.3812  0.9762  0.7014
  108SAPE   H4X11168   1.464   1.073   3.716  0.3697  1.1575 -0.4718
  108SAPE   H4Y11169   1.292   1.076   3.706  0.0959 -0.2479 -0.0991
  108SAPE   C3511170   1.391   1.268   3.743 -0.2064  0.5251 -0.5992
  108SAPE   H5X11171   1.484   1.318   3.708  0.5681  0.0057  0.6265
  108SAPE   H5Y11172   1.300   1.321   3.709 -2.0545 -1.1829  1.4408
  108SAPE   C3611173   1.394   1.256   3.898 -0.3781  0.4378 -0.1500
  108SAPE   H6X11174   1.408   1.355   3.946  0.6125  1.2664 -2.0319
  108SAPE   H6Y11175   1.481   1.190   3.919 -1.7471 -1.3172  0.1984
  108SAPE   C3711176   1.270   1.184   3.960 -0.3049  0.1700  0.1105
  108SAPE   H7X11177   1.272   1.076   3.935 -0.7726  0.0700  0.4858
  108SAPE   H7Y11178   1.177   1.212   3.905  0.6001  2.4550 -0.4009
  108SAPE   C3811179   1.258   1.197   4.105 -0.0645  0.2523 -0.4769
  108SAPE   H8X11180   1.359   1.180   4.148 -0.0010 -0.6036 -0.9430
  108SAPE   H8Y11181   1.192   1.121   4.153  2.2287  0.1202  2.8180
  108SAPE   C3911182   1.203   1.331   4.150  0.7320  0.0135 -0.3667
  108SAPE   H9X11183   1.108   1.344   4.095  0.7118 -0.0634 -0.3493
  108SAPE   H9Y11184   1.265   1.415   4.113  0.0637  1.1769  1.0286
  108SAPE  C31011185   1.183   1.334   4.302 -0.5368 -0.3277  0.0724
  108SAPE  H10X11186   1.274   1.320   4.364 -0.1240  1.5667 -0.0388
  108SAPE  H10Y11187   1.115   1.252   4.332  0.4489 -0.6437  1.5550
  108SAPE  C31111188   1.111   1.467   4.339  0.9734  1.1840 -0.1683
  108SAPE  H11X11189   1.031   1.478   4.263  0.4554 -2.2920 -0.2712
  108SAPE  H11Y11190   1.179   1.554   4.347  2.8500 -0.0880 -1.4754
  108SAPE  C31211191   1.051   1.440   4.476  0.0433  0.4981  0.0617
  108SAPE  H12X11192   1.141   1.407   4.533  0.8880 -0.1209 -1.5321
  108SAPE  H12Y11193   0.978   1.356   4.474  0.9986 -0.5942 -5.4716
  108SAPE  C31311194   0.985   1.563   4.537  0.6885 -0.0425  0.4783
  108SAPE  H13X11195   0.906   1.599   4.466  1.5096 -0.0564 -0.4696
  108SAPE  H13Y11196   1.063   1.640   4.550 -1.3506  2.4448 -0.9865
  108SAPE  C31411197   0.927   1.550   4.675  0.9935  0.1160 -0.2126
  108SAPE  H14X11198   1.001   1.529   4.755 -3.2648 -2.1142  3.6672
  108SAPE  H14Y11199   0.850   1.470   4.682  0.9779  0.1636  0.2387
  108SAPE  C31511200   0.872   1.687   4.711  0.1331  0.0938  0.8192
  108SAPE  H15X11201   0.813   1.724   4.625  2.3025 -2.0336 -1.7625
  108SAPE  H15Y11202   0.959   1.756   4.706  0.9424 -1.0057 -1.4551
  108SAPE  C31611203   0.799   1.701   4.842  0.1227 -0.6936  0.2426
  108SAPE  H16X11204   0.861   1.653   4.921 -1.3721 -1.6518  0.8884
  108SAPE  H16Y11205   0.710   1.634   4.837  1.9502 -3.2474 -0.4748
  108SAPE  C31711206   0.777   1.852   4.879  0.6666  0.1491  0.0189
  108SAPE  H17X11207   0.733   1.898   4.788 -1.1722 -1.7241 -0.1234
  108SAPE  H17Y11208   0.878   1.897   4.879 -0.2414  2.3214  0.2527
  108SAPE  C31811209   0.710   1.891   5.007 -0.4940  0.0393 -0.3027
  108SAPE  H18X11210   0.643   1.978   4.991 -1.5834 -0.9957 -1.5927
  108SAPE  H18Y11211   0.789   1.916   5.082 -1.1892  1.3406  0.0274
  108SAPE  H18Z11212   0.651   1.808   5.050 -0.6236  0.1193 -0.3265
  109SAPE     N11213   5.076   3.462   3.059 -0.0216  0.3995 -0.3244
  109SAPE   HN111214   5.031   3.399   2.989 -1.4587  0.4706  0.4905
  109SAPE   HN211215   5.165   3.413   3.084  0.5354 -0.4319 -3.4867
  109SAPE   HN311216   5.007   3.459   3.136 -0.8105 -2.3165 -1.0340
  109SAPE   C1211217   5.116   3.594   2.998 -0.0255 -0.2437 -0.5592
  109SAPE  H12A11218   5.135   3.670   3.076 -0.7675  1.0039 -1.5436
  109SAPE  H12B11219   5.037   3.639   2.934 -0.5511 -1.0519 -0.4884
  109SAPE   C1111220   5.241   3.581   2.912  0.3469  0.0533 -0.2054
  109SAPE  H11A11221   5.254   3.662   2.838  1.9761 -1.7849 -2.0361
  109SAPE  H11B11222   5.219   3.490   2.853 -0.2320  0.1664 -0.1700
  109SAPE     P11223   5.437   3.672   3.054  0.9438  0.4934 -0.1351
  109SAPE   O1311224   5.437   3.780   2.958  0.1423 -0.2400 -0.4157
  109SAPE   O1411225   5.367   3.704   3.188  0.2753  0.2009  0.6046
  109SAPE   O1211226   5.356   3.557   2.984 -0.2639 -0.2431 -0.0290
  109SAPE   O1111227   5.583   3.608   3.068  0.5088 -0.2040  0.5927
  109SAPE    C111228   5.598   3.473   3.114 -0.3922 -0.1454 -0.4213
  109SAPE    HA11229   5.507   3.410   3.121  0.0307 -0.9660 -1.9487
  109SAPE    HB11230   5.650   3.417   3.033  0.8227  0.6668 -0.2338
  109SAPE    C211231   5.693   3.460   3.243  0.5727  0.1034 -0.8736
  109SAPE    HS11232   5.729   3.356   3.259  3.5709  1.3110  1.0466
  109SAPE   O2111233   5.630   3.520   3.361 -0.1481 -0.0485  0.3295
  109SAPE   C2111234   5.527   3.451   3.406 -0.1597 -0.3352  0.7245
  109SAPE   O2211235   5.468   3.354   3.362  1.0587 -0.7442  0.3928
  109SAPE   C2211236   5.473   3.520   3.534 -0.2009 -0.4357 -0.5423
  109SAPE   H2R11237   5.453   3.626   3.509  0.7485  0.1865  1.1608
  109SAPE   H2S11238   5.380   3.470   3.568  0.3589 -0.2950  1.3265
  109SAPE    C311239   5.833   3.528   3.218  0.9203 -0.3751 -0.1595
  109SAPE    HX11240   5.824   3.638   3.205  1.2573 -0.0052  2.1864
  109SAPE    HY11241   5.868   3.498   3.117  1.1106  1.1978 -0.5850
  109SAPE   O3111242   5.932   3.490   3.320  0.1274  0.7546 -0.1730
  109SAPE   C3111243   5.946   3.573   3.425  0.5254 -0.3897  0.9771
  109SAPE   O3211244   5.903   3.690   3.423 -0.1046  0.4458  0.4429
  109SAPE   C3211245   5.991   3.492   3.549  0.1815 -0.6067  0.3401
  109SAPE   H2X11246   6.065   3.422   3.505 -0.8694 -1.8195  0.4369
  109SAPE   H2Y11247   5.907   3.426   3.577 -0.2069  0.6712  2.4479
  109SAPE   C2311248   5.567   3.508   3.653  0.7573  0.6667  0.0687
  109SAPE   H3R11249   5.530   3.583   3.727 -1.6245  0.7755 -1.1274
  109SAPE   H3S11250   5.672   3.537   3.632  0.6993  1.8812  1.3096
  109SAPE   C2411251   5.556   3.362   3.724 -0.1511 -0.0590 -0.0605
  109SAPE   H4R11252   5.643   3.349   3.791  0.4547  0.7741 -0.6583
  109SAPE   H4S11253   5.580   3.288   3.645  2.0188  0.2801  0.2360
  109SAPE   C2511254   5.431   3.329   3.789 -0.3777  0.7667  0.2958
  109SAPE   H5R11255   5.349   3.287   3.730 -2.0891  1.6273  1.9673
  109SAPE   C2611256   5.407   3.361   3.917  0.5994  0.2979  0.0903
  109SAPE   H6R11257   5.314   3.330   3.969  0.5505  0.1957 -0.0572
  109SAPE   C2711258   5.502   3.429   4.011 -1.2079  0.4051  0.8217
  109SAPE   H7R11259   5.573   3.501   3.966 -0.8269 -0.4043  0.0998
  109SAPE   H7S11260   5.574   3.360   4.061 -0.1642  2.2393  1.9802
  109SAPE   C2811261   5.424   3.525   4.099  0.1811 -0.6063  0.0540
  109SAPE   H8R11262   5.372   3.611   4.053 -0.7440 -0.2769  1.6404
  109SAPE   C2911263   5.393   3.496   4.228 -0.3470  0.0607 -0.4770
  109SAPE   H9R11264   5.314   3.562   4.268 -0.8471 -0.9249  0.2174
  109SAPE  C21011265   5.436   3.374   4.318  0.2875 -0.7855 -0.1923
  109SAPE  H10R11266   5.511   3.408   4.392  0.3738 -1.2048 -0.0820
  109SAPE  H10S11267   5.496   3.302   4.258 -0.0002  0.4745 -2.0621
  109SAPE  C21111268   5.325   3.298   4.386 -0.7272  0.0665  0.7327
  109SAPE  H11R11269   5.283   3.218   4.323  0.1157  0.3601 -0.2232
  109SAPE  C21211270   5.279   3.296   4.513 -0.2380 -0.9960 -0.2564
  109SAPE  H12R11271   5.191   3.231   4.520  1.0118 -2.7548 -0.3080
  109SAPE  C21311272   5.305   3.408   4.622  0.5137 -0.1507  0.5802
  109SAPE  H13R11273   5.217   3.476   4.629  0.6568 -0.0883  2.1730
  109SAPE  H13S11274   5.387   3.477   4.595  1.0704 -0.6199  1.0506
  109SAPE  C21411275   5.328   3.355   4.766 -0.1624 -0.0728  0.3124
  109SAPE  H14R11276   5.273   3.399   4.851 -0.3960  0.6739 -0.2148
  109SAPE  C21511277   5.407   3.256   4.799 -0.6885 -0.6223  0.3907
  109SAPE  H15R11278   5.421   3.230   4.905  1.8742  1.1093  0.5483
  109SAPE  C21611279   5.513   3.191   4.707  1.1383 -0.5232  0.5507
  109SAPE  H16R11280   5.612   3.206   4.756  0.9030 -0.0830  0.8945
  109SAPE  H16S11281   5.527   3.240   4.609  3.0861  1.8509  1.9005
  109SAPE  C21711282   5.503   3.040   4.680 -0.7122  0.4239 -0.1376
  109SAPE  H17R11283   5.587   2.995   4.622  0.9898 -1.3937  3.3630
  109SAPE  H17S11284   5.409   3.019   4.625 -0.2719 -1.1395 -0.3301
  109SAPE  C21811285   5.500   2.962   4.808  0.4764  0.3839  0.0288
  109SAPE  H18R11286   5.413   2.985   4.874  0.0491  3.2333 -1.3570
  109SAPE  H18S11287   5.586   2.986   4.873  0.5380 -2.0698  0.9282
  109SAPE  C21911288   5.506   2.810   4.791  0.0338 -0.4863 -0.1317
  109SAPE  H19R11289   5.600   2.778   4.742  0.7691 -1.0855  1.5674
  109SAPE  H19S11290   5.426   2.781   4.720  0.0656  0.5303 -0.5962
  109SAPE  C22011291   5.493   2.731   4.924  0.1416  0.6966 -0.5349
  109SAPE  H20R11292   5.567   2.768   4.998  0.8501 -2.4969  0.5179
  109SAPE  H20S11293   5.498   2.621   4.911 -0.9273  0.6896 -1.0433
  109SAPE  H20T11294   5.389   2.746   4.960  0.3599  1.5351 -0.2265
  109SAPE   C3311295   6.043   3.568   3.671  0.4412  0.0128  0.0010
  109SAPE   H3X11296   6.050   3.679   3.660  0.7974 -0.2289 -2.9738
  109SAPE   H3Y11297   6.144   3.528   3.694  0.7604  0.6079 -0.3197
  109SAPE   C3411298   5.966   3.556   3.804 -0.3844  0.6213  0.0995
  109SAPE   H4X11299   5.971   3.449   3.835  6.0220  0.3065 -0.7793
  109SAPE   H4Y11300   5.868   3.608   3.799  0.5892  2.3829 -2.3780
  109SAPE   C3511301   6.043   3.619   3.923  0.1586  0.2622  0.1581
  109SAPE   H5X11302   6.054   3.729   3.909 -0.1722  0.1772 -0.8233
  109SAPE   H5Y11303   6.142   3.568   3.926  0.0611 -0.1983 -2.3025
  109SAPE   C3611304   5.976   3.584   4.059 -0.5060  0.2203 -0.3761
  109SAPE   H6X11305   5.978   3.476   4.086  0.1280  0.5922  1.1508
  109SAPE   H6Y11306   5.871   3.617   4.053 -0.8357 -0.3519  1.5133
  109SAPE   C3711307   6.049   3.649   4.176  0.3501 -1.2933 -0.2907
  109SAPE   H7X11308   6.066   3.758   4.165 -0.5805 -1.3220 -2.3438
  109SAPE   H7Y11309   6.149   3.600   4.181  1.0542  0.0587 -0.5167
  109SAPE   C3811310   5.975   3.611   4.310 -0.1423 -0.5654  0.1655
  109SAPE   H8X11311   5.962   3.501   4.306 -1.6138 -0.3901 -0.6199
  109SAPE   H8Y11312   5.873   3.654   4.311  0.3083  0.5347 -0.0458
  109SAPE   C3911313   6.054   3.650   4.438  0.1286  0.6630  0.1045
  109SAPE   H9X11314   6.077   3.758   4.427  0.3555  0.5172 -0.9492
  109SAPE   H9Y11315   6.153   3.599   4.442 -0.7281 -1.4530 -2.5657
  109SAPE  C31011316   5.965   3.624   4.567 -0.2423 -0.5315 -0.0095
  109SAPE  H10X11317   5.920   3.523   4.563 -0.4077 -0.5073  0.9982
  109SAPE  H10Y11318   5.878   3.692   4.578 -1.5502 -2.0402 -0.7307
  109SAPE  C31111319   6.048   3.627   4.699 -0.0460 -0.0107  0.1566
  109SAPE  H11X11320   6.065   3.733   4.730  1.2896 -0.1033 -0.1923
  109SAPE  H11Y11321   6.150   3.601   4.666 -0.3667 -0.9374 -0.1181
  109SAPE  C31211322   5.996   3.536   4.809  0.2165 -0.2419  0.1436
  109SAPE  H12X11323   6.048   3.557   4.905  0.1799 -1.5569  0.4817
  109SAPE  H12Y11324   6.020   3.429   4.792  2.5336  0.0044  1.3995
  109SAPE  C31311325   5.849   3.557   4.842  0.0356 -0.2847  0.9777
  109SAPE  H13X11326   5.779   3.520   4.764 -0.6949 -1.9296  2.3448
  109SAPE  H13Y11327   5.830   3.666   4.851 -1.3010 -0.3709 -0.3370
  109SAPE  C31411328   5.810   3.504   4.978  0.1243  0.2083 -0.1151
  109SAPE  H14X11329   5.725   3.569   5.009 -0.1032 -0.3240  0.3969
  109SAPE  H14Y11330   5.897   3.532   5.042 -0.5025  0.8765  0.4640
  109SAPE  C31511331   5.774   3.345   4.987 -0.0736 -0.3698 -0.0973
  109SAPE  H15X11332   5.862   3.293   4.945  0.7134  0.2665  0.7165
  109SAPE  H15Y11333   5.679   3.330   4.932 -0.8590  2.1943  0.4185
  109SAPE  C31611334   5.768   3.307   5.130 -0.3889  0.1294  0.0159
  109SAPE  H16X11335   5.855   3.354   5.181 -0.0897  1.4773 -1.6460
  109SAPE  H16Y11336   5.785   3.198   5.141  0.4539 -0.0506 -2.4636
  109SAPE  C31711337   5.638   3.339   5.199 -0.4679 -0.3448 -0.3944
  109SAPE  H17X11338   5.553   3.299   5.140  0.1521 -1.5943 -0.4705
  109SAPE  H17Y11339   5.612   3.447   5.197 -0.4325 -0.3188  0.3470
  109SAPE  C31811340   5.640   3.296   5.349  0.6568 -0.3356  1.1939
  109SAPE  H18X11341   5.724   3.224   5.359  2.4335  1.3786 -0.3982
  109SAPE  H18Y11342   5.544   3.257   5.387  0.0547 -2.3939 -2.0513
  109SAPE  H18Z11343   5.660   3.387   5.409  2.4044 -1.3990  2.3111
  110SAPE     N11344   4.584   2.937   2.767 -0.1872 -0.7258 -0.0588
  110SAPE   HN111345   4.649   2.887   2.703  0.7814  0.1934  0.1610
  110SAPE   HN211346   4.530   2.867   2.821 -0.8304 -0.0886  0.1353
  110SAPE   HN311347   4.514   3.003   2.728 -0.1100  0.2168  1.3265
  110SAPE   C1211348   4.678   3.020   2.848  0.0400  0.1462  0.2025
  110SAPE  H12A11349   4.616   3.050   2.936  0.4214 -0.1567  0.5802
  110SAPE  H12B11350   4.713   3.111   2.795 -0.8162  0.7175  0.5930
  110SAPE   C1111351   4.795   2.937   2.901  0.3223 -0.2040 -0.0310
  110SAPE  H11A11352   4.748   2.864   2.970  0.8813 -0.3443  0.2051
  110SAPE  H11B11353   4.871   2.990   2.962  0.5744 -2.4033  1.6959
  110SAPE     P11354   4.983   2.904   2.724 -0.2366 -0.0357 -0.1026
  110SAPE   O1311355   5.019   2.816   2.612  0.2477  0.4548 -0.0589
  110SAPE   O1411356   4.991   3.051   2.699  0.2246 -0.3677 -0.9509
  110SAPE   O1211357   4.850   2.860   2.789 -0.4605  0.1118 -0.0309
  110SAPE   O1111358   5.091   2.875   2.839  0.1220 -0.3613 -0.1361
  110SAPE    C111359   5.109   2.748   2.898 -0.2216 -0.9192 -0.5365
  110SAPE    HA11360   5.022   2.709   2.954 -0.4683 -2.1996 -1.7494
  110SAPE    HB11361   5.122   2.674   2.816  0.7080 -0.5393 -0.7423
  110SAPE    C211362   5.222   2.743   3.006 -0.2260 -0.9731 -0.0153
  110SAPE    HS11363   5.201   2.653   3.068  2.0457 -0.9422  0.9119
  110SAPE   O2111364   5.213   2.850   3.100  0.7969  0.1980 -0.9814
  110SAPE   C2111365   5.117   2.855   3.193 -0.3927  0.2421 -0.1118
  110SAPE   O2211366   5.051   2.757   3.219 -0.4027 -0.3808  0.3905
  110SAPE   C2211367   5.100   2.993   3.255  0.0008  0.3657 -0.5447
  110SAPE   H2R11368   5.059   3.060   3.176  1.3904 -0.6036 -2.1662
  110SAPE   H2S11369   5.022   2.981   3.334  1.2721  0.3921  0.7454
  110SAPE    C311370   5.367   2.742   2.957 -0.3691 -0.0511 -0.0447
  110SAPE    HX11371   5.385   2.659   2.885 -0.1506  0.4532 -0.5763
  110SAPE    HY11372   5.403   2.835   2.907 -0.9839 -0.2044 -0.7942
  110SAPE   O3111373   5.458   2.717   3.067 -0.0981 -0.5579 -0.2953
  110SAPE   C3111374   5.460   2.596   3.116  0.3735 -0.0919  0.2831
  110SAPE   O3211375   5.389   2.505   3.076 -0.1905 -0.5090 -0.7506
  110SAPE   C3211376   5.551   2.587   3.223 -1.0478 -0.4741 -0.1199
  110SAPE   H2X11377   5.630   2.664   3.205 -2.4103  1.0851  0.3213
  110SAPE   H2Y11378   5.597   2.486   3.213  1.4522  0.6911 -1.6264
  110SAPE   C2311379   5.221   3.036   3.329  0.0449  0.0135 -0.4858
  110SAPE   H3R11380   5.198   3.131   3.383  0.7159 -0.5879  0.9132
  110SAPE   H3S11381   5.305   3.058   3.259 -1.5354  0.6703 -2.2612
  110SAPE   C2411382   5.286   2.941   3.444  0.3487  0.5399  0.5160
  110SAPE   H4R11383   5.355   3.010   3.498  0.0958  1.5356 -0.4077
  110SAPE   H4S11384   5.352   2.867   3.395 -0.8629  0.3389 -0.8730
  110SAPE   C2511385   5.183   2.879   3.536  0.0170  0.2169  0.2285
  110SAPE   H5R11386   5.126   2.798   3.490 -1.7284  1.8961 -0.7053
  110SAPE   C2611387   5.162   2.911   3.666  0.5685  0.2934  0.2272
  110SAPE   H6R11388   5.080   2.855   3.712 -1.2171 -0.0553 -3.0457
  110SAPE   C2711389   5.230   3.026   3.735 -0.2914 -0.3393 -0.1401
  110SAPE   H7R11390   5.277   3.094   3.660 -1.1427  0.6797  0.2169
  110SAPE   H7S11391   5.307   2.998   3.810  0.8747 -1.7035 -1.7515
  110SAPE   C2811392   5.128   3.108   3.809 -0.8217 -0.1295  0.4174
  110SAPE   H8R11393   5.084   3.191   3.752 -2.8967  0.5603  2.8261
  110SAPE   C2911394   5.070   3.073   3.930  0.5529 -0.0550 -0.3508
  110SAPE   H9R11395   5.012   3.152   3.980  2.7889  2.0381 -0.8522
  110SAPE  C21011396   5.104   2.955   4.018 -0.0981 -0.6063  0.2919
  110SAPE  H10R11397   5.163   2.879   3.963  0.4682 -0.8706  1.2312
  110SAPE  H10S11398   5.006   2.913   4.050  0.1520 -2.4747 -1.1764
  110SAPE  C21111399   5.183   3.006   4.138 -0.4866 -0.2692  0.3420
  110SAPE  H11R11400   5.168   3.108   4.176  1.4715 -0.5335  2.0086
  110SAPE  C21211401   5.265   2.923   4.206  1.2537 -0.4036  0.1736
  110SAPE  H12R11402   5.320   2.961   4.293  1.6213  1.6180 -0.8855
  110SAPE  C21311403   5.297   2.784   4.173  0.0158 -0.8052  0.8122
  110SAPE  H13R11404   5.403   2.767   4.204  0.0642  0.9578  1.7617
  110SAPE  H13S11405   5.289   2.766   4.064  0.6781 -0.4375  0.6945
  110SAPE  C21411406   5.195   2.683   4.227 -0.0944  0.1335 -0.6909
  110SAPE  H14R11407   5.091   2.683   4.190 -1.2144  2.1598  2.1238
  110SAPE  C21511408   5.214   2.599   4.329 -0.1533  0.1933 -0.9171
  110SAPE  H15R11409   5.125   2.541   4.355 -0.0486  1.1595  1.9341
  110SAPE  C21611410   5.341   2.596   4.414  0.1692 -0.2279 -0.4577
  110SAPE  H16R11411   5.315   2.621   4.519 -2.1302 -0.9407 -0.7871
  110SAPE  H16S11412   5.412   2.678   4.390  1.3902 -0.2836  2.5762
  110SAPE  C21711413   5.419   2.469   4.411  0.1751 -0.9669  0.0699
  110SAPE  H17R11414   5.481   2.473   4.319  1.2038 -1.6691  0.7126
  110SAPE  H17S11415   5.361   2.375   4.399  1.9119 -2.1972  0.7467
  110SAPE  C21811416   5.506   2.447   4.535  0.4038 -1.1511  0.4494
  110SAPE  H18R11417   5.444   2.434   4.627 -0.6636  0.3851 -0.0168
  110SAPE  H18S11418   5.564   2.541   4.548  1.1441 -1.2988 -1.4224
  110SAPE  C21911419   5.587   2.319   4.517 -1.3587 -0.5747 -0.0696
  110SAPE  H19R11420   5.652   2.328   4.427 -0.7161  1.5863  0.5321
  110SAPE  H19S11421   5.524   2.231   4.494  0.5341 -1.5203 -2.0009
  110SAPE  C22011422   5.673   2.296   4.644 -0.1512 -0.6621  0.2579
  110SAPE  H20R11423   5.610   2.268   4.731 -0.1464 -1.4080  0.0231
  110SAPE  H20S11424   5.737   2.379   4.683  2.6489 -1.5609 -2.1020
  110SAPE  H20T11425   5.743   2.214   4.620 -0.8313 -1.6636  1.5770
  110SAPE   C3311426   5.501   2.615   3.369 -0.7605  0.2899  0.3715
  110SAPE   H3X11427   5.396   2.577   3.368 -0.5700 -0.2821 -1.2149
  110SAPE   H3Y11428   5.499   2.725   3.383 -1.3768  0.2668  0.5091
  110SAPE   C3411429   5.576   2.538   3.479  0.0564  0.3317 -0.0006
  110SAPE   H4X11430   5.678   2.577   3.498 -0.0258 -0.1317  1.5697
  110SAPE   H4Y11431   5.583   2.431   3.449 -0.3365 -0.0840  1.3298
  110SAPE   C3511432   5.506   2.557   3.616 -0.3417  0.0602 -0.1526
  110SAPE   H5X11433   5.417   2.490   3.618  0.2274 -0.8733 -2.4451
  110SAPE   H5Y11434   5.482   2.664   3.631  1.0723  0.2600  0.8352
  110SAPE   C3611435   5.588   2.497   3.732  0.3113 -0.5409 -0.7318
  110SAPE   H6X11436   5.685   2.552   3.728  0.3007 -0.4261  0.3756
  110SAPE   H6Y11437   5.618   2.391   3.717 -0.3658 -0.8130 -0.1925
  110SAPE   C3711438   5.529   2.515   3.875 -0.6730  0.0404  0.6117
  110SAPE   H7X11439   5.430   2.465   3.874 -1.5146  1.6004  1.4070
  110SAPE   H7Y11440   5.518   2.622   3.903  1.4479 -0.0295  1.9749
  110SAPE   C3811441   5.613   2.449   3.983  0.7163 -0.0852  0.0689
  110SAPE   H8X11442   5.715   2.437   3.940  1.0114 -0.9812  0.9921
  110SAPE   H8Y11443   5.570   2.348   3.997  0.2259  0.3800  2.2787
  110SAPE   C3911444   5.612   2.534   4.103  0.5659  0.9537  0.2865
  110SAPE   H9X11445   5.664   2.478   4.184 -1.6519 -1.0046  0.4606
  110SAPE   H9Y11446   5.506   2.550   4.129  0.1246 -0.4615 -0.5366
  110SAPE  C31011447   5.680   2.669   4.095 -0.1096 -0.1150  0.2831
  110SAPE  H10X11448   5.624   2.747   4.038 -0.1300  0.9349  1.6879
  110SAPE  H10Y11449   5.776   2.653   4.043  0.4269 -2.2462  1.8275
  110SAPE  C31111450   5.722   2.729   4.227 -0.1228 -0.8426 -0.5977
  110SAPE  H11X11451   5.633   2.742   4.292  0.5884 -0.4067  0.3098
  110SAPE  H11Y11452   5.767   2.829   4.206  0.5266 -1.2693 -1.2790
  110SAPE  C31211453   5.829   2.646   4.299  0.4233  0.2480 -0.4752
  110SAPE  H12X11454   5.900   2.601   4.227  2.0602 -0.3025  1.3913
  110SAPE  H12Y11455   5.780   2.557   4.344  0.5269 -0.7993 -2.3199
  110SAPE  C31311456   5.899   2.732   4.397  0.0387 -0.2952 -0.2500
  110SAPE  H13X11457   5.838   2.811   4.445  0.2190  1.1633 -2.2761
  110SAPE  H13Y11458   5.974   2.791   4.340  1.4357  1.9766  3.6109
  110SAPE  C31411459   5.985   2.658   4.500  0.7306  0.0601  0.4184
  110SAPE  H14X11460   6.057   2.593   4.446  0.8969  1.1703 -0.7656
  110SAPE  H14Y11461   5.923   2.594   4.565 -0.8255  0.1603 -0.9169
  110SAPE  C31511462   6.067   2.763   4.591  0.1520  0.6641  0.3296
  110SAPE  H15X11463   6.005   2.814   4.667 -0.9367  0.8807 -0.6776
  110SAPE  H15Y11464   6.120   2.841   4.532 -0.2624  1.6487  1.2243
  110SAPE  C31611465   6.171   2.695   4.680  0.3048  0.0241 -1.0544
  110SAPE  H16X11466   6.246   2.648   4.614  0.4246 -0.9491 -0.2549
  110SAPE  H16Y11467   6.122   2.622   4.748 -1.7822  0.3487 -2.1461
  110SAPE  C31711468   6.256   2.791   4.771  0.5559 -0.2221 -0.2831
  110SAPE  H17X11469   6.196   2.831   4.855  1.2527 -2.0140  1.1379
  110SAPE  H17Y11470   6.295   2.880   4.717  0.8475 -0.6500 -0.7888
  110SAPE  C31811471   6.369   2.727   4.842 -0.0415  0.3925 -0.0565
  110SAPE  H18X11472   6.442   2.704   4.761  0.8333  2.5254  0.0506
  110SAPE  H18Y11473   6.348   2.628   4.887 -1.0328  0.7712  0.3395
  110SAPE  H18Z11474   6.421   2.799   4.909  1.1154  1.0321 -1.5684
  111SAPE     N11475   4.592   4.134   2.614  0.3455 -0.3279 -0.1129
  111SAPE   HN111476   4.635   4.102   2.704  1.1390  2.5637  0.6482
  111SAPE   HN211477   4.672   4.185   2.573 -0.3283  1.1152  0.2696
  111SAPE   HN311478   4.518   4.207   2.627  0.4030  0.3816 -3.1649
  111SAPE   C1211479   4.527   4.024   2.535  0.4178  0.6970 -0.2999
  111SAPE  H12A11480   4.597   3.938   2.530 -2.6500 -2.0126  0.1233
  111SAPE  H12B11481   4.504   4.058   2.431 -2.4697  1.7523  0.5883
  111SAPE   C1111482   4.398   3.988   2.607  0.6141  0.3626  0.0030
  111SAPE  H11A11483   4.399   3.978   2.717  1.2059  3.7025  0.4274
  111SAPE  H11B11484   4.369   3.892   2.559  1.9025 -0.1211  0.1685
  111SAPE     P11485   4.149   4.059   2.596 -0.3929 -0.1975  0.2784
  111SAPE   O1311486   4.085   4.072   2.467 -0.0358 -0.3241 -0.2225
  111SAPE   O1411487   4.135   3.926   2.661  0.4766  0.2984  0.0065
  111SAPE   O1211488   4.307   4.093   2.578  0.1130 -0.2267 -0.1218
  111SAPE   O1111489   4.111   4.173   2.687  0.5474  0.4825  0.1042
  111SAPE    C111490   4.177   4.217   2.811 -0.1366  0.1129 -0.6040
  111SAPE    HA11491   4.286   4.229   2.799 -0.0783 -0.6434 -0.8738
  111SAPE    HB11492   4.135   4.311   2.853  0.5704 -0.2200  0.9086
  111SAPE    C211493   4.152   4.115   2.930 -0.0269 -0.4634 -0.0700
  111SAPE    HS11494   4.219   4.026   2.924  0.1939 -0.3367  0.4831
  111SAPE   O2111495   4.014   4.069   2.915  0.1068  0.2350  0.5108
  111SAPE   C2111496   3.995   3.941   2.937 -0.2236  0.3494  0.0597
  111SAPE   O2211497   4.079   3.859   2.983  0.3230 -0.2440 -0.8285
  111SAPE   C2211498   3.854   3.904   2.902  0.2032 -0.0718  0.8831
  111SAPE   H2R11499   3.836   3.921   2.794 -1.1784 -0.2032  1.0693
  111SAPE   H2S11500   3.854   3.793   2.907 -1.6313 -0.2319 -1.3176
  111SAPE    C311501   4.168   4.175   3.072  0.1768 -0.8577  0.4461
  111SAPE    HX11502   4.092   4.256   3.072  0.4447 -0.5288  2.5960
  111SAPE    HY11503   4.260   4.238   3.083 -0.4894 -0.3170  4.5359
  111SAPE   O3111504   4.142   4.093   3.184  0.5036 -0.2556 -0.0038
  111SAPE   C3111505   4.235   3.995   3.211  0.9628 -0.0982  0.1148
  111SAPE   O3211506   4.348   4.005   3.166 -0.0411  0.4490 -0.4744
  111SAPE   C3211507   4.171   3.892   3.304  0.0627  0.5662 -0.3341
  111SAPE   H2X11508   4.215   3.792   3.284 -2.0955 -0.9698  1.9495
  111SAPE   H2Y11509   4.061   3.896   3.290  0.0025  0.8883  0.1893
  111SAPE   C2311510   3.751   3.964   2.999 -0.5391 -0.3527 -0.3372
  111SAPE   H3R11511   3.690   4.043   2.951  0.7760 -0.4747 -2.3402
  111SAPE   H3S11512   3.805   4.004   3.087 -0.1958  1.0875 -1.1812
  111SAPE   C2411513   3.657   3.857   3.056  0.5789 -0.0997 -0.3959
  111SAPE   H4R11514   3.712   3.776   3.109 -2.3553 -1.3152  1.0475
  111SAPE   H4S11515   3.613   3.810   2.965  1.3603 -1.4232 -0.1209
  111SAPE   C2511516   3.543   3.902   3.143  0.8665 -0.2391  0.0844
  111SAPE   H5R11517   3.480   3.984   3.104 -0.3390 -0.0226  2.3084
  111SAPE   C2611518   3.505   3.842   3.255  0.6248  0.1021  0.9017
  111SAPE   H6R11519   3.413   3.874   3.306  1.0198  1.4040  0.8262
  111SAPE   C2711520   3.566   3.720   3.325  0.3445 -0.3728 -0.1118
  111SAPE   H7R11521   3.584   3.638   3.253  3.3942 -0.0102  0.1365
  111SAPE   H7S11522   3.483   3.675   3.384  0.6198 -1.9401 -0.8823
  111SAPE   C2811523   3.695   3.735   3.395 -0.3917  0.3918  0.3718
  111SAPE   H8R11524   3.768   3.779   3.326 -0.0248 -0.5165  0.1652
  111SAPE   C2911525   3.727   3.709   3.521  0.0852  0.8653 -0.1519
  111SAPE   H9R11526   3.831   3.724   3.556  0.1534  0.2660 -0.0885
  111SAPE  C21011527   3.622   3.665   3.629  0.4655 -0.7542  0.5468
  111SAPE  H10R11528   3.672   3.578   3.676  1.9633  0.3340  1.0425
  111SAPE  H10S11529   3.529   3.626   3.583  1.5854 -0.2631 -2.3861
  111SAPE  C21111530   3.598   3.775   3.729  0.0546 -0.1468  0.1177
  111SAPE  H11R11531   3.540   3.863   3.694 -0.5737 -1.0795 -1.3029
  111SAPE  C21211532   3.644   3.783   3.858  0.7550 -0.3305  0.6021
  111SAPE  H12R11533   3.614   3.874   3.913  4.3117 -0.4494  3.1288
  111SAPE  C21311534   3.722   3.679   3.937 -0.3889 -0.3770  0.1783
  111SAPE  H13R11535   3.766   3.615   3.857  0.2015  0.1824  0.0434
  111SAPE  H13S11536   3.652   3.616   3.996 -1.2658  1.9105  1.7241
  111SAPE  C21411537   3.839   3.737   4.017 -0.9834 -0.1982  0.1216
  111SAPE  H14R11538   3.931   3.748   3.957 -0.1266 -0.6886  1.3115
  111SAPE  C21511539   3.828   3.753   4.154 -0.1610  0.3605  0.5914
  111SAPE  H15R11540   3.910   3.797   4.213 -0.9711  2.4465  0.2459
  111SAPE  C21611541   3.713   3.725   4.252  0.1143 -0.8421  0.6523
  111SAPE  H16R11542   3.620   3.715   4.193  0.7356 -1.1500 -0.2960
  111SAPE  H16S11543   3.704   3.816   4.315  2.6670  0.2259 -0.4083
  111SAPE  C21711544   3.735   3.599   4.322  0.5532  0.3664  0.2538
  111SAPE  H17R11545   3.839   3.591   4.360  1.1583 -2.4713 -1.7319
  111SAPE  H17S11546   3.733   3.505   4.263 -0.2993 -1.1899  2.6005
  111SAPE  C21811547   3.639   3.579   4.442  0.1594 -0.3093  0.3959
  111SAPE  H18R11548   3.636   3.679   4.491  2.2834  0.6467 -1.2832
  111SAPE  H18S11549   3.695   3.515   4.513  3.7904  0.9673 -1.1112
  111SAPE  C21911550   3.501   3.533   4.413  0.0780  0.2982  0.3135
  111SAPE  H19R11551   3.506   3.422   4.406  1.0713  0.3956 -1.0777
  111SAPE  H19S11552   3.455   3.577   4.322 -1.1001 -0.5416  0.4943
  111SAPE  C22011553   3.394   3.572   4.514  0.1230 -0.1088  0.3683
  111SAPE  H20R11554   3.389   3.682   4.528  0.2481 -0.0826  0.2151
  111SAPE  H20S11555   3.416   3.532   4.615 -2.4472  0.6325  1.2848
  111SAPE  H20T11556   3.292   3.538   4.487  0.1136  0.0312  0.2201
  111SAPE   C3311557   4.177   3.925   3.459 -0.3640  0.5648  0.1835
  111SAPE   H3X11558   4.097   3.996   3.491 -2.8180 -1.9000 -0.0903
  111SAPE   H3Y11559   4.283   3.954   3.475  0.5872 -1.4230 -1.9382
  111SAPE   C3411560   4.154   3.799   3.546  0.5645 -0.3184  0.1364
  111SAPE   H4X11561   4.205   3.713   3.500  0.2696  0.0575 -0.9190
  111SAPE   H4Y11562   4.048   3.770   3.535  0.4111  0.2815 -0.0332
  111SAPE   C3511563   4.187   3.837   3.693 -0.2030  1.1072 -0.4551
  111SAPE   H5X11564   4.094   3.875   3.738 -0.6898 -0.2343 -0.2810
  111SAPE   H5Y11565   4.258   3.923   3.684 -0.6250  1.8830  2.6598
  111SAPE   C3611566   4.254   3.724   3.771 -0.0981  0.0843  1.0058
  111SAPE   H6X11567   4.353   3.710   3.723  0.2403 -1.8026  2.1646
  111SAPE   H6Y11568   4.200   3.628   3.779 -0.1487  0.1932  2.3232
  111SAPE   C3711569   4.269   3.769   3.913 -0.3311 -0.5785  0.0360
  111SAPE   H7X11570   4.166   3.765   3.954 -1.1704 -0.6187 -1.9424
  111SAPE   H7Y11571   4.301   3.875   3.906 -0.5701 -0.5021  0.0951
  111SAPE   C3811572   4.365   3.684   3.996  0.0124  0.1283 -0.5613
  111SAPE   H8X11573   4.464   3.730   3.972  0.4120  0.9470  2.3462
  111SAPE   H8Y11574   4.356   3.574   3.981  1.4884 -0.2439  0.9483
  111SAPE   C3911575   4.339   3.703   4.141  0.1225  0.0245  0.4809
  111SAPE   H9X11576   4.317   3.810   4.164 -0.6136  0.0633 -0.3559
  111SAPE   H9Y11577   4.424   3.668   4.204 -0.9996 -2.1127  0.8695
  111SAPE  C31011578   4.220   3.618   4.200  0.5635 -0.4287 -0.1437
  111SAPE  H10X11579   4.141   3.614   4.121 -0.6794  0.3716  1.0223
  111SAPE  H10Y11580   4.175   3.675   4.284 -2.5507 -3.8631  0.8077
  111SAPE  C31111581   4.254   3.478   4.238 -0.4699 -0.2034  0.1347
  111SAPE  H11X11582   4.270   3.428   4.140 -0.8197 -1.0276  0.4894
  111SAPE  H11Y11583   4.161   3.435   4.283  0.0381 -0.3560  1.0553
  111SAPE  C31211584   4.364   3.460   4.335 -0.0950  0.5766  0.7048
  111SAPE  H12X11585   4.372   3.553   4.394 -1.1672  1.1231  0.0173
  111SAPE  H12Y11586   4.461   3.442   4.284  0.2188  1.4201  0.9906
  111SAPE  C31311587   4.349   3.332   4.416  0.2325 -0.1017 -0.1968
  111SAPE  H13X11588   4.334   3.248   4.345  0.1308 -0.7301  0.5460
  111SAPE  H13Y11589   4.259   3.346   4.481  1.7677  0.0837  2.0105
  111SAPE  C31411590   4.476   3.325   4.501  0.5352  0.0599 -0.2822
  111SAPE  H14X11591   4.564   3.317   4.433 -0.6928  0.5876 -2.0120
  111SAPE  H14Y11592   4.467   3.243   4.575 -1.4263 -0.6096 -1.2078
  111SAPE  C31511593   4.506   3.451   4.577  0.5303  0.3066 -0.4055
  111SAPE  H15X11594   4.419   3.479   4.641 -0.4031  1.3356 -2.0433
  111SAPE  H15Y11595   4.521   3.544   4.518  1.0430  0.9930  0.7746
  111SAPE  C31611596   4.628   3.449   4.670  0.1514  0.7500  0.2652
  111SAPE  H16X11597   4.626   3.361   4.737  2.4575  0.3729 -0.0819
  111SAPE  H16Y11598   4.619   3.541   4.732  1.6418  1.6274 -0.7746
  111SAPE  C31711599   4.764   3.450   4.596 -0.4887 -0.7127  0.5326
  111SAPE  H17X11600   4.775   3.552   4.554  0.8326 -0.4934  1.3761
  111SAPE  H17Y11601   4.780   3.383   4.509 -0.8241  0.0810 -0.1520
  111SAPE  C31811602   4.876   3.424   4.692 -0.0413 -0.5355  0.6568
  111SAPE  H18X11603   4.883   3.500   4.773  0.4172 -0.0221  0.1437
  111SAPE  H18Y11604   4.969   3.430   4.633 -1.1442  2.1904 -1.0015
  111SAPE  H18Z11605   4.866   3.321   4.731  2.6850 -1.8000 -1.6846
  112SAPE     N11606   1.519   3.458   2.366 -0.0271 -1.0362 -0.3192
  112SAPE   HN111607   1.503   3.544   2.309 -2.1222 -0.0664  1.5726
  112SAPE   HN211608   1.589   3.393   2.324  3.8304  1.1393  2.1605
  112SAPE   HN311609   1.425   3.416   2.363 -1.5439  2.0514 -0.3490
  112SAPE   C1211610   1.564   3.492   2.507 -0.0216  0.4267  0.4558
  112SAPE  H12A11611   1.515   3.590   2.524 -0.3508  0.6125 -1.3216
  112SAPE  H12B11612   1.673   3.494   2.526  0.4670  2.0711 -2.1209
  112SAPE   C1111613   1.507   3.394   2.606  0.2651  0.0938 -0.1527
  112SAPE  H11A11614   1.403   3.430   2.616  1.0642  2.9083 -1.0520
  112SAPE  H11B11615   1.551   3.403   2.708  1.6122 -1.8367 -0.5068
  112SAPE     P11616   1.595   3.154   2.606  0.0174 -0.1305  0.3753
  112SAPE   O1311617   1.544   3.022   2.572 -0.3161  0.1295 -0.4648
  112SAPE   O1411618   1.719   3.201   2.539 -0.5998  0.0662 -0.3282
  112SAPE   O1211619   1.484   3.258   2.567 -0.1573  0.1944 -0.0104
  112SAPE   O1111620   1.615   3.164   2.758  0.2521  0.2841  0.4053
  112SAPE    C111621   1.504   3.158   2.852  0.2877 -0.4430  1.2772
  112SAPE    HA11622   1.467   3.261   2.872  0.2659  0.2368 -1.8354
  112SAPE    HB11623   1.421   3.096   2.813 -0.2523  1.9009 -1.6178
  112SAPE    C211624   1.562   3.096   2.982 -1.0089  0.3544  0.2008
  112SAPE    HS11625   1.478   3.058   3.044 -0.9955  0.3795  0.2342
  112SAPE   O2111626   1.648   3.189   3.055 -0.1717 -0.0375 -0.0389
  112SAPE   C2111627   1.591   3.300   3.089  0.6599 -0.3169  0.1094
  112SAPE   O2211628   1.468   3.316   3.113  0.2030 -0.3342  0.0116
  112SAPE   C2211629   1.692   3.409   3.110  0.3885 -0.1885 -0.3369
  112SAPE   H2R11630   1.769   3.385   3.034  1.0130 -2.5382  0.9489
  112SAPE   H2S11631   1.655   3.513   3.099 -0.7073 -0.5649 -0.3879
  112SAPE    C311632   1.646   2.962   2.946  0.8413 -0.3431  0.8352
  112SAPE    HX11633   1.733   2.994   2.885  1.5500 -0.1909  1.9087
  112SAPE    HY11634   1.577   2.904   2.881  1.4700 -1.2647  0.9722
  112SAPE   O3111635   1.676   2.885   3.065  0.1120 -0.1083  0.0998
  112SAPE   C3111636   1.802   2.855   3.077 -0.2607 -0.4431 -0.3779
  112SAPE   O3211637   1.894   2.894   3.003  0.2499  0.0136 -0.1261
  112SAPE   C3211638   1.824   2.777   3.201  1.0108  0.2529  0.3100
  112SAPE   H2X11639   1.930   2.743   3.202  2.1936  3.3823 -1.5654
  112SAPE   H2Y11640   1.745   2.699   3.207 -0.1600  1.2432 -1.3522
  112SAPE   C2311641   1.757   3.400   3.248  0.3294 -0.2124 -0.4083
  112SAPE   H3R11642   1.865   3.427   3.250  0.9231 -2.3604  2.4854
  112SAPE   H3S11643   1.771   3.295   3.281 -1.4729 -0.5473 -0.6185
  112SAPE   C2411644   1.689   3.481   3.357  0.3510 -0.2836 -0.7247
  112SAPE   H4R11645   1.688   3.589   3.330  0.1129 -0.4926 -1.5842
  112SAPE   H4S11646   1.755   3.485   3.447  1.8619  1.4200 -1.8092
  112SAPE   C2511647   1.543   3.462   3.398  0.9478 -0.3564 -0.2030
  112SAPE   H5R11648   1.489   3.394   3.331  0.1108 -0.9633  1.0410
  112SAPE   C2611649   1.482   3.509   3.508 -0.0072  0.6911 -0.2058
  112SAPE   H6R11650   1.375   3.492   3.525 -1.0196  2.0955 -4.0571
  112SAPE   C2711651   1.538   3.592   3.618  0.3101  0.0642  0.4399
  112SAPE   H7R11652   1.649   3.589   3.627  0.3395  1.5425  0.8265
  112SAPE   H7S11653   1.506   3.539   3.711  1.8185 -2.0729 -0.1751
  112SAPE   C2811654   1.495   3.735   3.626  0.0291  0.1847 -0.4777
  112SAPE   H8R11655   1.476   3.788   3.531  2.4994  0.2129 -1.0222
  112SAPE   C2911656   1.495   3.810   3.739  0.4049 -0.3909 -0.0044
  112SAPE   H9R11657   1.457   3.913   3.727  2.2688  0.2381 -0.8580
  112SAPE  C21011658   1.533   3.766   3.878 -0.1646 -0.3557  0.1256
  112SAPE  H10R11659   1.632   3.716   3.878 -0.6391 -1.3228 -0.4749
  112SAPE  H10S11660   1.456   3.687   3.895 -3.2659  2.7076  1.6857
  112SAPE  C21111661   1.508   3.873   3.978 -0.2430 -0.4954  0.0133
  112SAPE  H11R11662   1.498   3.974   3.936  0.0744 -1.4865 -2.5841
  112SAPE  C21211663   1.513   3.866   4.115  0.2735  0.0627 -0.6090
  112SAPE  H12R11664   1.488   3.955   4.174 -1.1529 -1.2923  0.9097
  112SAPE  C21311665   1.534   3.740   4.198  0.3140  0.5206  0.6360
  112SAPE  H13R11666   1.602   3.770   4.279  0.9011 -0.9519  0.7187
  112SAPE  H13S11667   1.583   3.664   4.133 -0.3444  0.9069 -0.3513
  112SAPE  C21411668   1.390   3.695   4.225  0.2693  0.1613 -0.1170
  112SAPE  H14R11669   1.312   3.715   4.151  0.0606  1.4234  0.4179
  112SAPE  C21511670   1.345   3.649   4.345 -0.1148 -0.1991 -0.2298
  112SAPE  H15R11671   1.239   3.624   4.364  0.3274 -0.7780  1.6340
  112SAPE  C21611672   1.427   3.604   4.465 -0.0777  0.3625 -0.0480
  112SAPE  H16R11673   1.397   3.665   4.554  0.0289  1.8097 -0.9687
  112SAPE  H16S11674   1.535   3.625   4.454 -0.1782  0.8019 -0.2197
  112SAPE  C21711675   1.418   3.453   4.480  0.2901 -0.5210 -0.3408
  112SAPE  H17R11676   1.310   3.445   4.507  0.9417 -1.3096  2.3091
  112SAPE  H17S11677   1.480   3.417   4.565  0.0486  0.6410  0.3554
  112SAPE  C21811678   1.441   3.360   4.357 -0.2751  0.4758 -0.3200
  112SAPE  H18R11679   1.546   3.362   4.320 -0.4415 -2.0573 -1.0812
  112SAPE  H18S11680   1.376   3.404   4.278  1.6542  2.7357 -0.7663
  112SAPE  C21911681   1.383   3.227   4.383 -0.1754  0.3705  0.6940
  112SAPE  H19R11682   1.283   3.231   4.431 -0.5919  0.0529 -0.1232
  112SAPE  H19S11683   1.454   3.176   4.451 -1.4116 -1.3393  0.7414
  112SAPE  C22011684   1.366   3.143   4.254 -0.6343 -0.4235  0.1536
  112SAPE  H20R11685   1.327   3.040   4.268 -2.6308  0.3467  0.5047
  112SAPE  H20S11686   1.458   3.134   4.191 -0.4977 -0.3087  0.3349
  112SAPE  H20T11687   1.296   3.190   4.183  0.5914 -0.0131 -0.8252
  112SAPE   C3311688   1.795   2.864   3.320 -0.2744 -0.0815 -0.3425
  112SAPE   H3X11689   1.816   2.798   3.408 -1.8637 -2.1701 -1.4314
  112SAPE   H3Y11690   1.686   2.883   3.312 -0.3337 -0.6801 -1.0627
  112SAPE   C3411691   1.857   3.004   3.327 -0.6655  0.8788  0.4473
  112SAPE   H4X11692   1.793   3.067   3.263 -0.7738  1.9239  1.5354
  112SAPE   H4Y11693   1.962   3.018   3.293 -0.5449  0.5837  0.6867
  112SAPE   C3511694   1.844   3.059   3.469  0.1162 -0.9644 -0.4870
  112SAPE   H5X11695   1.744   3.039   3.513 -0.3252 -1.6166 -1.7343
  112SAPE   H5Y11696   1.856   3.170   3.467  1.0332 -1.0581 -1.6712
  112SAPE   C3611697   1.950   3.012   3.578 -0.2816  0.2535  0.6811
  112SAPE   H6X11698   2.045   3.031   3.524  0.1406  0.0667  1.3508
  112SAPE   H6Y11699   1.941   2.902   3.589  0.9039  0.2071  1.2049
  112SAPE   C3711700   1.944   3.081   3.708  0.7058 -0.0230  0.4701
  112SAPE   H7X11701   1.863   3.053   3.780  1.3777 -0.1888  1.1771
  112SAPE   H7Y11702   1.951   3.192   3.700  1.0997 -0.1481 -1.3397
  112SAPE   C3811703   2.080   3.056   3.784  0.2926 -0.2125  0.5643
  112SAPE   H8X11704   2.170   3.087   3.728 -1.0862 -1.2659 -2.4674
  112SAPE   H8Y11705   2.091   2.948   3.806  0.5176 -0.1570  0.7183
  112SAPE   C3911706   2.075   3.101   3.937  0.1933 -0.2464  0.4618
  112SAPE   H9X11707   1.985   3.048   3.976 -0.2071 -0.8690 -1.2362
  112SAPE   H9Y11708   2.060   3.210   3.951 -1.8540 -0.2304 -1.3256
  112SAPE  C31011709   2.188   3.042   4.016 -0.5330  1.0793 -0.1080
  112SAPE  H10X11710   2.285   3.088   3.990  1.3060 -1.0122  2.5338
  112SAPE  H10Y11711   2.211   2.935   3.996  1.8834  1.8102 -1.6978
  112SAPE  C31111712   2.160   3.063   4.167 -0.2922  0.0207 -0.4224
  112SAPE  H11X11713   2.091   2.987   4.209 -2.1674  0.2043 -2.9241
  112SAPE  H11Y11714   2.112   3.163   4.178  2.6836  1.2971  2.5865
  112SAPE  C31211715   2.291   3.065   4.247 -0.0629 -0.4202  0.1032
  112SAPE  H12X11716   2.372   3.126   4.201  0.1009 -1.4180 -0.9966
  112SAPE  H12Y11717   2.331   2.961   4.247  2.5921  0.5069  1.5004
  112SAPE  C31311718   2.256   3.110   4.393  0.3638  0.7759  0.2533
  112SAPE  H13X11719   2.206   3.022   4.439 -0.2488 -0.2964 -2.2866
  112SAPE  H13Y11720   2.188   3.198   4.399 -0.0340  0.5243 -0.4464
  112SAPE  C31411721   2.387   3.149   4.468  0.2700 -0.2293  0.2019
  112SAPE  H14X11722   2.463   3.217   4.424  1.7418 -2.1112 -0.3051
  112SAPE  H14Y11723   2.428   3.049   4.492 -1.5202 -0.7870  1.0462
  112SAPE  C31511724   2.342   3.198   4.608 -0.0205 -0.0763  0.9231
  112SAPE  H15X11725   2.309   3.109   4.667 -2.4050 -0.4397 -0.8392
  112SAPE  H15Y11726   2.255   3.267   4.605  0.5666  0.7979  2.6309
  112SAPE  C31611727   2.455   3.254   4.691 -0.6935 -0.6128 -0.9105
  112SAPE  H16X11728   2.420   3.266   4.796 -0.6218 -0.5647 -0.8915
  112SAPE  H16Y11729   2.472   3.359   4.660 -3.0614  0.0844 -0.0851
  112SAPE  C31711730   2.584   3.167   4.695 -0.1042  0.1218 -0.4087
  112SAPE  H17X11731   2.625   3.149   4.594  0.8076  1.0784 -0.2296
  112SAPE  H17Y11732   2.562   3.059   4.711  3.3832 -0.3809  1.9829
  112SAPE  C31811733   2.690   3.221   4.792 -0.0412 -0.1134 -0.5169
  112SAPE  H18X11734   2.712   3.324   4.758 -0.5941 -0.3163 -1.5066
  112SAPE  H18Y11735   2.787   3.165   4.790  1.0316  1.5891  0.9327
  112SAPE  H18Z11736   2.643   3.216   4.892 -1.2925 -0.5788 -1.1046
  113SAPE     N11737   2.294   2.893   2.871  0.3714  0.4485  0.3561
  113SAPE   HN111738   2.265   2.869   2.968  0.4121  1.6234  0.6771
  113SAPE   HN211739   2.385   2.847   2.849  2.5782  4.0040  1.3132
  113SAPE   HN311740   2.323   2.992   2.876 -2.0302  1.2131  0.4789
  113SAPE   C1211741   2.182   2.870   2.772 -0.2761 -0.3683 -0.3255
  113SAPE  H12A11742   2.203   2.911   2.671 -0.7168  1.6604  0.3532
  113SAPE  H12B11743   2.091   2.915   2.817 -0.4318  1.1067 -2.0002
  113SAPE   C1111744   2.151   2.717   2.764  0.0255 -0.8566  0.4334
  113SAPE  H11A11745   2.071   2.700   2.689  2.5373 -0.1429 -2.5988
  113SAPE  H11B11746   2.125   2.671   2.862  0.1016 -1.3222  0.2356
  113SAPE     P11747   2.315   2.626   2.586 -0.1580  0.0457 -0.0626
  113SAPE   O1311748   2.209   2.553   2.524  0.0009 -0.3132  0.2307
  113SAPE   O1411749   2.346   2.757   2.525 -0.5463  0.4041 -0.0141
  113SAPE   O1211750   2.269   2.644   2.730 -0.1495 -0.6872 -0.4656
  113SAPE   O1111751   2.444   2.537   2.596  0.2023 -0.8240 -0.7575
  113SAPE    C111752   2.536   2.572   2.705 -0.1992  0.2582 -0.8281
  113SAPE    HA11753   2.635   2.524   2.686 -0.4811 -1.4385  1.5849
  113SAPE    HB11754   2.561   2.678   2.724  1.3813 -0.1896 -0.2455
  113SAPE    C211755   2.499   2.501   2.841  0.2451 -0.3045 -0.2042
  113SAPE    HS11756   2.397   2.534   2.872  1.0824  1.8894  0.3792
  113SAPE   O2111757   2.590   2.538   2.943 -0.7837  0.4725 -0.2318
  113SAPE   C2111758   2.573   2.662   2.993 -0.2542  0.0025  0.3395
  113SAPE   O2211759   2.502   2.753   2.958  0.0784  0.1112 -0.0235
  113SAPE   C2211760   2.669   2.670   3.125  0.6110 -0.0244 -0.4500
  113SAPE   H2R11761   2.604   2.630   3.206 -0.2997  2.3720  0.0658
  113SAPE   H2S11762   2.746   2.595   3.097 -1.2142 -2.8376  1.4666
  113SAPE    C311763   2.500   2.349   2.834  0.0376 -0.1139  0.2780
  113SAPE    HX11764   2.595   2.312   2.790 -0.0009 -1.5983  1.3433
  113SAPE    HY11765   2.426   2.314   2.758  2.3174  0.8275 -2.5584
  113SAPE   O3111766   2.487   2.284   2.957  0.6220  0.1744 -0.4974
  113SAPE   C3111767   2.362   2.265   3.008  0.1503  0.2373 -0.1887
  113SAPE   O3211768   2.262   2.316   2.964  0.2881  0.0484 -0.5352
  113SAPE   C3211769   2.382   2.216   3.153 -0.1839 -0.5356  0.1135
  113SAPE   H2X11770   2.453   2.292   3.194  0.4784  0.0444 -2.0104
  113SAPE   H2Y11771   2.426   2.115   3.157  2.1408  0.3636 -0.8667
  113SAPE   C2311772   2.718   2.812   3.151  1.0033 -0.0058 -0.1039
  113SAPE   H3R11773   2.637   2.888   3.150  0.5088 -0.4462  1.9943
  113SAPE   H3S11774   2.789   2.847   3.072 -0.2006  2.8170 -0.0498
  113SAPE   C2411775   2.797   2.827   3.281 -0.9012  0.7785 -0.0589
  113SAPE   H4R11776   2.866   2.741   3.288  1.5522  2.6326 -0.1181
  113SAPE   H4S11777   2.720   2.822   3.361 -2.3630  0.9757 -1.3912
  113SAPE   C2511778   2.890   2.946   3.304 -0.4759 -0.2918  0.2651
  113SAPE   H5R11779   2.982   2.956   3.245  0.2362 -1.5730  1.1273
  113SAPE   C2611780   2.877   3.049   3.383 -0.3493 -0.6611  0.3455
  113SAPE   H6R11781   2.952   3.128   3.373  0.5438 -1.6288 -0.8674
  113SAPE   C2711782   2.768   3.065   3.478  0.4645 -0.2293 -0.2456
  113SAPE   H7R11783   2.759   2.965   3.528 -0.7902  0.5619  1.2202
  113SAPE   H7S11784   2.677   3.073   3.415  1.0830  0.6065 -1.0466
  113SAPE   C2811785   2.778   3.182   3.573 -0.0929 -0.2157 -0.4804
  113SAPE   H8R11786   2.766   3.282   3.526 -0.7593 -0.6108 -1.1779
  113SAPE   C2911787   2.815   3.175   3.701 -0.0418  0.3828  0.4577
  113SAPE   H9R11788   2.829   3.264   3.764  2.5347 -0.8535  1.7723
  113SAPE  C21011789   2.853   3.050   3.784  0.3778  0.3215  0.7739
  113SAPE  H10R11790   2.821   2.962   3.725 -0.5284  0.5746  0.8777
  113SAPE  H10S11791   2.782   3.048   3.869 -2.2184 -2.2594 -1.2444
  113SAPE  C21111792   3.002   3.039   3.812 -0.2029  0.0504 -0.0384
  113SAPE  H11R11793   3.063   3.020   3.722  0.2519 -1.0033  0.4686
  113SAPE  C21211794   3.063   3.045   3.932 -0.4833 -0.1753 -0.1057
  113SAPE  H12R11795   3.173   3.043   3.937 -0.4525 -0.3723 -0.8358
  113SAPE  C21311796   3.003   3.065   4.068  0.3439  0.6016  0.1228
  113SAPE  H13R11797   3.074   3.051   4.152  0.0127  0.6307  0.4127
  113SAPE  H13S11798   2.927   2.985   4.082  0.6127  0.6026  1.8545
  113SAPE  C21411799   2.929   3.199   4.090 -0.2904 -0.6468 -0.0342
  113SAPE  H14R11800   2.902   3.248   3.996 -0.4143 -0.0155  0.3237
  113SAPE  C21511801   2.898   3.260   4.208  0.4484  0.0768 -0.4357
  113SAPE  H15R11802   2.838   3.351   4.217 -1.2299 -1.2305  3.9049
  113SAPE  C21611803   2.934   3.207   4.349 -0.2049  0.4406  0.5696
  113SAPE  H16R11804   2.988   3.111   4.335  0.0852  0.5762  0.7652
  113SAPE  H16S11805   2.842   3.203   4.411 -1.1988  0.3931 -0.8572
  113SAPE  C21711806   3.037   3.291   4.427  0.0460  0.2949  0.4641
  113SAPE  H17R11807   3.006   3.398   4.432  0.5686  0.5597 -1.2523
  113SAPE  H17S11808   3.142   3.287   4.391  1.0250 -1.2005  3.2120
  113SAPE  C21811809   3.044   3.244   4.572  0.2843  0.3344 -0.5175
  113SAPE  H18R11810   3.082   3.140   4.570  1.5863  0.7965 -1.0874
  113SAPE  H18S11811   2.944   3.246   4.620  1.1362 -4.5613  2.1478
  113SAPE  C21911812   3.150   3.307   4.663  0.1285  0.5503  0.4280
  113SAPE  H19R11813   3.125   3.413   4.682  1.3678  0.6725  1.4380
  113SAPE  H19S11814   3.244   3.299   4.604  0.4336 -0.3369  1.0188
  113SAPE  C22011815   3.169   3.241   4.800 -0.6369 -0.0132 -0.4234
  113SAPE  H20R11816   3.113   3.145   4.806  0.9815 -0.9401  0.6136
  113SAPE  H20S11817   3.134   3.307   4.882  2.0020 -0.0027  0.7820
  113SAPE  H20T11818   3.272   3.204   4.817 -0.7093 -1.0507 -1.9560
  113SAPE   C3311819   2.242   2.211   3.222  0.0560 -0.2135 -0.1790
  113SAPE   H3X11820   2.207   2.118   3.173  0.1568 -0.1454 -0.3830
  113SAPE   H3Y11821   2.181   2.297   3.187  1.2718  1.0174  0.5976
  113SAPE   C3411822   2.245   2.198   3.376  0.2716 -0.2758 -0.3446
  113SAPE   H4X11823   2.321   2.121   3.401 -0.5096 -2.0065 -2.9032
  113SAPE   H4Y11824   2.143   2.159   3.394  0.2114 -0.3306 -0.7831
  113SAPE   C3511825   2.260   2.329   3.445 -0.4024  0.3634 -0.2634
  113SAPE   H5X11826   2.191   2.404   3.401  2.1139  3.2853  0.3871
  113SAPE   H5Y11827   2.366   2.364   3.451 -1.0604  2.4452  0.0918
  113SAPE   C3611828   2.213   2.322   3.593  0.5107  0.7373 -0.3552
  113SAPE   H6X11829   2.121   2.260   3.606 -0.3080  1.8255 -0.7483
  113SAPE   H6Y11830   2.197   2.425   3.631  0.5483  0.0005  1.8148
  113SAPE   C3711831   2.324   2.281   3.684 -0.1143  0.8393 -1.6923
  113SAPE   H7X11832   2.412   2.347   3.670  1.2162 -1.0087 -2.5488
  113SAPE   H7Y11833   2.362   2.181   3.654  0.5949  0.7846 -0.6473
  113SAPE   C3811834   2.288   2.277   3.836 -0.2806 -0.7931  0.0582
  113SAPE   H8X11835   2.243   2.375   3.863 -0.7385 -0.5285 -1.5645
  113SAPE   H8Y11836   2.221   2.191   3.856 -0.7302 -0.2143  1.1930
  113SAPE   C3911837   2.416   2.258   3.929 -0.5175 -0.4491  0.3990
  113SAPE   H9X11838   2.495   2.304   3.867 -1.3425 -0.6528 -0.8260
  113SAPE   H9Y11839   2.438   2.150   3.944  0.7342 -0.1183  1.1135
  113SAPE  C31011840   2.392   2.325   4.069  0.2723 -0.3511  0.4280
  113SAPE  H10X11841   2.291   2.289   4.097  0.7674 -1.9636  0.2595
  113SAPE  H10Y11842   2.388   2.435   4.051  0.7790 -0.0425  2.0805
  113SAPE  C31111843   2.499   2.283   4.170  0.0419 -0.0896  0.5681
  113SAPE  H11X11844   2.595   2.292   4.115 -1.0407  1.9469 -1.1873
  113SAPE  H11Y11845   2.480   2.174   4.176 -1.6369  0.1524  0.1076
  113SAPE  C31211846   2.496   2.364   4.303 -0.2914  0.7953 -0.1882
  113SAPE  H12X11847   2.395   2.354   4.349 -0.5739  2.9116 -0.2243
  113SAPE  H12Y11848   2.500   2.474   4.284 -0.6157  1.0168  0.9686
  113SAPE  C31311849   2.606   2.320   4.404  0.7859  0.0518 -0.5843
  113SAPE  H13X11850   2.706   2.345   4.363  0.1189  0.5146 -1.9701
  113SAPE  H13Y11851   2.599   2.210   4.419 -4.4509  0.0021 -1.5128
  113SAPE  C31411852   2.601   2.385   4.545 -1.2290 -0.0059 -0.1838
  113SAPE  H14X11853   2.601   2.494   4.524 -0.6493 -0.1506 -1.0026
  113SAPE  H14Y11854   2.687   2.343   4.601 -2.5114 -0.6533  1.3528
  113SAPE  C31511855   2.476   2.351   4.620 -0.0193 -0.3694 -0.2551
  113SAPE  H15X11856   2.386   2.387   4.565  2.1867  3.0826 -1.9635
  113SAPE  H15Y11857   2.480   2.416   4.710  1.7078 -3.0565  1.7234
  113SAPE  C31611858   2.458   2.214   4.690 -0.1572 -0.2304  0.7402
  113SAPE  H16X11859   2.548   2.180   4.746 -0.5833 -1.2217  0.8475
  113SAPE  H16Y11860   2.448   2.133   4.614 -1.5548  0.0065  0.6548
  113SAPE  C31711861   2.338   2.214   4.789  0.4125 -0.4098 -0.4491
  113SAPE  H17X11862   2.329   2.108   4.820 -0.3919 -0.0203  0.7623
  113SAPE  H17Y11863   2.238   2.251   4.756  0.0980 -1.1530 -0.3605
  113SAPE  C31811864   2.360   2.301   4.918  0.8894 -0.2682 -0.0240
  113SAPE  H18X11865   2.430   2.259   4.993  1.7635  0.9999 -0.1021
  113SAPE  H18Y11866   2.258   2.309   4.961 -0.3039 -1.4310 -2.4310
  113SAPE  H18Z11867   2.394   2.403   4.892  1.5575  1.0549  5.0145
  114SAPE     N11868   3.072   4.546   2.744  0.4126 -0.1686 -0.2119
  114SAPE   HN111869   3.041   4.472   2.810  0.4315 -2.5003 -2.6479
  114SAPE   HN211870   3.163   4.513   2.708 -0.3669 -0.1570 -2.3538
  114SAPE   HN311871   3.075   4.639   2.792  3.4696 -0.9622  1.3872
  114SAPE   C1211872   2.978   4.539   2.620 -0.3769  0.1726 -1.2732
  114SAPE  H12A11873   3.019   4.605   2.540 -0.1688 -0.4204 -1.6655
  114SAPE  H12B11874   2.876   4.579   2.636  0.9262  3.0923  0.8145
  114SAPE   C1111875   2.966   4.397   2.572 -0.0291  0.5256  0.2327
  114SAPE  H11A11876   3.068   4.361   2.546 -1.6289 -2.2177 -3.0331
  114SAPE  H11B11877   2.903   4.403   2.481 -1.5518 -1.6341  1.0553
  114SAPE     P11878   2.826   4.188   2.634  0.4115 -0.1277  0.3712
  114SAPE   O1311879   2.698   4.242   2.582 -0.8246  0.3544 -0.1765
  114SAPE   O1411880   2.904   4.100   2.546  0.3222 -0.7655  0.4795
  114SAPE   O1211881   2.909   4.314   2.678  0.2824  0.4685 -0.3213
  114SAPE   O1111882   2.796   4.116   2.769  0.5741  0.0497 -0.0096
  114SAPE    C111883   2.739   4.192   2.880 -0.2655 -0.3799 -0.4846
  114SAPE    HA11884   2.690   4.284   2.840 -0.6209 -0.3499  0.0268
  114SAPE    HB11885   2.671   4.125   2.935  1.1777  0.4256  2.4614
  114SAPE    C211886   2.854   4.236   2.985  0.1666  0.2855  0.2634
  114SAPE    HS11887   2.943   4.272   2.930  1.7241 -0.4720  2.1669
  114SAPE   O2111888   2.877   4.120   3.079  0.6539 -0.5071 -0.5660
  114SAPE   C2111889   2.964   4.035   3.037  0.4093 -0.2056 -0.7197
  114SAPE   O2211890   3.035   4.042   2.936 -0.1559 -0.2570  0.1779
  114SAPE   C2211891   2.989   3.929   3.143  0.1965  1.1216  0.1333
  114SAPE   H2R11892   2.902   3.916   3.211 -0.4248  0.9705 -0.6679
  114SAPE   H2S11893   2.997   3.834   3.086 -1.9901  0.6277  0.5387
  114SAPE    C311894   2.798   4.366   3.059  0.4755  0.5427 -0.4406
  114SAPE    HX11895   2.699   4.327   3.091  0.7982 -1.6445 -1.9132
  114SAPE    HY11896   2.779   4.450   2.989  0.6369  1.3071  0.4051
  114SAPE   O3111897   2.860   4.410   3.180  0.3689  0.1433  0.7474
  114SAPE   C3111898   2.963   4.483   3.146 -0.1966 -0.6498  0.0002
  114SAPE   O3211899   2.997   4.521   3.035  0.4148  0.1334 -0.3270
  114SAPE   C3211900   3.042   4.508   3.278  0.4767  0.1764  0.2119
  114SAPE   H2X11901   3.066   4.404   3.309  0.1233 -0.1752 -0.6659
  114SAPE   H2Y11902   2.960   4.540   3.345  0.2887  0.1526 -0.0066
  114SAPE   C2311903   3.129   3.954   3.216 -0.1390 -0.1582  0.1802
  114SAPE   H3R11904   3.209   3.956   3.139 -1.9975  0.0085 -1.8267
  114SAPE   H3S11905   3.149   3.867   3.282 -1.2127 -2.3588 -2.2637
  114SAPE   C2411906   3.129   4.081   3.295 -0.5404 -0.0288 -0.0236
  114SAPE   H4R11907   3.124   4.177   3.239 -3.5511  1.6606  2.7645
  114SAPE   H4S11908   3.227   4.076   3.347 -0.0011 -1.4516 -1.1293
  114SAPE   C2511909   3.021   4.072   3.396 -0.0392 -0.9624 -0.2367
  114SAPE   H5R11910   2.923   4.111   3.363  0.7762  0.7848 -0.7210
  114SAPE   C2611911   3.037   4.039   3.524  0.0307  0.3739 -0.0566
  114SAPE   H6R11912   2.960   4.054   3.601  0.4932  0.0663  0.4685
  114SAPE   C2711913   3.165   3.988   3.580 -0.7248 -0.2099 -0.2753
  114SAPE   H7R11914   3.231   4.077   3.589 -0.1425 -0.6324 -0.3228
  114SAPE   H7S11915   3.209   3.914   3.511 -0.4480 -2.5869  2.2625
  114SAPE   C2811916   3.167   3.911   3.711  0.0892  1.3307 -0.3832
  114SAPE   H8R11917   3.118   3.813   3.712  1.8770  0.2905  3.1469
  114SAPE   C2911918   3.209   3.952   3.833 -0.4370 -0.2939  0.3631
  114SAPE   H9R11919   3.217   3.884   3.919  3.7267  1.0035  1.2340
  114SAPE  C21011920   3.272   4.087   3.867 -0.6130  0.2109  0.6769
  114SAPE  H10R11921   3.202   4.138   3.937  0.1329 -0.7141  2.1292
  114SAPE  H10S11922   3.290   4.152   3.779  0.3537 -0.2215  0.5445
  114SAPE  C21111923   3.413   4.075   3.923  1.1113  0.2058 -0.1194
  114SAPE  H11R11924   3.486   4.079   3.841 -0.2281  1.2170 -1.3156
  114SAPE  C21211925   3.450   4.064   4.054  0.3199 -0.0212  0.4325
  114SAPE  H12R11926   3.557   4.054   4.077  0.5834  2.9654  0.8756
  114SAPE  C21311927   3.365   4.061   4.178  0.0516 -0.3898  0.3707
  114SAPE  H13R11928   3.256   4.058   4.157  0.2035  1.7663 -1.1220
  114SAPE  H13S11929   3.389   4.149   4.243  1.0300 -1.8398  2.0762
  114SAPE  C21411930   3.407   3.940   4.256 -0.0788  0.0586  0.0206
  114SAPE  H14R11931   3.357   3.847   4.226 -0.2121  0.4331 -0.9660
  114SAPE  C21511932   3.471   3.932   4.381  0.4604  0.0536  0.4054
  114SAPE  H15R11933   3.484   3.831   4.422 -3.4107 -1.3942 -1.4242
  114SAPE  C21611934   3.532   4.042   4.462  0.3799 -0.5088 -0.4658
  114SAPE  H16R11935   3.460   4.087   4.533  0.5304  1.1986 -1.3403
  114SAPE  H16S11936   3.566   4.129   4.402  0.9059  1.3188  2.3115
  114SAPE  C21711937   3.642   3.981   4.552  0.1584 -0.2087  0.1424
  114SAPE  H17R11938   3.719   3.918   4.504  0.7665  0.9026 -0.3840
  114SAPE  H17S11939   3.595   3.921   4.633  0.6867  0.9269  1.3318
  114SAPE  C21811940   3.711   4.101   4.624 -0.1845 -0.1032  0.1824
  114SAPE  H18R11941   3.631   4.157   4.677  0.8162 -0.5292  2.2469
  114SAPE  H18S11942   3.744   4.170   4.543  2.7254 -1.0886  0.4177
  114SAPE  C21911943   3.824   4.069   4.718  0.6235  0.6041 -0.0675
  114SAPE  H19R11944   3.865   4.164   4.758  0.7802 -0.1167  1.5461
  114SAPE  H19S11945   3.907   4.031   4.655 -1.5169  1.9057 -4.0465
  114SAPE  C22011946   3.791   3.965   4.825  0.2341  0.5146 -0.0443
  114SAPE  H20R11947   3.725   4.010   4.901  0.6855 -0.8494  1.2154
  114SAPE  H20S11948   3.875   3.932   4.890 -0.2546  1.4617  1.1073
  114SAPE  H20T11949   3.735   3.873   4.798 -2.2427  2.2232 -1.0400
  114SAPE   C3311950   3.157   4.605   3.257 -0.1151  0.5205  0.1764
  114SAPE   H3X11951   3.133   4.686   3.185  0.6669 -0.3995 -1.1551
  114SAPE   H3Y11952   3.238   4.545   3.211 -0.5912 -0.3072  0.3993
  114SAPE   C3411953   3.197   4.680   3.382 -0.0095  0.2981 -0.3735
  114SAPE   H4X11954   3.114   4.741   3.423 -0.3527 -0.0076 -0.6112
  114SAPE   H4Y11955   3.280   4.751   3.360  0.1723  0.1772 -0.0873
  114SAPE   C3511956   3.254   4.589   3.495 -0.1066  1.0763  0.0018
  114SAPE   H5X11957   3.351   4.544   3.462 -0.7457  1.0399 -1.9920
  114SAPE   H5Y11958   3.186   4.505   3.520 -0.3221  1.6807  1.5134
  114SAPE   C3611959   3.264   4.670   3.628 -1.2786 -0.5078  1.0641
  114SAPE   H6X11960   3.162   4.708   3.650 -1.7971 -0.6696 -0.9139
  114SAPE   H6Y11961   3.331   4.753   3.597 -0.2712 -2.3224 -2.0787
  114SAPE   C3711962   3.321   4.596   3.748 -0.2714  0.1114 -0.1117
  114SAPE   H7X11963   3.241   4.540   3.801 -0.6232  0.2956 -0.4413
  114SAPE   H7Y11964   3.370   4.682   3.799 -0.6352  1.2039 -1.5443
  114SAPE   C3811965   3.427   4.490   3.718 -0.2325  0.5159  0.1000
  114SAPE   H8X11966   3.502   4.531   3.647 -2.2898  0.2059 -2.3714
  114SAPE   H8Y11967   3.379   4.404   3.666  1.4671 -0.4730  0.0870
  114SAPE   C3911968   3.501   4.417   3.837 -0.2349 -0.2731 -0.5079
  114SAPE   H9X11969   3.548   4.324   3.798 -1.4059 -0.4298 -1.5978
  114SAPE   H9Y11970   3.431   4.375   3.913  0.4699 -1.4735 -0.4958
  114SAPE  C31011971   3.611   4.494   3.913  0.1777 -0.6642  0.8493
  114SAPE  H10X11972   3.572   4.585   3.964  0.8170  0.0737  0.0626
  114SAPE  H10Y11973   3.684   4.521   3.833 -1.7172  0.3305 -0.6502
  114SAPE  C31111974   3.675   4.407   4.019  0.5963 -1.0127 -0.8301
  114SAPE  H11X11975   3.695   4.306   3.977  3.2007 -0.1624 -1.8640
  114SAPE  H11Y11976   3.608   4.397   4.107  0.7234  2.2918 -0.2534
  114SAPE  C31211977   3.808   4.467   4.069  0.1465  0.0517  0.3846
  114SAPE  H12X11978   3.867   4.508   3.985 -0.7242  0.8341  0.1394
  114SAPE  H12Y11979   3.865   4.389   4.124 -1.3613 -0.8208  0.7576
  114SAPE  C31311980   3.782   4.585   4.171  0.3794 -0.0694  0.5698
  114SAPE  H13X11981   3.718   4.549   4.254 -1.3128  0.1164 -0.5996
  114SAPE  H13Y11982   3.732   4.672   4.123  3.1193  0.7685 -1.0051
  114SAPE  C31411983   3.909   4.650   4.227  0.1811 -0.1524 -0.5337
  114SAPE  H14X11984   3.978   4.688   4.149 -0.3123  1.8384 -0.0637
  114SAPE  H14Y11985   3.971   4.574   4.279 -1.1038 -0.8849 -0.0317
  114SAPE  C31511986   3.879   4.772   4.308 -0.0001  0.0688  0.5375
  114SAPE  H15X11987   3.810   4.751   4.393 -0.5995  0.1727  0.0822
  114SAPE  H15Y11988   3.825   4.842   4.241 -1.1512  0.4409  1.7990
  114SAPE  C31611989   4.008   4.840   4.350  0.0751 -0.6448  0.2588
  114SAPE  H16X11990   4.066   4.830   4.256 -0.5499  1.7429 -0.4423
  114SAPE  H16Y11991   4.064   4.799   4.437 -1.7775 -0.8774  1.3988
  114SAPE  C31711992   4.001   4.986   4.397 -0.4785 -0.6676 -1.0144
  114SAPE  H17X11993   3.953   5.042   4.314 -2.1354 -0.8697 -0.2248
  114SAPE  H17Y11994   4.104   5.026   4.407 -1.4771  2.0916 -1.0161
  114SAPE  C31811995   3.929   5.000   4.535 -0.6524 -0.1033  0.2696
  114SAPE  H18X11996   3.945   5.099   4.583  0.3034 -0.7481  1.3430
  114SAPE  H18Y11997   3.957   4.913   4.599  3.5422  0.6653 -0.2586
  114SAPE  H18Z11998   3.821   4.995   4.507 -0.3956  2.2475 -1.3831
  115SAPE     N11999   0.080   6.019   2.501 -0.0346  0.0376 -0.0896
  115SAPE   HN112000   0.024   6.016   2.413  2.7505 -2.7083 -1.9859
  115SAPE   HN212001   0.040   5.953   2.570 -0.8335  1.9885  1.4302
  115SAPE   HN312002   0.075   6.112   2.548 -0.7689  0.7902 -1.5774
  115SAPE   C1212003   0.220   5.979   2.472  0.6101 -0.1455  0.5982
  115SAPE  H12A12004   0.276   6.073   2.452 -1.0038  0.9645  1.1190
  115SAPE  H12B12005   0.213   5.925   2.375  2.5710  2.1152 -0.9389
  115SAPE   C1112006   0.276   5.895   2.584  0.1780  0.2735  0.4342
  115SAPE  H11A12007   0.196   5.834   2.631 -0.8535  2.2616  1.4355
  115SAPE  H11B12008   0.321   5.965   2.657  1.8957 -0.7900  0.4370
  115SAPE     P12009   0.523   5.811   2.539 -0.1037 -0.0087  0.1174
  115SAPE   O1312010   0.585   5.696   2.471 -0.5552  0.5229  0.0022
  115SAPE   O1412011   0.561   5.945   2.493 -0.6762 -0.0612 -0.7065
  115SAPE   O1212012   0.364   5.793   2.519 -0.4651 -0.1625 -0.4470
  115SAPE   O1112013   0.552   5.808   2.689 -0.1083 -0.3339 -0.1363
  115SAPE    C112014   0.590   5.678   2.754  0.1483 -0.2895  0.0132
  115SAPE    HA12015   0.539   5.592   2.706 -0.4318  1.0143 -1.8103
  115SAPE    HB12016   0.698   5.657   2.737 -0.2244 -1.8662 -0.6146
  115SAPE    C212017   0.575   5.687   2.910 -0.3917 -0.3114 -0.0451
  115SAPE    HS12018   0.592   5.585   2.951  2.4525  0.1924  0.1816
  115SAPE   O2112019   0.451   5.736   2.953 -0.0053 -0.4941  0.3375
  115SAPE   C2112020   0.343   5.668   2.924  0.6452 -0.0028  0.3158
  115SAPE   O2212021   0.349   5.562   2.862  0.2117 -0.6364  0.0461
  115SAPE   C2212022   0.215   5.730   2.986  0.0297 -0.2375  0.2021
  115SAPE   H2R12023   0.238   5.834   3.017 -0.6574  0.2959 -1.0216
  115SAPE   H2S12024   0.132   5.726   2.913  0.1286 -0.8972  0.1137
  115SAPE    C312025   0.690   5.772   2.972 -0.3496  0.5082 -0.9460
  115SAPE    HX12026   0.689   5.863   2.908  2.0825  0.8540 -0.5891
  115SAPE    HY12027   0.788   5.723   2.952  0.0219  0.2219  1.2620
  115SAPE   O3112028   0.677   5.792   3.117  0.0693 -0.0884  0.5397
  115SAPE   C3112029   0.629   5.911   3.147 -0.2148 -0.1543 -0.5954
  115SAPE   O3212030   0.595   5.994   3.065 -0.6349 -0.5594 -0.4472
  115SAPE   C3212031   0.626   5.919   3.306  0.0950  0.6453  1.0169
  115SAPE   H2X12032   0.717   5.869   3.344  0.5075  2.0429  1.9571
  115SAPE   H2Y12033   0.540   5.858   3.341 -1.5185  1.0461 -1.9115
  115SAPE   C2312034   0.158   5.651   3.103  0.4331 -0.2097  1.0920
  115SAPE   H3R12035   0.121   5.551   3.070  0.5176 -0.0145  0.3897
  115SAPE   H3S12036   0.065   5.706   3.130  1.0009 -0.1848  3.1844
  115SAPE   C2412037   0.238   5.640   3.233 -0.5501 -0.7807  0.2218
  115SAPE   H4R12038   0.274   5.742   3.259  1.2115 -1.4287  0.5027
  115SAPE   H4S12039   0.331   5.591   3.197  0.1416  1.8669 -1.9266
  115SAPE   C2512040   0.165   5.571   3.347 -0.4449  0.1437  0.7344
  115SAPE   H5R12041   0.076   5.623   3.385 -1.6190  0.0451 -1.7341
  115SAPE   C2612042   0.182   5.446   3.381  0.5727 -0.0402 -0.7832
  115SAPE   H6R12043   0.104   5.408   3.449 -0.9313  2.1216 -1.1951
  115SAPE   C2712044   0.279   5.351   3.327 -0.3512 -0.2402  0.5870
  115SAPE   H7R12045   0.377   5.396   3.303 -0.3000  0.8700  2.5868
  115SAPE   H7S12046   0.234   5.330   3.228  2.1049  0.3508 -0.7122
  115SAPE   C2812047   0.295   5.221   3.405 -0.3818 -0.4786 -0.8932
  115SAPE   H8R12048   0.197   5.172   3.411 -0.4373 -0.1966  0.7257
  115SAPE   C2912049   0.411   5.160   3.440 -0.0713 -0.2157 -0.2667
  115SAPE   H9R12050   0.414   5.061   3.488 -0.6399 -0.0445  0.1413
  115SAPE  C21012051   0.542   5.229   3.439  1.0445  0.6118  0.1733
  115SAPE  H10R12052   0.566   5.247   3.546  1.2314 -0.5455  0.3299
  115SAPE  H10S12053   0.548   5.330   3.392  0.0032 -0.0616 -1.4782
  115SAPE  C21112054   0.639   5.141   3.373  0.2469 -0.1604  0.3102
  115SAPE  H11R12055   0.629   5.128   3.264  2.0510  1.6430 -0.1166
  115SAPE  C21212056   0.743   5.077   3.420 -0.2127  0.0888 -1.1884
  115SAPE  H12R12057   0.819   5.026   3.360  2.1139  3.0628 -1.0077
  115SAPE  C21312058   0.781   5.047   3.566 -0.5775  0.5044  0.4367
  115SAPE  H13R12059   0.816   4.942   3.582  0.7000  0.9073  0.4095
  115SAPE  H13S12060   0.693   5.059   3.633 -0.5109  0.9681  0.4407
  115SAPE  C21412061   0.883   5.143   3.609 -0.1779  0.2030  0.4280
  115SAPE  H14R12062   0.953   5.166   3.527  0.0877  0.4349  0.7154
  115SAPE  C21512063   0.909   5.205   3.728 -0.0724 -0.0536 -0.0984
  115SAPE  H15R12064   0.992   5.276   3.736 -1.4666  1.5368  0.9929
  115SAPE  C21612065   0.827   5.196   3.849  0.5640  0.0198  0.1791
  115SAPE  H16R12066   0.851   5.103   3.906  3.5231  1.4434  1.5160
  115SAPE  H16S12067   0.723   5.192   3.810  0.9682  1.8195 -1.2078
  115SAPE  C21712068   0.843   5.327   3.932 -0.1697 -0.1678 -0.0373
  115SAPE  H17R12069   0.816   5.406   3.858  2.8053  0.2519 -0.8188
  115SAPE  H17S12070   0.949   5.333   3.964 -0.6953 -1.9751  2.2739
  115SAPE  C21812071   0.754   5.332   4.060  0.1801  0.0668 -0.0149
  115SAPE  H18R12072   0.658   5.277   4.053 -0.8394  1.8259 -0.5195
  115SAPE  H18S12073   0.733   5.441   4.069 -1.6474 -0.1580 -1.0847
  115SAPE  C21912074   0.822   5.278   4.186 -0.2640  0.4561 -0.3226
  115SAPE  H19R12075   0.856   5.173   4.174 -0.0523 -0.1774  4.1270
  115SAPE  H19S12076   0.738   5.270   4.257  0.1748  0.4030  0.1954
  115SAPE  C22012077   0.932   5.362   4.249 -0.0066  0.1140  0.0022
  115SAPE  H20R12078   1.027   5.338   4.197 -0.4187 -0.9963 -0.2805
  115SAPE  H20S12079   0.947   5.336   4.356  1.6562 -3.2244 -0.9106
  115SAPE  H20T12080   0.899   5.468   4.241  0.2341  0.0619 -3.1777
  115SAPE   C3312081   0.615   6.068   3.354  0.1198  0.8366  0.1643
  115SAPE   H3X12082   0.522   6.118   3.318 -1.0501 -0.7747  0.7864
  115SAPE   H3Y12083   0.695   6.122   3.301 -1.7377  3.0130 -0.5814
  115SAPE   C3412084   0.637   6.084   3.500  0.4260  0.0528 -0.4961
  115SAPE   H4X12085   0.739   6.048   3.528  0.9474 -0.3940 -2.7763
  115SAPE   H4Y12086   0.552   6.042   3.559 -0.3888 -2.7009 -3.3775
  115SAPE   C3512087   0.634   6.231   3.546 -0.3730  0.0516 -0.3363
  115SAPE   H5X12088   0.538   6.285   3.533 -0.0368  0.6093 -0.5579
  115SAPE   H5Y12089   0.704   6.294   3.486 -1.2439 -0.6230 -2.1234
  115SAPE   C3612090   0.693   6.235   3.690 -0.1670  0.0064 -0.6926
  115SAPE   H6X12091   0.701   6.342   3.718  2.2569 -0.2661 -0.1860
  115SAPE   H6Y12092   0.790   6.181   3.692 -0.2602 -0.1303  0.2019
  115SAPE   C3712093   0.614   6.162   3.799 -0.0493  0.3309  0.1188
  115SAPE   H7X12094   0.511   6.151   3.760  0.2239  0.5958 -0.7059
  115SAPE   H7Y12095   0.612   6.224   3.891 -1.3650 -0.1040  0.3982
  115SAPE   C3812096   0.669   6.023   3.842  0.3815 -0.3211  0.3147
  115SAPE   H8X12097   0.780   6.010   3.849  0.6318  1.4760  0.1557
  115SAPE   H8Y12098   0.649   5.953   3.758  2.1354 -1.6504  0.9257
  115SAPE   C3912099   0.600   5.973   3.967 -0.6356  0.4575 -0.2637
  115SAPE   H9X12100   0.571   5.866   3.953 -0.7407  0.4552 -0.0299
  115SAPE   H9Y12101   0.500   6.019   3.982 -1.4683 -1.1378 -0.6070
  115SAPE  C31012102   0.687   5.983   4.092  0.3088  0.2132 -0.5065
  115SAPE  H10X12103   0.694   6.093   4.102 -0.6641  0.2095  0.3458
  115SAPE  H10Y12104   0.788   5.940   4.074  0.8139  0.1098  2.2407
  115SAPE  C31112105   0.629   5.920   4.214 -0.3628  0.1768 -0.6286
  115SAPE  H11X12106   0.523   5.952   4.213 -0.6289 -0.5784  0.9031
  115SAPE  H11Y12107   0.674   5.973   4.301 -0.0356  0.2440 -0.8391
  115SAPE  C31212108   0.642   5.772   4.225 -0.0778  0.7717 -0.3810
  115SAPE  H12X12109   0.746   5.736   4.240 -0.2300 -0.1671 -1.3997
  115SAPE  H12Y12110   0.597   5.724   4.135 -1.6690  1.5857 -0.0563
  115SAPE  C31312111   0.546   5.733   4.349 -0.1465  0.3957 -0.0353
  115SAPE  H13X12112   0.445   5.775   4.327 -0.4899 -0.6561 -0.5328
  115SAPE  H13Y12113   0.588   5.784   4.438 -2.3363  2.6171 -0.1389
  115SAPE  C31412114   0.546   5.584   4.376 -0.2901  0.2505  0.0384
  115SAPE  H14X12115   0.637   5.535   4.334 -0.5778  0.4581 -0.8425
  115SAPE  H14Y12116   0.458   5.553   4.316 -0.0555 -1.1128  0.3646
  115SAPE  C31512117   0.528   5.547   4.525  0.1447  0.2322 -0.2247
  115SAPE  H15X12118   0.478   5.448   4.529  1.2896 -0.3363  3.2683
  115SAPE  H15Y12119   0.453   5.619   4.564  1.0922  0.7346  0.6881
  115SAPE  C31612120   0.659   5.573   4.600  0.2347 -0.4955 -0.4930
  115SAPE  H16X12121   0.642   5.560   4.709  2.7092  0.0534  0.0139
  115SAPE  H16Y12122   0.700   5.677   4.596  0.3678 -0.4404  1.4026
  115SAPE  C31712123   0.774   5.476   4.554 -1.6548  1.1356  0.7137
  115SAPE  H17X12124   0.828   5.535   4.477 -0.2313  0.1517  0.9196
  115SAPE  H17Y12125   0.737   5.384   4.504  0.2395  0.9023 -0.3234
  115SAPE  C31812126   0.883   5.438   4.656  0.1050 -0.0250  0.2100
  115SAPE  H18X12127   0.971   5.389   4.609  0.7577 -0.4355  1.7679
  115SAPE  H18Y12128   0.834   5.368   4.728 -2.6081 -0.9484 -2.3580
  115SAPE  H18Z12129   0.915   5.525   4.717 -2.7867 -0.5610  2.7626
  116SAPE     N12130   6.537   5.380   2.890 -0.5077 -0.0019  0.0330
  116SAPE   HN112131   6.443   5.415   2.917 -1.0466 -1.0109 -0.5072
  116SAPE   HN212132   6.529   5.291   2.838  1.8676  0.8631 -2.0378
  116SAPE   HN312133   6.595   5.373   2.977  0.6883  2.0566 -0.5214
  116SAPE   C1212134   6.603   5.488   2.811 -0.1921  0.0047 -0.2175
  116SAPE  H12A12135   6.523   5.529   2.745 -1.2282  0.9443  1.5255
  116SAPE  H12B12136   6.686   5.442   2.753  0.7061  0.1246  0.9426
  116SAPE   C1112137   6.662   5.608   2.896 -0.4140 -0.1951  0.5516
  116SAPE  H11A12138   6.737   5.562   2.964 -0.3743 -0.8541  0.0796
  116SAPE  H11B12139   6.579   5.660   2.949  0.0040  2.4409 -1.2061
  116SAPE     P12140   6.623   5.806   2.728 -0.9390  0.2262 -0.3523
  116SAPE   O1312141   6.714   5.888   2.640  0.2093  0.4083  0.2099
  116SAPE   O1412142   6.509   5.737   2.664 -0.7863  0.2999  0.2583
  116SAPE   O1212143   6.717   5.707   2.808  0.1696  0.4384  0.3220
  116SAPE   O1112144   6.571   5.897   2.848  0.1095 -0.1118  0.3944
  116SAPE    C112145   6.655   5.977   2.930 -0.0562 -0.0678  0.2240
  116SAPE    HA12146   6.761   5.943   2.929  0.9833  2.8632 -0.2929
  116SAPE    HB12147   6.659   6.083   2.898  0.1623 -0.4432 -1.0263
  116SAPE    C212148   6.594   5.982   3.075 -0.0525  0.2241 -0.3450
  116SAPE    HS12149   6.580   5.878   3.112 -0.1845  1.0178  1.9985
  116SAPE   O2112150   6.466   6.046   3.068  0.2677  0.5625  0.4805
  116SAPE   C2112151   6.368   5.982   3.130 -0.7914 -0.1571 -0.2960
  116SAPE   O2212152   6.371   5.870   3.171  0.7302 -0.3037  0.0811
  116SAPE   C2212153   6.251   6.079   3.132  0.2259  0.0675  0.7080
  116SAPE   H2R12154   6.285   6.163   3.197  3.5026 -2.1868  2.2078
  116SAPE   H2S12155   6.229   6.118   3.030  1.0800  2.5431  1.3958
  116SAPE    C312156   6.690   6.053   3.171 -0.4055  0.4801  1.0755
  116SAPE    HX12157   6.712   6.146   3.115 -1.9093  1.6646  2.3582
  116SAPE    HY12158   6.774   5.984   3.197 -1.8428 -1.4393  0.8528
  116SAPE   O3112159   6.612   6.087   3.287 -0.1086 -0.3511  0.6540
  116SAPE   C3112160   6.607   5.997   3.378  0.8443  0.8452  0.3861
  116SAPE   O3212161   6.671   5.893   3.376 -0.5316  0.0759  0.0629
  116SAPE   C3212162   6.505   6.038   3.487  0.3055  0.6381  0.7603
  116SAPE   H2X12163   6.401   6.012   3.456  0.3688  0.8856  0.3347
  116SAPE   H2Y12164   6.508   6.146   3.512  1.3219  0.7345  0.2507
  116SAPE   C2312165   6.132   6.021   3.220 -0.4305  0.6708 -0.4135
  116SAPE   H3R12166   6.180   6.001   3.318  0.2364 -1.1963 -1.0770
  116SAPE   H3S12167   6.103   5.918   3.192 -0.3046  0.2583  0.8804
  116SAPE   C2412168   6.019   6.115   3.215  0.4877 -0.6652  0.0797
  116SAPE   H4R12169   5.968   6.123   3.117 -3.2002  0.2626  1.8782
  116SAPE   H4S12170   6.070   6.213   3.228 -0.8327  0.4725 -2.5771
  116SAPE   C2512171   5.908   6.090   3.322 -0.2572 -0.2419 -0.3768
  116SAPE   H5R12172   5.868   5.988   3.326 -2.6858  0.5630 -2.0746
  116SAPE   C2612173   5.858   6.186   3.401 -0.1026 -0.3778  0.4544
  116SAPE   H6R12174   5.778   6.180   3.476 -0.6097  2.2629  0.2295
  116SAPE   C2712175   5.907   6.330   3.396  0.2316  0.0729  0.4676
  116SAPE   H7R12176   5.897   6.364   3.290  0.5979  2.9686  1.2742
  116SAPE   H7S12177   6.015   6.331   3.422  0.1849 -0.3844  0.6896
  116SAPE   C2812178   5.817   6.418   3.483  0.1839 -0.3794  0.7229
  116SAPE   H8R12179   5.715   6.440   3.447 -0.7140 -1.4189  2.4892
  116SAPE   C2912180   5.835   6.447   3.608  0.0714  0.4893  0.2168
  116SAPE   H9R12181   5.755   6.503   3.659 -0.7125 -1.5636  1.4004
  116SAPE  C21012182   5.949   6.418   3.694 -0.0372  0.9846  0.4914
  116SAPE  H10R12183   5.962   6.505   3.761 -0.0413  1.1603  0.2657
  116SAPE  H10S12184   6.048   6.409   3.645  0.2551 -1.3975  1.3732
  116SAPE  C21112185   5.926   6.292   3.785 -0.1568 -0.5307  0.3442
  116SAPE  H11R12186   5.976   6.204   3.743 -2.2541 -1.8127  0.3599
  116SAPE  C21212187   5.844   6.266   3.888 -0.3976 -0.3046  0.2018
  116SAPE  H12R12188   5.849   6.168   3.938  0.2724 -1.4003 -1.9096
  116SAPE  C21312189   5.746   6.373   3.941  0.1538  0.3204 -0.5117
  116SAPE  H13R12190   5.781   6.478   3.933  1.8340 -0.0517  1.2533
  116SAPE  H13S12191   5.738   6.367   4.051  0.4443 -0.9923 -0.5535
  116SAPE  C21412192   5.604   6.374   3.888  0.7962  0.0016 -0.6037
  116SAPE  H14R12193   5.594   6.277   3.837  3.6322 -0.4810 -0.4254
  116SAPE  C21512194   5.512   6.474   3.905  0.2758 -0.7249 -1.1474
  116SAPE  H15R12195   5.406   6.461   3.880 -0.0382  0.2381 -0.3963
  116SAPE  C21612196   5.536   6.602   3.990 -0.5480  0.8671 -0.7720
  116SAPE  H16R12197   5.645   6.605   4.010 -0.4966 -0.1709 -0.8290
  116SAPE  H16S12198   5.479   6.593   4.084 -2.2068 -0.5982 -1.8534
  116SAPE  C21712199   5.483   6.731   3.919 -0.7719  0.4882  0.2571
  116SAPE  H17R12200   5.513   6.819   3.981 -0.3613  2.4249 -2.5171
  116SAPE  H17S12201   5.375   6.748   3.899 -0.2339  1.7611 -1.7506
  116SAPE  C21812202   5.563   6.770   3.788 -0.1445  0.1333 -0.3246
  116SAPE  H18R12203   5.668   6.748   3.815 -0.3514  0.5771  0.9331
  116SAPE  H18S12204   5.544   6.879   3.778 -0.5092  0.2084  0.9296
  116SAPE  C21912205   5.518   6.706   3.661  0.5629 -0.1511  0.0408
  116SAPE  H19R12206   5.409   6.728   3.654  0.5204 -0.7198 -1.5213
  116SAPE  H19S12207   5.518   6.595   3.659 -0.6711 -0.1577 -1.6142
  116SAPE  C22012208   5.591   6.750   3.535 -0.4169 -0.4322  0.4792
  116SAPE  H20R12209   5.558   6.683   3.453  0.6795  0.3848 -0.6884
  116SAPE  H20S12210   5.702   6.739   3.539 -0.1750 -0.3963 -2.7834
  116SAPE  H20T12211   5.565   6.857   3.517 -1.4221 -1.0789 -2.5746
  116SAPE   C3312212   6.528   5.973   3.626  0.2443 -0.1944 -0.6328
  116SAPE   H3X12213   6.615   6.028   3.669 -0.3628 -1.9302  3.1965
  116SAPE   H3Y12214   6.552   5.865   3.618  0.8430 -0.0451 -0.9698
  116SAPE   C3412215   6.405   5.987   3.719  0.0554  0.3530 -0.0291
  116SAPE   H4X12216   6.340   5.909   3.674  0.6259 -0.6937  0.9309
  116SAPE   H4Y12217   6.362   6.089   3.704  2.6943  1.7894  1.5092
  116SAPE   C3512218   6.444   5.961   3.867 -0.0730  0.0131  0.7826
  116SAPE   H5X12219   6.522   6.036   3.892 -1.5047  1.7574  0.2961
  116SAPE   H5Y12220   6.485   5.858   3.868 -1.7651 -0.7192 -0.2604
  116SAPE   C3612221   6.319   5.985   3.953 -1.0907  0.1529  0.9520
  116SAPE   H6X12222   6.258   5.893   3.936 -1.8200  0.5102  1.5961
  116SAPE   H6Y12223   6.265   6.075   3.918  0.4505  0.0261 -2.0409
  116SAPE   C3712224   6.343   6.001   4.103  0.7383 -0.2454 -0.9276
  116SAPE   H7X12225   6.404   6.093   4.115 -2.6296  2.2455 -1.3855
  116SAPE   H7Y12226   6.386   5.902   4.131  0.2287  0.1873  1.5996
  116SAPE   C3812227   6.218   6.030   4.195 -0.4297 -0.0582 -0.0157
  116SAPE   H8X12228   6.147   5.945   4.185  1.9277 -2.0267 -0.9156
  116SAPE   H8Y12229   6.168   6.124   4.163 -1.0776 -0.3508  0.1272
  116SAPE   C3912230   6.256   6.033   4.345 -0.2378  0.2975  0.1847
  116SAPE   H9X12231   6.323   5.948   4.371  1.3882  1.4361 -0.0734
  116SAPE   H9Y12232   6.161   6.012   4.399 -0.3099  1.0940  0.3846
  116SAPE  C31012233   6.295   6.171   4.401 -1.4247  0.1586 -0.2072
  116SAPE  H10X12234   6.220   6.250   4.382 -1.4463 -0.0786 -1.1445
  116SAPE  H10Y12235   6.387   6.201   4.346 -0.5761 -1.1209  0.4555
  116SAPE  C31112236   6.337   6.167   4.550 -0.1160  0.1878 -0.3990
  116SAPE  H11X12237   6.365   6.272   4.573  1.8470 -0.3384 -0.2208
  116SAPE  H11Y12238   6.435   6.117   4.565 -0.3477 -0.5245 -1.2111
  116SAPE  C31212239   6.233   6.102   4.641 -0.0164  0.2386 -0.2363
  116SAPE  H12X12240   6.267   6.094   4.747 -1.0979  0.9586  0.1837
  116SAPE  H12Y12241   6.207   6.002   4.602 -1.2895 -0.1316  1.4501
  116SAPE  C31312242   6.106   6.187   4.658 -0.3719 -0.2777 -0.0672
  116SAPE  H13X12243   6.042   6.163   4.571 -1.9993 -1.3446  1.3605
  116SAPE  H13Y12244   6.125   6.297   4.655  0.9088 -0.3233  2.8265
  116SAPE  C31412245   6.030   6.155   4.782 -0.4565 -0.0823 -0.8667
  116SAPE  H14X12246   6.100   6.151   4.868 -0.6049 -0.1554 -0.7497
  116SAPE  H14Y12247   5.989   6.051   4.780 -3.2010  0.9148 -1.1467
  116SAPE  C31512248   5.908   6.242   4.803 -0.0777  0.3703  0.0361
  116SAPE  H15X12249   5.833   6.206   4.729  1.0822 -0.3752 -0.8222
  116SAPE  H15Y12250   5.932   6.350   4.792  5.1248 -0.5339  0.0134
  116SAPE  C31612251   5.830   6.214   4.940  0.1496 -0.1998 -0.8926
  116SAPE  H16X12252   5.895   6.271   5.010 -2.6618  1.4610  0.5298
  116SAPE  H16Y12253   5.838   6.109   4.975  1.2212 -0.8433 -2.8797
  116SAPE  C31712254   5.691   6.270   4.949  0.4154  0.5366 -0.2659
  116SAPE  H17X12255   5.661   6.274   5.056  1.4631  0.4706  0.0411
  116SAPE  H17Y12256   5.612   6.203   4.910  0.4821  0.4668 -0.2827
  116SAPE  C31812257   5.667   6.410   4.888  0.0119  0.0301  0.1744
  116SAPE  H18X12258   5.589   6.453   4.954  0.3459  0.4963  0.2655
  116SAPE  H18Y12259   5.618   6.402   4.789 -0.4034  1.7807  0.2087
  116SAPE  H18Z12260   5.758   6.472   4.876  0.0791  0.2087  1.4477
  117SOPE     N12261   2.653   1.090   7.255 -0.2711  0.1378 -0.4713
  117SOPE   HN112262   2.672   1.150   7.172 -0.6981  2.5348  1.0584
  117SOPE   HN212263   2.702   0.999   7.256 -0.5688 -0.0258 -0.0573
  117SOPE   HN312264   2.553   1.062   7.261 -0.1046 -0.7252 -1.5328
  117SOPE   C1212265   2.707   1.174   7.366  0.2401  0.5262  0.9440
  117SOPE  H12A12266   2.683   1.126   7.463 -0.0847 -0.9045  0.1822
  117SOPE  H12B12267   2.652   1.270   7.376 -1.0238 -0.1363  0.5434
  117SOPE   C1112268   2.853   1.217   7.332 -0.8573  0.7900 -0.3505
  117SOPE  H11A12269   2.891   1.260   7.426 -1.2853  3.1741 -1.2060
  117SOPE  H11B12270   2.858   1.291   7.249  0.3519 -2.1941 -3.1837
  117SOPE     P12271   3.078   1.087   7.343 -0.2715 -0.4601 -0.2809
  117SOPE   O1312272   3.093   0.965   7.428 -0.1398  0.8336 -0.3694
  117SOPE   O1412273   3.128   1.213   7.409 -0.4602 -0.1784  1.0050
  117SOPE   O1212274   2.931   1.106   7.291  0.2050 -0.2085 -0.2717
  117SOPE   O1112275   3.152   1.066   7.205  0.0139 -0.3090  0.5406
  117SOPE    C112276   3.116   0.964   7.112  0.2158  0.1577  0.1440
  117SOPE    HA12277   3.017   0.922   7.140  0.2643 -0.1597 -0.1565
  117SOPE    HB12278   3.195   0.886   7.110 -0.1252 -0.1790 -0.9779
  117SOPE    C212279   3.092   1.039   6.977  0.7124  0.2632  0.2763
  117SOPE    HS12280   3.074   0.959   6.902  1.0546  1.5277 -1.2313
  117SOPE   O2112281   3.212   1.107   6.935 -0.4956 -0.1959 -0.0031
  117SOPE   C2112282   3.291   1.029   6.867  0.1980  0.0321  0.6180
  117SOPE   O2212283   3.278   0.909   6.848 -0.0825 -0.0674  0.6703
  117SOPE   C2212284   3.412   1.112   6.831 -0.1060  0.4541 -0.0855
  117SOPE   H2R12285   3.495   1.047   6.866 -0.8391  0.4483  1.7702
  117SOPE   H2S12286   3.416   1.204   6.892  1.0329  1.2646 -1.3179
  117SOPE    C312287   2.970   1.132   6.974 -0.0581 -0.6629 -0.0611
  117SOPE    HX12288   2.998   1.209   7.048 -2.1349 -2.0459  2.3406
  117SOPE    HY12289   2.879   1.069   6.986  1.0323 -3.7422 -4.9315
  117SOPE   O3112290   2.942   1.171   6.841  0.2494 -0.0096  0.0183
  117SOPE   C3112291   2.897   1.296   6.835  0.1772  0.4318 -0.3268
  117SOPE   O3212292   2.871   1.365   6.931  0.1951 -0.0699  0.4944
  117SOPE   C3212293   2.894   1.336   6.691 -0.1676  0.6658 -0.1526
  117SOPE   H2X12294   2.902   1.246   6.627  0.1428 -0.9262  2.0013
  117SOPE   H2Y12295   2.984   1.400   6.675 -0.1755  0.1736 -2.4049
  117SOPE   C2312296   3.411   1.144   6.679 -0.1672 -0.1726 -0.0121
  117SOPE   H3R12297   3.396   1.049   6.624  1.4128  0.2643 -1.2703
  117SOPE   H3S12298   3.508   1.184   6.643 -1.1616  2.4791  0.0650
  117SOPE   C2412299   3.309   1.256   6.636 -0.4920  0.3236 -0.0605
  117SOPE   H4R12300   3.204   1.249   6.670  0.3612 -1.9201  2.5306
  117SOPE   H4S12301   3.344   1.355   6.673 -0.2860  0.3072 -0.2094
  117SOPE   C2512302   3.299   1.258   6.488 -0.3163  0.8616  0.1088
  117SOPE   H5R12303   3.395   1.297   6.447 -0.7164  3.4732  1.4672
  117SOPE   H5S12304   3.293   1.151   6.458 -3.1456  0.2881  2.2924
  117SOPE   C2612305   3.174   1.329   6.437  0.4024 -0.8696  0.6531
  117SOPE   H6R12306   3.083   1.278   6.472 -2.6035  0.3989 -4.3005
  117SOPE   H6S12307   3.177   1.429   6.486  0.2023 -1.0101  0.9559
  117SOPE   C2712308   3.156   1.343   6.283 -0.2523  0.0428  0.1991
  117SOPE   H7R12309   3.165   1.243   6.235 -2.2032 -0.3781  0.6339
  117SOPE   H7S12310   3.054   1.381   6.262 -0.8868 -2.3227 -1.3320
  117SOPE   C2812311   3.253   1.439   6.224 -0.0776 -0.3005  0.3027
  117SOPE   H8R12312   3.262   1.530   6.287 -0.1911  0.4892 -0.8060
  117SOPE   H8S12313   3.356   1.396   6.220  0.4606  1.0389 -0.9651
  117SOPE   C2912314   3.214   1.489   6.084  0.2906 -0.0099  0.4904
  117SOPE   H9112315   3.172   1.591   6.077  0.4601  0.0886  0.8582
  117SOPE  C21012316   3.200   1.411   5.970  0.3089 -0.1551 -0.5492
  117SOPE  H10112317   3.159   1.462   5.881 -0.3105 -0.0696 -0.2256
  117SOPE  C21112318   3.225   1.262   5.953 -0.5505 -0.6570 -0.0716
  117SOPE  H11R12319   3.133   1.214   5.913 -0.7554 -1.2592  1.0725
  117SOPE  H11S12320   3.244   1.203   6.045  0.5001 -1.5752 -0.8497
  117SOPE  C21212321   3.354   1.252   5.869  0.5145  0.3006 -0.6541
  117SOPE  H12R12322   3.388   1.146   5.873 -0.6565 -0.0925 -0.6270
  117SOPE  H12S12323   3.437   1.312   5.911  0.3834  1.6035 -2.1692
  117SOPE  C21312324   3.333   1.302   5.727  0.8905 -0.1644 -0.6667
  117SOPE  H13R12325   3.439   1.296   5.692  1.5556 -1.1717  1.3632
  117SOPE  H13S12326   3.306   1.409   5.739 -2.0498 -1.0445  1.7493
  117SOPE  C21412327   3.257   1.222   5.622 -0.0076 -0.0385 -0.3123
  117SOPE  H14R12328   3.147   1.224   5.636 -0.1079  1.5367 -1.1178
  117SOPE  H14S12329   3.297   1.119   5.634  0.8203  0.3781  0.6776
  117SOPE  C21512330   3.289   1.260   5.475  0.6501  0.0076 -0.7109
  117SOPE  H15R12331   3.239   1.176   5.422  0.3938  0.8672 -1.9005
  117SOPE  H15S12332   3.398   1.264   5.452  0.5427  2.9617 -1.0801
  117SOPE  C21612333   3.233   1.397   5.428 -0.3577  0.1422 -0.4383
  117SOPE  H16R12334   3.268   1.483   5.488  1.2717 -2.1956  2.2114
  117SOPE  H16S12335   3.123   1.388   5.439 -0.1733 -0.7285  0.8870
  117SOPE  C21712336   3.285   1.423   5.286  0.3419  0.1841  0.0120
  117SOPE  H17R12337   3.219   1.489   5.225  0.2272 -1.2048 -1.4150
  117SOPE  H17S12338   3.286   1.329   5.227  2.4574  0.5259 -0.5739
  117SOPE  C21812339   3.430   1.480   5.273  0.0329 -0.5071 -0.4770
  117SOPE  H18R12340   3.504   1.403   5.244  1.8544  1.5755 -1.6417
  117SOPE  H18S12341   3.463   1.509   5.376 -1.1298  0.0731 -0.2515
  117SOPE  H18T12342   3.439   1.565   5.203 -1.9768  0.6302  0.5420
  117SOPE   C3312343   2.767   1.415   6.665 -0.5531  0.5622 -0.0165
  117SOPE   H3X12344   2.730   1.488   6.740 -1.5897  0.6047 -0.5488
  117SOPE   H3Y12345   2.680   1.348   6.645 -0.7744  1.1526 -1.1046
  117SOPE   C3412346   2.786   1.509   6.536  0.2940  0.4061 -0.0356
  117SOPE   H4X12347   2.842   1.460   6.453 -1.9939 -0.9422 -0.8912
  117SOPE   H4Y12348   2.850   1.594   6.567 -1.6339  1.6456  0.7350
  117SOPE   C3512349   2.643   1.557   6.506 -0.2992 -0.0673  0.2837
  117SOPE   H5X12350   2.598   1.595   6.601 -0.9474 -1.4362  0.5521
  117SOPE   H5Y12351   2.574   1.473   6.485 -0.3089 -1.5073  4.9583
  117SOPE   C3612352   2.633   1.662   6.394 -0.0647  0.3937  0.0416
  117SOPE   H6X12353   2.645   1.766   6.430 -0.5069  1.3352 -2.3883
  117SOPE   H6Y12354   2.524   1.658   6.371 -0.4968  1.4551  1.7579
  117SOPE   C3712355   2.732   1.631   6.282 -0.5850 -0.5716 -0.6350
  117SOPE   H7X12356   2.744   1.523   6.258  1.1110 -0.1840 -1.6954
  117SOPE   H7Y12357   2.832   1.659   6.320 -0.4780 -2.0936  0.3156
  117SOPE   C3812358   2.717   1.716   6.156 -0.3006  0.5775 -0.0910
  117SOPE   H8X12359   2.761   1.818   6.167 -1.3678  1.1101 -0.5481
  117SOPE   H8Y12360   2.609   1.726   6.131 -0.5270 -0.2090  0.5301
  117SOPE   C3912361   2.792   1.641   6.033 -0.3717  0.3037  0.4942
  117SOPE   H9X12362   2.763   1.533   6.033  2.1851 -0.4560 -1.0836
  117SOPE   H9Y12363   2.899   1.638   6.064 -1.0853 -1.7380  3.1720
  117SOPE  C31012364   2.785   1.719   5.903  0.4460 -0.2727 -0.6030
  117SOPE  H10X12365   2.859   1.801   5.901  1.3056 -1.0370 -0.4697
  117SOPE  H10Y12366   2.679   1.748   5.888  0.3690 -0.6293 -0.7703
  117SOPE  C31112367   2.816   1.636   5.781  0.4331  0.2964  0.5813
  117SOPE  H11X12368   2.733   1.562   5.780  1.6725 -1.1575  0.8804
  117SOPE  H11Y12369   2.902   1.572   5.810 -1.7535 -2.2599  1.8887
  117SOPE  C31212370   2.834   1.709   5.648 -0.6426  0.2449  0.4702
  117SOPE  H12X12371   2.917   1.782   5.642 -3.2459  3.3396 -1.0609
  117SOPE  H12Y12372   2.748   1.780   5.647  1.8436  3.5371  1.4328
  117SOPE  C31312373   2.826   1.618   5.527  0.2011  0.1887  0.5057
  117SOPE  H13X12374   2.741   1.549   5.544 -0.6129  0.8662 -0.6548
  117SOPE  H13Y12375   2.911   1.548   5.512 -0.3139 -0.6196  1.3214
  117SOPE  C31412376   2.808   1.685   5.390  0.7648  0.5110 -0.2567
  117SOPE  H14X12377   2.895   1.739   5.346 -1.5378  3.5013 -1.4902
  117SOPE  H14Y12378   2.719   1.751   5.392 -0.1834 -0.5731 -2.8833
  117SOPE  C31512379   2.751   1.584   5.290  0.4283 -0.1445  0.7539
  117SOPE  H15X12380   2.702   1.643   5.210  1.1784  0.9480  1.0764
  117SOPE  H15Y12381   2.686   1.500   5.322 -0.1955 -0.8153 -2.0594
  117SOPE  C31612382   2.869   1.522   5.222  0.0824  0.5826  0.3012
  117SOPE  H16X12383   2.822   1.439   5.163  2.0282  1.6342 -3.0183
  117SOPE  H16Y12384   2.923   1.483   5.311 -1.1132  1.1809  1.3219
  117SOPE  C31712385   2.961   1.609   5.127 -0.0730 -0.2561  0.1409
  117SOPE  H17X12386   3.025   1.677   5.188  0.7607 -0.1686 -0.8163
  117SOPE  H17Y12387   2.901   1.678   5.063  0.2614  0.0025  0.1053
  117SOPE  C31812388   3.045   1.523   5.034 -0.0058 -0.0858 -0.9045
  117SOPE  H18X12389   2.986   1.505   4.941 -0.9159  0.8434 -0.5214
  117SOPE  H18Y12390   3.065   1.427   5.084 -2.5391  1.0056  2.5774
  117SOPE  H18Z12391   3.139   1.578   5.010 -1.6959  3.8190  0.5896
  118SOPE     N12392   5.566   2.692   6.937  0.5282 -0.4477  0.8873
  118SOPE   HN112393   5.506   2.609   6.952  0.7500 -0.8171 -0.1294
  118SOPE   HN212394   5.605   2.715   7.030  0.3298  0.5333  0.7338
  118SOPE   HN312395   5.516   2.776   6.903  0.5927  0.1832  2.3189
  118SOPE   C1212396   5.678   2.647   6.843  0.5132 -0.7658 -0.1515
  118SOPE  H12A12397   5.751   2.728   6.822  0.5301 -0.6314  0.4008
  118SOPE  H12B12398   5.629   2.617   6.748 -1.1136  2.5493 -0.5151
  118SOPE   C1112399   5.759   2.534   6.909 -0.0357 -0.6158 -0.0570
  118SOPE  H11A12400   5.788   2.574   7.009 -2.8719 -2.1069  1.4734
  118SOPE  H11B12401   5.857   2.529   6.857 -0.3511  1.3619 -0.9507
  118SOPE     P12402   5.713   2.317   7.039  0.3406 -0.1550 -0.0437
  118SOPE   O1312403   5.609   2.349   7.138  0.1400  0.5183 -0.0588
  118SOPE   O1412404   5.855   2.325   7.087 -0.1233 -0.2388  0.1781
  118SOPE   O1212405   5.693   2.412   6.917 -0.1183  0.2883 -0.3897
  118SOPE   O1112406   5.695   2.175   6.972  0.1564  0.1486  0.3356
  118SOPE    C112407   5.779   2.134   6.864  0.1656  0.3524 -0.1196
  118SOPE    HA12408   5.840   2.043   6.881 -2.8324 -1.7696 -0.0280
  118SOPE    HB12409   5.847   2.217   6.833 -0.0574  0.7700  0.4697
  118SOPE    C212410   5.685   2.088   6.745 -0.4012 -0.7168  0.0572
  118SOPE    HS12411   5.750   2.039   6.669 -1.8597 -0.5756 -1.3344
  118SOPE   O2112412   5.620   2.191   6.675 -0.2680 -0.5634  0.2352
  118SOPE   C2112413   5.700   2.282   6.611  0.7377 -0.3042 -0.3819
  118SOPE   O2212414   5.824   2.269   6.606 -0.0248  0.4224  0.1547
  118SOPE   C2212415   5.603   2.384   6.539 -0.2000  0.1111  0.5374
  118SOPE   H2R12416   5.644   2.487   6.532 -2.0159  0.7815 -1.2707
  118SOPE   H2S12417   5.504   2.384   6.588 -0.9718 -0.3577 -0.9548
  118SOPE    C312418   5.585   1.982   6.792 -0.6045  0.1106 -0.0646
  118SOPE    HX12419   5.507   2.049   6.835 -0.5410  1.5138 -2.0063
  118SOPE    HY12420   5.637   1.925   6.871 -1.4329 -0.4887  0.0581
  118SOPE   O3112421   5.528   1.901   6.689 -0.8887 -0.4101  0.4125
  118SOPE   C3112422   5.609   1.801   6.646 -0.5485 -0.5262  0.0508
  118SOPE   O3212423   5.726   1.786   6.690  0.1419  0.2125  0.2158
  118SOPE   C3212424   5.544   1.733   6.532  0.0909  0.0721 -0.2674
  118SOPE   H2X12425   5.435   1.754   6.539 -0.3348 -2.0561  0.0055
  118SOPE   H2Y12426   5.565   1.625   6.541  1.4261  0.3668  0.3759
  118SOPE   C2312427   5.589   2.330   6.390 -0.2713  0.1845 -0.1982
  118SOPE   H3R12428   5.531   2.235   6.386 -1.1725  0.6847  0.5973
  118SOPE   H3S12429   5.691   2.322   6.348 -0.1693  1.0664 -0.1305
  118SOPE   C2412430   5.516   2.419   6.291 -0.3860  0.4918 -0.2663
  118SOPE   H4R12431   5.412   2.435   6.327 -0.4465  2.0107 -1.0105
  118SOPE   H4S12432   5.575   2.513   6.295 -1.7558  1.3820  3.6840
  118SOPE   C2512433   5.519   2.371   6.146 -0.0596  0.0298 -0.6642
  118SOPE   H5R12434   5.622   2.396   6.114 -0.5814  1.5484 -1.2643
  118SOPE   H5S12435   5.488   2.266   6.127  0.7865 -0.3175 -0.1409
  118SOPE   C2612436   5.426   2.458   6.059  0.0552 -0.2651  0.9380
  118SOPE   H6R12437   5.324   2.475   6.099  0.9162  0.6809  2.8150
  118SOPE   H6S12438   5.466   2.561   6.065 -1.1783  0.1461  2.7126
  118SOPE   C2712439   5.427   2.413   5.909 -0.5293 -0.2455  0.0194
  118SOPE   H7R12440   5.533   2.416   5.876 -0.8645 -0.2573 -1.1199
  118SOPE   H7S12441   5.386   2.311   5.889 -0.9932  0.0081 -0.3412
  118SOPE   C2812442   5.347   2.511   5.823 -0.2264  0.9450  0.4461
  118SOPE   H8R12443   5.317   2.460   5.729  0.9046 -1.7863  1.4717
  118SOPE   H8S12444   5.258   2.538   5.884 -0.1219  0.3045  0.8911
  118SOPE   C2912445   5.430   2.631   5.786  0.0725 -0.0714 -0.1762
  118SOPE   H9112446   5.450   2.698   5.871 -0.8662  1.0616 -0.8211
  118SOPE  C21012447   5.479   2.659   5.664  0.8312 -0.8615  0.1440
  118SOPE  H10112448   5.519   2.758   5.638  1.7927 -0.8036  1.7488
  118SOPE  C21112449   5.447   2.581   5.538  0.1190 -1.0274  0.3938
  118SOPE  H11R12450   5.346   2.536   5.544 -0.2563 -0.3595 -0.7150
  118SOPE  H11S12451   5.522   2.499   5.526  2.2921  1.1794 -2.9922
  118SOPE  C21212452   5.429   2.661   5.408 -0.3830 -0.0685 -0.3873
  118SOPE  H12R12453   5.506   2.740   5.394  1.2259 -1.5883 -0.3710
  118SOPE  H12S12454   5.333   2.718   5.405  0.1178  0.8742  0.7260
  118SOPE  C21312455   5.421   2.576   5.281 -0.2180  0.1863  0.5192
  118SOPE  H13R12456   5.518   2.523   5.266  0.0798  0.7985  0.1979
  118SOPE  H13S12457   5.420   2.645   5.194  0.9542 -2.7551 -2.0244
  118SOPE  C21412458   5.294   2.488   5.265 -0.4862 -0.3366  0.1427
  118SOPE  H14R12459   5.211   2.547   5.309 -0.4988 -0.7061  0.6280
  118SOPE  H14S12460   5.309   2.395   5.324 -1.9102 -1.0415 -0.5516
  118SOPE  C21512461   5.255   2.446   5.114  0.1537  0.0156 -1.0833
  118SOPE  H15R12462   5.224   2.532   5.050 -0.4014  2.3257  2.0457
  118SOPE  H15S12463   5.162   2.386   5.125  0.5939 -0.2596  2.0062
  118SOPE  C21612464   5.352   2.357   5.044 -0.6003  0.1547 -0.1684
  118SOPE  H16R12465   5.390   2.285   5.119 -0.9311  0.0547 -0.0976
  118SOPE  H16S12466   5.436   2.411   4.994  0.4250  0.0001  1.3360
  118SOPE  C21712467   5.290   2.271   4.934 -0.1303 -0.0705 -0.3131
  118SOPE  H17R12468   5.209   2.210   4.979 -0.8203  1.7422  0.9795
  118SOPE  H17S12469   5.367   2.196   4.905  0.0569 -0.6801  1.6060
  118SOPE  C21812470   5.247   2.344   4.806 -0.1500 -0.0607 -0.3766
  118SOPE  H18R12471   5.325   2.418   4.779  1.4250 -1.8877 -1.0628
  118SOPE  H18S12472   5.152   2.400   4.819 -0.1528 -0.1727  0.1096
  118SOPE  H18T12473   5.239   2.271   4.722 -2.2563  1.0015 -1.1604
  118SOPE   C3312474   5.597   1.786   6.401  0.1795 -0.1926  1.0043
  118SOPE   H3X12475   5.704   1.758   6.390 -0.0745 -0.1943 -2.5429
  118SOPE   H3Y12476   5.594   1.897   6.402  0.6649 -0.0929 -1.8865
  118SOPE   C3412477   5.514   1.741   6.279  0.9764 -0.2581  0.5089
  118SOPE   H4X12478   5.412   1.783   6.297  1.4282  0.2534  2.0258
  118SOPE   H4Y12479   5.504   1.631   6.273  1.0482 -0.3890  2.3136
  118SOPE   C3512480   5.566   1.777   6.143  0.3387  0.5534  0.2597
  118SOPE   H5X12481   5.483   1.750   6.074  0.9544  1.2339 -0.7839
  118SOPE   H5Y12482   5.660   1.722   6.119 -1.6096 -1.5810 -3.2443
  118SOPE   C3612483   5.597   1.925   6.121  0.3372  0.4399 -0.7486
  118SOPE   H6X12484   5.701   1.939   6.156  0.0667  1.6943 -0.3957
  118SOPE   H6Y12485   5.532   1.999   6.173  0.3888 -0.1411  0.1606
  118SOPE   C3712486   5.587   1.968   5.982 -0.0133  0.5521 -0.4443
  118SOPE   H7X12487   5.598   2.078   5.973 -0.8272  0.8327  1.4813
  118SOPE   H7Y12488   5.482   1.963   5.946 -0.3637  1.5109  0.3986
  118SOPE   C3812489   5.694   1.900   5.899  0.2939 -0.3757 -0.7519
  118SOPE   H8X12490   5.688   1.790   5.911 -3.5577 -0.3475 -1.2356
  118SOPE   H8Y12491   5.789   1.943   5.939 -1.0178  1.8199  0.2328
  118SOPE   C3912492   5.667   1.926   5.753  0.2712 -0.5569  0.0808
  118SOPE   H9X12493   5.641   2.033   5.741  0.2201 -0.8367 -3.6956
  118SOPE   H9Y12494   5.583   1.872   5.705  1.9365 -2.3324 -1.0052
  118SOPE  C31012495   5.798   1.899   5.674  0.0456 -0.3212  0.5049
  118SOPE  H10X12496   5.834   1.799   5.707 -1.6850 -0.8464  0.9358
  118SOPE  H10Y12497   5.876   1.972   5.702 -0.9212  1.6954 -1.6954
  118SOPE  C31112498   5.797   1.896   5.517 -0.6808 -0.5517 -0.0820
  118SOPE  H11X12499   5.732   1.809   5.491  1.2493 -2.1688  0.2647
  118SOPE  H11Y12500   5.899   1.871   5.481 -0.2673  0.6415  0.2271
  118SOPE  C31212501   5.754   2.015   5.429 -0.4684 -0.5427 -0.5473
  118SOPE  H12X12502   5.804   2.108   5.461 -0.1207 -0.0357 -2.4503
  118SOPE  H12Y12503   5.644   2.020   5.437 -0.5380 -1.2816 -0.8691
  118SOPE  C31312504   5.780   1.986   5.280 -0.9933 -0.5075  0.5707
  118SOPE  H13X12505   5.755   1.879   5.263 -0.7693 -0.3733 -0.7121
  118SOPE  H13Y12506   5.889   2.002   5.267 -1.5093  0.9938 -3.1911
  118SOPE  C31412507   5.716   2.077   5.177 -0.9240 -0.4896  0.6551
  118SOPE  H14X12508   5.742   2.184   5.184 -1.6452 -0.1641 -1.0686
  118SOPE  H14Y12509   5.607   2.061   5.189 -0.7424 -2.0500  0.4814
  118SOPE  C31512510   5.749   2.037   5.028 -0.0920 -0.9115 -0.2521
  118SOPE  H15X12511   5.858   2.023   5.011 -0.2615 -4.4579  0.7898
  118SOPE  H15Y12512   5.701   2.103   4.952 -1.4911 -3.6947 -1.9173
  118SOPE  C31612513   5.691   1.900   4.994 -0.4251 -0.8481  0.0112
  118SOPE  H16X12514   5.583   1.904   5.020 -0.3551  0.8617  0.1340
  118SOPE  H16Y12515   5.739   1.821   5.057  2.2684 -0.6181 -1.5789
  118SOPE  C31712516   5.729   1.859   4.852  0.1937  0.5356  0.1364
  118SOPE  H17X12517   5.683   1.928   4.779  2.2685  0.9620 -0.8372
  118SOPE  H17Y12518   5.676   1.765   4.826  3.4186 -1.3328 -0.2326
  118SOPE  C31812519   5.875   1.854   4.816  0.1260 -0.3883  0.4063
  118SOPE  H18X12520   5.925   1.950   4.794 -0.0156 -0.2519  0.6649
  118SOPE  H18Y12521   5.890   1.791   4.726 -1.0653 -0.6078  0.3403
  118SOPE  H18Z12522   5.930   1.797   4.895 -1.2559  0.7200  2.2491
  119SOPE     N12523   0.659   3.677   7.502  0.8962  0.6076 -0.4061
  119SOPE   HN112524   0.589   3.753   7.516  0.3377 -0.0086  0.1813
  119SOPE   HN212525   0.662   3.652   7.401 -0.4499  1.7375 -0.7704
  119SOPE   HN312526   0.629   3.596   7.559 -0.7768 -0.4599 -2.6693
  119SOPE   C1212527   0.793   3.742   7.545  0.9877 -0.0903 -0.3793
  119SOPE  H12A12528   0.782   3.774   7.651 -1.1156 -0.6519 -0.3859
  119SOPE  H12B12529   0.802   3.839   7.491  0.6777 -0.2222 -0.6707
  119SOPE   C1112530   0.918   3.667   7.510  0.0779 -0.3852  0.0703
  119SOPE  H11A12531   1.005   3.735   7.520  0.0600 -0.4031  0.3707
  119SOPE  H11B12532   0.900   3.625   7.409 -0.4040  1.8962 -0.8485
  119SOPE     P12533   1.036   3.456   7.628 -0.3024  0.2806 -0.2878
  119SOPE   O1312534   0.988   3.361   7.734 -0.1402  0.7296  0.0101
  119SOPE   O1412535   1.157   3.529   7.658  0.8379  0.2232  0.0442
  119SOPE   O1212536   0.922   3.568   7.617 -0.3688 -0.1319 -0.0933
  119SOPE   O1112537   1.056   3.395   7.482 -0.0072  0.4853  0.6132
  119SOPE    C112538   0.958   3.299   7.432  0.3513  0.0326  0.0237
  119SOPE    HA12539   0.863   3.308   7.488  0.4205 -0.3402  0.2066
  119SOPE    HB12540   0.995   3.197   7.455 -0.0491 -0.5872 -1.8431
  119SOPE    C212541   0.908   3.312   7.287 -0.6780 -0.3429  0.2113
  119SOPE    HS12542   0.860   3.411   7.275 -3.2696 -1.2934  1.7054
  119SOPE   O2112543   0.816   3.205   7.258 -0.2017  0.0749 -0.1698
  119SOPE   C2112544   0.733   3.228   7.157 -0.3434 -0.4535 -0.1925
  119SOPE   O2212545   0.702   3.341   7.118  0.0367 -0.0658  0.1587
  119SOPE   C2212546   0.674   3.099   7.103 -0.2271 -0.2755 -0.3239
  119SOPE   H2R12547   0.620   3.048   7.185  0.4389  1.8870  1.5534
  119SOPE   H2S12548   0.750   3.025   7.070 -0.1210  0.2303 -1.2627
  119SOPE    C312549   1.025   3.310   7.191 -0.2461  0.1023  0.1670
  119SOPE    HX12550   1.087   3.219   7.205 -0.7081 -0.4388 -1.1297
  119SOPE    HY12551   1.103   3.382   7.226 -2.1578  1.1177  2.5757
  119SOPE   O3112552   0.989   3.333   7.055 -0.4466 -0.2457 -0.1824
  119SOPE   C3112553   0.968   3.468   7.025 -0.7180  0.2624  1.0100
  119SOPE   O3212554   0.961   3.558   7.105  0.8651  0.4765 -0.5967
  119SOPE   C3212555   0.933   3.483   6.873  0.5778  0.0923 -0.3881
  119SOPE   H2X12556   0.927   3.381   6.829  1.0825 -1.4182  2.8131
  119SOPE   H2Y12557   1.003   3.554   6.822 -1.7117  1.8871 -1.1906
  119SOPE   C2312558   0.565   3.135   6.995  0.0290 -0.3087 -0.3114
  119SOPE   H3R12559   0.508   3.221   7.035  4.5358  1.2721  3.5696
  119SOPE   H3S12560   0.496   3.048   6.993 -0.2008 -0.1267 -0.3987
  119SOPE   C2412561   0.617   3.163   6.855 -0.5405 -0.4387  0.3953
  119SOPE   H4R12562   0.536   3.208   6.794  1.3928  0.1246 -1.9447
  119SOPE   H4S12563   0.705   3.230   6.864  0.5000 -1.4761 -1.5263
  119SOPE   C2512564   0.666   3.031   6.788  0.4573 -0.0892  0.5059
  119SOPE   H5R12565   0.721   2.963   6.856  0.2678 -1.0483 -0.2622
  119SOPE   H5S12566   0.575   2.976   6.753  0.9837 -1.6694  1.4872
  119SOPE   C2612567   0.755   3.067   6.661 -0.4678 -0.1334  0.7162
  119SOPE   H6R12568   0.821   3.156   6.672  0.0895 -0.0894 -2.1594
  119SOPE   H6S12569   0.823   2.982   6.638  0.5085  1.1280 -1.4307
  119SOPE   C2712570   0.684   3.083   6.530 -0.3644  0.2453  0.0960
  119SOPE   H7R12571   0.643   2.983   6.503 -3.5441  1.6295 -0.6327
  119SOPE   H7S12572   0.601   3.152   6.556  0.9108  1.6904  0.4385
  119SOPE   C2812573   0.771   3.148   6.421  0.1276  0.3932  0.6707
  119SOPE   H8R12574   0.820   3.238   6.464  0.1544  0.9388 -0.4595
  119SOPE   H8S12575   0.850   3.072   6.400 -1.5996 -0.9030 -1.5383
  119SOPE   C2912576   0.691   3.162   6.292  0.0728  0.4585 -0.0746
  119SOPE   H9112577   0.633   3.072   6.270  0.6396  0.2761 -0.8661
  119SOPE  C21012578   0.689   3.258   6.200 -0.8257 -0.2772  0.3775
  119SOPE  H10112579   0.618   3.263   6.115  0.8890 -1.0607 -1.1659
  119SOPE  C21112580   0.778   3.378   6.216  0.6178  0.3646 -0.2311
  119SOPE  H11R12581   0.836   3.370   6.310 -0.4169  0.1873  0.4149
  119SOPE  H11S12582   0.717   3.470   6.229  0.8033  0.6140 -1.0884
  119SOPE  C21212583   0.868   3.415   6.100  0.6412  0.5490 -0.7774
  119SOPE  H12R12584   0.914   3.320   6.064 -1.3094 -1.0333  0.6675
  119SOPE  H12S12585   0.952   3.480   6.132  2.3818 -0.7806 -2.3914
  119SOPE  C21312586   0.794   3.459   5.964  0.3426 -0.0525 -0.7402
  119SOPE  H13R12587   0.755   3.560   5.989 -1.6622 -0.8671 -0.3881
  119SOPE  H13S12588   0.707   3.393   5.947 -0.4990  0.4751  1.2210
  119SOPE  C21412589   0.887   3.465   5.838  0.0334 -0.2775  0.3440
  119SOPE  H14R12590   0.955   3.379   5.821 -0.6141 -0.8040  0.3615
  119SOPE  H14S12591   0.960   3.545   5.859  0.9061 -1.5392  2.3186
  119SOPE  C21512592   0.819   3.489   5.704 -0.2100  0.1224 -0.1122
  119SOPE  H15R12593   0.794   3.596   5.687  1.3632  0.4948 -0.2237
  119SOPE  H15S12594   0.723   3.432   5.705  1.2958 -2.5537 -0.3176
  119SOPE  C21612595   0.906   3.435   5.588 -0.5987 -0.3497 -0.0797
  119SOPE  H16R12596   0.924   3.326   5.601 -1.3781 -0.1490  3.5684
  119SOPE  H16S12597   0.999   3.494   5.592  0.0876 -1.4857  1.7521
  119SOPE  C21712598   0.843   3.465   5.459  0.4270  0.6287  0.3363
  119SOPE  H17R12599   0.809   3.570   5.453 -0.0743  0.4716  0.3509
  119SOPE  H17S12600   0.750   3.405   5.447  0.4056  0.7715 -0.2087
  119SOPE  C21812601   0.926   3.423   5.342  0.3438  0.3634  0.1237
  119SOPE  H18R12602   0.861   3.440   5.253  1.7516  0.3764 -0.9460
  119SOPE  H18S12603   0.955   3.316   5.341  0.7626  0.4610 -1.6735
  119SOPE  H18T12604   1.020   3.483   5.341  0.5966 -0.0279 -0.2743
  119SOPE   C3312605   0.802   3.562   6.854  0.3298  0.1170 -0.0784
  119SOPE   H3X12606   0.810   3.653   6.917  3.9638  0.2272 -0.4461
  119SOPE   H3Y12607   0.726   3.491   6.894 -0.7078  0.9453 -0.5404
  119SOPE   C3412608   0.768   3.593   6.705  0.0582  0.3206  0.6196
  119SOPE   H4X12609   0.659   3.613   6.701  0.4517  2.6457 -0.1340
  119SOPE   H4Y12610   0.782   3.497   6.650 -1.0793 -0.2170  1.2346
  119SOPE   C3512611   0.853   3.702   6.634  0.0247 -0.2817 -0.2817
  119SOPE   H5X12612   0.958   3.668   6.642  0.8555  2.1812  0.1064
  119SOPE   H5Y12613   0.854   3.798   6.689  3.2669 -0.6645  0.5546
  119SOPE   C3612614   0.815   3.729   6.485  0.4060  0.9315 -0.6416
  119SOPE   H6X12615   0.710   3.766   6.480 -0.0051 -0.3329 -2.9848
  119SOPE   H6Y12616   0.810   3.632   6.431  1.7868  0.6013 -0.2250
  119SOPE   C3712617   0.912   3.827   6.417  0.0642 -0.1311 -0.0037
  119SOPE   H7X12618   1.014   3.818   6.459  0.3451 -1.7764 -0.9716
  119SOPE   H7Y12619   0.874   3.924   6.455 -1.1069 -0.6134  0.1227
  119SOPE   C3812620   0.910   3.828   6.267  0.0883 -0.3718  0.2051
  119SOPE   H8X12621   0.808   3.807   6.229 -0.4573 -1.5548  2.1366
  119SOPE   H8Y12622   0.983   3.750   6.236  1.0708  1.7258 -3.1771
  119SOPE   C3912623   0.963   3.965   6.217  0.4023 -0.0121 -0.1123
  119SOPE   H9X12624   1.048   4.015   6.269 -0.1786 -1.0188  1.9069
  119SOPE   H9Y12625   0.885   4.043   6.227  0.5226  0.2379 -1.0363
  119SOPE  C31012626   0.994   3.956   6.068  0.0878 -0.8202  0.5008
  119SOPE  H10X12627   1.097   3.922   6.046  0.4580  0.5124  0.0992
  119SOPE  H10Y12628   0.984   4.060   6.029 -3.2934 -0.6026  1.6025
  119SOPE  C31112629   0.893   3.874   5.981 -1.3255 -0.1651  0.7237
  119SOPE  H11X12630   0.788   3.882   6.016 -2.0066 -3.0089 -0.3721
  119SOPE  H11Y12631   0.927   3.769   5.992  1.1691  0.1239 -2.6333
  119SOPE  C31212632   0.901   3.907   5.828  0.1882 -0.0867  0.8849
  119SOPE  H12X12633   0.921   4.014   5.805  0.1624 -0.5621 -1.7114
  119SOPE  H12Y12634   0.800   3.890   5.784  0.5035 -0.6180  0.3606
  119SOPE  C31312635   0.999   3.818   5.754 -0.1464 -0.0337 -0.5332
  119SOPE  H13X12636   0.974   3.716   5.789  1.6731  0.0627  1.2429
  119SOPE  H13Y12637   1.103   3.832   5.792 -0.9677 -1.5577  2.5610
  119SOPE  C31412638   0.979   3.824   5.601  0.1832 -0.8465  0.1659
  119SOPE  H14X12639   0.871   3.830   5.577 -0.2994 -0.7174  2.2380
  119SOPE  H14Y12640   1.028   3.744   5.540  1.5978 -0.5986  0.9280
  119SOPE  C31512641   1.047   3.962   5.549  0.0560 -0.3041 -0.2977
  119SOPE  H15X12642   1.157   3.944   5.548  0.1594  0.2680 -1.2581
  119SOPE  H15Y12643   1.037   4.038   5.629  0.3503 -1.5887  1.0102
  119SOPE  C31612644   1.009   4.004   5.410 -0.0839 -0.1152 -0.2926
  119SOPE  H16X12645   1.065   4.098   5.387 -1.1543  1.0346  1.5320
  119SOPE  H16Y12646   0.900   4.027   5.405 -0.0414 -0.1101 -2.0582
  119SOPE  C31712647   1.053   3.903   5.300 -0.4772 -0.4178 -0.2823
  119SOPE  H17X12648   0.991   3.811   5.307  1.1998 -1.7108 -1.5916
  119SOPE  H17Y12649   1.162   3.889   5.319  0.7893  4.1364 -2.6610
  119SOPE  C31812650   1.040   3.957   5.158  0.5416  0.2586  0.0854
  119SOPE  H18X12651   0.934   3.981   5.136  0.6056  0.0276 -0.4939
  119SOPE  H18Y12652   1.059   3.873   5.087 -0.3931  0.2115 -0.1221
  119SOPE  H18Z12653   1.104   4.045   5.134  0.1551  1.4543  3.0229
  120SOPE     N12654   0.081   6.051   7.021 -0.2608  0.1362 -0.1420
  120SOPE   HN112655   0.093   6.154   7.018  0.8839  0.0134 -2.5800
  120SOPE   HN212656  -0.014   6.011   7.031 -0.3279 -0.0719 -1.4209
  120SOPE   HN312657   0.136   6.023   7.105  1.0100  2.4894 -0.0956
  120SOPE   C1212658   0.164   5.999   6.900  0.0352 -0.4974 -0.1433
  120SOPE  H12A12659   0.135   6.068   6.817  0.2955  1.3588  1.2427
  120SOPE  H12B12660   0.137   5.893   6.882  0.0290 -0.2850 -1.4975
  120SOPE   C1112661   0.309   6.000   6.939 -0.1742 -0.1789  0.2999
  120SOPE  H11A12662   0.336   6.108   6.944 -1.9469  0.2906  0.8129
  120SOPE  H11B12663   0.357   5.953   6.851 -0.9442 -2.7788  1.1706
  120SOPE     P12664   0.417   5.795   7.074 -0.0274 -0.0277  0.6172
  120SOPE   O1312665   0.326   5.684   7.088 -0.9681 -0.0782  0.3576
  120SOPE   O1412666   0.505   5.823   7.185  0.1060  0.2557  0.1690
  120SOPE   O1212667   0.334   5.926   7.058 -0.2448  0.3499 -0.3709
  120SOPE   O1112668   0.496   5.763   6.938  0.1251 -0.6184  0.0202
  120SOPE    C112669   0.539   5.632   6.885  0.7657  0.4061 -0.0006
  120SOPE    HA12670   0.518   5.552   6.959  0.1496  0.0043 -0.6065
  120SOPE    HB12671   0.645   5.628   6.853  0.8309  0.5989  0.1851
  120SOPE    C212672   0.463   5.607   6.755 -0.4682 -0.4110  0.1282
  120SOPE    HS12673   0.352   5.599   6.765 -0.9892  1.6847 -2.8670
  120SOPE   O2112674   0.515   5.494   6.682 -0.2956  0.2539 -0.2680
  120SOPE   C2112675   0.453   5.378   6.695 -0.6899 -0.0059  0.1344
  120SOPE   O2212676   0.353   5.357   6.760  0.1143  0.0632 -0.2750
  120SOPE   C2212677   0.543   5.268   6.634  0.5532 -0.0238 -0.3349
  120SOPE   H2R12678   0.573   5.206   6.721 -5.1827 -0.4992  1.7275
  120SOPE   H2S12679   0.629   5.317   6.583  1.2208  1.3066  1.9655
  120SOPE    C312680   0.486   5.723   6.654 -0.1694  0.5772 -0.4540
  120SOPE    HX12681   0.595   5.706   6.643  0.1064  0.6518  1.6956
  120SOPE    HY12682   0.464   5.820   6.703  0.6738  0.6838 -0.2717
  120SOPE   O3112683   0.430   5.704   6.521 -0.0951 -0.3199  0.0340
  120SOPE   C3112684   0.295   5.714   6.527 -1.0146 -0.1324  0.6250
  120SOPE   O3212685   0.236   5.775   6.615 -0.5036 -0.0090  0.7417
  120SOPE   C3212686   0.229   5.625   6.419 -0.4444  0.2381  0.3985
  120SOPE   H2X12687   0.124   5.629   6.454 -0.6512 -2.2159  0.2385
  120SOPE   H2Y12688   0.281   5.527   6.423  0.1397  0.5677  1.4852
  120SOPE   C2312689   0.454   5.202   6.531 -0.0950  0.3073  0.1937
  120SOPE   H3R12690   0.345   5.213   6.550 -0.0788  2.7435 -0.7847
  120SOPE   H3S12691   0.484   5.095   6.529  1.8760  0.8401 -0.3821
  120SOPE   C2412692   0.490   5.262   6.392 -0.2778  0.0081  0.8093
  120SOPE   H4R12693   0.467   5.367   6.364  0.5439  0.2049  0.8554
  120SOPE   H4S12694   0.600   5.258   6.380  0.3539 -0.1561  5.0981
  120SOPE   C2512695   0.433   5.169   6.274  0.0553  0.1604  0.5249
  120SOPE   H5R12696   0.457   5.062   6.293 -2.9276 -0.7402 -0.2957
  120SOPE   H5S12697   0.322   5.171   6.282 -0.0791  0.0512 -1.1450
  120SOPE   C2612698   0.464   5.216   6.132  0.0940 -0.4126 -0.0068
  120SOPE   H6R12699   0.470   5.327   6.128  1.3935 -0.3588  2.1231
  120SOPE   H6S12700   0.567   5.179   6.114  0.1000 -0.2123 -0.3984
  120SOPE   C2712701   0.383   5.161   6.011 -0.2752 -0.2443  0.9513
  120SOPE   H7R12702   0.382   5.050   6.017  0.4822 -0.3077  0.0477
  120SOPE   H7S12703   0.279   5.197   6.027  0.0489  1.0764  0.2827
  120SOPE   C2812704   0.447   5.197   5.875  0.3438  0.1013  0.1255
  120SOPE   H8R12705   0.431   5.307   5.861  1.8353  0.3839  0.5095
  120SOPE   H8S12706   0.555   5.193   5.898  0.5939 -0.0122 -1.0298
  120SOPE   C2912707   0.406   5.124   5.751 -0.3424 -0.0516 -0.4292
  120SOPE   H9112708   0.303   5.086   5.759  0.3569 -1.8760  0.5650
  120SOPE  C21012709   0.487   5.069   5.662 -0.4899 -0.8449 -0.2818
  120SOPE  H10112710   0.445   5.012   5.578 -1.3771 -0.4422 -0.1220
  120SOPE  C21112711   0.635   5.083   5.655  0.7095  0.1150 -0.2335
  120SOPE  H11R12712   0.675   4.979   5.658  0.6777 -0.0522 -2.9452
  120SOPE  H11S12713   0.675   5.140   5.741  1.2388 -1.6722  0.7678
  120SOPE  C21212714   0.697   5.148   5.530  0.0846  0.9989 -0.8974
  120SOPE  H12R12715   0.698   5.078   5.443  2.1149  2.1610 -1.8918
  120SOPE  H12S12716   0.807   5.151   5.548 -0.3000 -1.4800  2.9981
  120SOPE  C21312717   0.647   5.289   5.495  0.8520  0.5676 -0.5078
  120SOPE  H13R12718   0.684   5.349   5.581  0.2847  0.4870 -0.1992
  120SOPE  H13S12719   0.536   5.286   5.489  0.9274  0.2829 -2.3391
  120SOPE  C21412720   0.711   5.357   5.378 -0.1383  0.3203  0.6362
  120SOPE  H14R12721   0.818   5.373   5.400  0.3988  0.8388 -1.9998
  120SOPE  H14S12722   0.661   5.456   5.367 -2.2537 -0.6967  0.6006
  120SOPE  C21512723   0.689   5.287   5.249 -0.5401  0.5625  0.5087
  120SOPE  H15R12724   0.605   5.214   5.254 -0.0106 -0.0049  1.3202
  120SOPE  H15S12725   0.782   5.233   5.221 -0.1995  1.0251  0.7331
  120SOPE  C21612726   0.660   5.371   5.126 -0.1347  0.1034 -0.1583
  120SOPE  H16R12727   0.749   5.437   5.122  0.9018 -1.3014 -2.4228
  120SOPE  H16S12728   0.570   5.435   5.141  0.8775  1.3609  0.8395
  120SOPE  C21712729   0.647   5.301   4.990  0.1492  0.3683 -0.3723
  120SOPE  H17R12730   0.731   5.228   4.982  1.2632  1.5264  0.4598
  120SOPE  H17S12731   0.665   5.387   4.923  1.1363  0.3768 -0.1159
  120SOPE  C21812732   0.515   5.247   4.938 -0.4318  0.3850  0.5366
  120SOPE  H18R12733   0.555   5.185   4.855  0.7309  2.5154 -0.5765
  120SOPE  H18S12734   0.450   5.323   4.890  1.3340  1.1347 -0.7750
  120SOPE  H18T12735   0.464   5.182   5.013  0.9344  0.4905  1.5968
  120SOPE   C3312736   0.224   5.684   6.276  0.1094  0.0418 -0.0835
  120SOPE   H3X12737   0.327   5.719   6.252  0.5020 -0.3073  0.9962
  120SOPE   H3Y12738   0.173   5.782   6.265  1.3607  0.4966 -2.6136
  120SOPE   C3412739   0.168   5.587   6.168  0.3798 -0.0467  0.2978
  120SOPE   H4X12740   0.057   5.589   6.177  0.3333  1.3927 -0.4156
  120SOPE   H4Y12741   0.189   5.481   6.194 -2.1729 -0.4930  0.8432
  120SOPE   C3512742   0.215   5.635   6.032  0.1840 -0.7179  0.1583
  120SOPE   H5X12743   0.326   5.641   6.033  0.2243 -0.6760 -1.8440
  120SOPE   H5Y12744   0.181   5.740   6.017  1.8233 -0.5360 -3.2931
  120SOPE   C3612745   0.149   5.558   5.917  0.1620  0.0946 -0.1233
  120SOPE   H6X12746   0.039   5.573   5.910  0.2319 -0.1113 -2.8441
  120SOPE   H6Y12747   0.180   5.452   5.924  2.6874  0.8683  2.2255
  120SOPE   C3712748   0.186   5.603   5.774 -0.2898  0.0098 -0.4876
  120SOPE   H7X12749   0.175   5.712   5.757 -1.4064 -0.2084 -1.2067
  120SOPE   H7Y12750   0.118   5.562   5.698  2.1534  0.7597 -3.2576
  120SOPE   C3812751   0.322   5.547   5.736 -0.6961 -0.0711  0.1358
  120SOPE   H8X12752   0.313   5.437   5.726  2.0361 -0.2080 -2.7313
  120SOPE   H8Y12753   0.398   5.558   5.816  0.5042 -0.9869 -0.8308
  120SOPE   C3912754   0.366   5.616   5.600  0.1521  0.0747 -0.4835
  120SOPE   H9X12755   0.476   5.628   5.598  0.1500  0.0576 -1.3400
  120SOPE   H9Y12756   0.327   5.720   5.608  0.6519  0.1258  2.5421
  120SOPE  C31012757   0.314   5.542   5.482  0.7469  0.1586  0.1788
  120SOPE  H10X12758   0.208   5.514   5.503 -0.4669  3.8103 -0.3059
  120SOPE  H10Y12759   0.366   5.446   5.465  0.1197 -0.0688 -0.5740
  120SOPE  C31112760   0.311   5.619   5.347 -0.0309  0.0796  0.0065
  120SOPE  H11X12761   0.246   5.709   5.355  1.8058  1.3830  0.9833
  120SOPE  H11Y12762   0.247   5.556   5.281 -0.0840  0.8940 -0.7458
  120SOPE  C31212763   0.448   5.659   5.286  0.2177  0.2179  0.1742
  120SOPE  H12X12764   0.508   5.566   5.284 -0.1957 -0.0583  0.6607
  120SOPE  H12Y12765   0.508   5.728   5.349  0.9203 -1.1561  1.0566
  120SOPE  C31312766   0.443   5.705   5.138  0.4958  0.2900 -0.3455
  120SOPE  H13X12767   0.379   5.796   5.142  1.4746  0.9351  1.6746
  120SOPE  H13Y12768   0.397   5.617   5.086  1.0273  1.3587 -2.7532
  120SOPE  C31412769   0.573   5.747   5.076 -0.8248  0.4918  0.3903
  120SOPE  H14X12770   0.644   5.661   5.082 -1.0676 -0.0985 -3.0157
  120SOPE  H14Y12771   0.608   5.838   5.128  0.6417  0.0821  0.1512
  120SOPE  C31512772   0.565   5.785   4.928  0.2604  0.1521  0.1503
  120SOPE  H15X12773   0.493   5.867   4.906  1.5424  0.5596 -2.9490
  120SOPE  H15Y12774   0.524   5.713   4.854 -1.9313  2.3178 -0.8872
  120SOPE  C31612775   0.695   5.843   4.869 -0.2533 -0.1886 -0.5983
  120SOPE  H16X12776   0.730   5.922   4.938  2.6752 -1.0101 -1.0020
  120SOPE  H16Y12777   0.683   5.885   4.767 -0.1258 -1.0849 -0.9876
  120SOPE  C31712778   0.807   5.741   4.872  0.5531  0.3418 -0.6335
  120SOPE  H17X12779   0.773   5.654   4.811 -0.0735 -1.4242  2.0847
  120SOPE  H17Y12780   0.823   5.711   4.977 -0.1347 -0.1667 -0.6678
  120SOPE  C31812781   0.944   5.808   4.831  0.3179  0.7672  0.2193
  120SOPE  H18X12782   0.944   5.912   4.870  0.2053  1.5177 -1.7046
  120SOPE  H18Y12783   0.966   5.795   4.723 -0.5647 -1.4429  0.2556
  120SOPE  H18Z12784   1.018   5.751   4.891  1.5224  2.1553  0.1157
  121SOPE     N12785   1.726   3.530   7.551 -0.2941  0.5878 -0.3654
  121SOPE   HN112786   1.698   3.474   7.634  0.2476  1.2239  0.2655
  121SOPE   HN212787   1.729   3.461   7.473 -1.4409 -1.6801  1.4923
  121SOPE   HN312788   1.821   3.571   7.565  1.2840 -2.3323 -1.7008
  121SOPE   C1212789   1.620   3.627   7.523  0.3513 -0.2699  0.1639
  121SOPE  H12A12790   1.630   3.706   7.601  0.5293  0.0338 -0.1603
  121SOPE  H12B12791   1.520   3.579   7.526 -0.6789  1.7611 -0.1296
  121SOPE   C1112792   1.648   3.696   7.387 -0.3382  0.1598 -0.9196
  121SOPE  H11A12793   1.556   3.747   7.352  0.0779  0.9608 -0.8627
  121SOPE  H11B12794   1.665   3.614   7.314  2.1718 -0.3442  0.0960
  121SOPE     P12795   1.861   3.816   7.292 -0.0620  0.6973 -0.4792
  121SOPE   O1312796   1.927   3.685   7.264 -0.0473 -0.8387  0.2941
  121SOPE   O1412797   1.940   3.933   7.327  0.4479 -0.2226  0.2066
  121SOPE   O1212798   1.755   3.793   7.414  0.2701 -0.5522 -0.1283
  121SOPE   O1112799   1.775   3.864   7.165 -0.2131 -0.1857  0.0593
  121SOPE    C112800   1.713   3.775   7.071  0.3513 -0.2646 -0.5144
  121SOPE    HA12801   1.606   3.765   7.102  0.3424  2.0490  0.4273
  121SOPE    HB12802   1.762   3.675   7.076  0.1461 -0.3857 -0.8569
  121SOPE    C212803   1.725   3.830   6.929 -0.0393  0.3035  0.9313
  121SOPE    HS12804   1.669   3.756   6.867  2.2536 -0.4603 -0.3473
  121SOPE   O2112805   1.849   3.848   6.876 -0.1760 -0.8311 -0.1167
  121SOPE   C2112806   1.931   3.743   6.854 -0.3771 -0.9311  0.4929
  121SOPE   O2212807   1.897   3.630   6.878 -0.1677 -1.4270  0.1948
  121SOPE   C2212808   2.055   3.789   6.768  0.1248  0.1220  0.3255
  121SOPE   H2R12809   2.127   3.704   6.778 -1.6911 -1.4400  0.5820
  121SOPE   H2S12810   2.097   3.876   6.823  0.7126 -1.0151  1.7505
  121SOPE    C312811   1.660   3.971   6.934  0.7261 -0.2352 -0.6739
  121SOPE    HX12812   1.728   4.035   6.994 -1.7607  0.9536  1.0636
  121SOPE    HY12813   1.557   3.975   6.975  0.6933  2.2649 -0.8652
  121SOPE   O3112814   1.636   4.006   6.797  0.1032 -0.8067 -0.1747
  121SOPE   C3112815   1.652   4.138   6.779 -0.1575  0.5223  0.0369
  121SOPE   O3212816   1.693   4.222   6.851 -0.1462 -0.2202 -0.6479
  121SOPE   C3212817   1.608   4.163   6.635  0.3902 -0.9182 -0.7482
  121SOPE   H2X12818   1.523   4.234   6.648  3.7857  3.5281 -0.1912
  121SOPE   H2Y12819   1.582   4.063   6.595  0.1273 -1.6384  1.1404
  121SOPE   C2312820   2.040   3.850   6.626 -0.1960 -0.5454 -1.1384
  121SOPE   H3R12821   2.133   3.903   6.597  0.3313  0.1373  1.5354
  121SOPE   H3S12822   1.959   3.925   6.625 -0.1061 -0.3387  1.2305
  121SOPE   C2412823   1.989   3.741   6.526 -0.0811  0.7139  0.1073
  121SOPE   H4R12824   2.054   3.651   6.518 -1.5050 -0.3041 -0.2986
  121SOPE   H4S12825   1.897   3.698   6.570  0.7901 -1.7552 -0.3495
  121SOPE   C2512826   1.975   3.800   6.383 -0.2563 -0.1208  0.4928
  121SOPE   H5R12827   1.922   3.729   6.316  3.1782 -1.0841 -1.4526
  121SOPE   H5S12828   1.917   3.894   6.380 -2.9625 -1.7148 -1.8563
  121SOPE   C2612829   2.110   3.832   6.307  0.2784 -0.4906  0.4983
  121SOPE   H6R12830   2.168   3.906   6.366 -1.0280  0.3320  0.8119
  121SOPE   H6S12831   2.165   3.737   6.299 -0.0237 -0.6772  0.6217
  121SOPE   C2712832   2.089   3.903   6.166  0.1354 -0.7680 -0.8420
  121SOPE   H7R12833   2.060   4.009   6.185  0.2728 -0.6552 -1.2426
  121SOPE   H7S12834   2.189   3.915   6.120  0.1195  2.3868 -0.2910
  121SOPE   C2812835   1.991   3.842   6.068 -0.7028 -0.6926  0.1162
  121SOPE   H8R12836   1.890   3.832   6.114 -0.2228 -0.7585  1.1968
  121SOPE   H8S12837   1.977   3.918   5.988 -1.6272 -0.1175  0.8012
  121SOPE   C2912838   2.037   3.707   6.015  0.2078  0.4155 -0.7240
  121SOPE   H9112839   2.077   3.636   6.090 -1.7169  1.6581  1.6358
  121SOPE  C21012840   2.035   3.671   5.884 -0.2686 -0.3845  0.3963
  121SOPE  H10112841   2.070   3.570   5.857  0.1313  0.4301 -2.3595
  121SOPE  C21112842   1.983   3.747   5.765  0.5663  0.2135 -0.1244
  121SOPE  H11R12843   2.062   3.766   5.689  0.4100 -1.8794 -0.8773
  121SOPE  H11S12844   1.945   3.846   5.801  1.4120  0.5984 -0.2586
  121SOPE  C21212845   1.877   3.663   5.696 -0.5973  0.1908 -0.4846
  121SOPE  H12R12846   1.793   3.632   5.762 -0.5922  3.3068  1.1571
  121SOPE  H12S12847   1.912   3.568   5.650 -1.4869  0.3662 -1.5430
  121SOPE  C21312848   1.805   3.741   5.584 -0.1923 -0.5342  0.0106
  121SOPE  H13R12849   1.878   3.783   5.511  2.5816 -0.8610  2.4228
  121SOPE  H13S12850   1.759   3.829   5.634 -0.3886  1.6624 -3.6718
  121SOPE  C21412851   1.695   3.666   5.511 -0.3915  0.4388  0.4077
  121SOPE  H14R12852   1.611   3.654   5.583 -1.1013  1.0931 -0.2959
  121SOPE  H14S12853   1.737   3.565   5.490  2.7328  1.4708  1.0913
  121SOPE  C21512854   1.650   3.730   5.379  0.3889  0.3445  0.7137
  121SOPE  H15R12855   1.723   3.757   5.299 -0.7605  1.3838 -0.0283
  121SOPE  H15S12856   1.604   3.827   5.410 -1.1810 -0.6176  1.5315
  121SOPE  C21612857   1.517   3.662   5.323  0.1315 -0.8016 -0.7322
  121SOPE  H16R12858   1.450   3.683   5.409  2.0495  1.8403  0.2758
  121SOPE  H16S12859   1.531   3.552   5.314 -0.4135 -0.9541  0.1984
  121SOPE  C21712860   1.468   3.725   5.192 -0.6216 -0.1261  0.3242
  121SOPE  H17R12861   1.550   3.696   5.122  0.7512 -2.1550  2.5937
  121SOPE  H17S12862   1.479   3.833   5.213 -3.6188 -0.0884  2.2665
  121SOPE  C21812863   1.331   3.685   5.153  0.4446 -0.1405  0.0736
  121SOPE  H18R12864   1.301   3.744   5.063 -1.6187  0.6597  1.2319
  121SOPE  H18S12865   1.259   3.708   5.234  0.7287  1.7584 -0.1508
  121SOPE  H18T12866   1.312   3.580   5.123 -3.0943  0.8328 -1.6943
  121SOPE   C3312867   1.727   4.221   6.550 -0.6428 -0.9232  0.1671
  121SOPE   H3X12868   1.824   4.170   6.563 -0.9186 -1.9060 -1.3648
  121SOPE   H3Y12869   1.743   4.320   6.598  1.7932 -1.4905  0.6395
  121SOPE   C3412870   1.685   4.233   6.402  0.3767  0.1686 -0.4628
  121SOPE   H4X12871   1.619   4.318   6.372  0.6856  0.3581 -0.6053
  121SOPE   H4Y12872   1.614   4.150   6.383 -0.0175  0.1618  0.9381
  121SOPE   C3512873   1.799   4.214   6.306 -0.9452  0.0193 -0.3024
  121SOPE   H5X12874   1.841   4.115   6.332  1.3331  0.2375 -2.7389
  121SOPE   H5Y12875   1.878   4.290   6.326 -0.9526  0.1076 -0.6023
  121SOPE   C3612876   1.749   4.219   6.161 -0.5367 -0.0458  0.4669
  121SOPE   H6X12877   1.663   4.151   6.145 -0.5532  0.4104 -1.5646
  121SOPE   H6Y12878   1.836   4.179   6.104 -0.4623 -0.7908  1.0732
  121SOPE   C3712879   1.695   4.361   6.106  0.3184  0.2039  0.2519
  121SOPE   H7X12880   1.778   4.434   6.093  0.1870  0.2397 -0.4211
  121SOPE   H7Y12881   1.616   4.397   6.175 -1.0636 -0.2344 -1.0584
  121SOPE   C3812882   1.632   4.353   5.964  0.3078  0.0210 -0.4288
  121SOPE   H8X12883   1.594   4.455   5.940 -0.7218 -0.4983 -1.0821
  121SOPE   H8Y12884   1.537   4.296   5.961  1.1576 -1.4221 -2.0636
  121SOPE   C3912885   1.727   4.303   5.853 -0.1286 -0.1443  0.1019
  121SOPE   H9X12886   1.767   4.205   5.887 -2.7568 -1.3431 -0.0289
  121SOPE   H9Y12887   1.806   4.380   5.839 -0.0475 -0.0982  0.7547
  121SOPE  C31012888   1.659   4.275   5.718 -0.0599  0.4716 -0.3809
  121SOPE  H10X12889   1.620   4.368   5.671 -1.8860 -0.1803 -0.2360
  121SOPE  H10Y12890   1.575   4.207   5.742  1.0021 -0.4988  0.7323
  121SOPE  C31112891   1.748   4.198   5.614  0.2885 -0.5159  0.0384
  121SOPE  H11X12892   1.785   4.102   5.654  1.5381  0.1856  0.6116
  121SOPE  H11Y12893   1.839   4.258   5.592 -0.8501  0.7691 -1.3768
  121SOPE  C31212894   1.667   4.162   5.487  0.3923 -0.0524 -0.5871
  121SOPE  H12X12895   1.576   4.115   5.528  2.4962 -3.2991  0.7436
  121SOPE  H12Y12896   1.711   4.084   5.421 -0.7742 -1.3878  0.1721
  121SOPE  C31312897   1.641   4.276   5.395 -0.1000 -0.0973  0.2631
  121SOPE  H13X12898   1.737   4.311   5.352 -0.0013  1.2746  1.5374
  121SOPE  H13Y12899   1.605   4.359   5.460  0.2905  0.0106  0.3473
  121SOPE  C31412900   1.538   4.250   5.282  0.0483 -0.2380 -0.0850
  121SOPE  H14X12901   1.446   4.214   5.333  0.1464 -0.1994  0.1248
  121SOPE  H14Y12902   1.583   4.168   5.222 -1.2842 -0.4476 -0.8287
  121SOPE  C31512903   1.507   4.369   5.195 -0.3954  0.3805  0.3789
  121SOPE  H15X12904   1.479   4.465   5.245 -2.6072  0.3062 -0.5901
  121SOPE  H15Y12905   1.414   4.344   5.140 -0.8459 -2.0863  2.0839
  121SOPE  C31612906   1.614   4.391   5.086  0.2211  0.2864  0.0694
  121SOPE  H16X12907   1.660   4.293   5.059  1.3542  1.1627 -1.3036
  121SOPE  H16Y12908   1.697   4.441   5.139  2.8853 -3.6958  0.0649
  121SOPE  C31712909   1.555   4.473   4.965  0.1795 -0.1012  0.0677
  121SOPE  H17X12910   1.466   4.414   4.932 -0.2725 -0.1868  1.3635
  121SOPE  H17Y12911   1.630   4.482   4.884 -0.7859  1.0795 -0.7331
  121SOPE  C31812912   1.515   4.617   5.001 -0.7524  1.0908 -0.1286
  121SOPE  H18X12913   1.470   4.616   5.103  0.0047 -0.6682  0.2260
  121SOPE  H18Y12914   1.448   4.669   4.929 -0.9617 -0.4910 -1.1271
  121SOPE  H18Z12915   1.604   4.682   5.011 -0.1621  0.2130  0.5095
  122SOPE     N12916   6.462   5.628   7.170 -0.0350 -0.0554 -0.4784
  122SOPE   HN112917   6.518   5.567   7.106  4.4272  1.1576  1.8224
  122SOPE   HN212918   6.436   5.716   7.121  1.6326  0.4044 -0.6120
  122SOPE   HN312919   6.528   5.646   7.248 -0.3732  0.6322 -0.3453
  122SOPE   C1212920   6.344   5.556   7.233  0.5652  0.5249 -0.5181
  122SOPE  H12A12921   6.308   5.580   7.335  1.1257 -0.7551  0.0030
  122SOPE  H12B12922   6.370   5.449   7.245  0.1992  0.5796  0.8718
  122SOPE   C1112923   6.222   5.560   7.148  0.6043  0.0711  0.0688
  122SOPE  H11A12924   6.141   5.504   7.200  0.0122  3.0121  2.6088
  122SOPE  H11B12925   6.237   5.509   7.050  2.6903 -0.4398  0.6060
  122SOPE     P12926   6.083   5.728   7.020 -0.4655 -0.2104 -0.0130
  122SOPE   O1312927   6.091   5.870   6.996  0.9254 -0.2047 -0.3691
  122SOPE   O1412928   5.956   5.679   7.064  0.2484  0.2170  0.1358
  122SOPE   O1212929   6.188   5.695   7.125 -0.0730  0.3812  0.2269
  122SOPE   O1112930   6.128   5.655   6.891  0.6699 -0.0606  0.0728
  122SOPE    C112931   6.253   5.684   6.831 -0.2881  1.1811  0.2308
  122SOPE    HA12932   6.328   5.615   6.874 -0.5885  1.7764  1.7880
  122SOPE    HB12933   6.304   5.778   6.860  2.4854 -0.3694  0.6299
  122SOPE    C212934   6.248   5.655   6.676  0.0863  0.9239 -0.9317
  122SOPE    HS12935   6.214   5.549   6.673  1.2517  0.4214  1.1378
  122SOPE   O2112936   6.376   5.660   6.623 -0.1168  0.3086  0.2310
  122SOPE   C2112937   6.457   5.561   6.618 -0.0523  0.7262 -0.0838
  122SOPE   O2212938   6.448   5.457   6.683  0.0489  0.4248 -0.7886
  122SOPE   C2212939   6.563   5.595   6.511  0.3851 -0.5810  0.1548
  122SOPE   H2R12940   6.647   5.523   6.508  0.7372 -0.1436 -0.5899
  122SOPE   H2S12941   6.602   5.697   6.529 -3.0537  0.5314  2.3411
  122SOPE    C312942   6.147   5.741   6.605 -0.2761 -0.5915 -0.4559
  122SOPE    HX12943   6.187   5.843   6.623 -0.3691 -0.0836 -2.9019
  122SOPE    HY12944   6.048   5.736   6.655 -0.2540  0.2255 -0.3171
  122SOPE   O3112945   6.141   5.713   6.464 -0.0203 -0.0109 -0.0217
  122SOPE   C3112946   6.201   5.794   6.382  0.3535  0.4502 -0.2928
  122SOPE   O3212947   6.262   5.893   6.410  0.0031 -0.3601 -0.1649
  122SOPE   C3212948   6.174   5.740   6.239  0.2805 -0.2448  0.4858
  122SOPE   H2X12949   6.065   5.719   6.230  0.2360  0.3724 -0.5597
  122SOPE   H2Y12950   6.237   5.651   6.215 -1.8547 -1.0531 -2.9376
  122SOPE   C2312951   6.502   5.590   6.364 -0.5039 -0.5512 -0.3243
  122SOPE   H3R12952   6.407   5.647   6.358 -0.1103  0.1816  0.2180
  122SOPE   H3S12953   6.471   5.488   6.334  0.4395 -0.8905 -0.1614
  122SOPE   C2412954   6.600   5.650   6.263  0.0443 -0.0787  0.3990
  122SOPE   H4R12955   6.617   5.758   6.281 -1.5033 -0.3028  4.2151
  122SOPE   H4S12956   6.690   5.595   6.297  0.7979 -0.7731 -2.4528
  122SOPE   C2512957   6.590   5.625   6.111  0.1013  0.2389 -0.5570
  122SOPE   H5R12958   6.492   5.665   6.077  0.5537  1.4008 -0.5533
  122SOPE   H5S12959   6.673   5.680   6.063  0.7474  0.1599  0.4346
  122SOPE   C2612960   6.587   5.478   6.075 -1.2422 -0.1663 -0.4578
  122SOPE   H6R12961   6.697   5.460   6.078 -0.9111  1.5542 -1.0812
  122SOPE   H6S12962   6.535   5.409   6.145  0.0353  1.1374  1.9073
  122SOPE   C2712963   6.533   5.438   5.931 -0.1240 -0.0407  0.6354
  122SOPE   H7R12964   6.573   5.336   5.915  1.8495  1.0277 -2.0135
  122SOPE   H7S12965   6.422   5.427   5.929 -0.3740  2.0114  0.7607
  122SOPE   C2812966   6.569   5.543   5.822 -0.2715  0.2065  0.1956
  122SOPE   H8R12967   6.524   5.643   5.839  0.1673  0.8099 -1.9457
  122SOPE   H8S12968   6.680   5.552   5.821 -0.3226  0.8985  0.6289
  122SOPE   C2912969   6.512   5.487   5.693 -0.5078  0.3859  0.1698
  122SOPE   H9112970   6.410   5.449   5.705 -1.5137  2.6639 -0.5326
  122SOPE  C21012971   6.572   5.482   5.577 -0.2419 -0.3050  0.4009
  122SOPE  H10112972   6.509   5.444   5.495 -0.3233 -1.2829  0.9004
  122SOPE  C21112973   6.703   5.546   5.524  0.1645 -0.5362 -0.0578
  122SOPE  H11R12974   6.768   5.469   5.478  1.5252  0.6985 -0.2451
  122SOPE  H11S12975   6.762   5.605   5.597  0.9373  0.3004 -1.3437
  122SOPE  C21212976   6.681   5.664   5.423 -0.0139 -1.1192 -0.3934
  122SOPE  H12R12977   6.774   5.724   5.421  0.1774 -1.2664  2.0438
  122SOPE  H12S12978   6.614   5.747   5.454  0.9889 -0.7094  0.7206
  122SOPE  C21312979   6.666   5.611   5.280  0.1444  0.2338 -0.2039
  122SOPE  H13R12980   6.571   5.554   5.280  0.1431  0.2164  1.1750
  122SOPE  H13S12981   6.747   5.538   5.257 -0.7644 -1.5912  1.9949
  122SOPE  C21412982   6.641   5.724   5.175  0.3219 -0.4989 -0.3213
  122SOPE  H14R12983   6.714   5.806   5.189  0.7098 -0.7740 -0.6883
  122SOPE  H14S12984   6.539   5.761   5.200  0.5254 -1.2995  1.9330
  122SOPE  C21512985   6.634   5.697   5.024 -0.7702  0.3748 -0.5810
  122SOPE  H15R12986   6.560   5.615   5.008 -0.3725 -0.0779 -0.1501
  122SOPE  H15S12987   6.734   5.671   4.982 -1.2067  0.3163 -1.6098
  122SOPE  C21612988   6.587   5.818   4.939 -0.3375 -0.1434 -0.5437
  122SOPE  H16R12989   6.664   5.899   4.936 -1.1244  0.6215 -0.5865
  122SOPE  H16S12990   6.499   5.868   4.985 -0.5921 -1.1921  0.1410
  122SOPE  C21712991   6.561   5.786   4.794 -0.4625 -0.2694 -0.4813
  122SOPE  H17R12992   6.464   5.738   4.768 -0.9680  0.8312 -0.6837
  122SOPE  H17S12993   6.634   5.706   4.771  0.0199 -1.1148  3.3873
  122SOPE  C21812994   6.593   5.903   4.699 -0.0558  0.3006 -0.0301
  122SOPE  H18R12995   6.534   5.995   4.718  2.5400  2.4251 -1.4872
  122SOPE  H18S12996   6.564   5.873   4.596  0.0835 -1.4413  0.4139
  122SOPE  H18T12997   6.701   5.925   4.713 -0.3456  0.8901  1.4816
  122SOPE   C3312998   6.205   5.847   6.138 -0.5707 -0.0364 -1.1981
  122SOPE   H3X12999   6.307   5.886   6.158 -0.6569  0.0149 -0.8483
  122SOPE   H3Y13000   6.132   5.929   6.155 -1.6962 -1.2703  0.1773
  122SOPE   C3413001   6.199   5.797   5.997  0.3668 -0.2863  0.2212
  122SOPE   H4X13002   6.101   5.745   5.986 -0.3229  0.7922  1.0243
  122SOPE   H4Y13003   6.273   5.717   5.979  2.1412  1.0097  1.4952
  122SOPE   C3513004   6.222   5.913   5.896 -0.3019  0.6097 -0.6521
  122SOPE   H5X13005   6.322   5.961   5.907 -0.0712  0.4142 -1.7168
  122SOPE   H5Y13006   6.142   5.989   5.911 -0.4427  0.4957 -0.8192
  122SOPE   C3613007   6.206   5.861   5.750 -0.8072 -0.4321  0.6490
  122SOPE   H6X13008   6.106   5.814   5.737 -1.1395 -0.0071  1.5544
  122SOPE   H6Y13009   6.277   5.780   5.724 -0.4218  0.1813 -0.2738
  122SOPE   C3713010   6.233   5.970   5.636 -0.0490 -0.1039  1.0152
  122SOPE   H7X13011   6.337   6.004   5.622  0.3561 -1.6406 -0.0227
  122SOPE   H7Y13012   6.170   6.055   5.668  0.3340  0.1690  1.0498
  122SOPE   C3813013   6.199   5.913   5.499 -0.8008 -1.0432 -0.0071
  122SOPE   H8X13014   6.114   5.842   5.509 -0.9304 -1.1254 -1.4937
  122SOPE   H8Y13015   6.284   5.845   5.473 -0.8636 -1.7962  1.6656
  122SOPE   C3913016   6.168   6.023   5.396 -0.2198  0.3093 -0.2537
  122SOPE   H9X13017   6.254   6.091   5.379 -0.2120  0.0983 -1.1046
  122SOPE   H9Y13018   6.083   6.086   5.430 -0.7439 -0.0767 -0.8213
  122SOPE  C31013019   6.121   5.958   5.264 -0.1038 -0.4347  0.3956
  122SOPE  H10X13020   6.092   6.032   5.186 -0.8364  0.1482  1.1984
  122SOPE  H10Y13021   6.026   5.905   5.287 -0.4618 -0.7711 -1.6484
  122SOPE  C31113022   6.213   5.860   5.191 -0.6708 -0.2097 -0.0587
  122SOPE  H11X13023   6.266   5.795   5.264 -0.6464  1.0274  1.0520
  122SOPE  H11Y13024   6.292   5.909   5.129 -1.0678 -0.2458 -0.6020
  122SOPE  C31213025   6.136   5.777   5.095  0.2829  0.0938  0.6673
  122SOPE  H12X13026   6.079   5.847   5.030  0.3845 -0.9479 -0.5919
  122SOPE  H12Y13027   6.065   5.713   5.152  0.2969 -0.0949  0.4735
  122SOPE  C31313028   6.218   5.665   5.021  0.4817 -1.1417  0.2095
  122SOPE  H13X13029   6.245   5.583   5.091  1.2793 -1.3899 -0.3722
  122SOPE  H13Y13030   6.314   5.707   4.985  0.6427 -0.3049  1.5108
  122SOPE  C31413031   6.153   5.602   4.899 -0.4187  1.1246 -0.2989
  122SOPE  H14X13032   6.055   5.557   4.927 -0.3018  1.1225  0.1156
  122SOPE  H14Y13033   6.228   5.527   4.864 -0.2705  1.7726 -1.4212
  122SOPE  C31513034   6.142   5.704   4.792  0.1977 -0.3959  0.5644
  122SOPE  H15X13035   6.236   5.733   4.740  1.2740 -0.2627  2.5028
  122SOPE  H15Y13036   6.112   5.804   4.831  1.5593  0.4336 -0.4047
  122SOPE  C31613037   6.043   5.680   4.683 -0.4504 -0.0689  0.4909
  122SOPE  H16X13038   5.946   5.654   4.731  0.0548 -0.8122  1.1378
  122SOPE  H16Y13039   6.082   5.586   4.638 -1.3825 -1.0957  1.7457
  122SOPE  C31713040   6.025   5.798   4.585 -0.5542  0.7063 -0.0708
  122SOPE  H17X13041   6.124   5.821   4.541 -0.3843 -0.1226 -0.1289
  122SOPE  H17Y13042   5.995   5.893   4.633  1.1454  0.8656  0.7472
  122SOPE  C31813043   5.928   5.774   4.465 -0.3324  0.1657  0.4152
  122SOPE  H18X13044   5.827   5.762   4.508 -1.4735  0.9354 -1.8552
  122SOPE  H18Y13045   5.966   5.690   4.402  0.8649 -1.3507  3.0293
  122SOPE  H18Z13046   5.920   5.860   4.394 -0.8080  0.4498  0.8114
  123SOPE     N13047   3.035   5.524   2.765  0.7644  0.7677 -0.0568
  123SOPE   HN113048   3.034   5.619   2.724  0.9402  1.3657  1.2667
  123SOPE   HN213049   3.137   5.506   2.772  1.0529  0.2738 -3.6457
  123SOPE   HN313050   2.996   5.450   2.704 -0.3430  1.6592 -0.4705
  123SOPE   C1213051   2.986   5.539   2.906  0.3443  0.3682 -0.1739
  123SOPE  H12A13052   2.875   5.537   2.909  0.3632 -0.1073  1.2533
  123SOPE  H12B13053   3.013   5.641   2.941 -0.5966  0.0098  1.7739
  123SOPE   C1113054   3.027   5.427   3.005  0.6140  0.4464  0.0759
  123SOPE  H11A13055   2.963   5.443   3.094 -0.6845 -1.7238 -0.3803
  123SOPE  H11B13056   3.130   5.437   3.045  1.1892  0.7494 -1.3949
  123SOPE     P13057   3.126   5.197   2.898 -0.2085 -0.0825  0.2461
  123SOPE   O1313058   3.156   5.244   2.758  0.1432  0.0223  0.5230
  123SOPE   O1413059   3.084   5.056   2.919  0.7269 -0.1704  0.1562
  123SOPE   O1213060   3.004   5.291   2.955 -0.3921 -0.0188 -0.4541
  123SOPE   O1113061   3.247   5.234   2.988  0.1437 -0.0927  0.0076
  123SOPE    C113062   3.381   5.250   2.945 -0.7048 -0.1127  0.1960
  123SOPE    HA13063   3.435   5.330   3.000 -0.6025 -0.3649  0.4643
  123SOPE    HB13064   3.395   5.277   2.838  1.2512  1.1386  0.7088
  123SOPE    C213065   3.468   5.125   2.952 -0.2403  0.0059 -0.5939
  123SOPE    HS13066   3.418   5.037   2.906  0.0525  0.0438 -0.9994
  123SOPE   O2113067   3.496   5.109   3.093  0.1314  0.0490  0.1910
  123SOPE   C2113068   3.549   4.988   3.120  0.3087 -0.2673  0.7413
  123SOPE   O2213069   3.552   4.893   3.041 -0.4390 -0.5239 -0.3409
  123SOPE   C2213070   3.619   4.990   3.259  0.4642  0.6187  0.1386
  123SOPE   H2R13071   3.605   5.087   3.311 -1.9409  1.2412 -1.5070
  123SOPE   H2S13072   3.727   4.974   3.242  0.6169 -2.1126  2.7687
  123SOPE    C313073   3.603   5.143   2.875 -0.2903  0.6019 -0.0356
  123SOPE    HX13074   3.582   5.144   2.765  1.5540 -1.1056 -0.4562
  123SOPE    HY13075   3.679   5.062   2.880  0.8957  1.7800  2.0993
  123SOPE   O3113076   3.663   5.272   2.900  0.9946 -0.0849  0.2695
  123SOPE   C3113077   3.771   5.268   2.976 -0.0201  0.1382  0.2760
  123SOPE   O3213078   3.816   5.168   3.029  0.1804 -0.4667 -0.3411
  123SOPE   C3213079   3.820   5.408   3.001 -0.3958 -0.3061  0.0523
  123SOPE   H2X13080   3.754   5.489   2.965  1.1755  0.3481 -1.5530
  123SOPE   H2Y13081   3.919   5.421   2.951  0.7374 -0.7703  2.0803
  123SOPE   C2313082   3.572   4.864   3.344 -0.6986  0.0284  0.5231
  123SOPE   H3R13083   3.603   4.769   3.296  0.5788  1.2684 -1.2444
  123SOPE   H3S13084   3.463   4.847   3.351 -0.3944 -1.6001  1.8625
  123SOPE   C2413085   3.624   4.866   3.488 -0.2405  0.0605 -0.1627
  123SOPE   H4R13086   3.578   4.776   3.535 -2.7734  0.3602 -1.8431
  123SOPE   H4S13087   3.735   4.863   3.496  0.0067 -1.1918 -2.8554
  123SOPE   C2513088   3.569   4.983   3.574  0.0061 -0.7158  0.2149
  123SOPE   H5R13089   3.609   5.079   3.536 -0.9558 -0.1451  0.5990
  123SOPE   H5S13090   3.461   4.998   3.551 -0.2394  0.0158  1.7244
  123SOPE   C2613091   3.577   4.975   3.730  1.0791 -0.5276  0.3850
  123SOPE   H6R13092   3.497   4.901   3.752 -1.1340  2.1138  1.9813
  123SOPE   H6S13093   3.674   4.942   3.771  2.0782  1.9056  0.1711
  123SOPE   C2713094   3.533   5.103   3.798  0.2950 -0.1457 -0.3728
  123SOPE   H7R13095   3.603   5.187   3.779  0.7719 -0.6347 -0.8102
  123SOPE   H7S13096   3.436   5.134   3.754  1.1410  2.1388 -0.7926
  123SOPE   C2813097   3.522   5.100   3.955  0.2985 -0.0646 -0.0511
  123SOPE   H8R13098   3.489   5.200   3.990  0.0915  0.4196 -1.5925
  123SOPE   H8S13099   3.446   5.024   3.985 -0.5553 -0.0780 -2.0880
  123SOPE   C2913100   3.648   5.069   4.030 -0.5044  0.1469 -0.5994
  123SOPE   H9113101   3.739   5.060   3.968 -0.6278  1.3278 -0.9820
  123SOPE  C21013102   3.650   5.064   4.168 -0.3503  0.6460  0.0285
  123SOPE  H10113103   3.746   5.052   4.220  0.9884  2.6458 -1.8149
  123SOPE  C21113104   3.533   5.066   4.263 -0.0131 -0.6414  0.6368
  123SOPE  H11R13105   3.438   5.088   4.209 -1.6313  1.1152  3.9290
  123SOPE  H11S13106   3.544   5.145   4.341  0.6571 -1.5557  1.4895
  123SOPE  C21213107   3.503   4.937   4.337 -0.0925 -0.3332 -0.2354
  123SOPE  H12R13108   3.419   4.956   4.407  0.9319  1.9118  0.4745
  123SOPE  H12S13109   3.596   4.908   4.390  1.5256  2.1374 -1.5359
  123SOPE  C21313110   3.460   4.821   4.243  1.1117  0.3124 -0.4441
  123SOPE  H13R13111   3.545   4.777   4.187  0.2779  0.6088 -1.9854
  123SOPE  H13S13112   3.382   4.856   4.172  0.5446 -2.8587 -1.5573
  123SOPE  C21413113   3.383   4.704   4.313  0.1414 -0.4360 -0.3373
  123SOPE  H14R13114   3.301   4.753   4.371  1.8481  0.7710  1.1533
  123SOPE  H14S13115   3.449   4.654   4.386  0.8318  1.0923  0.1229
  123SOPE  C21513116   3.329   4.604   4.207 -0.3154  0.3549  0.8258
  123SOPE  H15R13117   3.412   4.538   4.174 -1.4634 -0.3930 -0.6995
  123SOPE  H15S13118   3.308   4.669   4.119  0.1399 -1.7986 -0.9681
  123SOPE  C21613119   3.210   4.520   4.243  0.3066  0.0262  0.1171
  123SOPE  H16R13120   3.123   4.585   4.265  0.5767  1.1431 -1.8874
  123SOPE  H16S13121   3.231   4.466   4.338  1.1793  0.2273  0.0510
  123SOPE  C21713122   3.166   4.423   4.140  0.5892  0.3357 -0.1548
  123SOPE  H17R13123   3.255   4.369   4.101 -1.6347 -2.0221 -2.3666
  123SOPE  H17S13124   3.117   4.468   4.051  0.2454  1.0194  0.3691
  123SOPE  C21813125   3.077   4.322   4.213  0.8207  0.1185 -0.3097
  123SOPE  H18R13126   3.139   4.281   4.295  0.2851  2.7009  1.5310
  123SOPE  H18S13127   3.039   4.242   4.147 -0.6646  1.6483 -1.3958
  123SOPE  H18T13128   2.990   4.381   4.250  1.5993  1.3721 -0.4278
  123SOPE   C3313129   3.855   5.426   3.148 -0.0624  0.2006  0.2849
  123SOPE   H3X13130   3.910   5.521   3.167  1.7862 -0.9246  0.8334
  123SOPE   H3Y13131   3.914   5.335   3.172 -0.9069 -0.0916  1.3957
  123SOPE   C3413132   3.728   5.438   3.243 -0.5544 -0.6150 -0.1341
  123SOPE   H4X13133   3.655   5.355   3.227 -1.0834 -0.3294  0.7162
  123SOPE   H4Y13134   3.677   5.533   3.216  2.0011  0.8640 -0.0724
  123SOPE   C3513135   3.747   5.442   3.394 -0.1240  0.3821  0.3873
  123SOPE   H5X13136   3.842   5.493   3.419  1.1761 -2.6214  2.1576
  123SOPE   H5Y13137   3.753   5.343   3.444  0.7570  1.7735  3.2479
  123SOPE   C3613138   3.628   5.517   3.457  0.8541  0.2530  0.1494
  123SOPE   H6X13139   3.624   5.623   3.425 -0.8386  0.9381  2.3921
  123SOPE   H6Y13140   3.645   5.526   3.566 -0.6532  0.8479  0.3598
  123SOPE   C3713141   3.494   5.453   3.436 -0.0939  0.3093  0.0971
  123SOPE   H7X13142   3.506   5.348   3.471  0.6475  0.2924 -0.1997
  123SOPE   H7Y13143   3.485   5.443   3.326  0.5250 -0.8427  0.1325
  123SOPE   C3813144   3.383   5.525   3.497 -0.3725 -0.8297 -0.7100
  123SOPE   H8X13145   3.295   5.470   3.458  0.6315 -1.5669 -2.0463
  123SOPE   H8Y13146   3.377   5.627   3.453 -0.6385 -0.8832 -0.7991
  123SOPE   C3913147   3.377   5.518   3.651  0.1083  0.3503 -0.0474
  123SOPE   H9X13148   3.461   5.572   3.698  0.3489 -0.4264  0.4229
  123SOPE   H9Y13149   3.399   5.413   3.679  1.7702  0.7823  0.3379
  123SOPE  C31013150   3.241   5.573   3.708 -0.0898  0.4030 -0.2874
  123SOPE  H10X13151   3.157   5.511   3.671 -0.3898  0.1499  0.7974
  123SOPE  H10Y13152   3.221   5.673   3.665 -1.5762 -0.3302 -1.3865
  123SOPE  C31113153   3.247   5.592   3.870 -0.2095  0.1861  0.6368
  123SOPE  H11X13154   3.145   5.602   3.914 -0.4758  0.7905 -0.0950
  123SOPE  H11Y13155   3.292   5.692   3.892  1.2059  0.2964 -2.2863
  123SOPE  C31213156   3.338   5.493   3.941  0.0108  0.0780  0.4960
  123SOPE  H12X13157   3.442   5.526   3.920  0.0396  1.7639  2.9592
  123SOPE  H12Y13158   3.313   5.392   3.900 -0.3817  0.9016 -1.4368
  123SOPE  C31313159   3.315   5.505   4.092  0.2754 -0.5942 -0.0025
  123SOPE  H13X13160   3.209   5.490   4.119 -0.0748 -1.9474 -1.9190
  123SOPE  H13Y13161   3.332   5.612   4.116  1.5813 -0.9230  0.6419
  123SOPE  C31413162   3.410   5.418   4.178  0.2145 -0.5991 -0.1716
  123SOPE  H14X13163   3.508   5.418   4.125 -0.2943 -1.6614 -1.1585
  123SOPE  H14Y13164   3.372   5.315   4.161  0.2438 -0.6113 -0.1601
  123SOPE  C31513165   3.428   5.451   4.326 -0.2455  0.0525  0.1151
  123SOPE  H15X13166   3.420   5.561   4.336 -0.2523  0.2242 -1.5681
  123SOPE  H15Y13167   3.532   5.429   4.360  0.2598  1.3628 -0.5112
  123SOPE  C31613168   3.314   5.415   4.419 -0.4263 -0.3557 -0.4978
  123SOPE  H16X13169   3.294   5.306   4.405 -0.3317 -0.5468  0.7047
  123SOPE  H16Y13170   3.225   5.474   4.390 -0.2774 -0.0641 -0.3671
  123SOPE  C31713171   3.329   5.448   4.568 -0.5472  0.4789 -0.6023
  123SOPE  H17X13172   3.427   5.409   4.603 -0.2250  1.6507 -0.1230
  123SOPE  H17Y13173   3.252   5.402   4.633  2.8927  0.3848  3.9720
  123SOPE  C31813174   3.339   5.593   4.625 -0.0921  0.8037  0.0044
  123SOPE  H18X13175   3.378   5.584   4.728  0.6024 -0.3320 -0.3317
  123SOPE  H18Y13176   3.240   5.644   4.631  0.1260  1.3991 -1.1686
  123SOPE  H18Z13177   3.411   5.646   4.560 -2.5161  0.5692 -3.1699
  124SOPE     N13178   3.544   2.694   2.636 -0.5447 -0.4520 -0.1803
  124SOPE   HN113179   3.537   2.798   2.635 -0.8750 -0.4319 -2.6118
  124SOPE   HN213180   3.619   2.658   2.574 -1.5141 -1.4155 -0.8306
  124SOPE   HN313181   3.454   2.671   2.589 -1.2392  2.2699 -0.3532
  124SOPE   C1213182   3.542   2.637   2.772  0.0563 -0.4845 -0.7958
  124SOPE  H12A13183   3.619   2.691   2.830 -2.1913  0.8675  1.1133
  124SOPE  H12B13184   3.577   2.532   2.774 -1.2451 -0.9523  1.9856
  124SOPE   C1113185   3.400   2.636   2.836  0.2954 -0.7347 -0.0188
  124SOPE  H11A13186   3.355   2.736   2.848  1.2814 -0.4228  1.4296
  124SOPE  H11B13187   3.417   2.603   2.941  0.4607 -0.6968 -0.0328
  124SOPE     P13188   3.213   2.573   2.662 -0.1939 -0.3930 -0.3259
  124SOPE   O1313189   3.126   2.453   2.641  0.3806 -0.1870  0.5195
  124SOPE   O1413190   3.275   2.634   2.544  0.3391 -0.1080 -0.1947
  124SOPE   O1213191   3.322   2.545   2.772 -0.0074  0.4975  0.0102
  124SOPE   O1113192   3.122   2.687   2.725 -0.3499 -0.0857 -0.3024
  124SOPE    C113193   2.998   2.659   2.785  0.2893  0.4509  0.0951
  124SOPE    HA13194   2.952   2.565   2.747 -1.7612  1.3204  0.3028
  124SOPE    HB13195   2.928   2.743   2.768  1.9905  1.6118 -1.5228
  124SOPE    C213196   3.014   2.644   2.944  0.2219 -0.2525  0.5679
  124SOPE    HS13197   2.920   2.683   2.988 -1.0016  0.4153 -2.3630
  124SOPE   O2113198   3.133   2.706   2.997  0.7868 -0.1382 -0.1895
  124SOPE   C2113199   3.113   2.836   3.018  0.3712 -0.0827 -0.1664
  124SOPE   O2213200   3.008   2.891   2.997 -0.0857  0.1349 -0.4941
  124SOPE   C2213201   3.239   2.895   3.062 -0.2512 -0.0484  0.1845
  124SOPE   H2R13202   3.230   2.994   3.113  1.6245 -0.4856  1.4957
  124SOPE   H2S13203   3.291   2.914   2.965 -1.8508 -1.3316 -0.9763
  124SOPE    C313204   3.005   2.503   2.997 -0.2757 -0.2613  0.4003
  124SOPE    HX13205   3.081   2.443   2.943 -0.9379  0.1194 -0.9974
  124SOPE    HY13206   2.909   2.459   2.963 -0.6518 -1.3264  2.6582
  124SOPE   O3113207   3.015   2.497   3.137 -0.5572 -0.2629 -0.1480
  124SOPE   C3113208   3.123   2.446   3.192  0.6876 -0.1806  0.0867
  124SOPE   O3213209   3.215   2.412   3.124  0.1579  0.5023  0.1971
  124SOPE   C3213210   3.117   2.433   3.339 -0.4315 -0.1455 -0.3226
  124SOPE   H2X13211   3.010   2.413   3.356 -0.6767  2.0578  1.2641
  124SOPE   H2Y13212   3.143   2.534   3.378  0.9200 -0.3446 -0.6449
  124SOPE   C2313213   3.328   2.809   3.153  0.2797 -0.3170 -0.3337
  124SOPE   H3R13214   3.437   2.830   3.139  0.8118 -1.0133  2.2231
  124SOPE   H3S13215   3.327   2.701   3.125 -1.8565 -0.9216  1.7960
  124SOPE   C2413216   3.299   2.828   3.305 -0.2206 -0.0407  0.6369
  124SOPE   H4R13217   3.317   2.935   3.330 -0.9734  0.1752  0.2876
  124SOPE   H4S13218   3.190   2.812   3.317 -0.3719 -2.0317 -2.3965
  124SOPE   C2513219   3.394   2.739   3.392  0.1419 -0.3658  0.4128
  124SOPE   H5R13220   3.359   2.634   3.391 -0.3835 -0.1903 -0.2502
  124SOPE   H5S13221   3.496   2.745   3.349 -0.6780  1.3800 -1.4428
  124SOPE   C2613222   3.406   2.783   3.539  0.4358  0.3123  0.1005
  124SOPE   H6R13223   3.473   2.712   3.593 -1.2020 -0.8408  0.7051
  124SOPE   H6S13224   3.451   2.884   3.535 -1.9452  1.4432  0.2869
  124SOPE   C2713225   3.272   2.782   3.617 -0.9461  0.7911  0.6418
  124SOPE   H7R13226   3.206   2.868   3.591  0.2192  1.6204  0.3417
  124SOPE   H7S13227   3.223   2.683   3.603  3.7948 -1.8593  0.8893
  124SOPE   C2813228   3.295   2.776   3.774 -0.4678 -0.2927  0.1893
  124SOPE   H8R13229   3.360   2.853   3.821 -2.7087  3.3814 -2.2320
  124SOPE   H8S13230   3.195   2.793   3.820  0.4524  0.1633  2.1465
  124SOPE   C2913231   3.342   2.641   3.827 -0.2812 -0.0078 -0.4649
  124SOPE   H9113232   3.374   2.567   3.752  0.6066 -0.9967  0.8444
  124SOPE  C21013233   3.341   2.599   3.957 -0.1802 -0.8407 -0.1901
  124SOPE  H10113234   3.392   2.506   3.986  1.1137 -0.1779 -0.2839
  124SOPE  C21113235   3.275   2.672   4.064  0.1006 -0.3111  1.3195
  124SOPE  H11R13236   3.251   2.778   4.044 -1.9204 -0.6228  1.8959
  124SOPE  H11S13237   3.340   2.669   4.155 -0.8020 -1.9089  1.9531
  124SOPE  C21213238   3.143   2.600   4.113 -0.2745 -0.0608 -0.0374
  124SOPE  H12R13239   3.085   2.555   4.029  1.0306  0.4597 -1.2623
  124SOPE  H12S13240   3.077   2.679   4.154 -2.0594 -1.5674  0.1386
  124SOPE  C21313241   3.168   2.487   4.212 -0.0133 -0.4706  0.2056
  124SOPE  H13R13242   3.184   2.526   4.315  1.6750  0.6491 -0.4263
  124SOPE  H13S13243   3.245   2.416   4.175  0.5765  0.2790 -0.0332
  124SOPE  C21413244   3.043   2.401   4.217 -0.4005  0.3890 -0.1267
  124SOPE  H14R13245   3.011   2.353   4.122  1.6929 -0.7551 -0.3000
  124SOPE  H14S13246   2.959   2.463   4.254 -0.3717  0.1934  0.2696
  124SOPE  C21513247   3.050   2.286   4.317  0.0796  0.1668  0.2101
  124SOPE  H15R13248   3.136   2.217   4.311 -0.4564 -0.6871  1.6983
  124SOPE  H15S13249   2.953   2.232   4.323 -0.6940  1.4714 -0.1832
  124SOPE  C21613250   3.080   2.342   4.461  0.1887  0.3123  0.0212
  124SOPE  H16R13251   2.993   2.407   4.481 -0.8594 -0.4275 -1.8772
  124SOPE  H16S13252   3.170   2.403   4.484  0.3369 -0.3501  1.2744
  124SOPE  C21713253   3.086   2.228   4.558 -0.0830  0.5376 -0.3584
  124SOPE  H17R13254   3.179   2.169   4.542  0.1578  1.0386 -0.8274
  124SOPE  H17S13255   2.995   2.165   4.543 -1.4189  2.2772  0.0836
  124SOPE  C21813256   3.075   2.269   4.708 -0.4756 -0.3099 -0.3086
  124SOPE  H18R13257   3.151   2.350   4.720 -0.1603 -0.5452 -0.6737
  124SOPE  H18S13258   3.098   2.179   4.769  1.3080  0.0291 -0.4082
  124SOPE  H18T13259   2.969   2.293   4.732 -1.1324 -1.0924 -2.2086
  124SOPE   C3313260   3.207   2.318   3.398  0.6315  0.6299 -0.3660
  124SOPE   H3X13261   3.309   2.302   3.358  1.4809 -1.3421  2.2735
  124SOPE   H3Y13262   3.152   2.221   3.389 -1.2453  1.7783 -2.0282
  124SOPE   C3413263   3.218   2.336   3.552  0.6222  0.1058 -0.1315
  124SOPE   H4X13264   3.121   2.354   3.603 -0.6779  0.6492 -2.6348
  124SOPE   H4Y13265   3.287   2.420   3.572  0.8939 -0.1352 -0.0499
  124SOPE   C3513266   3.292   2.221   3.622  0.0142  0.0096 -0.5544
  124SOPE   H5X13267   3.391   2.205   3.574  1.7352  0.2624  2.6182
  124SOPE   H5Y13268   3.232   2.128   3.608 -0.9491 -0.0795  3.1365
  124SOPE   C3613269   3.303   2.229   3.774  0.5358 -0.2883 -0.4035
  124SOPE   H6X13270   3.200   2.236   3.817  0.7373 -0.9580  0.2116
  124SOPE   H6Y13271   3.371   2.315   3.794 -1.9831  1.9429 -0.8432
  124SOPE   C3713272   3.377   2.105   3.837  0.0617  0.3188  0.1621
  124SOPE   H7X13273   3.485   2.116   3.815  0.0238 -0.4561 -0.4752
  124SOPE   H7Y13274   3.339   2.012   3.788  0.0668  0.8842 -0.9534
  124SOPE   C3813275   3.366   2.105   3.993  0.4852 -0.6721  0.2992
  124SOPE   H8X13276   3.257   2.097   4.016  0.0234 -1.2567 -1.8038
  124SOPE   H8Y13277   3.409   2.200   4.030 -0.1106 -0.1686 -0.2718
  124SOPE   C3913278   3.420   1.973   4.042  0.1382 -0.1459  0.3185
  124SOPE   H9X13279   3.520   1.970   3.994  0.3168  2.0557  0.4297
  124SOPE   H9Y13280   3.351   1.893   4.010  0.0972 -0.3119  0.8152
  124SOPE  C31013281   3.456   1.962   4.192  0.2865 -0.0511 -0.4631
  124SOPE  H10X13282   3.497   2.056   4.235  1.1889 -0.2254 -0.9193
  124SOPE  H10Y13283   3.519   1.871   4.206  0.1968 -0.0306  0.0860
  124SOPE  C31113284   3.334   1.945   4.277 -0.1061  0.6806 -0.4041
  124SOPE  H11X13285   3.286   1.848   4.253  0.7043 -0.0455  0.7633
  124SOPE  H11Y13286   3.269   2.034   4.261  1.3009  2.3181  2.2055
  124SOPE  C31213287   3.367   1.937   4.426 -1.0966 -0.0385 -0.0075
  124SOPE  H12X13288   3.277   1.940   4.490 -1.9320 -3.8701 -0.7796
  124SOPE  H12Y13289   3.424   2.031   4.448 -0.7144  0.3052 -2.2613
  124SOPE  C31313290   3.449   1.820   4.475  0.4293  0.4726  0.1788
  124SOPE  H13X13291   3.558   1.826   4.456  0.1599  2.5747 -1.0363
  124SOPE  H13Y13292   3.415   1.742   4.404  0.2794  0.9952 -0.3363
  124SOPE  C31413293   3.421   1.786   4.625 -0.4772  0.1169  0.2945
  124SOPE  H14X13294   3.417   1.675   4.625 -0.3840  0.0665 -2.2070
  124SOPE  H14Y13295   3.321   1.825   4.653 -0.1496  0.8813  0.4380
  124SOPE  C31513296   3.517   1.854   4.723  0.1956  0.7060  0.7804
  124SOPE  H15X13297   3.513   1.961   4.693 -5.6451  0.0435 -2.4220
  124SOPE  H15Y13298   3.617   1.810   4.705  0.0671  1.3616 -2.0533
  124SOPE  C31613299   3.476   1.839   4.867  0.4352  0.2153 -0.2994
  124SOPE  H16X13300   3.469   1.729   4.877  1.7289  0.2605  1.7428
  124SOPE  H16Y13301   3.379   1.892   4.879  0.6430  0.9227 -1.5685
  124SOPE  C31713302   3.575   1.885   4.985 -0.0623  0.2886  0.0463
  124SOPE  H17X13303   3.672   1.832   4.972 -0.6784 -1.4742  2.1536
  124SOPE  H17Y13304   3.536   1.835   5.075 -0.6921  0.3642 -0.1818
  124SOPE  C31813305   3.594   2.036   5.014  0.1880 -0.5102 -0.1516
  124SOPE  H18X13306   3.499   2.084   5.045  1.0078  0.3531  1.1261
  124SOPE  H18Y13307   3.633   2.086   4.923  1.1839 -0.9312  0.0252
  124SOPE  H18Z13308   3.670   2.035   5.095 -0.5105 -1.2662  0.5204
  125SOPE     N13309   3.125   2.896   2.483  0.2292 -0.3765  0.1077
  125SOPE   HN113310   3.203   2.936   2.427 -0.9183  2.8441  0.5944
  125SOPE   HN213311   3.147   2.801   2.518 -0.9904 -1.0331 -0.8122
  125SOPE   HN313312   3.042   2.910   2.422  1.2718  3.0107 -0.7547
  125SOPE   C1213313   3.107   2.983   2.603  0.4573  0.3133  0.1111
  125SOPE  H12A13314   3.043   2.930   2.677  1.8867 -0.5096  0.8094
  125SOPE  H12B13315   3.066   3.080   2.568  0.6373  0.2103 -0.3927
  125SOPE   C1113316   3.235   3.004   2.683  0.5019  0.2319  0.2827
  125SOPE  H11A13317   3.275   2.903   2.709  0.1910  0.1436  0.4180
  125SOPE  H11B13318   3.213   3.041   2.785 -0.8518  0.6964 -0.1692
  125SOPE     P13319   3.471   3.096   2.678 -0.0990 -0.1231  0.1257
  125SOPE   O1313320   3.543   3.208   2.606 -0.0256  0.3375  0.4524
  125SOPE   O1413321   3.533   2.961   2.662  0.3635 -0.4431 -0.1175
  125SOPE   O1213322   3.327   3.084   2.610  0.3923 -0.0290 -0.2187
  125SOPE   O1113323   3.446   3.125   2.830  0.5272 -0.5427  0.0812
  125SOPE    C113324   3.436   3.260   2.888 -0.3354  0.2114  0.1441
  125SOPE    HA13325   3.352   3.255   2.960 -1.8716  0.7938 -1.5386
  125SOPE    HB13326   3.421   3.337   2.808 -0.4718 -0.0590 -0.0917
  125SOPE    C213327   3.562   3.292   2.979 -0.7780 -0.0614  0.4127
  125SOPE    HS13328   3.648   3.270   2.913 -1.6629 -3.1077  0.1505
  125SOPE   O2113329   3.558   3.207   3.095 -0.5077  0.5384  0.5673
  125SOPE   C2113330   3.649   3.112   3.113  0.6180  0.4740  0.5229
  125SOPE   O2213331   3.741   3.088   3.033  0.0711  0.2442  0.5195
  125SOPE   C2213332   3.635   3.037   3.246  0.0657 -0.9818  0.0714
  125SOPE   H2R13333   3.626   2.933   3.207 -0.2130 -1.1544  0.5961
  125SOPE   H2S13334   3.545   3.073   3.300  0.4967  0.9043 -0.3808
  125SOPE    C313335   3.562   3.442   3.016 -0.1577  0.0940 -0.3604
  125SOPE    HX13336   3.484   3.458   3.093 -0.7092  2.1581 -1.2676
  125SOPE    HY13337   3.537   3.512   2.933  0.5297  0.8504  0.0588
  125SOPE   O3113338   3.699   3.463   3.074 -0.2965 -0.2021  0.0967
  125SOPE   C3113339   3.797   3.482   2.999  0.4717 -0.1677  0.2566
  125SOPE   O3213340   3.790   3.506   2.880 -0.3516  0.4488  0.3016
  125SOPE   C3213341   3.928   3.451   3.067 -1.3257 -0.5759  0.7610
  125SOPE   H2X13342   4.007   3.513   3.019  0.5874 -1.2981  2.7492
  125SOPE   H2Y13343   3.962   3.351   3.035 -0.3526 -0.3128  0.9225
  125SOPE   C2313344   3.768   3.056   3.334  0.6055  0.3266 -0.2531
  125SOPE   H3R13345   3.789   3.164   3.345  0.6387  0.3514 -0.5561
  125SOPE   H3S13346   3.855   3.011   3.283 -0.0084  0.1391 -1.1626
  125SOPE   C2413347   3.753   3.003   3.474 -0.1717 -0.0495  0.3092
  125SOPE   H4R13348   3.689   3.068   3.537  1.3201  0.9117  0.8669
  125SOPE   H4S13349   3.686   2.914   3.466 -0.5713  0.1571  1.1633
  125SOPE   C2513350   3.880   2.954   3.539 -0.8108 -0.5323 -0.0962
  125SOPE   H5R13351   3.940   2.894   3.468  0.5420  0.6446  0.0135
  125SOPE   H5S13352   3.946   3.044   3.534  2.3473 -2.6162  0.9555
  125SOPE   C2613353   3.869   2.876   3.671  0.8833  0.6155 -0.1215
  125SOPE   H6R13354   3.951   2.802   3.681 -1.8567 -2.7363 -0.4700
  125SOPE   H6S13355   3.871   2.947   3.756 -0.6581 -0.1408  0.6001
  125SOPE   C2713356   3.742   2.784   3.684 -0.6014 -0.2209 -0.2814
  125SOPE   H7R13357   3.648   2.842   3.698  0.0154  0.3347  1.8446
  125SOPE   H7S13358   3.739   2.730   3.587  1.2702  1.0761 -1.1053
  125SOPE   C2813359   3.765   2.677   3.798 -0.6445 -0.4611 -0.6044
  125SOPE   H8R13360   3.682   2.603   3.793  0.7662 -2.0139 -1.9084
  125SOPE   H8S13361   3.859   2.619   3.789  0.2577  0.4186  2.1308
  125SOPE   C2913362   3.778   2.740   3.935  0.6206 -0.1993  0.1158
  125SOPE   H9113363   3.783   2.850   3.937  0.3474 -0.1945  1.2324
  125SOPE  C21013364   3.782   2.677   4.052 -0.6181  0.1243 -0.8732
  125SOPE  H10113365   3.777   2.734   4.146 -0.3767 -1.8944  0.4313
  125SOPE  C21113366   3.778   2.527   4.061  0.1956  0.1675  0.2741
  125SOPE  H11R13367   3.877   2.492   4.100  0.0145  1.5888  2.1414
  125SOPE  H11S13368   3.750   2.486   3.962 -1.4363 -0.1083  0.8295
  125SOPE  C21213369   3.678   2.446   4.149 -0.3065 -0.5909 -1.1458
  125SOPE  H12R13370   3.675   2.337   4.127 -1.4058 -0.5026 -1.5206
  125SOPE  H12S13371   3.580   2.497   4.132 -0.1070  0.1503 -0.1467
  125SOPE  C21313372   3.703   2.455   4.301  0.4008 -0.2845 -0.5068
  125SOPE  H13R13373   3.719   2.562   4.323  3.5783 -0.2254 -2.4700
  125SOPE  H13S13374   3.800   2.409   4.332 -0.1584 -2.6391 -1.9522
  125SOPE  C21413375   3.585   2.403   4.383  0.2442 -0.0631 -0.2511
  125SOPE  H14R13376   3.580   2.294   4.363 -0.7582  0.3854 -2.8625
  125SOPE  H14S13377   3.488   2.444   4.349  0.4856  0.7856  0.0511
  125SOPE  C21513378   3.605   2.426   4.534 -0.1324  0.3736  0.1886
  125SOPE  H15R13379   3.603   2.532   4.567  1.0243  0.3563  0.3659
  125SOPE  H15S13380   3.696   2.371   4.567  0.8573  0.5804 -2.0346
  125SOPE  C21613381   3.481   2.355   4.599 -1.0565  0.6139  0.4343
  125SOPE  H16R13382   3.485   2.246   4.579  1.3861  0.4392  1.6227
  125SOPE  H16S13383   3.395   2.400   4.543 -1.7114  1.2027  1.8490
  125SOPE  C21713384   3.465   2.371   4.751  0.5532  0.7350  0.5857
  125SOPE  H17R13385   3.560   2.334   4.793  0.7693 -0.2080 -0.6810
  125SOPE  H17S13386   3.391   2.304   4.800  1.8602  0.9600  3.0352
  125SOPE  C21813387   3.449   2.516   4.802 -0.0662  0.3707  0.3212
  125SOPE  H18R13388   3.345   2.554   4.787 -0.3145 -0.5217 -0.3169
  125SOPE  H18S13389   3.526   2.586   4.764  1.4413 -0.2334  2.1275
  125SOPE  H18T13390   3.484   2.526   4.907  1.1274  6.0876 -0.3061
  125SOPE   C3313391   3.922   3.445   3.220 -0.1801 -0.3816 -0.2594
  125SOPE   H3X13392   3.841   3.376   3.253  0.2882 -1.4969 -1.3870
  125SOPE   H3Y13393   3.887   3.539   3.269  1.2528 -1.6007  3.4678
  125SOPE   C3413394   4.060   3.427   3.277 -0.1622  0.5700  0.4681
  125SOPE   H4X13395   4.144   3.478   3.224  2.1182  0.2040  3.4638
  125SOPE   H4Y13396   4.086   3.320   3.264  1.4624  0.9072  0.6998
  125SOPE   C3513397   4.057   3.471   3.426 -0.2471  0.1473 -0.7702
  125SOPE   H5X13398   4.017   3.573   3.440  0.0116  0.0286  1.1338
  125SOPE   H5Y13399   4.159   3.476   3.470 -0.3159  2.4775 -0.7734
  125SOPE   C3613400   3.994   3.369   3.529  0.1079  0.5052 -0.6400
  125SOPE   H6X13401   4.023   3.264   3.505 -0.1473  0.5025 -0.9376
  125SOPE   H6Y13402   3.883   3.373   3.539 -0.0108 -0.6368 -1.3067
  125SOPE   C3713403   4.033   3.402   3.674 -0.2371 -0.2746 -0.2942
  125SOPE   H7X13404   4.006   3.508   3.693 -0.9699 -0.5262  0.0929
  125SOPE   H7Y13405   4.141   3.391   3.699 -0.0492  0.2770 -0.8251
  125SOPE   C3813406   3.948   3.311   3.770 -0.4091 -0.1623  0.3653
  125SOPE   H8X13407   3.958   3.205   3.740 -0.0027 -0.2664  0.8526
  125SOPE   H8Y13408   3.840   3.336   3.757 -0.2916 -0.1200 -0.6332
  125SOPE   C3913409   3.990   3.334   3.914  0.3303  0.3126 -0.2186
  125SOPE   H9X13410   3.984   3.443   3.931  1.9715  0.3925  0.0405
  125SOPE   H9Y13411   4.092   3.298   3.939  0.2041  0.9498  1.2790
  125SOPE  C31013412   3.905   3.254   4.016 -0.2806 -1.0022 -0.0847
  125SOPE  H10X13413   3.899   3.147   3.986  0.8530 -0.4491 -2.5199
  125SOPE  H10Y13414   3.802   3.295   4.011 -0.8512 -2.1810  1.4550
  125SOPE  C31113415   3.957   3.259   4.162 -0.0326 -0.5374  0.4858
  125SOPE  H11X13416   3.978   3.364   4.191 -1.0921 -0.2241  0.1346
  125SOPE  H11Y13417   4.051   3.202   4.179  0.2246  0.3789  2.5395
  125SOPE  C31213418   3.855   3.204   4.264 -0.8107  0.2041  0.1950
  125SOPE  H12X13419   3.833   3.101   4.229 -1.5739 -0.5920  2.8032
  125SOPE  H12Y13420   3.766   3.270   4.258  0.2109  1.5011 -1.8687
  125SOPE  C31313421   3.911   3.200   4.408 -0.0372 -0.8731 -0.2470
  125SOPE  H13X13422   3.853   3.284   4.453 -1.4345 -1.6858 -0.4740
  125SOPE  H13Y13423   4.021   3.212   4.408 -0.3042  2.7734 -1.2718
  125SOPE  C31413424   3.864   3.081   4.494  0.3362 -0.4253 -0.2841
  125SOPE  H14X13425   3.753   3.084   4.492  0.3050 -0.8941  0.3849
  125SOPE  H14Y13426   3.897   3.105   4.598 -2.2988 -0.7589  0.6985
  125SOPE  C31513427   3.922   2.947   4.459  0.6152 -0.7594  0.5609
  125SOPE  H15X13428   4.025   2.974   4.428 -0.5451 -0.8882 -4.2320
  125SOPE  H15Y13429   3.868   2.917   4.367  0.2427 -0.0826  0.5567
  125SOPE  C31613430   3.895   2.840   4.557 -0.0561  0.4801 -0.4219
  125SOPE  H16X13431   3.785   2.831   4.569 -0.2423  3.4886  0.8420
  125SOPE  H16Y13432   3.942   2.869   4.653  1.5008  1.0703 -1.3103
  125SOPE  C31713433   3.936   2.698   4.504 -0.1368  0.2529  0.6555
  125SOPE  H17X13434   4.038   2.704   4.461 -1.0295  2.0778 -1.3698
  125SOPE  H17Y13435   3.871   2.674   4.417  0.1518 -0.1989  0.5581
  125SOPE  C31813436   3.939   2.588   4.610 -0.0754 -0.0472 -0.1516
  125SOPE  H18X13437   3.986   2.507   4.550 -0.9803 -1.1508  0.5841
  125SOPE  H18Y13438   3.836   2.554   4.637 -0.1949  1.4992  1.4996
  125SOPE  H18Z13439   4.001   2.614   4.699  2.5653  0.7944 -2.1185
  126SOPE     N13440   3.599   5.830   2.551  0.1396 -0.1517 -0.1501
  126SOPE   HN113441   3.503   5.796   2.569  1.1493 -2.7598  0.8098
  126SOPE   HN213442   3.626   5.916   2.604  2.2954 -0.6055 -0.4265
  126SOPE   HN313443   3.618   5.843   2.450  2.0567 -0.5245  0.1241
  126SOPE   C1213444   3.703   5.734   2.613 -0.4477 -0.7658  0.6099
  126SOPE  H12A13445   3.798   5.791   2.614 -1.0264  0.2296  0.1406
  126SOPE  H12B13446   3.717   5.645   2.548 -0.2296  0.3041 -0.8422
  126SOPE   C1113447   3.662   5.680   2.753  0.2169 -0.3918  0.2636
  126SOPE  H11A13448   3.665   5.764   2.826  2.9163 -1.1939  1.1917
  126SOPE  H11B13449   3.749   5.621   2.790 -1.5704 -1.4876  3.0376
  126SOPE     P13450   3.406   5.645   2.786 -0.0173  0.0423  0.1594
  126SOPE   O1313451   3.320   5.530   2.813 -0.2147 -0.3813 -0.0006
  126SOPE   O1413452   3.362   5.744   2.683 -0.2070  0.2361 -0.1491
  126SOPE   O1213453   3.546   5.597   2.755 -0.3901 -0.4258  0.2960
  126SOPE   O1113454   3.430   5.729   2.920  0.2142  0.0239  0.0995
  126SOPE    C113455   3.458   5.650   3.037 -0.3490 -0.2850 -0.7999
  126SOPE    HA13456   3.566   5.623   3.039 -0.3457 -0.2536  1.1062
  126SOPE    HB13457   3.393   5.560   3.038 -2.9367  1.4803  0.2897
  126SOPE    C213458   3.420   5.734   3.163 -0.7166 -0.1067 -0.4855
  126SOPE    HS13459   3.452   5.678   3.253 -0.8948 -0.6968 -0.7837
  126SOPE   O2113460   3.285   5.790   3.186  0.0774  0.3589  0.6090
  126SOPE   C2113461   3.197   5.701   3.220  0.7583  0.9828 -0.2189
  126SOPE   O2213462   3.222   5.582   3.225  0.3713  0.1404 -0.3058
  126SOPE   C2213463   3.060   5.779   3.235 -0.1516  1.0575 -0.6007
  126SOPE   H2R13464   2.999   5.754   3.145 -0.5846 -3.5281  0.7207
  126SOPE   H2S13465   3.080   5.888   3.231  0.2390  1.0997  1.4062
  126SOPE    C313466   3.505   5.860   3.168  0.0453 -0.4453 -0.0043
  126SOPE    HX13467   3.459   5.934   3.100 -3.3192 -1.5974  0.8544
  126SOPE    HY13468   3.601   5.835   3.118 -0.3754 -1.0165 -0.5415
  126SOPE   O3113469   3.521   5.897   3.304 -0.3464 -0.6303  0.2701
  126SOPE   C3113470   3.428   5.989   3.345 -0.1125  0.3607  0.5347
  126SOPE   O3213471   3.345   6.036   3.273  0.2507 -0.7624  0.0024
  126SOPE   C3213472   3.460   6.031   3.495 -0.1825 -0.1387  0.6679
  126SOPE   H2X13473   3.394   6.112   3.534 -0.8204 -0.8360  1.0643
  126SOPE   H2Y13474   3.563   6.069   3.482 -0.1241 -0.8355 -1.1358
  126SOPE   C2313475   2.981   5.732   3.354  0.4921 -0.2381 -1.0440
  126SOPE   H3R13476   2.913   5.818   3.373  2.6969  1.5634 -0.9889
  126SOPE   H3S13477   3.046   5.724   3.444  0.2731 -0.4889 -0.9034
  126SOPE   C2413478   2.897   5.607   3.325  0.5252  0.0744 -0.3746
  126SOPE   H4R13479   2.842   5.624   3.230  2.7402 -1.3700 -2.0137
  126SOPE   H4S13480   2.970   5.528   3.298 -0.0712 -0.4367 -0.5181
  126SOPE   C2513481   2.797   5.571   3.433  0.2575 -0.0226 -0.3420
  126SOPE   H5R13482   2.707   5.636   3.441  0.1210 -0.1965 -0.4717
  126SOPE   H5S13483   2.773   5.464   3.413 -0.5073 -0.2945  1.7959
  126SOPE   C2613484   2.863   5.557   3.580  0.8168  0.3328 -0.6742
  126SOPE   H6R13485   2.949   5.489   3.567 -0.3815 -1.9360  2.1804
  126SOPE   H6S13486   2.914   5.651   3.611  1.8201  0.0974 -1.5522
  126SOPE   C2713487   2.767   5.507   3.688  0.2952 -0.2517  0.4709
  126SOPE   H7R13488   2.680   5.574   3.707  0.2362 -0.1642 -0.0859
  126SOPE   H7S13489   2.749   5.401   3.659  0.6584  0.0807 -1.0426
  126SOPE   C2813490   2.840   5.503   3.825  0.3245 -0.6209 -0.5253
  126SOPE   H8R13491   2.924   5.430   3.833  0.4323 -0.3375  1.7820
  126SOPE   H8S13492   2.886   5.603   3.839 -0.9106 -0.1769  0.6225
  126SOPE   C2913493   2.760   5.475   3.947  0.1341  0.6871  0.5829
  126SOPE   H9113494   2.664   5.425   3.924 -1.4642  2.9998  1.8293
  126SOPE  C21013495   2.788   5.522   4.072  0.5005  1.1048 -0.2446
  126SOPE  H10113496   2.711   5.511   4.150 -0.3848 -0.5775 -1.2929
  126SOPE  C21113497   2.905   5.602   4.112 -0.0097 -0.1984 -0.1532
  126SOPE  H11R13498   2.875   5.707   4.093  1.0191 -0.1164 -1.4161
  126SOPE  H11S13499   3.001   5.571   4.066  0.3712  0.6454  0.0534
  126SOPE  C21213500   2.942   5.594   4.258 -0.2782 -0.4351 -0.2123
  126SOPE  H12R13501   3.043   5.638   4.274  0.2629 -2.6832  3.7384
  126SOPE  H12S13502   2.955   5.486   4.277  0.6184  0.0268  2.1318
  126SOPE  C21313503   2.841   5.671   4.343  0.4844  0.2450  0.1921
  126SOPE  H13R13504   2.736   5.645   4.317  1.2142 -0.7998 -1.9953
  126SOPE  H13S13505   2.855   5.779   4.319 -0.6596  0.2132 -0.6904
  126SOPE  C21413506   2.862   5.665   4.498 -0.6700 -0.2756  0.6738
  126SOPE  H14R13507   2.762   5.683   4.543 -2.2833  0.2030 -2.7499
  126SOPE  H14S13508   2.921   5.754   4.526  1.1979 -1.9411  2.3097
  126SOPE  C21513509   2.925   5.537   4.561  0.2483 -0.3934 -0.3559
  126SOPE  H15R13510   3.018   5.517   4.503  0.2621 -0.7389 -0.2186
  126SOPE  H15S13511   2.860   5.448   4.544  0.6234 -0.4110 -1.8688
  126SOPE  C21613512   2.951   5.549   4.710 -1.1453 -0.3025  0.1391
  126SOPE  H16R13513   2.874   5.611   4.760 -0.0531 -1.2670  3.2247
  126SOPE  H16S13514   3.052   5.592   4.725 -1.3137 -0.5275  2.2408
  126SOPE  C21713515   2.919   5.411   4.771  0.2565 -0.3205  0.4773
  126SOPE  H17R13516   2.986   5.336   4.725 -0.1385  0.2694 -1.1054
  126SOPE  H17S13517   2.814   5.382   4.751  0.9085 -2.0142 -0.7350
  126SOPE  C21813518   2.943   5.410   4.927  0.1017 -0.1947 -0.3545
  126SOPE  H18R13519   2.901   5.315   4.965 -0.7293  0.6380  0.8622
  126SOPE  H18S13520   2.884   5.482   4.987 -0.6025 -2.2283  1.4837
  126SOPE  H18T13521   3.052   5.400   4.944  0.0191  1.6285  1.8150
  126SOPE   C3313522   3.457   5.921   3.597  0.4693  1.0860 -0.8121
  126SOPE   H3X13523   3.510   5.833   3.555  0.5368  0.8075 -0.1568
  126SOPE   H3Y13524   3.355   5.879   3.612  0.0458  1.8254 -1.4943
  126SOPE   C3413525   3.511   5.967   3.733  0.0377  0.0751  0.8712
  126SOPE   H4X13526   3.441   6.034   3.788 -1.0471  0.7080 -1.2001
  126SOPE   H4Y13527   3.610   6.017   3.727  0.6789 -1.3456 -1.8717
  126SOPE   C3513528   3.527   5.839   3.822 -0.4840 -0.1300 -1.0699
  126SOPE   H5X13529   3.548   5.753   3.755  2.6181  0.2492 -0.7270
  126SOPE   H5Y13530   3.434   5.830   3.882  0.5198  0.3126  0.6010
  126SOPE   C3613531   3.649   5.849   3.919 -0.3953  0.1274  0.1353
  126SOPE   H6X13532   3.738   5.868   3.855  0.9048  0.2864  1.9356
  126SOPE   H6Y13533   3.673   5.753   3.969  2.1809 -0.1378 -1.4063
  126SOPE   C3713534   3.644   5.951   4.038 -0.4721  0.2214  0.6284
  126SOPE   H7X13535   3.617   6.049   3.994  2.9873  0.3056 -1.6022
  126SOPE   H7Y13536   3.741   5.961   4.090  1.0806 -0.4730 -1.9831
  126SOPE   C3813537   3.529   5.931   4.139 -0.5838 -0.0862  0.3122
  126SOPE   H8X13538   3.438   5.894   4.087 -0.4457 -1.1598  0.7972
  126SOPE   H8Y13539   3.499   6.030   4.180  1.9445  0.6880  0.4702
  126SOPE   C3913540   3.560   5.825   4.245 -0.3908 -0.1705  0.1353
  126SOPE   H9X13541   3.580   5.730   4.192 -2.9046 -0.4301 -0.4466
  126SOPE   H9Y13542   3.471   5.824   4.311 -1.0176  1.4287 -0.6392
  126SOPE  C31013543   3.687   5.848   4.330 -0.1084  0.1529  0.4246
  126SOPE  H10X13544   3.681   5.949   4.378  2.1441  0.9259 -0.7450
  126SOPE  H10Y13545   3.777   5.852   4.265 -1.5540  0.3579 -1.6493
  126SOPE  C31113546   3.708   5.740   4.434 -0.0111  0.2977 -0.5433
  126SOPE  H11X13547   3.720   5.640   4.387  3.6035  0.8266 -1.0592
  126SOPE  H11Y13548   3.623   5.725   4.504  0.4619 -0.4090 -0.0972
  126SOPE  C31213549   3.830   5.773   4.520  0.7264  0.4394  0.0556
  126SOPE  H12X13550   3.808   5.867   4.575  0.3747  0.1021  0.4937
  126SOPE  H12Y13551   3.916   5.799   4.455 -0.0783  1.5557 -0.5885
  126SOPE  C31313552   3.887   5.656   4.614  0.4284 -0.3919 -0.4519
  126SOPE  H13X13553   3.985   5.688   4.656  0.9316 -2.2410 -0.1411
  126SOPE  H13Y13554   3.907   5.571   4.546  0.7910  1.0341 -2.2147
  126SOPE  C31413555   3.799   5.615   4.737 -0.0216  0.2129  0.0715
  126SOPE  H14X13556   3.700   5.581   4.699  0.7016 -0.2846 -1.4321
  126SOPE  H14Y13557   3.784   5.705   4.801 -0.9592 -0.4655  0.8374
  126SOPE  C31513558   3.849   5.509   4.834 -0.9338  0.3062  0.2128
  126SOPE  H15X13559   3.789   5.503   4.927  1.6810  0.8387  2.0591
  126SOPE  H15Y13560   3.953   5.531   4.867 -1.8423  2.0897  2.1196
  126SOPE  C31613561   3.844   5.371   4.764 -0.4170  0.3771 -0.3964
  126SOPE  H16X13562   3.894   5.383   4.666 -0.8639  0.3872 -0.6294
  126SOPE  H16Y13563   3.736   5.350   4.744 -0.5438 -0.5408  1.0859
  126SOPE  C31713564   3.903   5.271   4.850  0.4860  0.2344  0.0955
  126SOPE  H17X13565   4.007   5.301   4.875 -0.2175  1.1093  2.1134
  126SOPE  H17Y13566   3.908   5.177   4.790  1.6881  1.2926 -1.5560
  126SOPE  C31813567   3.826   5.251   4.977 -0.4497  0.8097  0.0905
  126SOPE  H18X13568   3.845   5.153   5.028 -0.3852  0.7482 -0.0516
  126SOPE  H18Y13569   3.716   5.256   4.962 -0.3667  0.1943 -0.7884
  126SOPE  H18Z13570   3.851   5.333   5.048 -0.6471  0.0244  1.1046
  127SOPE     N13571   4.634   6.046   2.624  0.3335 -0.3218 -0.0003
  127SOPE   HN113572   4.554   6.102   2.659  2.3240  0.9528  2.8837
  127SOPE   HN213573   4.725   6.092   2.642 -0.1124  0.4934  0.1994
  127SOPE   HN313574   4.623   6.044   2.521 -3.0719 -2.6894  0.2438
  127SOPE   C1213575   4.631   5.910   2.686  0.1552  0.2943  0.5739
  127SOPE  H12A13576   4.669   5.919   2.790 -2.0474  1.0380  1.3849
  127SOPE  H12B13577   4.701   5.841   2.635  1.8620 -0.1094  3.2677
  127SOPE   C1113578   4.496   5.854   2.699  0.1227 -0.0011 -0.1223
  127SOPE  H11A13579   4.504   5.754   2.747  0.8487  0.7692  1.4349
  127SOPE  H11B13580   4.455   5.828   2.599 -3.3770  0.2247  1.1265
  127SOPE     P13581   4.371   5.912   2.920  0.4333  0.0784  0.1134
  127SOPE   O1313582   4.240   5.839   2.924  0.0354  0.6082 -0.0804
  127SOPE   O1413583   4.365   6.046   2.990  0.1373 -0.2875  0.0348
  127SOPE   O1213584   4.413   5.945   2.766 -0.4043  0.0310  0.0444
  127SOPE   O1113585   4.489   5.832   2.991 -0.1314 -0.6529  0.2175
  127SOPE    C113586   4.494   5.686   2.996  0.2825  0.1510 -0.3749
  127SOPE    HA13587   4.589   5.649   2.951  0.8668  0.1457  0.8093
  127SOPE    HB13588   4.409   5.640   2.941 -2.0086  1.2730  2.0141
  127SOPE    C213589   4.466   5.630   3.134 -0.3452 -0.0047 -0.6011
  127SOPE    HS13590   4.356   5.631   3.155 -0.7898 -5.5779 -1.3026
  127SOPE   O2113591   4.548   5.708   3.229  0.3463  0.5314 -0.2344
  127SOPE   C2113592   4.483   5.776   3.323  0.4887  0.2214  0.8183
  127SOPE   O2213593   4.363   5.791   3.329  0.4008 -0.2262 -0.5521
  127SOPE   C2213594   4.585   5.851   3.410  0.0980 -0.2116 -0.4530
  127SOPE   H2R13595   4.627   5.934   3.350  1.2845  0.7037  1.5445
  127SOPE   H2S13596   4.670   5.783   3.431  0.2809  0.6819  2.1134
  127SOPE    C313597   4.516   5.482   3.140  0.1999 -0.0447  0.2142
  127SOPE    HX13598   4.624   5.483   3.115 -0.1118 -0.1075 -1.2420
  127SOPE    HY13599   4.461   5.427   3.060 -0.2963 -1.9620  1.7979
  127SOPE   O3113600   4.491   5.420   3.276  0.1545 -0.3224  0.6559
  127SOPE   C3113601   4.363   5.370   3.289  0.3640 -0.1829 -0.3002
  127SOPE   O3213602   4.288   5.348   3.197  0.3647 -0.4253 -0.4506
  127SOPE   C3213603   4.331   5.345   3.441  0.2612 -0.2465 -0.0664
  127SOPE   H2X13604   4.405   5.268   3.471  3.9797  2.3850 -1.6943
  127SOPE   H2Y13605   4.227   5.307   3.432  0.7522 -1.7417  0.2300
  127SOPE   C2313606   4.532   5.895   3.548 -0.3630 -0.3462  0.3498
  127SOPE   H3R13607   4.439   5.955   3.535  0.4392  0.4654 -2.3711
  127SOPE   H3S13608   4.607   5.969   3.583 -1.4800  0.7115  0.6019
  127SOPE   C2413609   4.513   5.784   3.647  0.3930  0.3466  0.2040
  127SOPE   H4R13610   4.429   5.720   3.613  1.1069 -1.0458  0.9670
  127SOPE   H4S13611   4.604   5.722   3.630 -0.2030 -0.3357 -0.6019
  127SOPE   C2513612   4.499   5.853   3.783 -0.2519  0.6075  0.0432
  127SOPE   H5R13613   4.564   5.943   3.796 -2.9777  2.5853  0.7754
  127SOPE   H5S13614   4.394   5.888   3.787 -1.1086 -1.7616 -0.1336
  127SOPE   C2613615   4.528   5.745   3.893  0.3270  0.5489  0.0355
  127SOPE   H6R13616   4.439   5.678   3.893 -0.2737  1.3402  0.0744
  127SOPE   H6S13617   4.621   5.692   3.863  1.6678  2.8677 -0.1338
  127SOPE   C2713618   4.546   5.821   4.026  0.2516  0.2360  0.3327
  127SOPE   H7R13619   4.623   5.899   4.009 -0.1834  0.0437 -3.3585
  127SOPE   H7S13620   4.449   5.869   4.054  0.4162 -0.2211  1.7431
  127SOPE   C2813621   4.599   5.730   4.147  0.9030  0.0102 -0.9054
  127SOPE   H8R13622   4.699   5.687   4.127  1.6650  0.9971  0.5314
  127SOPE   H8S13623   4.616   5.794   4.236 -1.9062 -0.5175  0.1198
  127SOPE   C2913624   4.494   5.620   4.182  0.0605  0.0213 -0.2880
  127SOPE   H9113625   4.388   5.648   4.177 -0.3499 -1.6208 -1.9114
  127SOPE  C21013626   4.522   5.491   4.208 -0.1793  0.3030 -0.5005
  127SOPE  H10113627   4.444   5.423   4.245  0.6805 -0.3937  0.0681
  127SOPE  C21113628   4.658   5.426   4.206 -0.0756 -0.7722 -0.2427
  127SOPE  H11R13629   4.744   5.491   4.179  1.0730 -1.1936  2.2077
  127SOPE  H11S13630   4.656   5.344   4.130  1.7840 -1.2080  0.1289
  127SOPE  C21213631   4.700   5.365   4.340  0.0124 -0.8813 -0.1331
  127SOPE  H12R13632   4.806   5.337   4.326  0.2622  0.5576 -1.4088
  127SOPE  H12S13633   4.640   5.272   4.350  1.1000 -1.4813  1.1523
  127SOPE  C21313634   4.716   5.456   4.473  0.6724  0.4693  0.9235
  127SOPE  H13R13635   4.758   5.400   4.560  1.2827 -1.0398 -0.2995
  127SOPE  H13S13636   4.618   5.503   4.497  0.6775 -0.3136  2.6581
  127SOPE  C21413637   4.809   5.566   4.446  0.1305  0.3414 -0.0827
  127SOPE  H14R13638   4.759   5.632   4.372 -0.2656 -0.2969 -0.3870
  127SOPE  H14S13639   4.897   5.513   4.405 -0.2784 -0.1746 -0.2966
  127SOPE  C21513640   4.833   5.651   4.573  0.2225  0.0396  0.4900
  127SOPE  H15R13641   4.903   5.604   4.646  2.0530  1.3692 -0.3152
  127SOPE  H15S13642   4.734   5.651   4.622 -0.6392  1.4200 -1.1869
  127SOPE  C21613643   4.895   5.789   4.545 -0.1691  0.3618 -0.1852
  127SOPE  H16R13644   4.847   5.827   4.452  1.1327 -1.1173 -1.5238
  127SOPE  H16S13645   5.003   5.778   4.521 -0.3836 -1.9913 -0.3173
  127SOPE  C21713646   4.871   5.893   4.655  0.0593  0.0477  0.1980
  127SOPE  H17R13647   4.764   5.883   4.684 -0.6271 -0.2670 -2.1797
  127SOPE  H17S13648   4.896   5.995   4.618  0.9770 -0.7672 -1.5874
  127SOPE  C21813649   4.960   5.862   4.776 -0.2734 -0.0692 -0.2714
  127SOPE  H18R13650   5.066   5.891   4.759 -0.5907  2.0534  1.0368
  127SOPE  H18S13651   4.954   5.754   4.801 -2.4477  0.3229  1.1381
  127SOPE  H18T13652   4.918   5.926   4.856  0.6926 -1.0493  1.0656
  127SOPE   C3313653   4.346   5.475   3.519 -0.1101  0.1952  0.0966
  127SOPE   H3X13654   4.315   5.566   3.464 -1.4322 -0.1392  0.2439
  127SOPE   H3Y13655   4.453   5.501   3.528  0.9526 -3.7353  0.8042
  127SOPE   C3413656   4.285   5.459   3.658  0.0842  0.4427 -0.1880
  127SOPE   H4X13657   4.178   5.434   3.643  0.0283  1.1633 -1.0324
  127SOPE   H4Y13658   4.301   5.544   3.728  0.3414 -1.6848  2.5057
  127SOPE   C3513659   4.342   5.342   3.740 -0.5000  0.5101  0.4153
  127SOPE   H5X13660   4.451   5.342   3.718 -0.6447  0.5804 -0.3350
  127SOPE   H5Y13661   4.306   5.249   3.692 -2.4340  2.2833 -1.8209
  127SOPE   C3613662   4.327   5.343   3.884 -0.1358 -0.1332  0.0953
  127SOPE   H6X13663   4.220   5.337   3.915 -0.4579 -0.7158 -1.0474
  127SOPE   H6Y13664   4.384   5.428   3.926  3.4530 -2.3434  0.1082
  127SOPE   C3713665   4.390   5.221   3.957 -0.0788  0.2555  0.0955
  127SOPE   H7X13666   4.361   5.224   4.065 -2.0489  0.4635 -0.3852
  127SOPE   H7Y13667   4.500   5.224   3.944 -0.2022 -0.9251 -1.3804
  127SOPE   C3813668   4.354   5.076   3.913  0.1200  0.4716 -0.0965
  127SOPE   H8X13669   4.422   5.017   3.977  1.4296  1.4985 -0.4849
  127SOPE   H8Y13670   4.385   5.051   3.809  1.7500  1.0946  0.2141
  127SOPE   C3913671   4.203   5.037   3.938 -0.2446 -0.3050 -0.4890
  127SOPE   H9X13672   4.135   5.112   3.894 -0.2906  0.1131  0.2799
  127SOPE   H9Y13673   4.185   5.040   4.048 -2.9362 -0.3910 -0.8708
  127SOPE  C31013674   4.177   4.893   3.887 -0.1724  0.4091  0.2300
  127SOPE  H10X13675   4.223   4.809   3.942  1.3744  0.0264 -1.5468
  127SOPE  H10Y13676   4.215   4.882   3.783  0.3121 -1.8337  0.5815
  127SOPE  C31113677   4.029   4.859   3.878 -0.2891 -1.0892 -0.4607
  127SOPE  H11X13678   3.979   4.939   3.820  0.1914 -0.8233 -0.5153
  127SOPE  H11Y13679   3.994   4.855   3.983  1.2792 -2.2950  0.0585
  127SOPE  C31213680   3.998   4.722   3.812 -0.2249 -0.8159 -0.3330
  127SOPE  H12X13681   3.892   4.696   3.830  0.0610 -1.3939  0.5754
  127SOPE  H12Y13682   4.060   4.651   3.870  0.5826 -1.7580 -2.2779
  127SOPE  C31313683   4.034   4.704   3.664  1.0035  0.2534  0.1349
  127SOPE  H13X13684   4.143   4.724   3.658  1.0869 -0.1907  0.1285
  127SOPE  H13Y13685   3.970   4.772   3.604  3.1454  0.6563 -1.8206
  127SOPE  C31413686   4.011   4.564   3.616  0.0543  0.3407 -0.0575
  127SOPE  H14X13687   3.910   4.530   3.649 -0.0599  0.5039 -0.2361
  127SOPE  H14Y13688   4.081   4.499   3.671 -0.7078 -0.1061  0.4017
  127SOPE  C31513689   4.043   4.571   3.466  0.1970 -0.0429 -0.4280
  127SOPE  H15X13690   4.150   4.602   3.467  0.8071 -1.9770  0.8026
  127SOPE  H15Y13691   3.992   4.658   3.421  0.4380  0.0096 -0.5971
  127SOPE  C31613692   4.023   4.445   3.384 -0.6413  0.1786 -0.1197
  127SOPE  H16X13693   4.087   4.466   3.296 -1.2978  0.3654 -0.5533
  127SOPE  H16Y13694   3.918   4.424   3.356 -0.6435  1.0869 -0.8117
  127SOPE  C31713695   4.091   4.322   3.454  0.6058  0.5883  0.3445
  127SOPE  H17X13696   4.068   4.223   3.409  0.7547 -0.2375  2.0163
  127SOPE  H17Y13697   4.048   4.325   3.556  0.7482  0.7195  0.4010
  127SOPE  C31813698   4.247   4.337   3.455  0.6908 -0.3478 -0.7909
  127SOPE  H18X13699   4.280   4.424   3.516  0.0183 -0.7050  0.1070
  127SOPE  H18Y13700   4.299   4.351   3.358  2.1240  0.7968  0.1003
  127SOPE  H18Z13701   4.293   4.251   3.507  0.7151 -0.6270 -1.2666
  128SOPE     N13702   0.536   5.043   2.563  0.0720  0.0132 -0.0597
  128SOPE   HN113703   0.629   5.006   2.533 -0.4404 -1.4299  0.0336
  128SOPE   HN213704   0.456   5.003   2.510 -0.1937 -0.4184  0.6455
  128SOPE   HN313705   0.532   5.147   2.568 -2.2675 -0.0478  0.7154
  128SOPE   C1213706   0.527   4.988   2.700  0.9261 -0.0517 -0.1383
  128SOPE  H12A13707   0.560   4.882   2.703 -2.2037 -1.2754 -2.5265
  128SOPE  H12B13708   0.419   4.985   2.726 -0.1566  0.3300 -3.9163
  128SOPE   C1113709   0.591   5.081   2.798 -0.5912 -0.1107 -0.3122
  128SOPE  H11A13710   0.587   5.047   2.904 -0.9435  0.0115 -0.2840
  128SOPE  H11B13711   0.523   5.169   2.802  1.4202  1.5287 -0.2396
  128SOPE     P13712   0.758   5.258   2.694 -0.1398  0.1858 -0.0214
  128SOPE   O1313713   0.671   5.284   2.577 -0.3995  0.1580 -0.2613
  128SOPE   O1413714   0.900   5.251   2.669  0.1678  0.3025 -0.4260
  128SOPE   O1213715   0.723   5.113   2.758 -0.3419 -0.2003  0.3439
  128SOPE   O1113716   0.713   5.359   2.809 -0.3938  0.5140 -0.3145
  128SOPE    C113717   0.706   5.333   2.950  0.0781  0.1974 -0.2554
  128SOPE    HA13718   0.729   5.227   2.973  1.5188  0.1769 -1.6493
  128SOPE    HB13719   0.610   5.364   2.996  0.3741 -0.2385  0.6931
  128SOPE    C213720   0.813   5.401   3.041 -0.0339 -0.4784 -0.3771
  128SOPE    HS13721   0.802   5.511   3.040  1.1175 -0.1948  3.1801
  128SOPE   O2113722   0.937   5.355   2.991  1.0542 -0.2211  0.3860
  128SOPE   C2113723   1.009   5.450   2.926 -0.1789 -0.0745 -0.4884
  128SOPE   O2213724   0.965   5.560   2.892 -0.2367 -0.7356 -0.6980
  128SOPE   C2213725   1.147   5.397   2.887 -0.0896  0.2307  0.0653
  128SOPE   H2R13726   1.191   5.451   2.800  0.0840  1.7957  1.0842
  128SOPE   H2S13727   1.146   5.290   2.857  1.9710  0.2992 -0.4019
  128SOPE    C313728   0.792   5.364   3.197  0.1765  0.0119  0.2784
  128SOPE    HX13729   0.798   5.253   3.197 -2.1691 -0.2607 -2.9013
  128SOPE    HY13730   0.688   5.390   3.226  0.2213 -0.1587  0.5898
  128SOPE   O3113731   0.884   5.442   3.279  0.3658 -0.2613  0.4677
  128SOPE   C3113732   0.994   5.379   3.311  0.3362 -0.7642 -0.5508
  128SOPE   O3213733   1.025   5.267   3.275  0.0191  0.6767  0.3059
  128SOPE   C3213734   1.079   5.454   3.411  0.1376 -0.6203  0.4326
  128SOPE   H2X13735   1.161   5.502   3.353 -0.7454 -1.1261 -1.3037
  128SOPE   H2Y13736   1.126   5.393   3.492  0.7546 -0.1600  0.4250
  128SOPE   C2313737   1.250   5.412   2.998 -0.3289  0.9284 -0.3826
  128SOPE   H3R13738   1.348   5.390   2.949  0.0748 -0.0701  0.8320
  128SOPE   H3S13739   1.220   5.330   3.066 -1.1378  0.1638 -1.6224
  128SOPE   C2413740   1.274   5.545   3.061  0.6422  0.1033  1.1586
  128SOPE   H4R13741   1.308   5.613   2.980 -0.1424 -0.2098  0.5543
  128SOPE   H4S13742   1.180   5.591   3.100  0.8374  1.2247  0.3840
  128SOPE   C2513743   1.379   5.551   3.168  0.2970 -0.2211  0.3246
  128SOPE   H5R13744   1.336   5.503   3.258 -2.7927 -0.3123 -1.0709
  128SOPE   H5S13745   1.465   5.490   3.136 -0.1930 -0.7151 -0.0642
  128SOPE   C2613746   1.418   5.699   3.205  0.4093 -0.4587  0.0590
  128SOPE   H6R13747   1.454   5.751   3.113  1.1404 -0.4502  0.3409
  128SOPE   H6S13748   1.330   5.761   3.231  0.1009 -0.4267 -1.0185
  128SOPE   C2713749   1.525   5.708   3.316  0.4431  0.2960  0.5970
  128SOPE   H7R13750   1.615   5.651   3.282 -0.4253 -0.3466 -0.7091
  128SOPE   H7S13751   1.550   5.816   3.304  0.4926  0.1448 -0.8178
  128SOPE   C2813752   1.474   5.674   3.455  0.5834 -0.0833 -0.3184
  128SOPE   H8R13753   1.401   5.590   3.455  1.1011 -0.5434 -1.0162
  128SOPE   H8S13754   1.555   5.634   3.519 -0.5369  0.1899  1.3387
  128SOPE   C2913755   1.423   5.798   3.534 -0.0305  0.6536  0.4955
  128SOPE   H9113756   1.314   5.807   3.527 -0.0756 -0.7496 -2.6247
  128SOPE  C21013757   1.500   5.874   3.615  0.0968 -0.2234  0.2614
  128SOPE  H10113758   1.448   5.948   3.677 -3.1663 -1.7684 -0.4497
  128SOPE  C21113759   1.644   5.845   3.652  0.5071 -0.0442  0.0487
  128SOPE  H11R13760   1.701   5.939   3.665  2.0612 -0.2699 -3.7871
  128SOPE  H11S13761   1.692   5.791   3.568  2.1286  3.9102 -1.8364
  128SOPE  C21213762   1.651   5.772   3.787  0.0512  0.0388  0.3114
  128SOPE  H12R13763   1.758   5.752   3.809  0.0451  1.3820  1.7505
  128SOPE  H12S13764   1.598   5.676   3.771 -1.1139  0.6086  0.6220
  128SOPE  C21313765   1.580   5.844   3.902 -0.3022  0.6511  0.1928
  128SOPE  H13R13766   1.469   5.842   3.911 -0.2244  2.7722  4.2412
  128SOPE  H13S13767   1.601   5.952   3.888 -1.5127  0.7755 -0.8743
  128SOPE  C21413768   1.640   5.794   4.039 -0.3589  0.1553  0.3707
  128SOPE  H14R13769   1.750   5.785   4.026 -0.4467  1.4733 -1.9446
  128SOPE  H14S13770   1.605   5.690   4.057 -0.0513 -0.2478 -1.1666
  128SOPE  C21513771   1.616   5.886   4.149  0.5241  0.1772 -0.3285
  128SOPE  H15R13772   1.510   5.912   4.168  0.0484 -1.5027 -0.5431
  128SOPE  H15S13773   1.677   5.978   4.131  0.7468 -0.3109 -2.3306
  128SOPE  C21613774   1.681   5.825   4.280  0.3132  0.3251  0.8105
  128SOPE  H16R13775   1.783   5.785   4.261  0.5553  1.4384 -0.3731
  128SOPE  H16S13776   1.628   5.729   4.296 -0.0076  0.1821 -0.9101
  128SOPE  C21713777   1.683   5.925   4.400  0.8601 -0.6045 -0.1460
  128SOPE  H17R13778   1.581   5.969   4.407  0.0467 -2.4978  0.5440
  128SOPE  H17S13779   1.754   6.008   4.379  2.1352 -1.9418 -1.3378
  128SOPE  C21813780   1.725   5.854   4.535  0.6827  0.3644 -0.6229
  128SOPE  H18R13781   1.680   5.906   4.623 -1.6906  0.0855 -1.6004
  128SOPE  H18S13782   1.836   5.860   4.543  0.7450  0.9981 -1.7473
  128SOPE  H18T13783   1.689   5.750   4.541  1.9585 -0.1768 -1.7723
  128SOPE   C3313784   0.998   5.572   3.475  0.0195 -0.4092  0.0881
  128SOPE   H3X13785   0.898   5.535   3.506  0.5734 -0.9391  1.2858
  128SOPE   H3Y13786   0.980   5.651   3.398  1.0702 -0.8305 -0.6137
  128SOPE   C3413787   1.070   5.645   3.592 -0.2686 -0.0152  0.0010
  128SOPE   H4X13788   0.990   5.714   3.627 -0.0887 -0.2003  0.8011
  128SOPE   H4Y13789   1.150   5.709   3.549 -0.1056 -0.2719 -0.0773
  128SOPE   C3513790   1.123   5.563   3.713  0.4874  0.0681  0.5420
  128SOPE   H5X13791   1.204   5.500   3.671  0.2991  1.1216 -1.5548
  128SOPE   H5Y13792   1.038   5.500   3.746  1.0966 -0.0706  1.9256
  128SOPE   C3613793   1.161   5.649   3.835 -0.2276 -0.2731 -0.0942
  128SOPE   H6X13794   1.079   5.711   3.878 -0.3141 -0.0449 -0.5781
  128SOPE   H6Y13795   1.236   5.723   3.798 -0.2350 -0.5805 -0.7302
  128SOPE   C3713796   1.217   5.559   3.951  0.6388 -0.8748 -0.0885
  128SOPE   H7X13797   1.305   5.500   3.915  2.0761  0.9607  0.2808
  128SOPE   H7Y13798   1.146   5.477   3.975  1.7385 -1.3266  1.8162
  128SOPE   C3813799   1.251   5.636   4.083  0.3189  0.1196  0.1318
  128SOPE   H8X13800   1.159   5.685   4.123 -1.4468 -1.5458 -1.6858
  128SOPE   H8Y13801   1.332   5.705   4.051  2.0510 -0.9750  1.8501
  128SOPE   C3913802   1.314   5.542   4.190 -0.0928 -0.2114  0.7171
  128SOPE   H9X13803   1.415   5.518   4.150 -1.1879 -0.5535 -2.0339
  128SOPE   H9Y13804   1.246   5.455   4.206 -1.4194  0.7329  0.3606
  128SOPE  C31013805   1.341   5.620   4.314 -0.1457 -0.1875 -0.4206
  128SOPE  H10X13806   1.374   5.725   4.302 -2.1512  0.4045 -1.1721
  128SOPE  H10Y13807   1.415   5.566   4.377  0.6311  1.6209  0.2792
  128SOPE  C31113808   1.215   5.622   4.410 -0.0307 -0.3909 -0.2562
  128SOPE  H11X13809   1.173   5.519   4.416 -0.0649 -0.3933 -0.5290
  128SOPE  H11Y13810   1.132   5.674   4.359  0.9387  0.2534 -1.2046
  128SOPE  C31213811   1.237   5.683   4.551  0.4651  0.2961 -0.4629
  128SOPE  H12X13812   1.142   5.680   4.609  1.7242 -0.6970  1.7208
  128SOPE  H12Y13813   1.262   5.791   4.545  1.1848  0.1843  0.3714
  128SOPE  C31313814   1.343   5.613   4.643  0.7256  0.3658  0.1663
  128SOPE  H13X13815   1.448   5.628   4.610  1.1383 -1.5310  0.5196
  128SOPE  H13Y13816   1.321   5.504   4.638 -1.5658  0.8157 -0.9504
  128SOPE  C31413817   1.334   5.657   4.786 -0.2902  0.6985 -0.4331
  128SOPE  H14X13818   1.227   5.656   4.814 -0.0030 -1.8274  0.8919
  128SOPE  H14Y13819   1.373   5.760   4.804  1.0671  0.1781 -0.2169
  128SOPE  C31513820   1.420   5.568   4.881 -0.5764  0.2898 -0.2017
  128SOPE  H15X13821   1.528   5.574   4.859 -0.4267 -2.8447 -0.7814
  128SOPE  H15Y13822   1.396   5.461   4.865  1.1615 -0.0990 -0.3175
  128SOPE  C31613823   1.420   5.612   5.030  0.1703  0.2461 -0.1349
  128SOPE  H16X13824   1.319   5.591   5.071 -0.4016  0.9057 -1.1412
  128SOPE  H16Y13825   1.430   5.723   5.039  1.9175 -0.0516  2.4505
  128SOPE  C31713826   1.527   5.543   5.113 -0.1270 -0.4277  0.0941
  128SOPE  H17X13827   1.628   5.556   5.070 -0.5203  2.5540 -0.1205
  128SOPE  H17Y13828   1.509   5.434   5.100  3.5975 -0.9532 -1.9302
  128SOPE  C31813829   1.520   5.571   5.260  0.1910  0.3055 -0.8588
  128SOPE  H18X13830   1.603   5.530   5.321 -1.6777 -2.3660  0.0793
  128SOPE  H18Y13831   1.421   5.543   5.303  1.2189  0.4162  1.7889
  128SOPE  H18Z13832   1.508   5.680   5.277  2.7404  0.4372  0.4708
  129OSM      N13833   4.880   1.430   7.420  0.6121  0.3022  0.7271
  129OSM    C1513834   4.773   1.496   7.498  0.3043  0.1654 -0.0160
  129OSM   H15A13835   4.750   1.454   7.595 -1.8571  2.3041  0.5169
  129OSM   H15B13836   4.677   1.489   7.449 -0.4374  3.7216  0.6495
  129OSM   H15C13837   4.783   1.602   7.512 -1.7517  0.1801  1.9839
  129OSM    C1413838   4.889   1.489   7.282 -0.5253  0.7981 -0.6265
  129OSM   H14A13839   4.798   1.471   7.228 -0.2334 -0.7453 -0.6258
  129OSM   H14B13840   4.971   1.440   7.232  0.2413 -0.2077  1.4916
  129OSM   H14C13841   4.923   1.591   7.297 -1.3559  0.7402  2.2811
  129OSM    C1313842   5.012   1.449   7.500 -0.1161 -0.2445  0.5991
  129OSM   H13A13843   5.001   1.408   7.599 -3.3157  0.8063  0.7837
  129OSM   H13B13844   5.032   1.555   7.510  3.7298 -0.6623 -0.7443
  129OSM   H13C13845   5.094   1.417   7.438 -0.1429 -0.7100  0.7973
  129OSM    C1213846   4.839   1.287   7.411 -0.1811  0.3682  0.8188
  129OSM   H12A13847   4.847   1.251   7.513 -0.7160  2.1762  1.5501
  129OSM   H12B13848   4.917   1.240   7.354 -2.3342 -1.6974 -0.5925
  129OSM    C1113849   4.699   1.254   7.354 -0.3388  0.7291 -1.3736
  129OSM   H11A13850   4.700   1.147   7.324 -1.0774  0.9299 -2.1637
  129OSM   H11B13851   4.696   1.303   7.254 -0.3466 -1.2505 -2.3897
  129OSM      P13852   4.446   1.256   7.403 -0.1056 -0.0246 -0.0160
  129OSM    O1313853   4.420   1.108   7.408  0.7195  0.2498  0.5923
  129OSM    O1413854   4.350   1.345   7.473  0.0764  0.1645 -0.8614
  129OSM    O1113855   4.445   1.285   7.247 -0.6876 -0.0076 -0.2494
  129OSM    O1213856   4.592   1.286   7.445  0.0161 -0.1508  0.4753
  129OSM    C1S13857   4.430   1.421   7.198  0.6186 -0.2812  0.0318
  129OSM    H1S13858   4.492   1.498   7.249 -0.3894  0.8921 -0.4715
  129OSM    H1T13859   4.322   1.446   7.201  0.5908 -0.4764  1.3652
  129OSM     NF13860   4.482   1.535   6.978 -0.8021  0.6179  0.4583
  129OSM    HNF13861   4.402   1.569   6.930 -2.1296 -0.5251  1.7594
  129OSM    C2S13862   4.451   1.409   7.048  0.4469  0.9508  0.9525
  129OSM    H2S13863   4.539   1.344   7.027 -0.5573  0.4258 -2.2577
  129OSM    C3S13864   4.332   1.338   6.982 -0.3168  0.7159  0.1533
  129OSM    H3S13865   4.246   1.408   6.997 -2.2687 -0.9522 -2.3940
  129OSM     O313866   4.290   1.213   7.044  0.0830 -0.1324  0.2466
  129OSM    HO313867   4.331   1.218   7.131 -1.3622  0.4257  0.9346
  129OSM    C4S13868   4.350   1.324   6.836 -0.2041 -0.1601  0.1588
  129OSM    H4S13869   4.320   1.411   6.776  2.5713  1.6978  1.2406
  129OSM    C5S13870   4.390   1.217   6.768 -0.4595  0.7713 -0.2423
  129OSM    H5S13871   4.405   1.123   6.823 -2.1722  0.6419  0.0721
  129OSM    C6S13872   4.393   1.197   6.624  0.1100  0.0958 -0.2893
  129OSM    H6S13873   4.349   1.097   6.604  1.1738 -0.7293  1.3240
  129OSM    H6T13874   4.497   1.188   6.584 -0.0725  1.0156 -1.0271
  129OSM    C7S13875   4.329   1.305   6.530  0.4762  0.5424  0.3150
  129OSM    H7S13876   4.396   1.393   6.522 -0.5500  1.4023  1.0309
  129OSM    H7T13877   4.232   1.336   6.573  0.0895  0.0062 -0.1578
  129OSM    C8S13878   4.298   1.232   6.398  0.1547  0.0955  0.0942
  129OSM    H8S13879   4.224   1.149   6.406  1.7259 -1.4651 -0.7471
  129OSM    H8T13880   4.390   1.184   6.356  0.5264  0.9768 -0.1145
  129OSM    C9S13881   4.252   1.319   6.279  0.5032 -0.9941  0.2543
  129OSM    H9S13882   4.335   1.392   6.265  0.1546 -0.7409 -0.5355
  129OSM    H9T13883   4.166   1.382   6.309 -0.2701 -2.0955  0.3862
  129OSM   C10S13884   4.229   1.240   6.146 -0.7767  0.1896 -0.3105
  129OSM   H10S13885   4.146   1.168   6.163 -1.1424  0.5590 -0.5033
  129OSM   H10T13886   4.318   1.184   6.113 -2.3068 -1.5476 -1.6562
  129OSM   C11S13887   4.179   1.343   6.045  0.1967  0.0556 -0.0384
  129OSM   H11S13888   4.235   1.438   6.057 -0.6004  0.3669  1.4698
  129OSM   H11T13889   4.070   1.359   6.059 -0.0837 -2.1638  0.8394
  129OSM   C12S13890   4.189   1.286   5.900  0.0085  0.0243  0.8249
  129OSM   H12S13891   4.123   1.197   5.900 -0.3719  0.3070  0.4018
  129OSM   H12T13892   4.295   1.264   5.875 -0.7495 -2.0248 -0.8779
  129OSM   C13S13893   4.138   1.393   5.797 -0.7874 -0.0282  0.3359
  129OSM   H13S13894   4.184   1.489   5.828  0.3667 -0.8567  1.2528
  129OSM   H13T13895   4.028   1.403   5.807 -0.7729 -0.5631  1.1385
  129OSM   C14S13896   4.150   1.354   5.646 -0.4888  0.0655 -0.0025
  129OSM   H14S13897   4.107   1.253   5.633 -0.6889  0.3585 -2.0293
  129OSM   H14T13898   4.254   1.354   5.608 -0.8792  1.3980 -1.1800
  129OSM   C15S13899   4.053   1.444   5.563 -0.3449 -0.6487  0.2304
  129OSM   H15S13900   4.073   1.548   5.598 -2.1689 -0.3088  0.3688
  129OSM   H15T13901   3.948   1.421   5.592 -0.1154 -0.2257  1.4622
  129OSM   C16S13902   4.062   1.419   5.411  0.5334  0.3276  0.3167
  129OSM   H16S13903   4.031   1.318   5.378 -0.5111  0.6861  0.1637
  129OSM   H16T13904   4.162   1.453   5.377 -0.2638  0.8990 -1.6129
  129OSM   C17S13905   3.969   1.515   5.333  0.3312 -0.1419  0.0467
  129OSM   H17S13906   3.988   1.532   5.225 -0.8526 -0.3748 -0.2094
  129OSM   H17T13907   3.986   1.619   5.370  3.9758 -0.7174  0.3554
  129OSM   C18S13908   3.820   1.477   5.347 -0.3579  0.2026 -0.5310
  129OSM   H18S13909   3.814   1.367   5.332  1.2060 -0.2071  1.4220
  129OSM   H18T13910   3.750   1.539   5.287  1.0729  1.2389 -1.2136
  129OSM   H18U13911   3.792   1.489   5.453 -1.9258 -1.2118 -0.7495
  129OSM    C1F13912   4.594   1.604   7.006 -0.8237  0.2893  0.3183
  129OSM     OF13913   4.662   1.586   7.105  0.8500 -0.9798  0.0965
  129OSM    C2F13914   4.615   1.719   6.914  0.5645 -0.4252  0.1527
  129OSM    H2F13915   4.603   1.815   6.970 -4.4740 -0.5667 -0.1548
  129OSM    H2G13916   4.538   1.713   6.834 -0.6481  0.6463  1.1881
  129OSM    C3F13917   4.749   1.706   6.835 -0.1382  0.0111 -0.3373
  129OSM    H3F13918   4.771   1.597   6.837 -1.5636 -0.4016 -2.9131
  129OSM    H3G13919   4.830   1.762   6.886 -2.3258  0.2567  3.2336
  129OSM    C4F13920   4.731   1.754   6.690 -0.5910  0.8614  0.0021
  129OSM    H4F13921   4.658   1.690   6.636 -1.0793  1.0630  0.4112
  129OSM    H4G13922   4.830   1.730   6.645 -0.5482  0.5937  0.2342
  129OSM    C5F13923   4.705   1.899   6.666 -0.4330 -0.7723  0.2920
  129OSM    H5F13924   4.794   1.949   6.710  0.7661 -2.0769 -0.6061
  129OSM    H5G13925   4.606   1.918   6.714 -0.5516  2.2292 -0.9317
  129OSM    C6F13926   4.707   1.941   6.518  0.0650 -0.2981  0.3091
  129OSM    H6F13927   4.640   1.875   6.460  2.0728 -2.0827 -0.0812
  129OSM    H6G13928   4.803   1.899   6.480  0.3656  0.7990 -0.1720
  129OSM    C7F13929   4.690   2.089   6.501  0.7503  0.6863 -0.1261
  129OSM    H7F13930   4.617   2.127   6.575  0.9723 -2.9043  2.1380
  129OSM    H7G13931   4.645   2.115   6.402 -1.6593  2.1992  1.2697
  129OSM    C8F13932   4.819   2.177   6.518  0.3329  0.4347  0.7167
  129OSM    H8F13933   4.896   2.139   6.447  0.1541  0.0236  0.7406
  129OSM    H8G13934   4.862   2.152   6.617 -1.4963 -1.1899  1.1496
  129OSM    C9F13935   4.804   2.328   6.509 -0.0906 -0.7628 -0.6373
  129OSM    H9F13936   4.743   2.363   6.594  1.2466  0.8424 -0.2891
  129OSM   C10F13937   4.840   2.411   6.415 -0.0580  0.0158 -0.2856
  129OSM   H10F13938   4.828   2.519   6.431  0.5515  0.4044 -2.2283
  129OSM   C11F13939   4.927   2.380   6.291 -0.1268 -0.0550 -0.6025
  129OSM   H11F13940   4.937   2.270   6.278 -1.9657  0.0177 -3.4270
  129OSM   H11G13941   5.024   2.432   6.300 -0.5087  0.4599  0.6731
  129OSM   C12F13942   4.859   2.437   6.163 -0.6438  0.1280  0.2263
  129OSM   H12F13943   4.835   2.544   6.180  1.3410  0.4744  1.0300
  129OSM   H12G13944   4.759   2.388   6.158 -1.5723  2.0100 -1.0456
  129OSM   C13F13945   4.935   2.423   6.031 -0.4771 -0.2627 -0.5799
  129OSM   H13F13946   4.966   2.318   6.013  1.4095  0.2128 -0.3750
  129OSM   H13G13947   5.034   2.472   6.039 -0.9188  0.4313  0.8926
  129OSM   C14F13948   4.857   2.474   5.921  0.2022  0.4281  0.3121
  129OSM   H14F13949   4.806   2.573   5.931  1.5624  1.6300 -3.1194
  129OSM   H14G13950   4.769   2.408   5.905  0.8670 -0.3979 -0.0052
  129OSM   C15F13951   4.938   2.478   5.794 -0.1330  0.0381  0.5412
  129OSM   H15F13952   4.963   2.372   5.772 -2.1437 -0.9643  2.6515
  129OSM   H15G13953   5.028   2.540   5.814  0.0370 -0.0213 -0.0220
  129OSM   C16F13954   4.855   2.545   5.686 -0.0278  0.0408  0.2808
  129OSM   H16F13955   4.841   2.654   5.701 -0.1000 -0.2286  2.4652
  129OSM   H16G13956   4.750   2.509   5.684  0.1527 -0.4818 -0.0467
  129OSM   C17F13957   4.919   2.538   5.545  0.5155 -0.8770  0.1077
  129OSM   H17F13958   5.028   2.561   5.554  0.2504  1.0862 -1.0076
  129OSM   H17G13959   4.879   2.626   5.490  0.1686 -1.7974 -1.1346
  129OSM   C18F13960   4.902   2.405   5.482 -0.1051 -0.2853  0.2768
  129OSM   H18F13961   4.958   2.417   5.386 -0.0640 -0.2195  0.3089
  129OSM   H18G13962   4.796   2.382   5.457 -0.4230  2.3282 -1.2233
  129OSM   H18H13963   4.947   2.316   5.530 -1.1839 -1.0886 -0.1570
  130OSM      N13964   6.493   4.106   7.473  0.5432  0.2652  0.4132
  130OSM    C1513965   6.593   4.169   7.573  0.3273 -0.1022  0.3372
  130OSM   H15A13966   6.666   4.217   7.509 -0.4480 -0.8886 -1.1795
  130OSM   H15B13967   6.643   4.095   7.634  1.0535  0.5706  0.5687
  130OSM   H15C13968   6.554   4.243   7.642  1.3785  1.6489 -0.8605
  130OSM    C1413969   6.572   4.028   7.372  0.2484 -0.5467  0.2477
  130OSM   H14A13970   6.608   3.935   7.412 -2.7833 -1.9249  0.0829
  130OSM   H14B13971   6.642   4.097   7.327 -1.0965  0.8377  0.2090
  130OSM   H14C13972   6.508   4.005   7.287  2.3856 -0.4032 -1.4831
  130OSM    C1313973   6.406   3.999   7.532 -0.1042  0.1864 -0.6716
  130OSM   H13A13974   6.344   4.039   7.611 -0.1749  0.1448 -0.7055
  130OSM   H13B13975   6.465   3.916   7.570 -0.4528  0.8938  1.5636
  130OSM   H13C13976   6.341   3.949   7.462 -1.2486  0.1431  0.3750
  130OSM    C1213977   6.412   4.212   7.404 -0.1139  0.2452 -0.4751
  130OSM   H12A13978   6.481   4.293   7.384  0.7841 -0.2972  0.3664
  130OSM   H12B13979   6.339   4.252   7.472  1.2255  0.7755  0.6991
  130OSM    C1113980   6.337   4.189   7.272  0.3247  0.5206 -0.7288
  130OSM   H11A13981   6.271   4.276   7.250 -0.5514 -0.2953 -1.3907
  130OSM   H11B13982   6.263   4.106   7.278 -0.4241  0.8245 -3.8917
  130OSM      P13983   6.505   4.287   7.096  0.4713 -0.2898  0.1708
  130OSM    O1313984   6.440   4.421   7.119 -0.1948  0.1994  0.0883
  130OSM    O1413985   6.644   4.268   7.138 -0.0579 -0.0809 -0.0343
  130OSM    O1113986   6.481   4.260   6.943 -0.7346 -0.1885  0.2209
  130OSM    O1213987   6.418   4.171   7.159 -0.2609 -0.0115  0.1285
  130OSM    C1S13988   6.346   4.212   6.902  0.5662 -0.3754 -0.1752
  130OSM    H1S13989   6.274   4.290   6.933  0.2815 -0.6216 -0.2127
  130OSM    H1T13990   6.318   4.122   6.960 -2.3256  1.3941  1.4240
  130OSM     NF13991   6.210   4.222   6.696  0.2768  0.8675 -0.0000
  130OSM    HNF13992   6.156   4.141   6.675 -1.9001  2.6918 -2.0990
  130OSM    C2S13993   6.342   4.197   6.746 -0.5402  0.5477  0.0467
  130OSM    H2S13994   6.404   4.283   6.712  2.1047 -0.9850  0.7556
  130OSM    C3S13995   6.411   4.070   6.704 -0.4813 -0.1690 -0.7157
  130OSM    H3S13996   6.346   3.981   6.718 -0.5317  0.1568  1.3888
  130OSM     O313997   6.523   4.030   6.783 -0.0300  0.6009  0.2556
  130OSM    HO313998   6.521   4.099   6.849 -3.5094  1.6434 -0.7098
  130OSM    C4S13999   6.444   4.078   6.550 -0.0223 -0.0515 -0.0794
  130OSM    H4S14000   6.363   4.043   6.484 -1.2259 -1.2778  1.9564
  130OSM    C5S14001   6.552   4.141   6.498  1.0660  0.5030  0.7208
  130OSM    H5S14002   6.627   4.181   6.568  1.3291 -1.2049  1.4655
  130OSM    C6S14003   6.578   4.159   6.347 -0.2203 -0.8906 -0.7782
  130OSM    H6S14004   6.597   4.056   6.309  0.0015 -1.0401 -0.2615
  130OSM    H6T14005   6.664   4.228   6.329 -0.4444 -0.4895 -0.3085
  130OSM    C7S14006   6.461   4.211   6.261 -0.0624  0.1757  0.5517
  130OSM    H7S14007   6.412   4.300   6.306 -0.5715  0.8847 -1.3294
  130OSM    H7T14008   6.386   4.129   6.260  2.2578 -2.0607 -0.1231
  130OSM    C8S14009   6.504   4.251   6.119  0.3436  0.6937 -0.1452
  130OSM    H8S14010   6.539   4.163   6.061  1.3221 -0.0262  1.4507
  130OSM    H8T14011   6.576   4.334   6.137  0.1495  0.6283  1.0492
  130OSM    C9S14012   6.397   4.316   6.026  0.1058  0.1331 -0.3376
  130OSM    H9S14013   6.350   4.403   6.078 -3.4182 -2.2229  0.8062
  130OSM    H9T14014   6.308   4.250   6.021 -0.8202  1.3371 -0.1826
  130OSM   C10S14015   6.449   4.352   5.887  0.3297 -0.2672  0.6506
  130OSM   H10S14016   6.478   4.266   5.824  0.8051  0.3993 -0.0611
  130OSM   H10T14017   6.527   4.430   5.880 -0.8560  1.0188  1.2410
  130OSM   C11S14018   6.336   4.426   5.803 -0.1280  0.7147 -0.6900
  130OSM   H11S14019   6.293   4.506   5.866  0.5876  1.3457 -0.9802
  130OSM   H11T14020   6.249   4.358   5.800 -0.7600  1.4854 -0.1499
  130OSM   C12S14021   6.381   4.473   5.666 -0.6984 -0.1577 -0.4266
  130OSM   H12S14022   6.428   4.385   5.617 -1.3929 -0.1292 -1.1624
  130OSM   H12T14023   6.471   4.533   5.690  0.7244 -3.2702  3.1704
  130OSM   C13S14024   6.277   4.530   5.580 -0.0275 -0.4107 -0.0865
  130OSM   H13S14025   6.184   4.475   5.607 -1.6495  2.0390 -0.4520
  130OSM   H13T14026   6.288   4.504   5.473 -1.0879 -3.4526  0.4458
  130OSM   C14S14027   6.267   4.685   5.597 -0.3723 -0.1498 -0.1550
  130OSM   H14S14028   6.366   4.726   5.568 -0.0274 -1.2559 -0.6018
  130OSM   H14T14029   6.261   4.712   5.704  0.6171  0.4533 -0.2364
  130OSM   C15S14030   6.152   4.750   5.512  0.2498  0.8523  0.0872
  130OSM   H15S14031   6.137   4.851   5.557  1.8717  0.0468  2.6883
  130OSM   H15T14032   6.053   4.700   5.511  0.9608 -0.6156 -1.4066
  130OSM   C16S14033   6.196   4.774   5.362  0.3021  0.5837 -0.5034
  130OSM   H16S14034   6.200   4.671   5.320 -1.5698  0.5685 -0.7511
  130OSM   H16T14035   6.299   4.815   5.371  1.0296 -0.7976 -1.9999
  130OSM   C17S14036   6.098   4.855   5.276 -0.0232  0.1514  0.3675
  130OSM   H17S14037   6.071   4.946   5.334  0.0165  0.8010 -0.6036
  130OSM   H17T14038   6.005   4.797   5.260  0.5388 -0.6992  0.1510
  130OSM   C18S14039   6.159   4.888   5.141  0.7646 -0.2390 -0.7355
  130OSM   H18S14040   6.161   4.810   5.061  0.2332 -0.8343 -0.1781
  130OSM   H18T14041   6.264   4.924   5.155  0.9927 -0.5598 -1.5531
  130OSM   H18U14042   6.106   4.974   5.097 -0.4099 -0.0009  1.0669
  130OSM    C1F14043   6.148   4.340   6.689  0.5611 -0.1449  0.2849
  130OSM     OF14044   6.203   4.441   6.728  0.4206 -0.2039  0.1628
  130OSM    C2F14045   6.013   4.350   6.624 -0.5540  0.4720 -0.6886
  130OSM    H2F14046   5.938   4.391   6.695 -0.5560 -1.0626  0.2541
  130OSM    H2G14047   5.987   4.248   6.587  0.8856 -1.1284  2.3508
  130OSM    C3F14048   6.016   4.452   6.503 -0.6141  0.5867  1.3277
  130OSM    H3F14049   6.016   4.558   6.534 -0.5261  1.4716 -1.5061
  130OSM    H3G14050   5.923   4.434   6.445  1.7931 -3.0221 -1.9713
  130OSM    C4F14051   6.137   4.427   6.402  0.5924 -0.7996  0.1125
  130OSM    H4F14052   6.154   4.317   6.394  0.2576 -0.9605  1.4104
  130OSM    H4G14053   6.224   4.488   6.436 -1.0247  0.7720  1.6024
  130OSM    C5F14054   6.104   4.485   6.261  0.3930 -0.1805  0.5590
  130OSM    H5F14055   6.053   4.401   6.209  3.6590 -3.1429  1.7550
  130OSM    H5G14056   6.199   4.489   6.202 -0.9649  0.5422 -1.7277
  130OSM    C6F14057   6.031   4.617   6.268 -0.1584  0.3684 -0.1818
  130OSM    H6F14058   6.086   4.681   6.341 -0.3754 -0.0438  0.3521
  130OSM    H6G14059   5.928   4.599   6.304 -0.1259 -0.2580 -0.3980
  130OSM    C7F14060   6.013   4.698   6.136 -0.5997  0.0900  0.2408
  130OSM    H7F14061   5.934   4.649   6.076 -2.7906  2.2778  1.1848
  130OSM    H7G14062   6.098   4.686   6.065 -1.3696 -0.6220 -0.5946
  130OSM    C8F14063   5.979   4.850   6.149  0.0386 -0.2230 -0.1679
  130OSM    H8F14064   5.898   4.867   6.223 -0.3611 -1.7160 -0.2364
  130OSM    H8G14065   5.949   4.885   6.048 -0.1908  0.3553  0.0972
  130OSM    C9F14066   6.097   4.927   6.189  0.0601 -0.9034 -0.4210
  130OSM    H9F14067   6.127   4.912   6.294 -0.3354 -2.5807 -0.5166
  130OSM   C10F14068   6.187   4.996   6.116  0.9222  0.2928 -0.1178
  130OSM   H10F14069   6.265   5.056   6.165  1.2309  0.1815 -0.4685
  130OSM   C11F14070   6.190   5.001   5.965 -0.3986 -0.3819  0.1816
  130OSM   H11F14071   6.093   5.009   5.912  0.5370  0.0751 -1.5328
  130OSM   H11G14072   6.224   4.903   5.926 -1.5305 -0.1580 -1.4431
  130OSM   C12F14073   6.296   5.103   5.917  0.2087 -0.2114  0.6212
  130OSM   H12F14074   6.396   5.073   5.956  1.3508  1.8652 -0.5396
  130OSM   H12G14075   6.280   5.206   5.957 -0.4491 -0.7810  1.8943
  130OSM   C13F14076   6.297   5.109   5.764  0.9751  0.1877 -0.1553
  130OSM   H13F14077   6.306   5.011   5.713  0.8306 -0.2554  0.6387
  130OSM   H13G14078   6.389   5.170   5.753  0.8129  0.1441 -1.9846
  130OSM   C14F14079   6.177   5.182   5.714  0.1154  0.4284  0.1031
  130OSM   H14F14080   6.180   5.290   5.738 -0.3842  0.2381  1.0375
  130OSM   H14G14081   6.084   5.147   5.763 -0.0232  0.2143 -0.3012
  130OSM   C15F14082   6.157   5.170   5.562 -0.6108  0.1131 -0.7777
  130OSM   H15F14083   6.054   5.208   5.547 -0.4037  1.5514  1.0642
  130OSM   H15G14084   6.158   5.069   5.517  0.0568 -0.1771 -0.1456
  130OSM   C16F14085   6.266   5.241   5.482  0.6677 -0.1604 -0.5641
  130OSM   H16F14086   6.362   5.203   5.522  0.0458  0.5646  1.7919
  130OSM   H16G14087   6.269   5.348   5.512 -2.3145 -0.5454  1.5238
  130OSM   C17F14088   6.268   5.210   5.334  0.6337 -0.0482 -0.5233
  130OSM   H17F14089   6.276   5.100   5.326 -0.9634 -0.1921 -0.5701
  130OSM   H17G14090   6.354   5.268   5.294  0.6372  0.1076 -0.2929
  130OSM   C18F14091   6.143   5.261   5.257 -0.1334 -0.2615  0.3806
  130OSM   H18F14092   6.156   5.370   5.240 -1.5221  0.0858  1.3428
  130OSM   H18G14093   6.053   5.243   5.319  0.2588  1.1686  1.4197
  130OSM   H18H14094   6.134   5.208   5.160  0.2587 -1.3171  0.9049
  131OSM      N14095   6.322   6.303   7.307  0.4958 -1.0512 -0.0700
  131OSM    C1514096   6.280   6.160   7.320 -0.3242 -0.1216  0.0517
  131OSM   H15A14097   6.356   6.093   7.284 -0.0878  0.6494 -0.9084
  131OSM   H15B14098   6.191   6.132   7.265  1.3274 -3.0633 -1.3377
  131OSM   H15C14099   6.266   6.136   7.425 -0.2082  1.3138  0.4272
  131OSM    C1414100   6.207   6.390   7.342  0.5101  0.2301  0.1983
  131OSM   H14A14101   6.233   6.494   7.351 -0.2426  0.3630  0.9226
  131OSM   H14B14102   6.163   6.362   7.436  1.3163  1.6368  1.0221
  131OSM   H14C14103   6.134   6.378   7.263  1.8997  0.6987 -1.2140
  131OSM    C1314104   6.433   6.335   7.397  0.0633 -0.4274  0.1369
  131OSM   H13A14105   6.518   6.270   7.380  1.6489  1.9106 -1.4079
  131OSM   H13B14106   6.415   6.325   7.503  2.3789  0.3834  0.6655
  131OSM   H13C14107   6.460   6.439   7.388 -1.2200 -0.0601  0.4047
  131OSM    C1214108   6.372   6.321   7.167  0.0985 -0.0800 -0.2967
  131OSM   H12A14109   6.398   6.424   7.147 -0.5837  0.2797  0.5867
  131OSM   H12B14110   6.285   6.302   7.105  0.5589 -2.4483 -0.3148
  131OSM    C1114111   6.485   6.233   7.100  0.2262 -0.1089  0.4598
  131OSM   H11A14112   6.570   6.225   7.172  1.9181 -0.9447 -1.5454
  131OSM   H11B14113   6.522   6.279   7.006 -0.4982  1.7394  1.0336
  131OSM      P14114   6.518   5.987   7.020 -0.4397  0.0396 -0.2311
  131OSM    O1314115   6.647   5.981   7.092  0.4182  0.2661  0.0389
  131OSM    O1414116   6.441   5.863   7.018 -0.7021 -0.3903 -0.4529
  131OSM    O1114117   6.537   6.054   6.879  0.1336 -0.4652  0.8107
  131OSM    O1214118   6.438   6.096   7.087  0.2206  0.2089 -0.2569
  131OSM    C1S14119   6.433   6.067   6.785  0.3432 -0.0603 -0.2422
  131OSM    H1S14120   6.362   6.144   6.822 -0.1018  1.1713 -3.3348
  131OSM    H1T14121   6.380   5.970   6.771  0.5782 -0.9801  4.0900
  131OSM     NF14122   6.342   6.124   6.567 -1.0633 -0.2273  0.7223
  131OSM    HNF14123   6.315   6.054   6.502 -3.3576  0.7225  0.5460
  131OSM    C2S14124   6.469   6.114   6.638  0.5545 -0.1968  0.1070
  131OSM    H2S14125   6.509   6.217   6.644  0.6183 -0.1584 -0.8455
  131OSM    C3S14126   6.572   6.025   6.571 -0.2038 -0.1088  0.7509
  131OSM    H3S14127   6.549   5.917   6.558  0.5000 -0.0861 -1.0752
  131OSM     O314128   6.694   6.037   6.646 -0.1516  0.2360 -0.5186
  131OSM    HO314129   6.673   6.028   6.740  1.4186  0.9359 -0.0753
  131OSM    C4S14130   6.605   6.078   6.435  0.2914 -0.5191  0.4598
  131OSM    H4S14131   6.666   6.170   6.440 -0.9750  0.2806  2.7338
  131OSM    C5S14132   6.559   6.038   6.313 -0.2883  0.0414  0.0979
  131OSM    H5S14133   6.494   5.950   6.307  2.0364 -1.6651 -2.2634
  131OSM    C6S14134   6.584   6.099   6.181  0.4711 -0.1528  0.1208
  131OSM    H6S14135   6.631   6.200   6.183  0.9321 -0.3406 -0.6015
  131OSM    H6T14136   6.482   6.107   6.136  0.8672  1.7445 -0.5194
  131OSM    C7S14137   6.691   6.026   6.101 -0.6240 -0.0108  0.3268
  131OSM    H7S14138   6.677   5.916   6.095 -0.6056  0.0270 -0.5525
  131OSM    H7T14139   6.794   6.038   6.139 -0.7737  1.7864  0.2345
  131OSM    C8S14140   6.689   6.070   5.954 -0.3742  0.6227 -0.0567
  131OSM    H8S14141   6.697   6.179   5.933  1.3509  0.2225 -1.7856
  131OSM    H8T14142   6.585   6.053   5.916 -0.4304  0.0474  0.3466
  131OSM    C9S14143   6.788   5.993   5.867 -0.2951  0.2720  0.5957
  131OSM    H9S14144   6.773   5.883   5.870  1.3441 -0.0558 -1.2340
  131OSM    H9T14145   6.891   6.028   5.889  0.5574 -0.2698 -2.2029
  131OSM   C10S14146   6.775   6.036   5.716  0.0122  0.0023 -0.5709
  131OSM   H10S14147   6.865   5.992   5.669  1.4965  1.0593  1.1258
  131OSM   H10T14148   6.769   6.147   5.719  1.3044  0.1429 -1.8975
  131OSM   C11S14149   6.660   5.975   5.638 -0.2435 -0.0659 -0.4897
  131OSM   H11S14150   6.566   5.961   5.697 -0.6196  1.8703 -0.5789
  131OSM   H11T14151   6.669   5.872   5.598 -0.4317 -0.3594  0.2008
  131OSM   C12S14152   6.622   6.059   5.517 -0.2282 -0.4253  0.3385
  131OSM   H12S14153   6.627   6.161   5.561  0.1326 -0.1783 -0.2718
  131OSM   H12T14154   6.516   6.052   5.485 -0.0100  0.4795 -0.6252
  131OSM   C13S14155   6.714   6.056   5.400  0.5108 -0.0392  0.0371
  131OSM   H13S14156   6.704   5.960   5.347 -0.0725 -0.6799  1.2728
  131OSM   H13T14157   6.819   6.065   5.435  0.8386  1.2242 -1.1670
  131OSM   C14S14158   6.678   6.157   5.282  0.2256  0.0419  0.0014
  131OSM   H14S14159   6.760   6.129   5.213 -0.9966 -4.0134 -0.0810
  131OSM   H14T14160   6.684   6.262   5.317  0.6566  0.1339 -0.3451
  131OSM   C15S14161   6.540   6.150   5.222  0.5762 -0.4872  0.6813
  131OSM   H15S14162   6.461   6.197   5.284  1.9279 -0.3204  2.3349
  131OSM   H15T14163   6.511   6.045   5.199 -2.0910 -0.4241  3.2432
  131OSM   C16S14164   6.548   6.224   5.087 -1.0623  0.4996  0.4954
  131OSM   H16S14165   6.639   6.180   5.040 -0.7625  1.8083 -0.1873
  131OSM   H16T14166   6.572   6.329   5.113  3.0650  0.0185 -0.6420
  131OSM   C17S14167   6.423   6.198   5.004  0.7034 -0.3745  0.1409
  131OSM   H17S14168   6.422   6.090   4.975 -2.4656 -0.4244  0.0916
  131OSM   H17T14169   6.438   6.260   4.912  0.5349 -0.0000  0.3654
  131OSM   C18S14170   6.298   6.251   5.082 -0.1894 -0.7419  0.1183
  131OSM   H18S14171   6.284   6.201   5.180  1.1103 -2.2555 -0.4191
  131OSM   H18T14172   6.208   6.238   5.017 -1.5025  0.2000  1.6941
  131OSM   H18U14173   6.302   6.360   5.102 -0.8045 -0.0891 -2.8311
  131OSM    C1F14174   6.249   6.222   6.589  0.1769  0.5583  0.4647
  131OSM     OF14175   6.274   6.321   6.656  0.1237 -0.3917  0.0680
  131OSM    C2F14176   6.112   6.200   6.529 -0.0005  0.4622 -0.2237
  131OSM    H2F14177   6.035   6.227   6.604 -2.2955 -0.3483 -2.1660
  131OSM    H2G14178   6.103   6.093   6.500  2.6675 -0.5266  2.0945
  131OSM    C3F14179   6.102   6.293   6.403  0.4520 -0.1772 -0.8182
  131OSM    H3F14180   6.134   6.396   6.431  0.9533 -0.0889 -1.6742
  131OSM    H3G14181   5.997   6.294   6.368 -0.2234  0.3455  1.1283
  131OSM    C4F14182   6.189   6.231   6.287 -0.0372  0.4339 -0.2202
  131OSM    H4F14183   6.169   6.123   6.271  0.6820  0.1299  0.8398
  131OSM    H4G14184   6.297   6.237   6.310  0.1740  0.0828 -1.0928
  131OSM    C5F14185   6.172   6.311   6.154 -0.0645 -0.0412  0.2515
  131OSM    H5F14186   6.163   6.416   6.188  1.8556 -0.2944  1.7110
  131OSM    H5G14187   6.074   6.288   6.106 -0.0643  0.4628  0.0037
  131OSM    C6F14188   6.289   6.290   6.050  0.1974 -0.0956 -1.2449
  131OSM    H6F14189   6.310   6.181   6.057  3.5023  0.4781 -0.5576
  131OSM    H6G14190   6.373   6.342   6.100 -1.1324 -0.5988  1.6958
  131OSM    C7F14191   6.244   6.325   5.910 -0.4743 -0.3463  0.3748
  131OSM    H7F14192   6.222   6.433   5.901  1.4557 -0.0621 -1.5693
  131OSM    H7G14193   6.147   6.271   5.901 -0.4077 -0.5620  0.8772
  131OSM    C8F14194   6.358   6.273   5.823 -0.4479  0.7126  0.5797
  131OSM    H8F14195   6.304   6.238   5.732  1.7318 -2.3622  0.3164
  131OSM    H8G14196   6.409   6.188   5.874 -0.3145  0.0655 -0.6049
  131OSM    C9F14197   6.462   6.373   5.787  0.0027 -0.4076  0.7806
  131OSM    H9F14198   6.520   6.402   5.876  1.2233 -3.2155  0.9831
  131OSM   C10F14199   6.485   6.430   5.670 -0.0454  0.3566  0.3906
  131OSM   H10F14200   6.571   6.498   5.665  0.4516 -0.1484  1.7088
  131OSM   C11F14201   6.417   6.396   5.537  0.1553  0.3463  0.7403
  131OSM   H11F14202   6.396   6.289   5.517 -0.2875  0.2897  1.4471
  131OSM   H11G14203   6.485   6.433   5.458  2.0406 -1.5996  1.3548
  131OSM   C12F14204   6.287   6.474   5.527  0.7488 -0.2183 -0.3284
  131OSM   H12F14205   6.307   6.584   5.528 -2.4177  0.4413 -0.6780
  131OSM   H12G14206   6.221   6.454   5.614  0.4539 -0.3294 -0.5773
  131OSM   C13F14207   6.209   6.454   5.399 -0.1710  0.5723  0.3635
  131OSM   H13F14208   6.180   6.350   5.371  2.7377 -0.1551 -0.1964
  131OSM   H13G14209   6.289   6.486   5.329  2.4520  0.6554  3.2002
  131OSM   C14F14210   6.080   6.536   5.396 -0.1889 -0.0624  1.0480
  131OSM   H14F14211   6.099   6.638   5.433  0.5983  0.0135  0.4578
  131OSM   H14G14212   6.003   6.486   5.460  0.0196  0.6092  1.8304
  131OSM   C15F14213   6.028   6.551   5.249 -0.0031 -0.2261  0.6844
  131OSM   H15F14214   6.026   6.448   5.207  0.8980  0.3746 -0.9672
  131OSM   H15G14215   6.098   6.604   5.180 -1.4994  0.2747 -0.4993
  131OSM   C16F14216   5.885   6.616   5.257  0.0519  0.1458  0.2352
  131OSM   H16F14217   5.884   6.711   5.314  2.5108  0.6036 -0.3783
  131OSM   H16G14218   5.817   6.544   5.306  0.8730 -0.2781  0.7749
  131OSM   C17F14219   5.814   6.648   5.117  0.2967 -0.2953  0.3788
  131OSM   H17F14220   5.792   6.553   5.065  1.1182  1.9043 -4.5846
  131OSM   H17G14221   5.881   6.713   5.056 -0.7397 -1.7725 -2.4899
  131OSM   C18F14222   5.677   6.725   5.133  0.0164  0.0008  0.3048
  131OSM   H18F14223   5.616   6.721   5.040  1.8570 -1.4196 -0.9299
  131OSM   H18G14224   5.693   6.834   5.145  0.8297  0.1483 -1.7166
  131OSM   H18H14225   5.605   6.678   5.204  0.2281 -1.1039 -0.1831
  132OSM      N14226   6.397   2.916   7.746 -0.8696 -1.2057  0.3898
  132OSM    C1514227   6.345   2.796   7.803 -0.2626 -0.2257  0.3963
  132OSM   H15A14228   6.243   2.802   7.838 -1.2709  0.3051 -2.4482
  132OSM   H15B14229   6.413   2.765   7.881  0.6283  2.0644  0.5949
  132OSM   H15C14230   6.341   2.720   7.726 -0.7928 -0.0827  0.2799
  132OSM    C1414231   6.329   2.946   7.619  0.3781  0.2981  0.2571
  132OSM   H14A14232   6.369   3.035   7.574  0.6027  0.0717  0.0033
  132OSM   H14B14233   6.225   2.966   7.641  0.7457 -0.9480  3.8500
  132OSM   H14C14234   6.322   2.865   7.548 -2.7246 -1.1365  2.0019
  132OSM    C1314235   6.368   3.021   7.846 -0.4787  0.1884 -0.1145
  132OSM   H13A14236   6.263   3.044   7.858 -0.6941  0.3473 -2.0835
  132OSM   H13B14237   6.413   3.118   7.831 -0.4825  0.6522  2.3454
  132OSM   H13C14238   6.403   2.988   7.943 -2.6371  0.5833  0.8586
  132OSM    C1214239   6.538   2.898   7.710 -1.2039 -0.0329 -0.0667
  132OSM   H12A14240   6.598   2.872   7.796  0.8809 -1.2232 -1.7806
  132OSM   H12B14241   6.585   2.991   7.681 -1.4458  0.6275  1.5372
  132OSM    C1114242   6.586   2.782   7.612  0.1961 -0.1748  0.0729
  132OSM   H11A14243   6.562   2.802   7.506  0.1280 -1.5219 -0.1784
  132OSM   H11B14244   6.534   2.685   7.628  0.8880 -0.6666 -0.5951
  132OSM      P14245   6.833   2.883   7.602  0.2071  0.2817 -0.2776
  132OSM    O1314246   6.766   3.006   7.565 -0.0122 -0.0133  0.1380
  132OSM    O1414247   6.918   2.890   7.725 -0.3472  0.2203 -0.5044
  132OSM    O1114248   6.920   2.821   7.480  0.1208  0.5123  0.2639
  132OSM    O1214249   6.727   2.769   7.630  0.1090  0.3060  0.1526
  132OSM    C1S14250   6.852   2.765   7.361  0.2476  0.1677  0.1250
  132OSM    H1S14251   6.742   2.756   7.375 -0.2195  1.9161 -1.9437
  132OSM    H1T14252   6.897   2.667   7.333  3.2279  1.1619  1.0508
  132OSM     NF14253   6.788   2.772   7.130  0.1780  0.2418  0.0092
  132OSM    HNF14254   6.837   2.709   7.071 -0.7374  0.1371 -0.6612
  132OSM    C2S14255   6.860   2.848   7.226  0.3093  0.5119  0.0520
  132OSM    H2S14256   6.818   2.950   7.240  0.2944  0.4853  0.2022
  132OSM    C3S14257   7.014   2.871   7.192 -0.3507 -0.0169 -0.4063
  132OSM    H3S14258   7.065   2.774   7.172  0.1767  0.0942  0.3469
  132OSM     O314259   7.082   2.933   7.298  0.3311 -0.1768 -0.7448
  132OSM    HO314260   7.020   2.941   7.370  0.9618  0.8158 -0.2955
  132OSM    C4S14261   7.028   2.948   7.063 -0.2337  0.4999 -0.6347
  132OSM    H4S14262   7.031   3.058   7.075 -0.5615  0.2438  2.9745
  132OSM    C5S14263   7.043   2.901   6.942 -0.5608  0.2567  0.3016
  132OSM    H5S14264   7.069   2.794   6.937 -0.5222  0.2973 -0.6447
  132OSM    C6S14265   7.072   2.978   6.813  0.4805  0.4853 -0.4444
  132OSM    H6S14266   7.179   3.008   6.808  0.7951 -0.1830  1.4310
  132OSM    H6T14267   7.000   3.063   6.814 -0.3547 -0.2019 -0.9909
  132OSM    C7S14268   7.049   2.884   6.690 -0.1064  0.1117  0.1600
  132OSM    H7S14269   6.941   2.858   6.686  0.2892 -1.5418 -2.4086
  132OSM    H7T14270   7.109   2.791   6.691  0.4506  0.3766 -1.9555
  132OSM    C8S14271   7.063   2.966   6.560  0.0087 -0.3399 -0.1605
  132OSM    H8S14272   7.168   3.000   6.558 -0.3548  0.8438 -2.2484
  132OSM    H8T14273   6.998   3.057   6.556  0.3533  0.1963  3.0702
  132OSM    C9S14274   7.017   2.903   6.433 -0.1908  0.1798  0.5774
  132OSM    H9S14275   6.908   2.881   6.444  0.1836 -2.9764 -0.8423
  132OSM    H9T14276   7.078   2.811   6.420 -2.9399 -1.9860  1.9096
  132OSM   C10S14277   7.032   2.987   6.312  0.1899  0.0806  0.2826
  132OSM   H10S14278   7.137   3.019   6.298 -0.1961  0.4172 -2.5080
  132OSM   H10T14279   6.962   3.073   6.311  0.0025 -0.0689 -0.3228
  132OSM   C11S14280   6.991   2.902   6.187  1.0053  0.3821 -0.2224
  132OSM   H11S14281   6.882   2.892   6.169  1.2556 -0.3349 -1.4609
  132OSM   H11T14282   7.050   2.808   6.193 -0.3565 -0.7441 -2.8035
  132OSM   C12S14283   7.036   2.971   6.055 -0.1713 -0.1262 -0.2047
  132OSM   H12S14284   7.147   2.983   6.055 -0.1133 -0.3774  1.5551
  132OSM   H12T14285   6.986   3.070   6.061 -0.5233 -0.3309  0.3005
  132OSM   C13S14286   6.995   2.899   5.927 -0.1574  0.4283  0.2432
  132OSM   H13S14287   6.973   2.980   5.854 -1.1965  0.0575  0.1360
  132OSM   H13T14288   6.903   2.838   5.937  0.7239 -0.9737  0.1032
  132OSM   C14S14289   7.117   2.825   5.865  0.2620  0.1266  0.2048
  132OSM   H14S14290   7.117   2.727   5.918 -1.8186  1.2544  2.4423
  132OSM   H14T14291   7.213   2.879   5.880  0.8226  0.1443 -2.8240
  132OSM   C15S14292   7.100   2.805   5.716  0.5828 -0.1365  0.0502
  132OSM   H15S14293   7.192   2.763   5.670  0.2567  0.0706 -0.7945
  132OSM   H15T14294   7.086   2.906   5.672  0.3694  0.0586  0.5512
  132OSM   C16S14295   6.982   2.709   5.690  0.4635  0.1022 -0.1758
  132OSM   H16S14296   6.886   2.746   5.730  0.6855  0.2667  0.2058
  132OSM   H16T14297   7.007   2.612   5.739  0.3453  0.1444 -0.0363
  132OSM   C17S14298   6.949   2.680   5.539 -0.2232 -0.6118  0.6202
  132OSM   H17S14299   7.046   2.654   5.491  0.1536 -2.1057  2.1058
  132OSM   H17T14300   6.909   2.770   5.487 -1.3359  0.6127  3.4048
  132OSM   C18S14301   6.830   2.578   5.531 -0.5405  0.0765 -0.2164
  132OSM   H18S14302   6.797   2.559   5.427  0.1665 -1.7519 -0.1495
  132OSM   H18T14303   6.743   2.626   5.580 -0.7347  1.7964 -2.1349
  132OSM   H18U14304   6.869   2.482   5.570  0.6009  0.1558 -1.1067
  132OSM    C1F14305   6.655   2.767   7.121  0.4158  0.4293  0.2599
  132OSM     OF14306   6.580   2.822   7.202 -0.2978 -0.4583 -0.2542
  132OSM    C2F14307   6.593   2.690   7.002 -0.9892 -0.2818  0.5618
  132OSM    H2F14308   6.482   2.694   7.014 -0.9417  0.2798  0.8721
  132OSM    H2G14309   6.617   2.583   7.016  1.5772 -0.1204 -1.7848
  132OSM    C3F14310   6.661   2.735   6.871 -0.1181  0.1768 -0.4998
  132OSM    H3F14311   6.766   2.701   6.859  0.6338  1.4718  1.7195
  132OSM    H3G14312   6.659   2.846   6.864 -0.0934  0.1942 -0.2645
  132OSM    C4F14313   6.584   2.681   6.754  0.5032 -0.0937  0.0396
  132OSM    H4F14314   6.484   2.730   6.752  0.3941 -0.3119 -2.3966
  132OSM    H4G14315   6.583   2.570   6.762 -0.3903 -0.1131 -0.1885
  132OSM    C5F14316   6.661   2.721   6.622  0.2449  0.3809 -0.5603
  132OSM    H5F14317   6.760   2.671   6.628 -0.3619 -1.4978 -3.7066
  132OSM    H5G14318   6.684   2.829   6.629  0.4833  0.2604  0.8998
  132OSM    C6F14319   6.597   2.663   6.500  0.4869  0.3091 -0.3500
  132OSM    H6F14320   6.495   2.705   6.486  0.4479  0.5321  0.6004
  132OSM    H6G14321   6.582   2.553   6.513 -0.0940  0.4234 -0.0351
  132OSM    C7F14322   6.686   2.683   6.380  0.2769 -0.1620  0.5477
  132OSM    H7F14323   6.788   2.691   6.423  0.7358  1.4465 -0.7577
  132OSM    H7G14324   6.657   2.776   6.326  3.2599 -0.6166 -2.1386
  132OSM    C8F14325   6.673   2.563   6.278  0.1605 -0.3942  0.0931
  132OSM    H8F14326   6.563   2.548   6.273  0.3971 -1.9776 -1.5226
  132OSM    H8G14327   6.717   2.472   6.325 -1.2487 -0.3032  1.6798
  132OSM    C9F14328   6.728   2.596   6.140 -0.2512  0.7558 -0.5392
  132OSM    H9F14329   6.830   2.633   6.156  0.3554 -1.3446  0.9759
  132OSM   C10F14330   6.668   2.603   6.018  0.4081  0.6233 -0.0020
  132OSM   H10F14331   6.730   2.617   5.928  1.8268 -2.5336  0.3243
  132OSM   C11F14332   6.524   2.575   5.997 -0.3828  0.3744  0.2706
  132OSM   H11F14333   6.479   2.648   5.927 -0.4866 -0.2171 -0.2923
  132OSM   H11G14334   6.471   2.577   6.094  1.6757  0.2932  1.4572
  132OSM   C12F14335   6.527   2.431   5.937  0.5060 -0.0697 -0.0422
  132OSM   H12F14336   6.423   2.407   5.906  0.5578  1.3173 -1.4086
  132OSM   H12G14337   6.568   2.358   6.010 -0.1507 -1.4584 -1.0170
  132OSM   C13F14338   6.603   2.406   5.800 -0.4064  0.4108 -0.3416
  132OSM   H13F14339   6.713   2.402   5.821 -0.0471  1.2414 -1.9222
  132OSM   H13G14340   6.592   2.492   5.731  2.2890  3.1292  2.2714
  132OSM   C14F14341   6.564   2.274   5.726  0.0301 -0.0329  0.6672
  132OSM   H14F14342   6.459   2.269   5.689  1.0486 -0.2298 -2.4595
  132OSM   H14G14343   6.575   2.192   5.801  1.0960 -0.6348 -0.1310
  132OSM   C15F14344   6.645   2.251   5.595  0.4644 -0.4986 -0.6696
  132OSM   H15F14345   6.647   2.141   5.579  0.5878 -0.8144  1.2407
  132OSM   H15G14346   6.753   2.274   5.611  0.3471 -0.1714 -0.3150
  132OSM   C16F14347   6.582   2.320   5.471  0.0182 -0.1437  0.0880
  132OSM   H16F14348   6.596   2.429   5.487  1.5933 -0.5035  1.3635
  132OSM   H16G14349   6.471   2.312   5.472 -0.2579  2.5122  1.1057
  132OSM   C17F14350   6.637   2.275   5.337 -0.1523 -0.4281  0.6087
  132OSM   H17F14351   6.734   2.314   5.298 -0.7985 -0.4394 -1.1238
  132OSM   H17G14352   6.568   2.311   5.257 -0.9835 -0.0485  1.4764
  132OSM   C18F14353   6.641   2.121   5.324  0.2222  0.1195 -0.3273
  132OSM   H18F14354   6.723   2.085   5.388 -0.3025 -0.4589  0.0366
  132OSM   H18G14355   6.661   2.094   5.218  0.0423 -0.2595 -0.2679
  132OSM   H18H14356   6.547   2.072   5.358  1.0030  0.0106  1.7684
  133OSM      N14357   4.125   2.003   7.460 -0.4024 -0.2427 -0.1653
  133OSM    C1514358   4.056   1.871   7.484 -0.7774 -0.6027  0.5762
  133OSM   H15A14359   4.116   1.786   7.454  0.2599 -0.1047  1.1706
  133OSM   H15B14360   3.967   1.864   7.424  0.7445  1.4820 -2.1380
  133OSM   H15C14361   4.030   1.853   7.587  0.0599 -2.5788  0.4890
  133OSM    C1414362   4.240   2.010   7.554 -0.1596  0.0661 -0.5057
  133OSM   H14A14363   4.319   2.076   7.523 -0.5364  0.9855  0.4487
  133OSM   H14B14364   4.283   1.912   7.566 -0.0570  0.3575  2.0547
  133OSM   H14C14365   4.203   2.033   7.653 -0.1938  0.0988 -0.5266
  133OSM    C1314366   4.173   2.000   7.321 -0.3609  0.4213  0.0241
  133OSM   H13A14367   4.236   2.083   7.292 -1.7344  0.7361 -2.3026
  133OSM   H13B14368   4.086   2.003   7.258 -1.0129 -3.0120  0.5605
  133OSM   H13C14369   4.227   1.908   7.304 -0.6392  0.4360 -0.9746
  133OSM    C1214370   4.026   2.108   7.477  0.4497  0.0743  0.2745
  133OSM   H12A14371   4.003   2.122   7.582 -1.6523 -0.3442 -0.0877
  133OSM   H12B14372   3.931   2.092   7.429  0.2279 -1.3027  1.1226
  133OSM    C1114373   4.074   2.243   7.443 -0.0091 -0.4521 -0.5519
  133OSM   H11A14374   4.099   2.245   7.335  0.2510 -0.6107 -0.4967
  133OSM   H11B14375   4.168   2.262   7.500 -0.6460 -0.1502  0.4246
  133OSM      P14376   3.845   2.367   7.416  0.3594 -0.1959 -0.4437
  133OSM    O1314377   3.735   2.273   7.460 -0.4098  0.0324  0.2176
  133OSM    O1414378   3.821   2.513   7.431  0.0025  0.1300 -0.1955
  133OSM    O1114379   3.882   2.343   7.274 -0.3194 -0.0055 -0.1007
  133OSM    O1214380   3.982   2.336   7.487  0.1437  0.2685 -0.3144
  133OSM    C1S14381   3.819   2.409   7.162  0.4921  0.6597  0.3800
  133OSM    H1S14382   3.828   2.519   7.173 -0.1598  0.8306 -0.6769
  133OSM    H1T14383   3.715   2.378   7.140  1.2668 -0.5114 -2.0518
  133OSM     NF14384   3.859   2.446   6.915  0.2321 -0.1469 -0.3086
  133OSM    HNF14385   3.796   2.400   6.852 -1.0129 -0.6084  1.1828
  133OSM    C2S14386   3.898   2.371   7.034 -0.5277  1.1164 -0.3111
  133OSM    H2S14387   4.003   2.387   7.065  0.0274 -1.3476 -0.7286
  133OSM    C3S14388   3.906   2.213   7.021 -0.2207  0.2318  0.1213
  133OSM    H3S14389   3.808   2.161   7.020  0.4823 -1.2393  1.5189
  133OSM     O314390   3.967   2.140   7.128  0.3352  0.3364 -0.4400
  133OSM    HO314391   3.961   2.201   7.202  1.0799  0.6363 -0.6161
  133OSM    C4S14392   3.992   2.176   6.898  0.0984  0.1707  0.2828
  133OSM    H4S14393   3.925   2.168   6.810 -0.4680  0.3051  0.6939
  133OSM    C5S14394   4.126   2.157   6.897  0.7193  0.1294  0.1143
  133OSM    H5S14395   4.184   2.163   6.990  2.5878  1.6279 -1.0762
  133OSM    C6S14396   4.208   2.109   6.780 -0.0414 -0.1490 -0.8654
  133OSM    H6S14397   4.144   2.049   6.712 -0.1929 -1.4524  0.3820
  133OSM    H6T14398   4.294   2.049   6.817 -1.6532 -1.4783  0.8934
  133OSM    C7S14399   4.260   2.235   6.695  0.2263 -0.2653 -0.5315
  133OSM    H7S14400   4.350   2.272   6.749 -0.5526 -2.3698  2.4848
  133OSM    H7T14401   4.182   2.314   6.681 -0.2278 -0.4392  0.8136
  133OSM    C8S14402   4.325   2.197   6.566 -0.4975  1.0062  0.9040
  133OSM    H8S14403   4.395   2.113   6.586  1.7105  2.8685  1.5313
  133OSM    H8T14404   4.389   2.286   6.546  0.2758 -0.1427 -2.4362
  133OSM    C9S14405   4.224   2.166   6.449  0.2067  0.3255 -1.2463
  133OSM    H9S14406   4.164   2.259   6.440  0.3958  0.6433  0.4138
  133OSM    H9T14407   4.160   2.079   6.476  2.4328 -1.1074 -0.2646
  133OSM   C10S14408   4.302   2.137   6.324  0.0675 -1.4808 -0.0008
  133OSM   H10S14409   4.232   2.081   6.258  0.5545 -1.1989 -0.7694
  133OSM   H10T14410   4.391   2.073   6.344  2.9706  1.2475 -2.9665
  133OSM   C11S14411   4.339   2.262   6.242  0.4429 -0.1630  0.5186
  133OSM   H11S14412   4.409   2.332   6.292  0.6891 -0.0757  0.0571
  133OSM   H11T14413   4.247   2.311   6.205  1.5384  0.1959 -1.9504
  133OSM   C12S14414   4.401   2.229   6.098 -0.3240 -0.3554 -0.1793
  133OSM   H12S14415   4.331   2.156   6.052  0.5002 -1.6033  0.4523
  133OSM   H12T14416   4.497   2.173   6.110  0.2032 -0.0871 -2.6988
  133OSM   C13S14417   4.410   2.356   6.010 -0.1637  0.7058  0.0926
  133OSM   H13S14418   4.474   2.433   6.059 -1.1923  0.9643  1.0614
  133OSM   H13T14419   4.306   2.394   5.998 -1.0325 -1.5781 -0.0214
  133OSM   C14S14420   4.461   2.323   5.867  0.1978  0.0562 -0.6889
  133OSM   H14S14421   4.381   2.256   5.829 -0.5841  1.4331 -1.5823
  133OSM   H14T14422   4.566   2.286   5.869 -0.6962 -2.7128  1.4978
  133OSM   C15S14423   4.441   2.451   5.786 -0.3023 -0.2578 -0.0340
  133OSM   H15S14424   4.517   2.522   5.826  0.2538 -1.0626  0.3627
  133OSM   H15T14425   4.341   2.498   5.800 -0.3699 -0.1909 -0.7129
  133OSM   C16S14426   4.460   2.425   5.633 -0.1760  0.4287 -0.5055
  133OSM   H16S14427   4.383   2.348   5.610  1.6374 -3.0685  3.8498
  133OSM   H16T14428   4.557   2.375   5.615 -1.1200 -1.4568 -0.6010
  133OSM   C17S14429   4.462   2.547   5.542 -0.3868 -0.3269 -0.5066
  133OSM   H17S14430   4.550   2.608   5.569 -0.7332 -0.6423  1.4747
  133OSM   H17T14431   4.375   2.610   5.570  1.0403  0.4579  2.5631
  133OSM   C18S14432   4.468   2.516   5.395  0.0766 -0.3919 -1.2754
  133OSM   H18S14433   4.560   2.456   5.378 -0.3013 -1.6220  0.6739
  133OSM   H18T14434   4.470   2.610   5.336 -2.2797 -0.7702 -2.0402
  133OSM   H18U14435   4.377   2.461   5.364 -0.9681  0.6403 -0.1596
  133OSM    C1F14436   3.879   2.577   6.916 -0.6495  0.0719  0.0736
  133OSM     OF14437   3.928   2.638   7.011 -0.8250 -0.0048 -0.4756
  133OSM    C2F14438   3.826   2.652   6.792  0.9645  0.4379 -0.3135
  133OSM    H2F14439   3.827   2.761   6.814 -0.7986  0.2751  0.8246
  133OSM    H2G14440   3.721   2.620   6.779  0.3801  1.6054  1.1944
  133OSM    C3F14441   3.899   2.617   6.667 -0.3566 -0.3026 -0.2316
  133OSM    H3F14442   3.891   2.507   6.657  0.7571 -0.4142 -0.0022
  133OSM    H3G14443   4.008   2.633   6.676 -0.6585  1.6761  0.3973
  133OSM    C4F14444   3.835   2.701   6.545 -0.0908  0.9913 -0.4135
  133OSM    H4F14445   3.833   2.807   6.579  0.7455  0.9655 -0.2629
  133OSM    H4G14446   3.735   2.661   6.520  0.7548 -0.6776 -1.2895
  133OSM    C5F14447   3.920   2.685   6.415  0.1626 -0.0625 -0.9706
  133OSM    H5F14448   3.925   2.577   6.390 -1.2460 -0.2529 -0.4923
  133OSM    H5G14449   4.026   2.714   6.430  0.6614 -1.6657 -1.1448
  133OSM    C6F14450   3.872   2.775   6.304 -0.4174 -0.4718  0.0647
  133OSM    H6F14451   3.865   2.882   6.333  1.2982 -0.3994  0.3286
  133OSM    H6G14452   3.773   2.731   6.281 -1.1204  1.4891 -0.8116
  133OSM    C7F14453   3.967   2.779   6.179  0.3944  0.0627  0.1779
  133OSM    H7F14454   3.986   2.674   6.147 -0.1000 -0.1182  0.4704
  133OSM    H7G14455   4.053   2.833   6.223 -1.1804  0.5168  2.9472
  133OSM    C8F14456   3.901   2.856   6.058  0.6037  0.9360  0.0777
  133OSM    H8F14457   3.975   2.873   5.977  0.5876 -0.2339 -0.1993
  133OSM    H8G14458   3.859   2.945   6.110 -2.9596 -1.7368  2.2946
  133OSM    C9F14459   3.791   2.765   6.012  0.7875 -0.2187 -0.0181
  133OSM    H9F14460   3.721   2.714   6.080 -0.9578  0.4550 -1.2171
  133OSM   C10F14461   3.760   2.734   5.880 -0.7446 -0.4137 -0.1492
  133OSM   H10F14462   3.666   2.682   5.860  0.5079 -1.7023 -3.2820
  133OSM   C11F14463   3.838   2.768   5.754 -0.0420 -0.5151  0.2541
  133OSM   H11F14464   3.868   2.678   5.696  0.1979 -0.8447  0.8829
  133OSM   H11G14465   3.934   2.821   5.774 -0.7756  0.8633  0.2856
  133OSM   C12F14466   3.764   2.850   5.651 -0.5832 -0.1340  0.4445
  133OSM   H12F14467   3.835   2.909   5.588 -1.7357  0.5671 -0.2474
  133OSM   H12G14468   3.706   2.933   5.697  0.6899  0.4972  0.9780
  133OSM   C13F14469   3.663   2.772   5.565 -0.0999  0.5789 -0.5658
  133OSM   H13F14470   3.584   2.719   5.623  2.0738 -0.7218  1.4399
  133OSM   H13G14471   3.718   2.696   5.506 -2.3165 -2.3801  0.8940
  133OSM   C14F14472   3.590   2.859   5.456  0.3167  0.4270 -0.0696
  133OSM   H14F14473   3.666   2.926   5.410 -1.0530  1.9373 -0.2046
  133OSM   H14G14474   3.521   2.927   5.510  0.3141  0.7618 -0.4899
  133OSM   C15F14475   3.524   2.779   5.346  0.2973  0.7176  0.7003
  133OSM   H15F14476   3.451   2.701   5.376  0.6364  0.3186  0.4939
  133OSM   H15G14477   3.603   2.727   5.288 -1.5567  0.2577 -1.6039
  133OSM   C16F14478   3.457   2.877   5.248  0.0842  0.1489  0.1864
  133OSM   H16F14479   3.539   2.938   5.205 -1.2070  1.3924 -0.5791
  133OSM   H16G14480   3.398   2.948   5.308  2.4995  2.0298  0.4862
  133OSM   C17F14481   3.375   2.804   5.144 -1.0772 -0.1811  0.3170
  133OSM   H17F14482   3.291   2.747   5.190  0.7188 -1.1860  2.5166
  133OSM   H17G14483   3.440   2.729   5.093 -1.9840 -0.4718 -0.4495
  133OSM   C18F14484   3.317   2.904   5.041 -0.7255 -0.5335  0.0610
  133OSM   H18F14485   3.393   2.952   4.975  0.6905  0.3128  2.2119
  133OSM   H18G14486   3.273   2.987   5.100 -0.9890  1.1880 -2.4115
  133OSM   H18H14487   3.248   2.846   4.977 -0.0484 -0.4515 -0.7641
  134OSM      N14488   1.972   1.432   7.569 -0.2533 -0.0538 -0.0983
  134OSM    C1514489   2.049   1.530   7.662 -0.3854  0.8459  0.9243
  134OSM   H15A14490   2.031   1.505   7.765 -0.6771 -1.1776  0.4140
  134OSM   H15B14491   2.002   1.627   7.657  0.3067  1.1741  0.6746
  134OSM   H15C14492   2.156   1.538   7.648 -0.0610 -2.3279  0.8804
  134OSM    C1414493   2.080   1.350   7.507  0.1083  0.2109 -0.1022
  134OSM   H14A14494   2.038   1.262   7.461 -0.2486  0.2010  0.2313
  134OSM   H14B14495   2.143   1.314   7.587  1.0138  0.5486 -0.6496
  134OSM   H14C14496   2.132   1.418   7.441 -0.5671 -1.1182 -2.0951
  134OSM    C1314497   1.881   1.345   7.652  0.0272 -0.5298 -0.1719
  134OSM   H13A14498   1.826   1.268   7.600 -1.6131 -0.2279  1.0532
  134OSM   H13B14499   1.809   1.401   7.709  0.0738 -1.7333  1.1283
  134OSM   H13C14500   1.939   1.292   7.727  0.5695 -0.4283 -0.5132
  134OSM    C1214501   1.896   1.504   7.463 -0.5902 -0.2636  0.0994
  134OSM   H12A14502   1.832   1.440   7.405 -1.6585  1.5059 -0.7752
  134OSM   H12B14503   1.960   1.554   7.391  0.8269  0.9711  2.0976
  134OSM    C1114504   1.800   1.616   7.508 -0.1928 -0.1942 -0.3406
  134OSM   H11A14505   1.722   1.571   7.573  1.0396 -0.8618  0.7348
  134OSM   H11B14506   1.735   1.648   7.424 -1.3508  0.5993  0.8257
  134OSM      P14507   1.917   1.864   7.501  0.0034 -0.2298  0.2261
  134OSM    O1314508   1.943   1.957   7.614  0.2681 -0.5521 -0.1050
  134OSM    O1414509   2.024   1.853   7.403 -0.3565  0.3492 -0.9378
  134OSM    O1114510   1.781   1.902   7.425 -0.1413 -0.1165 -0.5181
  134OSM    O1214511   1.870   1.729   7.570 -0.4230  0.0568 -0.1568
  134OSM    C1S14512   1.773   2.035   7.367  0.7860 -0.0457 -0.1304
  134OSM    H1S14513   1.830   2.112   7.423 -0.3613  0.0804  0.8932
  134OSM    H1T14514   1.665   2.060   7.377  0.2447 -1.5946 -1.6314
  134OSM     NF14515   1.819   2.174   7.168 -0.2061  0.1096 -0.0242
  134OSM    HNF14516   1.758   2.186   7.089  0.6687 -0.3287 -0.7908
  134OSM    C2S14517   1.823   2.036   7.215  0.7496  0.3463 -0.6378
  134OSM    H2S14518   1.926   1.994   7.217 -0.3763 -2.6700 -0.3194
  134OSM    C3S14519   1.734   1.941   7.137 -0.5018 -0.2946 -0.1280
  134OSM    H3S14520   1.635   1.990   7.130 -0.2844 -0.0206 -1.8869
  134OSM     O314521   1.719   1.818   7.199  0.3069  0.3112 -0.3480
  134OSM    HO314522   1.720   1.833   7.294 -0.2653 -1.1154 -0.0881
  134OSM    C4S14523   1.780   1.921   6.995 -0.2953 -0.0611  0.0951
  134OSM    H4S14524   1.859   1.845   6.989  1.5144  1.5632  1.8655
  134OSM    C5S14525   1.722   1.958   6.883 -0.5397  0.5303  0.2981
  134OSM    H5S14526   1.623   2.005   6.887 -0.9536 -0.3169  0.0575
  134OSM    C6S14527   1.775   1.914   6.743  0.2330 -0.3189 -0.4193
  134OSM    H6S14528   1.722   1.818   6.726 -0.2613 -0.2638  0.6802
  134OSM    H6T14529   1.883   1.894   6.729 -0.0889 -1.0997 -1.9244
  134OSM    C7S14530   1.742   2.019   6.636  0.3095  0.2121 -0.1013
  134OSM    H7S14531   1.797   2.107   6.674 -0.5396  0.3103  0.9503
  134OSM    H7T14532   1.634   2.047   6.641 -0.2323 -1.7757  0.1599
  134OSM    C8S14533   1.797   1.990   6.492 -0.3141  0.1776 -0.0679
  134OSM    H8S14534   1.764   1.886   6.470 -2.6758  0.8250  0.1739
  134OSM    H8T14535   1.907   2.003   6.502 -0.3070  1.1633 -1.2641
  134OSM    C9S14536   1.761   2.086   6.376  0.1099 -0.1030 -0.5286
  134OSM    H9S14537   1.767   2.194   6.401 -0.0113  0.0994 -1.3313
  134OSM    H9T14538   1.654   2.073   6.348 -0.0763 -0.9226  0.5143
  134OSM   C10S14539   1.859   2.066   6.262 -0.3877  0.6916 -0.4333
  134OSM   H10S14540   1.852   1.962   6.225  0.0945  0.0879  1.1197
  134OSM   H10T14541   1.965   2.076   6.294 -0.1378  0.3973 -1.1533
  134OSM   C11S14542   1.837   2.159   6.149  0.0815 -0.2012 -0.0143
  134OSM   H11S14543   1.934   2.144   6.097  0.3965  0.7967  0.2603
  134OSM   H11T14544   1.843   2.264   6.185 -1.7570 -0.7982  2.2725
  134OSM   C12S14545   1.720   2.138   6.062  0.1520 -0.1179  0.2137
  134OSM   H12S14546   1.620   2.143   6.109  0.2892 -2.7851  0.9920
  134OSM   H12T14547   1.726   2.032   6.029  0.3686  0.0259 -0.2195
  134OSM   C13S14548   1.709   2.228   5.934  0.0402  0.5681  0.5186
  134OSM   H13S14549   1.803   2.213   5.876  1.1446 -1.2589  2.6051
  134OSM   H13T14550   1.695   2.333   5.968  0.0382  0.8252 -0.2580
  134OSM   C14S14551   1.589   2.178   5.843  0.5052 -0.2856  0.4676
  134OSM   H14S14552   1.579   2.246   5.756 -0.2984 -1.5615 -0.4788
  134OSM   H14T14553   1.493   2.180   5.901  0.0237 -0.9055 -0.2850
  134OSM   C15S14554   1.616   2.038   5.791 -0.3453 -1.0367 -0.8148
  134OSM   H15S14555   1.592   1.954   5.859 -0.9647  0.9884  1.6298
  134OSM   H15T14556   1.719   2.045   5.750  0.3579  3.3959  1.1518
  134OSM   C16S14557   1.519   2.022   5.670 -0.2607  0.0055  0.2920
  134OSM   H16S14558   1.560   2.081   5.584  0.2253  0.3679  0.7653
  134OSM   H16T14559   1.416   2.054   5.695  0.2468  1.7587  0.2749
  134OSM   C17S14560   1.520   1.866   5.631 -0.2302 -0.0625 -0.4987
  134OSM   H17S14561   1.459   1.803   5.700  0.1736 -1.2680 -1.2022
  134OSM   H17T14562   1.624   1.829   5.637 -0.2279  0.0633  0.4235
  134OSM   C18S14563   1.465   1.849   5.494 -0.0697  0.0115  0.3136
  134OSM   H18S14564   1.538   1.890   5.421  2.0239 -2.9765  0.5593
  134OSM   H18T14565   1.372   1.908   5.479  0.2950  0.5219  0.0234
  134OSM   H18U14566   1.444   1.742   5.475 -0.6545  0.3201 -0.9109
  134OSM    C1F14567   1.892   2.270   7.223 -0.1008 -0.3601 -0.1334
  134OSM     OF14568   1.993   2.252   7.284  0.1934  0.3533 -0.7793
  134OSM    C2F14569   1.850   2.413   7.196  1.3930 -0.5968 -0.2127
  134OSM    H2F14570   1.945   2.470   7.197  0.3586  1.2639 -1.7348
  134OSM    H2G14571   1.789   2.447   7.282  0.3319 -2.4907 -0.1754
  134OSM    C3F14572   1.775   2.443   7.064 -0.6055 -0.0837  0.2509
  134OSM    H3F14573   1.735   2.546   7.078 -1.0358  0.2945 -2.9252
  134OSM    H3G14574   1.692   2.371   7.051 -0.7697  0.2249 -0.4459
  134OSM    C4F14575   1.863   2.457   6.932  0.1899  0.5899 -0.8270
  134OSM    H4F14576   1.950   2.513   6.973  0.8387 -1.4471  0.6944
  134OSM    H4G14577   1.813   2.509   6.848  2.9262  0.1362 -2.9053
  134OSM    C5F14578   1.910   2.319   6.877 -0.2737  0.2833 -0.2659
  134OSM    H5F14579   1.816   2.268   6.848 -0.0941 -0.4444  0.4150
  134OSM    H5G14580   1.966   2.260   6.952  1.3508  2.4195  0.3191
  134OSM    C6F14581   1.992   2.333   6.746 -0.5921 -0.6118 -0.3550
  134OSM    H6F14582   1.938   2.396   6.673  1.3000  0.8200 -0.5717
  134OSM    H6G14583   2.012   2.232   6.705  0.0989 -0.2310 -0.9732
  134OSM    C7F14584   2.134   2.386   6.763  0.1019 -0.0996  0.0488
  134OSM    H7F14585   2.191   2.319   6.831  0.4754 -1.0334 -1.1490
  134OSM    H7G14586   2.123   2.478   6.824  0.4501 -1.4042  2.1783
  134OSM    C8F14587   2.207   2.408   6.629  0.3775  0.4745 -0.0604
  134OSM    H8F14588   2.296   2.474   6.638 -0.9293  2.2241  0.4781
  134OSM    H8G14589   2.135   2.457   6.559 -0.1907 -1.1999 -0.7026
  134OSM    C9F14590   2.252   2.276   6.575  0.3741 -0.0066  0.5702
  134OSM    H9F14591   2.266   2.189   6.640 -0.0184 -1.3273 -1.0401
  134OSM   C10F14592   2.275   2.247   6.442  0.1315  0.7497 -0.3641
  134OSM   H10F14593   2.308   2.145   6.415 -0.0773  0.2219  1.2669
  134OSM   C11F14594   2.264   2.343   6.326 -0.5358  0.0166  0.0392
  134OSM   H11F14595   2.359   2.343   6.268  0.2093 -0.5256  1.2211
  134OSM   H11G14596   2.250   2.446   6.364  0.3987  0.3549 -0.4887
  134OSM   C12F14597   2.161   2.316   6.219  0.2576 -0.1251 -0.4627
  134OSM   H12F14598   2.056   2.315   6.255  0.5816 -2.7269  0.5866
  134OSM   H12G14599   2.181   2.217   6.173  0.6396 -1.0742  1.6613
  134OSM   C13F14600   2.174   2.421   6.102  0.1069 -0.2367 -0.4661
  134OSM   H13F14601   2.283   2.438   6.085  0.0516  2.4200  1.0982
  134OSM   H13G14602   2.135   2.519   6.137  0.3645 -0.5263  0.6717
  134OSM   C14F14603   2.097   2.382   5.978 -0.3290 -0.6343 -1.0726
  134OSM   H14F14604   1.991   2.415   5.993 -0.3382 -0.2009 -1.9930
  134OSM   H14G14605   2.098   2.271   5.975  1.5561 -0.7884  1.5999
  134OSM   C15F14606   2.153   2.440   5.850  0.2021 -0.0401  0.7246
  134OSM   H15F14607   2.082   2.415   5.768  0.1483  2.3368 -0.0376
  134OSM   H15G14608   2.250   2.391   5.825 -0.5874 -0.7813 -1.0980
  134OSM   C16F14609   2.164   2.597   5.844 -0.3801  0.4181  0.1708
  134OSM   H16F14610   2.201   2.632   5.942 -0.7841  3.1473 -0.5662
  134OSM   H16G14611   2.065   2.645   5.827 -0.5160 -0.2849 -1.2285
  134OSM   C17F14612   2.260   2.656   5.746  0.2025 -1.0390  0.5821
  134OSM   H17F14613   2.224   2.651   5.642  0.5296 -2.8487  0.5168
  134OSM   H17G14614   2.361   2.608   5.753  0.6733  0.0597  1.6856
  134OSM   C18F14615   2.280   2.809   5.781 -0.0189 -0.6094 -0.3345
  134OSM   H18F14616   2.324   2.856   5.690 -2.2702  1.3568 -0.5082
  134OSM   H18G14617   2.344   2.824   5.870  1.0618  1.2040 -1.3682
  134OSM   H18H14618   2.181   2.859   5.792  0.2767  0.0713 -0.7049
  135OSM      N14619   4.358   0.017   7.443  0.5375 -0.8055 -0.1643
  135OSM    C1514620   4.492  -0.005   7.519  0.3928 -0.4400 -0.0443
  135OSM   H15A14621   4.526  -0.105   7.496 -0.6806 -1.2378  1.6280
  135OSM   H15B14622   4.462  -0.007   7.622  0.5267 -0.7586 -0.0106
  135OSM   H15C14623   4.566   0.071   7.501 -0.5783  0.0261 -2.5240
  135OSM    C1414624   4.268  -0.095   7.489  0.7306  0.3278  0.2269
  135OSM   H14A14625   4.261  -0.100   7.597 -0.2545 -1.9053  0.1197
  135OSM   H14B14626   4.317  -0.186   7.456  0.5381 -0.7520  2.7219
  135OSM   H14C14627   4.167  -0.083   7.454 -0.3621  1.7248  3.4891
  135OSM    C1314628   4.301   0.152   7.483  0.2833 -0.3920 -0.1785
  135OSM   H13A14629   4.305   0.173   7.589  0.7564 -0.4485 -0.1797
  135OSM   H13B14630   4.197   0.156   7.456  0.6842  4.0287 -2.0020
  135OSM   H13C14631   4.352   0.238   7.440  0.8596 -0.5512  0.1706
  135OSM    C1214632   4.375   0.018   7.292  0.4072  0.4993  0.4898
  135OSM   H12A14633   4.396  -0.084   7.264  0.0790 -0.0405  2.1265
  135OSM   H12B14634   4.463   0.068   7.254 -0.4480  0.0551 -2.3276
  135OSM    C1114635   4.253   0.071   7.207  0.1660  0.1743  0.4878
  135OSM   H11A14636   4.286   0.047   7.104  0.2943 -0.7276  0.7312
  135OSM   H11B14637   4.256   0.182   7.215 -2.1384  0.2263  1.1818
  135OSM      P14638   3.991   0.082   7.228  0.1806 -0.1161 -0.0098
  135OSM    O1314639   3.882  -0.016   7.246  0.7280  0.5906  0.4367
  135OSM    O1414640   3.979   0.197   7.322  0.1108 -0.9303 -0.0646
  135OSM    O1114641   3.981   0.130   7.078  0.0128  0.5303 -0.1401
  135OSM    O1214642   4.129   0.005   7.242  0.3484 -0.5702  0.1324
  135OSM    C1S14643   3.986   0.030   6.977 -0.7842 -0.2480 -0.1792
  135OSM    H1S14644   3.901  -0.039   6.996 -0.1105 -0.6288  1.6712
  135OSM    H1T14645   4.083  -0.024   6.971 -1.2595 -1.4410  1.7761
  135OSM     NF14646   3.907  -0.006   6.742  0.4088  0.1201  0.6220
  135OSM    HNF14647   3.981  -0.049   6.692 -0.5737 -0.1584 -0.6518
  135OSM    C2S14648   3.949   0.096   6.839  0.0707  0.1201  0.4407
  135OSM    H2S14649   3.858   0.158   6.854 -1.3302 -1.5052 -0.9324
  135OSM    C3S14650   4.072   0.183   6.789 -0.5142  0.9649 -0.4480
  135OSM    H3S14651   4.150   0.106   6.771  0.5109  1.7648  0.4148
  135OSM     O314652   4.138   0.256   6.896  0.1101 -0.1467  0.2464
  135OSM    HO314653   4.090   0.215   6.968 -3.6812  2.9265 -0.2064
  135OSM    C4S14654   4.047   0.255   6.659  0.8100  0.1244 -0.3395
  135OSM    H4S14655   4.076   0.199   6.568  1.5078  0.9174 -0.6178
  135OSM    C5S14656   4.001   0.383   6.646 -0.0587  0.7405  0.4431
  135OSM    H5S14657   3.969   0.441   6.734  0.0651  0.6111  0.5733
  135OSM    C6S14658   3.987   0.462   6.519 -0.2997  0.7490  0.4433
  135OSM    H6S14659   4.063   0.540   6.542  1.4416  0.0574 -2.4525
  135OSM    H6T14660   3.880   0.489   6.507 -0.5487  0.2355  1.3831
  135OSM    C7S14661   4.022   0.384   6.387  0.3122  0.0976 -0.3153
  135OSM    H7S14662   3.976   0.283   6.381  2.6518 -1.0867  0.4009
  135OSM    H7T14663   4.132   0.368   6.383  0.5557  1.7371 -0.6472
  135OSM    C8S14664   4.005   0.463   6.260  0.4936  0.4190 -0.2009
  135OSM    H8S14665   4.040   0.568   6.253 -2.3024  1.3621 -1.4157
  135OSM    H8T14666   3.900   0.455   6.224  0.1115  0.2962  0.8973
  135OSM    C9S14667   4.085   0.390   6.147  0.7789 -0.5304 -0.3550
  135OSM    H9S14668   4.066   0.281   6.151 -2.9428 -0.0489 -1.3114
  135OSM    H9T14669   4.192   0.410   6.170  0.8837 -1.8654  0.4393
  135OSM   C10S14670   4.042   0.452   6.012  0.0952  0.8193  0.3443
  135OSM   H10S14671   4.065   0.561   6.002 -0.0964  0.7712 -0.6937
  135OSM   H10T14672   3.932   0.440   6.018  0.1841 -1.2034 -1.2768
  135OSM   C11S14673   4.094   0.373   5.893 -0.4252  0.4589 -0.3048
  135OSM   H11S14674   4.060   0.269   5.913 -0.6753  0.3091 -1.4464
  135OSM   H11T14675   4.204   0.362   5.903 -0.6125  0.0512  2.1554
  135OSM   C12S14676   4.056   0.421   5.759  0.3624  0.7600  0.4682
  135OSM   H12S14677   4.077   0.528   5.735 -1.3635  0.7727 -1.2980
  135OSM   H12T14678   3.945   0.425   5.756  0.3184 -0.3409  0.4403
  135OSM   C13S14679   4.109   0.324   5.645  0.2032  0.2931  0.0642
  135OSM   H13S14680   4.057   0.230   5.671  1.4940  0.0911  2.1060
  135OSM   H13T14681   4.220   0.315   5.647  0.1799  0.1020  0.7740
  135OSM   C14S14682   4.070   0.368   5.502  0.1570  0.3794 -0.4438
  135OSM   H14S14683   4.116   0.465   5.472  1.8099  0.3151  1.5706
  135OSM   H14T14684   3.960   0.380   5.504  0.1309  0.0202  0.9496
  135OSM   C15S14685   4.095   0.256   5.395 -0.8693  0.1767  0.2755
  135OSM   H15S14686   4.004   0.240   5.333 -0.5175 -2.6418  0.3511
  135OSM   H15T14687   4.103   0.154   5.438  0.8932  1.0560  2.1581
  135OSM   C16S14688   4.217   0.265   5.296 -0.7390 -0.8889 -0.1044
  135OSM   H16S14689   4.244   0.165   5.257  2.2432  0.1100 -0.8541
  135OSM   H16T14690   4.309   0.315   5.331  1.1371  0.1416 -5.5644
  135OSM   C17S14691   4.180   0.331   5.160  0.1047  0.2205 -0.7618
  135OSM   H17S14692   4.276   0.346   5.105 -0.4803 -0.4544 -2.0137
  135OSM   H17T14693   4.146   0.433   5.186 -1.5664 -0.7075  0.8896
  135OSM   C18S14694   4.086   0.258   5.063 -1.1587 -0.0080 -0.5509
  135OSM   H18S14695   3.988   0.226   5.106 -1.8302 -0.9992 -2.6837
  135OSM   H18T14696   4.128   0.159   5.035 -2.8848 -1.1923  0.8098
  135OSM   H18U14697   4.073   0.314   4.968  1.2286  1.1986 -0.2319
  135OSM    C1F14698   3.790  -0.060   6.741  0.2056  0.1689  0.2758
  135OSM     OF14699   3.701  -0.020   6.814 -0.5521  0.2229  0.3310
  135OSM    C2F14700   3.772  -0.178   6.643  0.2444  0.2195 -0.6155
  135OSM    H2F14701   3.835  -0.255   6.692  1.7944  1.3715 -0.7312
  135OSM    H2G14702   3.824  -0.160   6.547  1.8835  2.2903  0.5612
  135OSM    C3F14703   3.618  -0.224   6.628 -0.6963 -0.6979 -0.5344
  135OSM    H3F14704   3.550  -0.144   6.592 -1.1194 -1.2305 -0.9333
  135OSM    H3G14705   3.581  -0.267   6.723 -0.8580 -3.1592 -1.6510
  135OSM    C4F14706   3.594  -0.338   6.530  0.4182 -0.3181 -0.1116
  135OSM    H4F14707   3.637  -0.429   6.576 -3.8444 -0.8689  3.4750
  135OSM    H4G14708   3.483  -0.344   6.524  0.2679  1.7091 -0.1715
  135OSM    C5F14709   3.649  -0.315   6.390 -0.4296  0.1664  0.5947
  135OSM    H5F14710   3.759  -0.302   6.394 -0.5060  1.1369 -0.1271
  135OSM    H5G14711   3.612  -0.221   6.344 -1.3496 -0.2802  0.3710
  135OSM    C6F14712   3.623  -0.435   6.300  0.6708  0.2229  0.0311
  135OSM    H6F14713   3.529  -0.478   6.340  1.6858 -1.6182  0.5098
  135OSM    H6G14714   3.698  -0.515   6.314  0.5760  0.3142  1.1100
  135OSM    C7F14715   3.617  -0.404   6.155 -0.9291 -0.3539  0.4818
  135OSM    H7F14716   3.716  -0.362   6.125 -1.3919  0.5504  0.2086
  135OSM    H7G14717   3.537  -0.329   6.142  1.9071  2.4276 -3.3931
  135OSM    C8F14718   3.605  -0.537   6.073 -0.4707 -0.7697  0.1863
  135OSM    H8F14719   3.609  -0.624   6.143 -0.2850 -0.7984  0.1404
  135OSM    H8G14720   3.691  -0.551   6.004 -1.8783 -2.9017 -1.2329
  135OSM    C9F14721   3.484  -0.546   5.988  0.5580 -0.5850 -0.0434
  135OSM    H9F14722   3.395  -0.577   6.045  1.3298 -2.5820  0.1451
  135OSM   C10F14723   3.467  -0.498   5.861  0.2000 -0.4349 -0.1427
  135OSM   H10F14724   3.370  -0.517   5.814 -0.1643  0.7759  0.0933
  135OSM   C11F14725   3.572  -0.427   5.780  0.2937  0.8901 -0.3417
  135OSM   H11F14726   3.663  -0.399   5.836  2.0899 -0.8270 -2.2499
  135OSM   H11G14727   3.523  -0.333   5.747 -1.0627  0.2450 -0.2642
  135OSM   C12F14728   3.616  -0.506   5.660 -0.0723  0.1599 -0.0437
  135OSM   H12F14729   3.694  -0.580   5.690 -1.5293 -0.7438  1.7271
  135OSM   H12G14730   3.671  -0.444   5.587  0.0825  1.1164  0.8645
  135OSM   C13F14731   3.512  -0.592   5.594 -0.3099  0.5541 -0.3584
  135OSM   H13F14732   3.424  -0.531   5.565  0.7665  1.6244 -1.4894
  135OSM   H13G14733   3.491  -0.677   5.663  1.5589 -0.5481 -1.0515
  135OSM   C14F14734   3.567  -0.665   5.464  0.1256 -0.7483 -0.6562
  135OSM   H14F14735   3.503  -0.755   5.453 -1.0779 -0.2325  1.5144
  135OSM   H14G14736   3.673  -0.691   5.485  0.2003  0.7677  1.1850
  135OSM   C15F14737   3.548  -0.571   5.338 -0.6852  0.2723  0.2821
  135OSM   H15F14738   3.642  -0.581   5.280 -1.1876 -1.0690 -0.3524
  135OSM   H15G14739   3.522  -0.468   5.371  0.3168  0.6440 -0.0530
  135OSM   C16F14740   3.429  -0.623   5.250 -0.1377  0.3869  0.1801
  135OSM   H16F14741   3.331  -0.613   5.303 -0.9853 -2.0766 -0.7850
  135OSM   H16G14742   3.452  -0.730   5.230  0.3109  0.1554  1.8260
  135OSM   C17F14743   3.421  -0.545   5.118  0.1089 -0.0665 -0.1664
  135OSM   H17F14744   3.526  -0.538   5.085  0.3720 -1.9943  0.1217
  135OSM   H17G14745   3.372  -0.446   5.132 -0.5412 -0.5182  0.9287
  135OSM   C18F14746   3.340  -0.622   5.012  0.2252 -0.5486  0.2907
  135OSM   H18F14747   3.237  -0.641   5.048  0.1267  1.1802  1.0252
  135OSM   H18G14748   3.388  -0.721   4.996 -0.5730 -1.0773  1.0758
  135OSM   H18H14749   3.344  -0.559   4.921  1.7455 -1.7322 -0.4957
  136OSM      N14750   6.119   0.137   7.211  0.5252  0.0326 -0.2285
  136OSM    C1514751   5.991   0.121   7.290 -0.0011 -0.0163 -0.5979
  136OSM   H15A14752   5.990   0.038   7.358 -0.3675  1.0765  0.7749
  136OSM   H15B14753   5.902   0.124   7.228 -0.5310  0.3292  0.1633
  136OSM   H15C14754   5.990   0.209   7.352 -1.4184  1.0914 -2.0910
  136OSM    C1414755   6.112   0.016   7.116 -0.0161 -0.1352  0.7862
  136OSM   H14A14756   6.189   0.021   7.041 -0.5505 -2.7680 -0.0512
  136OSM   H14B14757   6.018   0.011   7.062 -0.0461 -0.7094  0.8884
  136OSM   H14C14758   6.125  -0.074   7.175  0.5935 -1.2792 -1.0293
  136OSM    C1314759   6.115   0.259   7.130  0.4346 -0.3130  0.1257
  136OSM   H13A14760   6.103   0.340   7.200  0.7089 -1.3631  1.4232
  136OSM   H13B14761   6.030   0.270   7.063  0.8299 -0.4294 -0.4018
  136OSM   H13C14762   6.199   0.287   7.069 -1.3035  1.1713 -1.7367
  136OSM    C1214763   6.239   0.132   7.310  0.8358 -0.4761  0.3586
  136OSM   H12A14764   6.240   0.049   7.379  2.3091 -0.8547 -0.0702
  136OSM   H12B14765   6.239   0.214   7.381  0.8571 -1.4725  1.5349
  136OSM    C1114766   6.378   0.126   7.232  0.3027 -0.6663 -0.0959
  136OSM   H11A14767   6.463   0.139   7.302  1.5284 -0.2548 -1.6190
  136OSM   H11B14768   6.378   0.219   7.171  0.4243  0.6221  1.7688
  136OSM      P14769   6.473  -0.114   7.211  0.1322 -0.5011 -0.0793
  136OSM    O1314770   6.612  -0.075   7.252  0.3488  0.8104 -0.6266
  136OSM    O1414771   6.389  -0.167   7.320 -0.1257  0.1128  0.1657
  136OSM    O1114772   6.467  -0.219   7.091  0.4155 -0.3227 -0.3595
  136OSM    O1214773   6.396   0.016   7.140  0.3633  1.3744 -0.3178
  136OSM    C1S14774   6.368  -0.217   6.989 -0.0058 -0.1316 -0.7179
  136OSM    H1S14775   6.305  -0.125   6.995 -0.4099 -0.3480 -1.4897
  136OSM    H1T14776   6.308  -0.311   6.989 -2.6473  1.3461  2.1258
  136OSM     NF14777   6.309  -0.207   6.752 -0.3302  0.6730  0.1312
  136OSM    HNF14778   6.285  -0.292   6.705  2.7339 -0.1810 -0.1364
  136OSM    C2S14779   6.425  -0.222   6.847  0.2021  0.9419  0.7116
  136OSM    H2S14780   6.491  -0.134   6.831 -0.0026  0.7764 -1.3097
  136OSM    C3S14781   6.521  -0.337   6.815 -0.8475  0.0423  0.1702
  136OSM    H3S14782   6.468  -0.434   6.823 -1.0829  0.1894  0.3875
  136OSM     O314783   6.627  -0.353   6.908  0.1426  0.1207  0.1451
  136OSM    HO314784   6.595  -0.292   6.974 -3.1294 -0.7443 -0.4522
  136OSM    C4S14785   6.571  -0.334   6.666  0.0052  0.1719  0.0488
  136OSM    H4S14786   6.493  -0.367   6.596 -0.2465 -0.4788  0.6291
  136OSM    C5S14787   6.688  -0.289   6.611  0.3958 -0.1225  0.2725
  136OSM    H5S14788   6.759  -0.247   6.684  0.1421  1.3713 -0.3123
  136OSM    C6S14789   6.729  -0.280   6.468 -0.3660  0.2609  0.1943
  136OSM    H6S14790   6.823  -0.338   6.455 -1.8066 -2.3077  0.5514
  136OSM    H6T14791   6.750  -0.178   6.431  0.9727 -0.4177 -1.0144
  136OSM    C7S14792   6.631  -0.337   6.369  0.2127  0.0571 -0.0965
  136OSM    H7S14793   6.534  -0.283   6.370 -0.3665 -0.9229  1.8196
  136OSM    H7T14794   6.600  -0.443   6.385 -0.6198  0.2949 -0.0868
  136OSM    C8S14795   6.667  -0.322   6.223  0.1373  0.0905 -0.3803
  136OSM    H8S14796   6.670  -0.216   6.191  0.2717  0.9913  2.3622
  136OSM    H8T14797   6.591  -0.380   6.167  0.4743 -1.4951  0.7314
  136OSM    C9S14798   6.806  -0.379   6.193 -0.2647 -0.1381  0.1416
  136OSM    H9S14799   6.814  -0.484   6.231  1.5726 -0.7412 -1.6749
  136OSM    H9T14800   6.887  -0.333   6.254 -0.6353 -0.5328  0.9470
  136OSM   C10S14801   6.842  -0.361   6.049 -0.2792 -0.6781  0.8550
  136OSM   H10S14802   6.842  -0.252   6.032 -0.1409 -0.3743  2.6318
  136OSM   H10T14803   6.765  -0.397   5.977 -0.2220 -1.8421  1.3533
  136OSM   C11S14804   6.972  -0.431   6.017  0.3861 -0.4690 -0.6502
  136OSM   H11S14805   6.953  -0.540   6.020  0.0568 -0.4137  1.5893
  136OSM   H11T14806   7.044  -0.412   6.100  0.3875 -0.5823 -0.6261
  136OSM   C12S14807   7.049  -0.391   5.890 -0.4467  0.0266  0.6099
  136OSM   H12S14808   7.139  -0.454   5.875 -1.9152 -2.0636  0.1813
  136OSM   H12T14809   7.087  -0.286   5.892 -0.3171  0.1031 -1.9133
  136OSM   C13S14810   6.948  -0.382   5.776 -0.4867 -0.0863 -0.3758
  136OSM   H13S14811   6.871  -0.304   5.797 -0.2223 -0.6667  3.3096
  136OSM   H13T14812   6.891  -0.477   5.764 -1.2916  0.6688 -3.5064
  136OSM   C14S14813   7.008  -0.374   5.633 -0.8683 -0.0541 -0.7846
  136OSM   H14S14814   7.089  -0.449   5.631 -0.1493  0.7052 -0.4883
  136OSM   H14T14815   7.062  -0.277   5.631  2.0718 -1.5410  0.7387
  136OSM   C15S14816   6.913  -0.385   5.517 -0.5514 -0.1752 -0.7289
  136OSM   H15S14817   6.808  -0.379   5.552 -1.5619 -4.7556 -2.2362
  136OSM   H15T14818   6.929  -0.483   5.468  0.9284  0.4886 -1.6500
  136OSM   C16S14819   6.924  -0.275   5.409  0.7911  0.2702 -0.0346
  136OSM   H16S14820   7.026  -0.259   5.368  0.4970  0.7464 -0.5894
  136OSM   H16T14821   6.881  -0.185   5.459  0.7077 -0.8235  2.0000
  136OSM   C17S14822   6.844  -0.296   5.286  0.4323 -0.6520  0.6894
  136OSM   H17S14823   6.741  -0.326   5.315  0.2075 -0.9972 -0.3915
  136OSM   H17T14824   6.892  -0.381   5.233 -0.6163 -0.6596 -0.3120
  136OSM   C18S14825   6.833  -0.173   5.198  0.4000 -0.2303 -0.5215
  136OSM   H18S14826   6.926  -0.167   5.136  1.7988 -0.2066  1.4951
  136OSM   H18T14827   6.839  -0.087   5.267  0.9904 -0.7583  0.1021
  136OSM   H18U14828   6.738  -0.177   5.140 -0.5951  1.2675  0.9235
  136OSM    C1F14829   6.221  -0.111   6.738 -0.4711 -0.1096  0.3319
  136OSM     OF14830   6.231  -0.003   6.795 -0.5466  0.5010 -0.3004
  136OSM    C2F14831   6.101  -0.141   6.656 -0.3178  1.1374 -0.5721
  136OSM    H2F14832   6.014  -0.112   6.719  0.0670  0.3493  0.3420
  136OSM    H2G14833   6.091  -0.251   6.653 -0.7074  1.1775 -0.7960
  136OSM    C3F14834   6.102  -0.077   6.516 -0.3221  1.1895 -0.1289
  136OSM    H3F14835   6.113   0.033   6.525 -0.0763  1.1584 -0.0248
  136OSM    H3G14836   5.999  -0.097   6.480 -0.8561  0.2624  1.7504
  136OSM    C4F14837   6.201  -0.143   6.420 -0.0331 -0.1054 -0.4242
  136OSM    H4F14838   6.155  -0.240   6.390 -1.6275 -0.3170  2.3824
  136OSM    H4G14839   6.302  -0.158   6.463  0.8307  0.2404 -2.2062
  136OSM    C5F14840   6.207  -0.070   6.290 -0.2673 -0.4913  0.7042
  136OSM    H5F14841   6.228   0.038   6.306  2.8186 -0.8313 -0.3328
  136OSM    H5G14842   6.111  -0.077   6.234 -0.4217  1.1510  0.7085
  136OSM    C6F14843   6.303  -0.117   6.180  0.2250 -0.0560 -0.3784
  136OSM    H6F14844   6.297  -0.227   6.164 -1.4023 -0.1374  0.5689
  136OSM    H6G14845   6.405  -0.086   6.208  0.3735  0.5726 -1.5710
  136OSM    C7F14846   6.278  -0.046   6.045  0.2352 -0.1558 -0.6761
  136OSM    H7F14847   6.265   0.063   6.064 -0.5066  0.1738 -2.7415
  136OSM    H7G14848   6.178  -0.070   6.002 -0.5300  1.1676  0.3074
  136OSM    C8F14849   6.385  -0.057   5.937 -0.0116 -0.0862 -0.2511
  136OSM    H8F14850   6.374  -0.162   5.903  2.8706 -1.1606  1.7433
  136OSM    H8G14851   6.489  -0.054   5.976  0.0928  0.5238 -0.5616
  136OSM    C9F14852   6.374   0.040   5.825  0.4760 -0.1456 -0.1404
  136OSM    H9F14853   6.271   0.035   5.785 -0.1450 -2.7280  1.5402
  136OSM   C10F14854   6.468   0.117   5.761  0.8150 -0.6891  0.0142
  136OSM   H10F14855   6.443   0.193   5.687 -0.6412  0.6699  1.8117
  136OSM   C11F14856   6.615   0.108   5.782 -0.2660 -0.5652 -0.2163
  136OSM   H11F14857   6.641   0.009   5.826 -1.5193 -0.2796  1.2823
  136OSM   H11G14858   6.637   0.184   5.860 -1.6589 -0.0918 -0.2602
  136OSM   C12F14859   6.698   0.117   5.654  0.2596  0.0938  0.0955
  136OSM   H12F14860   6.660   0.063   5.565 -0.0408  1.0898 -0.3940
  136OSM   H12G14861   6.800   0.076   5.671 -0.4854 -0.8721  2.5899
  136OSM   C13F14862   6.717   0.259   5.594 -0.3977 -0.0440  0.4250
  136OSM   H13F14863   6.765   0.326   5.668 -0.8757 -0.5604  1.2195
  136OSM   H13G14864   6.618   0.300   5.562 -0.8260 -0.8030  0.7378
  136OSM   C14F14865   6.803   0.242   5.464 -1.3808 -0.0347 -0.2276
  136OSM   H14F14866   6.744   0.186   5.388  1.3514  1.0718 -3.4610
  136OSM   H14G14867   6.901   0.193   5.482 -0.1562  2.6832  1.0606
  136OSM   C15F14868   6.854   0.380   5.407  0.0813  0.3025  0.0512
  136OSM   H15F14869   6.917   0.430   5.484  2.0698 -0.2959 -1.1456
  136OSM   H15G14870   6.765   0.447   5.414  0.9153  2.0219 -3.4422
  136OSM   C16F14871   6.903   0.393   5.261 -0.1668 -0.1833 -0.1242
  136OSM   H16F14872   6.832   0.353   5.187 -0.1898 -0.0190 -0.1920
  136OSM   H16G14873   7.000   0.341   5.243 -0.5169 -0.5676 -0.8870
  136OSM   C17F14874   6.908   0.539   5.212  0.5628 -0.5730  0.0958
  136OSM   H17F14875   6.900   0.527   5.101 -0.8606  0.9996 -0.0121
  136OSM   H17G14876   7.002   0.592   5.238  0.1832  0.4247 -0.5044
  136OSM   C18F14877   6.791   0.626   5.245  0.4395  0.2493 -0.2866
  136OSM   H18F14878   6.795   0.665   5.349  1.0024 -0.6579  0.0423
  136OSM   H18G14879   6.690   0.578   5.248 -0.2443  1.6881  0.9751
  136OSM   H18H14880   6.781   0.716   5.182 -2.3943  1.1196  1.1993
  137OSM      N14881   2.676   6.319   7.101  0.1423 -0.0998  0.3658
  137OSM    C1514882   2.676   6.260   6.967  0.2180  0.8342 -0.2455
  137OSM   H15A14883   2.617   6.170   6.959 -1.1754  1.8934 -3.5329
  137OSM   H15B14884   2.780   6.245   6.939 -0.0850 -1.5460 -0.2986
  137OSM   H15C14885   2.620   6.327   6.903  1.0198  3.7380  1.8750
  137OSM    C1414886   2.714   6.206   7.187  0.0408  0.4224  0.3867
  137OSM   H14A14887   2.641   6.126   7.192  0.0015  0.5374  3.2881
  137OSM   H14B14888   2.728   6.236   7.290 -2.1099 -1.0986  1.2005
  137OSM   H14C14889   2.814   6.171   7.166 -0.3135 -0.4323  0.0535
  137OSM    C1314890   2.794   6.406   7.089  0.4043  0.1910  0.4217
  137OSM   H13A14891   2.782   6.463   6.998 -2.3351 -1.7099 -0.5402
  137OSM   H13B14892   2.889   6.355   7.093  0.4630  0.1528 -0.8774
  137OSM   H13C14893   2.794   6.477   7.170 -1.5237 -1.3650  1.8710
  137OSM    C1214894   2.552   6.386   7.147 -0.2364 -0.1832  0.0882
  137OSM   H12A14895   2.575   6.431   7.243  0.3382 -0.1115 -0.0756
  137OSM   H12B14896   2.479   6.307   7.160  0.5065 -0.9597 -0.3790
  137OSM    C1114897   2.502   6.500   7.052 -0.6805  0.1823  0.0470
  137OSM   H11A14898   2.396   6.518   7.081 -0.4789  2.9040 -0.6002
  137OSM   H11B14899   2.508   6.471   6.945  0.7898 -0.9070  0.3886
  137OSM      P14900   2.545   6.724   7.169  0.1030  0.6559 -0.0649
  137OSM    O1314901   2.529   6.661   7.304 -0.3178  0.8423 -0.3018
  137OSM    O1414902   2.651   6.829   7.173 -0.4313 -0.3722  0.7154
  137OSM    O1114903   2.411   6.781   7.110 -0.1174  0.4888  0.0416
  137OSM    O1214904   2.588   6.612   7.073 -0.4973 -0.2708 -0.8427
  137OSM    C1S14905   2.411   6.860   6.985 -0.0915 -0.3726 -0.0610
  137OSM    H1S14906   2.506   6.916   6.968 -0.6124  0.2916 -0.8520
  137OSM    H1T14907   2.344   6.948   6.990  1.4304  0.8437 -0.2125
  137OSM     NF14908   2.424   6.850   6.738  0.2489  0.1500 -0.1715
  137OSM    HNF14909   2.353   6.895   6.684  0.0540  1.2058  0.9014
  137OSM    C2S14910   2.388   6.772   6.862  0.3981 -0.4302  0.6842
  137OSM    H2S14911   2.457   6.685   6.867  0.4056 -0.4581  0.1143
  137OSM    C3S14912   2.239   6.731   6.854  0.2840  0.4936  0.0284
  137OSM    H3S14913   2.178   6.824   6.847 -1.5607 -0.4453  2.4077
  137OSM     O314914   2.191   6.671   6.978 -0.1092 -0.3300  0.0465
  137OSM    HO314915   2.260   6.686   7.043 -1.1501  0.5382  0.9939
  137OSM    C4S14916   2.211   6.649   6.730  0.0277 -0.0646 -0.5588
  137OSM    H4S14917   2.173   6.714   6.649 -0.3862  1.4557  0.7825
  137OSM    C5S14918   2.220   6.513   6.721  1.3428 -0.2369  0.6336
  137OSM    H5S14919   2.236   6.462   6.817 -0.6508 -1.0608  0.5822
  137OSM    C6S14920   2.179   6.424   6.603  0.0883  0.0137  0.8141
  137OSM    H6S14921   2.088   6.365   6.629  0.6567 -0.9810  0.6170
  137OSM    H6T14922   2.266   6.361   6.574 -0.9493 -1.0173 -0.1431
  137OSM    C7S14923   2.153   6.510   6.478  0.0628  0.3978 -0.1818
  137OSM    H7S14924   2.229   6.588   6.456 -2.4085  2.1482 -3.3564
  137OSM    H7T14925   2.060   6.570   6.494  0.4249  1.2919 -1.3018
  137OSM    C8S14926   2.135   6.413   6.362  0.4596  0.1246 -0.3558
  137OSM    H8S14927   2.042   6.359   6.392  0.0656  0.5507 -0.8105
  137OSM    H8T14928   2.217   6.338   6.357  1.0085  0.8261 -2.4484
  137OSM    C9S14929   2.136   6.487   6.230 -0.1956 -0.1971  0.3182
  137OSM    H9S14930   2.221   6.557   6.223  0.8280 -1.5309 -0.9852
  137OSM    H9T14931   2.043   6.547   6.217 -0.9963 -1.4277  0.1424
  137OSM   C10S14932   2.124   6.384   6.115  0.0864  0.1150  0.4832
  137OSM   H10S14933   2.030   6.324   6.115  0.0507  0.1032 -1.2991
  137OSM   H10T14934   2.212   6.319   6.132  0.2538 -0.1516 -1.2458
  137OSM   C11S14935   2.118   6.474   5.991 -0.0372 -0.4623 -0.1595
  137OSM   H11S14936   2.213   6.532   5.986  0.0171 -0.5245  0.1810
  137OSM   H11T14937   2.036   6.546   6.012  1.8515  1.4409  1.1728
  137OSM   C12S14938   2.092   6.394   5.859 -0.4310  0.0774 -0.4039
  137OSM   H12S14939   1.981   6.393   5.847 -0.4733 -2.7170 -0.5152
  137OSM   H12T14940   2.126   6.289   5.873  3.2461  0.8394 -2.4190
  137OSM   C13S14941   2.157   6.458   5.733  0.4122  0.5445  0.0866
  137OSM   H13S14942   2.264   6.480   5.754  0.8464  0.5771 -1.9701
  137OSM   H13T14943   2.106   6.556   5.720 -1.8769 -0.0802  3.1145
  137OSM   C14S14944   2.136   6.364   5.613  0.3653 -0.4241 -0.5873
  137OSM   H14S14945   2.027   6.358   5.594 -0.1931  3.0172  0.8105
  137OSM   H14T14946   2.181   6.267   5.641 -0.1029 -0.2968  0.6640
  137OSM   C15S14947   2.196   6.411   5.486 -1.2346 -0.5078 -0.3243
  137OSM   H15S14948   2.306   6.397   5.490 -1.0951  0.4662 -0.5675
  137OSM   H15T14949   2.168   6.518   5.499  0.9528 -0.0205  0.7622
  137OSM   C16S14950   2.142   6.351   5.361 -0.2492 -0.5482  0.3236
  137OSM   H16S14951   2.031   6.345   5.367 -0.2399 -0.9236  0.1469
  137OSM   H16T14952   2.170   6.244   5.353 -1.8878 -0.9411 -0.7883
  137OSM   C17S14953   2.187   6.416   5.225  0.6323  0.4981  0.4109
  137OSM   H17S14954   2.186   6.336   5.147 -0.1390 -0.2043  1.1227
  137OSM   H17T14955   2.292   6.446   5.244  0.8741 -1.0923  1.8497
  137OSM   C18S14956   2.111   6.538   5.179 -0.3840 -0.0374  0.6189
  137OSM   H18S14957   2.103   6.605   5.268  0.9291 -0.2953  0.9504
  137OSM   H18T14958   2.007   6.510   5.152 -0.8255  0.4982  1.6791
  137OSM   H18U14959   2.164   6.585   5.094 -0.1900 -2.7217 -0.8387
  137OSM    C1F14960   2.546   6.870   6.697 -0.2049 -0.8031 -0.1333
  137OSM     OF14961   2.645   6.822   6.753  0.4658  0.1938 -0.0612
  137OSM    C2F14962   2.561   6.959   6.571 -0.0593  0.5607  0.2414
  137OSM    H2F14963   2.551   7.064   6.604 -0.3224  0.5546  0.1877
  137OSM    H2G14964   2.465   6.939   6.518 -2.0775 -0.2446  3.8882
  137OSM    C3F14965   2.696   6.940   6.508  0.5488  0.0721  0.6115
  137OSM    H3F14966   2.709   6.833   6.481 -0.8633  0.3463 -1.3704
  137OSM    H3G14967   2.777   6.961   6.581 -0.3359  1.8151  1.1397
  137OSM    C4F14968   2.725   7.029   6.381  0.7147 -0.0340 -0.0241
  137OSM    H4F14969   2.817   6.994   6.330 -0.5965 -0.2561 -2.3666
  137OSM    H4G14970   2.747   7.129   6.423  0.9709 -0.2912  0.4662
  137OSM    C5F14971   2.610   6.999   6.285 -0.3511 -0.8882 -0.1769
  137OSM    H5F14972   2.510   7.007   6.331 -0.6150 -1.8498 -0.5626
  137OSM    H5G14973   2.620   6.892   6.256 -0.1279 -0.6990 -0.8199
  137OSM    C6F14974   2.617   7.080   6.147 -0.2972 -0.0966 -0.1943
  137OSM    H6F14975   2.648   7.184   6.169 -0.0186 -0.4942  1.4206
  137OSM    H6G14976   2.516   7.081   6.101 -0.5532  0.7668  0.3591
  137OSM    C7F14977   2.729   7.027   6.060 -0.5926 -0.4705 -0.6675
  137OSM    H7F14978   2.752   6.920   6.080  0.8908 -0.6145 -2.8222
  137OSM    H7G14979   2.819   7.086   6.089 -1.3316 -0.7744  2.6346
  137OSM    C8F14980   2.697   7.040   5.912 -0.6407  0.4712  0.5126
  137OSM    H8F14981   2.626   6.958   5.887  0.6336 -0.7922  0.8852
  137OSM    H8G14982   2.794   7.002   5.875 -0.4630  1.4899 -0.1069
  137OSM    C9F14983   2.661   7.175   5.853  0.0832  0.4204  0.0894
  137OSM    H9F14984   2.560   7.208   5.881 -0.6359 -1.6291  0.1068
  137OSM   C10F14985   2.732   7.247   5.761  0.1986  0.0772  0.3903
  137OSM   H10F14986   2.690   7.343   5.729 -1.0207  0.1280  2.0035
  137OSM   C11F14987   2.877   7.223   5.729  0.5108 -0.4019 -0.3364
  137OSM   H11F14988   2.904   7.135   5.790 -0.4734 -1.9088 -1.9817
  137OSM   H11G14989   2.944   7.308   5.754 -0.0599  0.3085 -1.1581
  137OSM   C12F14990   2.896   7.171   5.588 -0.5228 -0.2680  0.3711
  137OSM   H12F14991   2.849   7.071   5.581 -1.5485  0.1469  1.1613
  137OSM   H12G14992   3.006   7.157   5.583 -0.1013  1.4230  3.0511
  137OSM   C13F14993   2.847   7.274   5.485 -0.1297  0.4962 -0.7386
  137OSM   H13F14994   2.896   7.372   5.504  1.2108 -0.6833  2.5273
  137OSM   H13G14995   2.738   7.293   5.494 -0.0591  0.4590  0.3385
  137OSM   C14F14996   2.880   7.247   5.338  0.0095 -0.4414 -0.5541
  137OSM   H14F14997   2.819   7.159   5.308 -2.5648  1.2261 -0.5185
  137OSM   H14G14998   2.984   7.207   5.335 -0.5566 -2.1420  0.6269
  137OSM   C15F14999   2.855   7.367   5.241 -0.1544  0.8280  0.5899
  137OSM   H15F15000   2.916   7.453   5.277 -0.9835  0.9295  1.7955
  137OSM   H15G15001   2.751   7.405   5.249 -0.1636  1.4536 -1.6160
  137OSM   C16F15002   2.903   7.332   5.101 -0.0065  0.4188  0.4157
  137OSM   H16F15003   2.882   7.227   5.073  0.5303  0.5685 -0.5911
  137OSM   H16G15004   3.013   7.342   5.101  0.3287 -2.5821  0.2571
  137OSM   C17F15005   2.844   7.414   4.986  0.0865  0.7237 -0.1928
  137OSM   H17F15006   2.736   7.391   4.976  0.1524  1.1087 -2.1512
  137OSM   H17G15007   2.886   7.364   4.896  0.0422  1.2014 -0.4802
  137OSM   C18F15008   2.874   7.565   4.978  0.0126  0.5475 -0.7385
  137OSM   H18F15009   2.777   7.614   4.958  0.1054  0.2850 -1.9072
  137OSM   H18G15010   2.946   7.607   4.905  0.7209  1.6310  0.5260
  137OSM   H18H15011   2.895   7.614   5.076  3.5265 -1.6976 -0.1679
  138OSM      N15012   4.751   6.163   7.078 -0.5351 -0.7264  0.2588
  138OSM    C1515013   4.756   6.069   6.967 -0.2177 -0.3372  0.2412
  138OSM   H15A15014   4.758   5.968   7.004 -1.0080 -0.5751 -0.3491
  138OSM   H15B15015   4.845   6.078   6.906 -0.0097 -0.9208  0.4508
  138OSM   H15C15016   4.679   6.082   6.892 -1.6962 -0.1760  1.7365
  138OSM    C1415017   4.629   6.144   7.161 -0.1211 -0.3699  0.1795
  138OSM   H14A15018   4.537   6.159   7.107 -0.5065 -3.0359 -0.0673
  138OSM   H14B15019   4.626   6.204   7.251  0.1204  1.9040 -1.2681
  138OSM   H14C15020   4.622   6.039   7.186 -0.7475  0.0146  1.7250
  138OSM    C1315021   4.875   6.135   7.153  0.1512  0.1891  0.3243
  138OSM   H13A15022   4.893   6.211   7.229  0.0974 -0.6440  1.1924
  138OSM   H13B15023   4.960   6.151   7.088  0.4150  0.3587  0.7050
  138OSM   H13C15024   4.872   6.038   7.200 -2.2642  0.3561  0.6541
  138OSM    C1215025   4.759   6.306   7.031 -0.8260  0.1956  0.5147
  138OSM   H12A15026   4.671   6.311   6.968 -2.2684 -3.0955  2.0457
  138OSM   H12B15027   4.846   6.314   6.968 -1.5286 -1.9057 -0.8253
  138OSM    C1115028   4.752   6.420   7.137 -0.4222 -0.5103  0.7303
  138OSM   H11A15029   4.796   6.508   7.085 -0.1675  0.2129  2.1159
  138OSM   H11B15030   4.821   6.409   7.223 -0.4324  0.0761  0.8226
  138OSM      P15031   4.532   6.559   7.139  0.1259  0.0040 -0.2834
  138OSM    O1315032   4.404   6.550   7.213 -0.1037 -0.0585  0.4739
  138OSM    O1415033   4.618   6.669   7.170 -0.4606 -0.1557 -0.0945
  138OSM    O1115034   4.507   6.544   6.982 -0.3522  0.8819 -0.0393
  138OSM    O1215035   4.614   6.432   7.171  0.2956  0.6738 -0.1296
  138OSM    C1S15036   4.432   6.434   6.919 -0.0558  0.0048 -0.0326
  138OSM    H1S15037   4.324   6.444   6.940 -0.5060 -4.1824  0.6992
  138OSM    H1T15038   4.465   6.332   6.950 -0.2976  0.4805  1.9454
  138OSM     NF15039   4.367   6.337   6.701 -0.2518  0.5674 -0.1676
  138OSM    HNF15040   4.410   6.261   6.652 -3.5558 -0.1926 -2.2378
  138OSM    C2S15041   4.458   6.432   6.763  0.0329  0.1675 -0.0796
  138OSM    H2S15042   4.438   6.534   6.724 -1.6349  0.1600  0.6488
  138OSM    C3S15043   4.608   6.398   6.742  0.8048 -0.0747 -0.0180
  138OSM    H3S15044   4.620   6.297   6.787  1.1917 -0.0023  0.0496
  138OSM     O315045   4.699   6.492   6.801  0.1975 -0.0677 -0.2226
  138OSM    HO315046   4.651   6.549   6.862  0.2459 -1.0032  0.7110
  138OSM    C4S15047   4.640   6.382   6.596 -0.0066 -0.1612 -0.4606
  138OSM    H4S15048   4.598   6.462   6.533 -0.6628 -1.5027 -1.7824
  138OSM    C5S15049   4.714   6.284   6.541 -0.1441  0.7405 -0.5929
  138OSM    H5S15050   4.751   6.198   6.599  1.6937  0.7521 -1.6538
  138OSM    C6S15051   4.748   6.255   6.397 -0.0655 -0.0238 -0.3905
  138OSM    H6S15052   4.666   6.202   6.344 -0.2105 -0.0898 -0.1021
  138OSM    H6T15053   4.836   6.186   6.399 -1.1343 -1.4235  0.1552
  138OSM    C7S15054   4.770   6.378   6.307 -0.0046  0.0451  0.1389
  138OSM    H7S15055   4.837   6.458   6.344  0.7014  0.4340 -1.8505
  138OSM    H7T15056   4.667   6.418   6.302 -0.3333 -0.7371  0.3772
  138OSM    C8S15057   4.819   6.336   6.166 -0.3013 -0.3397 -0.1470
  138OSM    H8S15058   4.758   6.261   6.113 -1.0456 -0.4391  0.8211
  138OSM    H8T15059   4.916   6.285   6.184  1.0253  2.2784  0.6745
  138OSM    C9S15060   4.856   6.454   6.073  0.3166  0.2963  0.3889
  138OSM    H9S15061   4.945   6.506   6.114  0.1346 -1.0499  2.6478
  138OSM    H9T15062   4.771   6.526   6.064  2.2557  2.8425  1.2645
  138OSM   C10S15063   4.891   6.407   5.921  0.3083  0.4620  0.5628
  138OSM   H10S15064   4.792   6.369   5.890 -0.0323  2.0053 -0.3182
  138OSM   H10T15065   4.971   6.329   5.928  1.1090  1.3511  1.9369
  138OSM   C11S15066   4.938   6.530   5.849 -0.3335 -0.0995 -0.2748
  138OSM   H11S15067   5.029   6.570   5.898 -1.0838 -0.2954  1.3386
  138OSM   H11T15068   4.854   6.603   5.855  0.2224  0.4190  2.8305
  138OSM   C12S15069   4.976   6.505   5.703 -0.0182  0.3251 -0.0601
  138OSM   H12S15070   4.888   6.455   5.657 -0.5328  0.6277  0.5900
  138OSM   H12T15071   5.053   6.425   5.711 -0.0636  0.4388  1.8390
  138OSM   C13S15072   5.031   6.617   5.622  0.0948 -0.0046 -0.3956
  138OSM   H13S15073   5.124   6.657   5.667  0.4573  2.7311 -3.2195
  138OSM   H13T15074   4.962   6.704   5.619  1.5133  1.1424 -0.6913
  138OSM   C14S15075   5.049   6.581   5.475  0.0253  0.6816  0.1383
  138OSM   H14S15076   4.951   6.550   5.431 -0.1619 -2.5768  2.4498
  138OSM   H14T15077   5.104   6.485   5.463  1.2898  1.4771 -0.5137
  138OSM   C15S15078   5.110   6.685   5.395  0.3979  0.1806  0.3269
  138OSM   H15S15079   5.204   6.717   5.443  0.1207  0.6794  0.5447
  138OSM   H15T15080   5.038   6.770   5.397  0.2533  0.0491  2.1907
  138OSM   C16S15081   5.136   6.652   5.241  0.7305  0.7749 -0.3309
  138OSM   H16S15082   5.160   6.741   5.180 -3.0100  0.4438 -2.5684
  138OSM   H16T15083   5.041   6.620   5.193 -0.4881  3.3204  0.2342
  138OSM   C17S15084   5.243   6.542   5.221  0.0347  0.2910  0.0102
  138OSM   H17S15085   5.207   6.446   5.262 -1.3573  0.5880 -0.4838
  138OSM   H17T15086   5.342   6.575   5.261  1.2760 -1.3370 -1.5252
  138OSM   C18S15087   5.276   6.519   5.072 -0.9243 -0.3368 -0.1601
  138OSM   H18S15088   5.282   6.614   5.014  0.2755 -0.8285 -0.8638
  138OSM   H18T15089   5.196   6.456   5.027 -0.5710 -1.5867  0.9022
  138OSM   H18U15090   5.368   6.457   5.072  0.8133  2.0541  1.6883
  138OSM    C1F15091   4.232   6.347   6.708 -0.9129  0.2888  0.2805
  138OSM     OF15092   4.192   6.458   6.737  0.1554 -0.5715 -0.0313
  138OSM    C2F15093   4.152   6.225   6.674  0.0606  0.1999  0.3701
  138OSM    H2F15094   4.092   6.196   6.762 -2.0261  1.1291 -0.6556
  138OSM    H2G15095   4.216   6.138   6.646 -1.2526 -0.9311  0.7697
  138OSM    C3F15096   4.047   6.263   6.563 -0.3197  0.0795  0.1497
  138OSM    H3F15097   3.999   6.352   6.609  2.9189  2.1983 -0.2576
  138OSM    H3G15098   3.984   6.175   6.538  0.2304  0.0389 -1.1988
  138OSM    C4F15099   4.115   6.295   6.427 -0.0597  0.2751  0.9003
  138OSM    H4F15100   4.174   6.205   6.399 -0.9043  0.0616 -0.2893
  138OSM    H4G15101   4.186   6.380   6.435  1.3495 -0.7666 -0.0343
  138OSM    C5F15102   4.018   6.335   6.315 -0.1892  0.2560 -0.1314
  138OSM    H5F15103   3.969   6.432   6.336  0.0390  0.3059  0.1696
  138OSM    H5G15104   3.934   6.264   6.306 -1.5754  2.0612 -3.9003
  138OSM    C6F15105   4.076   6.323   6.172 -0.0204 -0.7214  0.4768
  138OSM    H6F15106   4.139   6.232   6.164  0.1063 -0.5741 -0.3188
  138OSM    H6G15107   4.142   6.410   6.150  2.8341 -2.9945 -0.6379
  138OSM    C7F15108   3.977   6.311   6.050 -0.0257 -0.1255 -0.5788
  138OSM    H7F15109   3.905   6.396   6.044  0.6934  0.8139  2.4236
  138OSM    H7G15110   3.914   6.225   6.080 -2.6537  1.6125 -0.7986
  138OSM    C8F15111   4.048   6.279   5.918 -0.1289 -0.3245  0.0206
  138OSM    H8F15112   4.099   6.182   5.937 -0.7133 -0.4470  1.0251
  138OSM    H8G15113   4.118   6.363   5.899 -0.2985 -0.3151 -0.5805
  138OSM    C9F15114   3.952   6.268   5.804  0.3346 -0.3836  1.0983
  138OSM    H9F15115   3.852   6.307   5.828  1.3336  2.4567  1.0421
  138OSM   C10F15116   3.991   6.235   5.679 -0.0331 -0.6940  0.6259
  138OSM   H10F15117   3.927   6.237   5.589  2.9967 -3.6592 -1.8791
  138OSM   C11F15118   4.134   6.197   5.657  0.5598 -0.3340  0.7242
  138OSM   H11F15119   4.138   6.086   5.655 -2.4849 -0.5606 -2.2309
  138OSM   H11G15120   4.206   6.236   5.731  0.2357 -0.1700  0.9541
  138OSM   C12F15121   4.186   6.252   5.518  0.3107 -0.3189 -0.0653
  138OSM   H12F15122   4.296   6.265   5.512  0.2435  0.3148 -0.0491
  138OSM   H12G15123   4.130   6.345   5.491  0.9850  0.2362  0.4157
  138OSM   C13F15124   4.146   6.143   5.412  0.2612 -0.3916  0.5583
  138OSM   H13F15125   4.037   6.123   5.419 -0.4195  2.6636  0.2889
  138OSM   H13G15126   4.205   6.050   5.429  0.0838 -0.3871  1.2418
  138OSM   C14F15127   4.183   6.187   5.265 -0.1035 -1.0139  0.1423
  138OSM   H14F15128   4.240   6.281   5.279  0.2872 -1.3055  0.5444
  138OSM   H14G15129   4.090   6.221   5.214  0.8243  1.4508 -0.0529
  138OSM   C15F15130   4.261   6.088   5.178 -0.0981 -0.7372 -0.7876
  138OSM   H15F15131   4.291   5.990   5.221 -2.8034 -1.0344  0.6201
  138OSM   H15G15132   4.354   6.142   5.148 -0.6623  0.5477 -0.2900
  138OSM   C16F15133   4.186   6.042   5.052 -0.2741  0.1447  0.6312
  138OSM   H16F15134   4.154   6.138   5.006  1.5937  0.1636 -0.7438
  138OSM   H16G15135   4.096   5.982   5.075  0.0814 -1.4896 -1.8421
  138OSM   C17F15136   4.271   5.958   4.951  0.2775  0.2443  0.1082
  138OSM   H17F15137   4.287   5.857   4.995 -1.3896 -0.8706 -1.7052
  138OSM   H17G15138   4.372   6.001   4.934  0.7221 -0.9339 -0.3570
  138OSM   C18F15139   4.188   5.936   4.822 -0.1920  0.0042  0.2840
  138OSM   H18F15140   4.085   5.923   4.861 -0.7622  4.9471  1.0294
  138OSM   H18G15141   4.216   5.842   4.769  0.8180  0.6200 -0.2882
  138OSM   H18H15142   4.185   6.014   4.742  0.6640 -1.6223 -1.4249
  139OSM      N15143   0.453   3.070   7.615  0.0229  0.1016  0.5755
  139OSM    C1515144   0.441   2.946   7.542 -0.1577  0.1448 -0.2291
  139OSM   H15A15145   0.538   2.900   7.531 -1.1752 -2.3779  0.7411
  139OSM   H15B15146   0.379   2.957   7.454  1.0587  2.0181 -0.9218
  139OSM   H15C15147   0.387   2.872   7.599  0.4339 -2.6328 -3.0310
  139OSM    C1415148   0.315   3.119   7.647  0.3382  0.3486  0.1223
  139OSM   H14A15149   0.307   3.205   7.711  0.5562  0.2392  0.3009
  139OSM   H14B15150   0.256   3.042   7.696 -0.1633  1.6361  1.6213
  139OSM   H14C15151   0.265   3.138   7.554 -1.5116 -0.4897  0.8991
  139OSM    C1315152   0.525   3.040   7.741 -0.1699 -0.8358 -0.3935
  139OSM   H13A15153   0.628   3.021   7.714  0.8803 -0.6215  3.0597
  139OSM   H13B15154   0.471   2.970   7.802 -0.2779  0.5070  1.1032
  139OSM   H13C15155   0.529   3.132   7.797  0.4152 -0.3531 -1.2031
  139OSM    C1215156   0.521   3.178   7.531  0.4394  0.3231 -0.3185
  139OSM   H12A15157   0.618   3.140   7.504  0.3094 -1.2469  1.2606
  139OSM   H12B15158   0.529   3.260   7.601  0.4101 -0.0139  0.0801
  139OSM    C1115159   0.445   3.232   7.405 -0.0682 -0.7366  0.4325
  139OSM   H11A15160   0.393   3.153   7.346 -2.2159  1.3831 -0.6897
  139OSM   H11B15161   0.514   3.282   7.333 -0.7061  0.0912  0.3816
  139OSM      P15162   0.226   3.381   7.390 -0.0751 -0.4786  0.1095
  139OSM    O1315163   0.128   3.277   7.418  0.1014 -0.0439  0.2412
  139OSM    O1415164   0.198   3.519   7.437  0.6209 -0.4633 -0.4762
  139OSM    O1115165   0.264   3.385   7.236  0.2469  0.0610  0.1672
  139OSM    O1215166   0.361   3.328   7.451  0.0656 -0.1304 -0.0130
  139OSM    C1S15167   0.240   3.508   7.160  0.0801 -0.2422  0.0175
  139OSM    H1S15168   0.277   3.601   7.209 -0.3910 -0.4975  0.8654
  139OSM    H1T15169   0.135   3.535   7.135  0.8368  2.0998 -0.9683
  139OSM     NF15170   0.304   3.644   6.958  0.6211  0.3481 -0.2296
  139OSM    HNF15171   0.229   3.664   6.896 -0.2494  2.9500  1.5294
  139OSM    C2S15172   0.314   3.511   7.020 -0.4896  0.6303  0.5314
  139OSM    H2S15173   0.423   3.496   7.036 -0.2422  2.5026  0.8968
  139OSM    C3S15174   0.254   3.400   6.929 -0.2289 -0.1572 -0.7121
  139OSM    H3S15175   0.146   3.409   6.902  0.5162 -1.4380 -4.8177
  139OSM     O315176   0.284   3.271   6.976 -0.1182  0.2044  0.6604
  139OSM    HO315177   0.307   3.290   7.068  0.4649 -0.1437  0.5895
  139OSM    C4S15178   0.319   3.419   6.792 -0.0780  0.1318 -0.3788
  139OSM    H4S15179   0.427   3.399   6.793  0.1200  1.0603  2.1512
  139OSM    C5S15180   0.262   3.457   6.676  0.6319 -0.4528 -0.2308
  139OSM    H5S15181   0.153   3.467   6.689  0.9101  0.8030  1.5039
  139OSM    C6S15182   0.314   3.485   6.536 -0.0379  0.4996  0.4691
  139OSM    H6S15183   0.414   3.438   6.521 -1.5886 -2.1934 -2.5833
  139OSM    H6T15184   0.304   3.594   6.518  0.1982  0.3886 -0.3735
  139OSM    C7S15185   0.215   3.419   6.434  0.1380  0.4740  0.1278
  139OSM    H7S15186   0.118   3.473   6.446  0.8529  1.7898  0.1291
  139OSM    H7T15187   0.196   3.312   6.459  1.4425 -0.0187 -0.8748
  139OSM    C8S15188   0.253   3.437   6.285 -0.1195  0.6046  0.3682
  139OSM    H8S15189   0.359   3.410   6.261 -0.1977  0.8119 -0.2167
  139OSM    H8T15190   0.251   3.542   6.249 -0.4681  0.7128  0.6959
  139OSM    C9S15191   0.158   3.358   6.186 -0.8136 -0.5077 -0.0752
  139OSM    H9S15192   0.054   3.387   6.213  0.0507  1.2166  1.5940
  139OSM    H9T15193   0.167   3.248   6.199  1.2094 -0.1044  2.7107
  139OSM   C10S15194   0.175   3.385   6.037  0.1817 -0.4105 -0.3795
  139OSM   H10S15195   0.137   3.489   6.024 -0.6831 -0.1551  3.1561
  139OSM   H10T15196   0.105   3.317   5.983  0.1199  0.5858 -1.5919
  139OSM   C11S15197   0.312   3.361   5.983 -0.5373  0.6988  0.0770
  139OSM   H11S15198   0.352   3.273   6.037  0.6508  1.1958  0.0339
  139OSM   H11T15199   0.391   3.438   5.993  0.8023 -0.6740  0.3994
  139OSM   C12S15200   0.314   3.329   5.835  0.2075 -0.1570  0.3475
  139OSM   H12S15201   0.255   3.402   5.775 -2.1501  0.8197  3.5607
  139OSM   H12T15202   0.272   3.229   5.811 -1.7766  0.2006  2.0256
  139OSM   C13S15203   0.460   3.330   5.791  0.0088  0.0587  0.3608
  139OSM   H13S15204   0.525   3.298   5.876  0.7084 -0.2019 -0.2607
  139OSM   H13T15205   0.493   3.434   5.771  1.2065 -0.4262 -0.2850
  139OSM   C14S15206   0.504   3.235   5.676  0.4917  0.1307  0.3173
  139OSM   H14S15207   0.495   3.132   5.717  1.3164  0.5784  1.6767
  139OSM   H14T15208   0.612   3.245   5.654  1.3151 -2.3210  2.7064
  139OSM   C15S15209   0.425   3.260   5.547 -0.6973 -0.5363 -0.5248
  139OSM   H15S15210   0.442   3.366   5.518 -1.6085 -0.2855 -0.1581
  139OSM   H15T15211   0.318   3.249   5.575 -0.5387  0.5538  0.6043
  139OSM   C16S15212   0.454   3.157   5.439  0.4560 -0.8812 -0.9115
  139OSM   H16S15213   0.388   3.068   5.447 -0.8013 -0.1597 -2.6384
  139OSM   H16T15214   0.559   3.126   5.459 -0.1805 -0.6439  3.7215
  139OSM   C17S15215   0.425   3.212   5.301  0.0962  0.0414  0.4275
  139OSM   H17S15216   0.466   3.141   5.226  1.1188 -0.8810  1.8193
  139OSM   H17T15217   0.485   3.305   5.293  1.8920 -1.1208 -0.4405
  139OSM   C18S15218   0.276   3.239   5.272  0.6150 -0.4771  0.2210
  139OSM   H18S15219   0.261   3.286   5.172 -1.9676 -2.1802 -0.3006
  139OSM   H18T15220   0.213   3.296   5.343 -0.1646  0.9444 -1.5204
  139OSM   H18U15221   0.223   3.142   5.262 -0.0312  0.0636 -2.3531
  139OSM    C1F15222   0.375   3.750   6.999  0.2854 -0.4652  0.1789
  139OSM     OF15223   0.466   3.735   7.083  0.0694  0.0221 -0.7742
  139OSM    C2F15224   0.332   3.889   6.955 -0.2580 -0.0628 -0.0572
  139OSM    H2F15225   0.340   3.960   7.040 -1.9514  1.7129 -1.2801
  139OSM    H2G15226   0.226   3.896   6.920 -0.5360  2.6426  1.0691
  139OSM    C3F15227   0.430   3.946   6.845  0.0234  0.1272  0.4390
  139OSM    H3F15228   0.538   3.941   6.869  1.2006  1.3937 -3.6220
  139OSM    H3G15229   0.417   4.053   6.818  0.3000  0.3207  1.0483
  139OSM    C4F15230   0.409   3.868   6.716 -0.2168  0.2975  0.0256
  139OSM    H4F15231   0.305   3.869   6.678 -0.0612  0.7401 -0.4033
  139OSM    H4G15232   0.433   3.761   6.734 -0.0799  0.2359 -0.5072
  139OSM    C5F15233   0.500   3.905   6.597  0.4409  0.2427  0.2089
  139OSM    H5F15234   0.599   3.863   6.623 -0.5269 -3.4578 -1.4473
  139OSM    H5G15235   0.499   4.016   6.591  1.3506  0.3998  2.2510
  139OSM    C6F15236   0.449   3.844   6.463 -0.2201  0.1273 -0.8490
  139OSM    H6F15237   0.339   3.858   6.464  0.0588  2.9678  0.8429
  139OSM    H6G15238   0.480   3.737   6.462 -0.3817  0.0400  0.6762
  139OSM    C7F15239   0.503   3.913   6.339  0.3734 -0.2821 -0.4845
  139OSM    H7F15240   0.614   3.917   6.348  0.3575 -0.2920 -0.2887
  139OSM    H7G15241   0.466   4.017   6.333  0.8535 -0.1878 -4.1300
  139OSM    C8F15242   0.457   3.842   6.203  0.7872  0.0209  0.2825
  139OSM    H8F15243   0.347   3.835   6.215  0.8752 -1.6307  0.4125
  139OSM    H8G15244   0.481   3.733   6.198 -1.9054 -0.6196 -0.3551
  139OSM    C9F15245   0.507   3.923   6.088  0.1695 -0.5405 -0.9951
  139OSM    H9F15246   0.540   4.024   6.116  1.6182 -1.1036 -0.5969
  139OSM   C10F15247   0.519   3.873   5.962 -0.0510  0.5357  0.0115
  139OSM   H10F15248   0.564   3.928   5.878 -0.9639  0.5516 -0.4828
  139OSM   C11F15249   0.472   3.738   5.921  0.2293  0.1799 -0.2725
  139OSM   H11F15250   0.402   3.688   5.993  1.5427  0.0457  0.9635
  139OSM   H11G15251   0.568   3.684   5.914  0.3955  0.4754 -0.2671
  139OSM   C12F15252   0.389   3.724   5.798 -0.0149 -0.7324  0.2971
  139OSM   H12F15253   0.303   3.794   5.792 -0.9188 -1.7933  0.4944
  139OSM   H12G15254   0.353   3.619   5.793  2.1268 -1.5319  0.6014
  139OSM   C13F15255   0.475   3.740   5.667  0.1381 -0.9733 -0.3892
  139OSM   H13F15256   0.563   3.678   5.694  1.3083  1.0265  0.6507
  139OSM   H13G15257   0.507   3.846   5.663 -0.0491 -0.9266 -0.6498
  139OSM   C14F15258   0.407   3.725   5.535 -0.4748 -0.0578 -0.3462
  139OSM   H14F15259   0.321   3.792   5.514  0.7801  1.0621 -2.1966
  139OSM   H14G15260   0.381   3.617   5.540 -0.1668 -0.0889  0.6609
  139OSM   C15F15261   0.504   3.742   5.418  0.1480  0.0416 -0.3576
  139OSM   H15F15262   0.565   3.649   5.416 -2.7707 -2.0149 -0.5214
  139OSM   H15G15263   0.576   3.822   5.444  3.2920 -2.1614 -1.6315
  139OSM   C16F15264   0.442   3.774   5.280  0.2136  0.4187 -0.1024
  139OSM   H16F15265   0.527   3.798   5.212  0.6929 -0.3796  0.1925
  139OSM   H16G15266   0.369   3.856   5.290 -1.8437 -1.3592  0.1438
  139OSM   C17F15267   0.357   3.660   5.216  1.1079 -0.2107 -0.6419
  139OSM   H17F15268   0.287   3.710   5.145 -1.8175 -3.6956 -0.5055
  139OSM   H17G15269   0.282   3.614   5.283 -0.4495  1.1807 -1.3417
  139OSM   C18F15270   0.438   3.553   5.149  0.2878 -0.0924 -0.1008
  139OSM   H18F15271   0.497   3.608   5.073  0.7815  0.6539  0.8011
  139OSM   H18G15272   0.389   3.457   5.123  1.6274 -0.7094 -0.4285
  139OSM   H18H15273   0.506   3.507   5.224 -1.3538  2.1820  3.0088
  140OSM      N15274   1.926   6.776   7.263 -0.0685  0.0643  0.1719
  140OSM    C1515275   1.935   6.649   7.352  0.1561  0.5125 -0.2463
  140OSM   H15A15276   1.833   6.618   7.366  0.0604  1.3707  1.0599
  140OSM   H15B15277   1.976   6.671   7.449  0.6642 -0.0014 -0.3339
  140OSM   H15C15278   1.993   6.569   7.306 -1.0649 -0.0693 -0.8366
  140OSM    C1415279   1.841   6.875   7.337  0.3192  0.3310 -0.0679
  140OSM   H14A15280   1.737   6.846   7.335  0.2698  0.5082 -1.5825
  140OSM   H14B15281   1.848   6.972   7.289 -0.7746  0.1869 -0.5417
  140OSM   H14C15282   1.870   6.894   7.439 -1.7337 -1.9914  1.0444
  140OSM    C1315283   2.060   6.823   7.249 -0.1603  0.3257  0.9939
  140OSM   H13A15284   2.115   6.765   7.177 -2.5370  1.7929 -2.2690
  140OSM   H13B15285   2.112   6.836   7.343  1.5382  0.5088  0.0668
  140OSM   H13C15286   2.070   6.920   7.201 -0.7738 -0.2546 -0.3643
  140OSM    C1215287   1.858   6.749   7.132 -0.2789  0.4350  0.1177
  140OSM   H12A15288   1.753   6.738   7.154 -0.1692  0.1399  0.4897
  140OSM   H12B15289   1.891   6.657   7.087 -0.5431  0.9521 -1.1968
  140OSM    C1115290   1.857   6.855   7.014 -0.3328  0.0836 -0.2896
  140OSM   H11A15291   1.831   6.803   6.920 -1.4270  0.9374 -0.4826
  140OSM   H11B15292   1.964   6.884   7.006 -0.0293 -0.7155  0.5920
  140OSM      P15293   1.807   7.104   7.041  0.0022 -0.0537  0.3221
  140OSM    O1315294   1.697   7.185   7.087 -0.2893 -0.4381  0.0390
  140OSM    O1415295   1.937   7.140   7.098 -0.4076 -0.1529  0.7627
  140OSM    O1115296   1.811   7.126   6.883  0.0521 -0.7435 -0.2889
  140OSM    O1215297   1.765   6.955   7.058  0.6450  0.4252  0.0282
  140OSM    C1S15298   1.702   7.079   6.799  0.1621  0.3005 -0.6221
  140OSM    H1S15299   1.614   7.147   6.803 -0.6445 -0.6251 -1.8724
  140OSM    H1T15300   1.677   6.973   6.820 -2.0020  0.8186 -0.3372
  140OSM     NF15301   1.644   7.062   6.554  0.9019  0.8147 -0.2748
  140OSM    HNF15302   1.620   6.970   6.522 -1.4199  2.3802 -3.7145
  140OSM    C2S15303   1.750   7.082   6.648 -0.1659  1.0727  0.1883
  140OSM    H2S15304   1.789   7.183   6.622  1.8865  0.5172  0.8619
  140OSM    C3S15305   1.867   6.974   6.627 -1.3641  0.0954  0.1573
  140OSM    H3S15306   1.811   6.883   6.657 -3.0561  1.7411  2.3528
  140OSM     O315307   1.986   6.990   6.707  0.0104  0.3407  0.6284
  140OSM    HO315308   1.954   7.043   6.781 -2.1503 -3.2501  2.5327
  140OSM    C4S15309   1.916   6.967   6.487 -0.1066 -0.5249 -0.7531
  140OSM    H4S15310   1.963   7.057   6.443  0.2456  1.3650  3.0624
  140OSM    C5S15311   1.911   6.861   6.407  0.0612 -0.9764 -0.4058
  140OSM    H5S15312   1.882   6.770   6.461 -0.9342 -0.2892  0.2576
  140OSM    C6S15313   1.948   6.844   6.268  0.6030  0.2779  0.3170
  140OSM    H6S15314   1.871   6.894   6.206 -0.1649 -3.0354 -1.6395
  140OSM    H6T15315   1.940   6.739   6.235 -1.0276  0.5403 -0.2085
  140OSM    C7S15316   2.084   6.905   6.222  0.6717 -0.1207  0.2841
  140OSM    H7S15317   2.162   6.859   6.286 -1.0463 -1.7900  1.3021
  140OSM    H7T15318   2.078   7.015   6.231  2.3309  0.0874 -0.7190
  140OSM    C8S15319   2.115   6.857   6.076  0.1561 -0.6039  0.8873
  140OSM    H8S15320   2.027   6.874   6.011 -0.6890 -1.6298  1.7206
  140OSM    H8T15321   2.149   6.752   6.069  0.1419 -0.6439  1.3583
  140OSM    C9S15322   2.213   6.950   6.015 -0.2674 -0.1395  0.2631
  140OSM    H9S15323   2.315   6.925   6.051 -0.7073 -0.6252  1.2065
  140OSM    H9T15324   2.193   7.056   6.043  0.0099 -0.0902  0.2846
  140OSM   C10S15325   2.210   6.935   5.863  0.0950  0.6046 -0.0080
  140OSM   H10S15326   2.104   6.933   5.830  0.8840  1.0070 -2.8469
  140OSM   H10T15327   2.251   6.836   5.834 -1.0000 -0.1428  0.8994
  140OSM   C11S15328   2.286   7.050   5.795 -0.2014 -0.0717  0.1226
  140OSM   H11S15329   2.368   7.076   5.865  0.0649 -2.3404  0.7144
  140OSM   H11T15330   2.221   7.140   5.790 -2.3891 -1.4777  1.4791
  140OSM   C12S15331   2.347   7.011   5.657 -0.5656  0.4496 -0.2751
  140OSM   H12S15332   2.401   6.914   5.661  1.7573  1.6482 -0.5588
  140OSM   H12T15333   2.422   7.088   5.627  0.3605  0.3530  1.6398
  140OSM   C13S15334   2.235   7.004   5.546 -0.8324  0.6997 -0.6722
  140OSM   H13S15335   2.155   6.945   5.596 -0.3145 -0.0458 -0.7093
  140OSM   H13T15336   2.274   6.947   5.459 -0.6423 -0.1513 -0.0373
  140OSM   C14S15337   2.184   7.139   5.484 -0.1727 -0.0426 -0.2826
  140OSM   H14S15338   2.252   7.181   5.408 -1.6955  0.0632 -1.6430
  140OSM   H14T15339   2.167   7.212   5.567  0.6540  1.1725 -1.1469
  140OSM   C15S15340   2.053   7.119   5.416  0.2840 -0.4251 -0.8155
  140OSM   H15S15341   2.010   7.214   5.379 -2.1196 -1.3759 -0.6416
  140OSM   H15T15342   1.980   7.093   5.495  0.8664 -0.2368 -0.1991
  140OSM   C16S15343   2.061   7.023   5.298 -0.0018  0.6524 -0.9947
  140OSM   H16S15344   2.084   6.923   5.340 -0.5237  0.6870 -0.6159
  140OSM   H16T15345   2.146   7.046   5.230 -1.0236  2.6682 -1.6503
  140OSM   C17S15346   1.937   7.006   5.213  0.8401  0.6153  1.1831
  140OSM   H17S15347   1.921   7.101   5.159 -2.0383 -0.1178  0.6134
  140OSM   H17T15348   1.850   6.996   5.281  0.7542  1.9921  1.2996
  140OSM   C18S15349   1.934   6.889   5.119 -0.3790  0.6258  0.0057
  140OSM   H18S15350   1.918   6.795   5.176  1.1968  0.7878  0.7635
  140OSM   H18T15351   2.031   6.878   5.067  0.2824 -0.1118  1.3433
  140OSM   H18U15352   1.855   6.883   5.041  0.3479 -0.6999 -0.6591
  140OSM    C1F15353   1.554   7.164   6.535  0.3723  0.3916 -0.0244
  140OSM     OF15354   1.575   7.280   6.574  0.3260  0.5937  0.5777
  140OSM    C2F15355   1.434   7.129   6.449  0.7498  0.1887 -0.3625
  140OSM    H2F15356   1.341   7.171   6.492  0.6779  1.7228 -1.9170
  140OSM    H2G15357   1.415   7.019   6.455 -3.3198  0.7920  1.5928
  140OSM    C3F15358   1.451   7.181   6.306 -0.3870 -0.7141  0.4047
  140OSM    H3F15359   1.553   7.158   6.268 -0.2818 -0.4525  0.5263
  140OSM    H3G15360   1.457   7.292   6.305  1.5537 -0.6683 -3.5633
  140OSM    C4F15361   1.340   7.134   6.209 -0.4672  0.5613 -0.1001
  140OSM    H4F15362   1.241   7.160   6.250 -0.7361  0.8473 -0.9177
  140OSM    H4G15363   1.339   7.023   6.211 -0.2607  0.4951 -1.9220
  140OSM    C5F15364   1.347   7.203   6.074  0.2302 -0.3609  0.3761
  140OSM    H5F15365   1.437   7.168   6.017 -1.8496 -0.4699 -3.1412
  140OSM    H5G15366   1.357   7.313   6.081  0.8080 -0.4574  1.2230
  140OSM    C6F15367   1.223   7.175   5.991 -0.0596 -0.7249 -0.8039
  140OSM    H6F15368   1.132   7.229   6.026 -1.8307 -0.6960 -4.8749
  140OSM    H6G15369   1.195   7.068   5.997 -2.7930 -0.0440  0.1022
  140OSM    C7F15370   1.230   7.233   5.845  0.2730  0.3018  0.3415
  140OSM    H7F15371   1.312   7.173   5.799  0.1126 -0.5008  1.0629
  140OSM    H7G15372   1.257   7.340   5.853 -2.2892  0.9160  1.8325
  140OSM    C8F15373   1.109   7.202   5.761  0.3966 -0.0313 -0.0220
  140OSM    H8F15374   1.027   7.264   5.802 -0.6806 -1.1245 -0.4565
  140OSM    H8G15375   1.075   7.099   5.787 -1.8281  0.6312 -0.0761
  140OSM    C9F15376   1.123   7.204   5.612 -0.3736  0.3470  0.0072
  140OSM    H9F15377   1.216   7.162   5.571 -1.5003 -0.4165 -1.8885
  140OSM   C10F15378   1.043   7.277   5.525 -0.1252  0.2675 -0.1203
  140OSM   H10F15379   1.070   7.284   5.419  0.6710  0.2349  0.0715
  140OSM   C11F15380   0.934   7.371   5.567  0.9713  0.2491  0.0428
  140OSM   H11F15381   0.977   7.441   5.641  0.7973  1.4460 -0.9460
  140OSM   H11G15382   0.857   7.316   5.624  1.5110 -1.1361 -0.5101
  140OSM   C12F15383   0.858   7.448   5.457  0.0460  0.1074 -0.3457
  140OSM   H12F15384   0.777   7.511   5.499  1.5971  2.3613 -0.5906
  140OSM   H12G15385   0.818   7.373   5.385 -1.2792 -0.3204  0.7907
  140OSM   C13F15386   0.948   7.533   5.368  0.6321 -0.2985 -0.7320
  140OSM   H13F15387   1.043   7.479   5.349 -0.2517 -1.2694 -2.6031
  140OSM   H13G15388   0.971   7.620   5.433  1.6994 -1.3922  0.3904
  140OSM   C14F15389   0.873   7.593   5.243  1.0448  0.5796  0.2215
  140OSM   H14F15390   0.791   7.655   5.285  1.5856  0.4077  1.5895
  140OSM   H14G15391   0.831   7.513   5.177 -1.5345  1.1423  1.0761
  140OSM   C15F15392   0.957   7.693   5.166  0.5131 -0.6791  0.6350
  140OSM   H15F15393   1.054   7.646   5.140  0.4916 -1.1354  1.3712
  140OSM   H15G15394   0.985   7.772   5.239 -0.2409  0.1999 -0.0069
  140OSM   C16F15395   0.906   7.738   5.025 -0.7780  0.0967  0.4656
  140OSM   H16F15396   0.821   7.809   5.021 -0.4413  0.4396 -0.9241
  140OSM   H16G15397   0.872   7.649   4.968 -0.0530 -0.4677  0.8965
  140OSM   C17F15398   1.022   7.814   4.949  0.0357 -0.6104  0.4305
  140OSM   H17F15399   0.967   7.881   4.879  0.9924 -0.4557 -0.1878
  140OSM   H17G15400   1.086   7.745   4.890 -1.2285 -1.3813 -0.1085
  140OSM   C18F15401   1.110   7.907   5.022  0.2587 -0.6284  0.2716
  140OSM   H18F15402   1.196   7.850   5.064 -1.7747 -2.7595  1.7769
  140OSM   H18G15403   1.058   7.964   5.101 -2.0897  1.3165 -2.4673
  140OSM   H18H15404   1.150   7.993   4.963  0.9321 -1.6992 -0.8819
  141OSM      N15405   6.377   1.245   7.741  0.0449  0.2847  0.5275
  141OSM    C1515406   6.314   1.113   7.697  0.0590  0.1952  0.3823
  141OSM   H15A15407   6.393   1.057   7.649 -0.9639 -0.5634 -0.4647
  141OSM   H15B15408   6.235   1.134   7.626  0.4292  1.0234  0.2061
  141OSM   H15C15409   6.275   1.066   7.785  1.7899  1.2127  1.7635
  141OSM    C1415410   6.298   1.290   7.853 -0.3498  0.2024  0.2742
  141OSM   H14A15411   6.347   1.379   7.889 -0.0870  0.1208  0.1153
  141OSM   H14B15412   6.303   1.212   7.927 -0.7470  0.5740  0.6958
  141OSM   H14C15413   6.196   1.313   7.824  0.3515  2.0912 -0.8524
  141OSM    C1315414   6.525   1.228   7.784  0.7555 -0.2467  0.1855
  141OSM   H13A15415   6.571   1.174   7.703 -0.8903 -0.6684 -0.5143
  141OSM   H13B15416   6.529   1.180   7.881  1.6136  0.2294  0.3943
  141OSM   H13C15417   6.562   1.328   7.802  1.7438 -0.9610  2.3752
  141OSM    C1215418   6.379   1.345   7.623 -0.6077 -0.7798  0.3976
  141OSM   H12A15419   6.444   1.428   7.648 -1.0406  0.5036 -2.4191
  141OSM   H12B15420   6.283   1.393   7.618 -0.3302 -0.2985 -0.5587
  141OSM    C1115421   6.432   1.309   7.484  0.4676 -0.4281 -0.1721
  141OSM   H11A15422   6.448   1.413   7.449 -1.7606  0.6964  1.9251
  141OSM   H11B15423   6.359   1.252   7.423  1.0425  0.1461 -1.4273
  141OSM      P15424   6.689   1.312   7.481 -0.3192  0.0587  0.7482
  141OSM    O1315425   6.694   1.427   7.567  0.6412  0.4478 -0.3441
  141OSM    O1415426   6.810   1.227   7.492 -0.2147 -0.1111 -0.3083
  141OSM    O1115427   6.671   1.372   7.337  0.0376  0.6957  0.6212
  141OSM    O1215428   6.555   1.231   7.503 -0.4257 -0.4611 -0.5844
  141OSM    C1S15429   6.635   1.294   7.219 -0.0426  0.0759  0.0662
  141OSM    H1S15430   6.525   1.281   7.224 -0.2895  0.4142 -2.8341
  141OSM    H1T15431   6.672   1.189   7.218 -2.5478 -0.8571 -0.4380
  141OSM     NF15432   6.602   1.326   6.975  0.7799  0.8512  0.2749
  141OSM    HNF15433   6.658   1.270   6.915  1.9616 -0.0938  2.1874
  141OSM    C2S15434   6.672   1.374   7.092 -0.5560 -0.1963  0.4583
  141OSM    H2S15435   6.629   1.474   7.114 -1.5271 -0.0590 -1.7657
  141OSM    C3S15436   6.828   1.390   7.087 -0.3861  0.5396  0.1308
  141OSM    H3S15437   6.878   1.292   7.070 -0.0323  0.5200  1.1834
  141OSM     O315438   6.888   1.444   7.211  0.1575 -0.2507  0.1885
  141OSM    HO315439   6.815   1.449   7.273  0.5826  1.1707  0.6180
  141OSM    C4S15440   6.872   1.488   6.983 -0.3977 -0.0857 -0.6262
  141OSM    H4S15441   6.793   1.549   6.938 -1.0337 -0.4821 -0.0570
  141OSM    C5S15442   7.000   1.507   6.940  0.9960 -0.3545  0.2252
  141OSM    H5S15443   7.078   1.442   6.984  1.6461 -0.8501 -1.5566
  141OSM    C6S15444   7.037   1.601   6.831  0.1604 -0.4157 -0.4033
  141OSM    H6S15445   7.135   1.654   6.840  1.0041 -1.5608 -2.2787
  141OSM    H6T15446   6.967   1.686   6.818  1.9421  1.5409  1.7946
  141OSM    C7S15447   7.045   1.521   6.698  0.9708  0.4064 -0.2980
  141OSM    H7S15448   6.952   1.459   6.690  1.8960 -0.7784 -4.3352
  141OSM    H7T15449   7.134   1.455   6.705  1.0637  0.6358  0.8522
  141OSM    C8S15450   7.032   1.621   6.578 -0.9897 -1.0059 -0.5705
  141OSM    H8S15451   7.100   1.703   6.608 -1.3486 -1.1964  0.8593
  141OSM    H8T15452   6.934   1.673   6.575 -1.6004 -2.0735  0.0259
  141OSM    C9S15453   7.083   1.561   6.447 -0.1724  0.4010  0.2692
  141OSM    H9S15454   7.010   1.485   6.413  1.7197 -0.5679 -1.9091
  141OSM    H9T15455   7.178   1.509   6.473  0.7024  1.7272 -0.1265
  141OSM   C10S15456   7.099   1.678   6.348  0.3847 -0.1081  0.0903
  141OSM   H10S15457   7.183   1.734   6.396 -0.4464  2.1365 -0.9120
  141OSM   H10T15458   7.013   1.746   6.363 -0.4806 -1.3272  0.7416
  141OSM   C11S15459   7.138   1.645   6.199 -0.3304  0.3673  0.1465
  141OSM   H11S15460   7.062   1.592   6.139  0.2989 -0.2692 -0.0993
  141OSM   H11T15461   7.233   1.588   6.207  0.5785  2.1067  3.6865
  141OSM   C12S15462   7.181   1.780   6.127 -0.1197  0.2873 -0.5313
  141OSM   H12S15463   7.260   1.841   6.176  0.8333  0.1734 -1.8612
  141OSM   H12T15464   7.084   1.834   6.126 -1.1837 -1.5239 -0.0938
  141OSM   C13S15465   7.216   1.768   5.983 -0.2007 -0.2673 -0.1393
  141OSM   H13S15466   7.134   1.730   5.919 -0.3027 -0.8392  0.3264
  141OSM   H13T15467   7.301   1.697   5.983  0.4495  0.4916 -0.3051
  141OSM   C14S15468   7.243   1.901   5.915 -0.3786 -0.1123 -0.3981
  141OSM   H14S15469   7.331   1.941   5.970 -0.6814 -1.3946  1.0824
  141OSM   H14T15470   7.150   1.961   5.927  1.1176  2.3341 -0.4006
  141OSM   C15S15471   7.270   1.896   5.758 -0.1214 -0.7912 -0.8721
  141OSM   H15S15472   7.171   1.909   5.710  0.1036  2.4530 -0.6968
  141OSM   H15T15473   7.314   1.798   5.729 -0.2878 -0.9530 -0.5806
  141OSM   C16S15474   7.352   2.011   5.705  0.1490 -0.4432  0.1272
  141OSM   H16S15475   7.447   2.034   5.758  0.2284 -0.7253  0.1068
  141OSM   H16T15476   7.280   2.096   5.708  1.7428  1.0317 -1.1364
  141OSM   C17S15477   7.405   1.997   5.554  0.2995 -0.2040  0.5663
  141OSM   H17S15478   7.312   1.981   5.495 -0.3082  0.7806  1.2367
  141OSM   H17T15479   7.464   1.903   5.561  1.5337  0.4932 -0.1728
  141OSM   C18S15480   7.479   2.122   5.510  0.4585 -0.1947  0.3602
  141OSM   H18S15481   7.412   2.210   5.527 -1.2531 -1.5537  0.9112
  141OSM   H18T15482   7.490   2.114   5.400 -2.6765  0.8889 -0.1291
  141OSM   H18U15483   7.570   2.127   5.574  1.3375  2.8184 -0.9285
  141OSM    C1F15484   6.467   1.337   6.962 -0.8694  0.1019  1.3908
  141OSM     OF15485   6.402   1.401   7.039 -0.3246 -0.2610 -0.2673
  141OSM    C2F15486   6.419   1.284   6.827 -0.1646  0.6569  0.1953
  141OSM    H2F15487   6.407   1.174   6.828 -0.1528  0.4735 -3.7551
  141OSM    H2G15488   6.485   1.318   6.744 -0.9665  1.7964 -0.0005
  141OSM    C3F15489   6.281   1.340   6.790 -0.0213  0.0521  0.2673
  141OSM    H3F15490   6.289   1.444   6.753  0.2005 -0.0316  0.0734
  141OSM    H3G15491   6.213   1.340   6.878 -0.2194  2.3307  0.1686
  141OSM    C4F15492   6.237   1.256   6.674 -0.1180  0.3286  0.0030
  141OSM    H4F15493   6.131   1.275   6.647 -0.1435 -0.9348 -0.8560
  141OSM    H4G15494   6.247   1.147   6.695 -1.5642 -0.0466 -1.1007
  141OSM    C5F15495   6.317   1.287   6.544 -0.2585 -0.0290 -0.2396
  141OSM    H5F15496   6.420   1.245   6.546 -1.2489 -2.6660  1.4317
  141OSM    H5G15497   6.331   1.395   6.523  1.9940 -0.5027 -1.5079
  141OSM    C6F15498   6.262   1.237   6.412  0.3754 -0.3211  0.1989
  141OSM    H6F15499   6.167   1.292   6.393  0.6013 -0.6746 -2.3197
  141OSM    H6G15500   6.238   1.129   6.409 -0.9324 -0.0336 -2.4154
  141OSM    C7F15501   6.354   1.271   6.295 -0.1553  0.0318 -0.3789
  141OSM    H7F15502   6.455   1.234   6.324  0.3764  0.9028 -1.0843
  141OSM    H7G15503   6.378   1.379   6.299  0.5117 -0.1271  0.1587
  141OSM    C8F15504   6.307   1.231   6.157  0.5678  0.5418  0.2402
  141OSM    H8F15505   6.197   1.247   6.149  0.5386  0.1323 -0.2671
  141OSM    H8G15506   6.327   1.122   6.149  2.0038  0.9332 -2.8692
  141OSM    C9F15507   6.377   1.294   6.035  0.3657  0.1654 -0.1148
  141OSM    H9F15508   6.375   1.403   6.027 -2.3911  0.1536 -0.9033
  141OSM   C10F15509   6.450   1.229   5.943 -0.4999  0.2262 -0.0913
  141OSM   H10F15510   6.505   1.289   5.869  0.9565 -1.7920 -0.7274
  141OSM   C11F15511   6.476   1.077   5.934  0.2261 -0.2230 -0.4679
  141OSM   H11F15512   6.405   1.013   5.991 -1.6704  0.7958 -1.5581
  141OSM   H11G15513   6.579   1.070   5.974 -0.2896  3.2789  1.9633
  141OSM   C12F15514   6.473   1.031   5.790  0.2420  0.3679 -0.4480
  141OSM   H12F15515   6.376   1.065   5.748  0.2782 -1.4230 -2.1432
  141OSM   H12G15516   6.468   0.920   5.781 -2.1758  0.2796  1.0411
  141OSM   C13F15517   6.585   1.086   5.689 -0.1741 -0.7403  0.0807
  141OSM   H13F15518   6.677   1.073   5.749 -0.1741  0.5296  0.3804
  141OSM   H13G15519   6.563   1.194   5.678 -1.9058 -0.9858  0.8161
  141OSM   C14F15520   6.582   1.014   5.553  0.2042  0.0352  0.8353
  141OSM   H14F15521   6.479   1.028   5.514  0.0708 -0.4279  1.0206
  141OSM   H14G15522   6.588   0.906   5.577  1.4791  0.0447  0.6481
  141OSM   C15F15523   6.689   1.061   5.469 -0.8169 -0.3349  0.0203
  141OSM   H15F15524   6.784   1.042   5.523  0.4470  1.4489 -1.4514
  141OSM   H15G15525   6.672   1.170   5.455  2.9525  0.2898 -0.7660
  141OSM   C16F15526   6.704   0.999   5.333 -0.0844 -0.1938 -0.1251
  141OSM   H16F15527   6.679   0.892   5.350  2.9469 -1.0348 -0.3929
  141OSM   H16G15528   6.809   1.000   5.297 -0.2239 -0.2871 -0.5362
  141OSM   C17F15529   6.611   1.061   5.227 -0.1842 -0.0561 -1.1900
  141OSM   H17F15530   6.645   1.162   5.197 -1.0600  0.2587 -1.1523
  141OSM   H17G15531   6.514   1.072   5.281  0.0431  1.7172 -1.0737
  141OSM   C18F15532   6.602   0.969   5.104 -0.9694  0.4840 -0.7319
  141OSM   H18F15533   6.549   0.875   5.130  0.0142  0.2241  0.4304
  141OSM   H18G15534   6.702   0.934   5.070 -1.8575 -0.4485 -2.4776
  141OSM   H18H15535   6.538   1.021   5.030 -2.2542  0.2246  0.1574
  142OSM      N15536   2.076   5.981   7.202  0.7366 -0.4814 -0.4785
  142OSM    C1515537   2.001   5.851   7.184  0.2666 -0.4455  0.5771
  142OSM   H15A15538   2.033   5.803   7.092 -0.5968  1.1090 -0.5926
  142OSM   H15B15539   1.895   5.870   7.182  0.2550 -0.4464  1.0677
  142OSM   H15C15540   2.019   5.793   7.273  0.5247 -0.8737  0.2512
  142OSM    C1415541   2.040   6.069   7.088 -0.2601  0.0738  0.7354
  142OSM   H14A15542   1.933   6.079   7.096 -0.3614 -1.0849  1.1190
  142OSM   H14B15543   2.062   6.027   6.991  0.1107  1.2815  0.2845
  142OSM   H14C15544   2.087   6.166   7.090 -1.1915  0.5336  1.0141
  142OSM    C1315545   2.041   6.044   7.330 -0.0798 -0.0833  0.3741
  142OSM   H13A15546   2.067   5.982   7.414 -2.4945  1.9094  2.7633
  142OSM   H13B15547   1.936   6.066   7.337  0.2139  1.5588  0.1361
  142OSM   H13C15548   2.095   6.136   7.344  0.6659 -0.5537  0.6680
  142OSM    C1215549   2.225   5.944   7.201  0.1760 -0.6045 -0.4310
  142OSM   H12A15550   2.255   5.901   7.295  1.5052 -0.5845 -0.8166
  142OSM   H12B15551   2.282   6.035   7.203 -0.9018  0.0693  0.1461
  142OSM    C1115552   2.281   5.844   7.097  0.5613  0.5206 -0.2941
  142OSM   H11A15553   2.237   5.856   6.996 -1.1067 -1.5450  0.1188
  142OSM   H11B15554   2.254   5.749   7.149 -0.6029  1.3411  0.6802
  142OSM      P15555   2.500   5.893   6.972 -0.2166  0.0997  0.2945
  142OSM    O1315556   2.462   6.029   6.930 -0.0334 -0.2209 -0.2307
  142OSM    O1415557   2.642   5.860   6.976  0.0205  0.9806 -0.8349
  142OSM    O1115558   2.436   5.806   6.862  0.1015  0.3487  0.1403
  142OSM    O1215559   2.422   5.851   7.097 -0.1647  0.6351  0.2329
  142OSM    C1S15560   2.477   5.815   6.727 -0.1816 -0.1815 -0.5259
  142OSM    H1S15561   2.586   5.794   6.721 -0.2991 -0.8715 -0.3911
  142OSM    H1T15562   2.456   5.915   6.685 -0.9887  0.5915  1.5644
  142OSM     NF15563   2.493   5.706   6.516 -0.1128 -0.1951 -0.1925
  142OSM    HNF15564   2.443   5.739   6.436 -1.8668 -0.1270  0.8733
  142OSM    C2S15565   2.415   5.715   6.634 -0.1627  0.3214 -0.3972
  142OSM    H2S15566   2.417   5.619   6.689  1.5707  1.6467  2.0311
  142OSM    C3S15567   2.265   5.764   6.620 -0.0378  0.2254  0.5183
  142OSM    H3S15568   2.263   5.869   6.582 -4.2219  0.2032  0.2963
  142OSM     O315569   2.190   5.770   6.741  0.3116  0.0624 -0.1345
  142OSM    HO315570   2.258   5.793   6.805  1.6219  2.1984 -2.1687
  142OSM    C4S15571   2.195   5.676   6.525  0.1722  0.2051  0.1401
  142OSM    H4S15572   2.199   5.722   6.425  0.1653 -0.1999 -0.0520
  142OSM    C5S15573   2.140   5.553   6.538  0.4561  0.4091 -0.6131
  142OSM    H5S15574   2.139   5.499   6.634 -3.3472 -2.3501 -1.9741
  142OSM    C6S15575   2.084   5.473   6.423 -0.1931 -0.4659 -0.5532
  142OSM    H6S15576   1.981   5.444   6.456  0.7255 -2.1903  0.9982
  142OSM    H6T15577   2.145   5.382   6.404  0.4234  0.1846 -1.7662
  142OSM    C7S15578   2.089   5.547   6.287 -0.4037 -0.1616 -0.1575
  142OSM    H7S15579   2.197   5.566   6.270 -0.1645 -1.3582 -0.0957
  142OSM    H7T15580   2.032   5.642   6.290  0.0548  0.1016  0.2106
  142OSM    C8S15581   2.034   5.469   6.164 -0.2109  0.0063  0.5104
  142OSM    H8S15582   1.938   5.421   6.192 -0.2774  0.0606  0.3776
  142OSM    H8T15583   2.108   5.391   6.139 -2.0675 -1.5803 -0.2722
  142OSM    C9S15584   2.008   5.563   6.040  0.3238  0.6321 -0.5253
  142OSM    H9S15585   2.107   5.613   6.030 -0.0995  1.5434 -0.2767
  142OSM    H9T15586   1.931   5.636   6.075  1.0512  0.4931  1.5365
  142OSM   C10S15587   1.974   5.477   5.917 -0.4495  0.1513  0.2902
  142OSM   H10S15588   1.890   5.407   5.935  0.2708 -0.2758  2.2589
  142OSM   H10T15589   2.062   5.411   5.901  0.7342  2.2941 -3.1229
  142OSM   C11S15590   1.948   5.558   5.789 -0.2362 -0.1881 -0.3858
  142OSM   H11S15591   2.027   5.634   5.770  0.1608 -0.4072  0.3422
  142OSM   H11T15592   1.850   5.610   5.798  0.1355  0.2215  2.0582
  142OSM   C12S15593   1.940   5.472   5.669 -0.7222  0.3362  0.0632
  142OSM   H12S15594   1.849   5.410   5.680 -0.6936  0.6575  2.9324
  142OSM   H12T15595   2.020   5.396   5.654 -1.1109  0.2379 -1.6618
  142OSM   C13S15596   1.919   5.568   5.548 -0.2333  0.0229  0.2310
  142OSM   H13S15597   1.990   5.653   5.547 -0.1975  0.0124  0.9269
  142OSM   H13T15598   1.820   5.616   5.564 -0.0831 -0.1264  1.7595
  142OSM   C14S15599   1.918   5.490   5.411  0.8204  0.2060 -0.2855
  142OSM   H14S15600   1.842   5.409   5.411 -0.8472  1.6996 -1.1209
  142OSM   H14T15601   2.020   5.447   5.405  1.8062  2.2659  0.7502
  142OSM   C15S15602   1.895   5.577   5.284  1.0641 -0.0652  0.0398
  142OSM   H15S15603   1.798   5.631   5.285  1.4032  0.5689 -0.4677
  142OSM   H15T15604   1.887   5.509   5.197 -0.3415  0.3438 -0.1727
  142OSM   C16S15605   2.012   5.663   5.250 -0.5103 -0.0717  0.3410
  142OSM   H16S15606   2.102   5.602   5.228  0.3939  0.7641  1.6089
  142OSM   H16T15607   2.039   5.726   5.338 -0.3563  0.1674  0.1261
  142OSM   C17S15608   1.982   5.755   5.126 -0.0916 -0.1030 -0.3610
  142OSM   H17S15609   2.062   5.832   5.116 -1.8606  1.7160 -1.2375
  142OSM   H17T15610   1.890   5.814   5.147 -0.0951  0.0675 -0.8229
  142OSM   C18S15611   1.978   5.677   4.993  0.4885 -0.4217 -0.1741
  142OSM   H18S15612   1.945   5.745   4.912  0.2647 -0.8011 -0.4061
  142OSM   H18T15613   1.910   5.589   4.993 -0.1153 -0.1283 -4.0750
  142OSM   H18U15614   2.073   5.624   4.971  1.3213  1.4549 -1.2377
  142OSM    C1F15615   2.615   5.645   6.511  0.4538  0.3036  0.1809
  142OSM     OF15616   2.660   5.591   6.611 -0.2325  0.1852 -0.1211
  142OSM    C2F15617   2.685   5.665   6.380 -0.5120  0.0918 -0.4575
  142OSM    H2F15618   2.695   5.774   6.362 -0.3656  0.0650 -0.5374
  142OSM    H2G15619   2.618   5.616   6.306 -0.7707 -0.2201 -0.0153
  142OSM    C3F15620   2.816   5.585   6.361 -0.1589  0.0199 -0.0551
  142OSM    H3F15621   2.796   5.481   6.395  1.1917 -0.7430 -1.4783
  142OSM    H3G15622   2.889   5.627   6.433 -0.5950  1.0234 -0.1867
  142OSM    C4F15623   2.863   5.588   6.219  0.3675 -0.7744  0.7056
  142OSM    H4F15624   2.964   5.541   6.213  0.9221  0.4595  0.0972
  142OSM    H4G15625   2.870   5.698   6.209  0.7838 -0.9457 -1.3143
  142OSM    C5F15626   2.778   5.520   6.110  0.6162  0.2468  0.2708
  142OSM    H5F15627   2.678   5.567   6.101  1.2223  1.6832  0.6292
  142OSM    H5G15628   2.755   5.419   6.149  1.1805  0.2584  0.6440
  142OSM    C6F15629   2.850   5.512   5.975  0.2869 -0.2370 -0.5903
  142OSM    H6F15630   2.920   5.425   5.973 -0.7888 -1.1418  0.1947
  142OSM    H6G15631   2.908   5.605   5.953 -0.1867  0.3522  0.5551
  142OSM    C7F15632   2.734   5.484   5.879 -0.0778 -0.0565  0.4664
  142OSM    H7F15633   2.646   5.552   5.882 -0.2127 -0.1860 -0.3489
  142OSM    H7G15634   2.698   5.388   5.921 -1.0545 -0.4379 -1.1616
  142OSM    C8F15635   2.783   5.463   5.734  0.1833  0.8670 -0.2645
  142OSM    H8F15636   2.713   5.385   5.697  0.5304  0.0008  0.8627
  142OSM    H8G15637   2.886   5.426   5.755 -0.3065 -0.2302  0.2964
  142OSM    C9F15638   2.787   5.599   5.666 -0.3552  0.5051 -0.0162
  142OSM    H9F15639   2.765   5.695   5.716  1.1706  0.7562  0.1991
  142OSM   C10F15640   2.837   5.609   5.542 -0.1661  0.7458 -0.5142
  142OSM   H10F15641   2.834   5.699   5.480 -2.7617  0.3030 -1.1210
  142OSM   C11F15642   2.884   5.490   5.463  0.1059 -0.2521  0.3062
  142OSM   H11F15643   2.922   5.404   5.522 -0.0096 -0.0572  0.6638
  142OSM   H11G15644   2.974   5.515   5.402  0.2563  0.7002  0.8942
  142OSM   C12F15645   2.772   5.440   5.365 -0.1583  0.4524 -0.2588
  142OSM   H12F15646   2.678   5.405   5.413  0.5254 -3.1231 -1.2156
  142OSM   H12G15647   2.811   5.347   5.318  0.1775  0.5707 -0.2141
  142OSM   C13F15648   2.755   5.535   5.251  0.3944 -0.9787  0.6239
  142OSM   H13F15649   2.849   5.561   5.198 -1.0164  0.6986 -1.2536
  142OSM   H13G15650   2.728   5.631   5.301  1.0751 -1.0789  1.1967
  142OSM   C14F15651   2.650   5.495   5.148  0.0582  0.2307 -0.3185
  142OSM   H14F15652   2.562   5.461   5.207  0.2263  1.1822  0.4999
  142OSM   H14G15653   2.688   5.402   5.101 -1.3864 -0.6945  0.2783
  142OSM   C15F15654   2.607   5.603   5.041  0.1475 -0.3169  1.1450
  142OSM   H15F15655   2.684   5.600   4.961  0.5062 -0.8294  1.5053
  142OSM   H15G15656   2.603   5.708   5.076  1.7066  0.2761 -0.3115
  142OSM   C16F15657   2.470   5.576   4.977 -1.0041  1.1393  0.3201
  142OSM   H16F15658   2.399   5.576   5.062 -0.3904  0.9578  0.8420
  142OSM   H16G15659   2.478   5.478   4.924  1.6299  1.1131  0.6023
  142OSM   C17F15660   2.425   5.679   4.876  0.7446  0.3661  0.1291
  142OSM   H17F15661   2.446   5.780   4.916 -1.4514  0.6336  0.7225
  142OSM   H17G15662   2.320   5.652   4.854  1.5594 -2.7124 -0.5921
  142OSM   C18F15663   2.498   5.681   4.741 -0.0211 -0.8712 -0.2223
  142OSM   H18F15664   2.482   5.584   4.688  0.5791 -1.4557  0.6390
  142OSM   H18G15665   2.608   5.693   4.750  0.1389 -1.0712 -1.7547
  142OSM   H18H15666   2.458   5.760   4.674 -0.1428 -0.5973  0.1705
  143OSM      N15667   1.121   3.365   8.076  0.0682 -0.3674 -0.3487
  143OSM    C1515668   1.141   3.500   8.141 -0.0001  0.2398 -0.0410
  143OSM   H15A15669   1.247   3.511   8.159 -0.6112  2.2513  3.2395
  143OSM   H15B15670   1.107   3.511   8.243  1.5115 -3.5192  1.0549
  143OSM   H15C15671   1.103   3.581   8.080 -0.4645 -0.6891 -1.0076
  143OSM    C1415672   1.173   3.248   8.157  0.0231  0.1392  0.4622
  143OSM   H14A15673   1.134   3.259   8.258  0.4640  1.3980  0.5062
  143OSM   H14B15674   1.280   3.256   8.165 -0.1247  3.7382  0.3303
  143OSM   H14C15675   1.136   3.154   8.120  0.8919 -0.9224  2.1640
  143OSM    C1315676   0.981   3.333   8.044 -0.1712 -0.2420  0.3242
  143OSM   H13A15677   0.974   3.228   8.019  1.0660 -0.7275  1.8485
  143OSM   H13B15678   0.951   3.378   7.950 -1.1341 -0.1988  0.6353
  143OSM   H13C15679   0.922   3.369   8.127  0.2968  1.2248  0.0392
  143OSM    C1215680   1.192   3.370   7.944 -0.4527  0.1333 -0.3199
  143OSM   H12A15681   1.137   3.434   7.877 -2.4105 -1.0550  0.0760
  143OSM   H12B15682   1.180   3.282   7.882  1.7968  0.6965 -1.6766
  143OSM    C1115683   1.346   3.389   7.940  0.2001  0.2877 -0.2594
  143OSM   H11A15684   1.380   3.479   7.995  1.7086 -1.0648  1.1145
  143OSM   H11B15685   1.376   3.405   7.834  1.1716  0.7238  0.0692
  143OSM      P15686   1.442   3.134   7.916  0.3357  0.3288  0.2752
  143OSM    O1315687   1.584   3.127   7.870 -0.2463  0.0668 -0.2453
  143OSM    O1415688   1.390   3.022   8.000  0.6980  0.3875  0.2514
  143OSM    O1115689   1.345   3.143   7.793  0.7253  0.2285 -0.5217
  143OSM    O1215690   1.422   3.276   7.993  0.1805  0.2118 -0.3975
  143OSM    C1S15691   1.324   3.037   7.693 -0.6749 -0.1195  0.0529
  143OSM    H1S15692   1.240   2.971   7.723 -0.0172  0.1305  2.6834
  143OSM    H1T15693   1.422   2.984   7.682 -0.9421 -0.5629 -0.2221
  143OSM     NF15694   1.269   2.991   7.458 -0.1921 -0.1006  0.5938
  143OSM    HNF15695   1.335   2.960   7.390 -0.4929  0.0348  0.2412
  143OSM    C2S15696   1.295   3.099   7.554 -0.0927  0.0368 -0.3230
  143OSM    H2S15697   1.205   3.161   7.568 -0.6012 -0.6230 -0.6134
  143OSM    C3S15698   1.405   3.183   7.503  0.6095  0.6937  0.2515
  143OSM    H3S15699   1.492   3.115   7.494 -2.7861 -4.1779  0.2779
  143OSM     O315700   1.442   3.286   7.592 -0.0910  0.2524 -0.3380
  143OSM    HO315701   1.407   3.256   7.677 -0.0689 -1.2406 -0.8327
  143OSM    C4S15702   1.375   3.227   7.365 -0.3608  0.2281 -0.0474
  143OSM    H4S15703   1.281   3.284   7.354 -1.9702 -2.0993  0.7967
  143OSM    C5S15704   1.446   3.204   7.253 -0.0152 -0.0366  0.0904
  143OSM    H5S15705   1.547   3.161   7.256 -0.3924 -0.9671 -0.2665
  143OSM    C6S15706   1.396   3.262   7.122  0.0916 -0.0995  0.1300
  143OSM    H6S15707   1.286   3.252   7.118 -0.2240  0.8734  3.2712
  143OSM    H6T15708   1.441   3.203   7.039 -0.6856  1.6475 -1.6174
  143OSM    C7S15709   1.438   3.409   7.103 -0.5684 -0.0825  0.2903
  143OSM    H7S15710   1.548   3.408   7.089 -0.6269 -1.2570 -0.2176
  143OSM    H7T15711   1.401   3.463   7.192 -2.9699  0.5679 -1.0168
  143OSM    C8S15712   1.363   3.455   6.977 -0.6111  0.1061 -0.7438
  143OSM    H8S15713   1.255   3.465   7.002  0.0955  2.2907  1.9276
  143OSM    H8T15714   1.377   3.374   6.902  0.3645 -0.7571  0.3324
  143OSM    C9S15715   1.415   3.574   6.904  0.3565 -0.3215  0.4362
  143OSM    H9S15716   1.522   3.561   6.881  0.5564  1.8955 -0.1655
  143OSM    H9T15717   1.402   3.673   6.954  0.7296  0.2874 -0.6486
  143OSM   C10S15718   1.344   3.595   6.761 -0.2105 -0.1765 -0.2101
  143OSM   H10S15719   1.235   3.614   6.773 -0.6678 -0.5763 -2.9831
  143OSM   H10T15720   1.352   3.499   6.706 -1.5352 -3.0374  4.1208
  143OSM   C11S15721   1.431   3.703   6.693 -0.3703 -0.0724 -0.7838
  143OSM   H11S15722   1.535   3.664   6.685  0.4897  2.3409 -2.3823
  143OSM   H11T15723   1.430   3.804   6.738 -1.5049  0.2461 -1.4764
  143OSM   C12S15724   1.372   3.715   6.546 -0.1183 -0.4222 -0.1288
  143OSM   H12S15725   1.265   3.743   6.561  0.4984  1.5405  0.9907
  143OSM   H12T15726   1.384   3.615   6.499 -0.6799 -0.2788 -0.5806
  143OSM   C13S15727   1.439   3.815   6.461 -0.1318 -0.8401  0.2529
  143OSM   H13S15728   1.548   3.797   6.467 -0.0465 -0.9162 -1.1748
  143OSM   H13T15729   1.410   3.919   6.486 -0.5866 -0.4353 -1.7352
  143OSM   C14S15730   1.408   3.798   6.317  0.1793  1.2554  0.3452
  143OSM   H14S15731   1.301   3.815   6.292 -0.0668 -2.5089 -1.9660
  143OSM   H14T15732   1.427   3.690   6.301  0.4558  0.9349  2.5315
  143OSM   C15S15733   1.496   3.880   6.224  0.8253  0.0601 -0.6232
  143OSM   H15S15734   1.605   3.863   6.237  0.4002 -1.6890  1.1612
  143OSM   H15T15735   1.484   3.989   6.240 -1.1906 -0.0016 -1.5209
  143OSM   C16S15736   1.464   3.837   6.085  0.6990  0.8492  0.0324
  143OSM   H16S15737   1.358   3.844   6.053  1.0521  1.4118 -1.0671
  143OSM   H16T15738   1.488   3.729   6.091  1.5064  1.0076 -0.2723
  143OSM   C17S15739   1.559   3.920   5.999 -0.0882  0.2008 -0.3585
  143OSM   H17S15740   1.664   3.889   6.017  0.7036  0.2488 -4.0526
  143OSM   H17T15741   1.548   4.030   6.011  0.2831  0.6372 -3.3052
  143OSM   C18S15742   1.543   3.907   5.851  0.1756 -0.0853  0.3572
  143OSM   H18S15743   1.556   3.806   5.805  3.1935  0.8143 -1.1006
  143OSM   H18T15744   1.619   3.963   5.792  1.2816  0.5698  2.3004
  143OSM   H18U15745   1.443   3.943   5.819  1.2472  0.9549 -2.0939
  143OSM    C1F15746   1.155   2.927   7.469 -0.3006  0.0541 -0.3368
  143OSM     OF15747   1.060   2.970   7.528  0.5936 -0.5966  0.1071
  143OSM    C2F15748   1.145   2.794   7.399  0.0531 -0.3371  1.0259
  143OSM    H2F15749   1.100   2.719   7.469  0.2147  0.1084  1.6105
  143OSM    H2G15750   1.245   2.756   7.371 -0.7867 -0.9584 -1.4041
  143OSM    C3F15751   1.059   2.795   7.270  0.5007 -0.2402 -0.3664
  143OSM    H3F15752   0.951   2.788   7.296  0.3518  0.4273 -0.8016
  143OSM    H3G15753   1.092   2.709   7.208  0.6278  0.9928 -2.0850
  143OSM    C4F15754   1.071   2.914   7.175  0.0182 -0.9750  0.1298
  143OSM    H4F15755   1.170   2.963   7.191  0.3710 -1.5035 -0.4173
  143OSM    H4G15756   0.998   2.994   7.200  1.5470  0.6534 -0.3845
  143OSM    C5F15757   1.051   2.864   7.035  0.3129  0.3805  0.0124
  143OSM    H5F15758   0.949   2.819   7.032  1.1197 -1.8255  1.9526
  143OSM    H5G15759   1.121   2.781   7.009 -0.3164  0.1426 -0.9870
  143OSM    C6F15760   1.054   2.973   6.923 -0.0249  0.5454  0.0934
  143OSM    H6F15761   0.989   3.059   6.948  1.1038  2.2008 -2.2338
  143OSM    H6G15762   1.002   2.936   6.832  0.5985 -1.7753  0.6013
  143OSM    C7F15763   1.186   3.043   6.900  0.4811  0.4362 -0.0116
  143OSM    H7F15764   1.262   2.966   6.874  1.9948  1.1376  2.0499
  143OSM    H7G15765   1.215   3.069   7.004 -2.5722  0.4909  0.9477
  143OSM    C8F15766   1.188   3.156   6.802  0.4109 -1.1537 -0.1282
  143OSM    H8F15767   1.295   3.181   6.785  0.5470 -0.8858  1.0644
  143OSM    H8G15768   1.136   3.252   6.823  2.9817  0.5838 -1.1998
  143OSM    C9F15769   1.133   3.105   6.673 -0.3484  0.2273  0.2545
  143OSM    H9F15770   1.132   2.995   6.670 -1.1196  0.1800  1.5417
  143OSM   C10F15771   1.119   3.184   6.560 -0.1328 -0.5185 -0.2231
  143OSM   H10F15772   1.075   3.148   6.466  0.1770  0.7445 -0.8727
  143OSM   C11F15773   1.139   3.336   6.553  0.1591  0.4186 -0.1989
  143OSM   H11F15774   1.195   3.374   6.641 -0.3142  3.3418 -1.0499
  143OSM   H11G15775   1.038   3.383   6.550 -1.2213 -2.3104 -0.2464
  143OSM   C12F15776   1.229   3.367   6.433 -0.6129  0.2114 -0.5379
  143OSM   H12F15777   1.320   3.303   6.431  0.2777  1.4497 -0.1837
  143OSM   H12G15778   1.260   3.473   6.444 -0.3236 -0.0639  2.0774
  143OSM   C13F15779   1.155   3.363   6.300  0.0950 -0.2355  0.3477
  143OSM   H13F15780   1.078   3.442   6.309  1.3086  1.1721 -1.0601
  143OSM   H13G15781   1.119   3.260   6.275 -0.8115  0.3708 -0.9451
  143OSM   C14F15782   1.262   3.393   6.196 -0.2139 -0.5131  0.3878
  143OSM   H14F15783   1.313   3.295   6.188 -1.6047 -1.2131 -0.0673
  143OSM   H14G15784   1.339   3.463   6.234 -1.2575 -0.3281  2.2665
  143OSM   C15F15785   1.203   3.441   6.062 -0.0875 -0.3340  0.3063
  143OSM   H15F15786   1.173   3.548   6.061  2.9336  0.6139  0.8829
  143OSM   H15G15787   1.125   3.370   6.027 -0.7447  1.9462 -3.3254
  143OSM   C16F15788   1.317   3.462   5.963 -0.2439  0.5748 -0.4390
  143OSM   H16F15789   1.370   3.364   5.964  3.0985  2.1289  3.4923
  143OSM   H16G15790   1.409   3.518   5.993  1.7736 -1.6530 -2.0465
  143OSM   C17F15791   1.275   3.499   5.818 -0.1894 -0.6887  0.4958
  143OSM   H17F15792   1.220   3.595   5.820  0.7261 -0.0761 -1.5802
  143OSM   H17G15793   1.205   3.419   5.785 -2.0378  0.1825  2.0572
  143OSM   C18F15794   1.390   3.508   5.718 -0.3871  0.1295 -0.0122
  143OSM   H18F15795   1.481   3.559   5.756  1.0912 -1.7887 -0.7971
  143OSM   H18G15796   1.347   3.552   5.626 -0.1907 -3.1157 -1.8182
  143OSM   H18H15797   1.427   3.406   5.692  3.1732  1.2223  0.2618
  144OSM      N15798   1.490   1.843   7.739  0.8078 -0.1594  0.3598
  144OSM    C1515799   1.546   1.779   7.859 -0.4342 -0.3184 -0.4110
  144OSM   H15A15800   1.468   1.711   7.891  1.6921 -1.0381  4.1790
  144OSM   H15B15801   1.558   1.838   7.949 -1.0983  0.2884 -0.7192
  144OSM   H15C15802   1.641   1.728   7.848 -0.3446 -0.5891  1.3125
  144OSM    C1415803   1.374   1.925   7.780 -0.5990 -0.2250 -0.0878
  144OSM   H14A15804   1.340   1.978   7.692  0.2697  0.0088 -0.2988
  144OSM   H14B15805   1.405   1.990   7.860 -0.2660 -0.5237  0.0301
  144OSM   H14C15806   1.296   1.862   7.818 -0.2703 -0.4672  0.1921
  144OSM    C1315807   1.591   1.940   7.691 -0.3942  0.4052  0.5766
  144OSM   H13A15808   1.610   2.015   7.767  0.0253  1.0730 -0.1680
  144OSM   H13B15809   1.554   1.999   7.608 -1.5103 -1.5697 -0.3859
  144OSM   H13C15810   1.679   1.891   7.654 -2.0567 -0.6642 -2.2780
  144OSM    C1215811   1.459   1.737   7.633 -0.2240 -0.8219  0.7649
  144OSM   H12A15812   1.381   1.668   7.664 -3.8853  1.0993 -3.0860
  144OSM   H12B15813   1.552   1.683   7.623 -1.2176 -3.1180  2.8243
  144OSM    C1115814   1.412   1.796   7.495  0.3681 -0.0434  0.2027
  144OSM   H11A15815   1.388   1.709   7.431 -1.2050  0.7863 -0.3932
  144OSM   H11B15816   1.498   1.844   7.444  0.7766  1.6408  2.3342
  144OSM      P15817   1.157   1.842   7.502  0.1264 -0.1627 -0.1709
  144OSM    O1315818   1.136   1.733   7.605  0.2151  0.0073  0.1501
  144OSM    O1415819   1.075   1.964   7.517  0.2874 -0.0022 -0.5863
  144OSM    O1115820   1.145   1.783   7.356  0.4053 -0.2692  0.0628
  144OSM    O1215821   1.305   1.891   7.518 -0.3186  0.2784  0.1131
  144OSM    C1S15822   1.015   1.790   7.285  0.2029 -0.6130  0.5087
  144OSM    H1S15823   0.963   1.881   7.320 -2.5902 -1.6859 -0.5545
  144OSM    H1T15824   0.937   1.717   7.315 -1.0320  0.7003  0.5473
  144OSM     NF15825   0.922   1.858   7.066 -0.1635 -0.2777  0.1974
  144OSM    HNF15826   0.857   1.793   7.028  0.1792 -1.3581  1.3792
  144OSM    C2S15827   1.033   1.789   7.131 -0.0822 -0.1531 -0.5872
  144OSM    H2S15828   1.124   1.849   7.111  0.3060 -1.5427 -3.5886
  144OSM    C3S15829   1.056   1.637   7.091  0.3685 -1.1430  0.8198
  144OSM    H3S15830   0.953   1.596   7.092 -1.5950  3.2882  1.0363
  144OSM     O315831   1.125   1.559   7.186 -0.0101  0.4109 -0.0502
  144OSM    HO315832   1.143   1.619   7.259 -2.3884  0.4853  0.5674
  144OSM    C4S15833   1.114   1.633   6.950  0.1459  0.1456 -0.3083
  144OSM    H4S15834   1.037   1.629   6.872  0.0091 -0.6587 -0.1421
  144OSM    C5S15835   1.242   1.643   6.914 -0.6650 -0.0667  0.1898
  144OSM    H5S15836   1.316   1.691   6.980 -1.8945  1.6483  0.3913
  144OSM    C6S15837   1.294   1.648   6.772 -0.1015  0.3443 -0.2334
  144OSM    H6S15838   1.213   1.666   6.698  1.5053  2.8726 -1.4905
  144OSM    H6T15839   1.339   1.548   6.752  2.0913  1.7307 -2.8480
  144OSM    C7S15840   1.407   1.756   6.748 -0.5847  0.7112 -0.3831
  144OSM    H7S15841   1.494   1.729   6.685  1.0583  0.6315  1.7616
  144OSM    H7T15842   1.458   1.776   6.845  0.3657 -0.3920 -0.6293
  144OSM    C8S15843   1.354   1.893   6.691  0.3493  0.3562  0.0355
  144OSM    H8S15844   1.441   1.958   6.670  0.9257 -0.3068  0.3349
  144OSM    H8T15845   1.290   1.939   6.769  0.1333 -0.7045  0.5087
  144OSM    C9S15846   1.273   1.871   6.559  0.4532  0.3381  0.4614
  144OSM    H9S15847   1.263   1.960   6.494 -2.7421 -0.6562 -0.5807
  144OSM    H9T15848   1.168   1.845   6.585 -0.2017  0.3638 -1.9620
  144OSM   C10S15849   1.334   1.769   6.456  0.0975  0.1627  0.2318
  144OSM   H10S15850   1.330   1.669   6.506  2.7902 -0.5412 -0.7747
  144OSM   H10T15851   1.441   1.790   6.438  0.4702 -2.9949 -2.1058
  144OSM   C11S15852   1.258   1.776   6.327 -0.9344 -0.6842  0.0779
  144OSM   H11S15853   1.277   1.872   6.276  0.3504 -0.0872  1.6172
  144OSM   H11T15854   1.149   1.775   6.348 -0.8634 -0.7294  0.4479
  144OSM   C12S15855   1.305   1.664   6.225 -0.3226  0.0462  0.4677
  144OSM   H12S15856   1.235   1.582   6.248 -0.7988  0.7594  1.6382
  144OSM   H12T15857   1.410   1.635   6.248  0.1832  1.1098 -0.3669
  144OSM   C13S15858   1.285   1.706   6.084 -0.3353  0.2378 -0.1576
  144OSM   H13S15859   1.379   1.758   6.056 -0.6271  1.4436  1.0429
  144OSM   H13T15860   1.194   1.766   6.063  1.0076  2.1034 -0.8974
  144OSM   C14S15861   1.271   1.569   6.009 -0.7331 -0.1539  0.2879
  144OSM   H14S15862   1.240   1.603   5.907  0.8781  0.6124  0.0135
  144OSM   H14T15863   1.195   1.494   6.039 -1.0912  0.1372  0.1105
  144OSM   C15S15864   1.417   1.495   5.987  0.0936  0.2541  0.0064
  144OSM   H15S15865   1.432   1.413   6.061  3.4063 -0.9321 -1.7463
  144OSM   H15T15866   1.502   1.566   5.992  1.0675 -0.8132 -0.8102
  144OSM   C16S15867   1.422   1.428   5.851 -0.1438 -0.1208 -0.2323
  144OSM   H16S15868   1.321   1.410   5.808 -0.5995 -0.9292  1.1226
  144OSM   H16T15869   1.469   1.328   5.866 -1.7115 -1.0514 -1.1625
  144OSM   C17S15870   1.495   1.507   5.746 -0.1240  0.0480  0.2719
  144OSM   H17S15871   1.597   1.538   5.776  0.0926  2.8099 -2.6859
  144OSM   H17T15872   1.431   1.598   5.744  0.8832  0.9690  3.6672
  144OSM   C18S15873   1.502   1.425   5.618 -0.1994 -0.6099  0.0494
  144OSM   H18S15874   1.405   1.377   5.596 -0.7901  1.3448 -1.9804
  144OSM   H18T15875   1.582   1.347   5.617  1.8120  1.3338 -1.6113
  144OSM   H18U15876   1.522   1.487   5.528  1.5674  0.4573  1.1000
  144OSM    C1F15877   0.891   1.982   7.086 -0.6800  0.1666 -1.1795
  144OSM     OF15878   0.952   2.057   7.160  0.1749  0.0996 -0.1459
  144OSM    C2F15879   0.773   2.036   7.030  0.2467  0.7789  0.4319
  144OSM    H2F15880   0.755   2.144   7.044 -0.2681  0.6468  0.8225
  144OSM    H2G15881   0.688   1.990   7.085  1.0618 -1.4665 -0.0628
  144OSM    C3F15882   0.762   1.999   6.881 -0.2047  0.3997  0.4331
  144OSM    H3F15883   0.677   2.058   6.839  0.2811 -0.6201 -2.1470
  144OSM    H3G15884   0.751   1.890   6.866  4.7405 -0.1839 -0.4841
  144OSM    C4F15885   0.876   2.048   6.797 -0.0102 -0.2642  0.2628
  144OSM    H4F15886   0.963   1.979   6.808  0.3875 -0.0299 -1.2208
  144OSM    H4G15887   0.907   2.152   6.821 -2.0593  0.7131 -1.0842
  144OSM    C5F15888   0.836   2.054   6.644  0.0442  0.6057  0.2825
  144OSM    H5F15889   0.745   2.117   6.651 -1.2062 -0.7751 -2.2081
  144OSM    H5G15890   0.801   1.958   6.601 -0.3933  1.0351 -0.3251
  144OSM    C6F15891   0.941   2.124   6.557 -0.3255  0.6173 -0.7172
  144OSM    H6F15892   1.018   2.044   6.547 -0.7905  0.2049 -1.1102
  144OSM    H6G15893   0.978   2.214   6.610 -1.3814 -0.5327  2.2202
  144OSM    C7F15894   0.883   2.179   6.429  0.2590 -0.1509 -0.1516
  144OSM    H7F15895   0.820   2.261   6.469  2.1924  1.2603  0.1742
  144OSM    H7G15896   0.809   2.111   6.381 -0.5039 -0.3666  1.2780
  144OSM    C8F15897   0.983   2.228   6.326  0.2468  0.9686  0.5870
  144OSM    H8F15898   1.065   2.288   6.372  0.8303 -0.3795  1.3659
  144OSM    H8G15899   0.917   2.283   6.255 -0.4235 -0.3959  0.1265
  144OSM    C9F15900   1.044   2.103   6.261  0.1890  0.6499  0.1710
  144OSM    H9F15901   1.123   2.060   6.325  0.4247  0.4005 -0.2869
  144OSM   C10F15902   1.043   2.080   6.128  0.5741  0.6202 -0.0353
  144OSM   H10F15903   1.091   1.986   6.095 -1.6770 -1.0015  1.0268
  144OSM   C11F15904   0.957   2.150   6.028 -0.5072 -0.1843  0.5431
  144OSM   H11F15905   0.907   2.242   6.066  0.3700  1.2475 -1.5864
  144OSM   H11G15906   0.873   2.085   5.993 -0.4813 -0.5242  1.0900
  144OSM   C12F15907   1.035   2.193   5.904 -0.1751  0.3344  0.1318
  144OSM   H12F15908   1.089   2.102   5.869 -1.5589 -0.0784 -1.0087
  144OSM   H12G15909   1.099   2.280   5.928  0.3208  0.5571 -1.8252
  144OSM   C13F15910   0.947   2.226   5.789  0.1601 -0.9120 -0.0076
  144OSM   H13F15911   0.901   2.324   5.815  1.2209 -0.2686 -0.4927
  144OSM   H13G15912   0.864   2.152   5.794  0.1741 -0.8467  1.7979
  144OSM   C14F15913   1.009   2.227   5.651 -0.9216 -0.3941  0.1673
  144OSM   H14F15914   0.949   2.214   5.559  2.9204  0.5136 -2.7311
  144OSM   H14G15915   1.070   2.134   5.648  0.7050  0.4703  2.6950
  144OSM   C15F15916   1.120   2.329   5.628  0.2129 -0.1527  0.5597
  144OSM   H15F15917   1.168   2.345   5.727  0.0727  0.2860  0.5566
  144OSM   H15G15918   1.084   2.423   5.581  0.2411 -0.7871 -0.7985
  144OSM   C16F15919   1.228   2.282   5.531  0.3049 -0.7862  0.3364
  144OSM   H16F15920   1.191   2.297   5.427 -0.2824 -0.0436  0.6402
  144OSM   H16G15921   1.253   2.176   5.553 -0.2268 -1.2713 -1.2474
  144OSM   C17F15922   1.352   2.375   5.547  0.1839 -0.8132 -0.1791
  144OSM   H17F15923   1.404   2.362   5.645  1.9139  2.3759 -0.5295
  144OSM   H17G15924   1.314   2.479   5.557 -1.3196 -1.5214  2.8935
  144OSM   C18F15925   1.467   2.348   5.453 -0.3701 -0.0772  0.5016
  144OSM   H18F15926   1.525   2.443   5.451  1.2473 -1.0144  0.9630
  144OSM   H18G15927   1.428   2.311   5.356  2.0424 -0.4759 -0.3688
  144OSM   H18H15928   1.534   2.262   5.474 -0.3149 -0.8671 -2.4581
  145OSM      N15929   2.325   3.738   7.602  0.5489  0.1915 -0.5886
  145OSM    C1515930   2.294   3.803   7.732 -0.6034  0.0616 -0.3385
  145OSM   H15A15931   2.269   3.908   7.728  1.8613  0.8839  2.3635
  145OSM   H15B15932   2.381   3.798   7.797  0.1498 -1.1236 -1.3890
  145OSM   H15C15933   2.215   3.758   7.790  0.1377  0.6314  1.1720
  145OSM    C1415934   2.364   3.591   7.628 -0.0233  0.2760 -0.3689
  145OSM   H14A15935   2.410   3.556   7.537 -2.0992  0.0484 -1.3618
  145OSM   H14B15936   2.287   3.519   7.648  2.2105 -2.5096 -1.0841
  145OSM   H14C15937   2.435   3.590   7.710 -0.0407 -0.2603 -0.3574
  145OSM    C1315938   2.205   3.745   7.517  0.8879 -0.6010  0.5262
  145OSM   H13A15939   2.182   3.848   7.494 -1.7270 -0.5906  2.6122
  145OSM   H13B15940   2.119   3.723   7.579  1.9157 -1.1565  1.8034
  145OSM   H13C15941   2.216   3.677   7.435  2.8757 -0.7336  0.8521
  145OSM    C1215942   2.447   3.802   7.534 -0.1869  0.2147  0.1847
  145OSM   H12A15943   2.525   3.801   7.609  0.2367 -0.3500 -0.2476
  145OSM   H12B15944   2.421   3.905   7.519  0.0567  0.5546  1.9306
  145OSM    C1115945   2.495   3.736   7.406 -0.0742  0.2948  0.1713
  145OSM   H11A15946   2.561   3.803   7.347  2.5837 -3.5775 -1.6530
  145OSM   H11B15947   2.416   3.711   7.332 -2.0248  3.3735  0.9890
  145OSM      P15948   2.710   3.626   7.508 -0.0994 -0.1484  0.1528
  145OSM    O1315949   2.703   3.699   7.631 -0.0726 -0.7633  0.1052
  145OSM    O1415950   2.757   3.488   7.523  0.3642  0.2155 -0.2391
  145OSM    O1115951   2.796   3.708   7.399 -0.8926  0.1427  0.6273
  145OSM    O1215952   2.570   3.617   7.437 -0.3552  0.0080  0.4143
  145OSM    C1S15953   2.823   3.643   7.271 -0.1785 -0.4083 -0.0662
  145OSM    H1S15954   2.770   3.548   7.250 -1.6385  0.9506 -3.1295
  145OSM    H1T15955   2.928   3.608   7.274  0.1413  0.4297  3.1586
  145OSM     NF15956   2.834   3.671   7.022 -0.1105 -0.2318  0.4638
  145OSM    HNF15957   2.917   3.695   6.973  0.9777 -2.3280  1.1647
  145OSM    C2S15958   2.803   3.739   7.145 -0.0822  0.5676 -0.5509
  145OSM    H2S15959   2.694   3.758   7.135  0.1565  1.3583 -1.8656
  145OSM    C3S15960   2.888   3.867   7.156  0.2630  0.2714  0.0274
  145OSM    H3S15961   2.990   3.825   7.169 -1.2640 -4.1999 -0.8546
  145OSM     O315962   2.881   3.929   7.286 -0.4751  0.6538 -0.5433
  145OSM    HO315963   2.851   3.853   7.336  1.4195  0.9825  1.2313
  145OSM    C4S15964   2.895   3.961   7.040 -0.4935 -0.5261 -0.5410
  145OSM    H4S15965   2.958   3.923   6.958  0.4988 -0.3754  0.1330
  145OSM    C5S15966   2.827   4.079   7.021 -0.1294 -0.0188 -0.2638
  145OSM    H5S15967   2.752   4.118   7.092 -2.3336 -0.7441 -2.0642
  145OSM    C6S15968   2.850   4.147   6.894  0.0446 -0.0200 -0.0181
  145OSM    H6S15969   2.882   4.249   6.924  0.1352  0.7403 -2.5335
  145OSM    H6T15970   2.750   4.157   6.848 -0.3617 -2.2227  0.2951
  145OSM    C7S15971   2.957   4.115   6.791 -0.0978  0.7948  0.1775
  145OSM    H7S15972   2.957   4.007   6.765 -0.9435  0.0846  2.8532
  145OSM    H7T15973   3.053   4.146   6.838  0.2365  0.6329 -0.3826
  145OSM    C8S15974   2.934   4.189   6.657 -0.3280  0.3077 -1.0484
  145OSM    H8S15975   3.022   4.173   6.591  1.0435 -0.3970  0.8940
  145OSM    H8T15976   2.939   4.298   6.676 -1.5478  0.1806  0.0935
  145OSM    C9S15977   2.817   4.152   6.576 -0.8743  0.0018  0.1226
  145OSM    H9S15978   2.720   4.170   6.627 -1.0427 -0.9962  0.1840
  145OSM    H9T15979   2.814   4.042   6.559  0.1279 -0.0804  0.4078
  145OSM   C10S15980   2.805   4.246   6.456 -0.4791  0.2770 -0.1881
  145OSM   H10S15981   2.901   4.238   6.401 -0.8507 -2.8730 -0.5366
  145OSM   H10T15982   2.798   4.349   6.498  0.1812  0.8517 -1.4149
  145OSM   C11S15983   2.686   4.208   6.370 -0.1554  0.5129  0.0204
  145OSM   H11S15984   2.596   4.204   6.435  0.1677 -3.1277  0.4804
  145OSM   H11T15985   2.679   4.098   6.354  0.1139  0.7731 -2.1122
  145OSM   C12S15986   2.653   4.285   6.248  0.2588  0.3716 -0.3468
  145OSM   H12S15987   2.670   4.393   6.271 -2.8102  0.6430  1.1790
  145OSM   H12T15988   2.542   4.283   6.237 -0.4059  0.0218  4.3842
  145OSM   C13S15989   2.723   4.226   6.123  0.6305  0.0910  0.4704
  145OSM   H13S15990   2.728   4.115   6.113 -1.2597  0.1099 -1.5465
  145OSM   H13T15991   2.825   4.266   6.107 -0.0959  1.5919 -0.5796
  145OSM   C14S15992   2.632   4.249   5.993 -0.0678 -0.0879  0.2310
  145OSM   H14S15993   2.646   4.355   5.962 -2.0957  0.4845  1.0943
  145OSM   H14T15994   2.525   4.223   6.010  0.1342 -0.1488  1.4914
  145OSM   C15S15995   2.671   4.172   5.874 -0.0457  0.5087  0.4172
  145OSM   H15S15996   2.610   4.079   5.868 -1.1232  1.2125  0.1688
  145OSM   H15T15997   2.780   4.153   5.868 -0.3265 -2.8470  3.0579
  145OSM   C16S15998   2.622   4.240   5.741  0.4797 -0.0880 -0.4482
  145OSM   H16S15999   2.672   4.338   5.725  0.1120  0.4443  1.4454
  145OSM   H16T16000   2.512   4.253   5.729  0.6484  0.2990 -1.6700
  145OSM   C17S16001   2.662   4.149   5.622  0.1948  0.2013  0.5759
  145OSM   H17S16002   2.600   4.056   5.623  3.3266 -2.0838 -0.6228
  145OSM   H17T16003   2.762   4.103   5.634 -0.1448 -0.3142  1.5415
  145OSM   C18S16004   2.628   4.218   5.486  0.1470  0.0250 -0.9302
  145OSM   H18S16005   2.524   4.257   5.487  0.8502  2.3774  3.1068
  145OSM   H18T16006   2.647   4.153   5.398  0.7759 -1.6610  0.4153
  145OSM   H18U16007   2.691   4.305   5.460 -1.2095  1.0864 -0.8032
  145OSM    C1F16008   2.757   3.573   6.973  0.0599  0.2132  0.1051
  145OSM     OF16009   2.652   3.548   7.030 -0.4966  0.8916 -0.3090
  145OSM    C2F16010   2.819   3.494   6.859  0.6290  0.1376 -0.2541
  145OSM    H2F16011   2.876   3.417   6.916  1.4727 -0.2567 -1.6011
  145OSM    H2G16012   2.884   3.562   6.801  0.4356  0.2081 -0.3908
  145OSM    C3F16013   2.711   3.432   6.766 -0.5670  0.6418 -0.2248
  145OSM    H3F16014   2.632   3.499   6.726 -0.2263  0.9866 -0.3296
  145OSM    H3G16015   2.650   3.349   6.808 -1.7668  1.0593 -1.0699
  145OSM    C4F16016   2.773   3.386   6.636 -0.8325  0.0050  0.4752
  145OSM    H4F16017   2.709   3.309   6.588  0.1354 -0.0836 -0.7288
  145OSM    H4G16018   2.861   3.320   6.651  1.0714  2.1803 -0.4658
  145OSM    C5F16019   2.796   3.487   6.526  0.9659  0.6468  0.4563
  145OSM    H5F16020   2.865   3.561   6.572  1.1999  0.3315  0.6117
  145OSM    H5G16021   2.697   3.533   6.505  1.4556  1.9864  0.9806
  145OSM    C6F16022   2.846   3.423   6.398 -0.4533  0.3453  0.4764
  145OSM    H6F16023   2.779   3.343   6.359  0.0299 -0.2689  0.8946
  145OSM    H6G16024   2.944   3.375   6.418 -0.3479  0.7304  0.8987
  145OSM    C7F16025   2.867   3.532   6.296  0.6786 -0.2126  0.0599
  145OSM    H7F16026   2.934   3.606   6.344  0.2558  1.0683 -1.2557
  145OSM    H7G16027   2.773   3.588   6.274  0.6615  1.0853  2.9423
  145OSM    C8F16028   2.944   3.496   6.171  0.2291  0.0066  0.5847
  145OSM    H8F16029   3.038   3.444   6.197  0.9070 -0.1547 -1.8981
  145OSM    H8G16030   2.965   3.592   6.119  1.9071  0.3102  1.7438
  145OSM    C9F16031   2.858   3.404   6.087 -0.1970  0.2508  0.0197
  145OSM    H9F16032   2.773   3.369   6.147  0.0010  0.7636  0.6239
  145OSM   C10F16033   2.859   3.381   5.952 -0.3386  0.2892 -0.4873
  145OSM   H10F16034   2.790   3.302   5.921 -1.0615 -0.9314  3.5688
  145OSM   C11F16035   2.964   3.435   5.859 -0.1537  0.1107 -0.1843
  145OSM   H11F16036   3.018   3.348   5.814  0.6175  1.0884 -1.2170
  145OSM   H11G16037   3.040   3.491   5.917 -0.6836  0.6432  0.0075
  145OSM   C12F16038   2.905   3.517   5.744  0.0363  0.0965 -0.1511
  145OSM   H12F16039   2.994   3.540   5.681  0.8981  1.2012  1.3981
  145OSM   H12G16040   2.859   3.611   5.783 -0.5873 -0.2853  0.0489
  145OSM   C13F16041   2.793   3.445   5.657 -0.1040  0.2155 -0.1179
  145OSM   H13F16042   2.700   3.464   5.715  0.3579  0.3108  0.5967
  145OSM   H13G16043   2.826   3.339   5.653  2.5790  0.9935 -0.9250
  145OSM   C14F16044   2.768   3.502   5.517 -0.5524 -0.8544 -0.2597
  145OSM   H14F16045   2.779   3.612   5.523  0.6443 -1.0482  3.0152
  145OSM   H14G16046   2.660   3.494   5.494 -0.8268  0.7972  0.3174
  145OSM   C15F16047   2.848   3.441   5.397  0.4035  0.1940  0.1392
  145OSM   H15F16048   2.824   3.334   5.378  4.1141 -1.0120  1.3843
  145OSM   H15G16049   2.956   3.455   5.418  0.3999 -1.9829  2.0781
  145OSM   C16F16050   2.822   3.519   5.258 -0.4134  0.9806  0.6808
  145OSM   H16F16051   2.873   3.618   5.257 -0.9268  1.2671  1.6947
  145OSM   H16G16052   2.717   3.551   5.241 -0.3646  1.0957  0.5982
  145OSM   C17F16053   2.881   3.442   5.133 -0.2857 -0.8395  0.3468
  145OSM   H17F16054   2.808   3.359   5.131 -2.6360  1.0752  1.4617
  145OSM   H17G16055   2.979   3.398   5.160 -1.7230 -3.4703  1.6736
  145OSM   C18F16056   2.889   3.516   5.001 -0.0116 -0.0954  0.0283
  145OSM   H18F16057   2.785   3.532   4.964  0.1196 -0.9174 -0.7289
  145OSM   H18G16058   2.929   3.448   4.923 -1.3799 -0.3794 -0.4640
  145OSM   H18H16059   2.936   3.617   5.006  0.6495 -0.3997  0.0358
  146OSM      N16060   1.853   5.455   7.287 -0.2746 -0.3249 -0.0331
  146OSM    C1516061   1.983   5.493   7.328 -0.3730 -0.0774 -0.1518
  146OSM   H15A16062   2.058   5.530   7.259 -0.7953 -1.1733 -1.2231
  146OSM   H15B16063   2.038   5.411   7.372  2.0048  0.5902 -1.6571
  146OSM   H15C16064   1.986   5.574   7.400  1.4694  0.0160 -0.2773
  146OSM    C1416065   1.784   5.415   7.408 -0.4090 -0.3504  0.9241
  146OSM   H14A16066   1.687   5.381   7.373  0.8319 -0.3703 -2.9082
  146OSM   H14B16067   1.776   5.504   7.470  0.9825  1.3379 -1.1927
  146OSM   H14C16068   1.843   5.346   7.466 -1.7259 -1.0399  1.4926
  146OSM    C1316069   1.773   5.571   7.227 -0.4640 -0.0262 -0.4573
  146OSM   H13A16070   1.767   5.654   7.297  0.6544  0.2217 -0.6304
  146OSM   H13B16071   1.672   5.538   7.208 -1.6408  1.7650  2.0007
  146OSM   H13C16072   1.828   5.611   7.143  4.1432 -1.8399  1.3490
  146OSM    C1216073   1.861   5.329   7.198  0.2745 -0.0522 -0.1203
  146OSM   H12A16074   1.885   5.252   7.270 -0.8585  1.5161  2.0689
  146OSM   H12B16075   1.938   5.353   7.126 -1.0192  3.1650 -0.5762
  146OSM    C1116076   1.725   5.284   7.135  0.2392  0.0462 -0.2298
  146OSM   H11A16077   1.736   5.187   7.082 -3.2521 -0.2568 -0.6497
  146OSM   H11B16078   1.694   5.358   7.059  0.4532  0.5525  0.1685
  146OSM      P16079   1.495   5.194   7.209 -0.4782 -0.2982 -0.4740
  146OSM    O1316080   1.547   5.060   7.216  0.7636 -0.0359 -0.4603
  146OSM    O1416081   1.376   5.228   7.294  0.5639 -0.0278  0.1567
  146OSM    O1116082   1.457   5.228   7.054 -0.0667  1.0946 -0.2339
  146OSM    O1216083   1.614   5.291   7.226 -0.1634 -0.2421 -0.1569
  146OSM    C1S16084   1.356   5.148   6.988  0.1301 -0.0433 -0.1869
  146OSM    H1S16085   1.256   5.188   7.016 -0.0876 -0.7316  0.0220
  146OSM    H1T16086   1.363   5.042   7.022 -1.2518 -0.3898 -0.9313
  146OSM     NF16087   1.256   5.096   6.771  0.1700  0.1382  0.1162
  146OSM    HNF16088   1.281   5.004   6.743  0.2158 -0.3239  1.5813
  146OSM    C2S16089   1.370   5.169   6.833 -0.2219  0.2722 -0.3072
  146OSM    H2S16090   1.363   5.279   6.819  1.8956  0.5496  0.4670
  146OSM    C3S16091   1.507   5.120   6.785  0.4099  0.1329 -0.3737
  146OSM    H3S16092   1.514   5.015   6.820 -2.2944  0.1110  0.3401
  146OSM     O316093   1.611   5.190   6.847 -1.1722 -0.2402  0.7703
  146OSM    HO316094   1.573   5.245   6.916 -0.3958  0.8330  0.3842
  146OSM    C4S16095   1.515   5.130   6.631  0.0077  0.0130 -0.2308
  146OSM    H4S16096   1.490   5.228   6.587 -0.8875  0.1103  0.4594
  146OSM    C5S16097   1.552   5.032   6.549 -0.2230 -0.3266  0.2900
  146OSM    H5S16098   1.595   4.940   6.592 -2.1589 -0.3355  2.4144
  146OSM    C6S16099   1.569   5.048   6.403 -0.6060  0.1703 -1.0793
  146OSM    H6S16100   1.630   4.964   6.364 -0.0236  0.5810 -1.0677
  146OSM    H6T16101   1.616   5.145   6.378  1.0183  0.5770  2.8262
  146OSM    C7S16102   1.425   5.042   6.338 -0.2044  0.6611 -0.4742
  146OSM    H7S16103   1.381   5.137   6.372  1.3789  0.5531  2.1990
  146OSM    H7T16104   1.359   4.962   6.377  0.6618 -0.6392 -1.5704
  146OSM    C8S16105   1.432   5.038   6.184  1.0796 -1.0404  0.7887
  146OSM    H8S16106   1.444   4.932   6.155 -1.5356 -1.7010  1.8669
  146OSM    H8T16107   1.528   5.088   6.158  1.6069 -1.4875  1.8463
  146OSM    C9S16108   1.323   5.094   6.098 -0.2787 -0.5261  0.4592
  146OSM    H9S16109   1.307   5.197   6.136 -0.2446  0.0061 -0.8970
  146OSM    H9T16110   1.229   5.037   6.114  0.0867 -1.6607 -1.1821
  146OSM   C10S16111   1.358   5.114   5.951  0.4125 -0.5682 -0.6315
  146OSM   H10S16112   1.338   5.024   5.889 -0.1913 -0.3984 -0.6873
  146OSM   H10T16113   1.464   5.148   5.946  0.4989 -0.7576 -0.1537
  146OSM   C11S16114   1.279   5.230   5.891 -0.4275  0.1488 -0.6883
  146OSM   H11S16115   1.290   5.331   5.938  0.8164  0.5069 -1.7154
  146OSM   H11T16116   1.173   5.198   5.897 -0.4781  0.4543  0.5650
  146OSM   C12S16117   1.315   5.244   5.746 -0.1416  0.2589  0.2648
  146OSM   H12S16118   1.297   5.151   5.689 -0.2052 -0.0706  0.8171
  146OSM   H12T16119   1.424   5.265   5.735 -0.4464  0.8420 -2.6998
  146OSM   C13S16120   1.267   5.371   5.673 -1.0286  0.1110 -0.8051
  146OSM   H13S16121   1.322   5.378   5.577 -0.1351 -2.5916 -0.5620
  146OSM   H13T16122   1.297   5.464   5.726 -1.1651 -0.4788  0.3563
  146OSM   C14S16123   1.116   5.367   5.649  0.2602  0.0890  0.2543
  146OSM   H14S16124   1.075   5.411   5.743  0.2042  0.0333  0.2562
  146OSM   H14T16125   1.084   5.261   5.647  1.0880 -0.2048 -2.9428
  146OSM   C15S16126   1.072   5.448   5.520 -0.1401  1.0769 -0.4795
  146OSM   H15S16127   1.122   5.547   5.519 -0.8876  1.5322  1.7083
  146OSM   H15T16128   0.963   5.463   5.537 -0.4520 -0.1045 -1.3062
  146OSM   C16S16129   1.093   5.373   5.391  0.0213 -0.7089  0.4298
  146OSM   H16S16130   1.029   5.283   5.377 -0.1711 -0.9272  2.3824
  146OSM   H16T16131   1.198   5.335   5.395  0.4807  0.5991  1.9366
  146OSM   C17S16132   1.056   5.476   5.278 -0.3793  0.6217  0.5684
  146OSM   H17S16133   1.116   5.570   5.281  1.7868 -0.7157  1.9683
  146OSM   H17T16134   0.948   5.500   5.286  0.0247  3.0865 -0.5023
  146OSM   C18S16135   1.082   5.405   5.143 -0.6063 -0.3243  0.2816
  146OSM   H18S16136   1.190   5.401   5.117 -0.1745  1.5132  1.5470
  146OSM   H18T16137   1.034   5.456   5.056 -2.8080 -2.5553  0.0878
  146OSM   H18U16138   1.041   5.302   5.150  0.3662 -0.7278  0.2483
  146OSM    C1F16139   1.123   5.129   6.773 -0.6088 -0.1364 -0.3277
  146OSM     OF16140   1.085   5.220   6.844 -0.1168  0.2499  0.3499
  146OSM    C2F16141   1.035   5.056   6.682 -0.6898  0.6488 -0.4262
  146OSM    H2F16142   0.990   4.972   6.739 -0.5165 -0.1115 -1.3677
  146OSM    H2G16143   1.100   5.022   6.598  0.1637 -0.1413  0.5228
  146OSM    C3F16144   0.919   5.144   6.628 -0.6758  0.0314 -0.9481
  146OSM    H3F16145   0.888   5.203   6.716  1.5244 -0.0146 -0.0743
  146OSM    H3G16146   0.832   5.080   6.602 -0.7264 -0.2835 -0.0404
  146OSM    C4F16147   0.947   5.233   6.500 -1.0454 -0.2913 -0.0706
  146OSM    H4F16148   1.050   5.274   6.506 -1.0627 -0.1898 -0.4764
  146OSM    H4G16149   0.884   5.324   6.504 -1.2258 -0.4386  0.6926
  146OSM    C5F16150   0.923   5.161   6.373 -0.2462  0.0525 -0.4039
  146OSM    H5F16151   0.822   5.115   6.370 -0.3412  0.0855  1.1944
  146OSM    H5G16152   0.992   5.073   6.372  0.2702  0.4589 -0.9088
  146OSM    C6F16153   0.946   5.253   6.248 -0.1332  0.6349  0.0928
  146OSM    H6F16154   0.962   5.187   6.159  1.7718 -1.1906  1.6911
  146OSM    H6G16155   1.042   5.307   6.256  1.4647 -2.0116 -0.1503
  146OSM    C7F16156   0.832   5.346   6.220 -0.4778 -0.0047 -0.2611
  146OSM    H7F16157   0.833   5.400   6.317  0.8763 -1.1942  0.4216
  146OSM    H7G16158   0.738   5.290   6.207  0.2327 -1.4700  0.6890
  146OSM    C8F16159   0.866   5.436   6.099  0.8282  0.0291 -0.2782
  146OSM    H8F16160   0.963   5.484   6.125 -0.6404  2.8394  0.3420
  146OSM    H8G16161   0.791   5.518   6.102  2.1692  1.2642  1.6139
  146OSM    C9F16162   0.866   5.362   5.965  0.4008  0.0399  0.6095
  146OSM    H9F16163   0.945   5.287   5.952  1.0294  0.7800  0.0341
  146OSM   C10F16164   0.789   5.387   5.857  0.8899 -0.3278  0.3231
  146OSM   H10F16165   0.802   5.329   5.764 -1.3263  1.0018 -0.9200
  146OSM   C11F16166   0.681   5.490   5.830  0.4549 -0.2651  0.7254
  146OSM   H11F16167   0.655   5.539   5.927  1.5794  1.8300  0.0214
  146OSM   H11G16168   0.596   5.434   5.787  0.1825  0.0995  0.7832
  146OSM   C12F16169   0.707   5.606   5.731 -0.2931 -0.3064 -0.0112
  146OSM   H12F16170   0.620   5.675   5.734  0.9892  1.3839  0.2378
  146OSM   H12G16171   0.711   5.562   5.629 -0.0011 -0.2242 -0.0352
  146OSM   C13F16172   0.825   5.707   5.757  0.1004  0.6795  0.0244
  146OSM   H13F16173   0.912   5.654   5.711  0.3331  1.9276 -1.0281
  146OSM   H13G16174   0.842   5.720   5.866  0.4881  1.0511 -0.0747
  146OSM   C14F16175   0.801   5.849   5.694 -0.4458 -0.2972 -0.0997
  146OSM   H14F16176   0.721   5.911   5.740  0.1334  0.6826 -0.3753
  146OSM   H14G16177   0.892   5.910   5.717 -0.3683 -0.3799 -0.1867
  146OSM   C15F16178   0.783   5.844   5.541 -0.8723  0.6039  0.2143
  146OSM   H15F16179   0.694   5.781   5.519 -1.2277  1.5199 -1.0907
  146OSM   H15G16180   0.870   5.785   5.504 -0.6290  0.2980  1.2490
  146OSM   C16F16181   0.781   5.978   5.473 -0.4769 -0.2294  0.3229
  146OSM   H16F16182   0.885   6.014   5.455 -0.4790 -0.1431  0.4788
  146OSM   H16G16183   0.727   6.060   5.524 -1.9799 -0.6105 -0.5977
  146OSM   C17F16184   0.714   5.956   5.345 -0.6753  0.3281  0.3194
  146OSM   H17F16185   0.606   5.938   5.364 -0.9885 -1.7407 -2.7082
  146OSM   H17G16186   0.763   5.872   5.291  0.2913  2.1967 -1.9013
  146OSM   C18F16187   0.712   6.088   5.265  0.0021  0.1319 -0.2078
  146OSM   H18F16188   0.661   6.168   5.322 -3.0559 -0.5644 -1.7604
  146OSM   H18G16189   0.648   6.068   5.176 -2.9736 -0.8626  1.9991
  146OSM   H18H16190   0.813   6.122   5.233 -0.8532  3.7937  0.5052
  147OSM      N16191   3.366   6.387   3.028 -0.1040 -0.1509 -0.5267
  147OSM    C1516192   3.482   6.469   3.006  0.4733 -0.0343  0.2886
  147OSM   H15A16193   3.493   6.531   3.093 -3.1962  1.4997 -0.1282
  147OSM   H15B16194   3.469   6.537   2.923  0.6972 -0.9376 -0.5088
  147OSM   H15C16195   3.568   6.404   2.997  0.1671 -0.2404 -1.6149
  147OSM    C1416196   3.391   6.319   3.164 -0.6976 -0.7943  0.0283
  147OSM   H14A16197   3.311   6.248   3.176 -1.7069 -0.2341 -2.7023
  147OSM   H14B16198   3.400   6.388   3.247 -0.4267 -0.5552 -0.1959
  147OSM   H14C16199   3.488   6.272   3.165 -0.2153 -0.2520 -3.8942
  147OSM    C1316200   3.250   6.482   3.046 -0.0508 -0.0601  0.7444
  147OSM   H13A16201   3.258   6.539   3.137 -1.2586 -0.2024  0.9621
  147OSM   H13B16202   3.155   6.430   3.046  0.0420 -0.2949 -0.8795
  147OSM   H13C16203   3.236   6.559   2.972  1.6741 -0.9753 -0.6155
  147OSM    C1216204   3.340   6.282   2.921 -0.4423 -0.3931  0.0861
  147OSM   H12A16205   3.328   6.342   2.832  0.7710  0.6473  0.5958
  147OSM   H12B16206   3.244   6.233   2.933 -0.6049 -0.2913 -0.7188
  147OSM    C1116207   3.457   6.187   2.889 -0.6741 -0.6981  0.4722
  147OSM   H11A16208   3.413   6.109   2.824 -3.0494 -0.4041  1.6139
  147OSM   H11B16209   3.491   6.145   2.987 -1.5190 -0.3982  0.8989
  147OSM      P16210   3.679   6.158   2.771  0.0531  0.0201  0.0328
  147OSM    O1316211   3.628   6.063   2.666 -0.4587 -0.2175  0.0606
  147OSM    O1416212   3.795   6.237   2.728 -0.3492 -0.0359 -0.5800
  147OSM    O1116213   3.726   6.080   2.905  0.4238 -0.0258 -0.3894
  147OSM    O1216214   3.571   6.254   2.825 -1.0063 -0.0897 -0.3494
  147OSM    C1S16215   3.802   6.166   2.996  0.6245  0.4148  0.3831
  147OSM    H1S16216   3.754   6.265   3.011 -0.3509  0.3847 -2.1081
  147OSM    H1T16217   3.904   6.183   2.955  0.3269 -1.7559 -1.4142
  147OSM     NF16218   3.854   6.206   3.233  0.3986 -0.5377 -0.2305
  147OSM    HNF16219   3.939   6.211   3.285 -0.4668 -1.2784  1.3505
  147OSM    C2S16220   3.822   6.102   3.137 -0.7660 -0.3168  0.4262
  147OSM    H2S16221   3.721   6.066   3.166 -0.2761 -0.7444  1.6657
  147OSM    C3S16222   3.926   5.989   3.128  0.2443 -0.0696 -0.7129
  147OSM    H3S16223   4.026   6.031   3.104  0.6971  0.5355  1.9313
  147OSM     O316224   3.891   5.886   3.035 -0.1567 -0.7466 -0.6959
  147OSM    HO316225   3.801   5.912   3.017 -0.5639 -0.0761  1.8112
  147OSM    C4S16226   3.947   5.928   3.272 -0.3310  0.0639 -0.7384
  147OSM    H4S16227   4.024   5.983   3.328  0.8313 -0.4047 -1.8453
  147OSM    C5S16228   3.888   5.823   3.336  0.1988  0.0680  0.1562
  147OSM    H5S16229   3.819   5.758   3.281  2.2212 -1.6332 -0.5006
  147OSM    C6S16230   3.928   5.781   3.472  0.4710  0.2157 -0.2952
  147OSM    H6S16231   3.999   5.696   3.461 -0.0123 -0.3245  0.6218
  147OSM    H6T16232   3.842   5.734   3.526 -0.1933  2.3368  0.5905
  147OSM    C7S16233   4.004   5.872   3.568  0.6780  0.4376  0.3788
  147OSM    H7S16234   3.954   5.967   3.596 -1.4133 -0.4062 -0.3519
  147OSM    H7T16235   4.098   5.907   3.521  0.0518  2.1284  0.3180
  147OSM    C8S16236   4.039   5.799   3.700  0.9646 -0.2588  0.0627
  147OSM    H8S16237   4.101   5.708   3.686 -1.7378 -2.7879  2.8590
  147OSM    H8T16238   3.942   5.751   3.725  1.4766 -1.5751 -0.4022
  147OSM    C9S16239   4.074   5.893   3.814  0.0059  0.1499 -0.7951
  147OSM    H9S16240   3.993   5.969   3.820  0.6095  0.8693 -1.5086
  147OSM    H9T16241   4.176   5.934   3.802  0.0972 -0.4263 -2.2537
  147OSM   C10S16242   4.072   5.824   3.956  0.4786  0.7024 -0.6949
  147OSM   H10S16243   4.116   5.722   3.951 -0.9370  0.0113  0.3813
  147OSM   H10T16244   3.967   5.806   3.989  0.4772  1.0565 -0.4993
  147OSM   C11S16245   4.136   5.916   4.056 -0.3786  0.9038 -0.1909
  147OSM   H11S16246   4.065   6.001   4.061 -1.8439 -0.2379 -0.7465
  147OSM   H11T16247   4.238   5.951   4.028  0.6946  1.3928  3.6745
  147OSM   C12S16248   4.163   5.852   4.199 -0.8800  0.5686  0.0814
  147OSM   H12S16249   4.225   5.764   4.170  0.2292  1.1962  0.5013
  147OSM   H12T16250   4.064   5.827   4.242 -0.4340  1.9222  2.0409
  147OSM   C13S16251   4.232   5.941   4.297 -0.5665  0.1878 -0.3859
  147OSM   H13S16252   4.151   5.994   4.352 -0.7613  0.9982 -1.4105
  147OSM   H13T16253   4.303   6.019   4.264 -1.3063  0.5429 -1.1853
  147OSM   C14S16254   4.309   5.873   4.410 -0.0672  0.3867 -0.2374
  147OSM   H14S16255   4.380   5.800   4.366 -1.3279  0.4155 -2.4787
  147OSM   H14T16256   4.227   5.810   4.450  0.1410 -0.6509 -1.3993
  147OSM   C15S16257   4.359   5.972   4.516  0.4510  0.1639 -1.0578
  147OSM   H15S16258   4.394   5.902   4.596  0.0508  1.7743  0.5973
  147OSM   H15T16259   4.284   6.038   4.564  0.2220 -0.9058  0.1064
  147OSM   C16S16260   4.476   6.054   4.470  0.2237  0.1288 -0.0986
  147OSM   H16S16261   4.464   6.124   4.385  4.5287  1.8153  0.4509
  147OSM   H16T16262   4.558   5.983   4.443  0.3737  0.9782 -2.0962
  147OSM   C17S16263   4.523   6.133   4.590 -0.0011  0.1575 -0.2661
  147OSM   H17S16264   4.533   6.071   4.682 -3.1810 -0.3592 -0.1536
  147OSM   H17T16265   4.444   6.208   4.614 -0.5350 -0.7696  0.9733
  147OSM   C18S16266   4.654   6.218   4.580  0.1055 -0.1994  0.1354
  147OSM   H18S16267   4.653   6.298   4.657 -2.7984  1.6372 -1.6272
  147OSM   H18T16268   4.674   6.263   4.480 -0.7379  0.5455  0.2888
  147OSM   H18U16269   4.740   6.149   4.595  0.2006 -0.4537 -1.3786
  147OSM    C1F16270   3.765   6.303   3.260  0.0600 -0.8049  0.1980
  147OSM     OF16271   3.652   6.272   3.251  0.0329 -0.1145  0.4158
  147OSM    C2F16272   3.801   6.440   3.324 -0.3732 -0.3034  0.0832
  147OSM    H2F16273   3.843   6.514   3.252 -2.1546  0.7873  0.1171
  147OSM    H2G16274   3.880   6.427   3.401  0.5164  0.4435 -0.6742
  147OSM    C3F16275   3.678   6.506   3.402  0.1869  0.3734 -0.0662
  147OSM    H3F16276   3.602   6.527   3.323  0.3869 -0.1010 -0.3884
  147OSM    H3G16277   3.722   6.598   3.446 -0.3440  0.3161  0.6024
  147OSM    C4F16278   3.622   6.407   3.506 -0.1867  0.4955  0.7112
  147OSM    H4F16279   3.652   6.301   3.491 -2.2664 -0.3078  1.9155
  147OSM    H4G16280   3.512   6.422   3.501 -0.0341  1.3797 -0.5376
  147OSM    C5F16281   3.655   6.435   3.651 -0.1348  0.4366 -0.0673
  147OSM    H5F16282   3.614   6.535   3.679 -1.0309  0.5381 -1.6430
  147OSM    H5G16283   3.764   6.449   3.667  0.1248 -2.5373  1.3945
  147OSM    C6F16284   3.595   6.350   3.761 -0.1434 -0.0724  0.0689
  147OSM    H6F16285   3.647   6.254   3.785  3.3465  1.7309  0.4560
  147OSM    H6G16286   3.492   6.330   3.727  0.1687 -0.1868 -0.8231
  147OSM    C7F16287   3.581   6.414   3.902  0.0234  0.8473  0.3446
  147OSM    H7F16288   3.531   6.335   3.962  1.4826 -0.5741 -0.2050
  147OSM    H7G16289   3.516   6.502   3.888  1.1345  1.8950  1.5134
  147OSM    C8F16290   3.716   6.447   3.968 -0.4603 -0.3505  0.1424
  147OSM    H8F16291   3.709   6.480   4.074  3.9251  2.2308 -0.1296
  147OSM    H8G16292   3.761   6.524   3.901  1.3970 -1.5610 -0.0868
  147OSM    C9F16293   3.814   6.329   3.967 -0.4106 -0.4574  0.4859
  147OSM    H9F16294   3.819   6.271   3.873 -0.3150  0.6488 -0.2143
  147OSM   C10F16295   3.893   6.286   4.063  0.0637 -0.2596 -0.2110
  147OSM   H10F16296   3.959   6.203   4.036 -0.3063 -0.9428  0.9093
  147OSM   C11F16297   3.903   6.345   4.207 -0.4171  0.2172 -0.4460
  147OSM   H11F16298   3.816   6.412   4.222  0.9613  2.0530 -0.1987
  147OSM   H11G16299   4.000   6.394   4.233 -0.1016 -0.9834  0.6887
  147OSM   C12F16300   3.898   6.231   4.311 -0.1910  0.4652  0.9250
  147OSM   H12F16301   3.981   6.160   4.292 -0.1373  0.6064  0.6168
  147OSM   H12G16302   3.798   6.183   4.300 -0.6948  1.7052 -0.1087
  147OSM   C13F16303   3.902   6.283   4.455  0.6214 -0.1404  0.0310
  147OSM   H13F16304   3.807   6.338   4.473 -0.8093 -1.7993 -1.8838
  147OSM   H13G16305   3.979   6.359   4.479 -1.0779  1.5628  0.3810
  147OSM   C14F16306   3.888   6.165   4.558  0.9813 -0.1161  0.1400
  147OSM   H14F16307   3.984   6.110   4.563  1.2629  0.4109  0.6640
  147OSM   H14G16308   3.806   6.105   4.514  1.1308  0.4844 -0.9980
  147OSM   C15F16309   3.849   6.209   4.698  0.3929 -0.1005 -0.0824
  147OSM   H15F16310   3.773   6.289   4.712  1.7420  0.9541  1.6523
  147OSM   H15G16311   3.939   6.256   4.744  0.0490 -1.2921  1.9424
  147OSM   C16F16312   3.817   6.088   4.785 -0.0439 -0.7419  0.0242
  147OSM   H16F16313   3.905   6.021   4.793  0.8364  0.3614 -0.0515
  147OSM   H16G16314   3.739   6.030   4.732  1.6056 -0.2940 -3.0992
  147OSM   C17F16315   3.767   6.130   4.924 -0.2445  0.3449 -0.0693
  147OSM   H17F16316   3.694   6.214   4.921  0.9401  1.3936 -0.2332
  147OSM   H17G16317   3.854   6.169   4.981  1.0131 -1.0364 -0.9484
  147OSM   C18F16318   3.729   6.010   5.009  0.1193 -0.7026 -0.3262
  147OSM   H18F16319   3.813   5.948   5.046  0.0114 -0.0151  1.1008
  147OSM   H18G16320   3.659   5.939   4.960  1.1898 -1.4912 -0.7443
  147OSM   H18H16321   3.677   6.049   5.099  0.5787 -1.3072  0.2064
  148OSM      N16322   5.451   2.216   2.285  0.4005  0.2046 -0.6726
  148OSM    C1516323   5.315   2.210   2.233  0.5559  0.0329 -0.6515
  148OSM   H15A16324   5.296   2.259   2.139 -3.0213  1.0942  0.4390
  148OSM   H15B16325   5.248   2.235   2.314  1.4599 -0.4771  0.2798
  148OSM   H15C16326   5.291   2.106   2.213 -0.0008  0.0718 -0.2192
  148OSM    C1416327   5.548   2.230   2.172  1.4857 -0.4571 -0.1754
  148OSM   H14A16328   5.570   2.139   2.117  0.2352  0.0090 -1.5074
  148OSM   H14B16329   5.644   2.272   2.200  0.8267  0.4354  0.7975
  148OSM   H14C16330   5.506   2.284   2.088  0.6382 -1.9354 -0.7395
  148OSM    C1316331   5.467   2.339   2.365  0.2291  0.9550  0.9887
  148OSM   H13A16332   5.549   2.325   2.433  0.0001 -1.1281  0.9237
  148OSM   H13B16333   5.379   2.354   2.426 -0.5510  0.8225 -0.0802
  148OSM   H13C16334   5.476   2.428   2.304  0.4631 -0.7291 -1.6075
  148OSM    C1216335   5.471   2.094   2.366  0.4021  0.4866  0.2747
  148OSM   H12A16336   5.445   2.003   2.315 -1.8037  0.2720  1.6389
  148OSM   H12B16337   5.411   2.095   2.456  1.6388  0.8646  1.1197
  148OSM    C1116338   5.612   2.061   2.428  0.1995 -0.1052 -0.0131
  148OSM   H11A16339   5.647   2.150   2.484 -3.9023  0.9737  1.2043
  148OSM   H11B16340   5.671   2.035   2.337 -1.7784  0.5118 -1.5408
  148OSM      P16341   5.725   1.903   2.598  0.4876  0.3925 -0.1804
  148OSM    O1316342   5.724   1.757   2.591  0.0291  0.3634  0.0722
  148OSM    O1416343   5.844   1.972   2.553  0.1151 -0.0580  0.0727
  148OSM    O1116344   5.695   1.954   2.743 -0.6298  0.2668  0.7486
  148OSM    O1216345   5.601   1.946   2.505 -0.2542 -0.0727  0.2571
  148OSM    C1S16346   5.559   1.984   2.790 -0.0308  0.6622  0.1602
  148OSM    H1S16347   5.490   1.900   2.768  0.4043  0.5896 -1.0355
  148OSM    H1T16348   5.530   2.081   2.744  1.6431  1.5385  0.8508
  148OSM     NF16349   5.418   2.004   3.000 -0.2344  0.5249  0.3848
  148OSM    HNF16350   5.380   2.096   3.013  1.9685  2.1097 -3.0583
  148OSM    C2S16351   5.550   2.005   2.946  0.4170  0.1540  0.5151
  148OSM    H2S16352   5.601   1.917   2.992 -4.2828 -3.0848  0.2350
  148OSM    C3S16353   5.629   2.139   2.980 -0.6255 -0.2086 -0.0101
  148OSM    H3S16354   5.571   2.225   2.941  0.7818  1.6742  1.8445
  148OSM     O316355   5.754   2.144   2.908 -0.2164  0.5412 -0.0605
  148OSM    HO316356   5.757   2.065   2.853  0.9072  0.3305  0.2791
  148OSM    C4S16357   5.649   2.168   3.126 -0.2099  0.2962 -0.0406
  148OSM    H4S16358   5.568   2.232   3.164 -1.4993 -2.2828  1.9042
  148OSM    C5S16359   5.741   2.124   3.213 -0.3565  0.1098 -0.1011
  148OSM    H5S16360   5.809   2.043   3.183 -2.1823 -0.8411 -2.0153
  148OSM    C6S16361   5.756   2.172   3.357 -0.1322  0.2432  0.1666
  148OSM    H6S16362   5.710   2.271   3.377  1.5943  1.1873 -0.3153
  148OSM    H6T16363   5.865   2.179   3.377  0.3446  1.4171 -2.4597
  148OSM    C7S16364   5.703   2.065   3.463 -0.0737 -0.2641  0.0362
  148OSM    H7S16365   5.745   1.963   3.452  0.0292 -0.0811 -1.5265
  148OSM    H7T16366   5.599   2.047   3.430 -0.5140 -0.5986  1.5326
  148OSM    C8S16367   5.719   2.106   3.611 -0.1899  0.3413 -0.1918
  148OSM    H8S16368   5.692   2.212   3.631  2.9660  1.0744  0.7215
  148OSM    H8T16369   5.828   2.098   3.632 -0.0542  0.0653 -0.9407
  148OSM    C9S16370   5.648   2.011   3.700  0.8390  0.2970  0.1916
  148OSM    H9S16371   5.686   1.912   3.667  1.1037  0.8902 -1.4088
  148OSM    H9T16372   5.537   2.004   3.692  0.6121  1.1473  2.2420
  148OSM   C10S16373   5.669   2.044   3.843 -0.2628 -0.9433 -0.7770
  148OSM   H10S16374   5.640   2.151   3.855  1.6231 -0.5341  0.5227
  148OSM   H10T16375   5.776   2.023   3.866 -0.3526 -0.7822 -0.2068
  148OSM   C11S16376   5.587   1.956   3.939  0.0299  0.1169  0.6044
  148OSM   H11S16377   5.617   1.849   3.933 -0.7831 -0.1608  1.3766
  148OSM   H11T16378   5.479   1.950   3.913  0.4278  0.8462 -1.4361
  148OSM   C12S16379   5.607   2.004   4.082 -0.2056  0.1409  0.0801
  148OSM   H12S16380   5.570   2.108   4.091 -0.7659  0.0167 -0.6433
  148OSM   H12T16381   5.715   2.011   4.109 -0.6763  3.2653  1.6237
  148OSM   C13S16382   5.536   1.914   4.181  0.3937  0.9634 -0.5599
  148OSM   H13S16383   5.593   1.820   4.168  1.1624  1.5727 -1.7699
  148OSM   H13T16384   5.431   1.899   4.146  0.8277  0.2681 -1.5945
  148OSM   C14S16385   5.528   1.950   4.332 -0.0705  0.6708 -0.1430
  148OSM   H14S16386   5.475   2.045   4.352 -1.5151 -0.1304 -0.0348
  148OSM   H14T16387   5.632   1.969   4.369  0.2152 -1.3570  0.1989
  148OSM   C15S16388   5.456   1.851   4.419  0.1514 -0.2449  0.2190
  148OSM   H15S16389   5.510   1.754   4.418 -0.3814 -0.5588  1.0262
  148OSM   H15T16390   5.358   1.828   4.372  0.4237 -2.1312  0.4767
  148OSM   C16S16391   5.426   1.892   4.569 -0.2876 -0.1329 -0.0328
  148OSM   H16S16392   5.357   1.979   4.572  0.7359  0.6899  2.0389
  148OSM   H16T16393   5.526   1.925   4.604  0.8485 -3.4795  0.1888
  148OSM   C17S16394   5.362   1.780   4.645  0.5972 -0.6445 -0.8239
  148OSM   H17S16395   5.399   1.676   4.643  3.6646  0.2772  1.2929
  148OSM   H17T16396   5.260   1.769   4.602 -1.3351  3.6377  1.9700
  148OSM   C18S16397   5.342   1.813   4.792 -0.0961  0.2607 -0.0088
  148OSM   H18S16398   5.431   1.851   4.846 -0.9175  0.4028  1.2709
  148OSM   H18T16399   5.322   1.721   4.850  0.9433 -0.4424 -0.7242
  148OSM   H18U16400   5.253   1.877   4.812  1.0213  1.3405  1.8168
  148OSM    C1F16401   5.349   1.891   3.010 -0.4939  0.2064 -0.3829
  148OSM     OF16402   5.403   1.779   3.008  0.2240 -0.3788 -0.1282
  148OSM    C2F16403   5.195   1.909   3.033  0.1856 -0.2196 -0.1652
  148OSM    H2F16404   5.138   1.860   2.951 -0.4320  0.3787 -0.1007
  148OSM    H2G16405   5.166   2.015   3.018  0.5547 -0.3125 -1.8137
  148OSM    C3F16406   5.139   1.835   3.152 -0.0345  0.3891 -0.1263
  148OSM    H3F16407   5.171   1.729   3.143 -0.8982  0.1198 -0.1486
  148OSM    H3G16408   5.030   1.845   3.137  0.0629  2.5529  0.2644
  148OSM    C4F16409   5.180   1.884   3.293 -0.4050 -0.2669  0.7177
  148OSM    H4F16410   5.188   1.994   3.285  1.0099 -0.4528 -0.8384
  148OSM    H4G16411   5.283   1.857   3.324 -0.5977 -2.1831 -0.1198
  148OSM    C5F16412   5.096   1.831   3.406 -0.8548  0.2031 -0.2715
  148OSM    H5F16413   5.099   1.719   3.407 -2.3141  0.0320  3.6486
  148OSM    H5G16414   4.994   1.855   3.369 -0.4369  0.1451 -1.4996
  148OSM    C6F16415   5.144   1.882   3.548  0.2339  0.4460 -0.4387
  148OSM    H6F16416   5.144   1.993   3.545 -1.6775  0.5409  0.8963
  148OSM    H6G16417   5.247   1.849   3.574  0.5312  0.8267 -1.1269
  148OSM    C7F16418   5.050   1.831   3.654  0.0385  0.2873  0.7024
  148OSM    H7F16419   5.034   1.722   3.659 -1.2011  0.3682 -0.6551
  148OSM    H7G16420   4.950   1.878   3.640  0.6235  1.7557  1.2785
  148OSM    C8F16421   5.087   1.879   3.796  0.4630  0.0423  0.2415
  148OSM    H8F16422   4.997   1.868   3.860 -0.5654  1.7306 -0.8420
  148OSM    H8G16423   5.117   1.985   3.791 -1.1988  0.6350  1.7600
  148OSM    C9F16424   5.205   1.800   3.857 -0.3184 -0.6814  0.2117
  148OSM    H9F16425   5.301   1.799   3.803  0.1644 -1.1223  1.0540
  148OSM   C10F16426   5.207   1.728   3.971  0.6346 -0.0999 -0.0590
  148OSM   H10F16427   5.301   1.684   4.008  0.0813  1.1272  3.1797
  148OSM   C11F16428   5.091   1.724   4.073  0.2794 -0.2849  0.2604
  148OSM   H11F16429   5.001   1.675   4.031 -0.0202  0.0893  0.4643
  148OSM   H11G16430   5.056   1.826   4.099 -2.0395 -0.2404 -2.5183
  148OSM   C12F16431   5.122   1.651   4.204  0.5498 -0.2942  0.2957
  148OSM   H12F16432   5.031   1.668   4.265 -0.5541 -0.6794 -1.1908
  148OSM   H12G16433   5.209   1.694   4.259  0.3002  0.4529  0.1176
  148OSM   C13F16434   5.130   1.491   4.194 -0.3990 -0.5159  0.3960
  148OSM   H13F16435   5.226   1.460   4.147 -0.4662 -1.1572  0.6729
  148OSM   H13G16436   5.056   1.453   4.120  2.1899 -1.7833 -1.6993
  148OSM   C14F16437   5.110   1.415   4.327  0.2446  0.5376 -0.2740
  148OSM   H14F16438   5.093   1.309   4.299 -3.0446  0.7454  0.4802
  148OSM   H14G16439   5.012   1.449   4.367  0.1344 -1.5594  1.3643
  148OSM   C15F16440   5.223   1.446   4.428  0.0261  0.5341  0.0250
  148OSM   H15F16441   5.205   1.553   4.454 -0.3696  0.5930 -0.4815
  148OSM   H15G16442   5.323   1.445   4.379  0.6220  0.5647  1.1986
  148OSM   C16F16443   5.213   1.345   4.544  0.2558 -0.4837 -0.4207
  148OSM   H16F16444   5.236   1.241   4.513 -1.0448 -0.4677 -1.5602
  148OSM   H16G16445   5.110   1.330   4.582  1.5847 -0.4063  3.7260
  148OSM   C17F16446   5.299   1.387   4.668 -0.6104 -0.0446 -0.3529
  148OSM   H17F16447   5.266   1.485   4.711 -2.6626 -0.1810 -1.5010
  148OSM   H17G16448   5.401   1.397   4.627 -0.3408 -2.8152 -0.5244
  148OSM   C18F16449   5.316   1.288   4.786 -0.2916  0.0217  0.2176
  148OSM   H18F16450   5.379   1.331   4.866 -0.3589  1.0367 -0.2656
  148OSM   H18G16451   5.377   1.202   4.750 -1.8143 -0.5613 -1.1549
  148OSM   H18H16452   5.215   1.261   4.825  0.7183 -0.6024  2.5204
  149OSM      N16453   3.628   4.695   2.602 -0.8415  0.9458 -0.1886
  149OSM    C1516454   3.578   4.681   2.746  0.6997 -1.2107 -0.3124
  149OSM   H15A16455   3.471   4.678   2.762  0.3996 -4.0926 -2.0384
  149OSM   H15B16456   3.615   4.766   2.801 -1.5476 -1.2871  1.4787
  149OSM   H15C16457   3.607   4.585   2.785 -0.1996 -1.0957  0.6851
  149OSM    C1416458   3.539   4.621   2.511 -0.5290  0.3285 -0.1988
  149OSM   H14A16459   3.541   4.513   2.516  1.2586  0.4129  2.5914
  149OSM   H14B16460   3.576   4.645   2.413  2.1134 -0.5399  0.5161
  149OSM   H14C16461   3.439   4.663   2.518 -0.3674  0.7392 -0.3427
  149OSM    C1316462   3.620   4.844   2.556  0.2090  0.8383  0.4192
  149OSM   H13A16463   3.531   4.896   2.589  0.4332  0.2679  2.0222
  149OSM   H13B16464   3.620   4.861   2.450  1.1620  0.0881  0.2856
  149OSM   H13C16465   3.704   4.895   2.602  2.6942 -2.0884 -0.5478
  149OSM    C1216466   3.780   4.649   2.603 -0.1828  0.2664 -0.1708
  149OSM   H12A16467   3.822   4.668   2.505 -1.2509  0.3865 -0.6221
  149OSM   H12B16468   3.785   4.542   2.617 -0.5834  0.4592  1.6570
  149OSM    C1116469   3.874   4.713   2.705 -0.0903 -0.3931 -0.0801
  149OSM   H11A16470   3.977   4.679   2.680  0.3542  0.9531 -0.1614
  149OSM   H11B16471   3.855   4.676   2.808  2.0820  0.6734  0.7695
  149OSM      P16472   3.979   4.944   2.647 -0.0476 -0.0672 -0.0205
  149OSM    O1316473   4.043   4.878   2.535  1.1295  0.6556 -0.8686
  149OSM    O1416474   3.937   5.086   2.624  0.2467  0.0025 -0.2014
  149OSM    O1116475   4.077   4.944   2.766  0.9277 -0.1133  0.1147
  149OSM    O1216476   3.856   4.855   2.696  0.7681 -0.7983 -0.2895
  149OSM    C1S16477   4.058   5.014   2.882  0.1980  0.0921  0.0628
  149OSM    H1S16478   3.985   4.960   2.946  0.3312 -1.6692 -1.2042
  149OSM    H1T16479   4.033   5.121   2.864  1.9841  0.2724 -1.6841
  149OSM     NF16480   4.165   5.090   3.099 -0.2517 -0.2784  0.3318
  149OSM    HNF16481   4.186   5.187   3.106  0.6198 -0.4677  0.4452
  149OSM    C2S16482   4.191   5.027   2.969 -0.1676  0.0995 -0.0100
  149OSM    H2S16483   4.219   4.921   2.987  1.0928  0.1665 -1.3374
  149OSM    C3S16484   4.306   5.095   2.879  0.2482 -0.8236 -0.5109
  149OSM    H3S16485   4.290   5.203   2.863  1.2834 -0.7267 -0.9965
  149OSM     O316486   4.321   5.037   2.749  0.1235 -0.1771  0.0323
  149OSM    HO316487   4.247   4.975   2.749 -1.2892  1.3969  1.8122
  149OSM    C4S16488   4.441   5.087   2.956  0.3977  0.4999  0.0290
  149OSM    H4S16489   4.467   5.171   3.022  0.2240 -1.0191  2.1169
  149OSM    C5S16490   4.520   4.978   2.966  0.1985  0.5913  0.0886
  149OSM    H5S16491   4.482   4.883   2.926  2.1971  0.0926 -0.7399
  149OSM    C6S16492   4.656   4.968   3.031  0.3592  1.0969 -0.1501
  149OSM    H6S16493   4.721   4.925   2.951 -0.8657 -2.1457  0.4369
  149OSM    H6T16494   4.658   4.893   3.113 -0.3850  2.6099  1.3166
  149OSM    C7S16495   4.714   5.092   3.098 -0.7973  0.0624  0.2502
  149OSM    H7S16496   4.691   5.186   3.042  0.3319  0.1166 -0.1595
  149OSM    H7T16497   4.824   5.077   3.092 -0.8468  0.2501 -2.6497
  149OSM    C8S16498   4.663   5.113   3.243  0.7683  0.6683 -0.2851
  149OSM    H8S16499   4.652   5.014   3.290 -0.5651  0.8500 -0.1919
  149OSM    H8T16500   4.564   5.162   3.240 -0.1680 -0.8871  2.2135
  149OSM    C9S16501   4.757   5.206   3.322  0.0081 -0.1834  0.0335
  149OSM    H9S16502   4.765   5.312   3.290 -0.5812 -0.3746 -0.7813
  149OSM    H9T16503   4.860   5.176   3.295  0.8827  1.8522  0.8718
  149OSM   C10S16504   4.735   5.187   3.465 -0.2515 -0.0776 -0.1670
  149OSM   H10S16505   4.733   5.080   3.496  0.0853  0.2016  0.8415
  149OSM   H10T16506   4.634   5.228   3.489 -0.4976 -0.3288 -0.7622
  149OSM   C11S16507   4.834   5.269   3.556  0.1431  1.0605  0.2425
  149OSM   H11S16508   4.810   5.376   3.541 -0.2304  0.9418 -0.0256
  149OSM   H11T16509   4.939   5.251   3.523  0.3286  1.7387  0.4424
  149OSM   C12S16510   4.835   5.227   3.708  0.7186 -0.5173  0.7198
  149OSM   H12S16511   4.857   5.118   3.714  0.5417 -0.7292 -1.4460
  149OSM   H12T16512   4.737   5.238   3.757 -0.0700  0.4032 -0.9700
  149OSM   C13S16513   4.947   5.301   3.772 -0.5097  0.3491 -0.0310
  149OSM   H13S16514   4.933   5.409   3.747 -1.9556 -0.7743 -5.2713
  149OSM   H13T16515   5.044   5.279   3.723 -0.1839  0.1918  0.6766
  149OSM   C14S16516   4.963   5.282   3.924  0.2744 -0.9151 -1.0614
  149OSM   H14S16517   4.978   5.176   3.956 -3.2790 -0.7491  1.7460
  149OSM   H14T16518   4.882   5.319   3.990 -1.0153 -0.7436 -2.6834
  149OSM   C15S16519   5.096   5.349   3.976  0.1693  0.5889 -0.0862
  149OSM   H15S16520   5.101   5.454   3.940  0.2711  0.8782  0.7628
  149OSM   H15T16521   5.187   5.298   3.938  0.8850  2.7576 -1.4966
  149OSM   C16S16522   5.092   5.359   4.130  0.5583  0.1651  0.3820
  149OSM   H16S16523   5.090   5.253   4.163 -0.4339 -0.4015 -1.3722
  149OSM   H16T16524   4.991   5.396   4.157  0.4282 -1.2057  1.9142
  149OSM   C17S16525   5.202   5.440   4.196  0.2925 -0.1317  0.2995
  149OSM   H17S16526   5.200   5.542   4.153  0.3958 -0.0606  0.4642
  149OSM   H17T16527   5.304   5.400   4.178 -0.8195 -1.5189 -4.2965
  149OSM   C18S16528   5.191   5.457   4.350  0.0303 -0.0483 -0.4834
  149OSM   H18S16529   5.294   5.465   4.392  0.1004 -0.0225 -0.6601
  149OSM   H18T16530   5.151   5.365   4.398  3.4250 -1.3652  0.0864
  149OSM   H18U16531   5.142   5.551   4.382  1.2820  0.9640 -1.4370
  149OSM    C1F16532   4.100   5.024   3.198  0.1452  1.2193  0.4950
  149OSM     OF16533   4.108   4.903   3.208 -1.0757 -0.0418 -0.8692
  149OSM    C2F16534   4.021   5.102   3.297 -0.6541  0.2563  0.2853
  149OSM    H2F16535   3.917   5.125   3.268 -1.2645 -0.2958  1.9163
  149OSM    H2G16536   4.064   5.204   3.299 -0.3776  0.1316  1.1053
  149OSM    C3F16537   4.023   5.038   3.437  0.2516  0.1517  0.2218
  149OSM    H3F16538   4.122   5.041   3.487 -0.5531 -2.5501  2.1738
  149OSM    H3G16539   3.998   4.931   3.422 -1.8561  0.5968  0.1751
  149OSM    C4F16540   3.914   5.096   3.528  0.0653  0.0565 -0.3855
  149OSM    H4F16541   3.880   5.027   3.608  0.7471  1.0906  0.8606
  149OSM    H4G16542   3.823   5.128   3.473 -0.2884 -0.1554  0.0705
  149OSM    C5F16543   3.958   5.223   3.603 -0.6160 -0.0061 -0.7178
  149OSM    H5F16544   3.986   5.300   3.528 -0.2158 -0.4217 -1.0017
  149OSM    H5G16545   4.052   5.207   3.660 -1.1081  0.7890  0.3403
  149OSM    C6F16546   3.850   5.289   3.696  0.8709  0.9732 -1.2320
  149OSM    H6F16547   3.834   5.208   3.771 -0.4791  0.6357 -1.8593
  149OSM    H6G16548   3.762   5.308   3.631 -1.4266 -1.5744  0.8717
  149OSM    C7F16549   3.906   5.416   3.752  1.0145 -0.0774 -0.2531
  149OSM    H7F16550   3.931   5.482   3.666 -0.4384  0.9464  0.0677
  149OSM    H7G16551   3.994   5.390   3.815  0.2315 -0.3753  0.7312
  149OSM    C8F16552   3.798   5.481   3.841  0.6452  0.2648 -0.9707
  149OSM    H8F16553   3.706   5.508   3.784  0.0976  1.1998  0.3239
  149OSM    H8G16554   3.839   5.581   3.865 -0.7939  0.2229  2.0932
  149OSM    C9F16555   3.767   5.406   3.971 -0.1373 -0.6198 -0.9355
  149OSM    H9F16556   3.679   5.340   3.971 -0.7867  0.1343  1.3495
  149OSM   C10F16557   3.814   5.437   4.097  0.2072  0.5869 -0.0783
  149OSM   H10F16558   3.770   5.382   4.181 -0.7557  0.3481 -0.7190
  149OSM   C11F16559   3.916   5.547   4.134  0.1729 -0.1978  0.0123
  149OSM   H11F16560   3.857   5.638   4.158 -1.4105 -1.3447  0.6036
  149OSM   H11G16561   3.977   5.579   4.047  0.0749 -1.0002 -0.3542
  149OSM   C12F16562   4.012   5.521   4.254 -0.2726 -0.0694 -0.0342
  149OSM   H12F16563   3.956   5.468   4.334 -0.5642  1.3545  0.7263
  149OSM   H12G16564   4.042   5.619   4.297  0.2685 -0.4631  0.5171
  149OSM   C13F16565   4.133   5.437   4.221  0.3729  0.6753  0.2474
  149OSM   H13F16566   4.212   5.503   4.179  0.1176  0.0261 -1.3308
  149OSM   H13G16567   4.096   5.359   4.151  2.4370 -0.8651  0.7870
  149OSM   C14F16568   4.185   5.345   4.337 -0.2647  0.4331  0.5638
  149OSM   H14F16569   4.277   5.291   4.306  0.3293  1.5922  0.2065
  149OSM   H14G16570   4.105   5.271   4.358 -0.5133 -0.5109 -3.0947
  149OSM   C15F16571   4.228   5.420   4.461 -0.8253  0.2309  0.0811
  149OSM   H15F16572   4.138   5.479   4.488 -1.1018  0.3335 -1.0253
  149OSM   H15G16573   4.315   5.482   4.430 -0.9829 -0.7852 -2.6530
  149OSM   C16F16574   4.274   5.334   4.582 -0.2857 -1.0454 -0.2057
  149OSM   H16F16575   4.193   5.261   4.607 -0.6487 -1.5055 -2.4701
  149OSM   H16G16576   4.288   5.398   4.671 -0.0603 -2.7581  1.0297
  149OSM   C17F16577   4.409   5.258   4.562  0.6680 -0.7896 -0.0341
  149OSM   H17F16578   4.488   5.326   4.524 -2.3816  1.7705 -2.3808
  149OSM   H17G16579   4.398   5.181   4.483 -1.7515  0.2506 -0.8186
  149OSM   C18F16580   4.461   5.198   4.693  0.1747  0.2635 -0.4631
  149OSM   H18F16581   4.473   5.268   4.779 -0.8740  2.4100 -1.9565
  149OSM   H18G16582   4.560   5.150   4.675 -0.9078 -2.3854  0.1569
  149OSM   H18H16583   4.386   5.120   4.717  0.0335  0.7689  0.8351
  150OSM      N16584   3.290   2.125   2.801  1.1102 -0.2288  0.2222
  150OSM    C1516585   3.230   2.050   2.689  0.6344 -0.4644 -0.6267
  150OSM   H15A16586   3.303   1.985   2.645  0.7285  0.4276 -1.8615
  150OSM   H15B16587   3.206   2.127   2.616  1.4780  1.9016  1.4388
  150OSM   H15C16588   3.151   1.989   2.730  3.2029 -2.9779  0.9082
  150OSM    C1416589   3.421   2.180   2.771  0.1205  0.0101  0.5481
  150OSM   H14A16590   3.452   2.245   2.851  0.0797  2.2106 -1.1235
  150OSM   H14B16591   3.415   2.244   2.684  0.7134  1.9974  1.8893
  150OSM   H14C16592   3.498   2.105   2.756  0.7445  0.4631  1.3495
  150OSM    C1316593   3.190   2.234   2.834  0.7594 -0.6159 -0.5877
  150OSM   H13A16594   3.225   2.296   2.915 -1.3971  0.8247 -0.6759
  150OSM   H13B16595   3.094   2.199   2.868  0.9938 -0.8886 -0.1978
  150OSM   H13C16596   3.173   2.299   2.749 -2.5037 -0.3970  0.1058
  150OSM    C1216597   3.303   2.030   2.929 -0.1236 -0.2748  0.3633
  150OSM   H12A16598   3.352   2.086   3.007 -1.4709 -0.1920  1.1817
  150OSM   H12B16599   3.356   1.942   2.896 -3.2984 -1.9005 -0.8751
  150OSM    C1116600   3.169   1.981   2.998  0.5160 -0.9152 -0.0008
  150OSM   H11A16601   3.121   2.071   3.043  1.6132 -0.4046  0.1873
  150OSM   H11B16602   3.206   1.914   3.080 -0.3035 -1.1367  0.1937
  150OSM      P16603   2.947   1.869   2.908  0.0046 -0.0142  0.1903
  150OSM    O1316604   2.860   1.988   2.902  0.0444 -0.0262 -0.6869
  150OSM    O1416605   2.924   1.768   2.799  0.1693  0.3026 -0.1447
  150OSM    O1116606   2.941   1.795   3.038 -0.1816  0.4399  0.2103
  150OSM    O1216607   3.096   1.910   2.894  0.4717  0.0693  0.0119
  150OSM    C1S16608   3.014   1.673   3.057  0.3348 -0.5218  0.0482
  150OSM    H1S16609   3.125   1.686   3.060  0.2833 -0.2005  0.5145
  150OSM    H1T16610   2.993   1.598   2.978 -2.5268  1.3310 -1.1355
  150OSM     NF16611   3.062   1.495   3.220  0.6456  0.6983  0.0349
  150OSM    HNF16612   3.021   1.409   3.189 -0.5571  1.7415 -1.3885
  150OSM    C2S16613   2.974   1.610   3.191  0.3892  0.5499  0.4016
  150OSM    H2S16614   2.989   1.694   3.262 -2.1501  1.1139  0.3895
  150OSM    C3S16615   2.823   1.595   3.203  0.4149 -0.5599 -0.3071
  150OSM    H3S16616   2.791   1.538   3.113  0.2576 -0.2077 -0.4776
  150OSM     O316617   2.745   1.719   3.193  0.0716  0.1987 -0.0022
  150OSM    HO316618   2.807   1.776   3.147  0.3543 -0.9767 -1.1687
  150OSM    C4S16619   2.780   1.513   3.318  0.1040  0.0600  0.1087
  150OSM    H4S16620   2.803   1.407   3.298  1.6129  0.1561  1.1664
  150OSM    C5S16621   2.729   1.547   3.440  0.0764 -0.2831  0.1602
  150OSM    H5S16622   2.701   1.653   3.452 -2.5571 -0.9798  1.0106
  150OSM    C6S16623   2.689   1.450   3.552  0.0952 -0.2669 -0.1820
  150OSM    H6S16624   2.718   1.348   3.518 -0.4625 -0.2870 -0.6091
  150OSM    H6T16625   2.581   1.458   3.576  0.4961 -0.8802  2.1016
  150OSM    C7S16626   2.760   1.480   3.688 -0.3776  0.1063  0.2631
  150OSM    H7S16627   2.759   1.588   3.716 -1.5778  0.1847 -0.0609
  150OSM    H7T16628   2.862   1.438   3.677 -0.7780 -0.6052 -0.7640
  150OSM    C8S16629   2.684   1.413   3.807 -0.3766 -0.1358  0.7251
  150OSM    H8S16630   2.661   1.306   3.784  2.4943 -0.2130 -2.5096
  150OSM    H8T16631   2.588   1.467   3.822  1.0520  2.5174  0.8493
  150OSM    C9S16632   2.755   1.421   3.940  0.7578 -0.3405  0.3406
  150OSM    H9S16633   2.771   1.525   3.977 -1.6983 -0.3941  1.7779
  150OSM    H9T16634   2.855   1.374   3.930  1.0399  0.1422  0.8021
  150OSM   C10S16635   2.683   1.344   4.056 -0.4900  0.6190 -0.8687
  150OSM   H10S16636   2.637   1.251   4.017  0.1727 -0.8363  1.5724
  150OSM   H10T16637   2.616   1.418   4.106  0.2524 -0.5237  2.0388
  150OSM   C11S16638   2.783   1.287   4.154 -0.3835 -0.4060  0.4909
  150OSM   H11S16639   2.861   1.361   4.179 -0.4321  0.5402 -1.8822
  150OSM   H11T16640   2.833   1.195   4.117  1.9673  0.5827  1.0657
  150OSM   C12S16641   2.718   1.241   4.281  0.1151  0.0802 -0.3136
  150OSM   H12S16642   2.631   1.175   4.259  0.0703  0.7842 -2.4641
  150OSM   H12T16643   2.684   1.332   4.335 -1.3666  0.9285 -2.5664
  150OSM   C13S16644   2.803   1.157   4.377  0.2701 -0.2252 -0.1033
  150OSM   H13S16645   2.886   1.227   4.403 -0.0006  0.1974 -0.3790
  150OSM   H13T16646   2.856   1.076   4.322 -1.5346 -1.0249 -0.7239
  150OSM   C14S16647   2.738   1.108   4.514  0.7814 -0.3398  0.6650
  150OSM   H14S16648   2.697   1.006   4.492 -1.3122  0.6691 -0.4446
  150OSM   H14T16649   2.654   1.174   4.544  0.3977 -0.3341 -0.3623
  150OSM   C15S16650   2.839   1.087   4.629  0.6818  0.5620 -0.5126
  150OSM   H15S16651   2.916   1.019   4.587  0.1567 -1.3160  1.4036
  150OSM   H15T16652   2.786   1.028   4.707  0.0758 -0.9250 -1.9783
  150OSM   C16S16653   2.880   1.219   4.681 -0.4003  0.3245 -0.4638
  150OSM   H16S16654   2.798   1.289   4.708  1.5587  2.0189  1.5055
  150OSM   H16T16655   2.915   1.273   4.591  1.6359  1.3352  0.8552
  150OSM   C17S16656   3.009   1.209   4.764 -0.3491 -0.1843 -0.0602
  150OSM   H17S16657   3.054   1.310   4.772  0.1439 -0.2794 -1.3502
  150OSM   H17T16658   3.091   1.146   4.722 -0.6949 -2.5944  2.5889
  150OSM   C18S16659   2.982   1.158   4.902 -0.3914 -0.7009 -0.0641
  150OSM   H18S16660   2.951   1.051   4.898 -0.5058 -0.6235 -1.9826
  150OSM   H18T16661   2.906   1.219   4.955 -2.6959 -0.6049 -3.2014
  150OSM   H18U16662   3.076   1.167   4.961  0.8769 -0.7130 -2.0104
  150OSM    C1F16663   3.195   1.515   3.236  0.2926  1.0535  0.2685
  150OSM     OF16664   3.233   1.630   3.253  0.2938 -0.3060  0.3030
  150OSM    C2F16665   3.281   1.387   3.225 -0.3599 -0.0685 -0.1746
  150OSM    H2F16666   3.383   1.406   3.184  0.0026 -0.5432  0.4817
  150OSM    H2G16667   3.234   1.309   3.161 -1.3937 -0.3143  0.8527
  150OSM    C3F16668   3.299   1.326   3.367 -0.6738  0.6856  0.7179
  150OSM    H3F16669   3.203   1.301   3.418 -0.5732  0.5839  0.8579
  150OSM    H3G16670   3.342   1.408   3.428  1.3992  0.5382 -0.4615
  150OSM    C4F16671   3.408   1.217   3.383 -0.1699  0.4072  0.6245
  150OSM    H4F16672   3.481   1.227   3.300  0.9484 -0.2953  1.4977
  150OSM    H4G16673   3.371   1.112   3.378  1.6480 -0.3130  1.5297
  150OSM    C5F16674   3.501   1.230   3.501 -0.6456  0.2385 -0.8165
  150OSM    H5F16675   3.545   1.330   3.519  0.0109 -0.3195  0.8809
  150OSM    H5G16676   3.587   1.161   3.490 -1.2388 -0.5410 -0.7011
  150OSM    C6F16677   3.425   1.195   3.629 -0.5557  0.0984 -0.0446
  150OSM    H6F16678   3.328   1.249   3.638 -1.3172 -1.3175  0.6139
  150OSM    H6G16679   3.498   1.225   3.708  0.2606 -2.2411  0.1526
  150OSM    C7F16680   3.384   1.045   3.643 -0.1519 -1.2966  0.0893
  150OSM    H7F16681   3.480   0.987   3.643  2.3543  2.4957 -0.8549
  150OSM    H7G16682   3.322   1.006   3.560 -0.1293  0.3149 -0.7188
  150OSM    C8F16683   3.292   1.015   3.765 -0.5129  0.0460  0.1917
  150OSM    H8F16684   3.209   0.954   3.723 -0.4980 -0.7221  1.2413
  150OSM    H8G16685   3.255   1.114   3.801  1.7838  1.1133 -0.1834
  150OSM    C9F16686   3.368   0.944   3.878 -0.1116 -0.4246 -0.4806
  150OSM    H9F16687   3.461   0.895   3.848  0.7079  0.8188 -0.0681
  150OSM   C10F16688   3.323   0.939   3.999  0.4889 -0.2416 -0.5990
  150OSM   H10F16689   3.382   0.893   4.080  1.0092  2.5765  0.7665
  150OSM   C11F16690   3.205   1.020   4.049  0.7221  0.4285 -0.6196
  150OSM   H11F16691   3.109   0.997   3.998 -0.6007  0.4453  1.7136
  150OSM   H11G16692   3.225   1.125   4.021  2.4648 -0.0238 -1.1904
  150OSM   C12F16693   3.188   1.010   4.205 -0.6460  0.3345 -0.3656
  150OSM   H12F16694   3.115   1.087   4.240  2.1235  2.5443  0.9362
  150OSM   H12G16695   3.281   1.046   4.253 -2.0934  2.1248  1.3018
  150OSM   C13F16696   3.144   0.871   4.253  0.3929  0.0804 -0.7169
  150OSM   H13F16697   3.196   0.785   4.205 -1.5362 -1.2532 -0.5164
  150OSM   H13G16698   3.042   0.865   4.209  1.1143  2.7723 -3.0652
  150OSM   C14F16699   3.147   0.868   4.403  0.5426  0.1018 -0.1555
  150OSM   H14F16700   3.079   0.787   4.437  0.1402  1.2858  2.0666
  150OSM   H14G16701   3.093   0.957   4.441 -0.6136 -0.0037 -1.4551
  150OSM   C15F16702   3.281   0.846   4.469 -0.1953  0.5015  0.1093
  150OSM   H15F16703   3.341   0.936   4.441 -0.4151 -0.1722 -2.8639
  150OSM   H15G16704   3.327   0.750   4.436 -1.2016 -0.2292  0.7666
  150OSM   C16F16705   3.268   0.854   4.621 -0.1774 -0.6931 -0.7550
  150OSM   H16F16706   3.181   0.791   4.649 -1.2634  0.9213 -0.3944
  150OSM   H16G16707   3.254   0.954   4.669  3.8599 -1.1520  1.9412
  150OSM   C17F16708   3.396   0.798   4.689  0.4449 -0.2188  0.4051
  150OSM   H17F16709   3.477   0.871   4.666 -0.8852  0.5231 -2.4601
  150OSM   H17G16710   3.432   0.698   4.655 -0.6771 -1.2352  2.1228
  150OSM   C18F16711   3.373   0.786   4.842  0.6888  0.4344 -0.5700
  150OSM   H18F16712   3.280   0.728   4.866  1.0104  0.5266  1.0462
  150OSM   H18G16713   3.362   0.885   4.891  1.9274  0.5023 -0.3964
  150OSM   H18H16714   3.452   0.727   4.894 -0.6784 -0.9792 -0.0017
  151OSM      N16715   3.289   0.977   2.679  0.2764 -0.0022 -0.2517
  151OSM    C1516716   3.317   0.870   2.782 -0.8336 -0.2275 -0.5733
  151OSM   H15A16717   3.420   0.878   2.816 -1.4391 -0.8302  1.5404
  151OSM   H15B16718   3.317   0.771   2.741  0.5832 -0.4746 -0.0392
  151OSM   H15C16719   3.253   0.876   2.869  0.8981  0.3406  0.7228
  151OSM    C1416720   3.316   1.113   2.735  0.5871 -0.8058 -0.9523
  151OSM   H14A16721   3.311   1.188   2.658  0.2746  0.6725  0.4338
  151OSM   H14B16722   3.410   1.112   2.788  1.4040  0.0125 -2.3391
  151OSM   H14C16723   3.234   1.133   2.802  1.1738 -0.0952 -0.4183
  151OSM    C1316724   3.389   0.954   2.573 -0.1282 -0.1792 -0.5290
  151OSM   H13A16725   3.400   1.044   2.515  1.9543  0.9604  1.4541
  151OSM   H13B16726   3.361   0.870   2.512  1.7762 -0.8011 -0.5902
  151OSM   H13C16727   3.487   0.919   2.600  0.3378  1.2182 -0.3105
  151OSM    C1216728   3.151   0.962   2.619  0.2061 -0.0500 -0.7998
  151OSM   H12A16729   3.137   0.866   2.573 -2.3990 -0.0452 -0.2025
  151OSM   H12B16730   3.142   1.040   2.544  1.0361  0.9928  0.1451
  151OSM    C1116731   3.029   0.980   2.714 -0.7112  0.5969 -0.1535
  151OSM   H11A16732   3.058   0.928   2.807 -1.3358  1.3984  0.5029
  151OSM   H11B16733   2.941   0.931   2.667 -0.9692 -1.8571  2.6519
  151OSM      P16734   2.893   1.201   2.674 -0.0061 -0.3366 -0.5905
  151OSM    O1316735   2.916   1.340   2.709  0.2324  0.0456 -0.4797
  151OSM    O1416736   2.880   1.174   2.526  0.5604  0.0088 -0.1574
  151OSM    O1116737   2.767   1.140   2.748 -0.2403 -0.3863 -0.3175
  151OSM    O1216738   3.013   1.113   2.747  0.0147 -0.1125  0.6634
  151OSM    C1S16739   2.779   1.091   2.885  0.6207  0.0169  0.0845
  151OSM    H1S16740   2.883   1.077   2.920  0.8245 -1.6374 -1.0821
  151OSM    H1T16741   2.724   0.995   2.881 -1.7602  1.2675  0.7178
  151OSM     NF16742   2.730   1.143   3.125  0.0232 -0.1536 -0.3846
  151OSM    HNF16743   2.647   1.099   3.160 -0.9137  2.5771  1.1749
  151OSM    C2S16744   2.713   1.191   2.987  1.2009  0.1836 -0.0146
  151OSM    H2S16745   2.763   1.289   2.968 -2.6243  1.9210 -2.4252
  151OSM    C3S16746   2.563   1.214   2.945 -0.7679  0.5444 -0.3472
  151OSM    H3S16747   2.523   1.112   2.957  1.2665 -0.2902 -0.2956
  151OSM     O316748   2.542   1.256   2.812 -0.4493 -0.5206  0.0245
  151OSM    HO316749   2.620   1.222   2.766 -0.3017 -0.5143  0.2707
  151OSM    C4S16750   2.491   1.312   3.036  0.4993  0.0083 -0.1361
  151OSM    H4S16751   2.528   1.416   3.027  2.7417 -0.5661  1.5814
  151OSM    C5S16752   2.375   1.278   3.096 -0.0880  0.4058  0.0767
  151OSM    H5S16753   2.344   1.173   3.093 -0.4575  0.5270 -0.3731
  151OSM    C6S16754   2.291   1.363   3.182 -0.7210 -0.6940 -0.4006
  151OSM    H6S16755   2.191   1.385   3.140 -0.3945 -2.3858 -2.1727
  151OSM    H6T16756   2.353   1.453   3.203 -0.3610 -1.1156  0.4040
  151OSM    C7S16757   2.270   1.292   3.318 -0.5134  0.8360  0.1104
  151OSM    H7S16758   2.219   1.194   3.308 -2.3332  1.4030  2.8571
  151OSM    H7T16759   2.193   1.349   3.374 -1.0487  1.3060 -1.0696
  151OSM    C8S16760   2.401   1.289   3.404 -0.0807  0.3550  0.0789
  151OSM    H8S16761   2.458   1.384   3.400  0.1889  0.1836 -0.1515
  151OSM    H8T16762   2.467   1.213   3.357 -0.9519 -0.5790  0.3146
  151OSM    C9S16763   2.388   1.239   3.551  0.5313 -0.4725 -0.4067
  151OSM    H9S16764   2.353   1.319   3.619 -0.5144 -1.8758  0.7894
  151OSM    H9T16765   2.489   1.205   3.583  0.6588 -0.5658 -0.8954
  151OSM   C10S16766   2.288   1.120   3.555 -0.5901 -0.7766 -0.1760
  151OSM   H10S16767   2.317   1.050   3.473 -1.4419 -1.6374  0.2331
  151OSM   H10T16768   2.189   1.161   3.528 -0.4881  0.1628  0.8168
  151OSM   C11S16769   2.278   1.041   3.685 -0.1184 -0.1044  0.6755
  151OSM   H11S16770   2.378   0.991   3.690  0.9999  1.6110 -2.3455
  151OSM   H11T16771   2.195   0.968   3.674  1.1425 -1.6992  1.2750
  151OSM   C12S16772   2.259   1.122   3.818  1.1986  0.2742 -0.8546
  151OSM   H12S16773   2.169   1.185   3.805  1.3129  0.3354 -1.3715
  151OSM   H12T16774   2.334   1.204   3.827 -0.6648  2.0926 -1.1854
  151OSM   C13S16775   2.245   1.035   3.939  0.6232 -1.0402  0.2064
  151OSM   H13S16776   2.152   0.979   3.915 -0.8509  2.3019 -2.8247
  151OSM   H13T16777   2.232   1.105   4.024 -0.7755 -1.3946  0.3220
  151OSM   C14S16778   2.371   0.957   3.984 -0.4035 -0.2752  0.8376
  151OSM   H14S16779   2.456   1.029   3.989  0.4192 -1.0798 -0.7951
  151OSM   H14T16780   2.406   0.896   3.898  2.9699  2.6699 -0.1026
  151OSM   C15S16781   2.345   0.868   4.106 -0.2047  0.5740 -0.1970
  151OSM   H15S16782   2.437   0.807   4.123 -1.0106 -0.3536  1.0733
  151OSM   H15T16783   2.257   0.802   4.093 -0.8284  1.4614 -0.5675
  151OSM   C16S16784   2.320   0.948   4.241  0.1210  0.0420  0.3566
  151OSM   H16S16785   2.228   1.009   4.229  0.3018  0.2482  0.0077
  151OSM   H16T16786   2.410   1.013   4.242 -1.5570  2.4798  0.4891
  151OSM   C17S16787   2.298   0.861   4.366  0.6682 -0.1994  0.1824
  151OSM   H17S16788   2.194   0.825   4.354  0.4236  0.6261 -0.2605
  151OSM   H17T16789   2.307   0.923   4.458  0.2957  0.9538 -0.5429
  151OSM   C18S16790   2.395   0.746   4.393  0.0145  0.0700 -0.1887
  151OSM   H18S16791   2.355   0.687   4.479 -1.3706  3.6732  1.8850
  151OSM   H18T16792   2.497   0.782   4.416 -0.4713  0.5057  1.4382
  151OSM   H18U16793   2.392   0.680   4.304 -1.2964  1.3299 -1.1310
  151OSM    C1F16794   2.843   1.150   3.190 -0.0293 -0.8339 -0.8504
  151OSM     OF16795   2.932   1.216   3.142 -0.6529  0.9699 -0.4401
  151OSM    C2F16796   2.843   1.084   3.325 -1.0506  0.0252 -0.6055
  151OSM    H2F16797   2.845   0.976   3.300  1.9976  0.4690 -2.9145
  151OSM    H2G16798   2.749   1.125   3.366  0.3392 -0.7541  3.8495
  151OSM    C3F16799   2.960   1.122   3.423  0.2859 -0.6319 -0.1795
  151OSM    H3F16800   2.961   1.231   3.442 -1.5191 -0.3985 -1.1872
  151OSM    H3G16801   3.053   1.098   3.367  0.6684 -0.7868  0.5137
  151OSM    C4F16802   2.963   1.040   3.550  0.5507 -0.2693 -0.2889
  151OSM    H4F16803   3.066   1.058   3.587  0.4475  1.9925 -1.0025
  151OSM    H4G16804   2.939   0.932   3.539 -0.3627  0.0262 -1.3447
  151OSM    C5F16805   2.854   1.066   3.654 -0.7121  0.2291 -0.5317
  151OSM    H5F16806   2.759   1.046   3.601 -0.6876  0.8708 -0.8203
  151OSM    H5G16807   2.857   1.172   3.686  1.4476  0.4176 -1.1707
  151OSM    C6F16808   2.877   0.971   3.775 -0.0580 -0.5865 -1.1098
  151OSM    H6F16809   2.956   1.024   3.833 -2.6450  1.2158  1.0204
  151OSM    H6G16810   2.909   0.870   3.741 -1.5500 -2.0243  1.5051
  151OSM    C7F16811   2.762   0.960   3.873 -0.4936 -0.1732  0.3476
  151OSM    H7F16812   2.697   0.879   3.834 -0.3322 -1.1996  2.1058
  151OSM    H7G16813   2.708   1.056   3.856 -0.2917 -0.4709 -2.4494
  151OSM    C8F16814   2.794   0.916   4.013 -0.4688  0.0463 -0.1715
  151OSM    H8F16815   2.701   0.941   4.070  0.3446  2.1787  0.3063
  151OSM    H8G16816   2.869   0.986   4.054 -0.7470 -0.5186  1.3714
  151OSM    C9F16817   2.848   0.776   4.016  0.1650  0.4582 -0.6037
  151OSM    H9F16818   2.912   0.748   3.930 -0.3597 -0.3720 -0.7402
  151OSM   C10F16819   2.829   0.690   4.115  0.3307  0.6389 -0.8340
  151OSM   H10F16820   2.873   0.590   4.123  0.5761  0.8401  0.6595
  151OSM   C11F16821   2.743   0.734   4.232  0.6611  0.6238  0.1264
  151OSM   H11F16822   2.640   0.709   4.198 -0.0359  1.1512  1.7567
  151OSM   H11G16823   2.751   0.842   4.253 -1.3102  0.8318  0.0414
  151OSM   C12F16824   2.753   0.647   4.363  0.8071  0.5137 -0.6364
  151OSM   H12F16825   2.709   0.547   4.342  1.7314 -0.0130 -0.1488
  151OSM   H12G16826   2.686   0.694   4.438  1.7525  0.4730  0.2605
  151OSM   C13F16827   2.886   0.628   4.443  0.1134 -0.1310  0.1279
  151OSM   H13F16828   2.899   0.712   4.515  2.4189 -0.1323 -0.2082
  151OSM   H13G16829   2.957   0.628   4.358 -2.1723  2.7951 -1.9941
  151OSM   C14F16830   2.897   0.505   4.518 -0.6209  0.8318 -0.3019
  151OSM   H14F16831   2.870   0.412   4.463  1.8121 -0.1880  0.0568
  151OSM   H14G16832   2.830   0.514   4.606  0.4418 -1.5049  0.8529
  151OSM   C15F16833   3.030   0.489   4.588  0.0362 -0.4361 -0.2805
  151OSM   H15F16834   3.054   0.577   4.650 -0.3158  0.2408 -1.0774
  151OSM   H15G16835   3.107   0.474   4.509  2.3223  1.3543  1.4714
  151OSM   C16F16836   3.038   0.377   4.694  0.2434 -0.7278 -0.3136
  151OSM   H16F16837   3.015   0.277   4.649  0.1173 -1.5183  1.4315
  151OSM   H16G16838   2.954   0.393   4.765 -0.2121 -1.2520 -0.7185
  151OSM   C17F16839   3.168   0.388   4.779  0.3080 -0.1189  0.3295
  151OSM   H17F16840   3.168   0.490   4.824 -1.7339  0.9950 -1.9193
  151OSM   H17G16841   3.250   0.382   4.704  0.0983  1.5349 -0.0805
  151OSM   C18F16842   3.188   0.278   4.882  0.2360  0.1033  0.2606
  151OSM   H18F16843   3.180   0.180   4.830 -0.0505 -1.0598  2.3547
  151OSM   H18G16844   3.121   0.285   4.971  0.6048 -0.0828  0.5585
  151OSM   H18H16845   3.290   0.289   4.926 -0.4676 -0.4641  2.1373
  152OSM      N16846   0.104   2.444   2.770  0.4692  0.0123  0.1698
  152OSM    C1516847   0.029   2.326   2.815  0.1779  0.1833 -0.1990
  152OSM   H15A16848   0.046   2.321   2.922  0.5600  0.0984 -0.2618
  152OSM   H15B16849   0.054   2.230   2.774 -2.3516  0.0463 -1.6049
  152OSM   H15C16850  -0.077   2.340   2.801  0.3291  2.2082  0.2640
  152OSM    C1416851   0.244   2.404   2.792 -0.7064  0.3089  0.0205
  152OSM   H14A16852   0.268   2.331   2.716 -2.2653  2.2378 -2.5114
  152OSM   H14B16853   0.257   2.355   2.887  0.3908  0.5775  0.0259
  152OSM   H14C16854   0.324   2.477   2.787 -0.1751 -0.2811 -0.1264
  152OSM    C1316855   0.079   2.451   2.623 -0.6008 -0.3923  0.8172
  152OSM   H13A16856   0.104   2.360   2.571  1.3593  0.3865  0.3312
  152OSM   H13B16857   0.125   2.532   2.569 -2.1765 -1.8821 -3.0711
  152OSM   H13C16858  -0.025   2.477   2.608 -0.6403 -0.3746  1.1022
  152OSM    C1216859   0.079   2.580   2.845 -0.0048 -0.3878 -0.4217
  152OSM   H12A16860   0.137   2.655   2.793 -1.3318 -0.2196 -1.7194
  152OSM   H12B16861   0.125   2.567   2.942  0.1034 -0.2785 -0.4569
  152OSM    C1116862  -0.065   2.628   2.861 -0.2333  0.3204 -0.3229
  152OSM   H11A16863  -0.059   2.726   2.913  2.6796 -0.6742  1.4232
  152OSM   H11B16864  -0.119   2.561   2.931  0.1502 -0.5962 -0.8886
  152OSM      P16865  -0.103   2.770   2.637  0.4023 -0.5306 -0.1732
  152OSM    O1316866   0.045   2.817   2.645  0.1477  0.4108  0.4797
  152OSM    O1416867  -0.153   2.746   2.501 -0.4082  0.4975 -0.0366
  152OSM    O1116868  -0.197   2.879   2.693  0.0472 -0.1911 -0.1140
  152OSM    O1216869  -0.129   2.643   2.733 -0.1643 -0.2067 -0.8681
  152OSM    C1S16870  -0.344   2.874   2.700  0.1239  0.0731 -0.5402
  152OSM    H1S16871  -0.393   2.816   2.619 -2.1459  1.7646 -0.4805
  152OSM    H1T16872  -0.396   2.972   2.696 -0.4778 -0.0296  2.2284
  152OSM     NF16873  -0.531   2.770   2.825  0.1334  0.2564 -0.6313
  152OSM    HNF16874  -0.594   2.846   2.841  0.7357  0.4873  0.7483
  152OSM    C2S16875  -0.391   2.808   2.836 -0.3496 -0.0132 -0.6334
  152OSM    H2S16876  -0.324   2.721   2.851 -1.6240 -1.0522 -0.7091
  152OSM    C3S16877  -0.376   2.913   2.953 -0.1199  0.3849  0.1544
  152OSM    H3S16878  -0.421   3.005   2.911 -0.1733 -0.8888 -2.8155
  152OSM     O316879  -0.237   2.943   2.974  0.0580 -0.8910 -0.2956
  152OSM    HO316880  -0.204   2.900   2.895 -0.4106 -1.9090  0.0450
  152OSM    C4S16881  -0.435   2.879   3.085 -1.2112 -0.3089 -0.1224
  152OSM    H4S16882  -0.392   2.794   3.140 -1.6159 -3.7238 -4.5654
  152OSM    C5S16883  -0.550   2.928   3.132 -0.5492 -0.3204  0.5358
  152OSM    H5S16884  -0.613   2.974   3.055 -0.3696 -0.2524  0.4298
  152OSM    C6S16885  -0.624   2.866   3.249 -0.1940  0.0097  0.5833
  152OSM    H6S16886  -0.577   2.774   3.288 -1.8612 -1.3146 -0.3861
  152OSM    H6T16887  -0.726   2.838   3.215  0.1162 -1.7858  1.0498
  152OSM    C7S16888  -0.633   2.962   3.366  0.9012 -0.0043  0.6707
  152OSM    H7S16889  -0.664   3.061   3.325 -0.4173 -0.7183 -0.1071
  152OSM    H7T16890  -0.533   2.985   3.407  0.9996 -0.8659  0.9240
  152OSM    C8S16891  -0.724   2.926   3.482 -0.1026  0.4421  0.8288
  152OSM    H8S16892  -0.685   2.833   3.528  0.2059 -0.0043 -0.3069
  152OSM    H8T16893  -0.822   2.904   3.436  0.0776  0.3009  0.5132
  152OSM    C9S16894  -0.733   3.042   3.580  0.1320  0.2092 -0.4994
  152OSM    H9S16895  -0.811   3.013   3.654  1.0775 -2.0671 -0.3013
  152OSM    H9T16896  -0.762   3.133   3.523  1.2043  0.9831  0.1401
  152OSM   C10S16897  -0.605   3.063   3.664 -0.4256  0.2464 -0.1925
  152OSM   H10S16898  -0.510   3.085   3.610 -0.4696  0.9661  0.0130
  152OSM   H10T16899  -0.580   2.969   3.718  0.1525  0.1951 -0.5413
  152OSM   C11S16900  -0.624   3.179   3.772 -0.0844  0.3025 -0.2709
  152OSM   H11S16901  -0.731   3.191   3.798  0.3604  2.9703  0.6232
  152OSM   H11T16902  -0.583   3.276   3.735  1.4242 -0.5465 -0.9091
  152OSM   C12S16903  -0.567   3.154   3.911  0.0846  0.0291 -0.0906
  152OSM   H12S16904  -0.475   3.092   3.909  0.8425  1.0558  1.1455
  152OSM   H12T16905  -0.637   3.084   3.962  0.3552 -1.1126 -1.2401
  152OSM   C13S16906  -0.552   3.274   4.008 -0.1240 -0.1710 -0.4665
  152OSM   H13S16907  -0.649   3.328   4.007  1.0755  2.1267  0.6085
  152OSM   H13T16908  -0.479   3.346   3.965  0.9856  0.9244  2.9473
  152OSM   C14S16909  -0.503   3.226   4.149 -0.8493  0.0712  0.0725
  152OSM   H14S16910  -0.404   3.177   4.138 -0.1979  1.4941 -0.6204
  152OSM   H14T16911  -0.587   3.162   4.185 -1.4276 -0.0023 -1.3671
  152OSM   C15S16912  -0.493   3.339   4.255 -0.0376 -0.3492  0.1053
  152OSM   H15S16913  -0.581   3.407   4.257  0.4514  0.2856  0.1019
  152OSM   H15T16914  -0.413   3.399   4.208  0.1970  0.2122  1.1892
  152OSM   C16S16915  -0.459   3.296   4.395 -0.5879  0.1609  0.1583
  152OSM   H16S16916  -0.442   3.382   4.463 -0.3085 -1.3735  2.1204
  152OSM   H16T16917  -0.365   3.237   4.386 -0.1198  0.6315  1.6522
  152OSM   C17S16918  -0.564   3.213   4.482  1.6902  0.5326  0.7318
  152OSM   H17S16919  -0.565   3.113   4.434 -1.2000  0.2680  1.1670
  152OSM   H17T16920  -0.663   3.264   4.478  1.4171  0.0007  0.7342
  152OSM   C18S16921  -0.528   3.183   4.626  0.3783 -0.5480  0.5528
  152OSM   H18S16922  -0.613   3.137   4.682 -1.4817  1.4493 -0.4769
  152OSM   H18T16923  -0.526   3.277   4.685  0.6615 -0.9541  1.1994
  152OSM   H18U16924  -0.439   3.117   4.633  0.8154 -0.0236  0.0750
  152OSM    C1F16925  -0.581   2.667   2.760  0.2814 -0.2756  0.1029
  152OSM     OF16926  -0.515   2.582   2.707  0.0821  0.4401  0.4002
  152OSM    C2F16927  -0.742   2.659   2.756 -0.0307  0.1927 -0.3725
  152OSM    H2F16928  -0.764   2.621   2.654  0.9035 -2.1312  0.2352
  152OSM    H2G16929  -0.783   2.761   2.772 -1.6747 -0.3607 -0.8807
  152OSM    C3F16930  -0.799   2.566   2.867  0.3911 -0.3958  0.0541
  152OSM    H3F16931  -0.772   2.461   2.841 -0.2156 -0.8243  1.1152
  152OSM    H3G16932  -0.907   2.591   2.875  0.0695 -0.6510 -2.4234
  152OSM    C4F16933  -0.732   2.593   2.997 -0.2052  0.3152 -0.5927
  152OSM    H4F16934  -0.741   2.696   3.037 -0.5162  0.2102 -0.3897
  152OSM    H4G16935  -0.624   2.567   2.988 -0.1999 -0.3110  0.8807
  152OSM    C5F16936  -0.787   2.505   3.108  0.0736  0.5156 -0.0648
  152OSM    H5F16937  -0.779   2.400   3.072 -0.8291  1.6458 -4.0528
  152OSM    H5G16938  -0.893   2.537   3.121 -0.4502 -0.7768 -0.9638
  152OSM    C6F16939  -0.697   2.498   3.236  0.4009 -0.2780 -0.1673
  152OSM    H6F16940  -0.682   2.596   3.286  0.1321 -1.5172  2.5284
  152OSM    H6G16941  -0.602   2.445   3.217 -0.0116 -1.3441  0.6175
  152OSM    C7F16942  -0.772   2.419   3.345  0.1907 -0.1502 -0.0568
  152OSM    H7F16943  -0.790   2.316   3.306  0.0708 -0.4672  0.7966
  152OSM    H7G16944  -0.876   2.458   3.352  0.1104 -0.5486  1.3210
  152OSM    C8F16945  -0.703   2.415   3.488 -0.4339 -0.3685 -0.1625
  152OSM    H8F16946  -0.598   2.389   3.464 -0.5558 -1.9393  0.8569
  152OSM    H8G16947  -0.746   2.329   3.544  1.1745 -0.5969  0.7712
  152OSM    C9F16948  -0.702   2.551   3.563  0.0650  0.4413  0.5243
  152OSM    H9F16949  -0.647   2.635   3.517  3.6904 -0.9850  1.8761
  152OSM   C10F16950  -0.739   2.568   3.694 -0.4920  0.1290  0.3148
  152OSM   H10F16951  -0.720   2.669   3.734  0.1714  0.4222 -0.6968
  152OSM   C11F16952  -0.806   2.474   3.786  0.0089  0.2190  0.2786
  152OSM   H11F16953  -0.840   2.380   3.738 -0.5059 -0.6069  2.1393
  152OSM   H11G16954  -0.893   2.529   3.828  2.6297  2.1874  3.6936
  152OSM   C12F16955  -0.716   2.419   3.899 -0.5616 -0.1678 -0.6799
  152OSM   H12F16956  -0.668   2.509   3.941 -0.5772 -0.6783  0.4590
  152OSM   H12G16957  -0.633   2.357   3.860  0.4549  1.1528 -0.6828
  152OSM   C13F16958  -0.786   2.352   4.021 -0.3179 -0.5927 -0.3961
  152OSM   H13F16959  -0.820   2.251   3.991  2.1239 -1.2940 -0.9994
  152OSM   H13G16960  -0.871   2.422   4.041  0.1942 -0.6079  2.2448
  152OSM   C14F16961  -0.697   2.352   4.149  0.5734 -0.1247  0.0536
  152OSM   H14F16962  -0.677   2.461   4.165  0.9827 -0.5333  2.8677
  152OSM   H14G16963  -0.607   2.291   4.126 -0.2298 -0.4766 -2.4785
  152OSM   C15F16964  -0.766   2.285   4.276  0.3813 -0.1775 -0.2359
  152OSM   H15F16965  -0.776   2.182   4.237  2.3743 -0.1120 -1.0390
  152OSM   H15G16966  -0.871   2.321   4.282 -0.4718 -1.4885 -4.1712
  152OSM   C16F16967  -0.691   2.301   4.409 -0.4501  0.2150 -0.5956
  152OSM   H16F16968  -0.758   2.350   4.482  0.4689  0.0524  0.3847
  152OSM   H16G16969  -0.600   2.365   4.403 -0.3907  0.2109  0.1856
  152OSM   C17F16970  -0.647   2.156   4.458 -0.2507  0.3047 -0.5681
  152OSM   H17F16971  -0.583   2.109   4.381  1.2482  0.0586  0.7810
  152OSM   H17G16972  -0.736   2.090   4.471 -0.3236  0.5302  0.1339
  152OSM   C18F16973  -0.566   2.165   4.593  0.5997  0.0911  0.6725
  152OSM   H18F16974  -0.549   2.066   4.641 -0.9267  0.1817  1.4510
  152OSM   H18G16975  -0.622   2.236   4.656 -1.4069 -0.4099 -0.4727
  152OSM   H18H16976  -0.468   2.211   4.566 -0.1645  0.6607 -1.3616
  153OSM      N16977   4.626   2.167   2.380  0.0113 -0.2889  0.8747
  153OSM    C1516978   4.547   2.290   2.406  0.3027  0.0540  0.1986
  153OSM   H15A16979   4.459   2.275   2.345  0.4048 -2.0334  0.4642
  153OSM   H15B16980   4.602   2.375   2.370 -1.3589  1.4906  0.9467
  153OSM   H15C16981   4.518   2.298   2.510  0.2259 -1.0264  0.2747
  153OSM    C1416982   4.538   2.040   2.396 -0.1421  0.6468 -0.0258
  153OSM   H14A16983   4.488   2.050   2.491  0.1508  1.8903  0.0248
  153OSM   H14B16984   4.592   1.947   2.394 -2.3462 -0.7088 -1.5308
  153OSM   H14C16985   4.484   2.024   2.304 -1.4742  0.2451  0.8005
  153OSM    C1316986   4.667   2.162   2.239  0.0703 -0.5092  0.9638
  153OSM   H13A16987   4.736   2.239   2.207  2.2536 -3.1271 -1.1780
  153OSM   H13B16988   4.582   2.166   2.172  0.0594 -0.0468  1.0042
  153OSM   H13C16989   4.721   2.072   2.213  0.9178  0.4837 -0.9062
  153OSM    C1216990   4.752   2.158   2.467  0.4764  0.5103 -0.0883
  153OSM   H12A16991   4.815   2.242   2.439  2.0483  0.2671  2.4161
  153OSM   H12B16992   4.810   2.073   2.434  1.0586  1.0383 -0.4566
  153OSM    C1116993   4.729   2.142   2.614  0.1235  0.1093 -0.2816
  153OSM   H11A16994   4.828   2.122   2.662  0.1074  2.6364  0.9623
  153OSM   H11B16995   4.676   2.047   2.635  3.7584 -2.3122 -1.0311
  153OSM      P16996   4.767   2.383   2.703 -0.0227 -0.4640  0.2923
  153OSM    O1316997   4.902   2.370   2.635  0.9018 -0.4124  0.0645
  153OSM    O1416998   4.684   2.503   2.670  0.4924  0.4108  0.1016
  153OSM    O1116999   4.795   2.383   2.864  0.4966  0.0952 -0.4353
  153OSM    O1217000   4.677   2.259   2.681  0.0931  0.6411  0.0290
  153OSM    C1S17001   4.785   2.510   2.942 -0.3368  0.2490 -0.4832
  153OSM    H1S17002   4.680   2.544   2.948 -1.0266 -1.7135 -0.8907
  153OSM    H1T17003   4.847   2.592   2.899  0.4115  0.0738  0.2290
  153OSM     NF17004   4.812   2.619   3.159  0.3562  0.2579 -0.0233
  153OSM    HNF17005   4.885   2.682   3.186 -0.4230  0.2040  2.5091
  153OSM    C2S17006   4.830   2.499   3.090 -0.0755  0.5121  0.0296
  153OSM    H2S17007   4.763   2.426   3.140  0.2377  1.3101  1.7091
  153OSM    C3S17008   4.976   2.440   3.092 -0.3604 -0.8883 -1.1970
  153OSM    H3S17009   5.047   2.519   3.058  0.6455 -0.3119  1.9116
  153OSM     O317010   5.001   2.328   3.022  0.0223 -0.3759 -0.3247
  153OSM    HO317011   4.940   2.338   2.949  0.4489  0.3131 -0.5926
  153OSM    C4S17012   5.009   2.421   3.237  0.6002  0.4878 -0.0978
  153OSM    H4S17013   4.928   2.374   3.295  2.3696 -1.8991  0.6199
  153OSM    C5S17014   5.130   2.454   3.293 -0.4451  0.3822  0.8554
  153OSM    H5S17015   5.204   2.502   3.227 -1.5450 -0.3502 -0.9875
  153OSM    C6S17016   5.172   2.433   3.437  0.1514  0.6930  0.2967
  153OSM    H6S17017   5.173   2.531   3.488 -0.8556  0.6908  0.3428
  153OSM    H6T17018   5.279   2.404   3.435  0.3290  1.2731  0.9148
  153OSM    C7S17019   5.087   2.332   3.514  0.4481  0.2188 -0.2695
  153OSM    H7S17020   5.122   2.232   3.483  2.0981  0.5193  0.5516
  153OSM    H7T17021   4.978   2.354   3.502  0.3521 -0.7953 -1.4513
  153OSM    C8S17022   5.111   2.355   3.666  0.1433 -0.4411  0.0606
  153OSM    H8S17023   5.013   2.328   3.712  0.2969 -1.3001 -0.1077
  153OSM    H8T17024   5.130   2.463   3.686 -1.0439 -0.1854 -0.1289
  153OSM    C9S17025   5.217   2.272   3.729  0.0303 -0.6945  0.1908
  153OSM    H9S17026   5.317   2.312   3.700 -0.7897  0.3015 -1.3617
  153OSM    H9T17027   5.205   2.168   3.693 -0.4818 -1.0366  1.3039
  153OSM   C10S17028   5.194   2.273   3.880 -0.2103 -0.3318  0.3853
  153OSM   H10S17029   5.090   2.242   3.901  0.0245 -0.6662  1.0730
  153OSM   H10T17030   5.206   2.377   3.918  2.9653 -0.0415 -1.0520
  153OSM   C11S17031   5.292   2.183   3.960  0.2304  0.4708 -0.1630
  153OSM   H11S17032   5.398   2.205   3.934  0.3038 -0.6407 -0.8813
  153OSM   H11T17033   5.266   2.080   3.925 -1.9105  1.3263 -1.3176
  153OSM   C12S17034   5.275   2.214   4.108  0.1726 -0.1834 -0.2337
  153OSM   H12S17035   5.300   2.323   4.108  1.1658 -0.3099 -3.1835
  153OSM   H12T17036   5.361   2.161   4.156 -1.9363 -1.1722  2.7047
  153OSM   C13S17037   5.138   2.171   4.173  1.0014  0.3051  0.3514
  153OSM   H13S17038   5.125   2.065   4.142  2.7745  0.3513 -0.7172
  153OSM   H13T17039   5.045   2.223   4.142  0.4813  0.7670  2.5699
  153OSM   C14S17040   5.128   2.171   4.326  0.2920  0.4667 -0.5549
  153OSM   H14S17041   5.124   2.277   4.356  0.2574 -0.1142  1.6289
  153OSM   H14T17042   5.215   2.117   4.367  0.9130  0.1884 -2.1509
  153OSM   C15S17043   4.995   2.112   4.378 -1.4168  0.5277 -0.5171
  153OSM   H15S17044   4.983   2.008   4.338 -4.7416 -0.3337  2.2657
  153OSM   H15T17045   4.902   2.162   4.343 -3.5116 -2.1245  0.7868
  153OSM   C16S17046   4.979   2.108   4.529  0.2528 -0.4644 -0.8170
  153OSM   H16S17047   4.869   2.103   4.542  0.2940 -1.5858 -0.7885
  153OSM   H16T17048   5.005   2.207   4.570 -0.8656  0.7605 -2.8842
  153OSM   C17S17049   5.044   1.997   4.610  0.1257 -0.0209  0.0773
  153OSM   H17S17050   5.143   2.041   4.637  0.7057 -0.7561 -0.7997
  153OSM   H17T17051   5.049   1.906   4.547 -2.3225 -0.5771  0.5933
  153OSM   C18S17052   4.970   1.965   4.733 -0.5597 -0.2084 -0.3773
  153OSM   H18S17053   4.875   1.917   4.703  0.8834 -2.6839 -1.2875
  153OSM   H18T17054   4.946   2.062   4.781 -0.3516 -0.4853  0.2932
  153OSM   H18U17055   5.027   1.910   4.810 -3.3899 -1.1411  1.1904
  153OSM    C1F17056   4.693   2.672   3.181 -1.1762  0.3970 -0.0119
  153OSM     OF17057   4.587   2.619   3.149 -0.2714  0.1120 -0.1745
  153OSM    C2F17058   4.693   2.812   3.233  0.3503  0.1618 -0.2890
  153OSM    H2F17059   4.637   2.884   3.170  3.0627  0.9222 -2.0152
  153OSM    H2G17060   4.796   2.850   3.252  0.8874 -1.7587  0.9010
  153OSM    C3F17061   4.609   2.804   3.369 -0.7708 -0.9026 -0.8896
  153OSM    H3F17062   4.504   2.778   3.343 -1.5358  1.3589 -0.2517
  153OSM    H3G17063   4.610   2.909   3.404  0.8845 -0.7703 -1.2599
  153OSM    C4F17064   4.664   2.713   3.481 -0.3906  0.1188  0.2571
  153OSM    H4F17065   4.665   2.606   3.449  3.5216  0.4737 -1.3566
  153OSM    H4G17066   4.598   2.729   3.569  0.1117 -1.1714  0.8999
  153OSM    C5F17067   4.809   2.750   3.516 -0.2159 -0.1875 -0.4925
  153OSM    H5F17068   4.830   2.857   3.537 -0.4936 -0.2727  0.2403
  153OSM    H5G17069   4.888   2.720   3.444  0.3426 -1.5796  0.6407
  153OSM    C6F17070   4.843   2.678   3.656 -0.3814  0.0796  0.2054
  153OSM    H6F17071   4.950   2.653   3.670 -0.6956 -0.1589  2.5169
  153OSM    H6G17072   4.801   2.576   3.655 -3.3166  1.2021 -0.4056
  153OSM    C7F17073   4.787   2.740   3.783 -0.0274 -0.0161  0.6445
  153OSM    H7F17074   4.681   2.712   3.804  0.1373 -1.0227  0.1613
  153OSM    H7G17075   4.790   2.851   3.778  1.4973 -0.0955 -3.0488
  153OSM    C8F17076   4.874   2.705   3.911 -0.3040 -0.2370 -0.2562
  153OSM    H8F17077   4.859   2.783   3.989 -0.4916 -0.3704 -0.1589
  153OSM    H8G17078   4.983   2.714   3.888 -0.3007  2.0394  0.4498
  153OSM    C9F17079   4.862   2.563   3.960  0.7173 -0.1960  0.2565
  153OSM    H9F17080   4.934   2.499   3.908 -1.2557  0.8569 -4.2906
  153OSM   C10F17081   4.787   2.520   4.064 -0.1501 -0.0696  0.2087
  153OSM   H10F17082   4.789   2.412   4.084  0.0108 -0.1663 -0.3111
  153OSM   C11F17083   4.694   2.595   4.151 -0.3040  0.1627 -0.5144
  153OSM   H11F17084   4.601   2.535   4.158  0.2287 -0.9755 -2.5587
  153OSM   H11G17085   4.672   2.690   4.098 -2.5799  0.7684  1.3253
  153OSM   C12F17086   4.754   2.627   4.285  0.2414 -0.3063 -0.3321
  153OSM   H12F17087   4.693   2.708   4.331 -0.1359  0.0473 -1.4129
  153OSM   H12G17088   4.858   2.667   4.282  0.3634 -0.4067  1.6045
  153OSM   C13F17089   4.758   2.508   4.381 -0.3448 -0.2607  0.4097
  153OSM   H13F17090   4.849   2.450   4.353 -0.3322  0.9877 -2.3884
  153OSM   H13G17091   4.664   2.450   4.373 -0.8001  0.4071  0.8680
  153OSM   C14F17092   4.784   2.551   4.526 -0.1127  0.3459 -0.3305
  153OSM   H14F17093   4.702   2.614   4.566 -1.2679 -1.5197  0.3669
  153OSM   H14G17094   4.879   2.609   4.529  0.0295  0.0738  1.0388
  153OSM   C15F17095   4.788   2.431   4.627 -0.2079 -0.0362  0.0787
  153OSM   H15F17096   4.866   2.354   4.609 -3.0971 -2.4830 -3.2885
  153OSM   H15G17097   4.691   2.380   4.640  0.5697 -1.1226  2.1036
  153OSM   C16F17098   4.821   2.494   4.767  0.2482 -0.6156 -0.0189
  153OSM   H16F17099   4.747   2.566   4.809  0.1936 -0.5553 -0.2170
  153OSM   H16G17100   4.917   2.549   4.758  0.4147 -1.0539 -0.9607
  153OSM   C17F17101   4.853   2.382   4.866 -0.4027  0.3093  0.5132
  153OSM   H17F17102   4.932   2.319   4.819 -1.8907 -1.5111  0.3288
  153OSM   H17G17103   4.764   2.317   4.880 -2.0721  1.8047 -2.2509
  153OSM   C18F17104   4.904   2.432   5.000  0.0250 -0.3259 -0.1601
  153OSM   H18F17105   4.964   2.352   5.049 -0.1217 -0.4730 -0.2163
  153OSM   H18G17106   4.812   2.460   5.056 -0.0754  0.7143 -0.8298
  153OSM   H18H17107   4.962   2.526   4.998 -3.1761  1.7975 -2.1790
  154OSM      N17108   1.519   6.678   2.611 -0.0563 -0.5896  0.5787
  154OSM    C1517109   1.556   6.534   2.580  0.8004 -0.3809  0.7001
  154OSM   H15A17110   1.585   6.526   2.476  4.0760  3.3612  1.0881
  154OSM   H15B17111   1.466   6.476   2.588 -0.3875  1.3751  0.5764
  154OSM   H15C17112   1.639   6.504   2.642 -0.2590 -1.8638  1.4491
  154OSM    C1417113   1.480   6.684   2.753 -0.4040 -0.5700  0.1222
  154OSM   H14A17114   1.442   6.782   2.777  0.4551  0.2158 -1.5827
  154OSM   H14B17115   1.568   6.670   2.814 -0.6575 -0.4781  0.5107
  154OSM   H14C17116   1.412   6.609   2.791 -1.4279  0.2585 -0.0320
  154OSM    C1317117   1.642   6.761   2.594  0.0245 -0.0586  0.5957
  154OSM   H13A17118   1.663   6.744   2.490  0.9938 -3.0652  1.1995
  154OSM   H13B17119   1.723   6.734   2.659 -0.4288 -0.1487  1.1351
  154OSM   H13C17120   1.613   6.865   2.601 -0.1463 -0.1811  2.1717
  154OSM    C1217121   1.402   6.718   2.519  0.4110  0.6395  1.1489
  154OSM   H12A17122   1.322   6.651   2.545  0.4366 -0.3518 -1.0739
  154OSM   H12B17123   1.436   6.703   2.417  0.7666  0.4696  1.2907
  154OSM    C1117124   1.360   6.862   2.521 -0.6597  0.2719 -0.0139
  154OSM   H11A17125   1.278   6.873   2.447  0.3002 -1.0866 -1.3443
  154OSM   H11B17126   1.447   6.922   2.485 -1.2307  0.0766 -1.8434
  154OSM      P17127   1.154   6.924   2.678  0.4497 -0.3301  0.1453
  154OSM    O1317128   1.118   7.061   2.634 -0.4253  0.0165 -0.3221
  154OSM    O1417129   1.079   6.810   2.617  0.0058 -0.4719  0.3005
  154OSM    O1117130   1.144   6.921   2.832  0.2006  0.7455  0.1785
  154OSM    O1217131   1.308   6.901   2.652  0.1735  0.2511  0.3364
  154OSM    C1S17132   1.239   6.928   2.939  0.9761  1.0579 -0.1850
  154OSM    H1S17133   1.259   7.036   2.957 -1.9453  1.5900  0.3712
  154OSM    H1T17134   1.329   6.867   2.915  0.6103 -1.1380  3.3113
  154OSM     NF17135   1.284   6.862   3.174  0.1259  0.6397 -0.1719
  154OSM    HNF17136   1.355   6.792   3.175 -1.9226 -1.5446  0.1726
  154OSM    C2S17137   1.182   6.859   3.069  0.0541  0.1367  0.6345
  154OSM    H2S17138   1.090   6.913   3.103  0.4671  2.2725 -1.4243
  154OSM    C3S17139   1.131   6.712   3.040  0.0957  0.3695 -0.5205
  154OSM    H3S17140   1.221   6.655   3.009 -1.0548 -2.9544  1.6913
  154OSM     O317141   1.039   6.698   2.940 -0.1270 -0.4123 -0.4271
  154OSM    HO317142   1.020   6.786   2.906 -2.7181 -1.4643 -2.0166
  154OSM    C4S17143   1.077   6.643   3.163 -0.6471  0.0764  0.1333
  154OSM    H4S17144   0.995   6.693   3.216 -0.9187 -1.3527  1.1174
  154OSM    C5S17145   1.130   6.525   3.203 -0.3076 -0.5559  0.3252
  154OSM    H5S17146   1.207   6.472   3.146 -0.7375 -2.3331  1.3180
  154OSM    C6S17147   1.094   6.460   3.331 -0.1349 -0.0038 -0.4541
  154OSM    H6S17148   1.177   6.400   3.375 -0.8939 -0.9611 -0.2880
  154OSM    H6T17149   1.015   6.386   3.308  0.2569  0.4883 -3.8938
  154OSM    C7S17150   1.043   6.551   3.445  0.3271  0.2528 -1.0257
  154OSM    H7S17151   0.938   6.570   3.415 -0.1331  2.8950  1.8539
  154OSM    H7T17152   1.089   6.652   3.445  0.3118  0.2586 -0.5577
  154OSM    C8S17153   1.062   6.489   3.585 -0.4187 -0.8680  0.5577
  154OSM    H8S17154   1.171   6.502   3.602 -0.1747 -2.3267  0.2175
  154OSM    H8T17155   1.029   6.383   3.577  1.9159 -1.4872 -2.1810
  154OSM    C9S17156   0.985   6.566   3.697  0.0446 -0.2577 -0.3049
  154OSM    H9S17157   0.875   6.558   3.684 -0.0233 -0.5635  0.4143
  154OSM    H9T17158   1.017   6.672   3.695  0.6946 -0.4314  0.2383
  154OSM   C10S17159   1.002   6.503   3.834  0.4182 -0.2775 -0.3923
  154OSM   H10S17160   1.103   6.463   3.859  1.4094  1.1293 -1.9081
  154OSM   H10T17161   0.933   6.416   3.839 -0.5508  0.5470  1.2974
  154OSM   C11S17162   0.962   6.598   3.952  0.0209 -0.0846 -0.0072
  154OSM   H11S17163   0.892   6.675   3.914 -1.0845 -0.5174  1.0890
  154OSM   H11T17164   1.052   6.652   3.987 -0.0461  1.5974 -2.2417
  154OSM   C12S17165   0.893   6.527   4.063  0.3605  0.3199 -0.3740
  154OSM   H12S17166   0.809   6.468   4.020  0.8566 -1.2066  0.6908
  154OSM   H12T17167   0.846   6.603   4.129 -1.1688 -0.4640 -0.5154
  154OSM   C13S17168   0.979   6.430   4.142  0.0832 -0.2078  0.2498
  154OSM   H13S17169   1.083   6.466   4.154  1.1745 -2.7877 -0.7943
  154OSM   H13T17170   0.983   6.329   4.096  0.6333 -0.2603  0.4109
  154OSM   C14S17171   0.921   6.408   4.282 -0.5587  0.7547  0.3035
  154OSM   H14S17172   0.812   6.394   4.263 -0.4599  1.1901 -0.6486
  154OSM   H14T17173   0.927   6.502   4.342  0.1668  1.2076 -0.4588
  154OSM   C15S17174   0.966   6.276   4.351 -0.2697 -0.1806 -0.3608
  154OSM   H15S17175   1.077   6.280   4.351 -0.2322  2.0801  2.7152
  154OSM   H15T17176   0.929   6.185   4.299 -1.4726 -1.3793  2.4137
  154OSM   C16S17177   0.928   6.280   4.499  0.2945 -0.4047 -0.5466
  154OSM   H16S17178   0.828   6.236   4.523 -2.3423  5.1616  0.3716
  154OSM   H16T17179   0.928   6.382   4.542 -0.5055 -0.4457 -0.4228
  154OSM   C17S17180   1.032   6.204   4.593  0.8328 -0.0074 -0.3791
  154OSM   H17S17181   1.133   6.249   4.592  0.3130  1.5135  2.6638
  154OSM   H17T17182   1.035   6.101   4.552 -0.2432 -0.6916  1.1456
  154OSM   C18S17183   1.001   6.207   4.747 -0.6136  0.1304 -0.3529
  154OSM   H18S17184   1.057   6.125   4.798  1.2727  2.0703  0.8888
  154OSM   H18T17185   0.893   6.190   4.766 -0.6664  0.4979 -0.3314
  154OSM   H18U17186   1.030   6.302   4.797 -0.5360  0.0012 -0.1520
  154OSM    C1F17187   1.312   6.972   3.235  0.9977 -0.2720  0.6586
  154OSM     OF17188   1.231   7.066   3.228 -0.5722  0.4163  0.4692
  154OSM    C2F17189   1.441   6.979   3.305 -0.1522 -0.0464  0.0120
  154OSM    H2F17190   1.439   7.063   3.377  0.8275 -0.0086  0.0102
  154OSM    H2G17191   1.522   7.002   3.232  1.3214 -0.4984  1.4490
  154OSM    C3F17192   1.480   6.852   3.394 -0.1025 -0.7169  0.7199
  154OSM    H3F17193   1.583   6.872   3.430  0.9677  0.2727 -2.5454
  154OSM    H3G17194   1.489   6.762   3.329  0.2806 -0.9554  1.0972
  154OSM    C4F17195   1.387   6.825   3.515  1.0612 -0.9678  0.2264
  154OSM    H4F17196   1.288   6.799   3.471  1.0243  1.4238 -1.3337
  154OSM    H4G17197   1.385   6.913   3.584  0.0145  0.5370 -1.6004
  154OSM    C5F17198   1.432   6.704   3.604  0.0764 -0.5825 -0.3612
  154OSM    H5F17199   1.542   6.714   3.617 -0.1052 -0.9780  2.0731
  154OSM    H5G17200   1.416   6.623   3.530  1.4344 -1.0303 -0.2023
  154OSM    C6F17201   1.358   6.690   3.737  0.0224 -1.2197 -0.0107
  154OSM    H6F17202   1.341   6.585   3.768 -2.3636 -0.8498  0.1045
  154OSM    H6G17203   1.260   6.738   3.719  0.5828 -0.1997 -0.4670
  154OSM    C7F17204   1.418   6.765   3.859 -0.1392  0.4484  0.4359
  154OSM    H7F17205   1.382   6.870   3.850  0.7682  0.8719  1.4682
  154OSM    H7G17206   1.526   6.756   3.838 -0.6218 -1.9042 -1.5423
  154OSM    C8F17207   1.369   6.706   3.994 -0.2431 -0.0087  0.9187
  154OSM    H8F17208   1.418   6.609   4.012  3.1652  1.2473 -0.7592
  154OSM    H8G17209   1.260   6.687   3.977 -0.3721  0.2808  1.3850
  154OSM    C9F17210   1.395   6.789   4.116  1.1387 -0.2470  0.8406
  154OSM    H9F17211   1.464   6.872   4.096  0.5578  0.2057  0.6968
  154OSM   C10F17212   1.342   6.772   4.237 -0.1575  0.2761 -0.1105
  154OSM   H10F17213   1.365   6.853   4.308  0.5570  0.5089 -0.6008
  154OSM   C11F17214   1.239   6.667   4.283 -0.5617 -0.5013  0.2348
  154OSM   H11F17215   1.257   6.578   4.218  2.6561 -1.6206  2.4173
  154OSM   H11G17216   1.139   6.713   4.264  0.2079  0.6952 -1.0826
  154OSM   C12F17217   1.242   6.622   4.428 -0.7940 -0.2232 -0.5625
  154OSM   H12F17218   1.168   6.543   4.452 -2.3221  1.9129  2.2431
  154OSM   H12G17219   1.207   6.703   4.495 -3.7855 -0.8736 -1.2038
  154OSM   C13F17220   1.375   6.546   4.475 -0.1461  0.3901  0.1818
  154OSM   H13F17221   1.468   6.589   4.431 -0.7858  0.5471 -1.0814
  154OSM   H13G17222   1.367   6.448   4.424 -0.6741  1.6716 -2.4229
  154OSM   C14F17223   1.402   6.537   4.621 -0.1019  0.3908 -0.0570
  154OSM   H14F17224   1.332   6.467   4.672  0.6570  0.2179  0.7673
  154OSM   H14G17225   1.391   6.638   4.665 -0.7476  0.5085 -0.4723
  154OSM   C15F17226   1.547   6.499   4.649  0.4635 -0.8270 -0.4109
  154OSM   H15F17227   1.610   6.544   4.569 -0.8129  2.1740  0.1171
  154OSM   H15G17228   1.548   6.388   4.641  1.3923 -0.9418  0.8744
  154OSM   C16F17229   1.601   6.552   4.788  0.6761  0.2763 -0.3635
  154OSM   H16F17230   1.523   6.532   4.864  0.8628 -3.0003 -0.8879
  154OSM   H16G17231   1.615   6.661   4.774 -0.9058  0.5252 -0.1780
  154OSM   C17F17232   1.737   6.502   4.825  0.3086 -0.2387  0.3879
  154OSM   H17F17233   1.808   6.544   4.750 -1.1945 -1.1565 -1.6665
  154OSM   H17G17234   1.738   6.392   4.808  0.2472 -0.2579  0.5080
  154OSM   C18F17235   1.786   6.522   4.963  0.7327 -0.5844  0.6960
  154OSM   H18F17236   1.877   6.460   4.975 -0.6053 -3.1209 -1.2950
  154OSM   H18G17237   1.706   6.485   5.031 -0.4741  0.1685 -0.2655
  154OSM   H18H17238   1.795   6.631   4.981  0.0581 -0.6424  1.4277
  155OSM      N17239   4.245   4.373   2.336 -0.2265 -0.8599  0.0114
  155OSM    C1517240   4.135   4.440   2.257  0.9339  0.5511  0.6068
  155OSM   H15A17241   4.041   4.386   2.259  0.1862  1.6799 -1.1496
  155OSM   H15B17242   4.163   4.451   2.153 -0.2268  0.5485  0.2828
  155OSM   H15C17243   4.113   4.536   2.299  0.3233 -0.3482  2.4515
  155OSM    C1417244   4.266   4.230   2.288 -0.4121 -0.4108 -0.8574
  155OSM   H14A17245   4.272   4.220   2.181 -0.8440 -0.0409 -0.9189
  155OSM   H14B17246   4.197   4.153   2.318  1.3037 -1.7379 -0.1485
  155OSM   H14C17247   4.357   4.190   2.330  0.9519  1.3052 -2.0125
  155OSM    C1317248   4.374   4.447   2.320  0.5401 -0.1506 -0.6545
  155OSM   H13A17249   4.409   4.451   2.218 -0.0189 -1.1537 -0.8960
  155OSM   H13B17250   4.452   4.399   2.378  0.0812 -0.5207 -0.3441
  155OSM   H13C17251   4.368   4.547   2.362  2.4702 -0.3767  0.2807
  155OSM    C1217252   4.209   4.377   2.483 -0.2861  0.5924  0.2698
  155OSM   H12A17253   4.276   4.321   2.547  0.7723  1.6012  0.0788
  155OSM   H12B17254   4.115   4.326   2.497  0.4353 -0.4316  1.6315
  155OSM    C1117255   4.212   4.509   2.554  0.1914  0.5071  0.6407
  155OSM   H11A17256   4.153   4.491   2.647 -0.6838  3.7250  0.8204
  155OSM   H11B17257   4.149   4.585   2.502  0.2807  0.0075 -0.2160
  155OSM      P17258   4.425   4.486   2.692 -0.1051 -0.2608  0.1625
  155OSM    O1317259   4.451   4.349   2.651 -0.3366 -0.3668  0.4712
  155OSM    O1417260   4.549   4.572   2.703  0.3138 -0.0714  0.4864
  155OSM    O1117261   4.345   4.472   2.827  0.0961 -0.2408 -0.4810
  155OSM    O1217262   4.333   4.564   2.591 -0.6399  0.0836 -0.3477
  155OSM    C1S17263   4.263   4.581   2.875 -0.5775  0.0387  0.2228
  155OSM    H1S17264   4.158   4.590   2.840 -1.1232 -0.6905  1.5903
  155OSM    H1T17265   4.306   4.681   2.852  2.1685 -1.6509 -2.6974
  155OSM     NF17266   4.140   4.639   3.082  1.0393 -0.0132 -0.1116
  155OSM    HNF17267   4.148   4.721   3.139 -0.2986 -0.2927  0.5148
  155OSM    C2S17268   4.256   4.575   3.030 -0.7057 -0.6828 -0.1832
  155OSM    H2S17269   4.256   4.468   3.060 -1.1454 -0.9716 -1.1659
  155OSM    C3S17270   4.392   4.640   3.084  0.7187  0.2056  0.4642
  155OSM    H3S17271   4.382   4.749   3.064 -2.6701 -0.0390  0.1602
  155OSM     O317272   4.502   4.593   3.015  0.8064 -0.3850 -0.4982
  155OSM    HO317273   4.454   4.549   2.944  1.2076 -0.9693 -0.4132
  155OSM    C4S17274   4.417   4.610   3.227  0.3029 -0.0523  0.0975
  155OSM    H4S17275   4.448   4.506   3.243 -1.3483 -0.8823 -1.6712
  155OSM    C5S17276   4.419   4.701   3.332 -0.2682  0.5472  0.2523
  155OSM    H5S17277   4.395   4.807   3.319 -1.1483  0.4123  0.6920
  155OSM    C6S17278   4.456   4.665   3.471  0.1686  0.2107 -0.8205
  155OSM    H6S17279   4.498   4.563   3.482 -1.5841 -0.5514 -0.8379
  155OSM    H6T17280   4.374   4.675   3.545  0.9403 -2.7763  0.5727
  155OSM    C7S17281   4.558   4.758   3.539  0.5819  0.4314  0.0681
  155OSM    H7S17282   4.528   4.863   3.520 -0.5751 -0.1924 -1.6684
  155OSM    H7T17283   4.651   4.729   3.485 -0.9259 -0.7311 -2.0154
  155OSM    C8S17284   4.575   4.739   3.698 -0.0413  0.1567  0.1963
  155OSM    H8S17285   4.637   4.647   3.703 -2.2335 -1.3461  1.8432
  155OSM    H8T17286   4.474   4.716   3.739 -1.1869  1.3040 -1.8397
  155OSM    C9S17287   4.636   4.862   3.771  0.0359 -0.3068  0.4122
  155OSM    H9S17288   4.571   4.951   3.759  1.9522  0.8969 -1.9067
  155OSM    H9T17289   4.731   4.877   3.715  2.6009 -1.3084  4.0529
  155OSM   C10S17290   4.677   4.854   3.909  0.0680  0.8339 -0.0037
  155OSM   H10S17291   4.747   4.770   3.930  1.0426  1.5595 -0.2373
  155OSM   H10T17292   4.592   4.841   3.979 -1.3251 -0.0940 -1.7906
  155OSM   C11S17293   4.764   4.969   3.961 -0.1973  0.0192 -0.9640
  155OSM   H11S17294   4.716   5.069   3.959  2.2234  1.2430 -1.1477
  155OSM   H11T17295   4.853   4.974   3.894  1.6211  0.1946  1.3463
  155OSM   C12S17296   4.821   4.939   4.102 -0.2392 -0.1702  0.1618
  155OSM   H12S17297   4.889   4.852   4.093 -1.1829 -0.8996 -0.0193
  155OSM   H12T17298   4.743   4.896   4.168 -0.2948 -2.4637 -1.3249
  155OSM   C13S17299   4.886   5.057   4.181 -0.0016  0.3743 -0.6009
  155OSM   H13S17300   4.815   5.138   4.155 -0.1533  0.3752 -0.1847
  155OSM   H13T17301   4.990   5.075   4.146  1.1988  0.1289  2.5240
  155OSM   C14S17302   4.878   5.028   4.329  0.4921  0.8187 -0.1151
  155OSM   H14S17303   4.914   4.925   4.351  0.9598  1.1007  0.4807
  155OSM   H14T17304   4.776   5.037   4.370 -0.6556  1.1805 -2.8153
  155OSM   C15S17305   4.968   5.121   4.409  0.1284  0.4145 -0.6827
  155OSM   H15S17306   4.931   5.145   4.511  0.2449 -2.1528  0.0321
  155OSM   H15T17307   4.973   5.221   4.361 -0.6480  1.0299  0.4727
  155OSM   C16S17308   5.114   5.085   4.420 -0.8928 -0.2615  0.6650
  155OSM   H16S17309   5.182   5.168   4.390 -1.0093 -0.0269  1.0532
  155OSM   H16T17310   5.132   5.002   4.348 -0.5609 -0.6283  1.1639
  155OSM   C17S17311   5.165   5.057   4.552 -0.3180 -0.1837 -0.1064
  155OSM   H17S17312   5.259   5.001   4.532 -0.8351 -1.0036 -0.3107
  155OSM   H17T17313   5.107   4.986   4.615  0.9549  1.2565  2.8925
  155OSM   C18S17314   5.198   5.184   4.634 -0.2963  0.2781 -0.1548
  155OSM   H18S17315   5.270   5.157   4.714 -1.6405 -1.3583  0.5400
  155OSM   H18T17316   5.109   5.238   4.672 -0.2191 -0.5382  1.2252
  155OSM   H18U17317   5.260   5.258   4.578  0.9679  1.2477  2.3821
  155OSM    C1F17318   4.010   4.610   3.060  0.3692 -0.4812 -0.4396
  155OSM     OF17319   3.990   4.504   2.997  0.1761  0.2582 -0.2763
  155OSM    C2F17320   3.895   4.700   3.112  0.2586 -0.6554 -0.9018
  155OSM    H2F17321   3.892   4.785   3.041 -0.3888  0.6990  0.6597
  155OSM    H2G17322   3.907   4.726   3.220  0.7074 -1.0664 -0.8495
  155OSM    C3F17323   3.766   4.613   3.099  0.1360 -0.4367  0.3856
  155OSM    H3F17324   3.755   4.573   2.995 -0.2149  0.6838 -0.0217
  155OSM    H3G17325   3.685   4.687   3.112 -0.0383 -0.4433 -0.5432
  155OSM    C4F17326   3.734   4.498   3.199  0.1050 -0.0788 -0.2835
  155OSM    H4F17327   3.728   4.533   3.304  0.0402 -1.1196  0.0679
  155OSM    H4G17328   3.816   4.426   3.182  0.1013 -0.1310 -0.0797
  155OSM    C5F17329   3.601   4.424   3.162 -0.5237 -0.0017  0.1109
  155OSM    H5F17330   3.612   4.398   3.055  2.7216 -1.6983  0.7551
  155OSM    H5G17331   3.518   4.497   3.178 -0.5863  0.0295 -0.3362
  155OSM    C6F17332   3.590   4.296   3.248 -0.0347  0.1122  0.5599
  155OSM    H6F17333   3.686   4.245   3.228 -0.9362 -0.9558 -1.3317
  155OSM    H6G17334   3.517   4.221   3.212 -1.1100 -0.6042  3.8511
  155OSM    C7F17335   3.581   4.308   3.399  0.1470 -0.0534  0.4433
  155OSM    H7F17336   3.486   4.360   3.426 -0.0454  0.0223 -0.3502
  155OSM    H7G17337   3.670   4.359   3.441  0.5055 -0.5991  0.3441
  155OSM    C8F17338   3.579   4.164   3.466  0.9236 -0.2878  0.4483
  155OSM    H8F17339   3.486   4.109   3.439 -1.5482  1.5929  4.2087
  155OSM    H8G17340   3.573   4.179   3.576  0.5547 -1.4093  0.5985
  155OSM    C9F17341   3.708   4.094   3.436 -0.5374  0.7130 -0.6654
  155OSM    H9F17342   3.716   4.036   3.343  4.0529  0.2518 -0.1968
  155OSM   C10F17343   3.816   4.094   3.519 -0.5010 -0.5950  0.8956
  155OSM   H10F17344   3.903   4.037   3.483 -0.0304  0.9151 -0.4673
  155OSM   C11F17345   3.836   4.158   3.654  0.2068  0.3942 -0.4885
  155OSM   H11F17346   3.740   4.165   3.709 -1.5224 -0.6297 -3.1411
  155OSM   H11G17347   3.871   4.263   3.642 -1.7051  1.5119  2.5551
  155OSM   C12F17348   3.929   4.081   3.745 -0.4958 -0.3845 -0.4919
  155OSM   H12F17349   4.027   4.094   3.694 -0.6298 -1.2375 -0.9690
  155OSM   H12G17350   3.913   3.973   3.761 -1.5691 -0.0499  0.9121
  155OSM   C13F17351   3.951   4.142   3.881  0.1214  0.2654 -0.0659
  155OSM   H13F17352   3.852   4.141   3.930 -0.9929  0.0443 -2.2135
  155OSM   H13G17353   3.983   4.249   3.879 -0.0808  0.3213 -0.6113
  155OSM   C14F17354   4.042   4.057   3.967 -0.1856 -0.4404  0.2082
  155OSM   H14F17355   4.151   4.075   3.955 -0.0985  0.3045  1.7903
  155OSM   H14G17356   4.026   3.948   3.959 -1.3714 -0.3282  0.9004
  155OSM   C15F17357   4.016   4.077   4.115 -0.0179 -0.5285  0.0274
  155OSM   H15F17358   3.924   4.030   4.155 -0.7570  1.9057  1.3551
  155OSM   H15G17359   4.008   4.186   4.129  0.8004 -0.3635 -0.6912
  155OSM   C16F17360   4.131   4.026   4.203 -0.0382 -0.0365 -0.5968
  155OSM   H16F17361   4.214   4.099   4.198  1.9431 -2.0790  0.8112
  155OSM   H16G17362   4.164   3.929   4.160  2.6877 -0.5612  2.3465
  155OSM   C17F17363   4.100   4.001   4.356  0.2396 -0.3436  0.8166
  155OSM   H17F17364   4.007   3.943   4.376 -1.2452  1.4859 -0.4501
  155OSM   H17G17365   4.081   4.097   4.408  0.5362  0.7533 -0.9868
  155OSM   C18F17366   4.227   3.938   4.419 -0.2247  0.1575 -0.3239
  155OSM   H18F17367   4.254   3.851   4.356 -1.4608 -0.8799  0.5037
  155OSM   H18G17368   4.203   3.906   4.523  1.1121 -0.7786 -0.2839
  155OSM   H18H17369   4.303   4.018   4.417 -0.3855  0.3150 -0.2215
  156OSM      N17370   0.277   3.022   2.801 -0.2804 -0.0335  0.0228
  156OSM    C1517371   0.390   3.091   2.886  0.1009  0.2832  0.3634
  156OSM   H15A17372   0.456   3.142   2.818 -0.6057  0.7705  0.0336
  156OSM   H15B17373   0.444   3.016   2.941  0.8773  0.7549  0.2535
  156OSM   H15C17374   0.343   3.152   2.963 -1.5612 -0.3714 -0.0848
  156OSM    C1417375   0.342   2.912   2.729 -0.8862  0.1171  0.8648
  156OSM   H14A17376   0.276   2.877   2.650  0.3181  0.9694 -0.5787
  156OSM   H14B17377   0.346   2.821   2.786 -1.0922 -2.6227 -3.0617
  156OSM   H14C17378   0.439   2.931   2.685 -1.0853 -1.3816 -0.3124
  156OSM    C1317379   0.178   2.981   2.899  0.3232  0.3798 -0.0664
  156OSM   H13A17380   0.082   2.961   2.854 -0.1251  2.0235  0.0804
  156OSM   H13B17381   0.162   3.055   2.976 -0.7604  1.2235 -1.0828
  156OSM   H13C17382   0.213   2.888   2.943  0.2266  0.2484 -0.2651
  156OSM    C1217383   0.214   3.123   2.714 -0.4025 -0.9896 -0.7642
  156OSM   H12A17384   0.114   3.095   2.685 -0.0268 -0.9739 -2.1751
  156OSM   H12B17385   0.276   3.127   2.625  1.7163  0.3242  0.6647
  156OSM    C1117386   0.223   3.277   2.755  0.3269 -0.6826 -0.1092
  156OSM   H11A17387   0.197   3.280   2.864  2.5962  1.8338  0.4920
  156OSM   H11B17388   0.153   3.334   2.690  0.2069  0.6474  1.1109
  156OSM      P17389   0.378   3.493   2.746 -0.2705  0.0193  0.1508
  156OSM    O1317390   0.517   3.530   2.769  0.0238 -0.2426 -0.1667
  156OSM    O1417391   0.324   3.541   2.612 -0.1204 -0.0683  0.0722
  156OSM    O1117392   0.284   3.553   2.863  0.0048  0.1368  0.5919
  156OSM    O1217393   0.357   3.331   2.750 -0.0391  0.3972  0.4183
  156OSM    C1S17394   0.285   3.507   3.000 -0.9451  0.5087  0.1859
  156OSM    H1S17395   0.304   3.398   3.009  1.3099  0.1487 -5.1163
  156OSM    H1T17396   0.187   3.538   3.044 -1.2012  0.1248 -0.1025
  156OSM     NF17397   0.390   3.535   3.220 -0.2518  0.1184  0.1319
  156OSM    HNF17398   0.334   3.582   3.289 -1.8713  1.4445 -1.9704
  156OSM    C2S17399   0.390   3.589   3.086 -0.2944  0.2013  0.3982
  156OSM    H2S17400   0.489   3.564   3.042 -0.6063  0.8477 -0.7079
  156OSM    C3S17401   0.363   3.740   3.067 -0.3186  0.0792 -1.3227
  156OSM    H3S17402   0.254   3.756   3.081 -0.0811  0.3789  0.4395
  156OSM     O317403   0.375   3.792   2.934 -0.3947 -0.1497  0.0923
  156OSM    HO317404   0.367   3.717   2.875  1.3176 -0.8809  0.7366
  156OSM    C4S17405   0.430   3.819   3.173 -0.1810 -0.3825 -0.5974
  156OSM    H4S17406   0.360   3.839   3.256 -0.1492 -0.5792 -0.5220
  156OSM    C5S17407   0.548   3.875   3.163 -0.2929  0.1485 -0.7411
  156OSM    H5S17408   0.597   3.867   3.065  0.8708  1.7318 -0.3361
  156OSM    C6S17409   0.617   3.961   3.264  0.2708  0.2132 -0.1003
  156OSM    H6S17410   0.645   4.062   3.225 -3.2846  0.2332 -3.0586
  156OSM    H6T17411   0.716   3.914   3.281 -0.4753 -1.3119  0.1246
  156OSM    C7S17412   0.550   3.976   3.396  0.3877 -0.5524 -0.0896
  156OSM    H7S17413   0.519   3.881   3.445  0.4211 -0.3146  0.3965
  156OSM    H7T17414   0.459   4.039   3.387 -0.9956 -2.5941 -0.9829
  156OSM    C8S17415   0.630   4.059   3.492 -0.2969 -0.6673 -0.4395
  156OSM    H8S17416   0.659   4.157   3.449  0.3160  1.0362  3.4112
  156OSM    H8T17417   0.725   4.003   3.502 -0.2331 -0.3188  1.2911
  156OSM    C9S17418   0.567   4.086   3.631  0.6620 -0.2671  0.1748
  156OSM    H9S17419   0.494   4.004   3.646  0.7550 -0.2888  0.5094
  156OSM    H9T17420   0.525   4.188   3.643 -2.1507 -1.3288  0.0197
  156OSM   C10S17421   0.664   4.069   3.750  0.1125 -0.1212  0.2329
  156OSM   H10S17422   0.740   4.150   3.757  0.0858 -0.0717 -0.0523
  156OSM   H10T17423   0.717   3.972   3.747 -1.9875 -1.3207 -2.5455
  156OSM   C11S17424   0.582   4.090   3.880  0.8874 -0.3075 -0.4822
  156OSM   H11S17425   0.489   4.031   3.885 -1.0015  2.4773 -0.6000
  156OSM   H11T17426   0.545   4.194   3.871  0.8458 -0.5030 -3.7326
  156OSM   C12S17427   0.659   4.070   4.008 -0.0862 -0.1715 -0.0467
  156OSM   H12S17428   0.766   4.097   3.991  0.0442  0.4471  1.5867
  156OSM   H12T17429   0.664   3.966   4.047  0.1183 -0.6543 -1.3117
  156OSM   C13S17430   0.613   4.169   4.124  0.4255  0.4577  0.2970
  156OSM   H13S17431   0.505   4.146   4.138  0.5763 -1.0508 -0.7295
  156OSM   H13T17432   0.609   4.273   4.087  0.0365  0.8541  1.4118
  156OSM   C14S17433   0.688   4.155   4.252 -0.1579  0.0029  0.1635
  156OSM   H14S17434   0.793   4.187   4.236 -0.7644  1.2741 -1.5708
  156OSM   H14T17435   0.703   4.047   4.275 -0.3062 -0.7277 -2.7958
  156OSM   C15S17436   0.631   4.220   4.373 -0.6978  0.0208 -0.1304
  156OSM   H15S17437   0.544   4.158   4.402 -0.2963 -0.7727 -0.5851
  156OSM   H15T17438   0.581   4.312   4.337 -0.4928 -0.1406 -0.8488
  156OSM   C16S17439   0.727   4.233   4.483 -0.0246  0.3922  0.3998
  156OSM   H16S17440   0.816   4.286   4.441 -0.2306  0.5747  0.1936
  156OSM   H16T17441   0.769   4.138   4.522  4.5426  2.9658  2.5632
  156OSM   C17S17442   0.676   4.319   4.603  0.6346 -0.0280  0.4507
  156OSM   H17S17443   0.579   4.278   4.640  0.5632 -0.0073  0.2867
  156OSM   H17T17444   0.652   4.424   4.574  0.3012 -0.3981 -0.6249
  156OSM   C18S17445   0.775   4.308   4.721 -0.1408 -0.2952 -0.3671
  156OSM   H18S17446   0.816   4.208   4.747  0.9843  0.1292 -0.4782
  156OSM   H18T17447   0.726   4.349   4.811 -0.3812 -1.3124 -0.0230
  156OSM   H18U17448   0.862   4.375   4.706  0.0520 -0.7879 -1.5472
  156OSM    C1F17449   0.429   3.413   3.261 -0.1452  0.4353  0.1911
  156OSM     OF17450   0.496   3.342   3.181  0.4973  0.7354 -0.2248
  156OSM    C2F17451   0.408   3.379   3.407  0.8674  0.4412 -0.1635
  156OSM    H2F17452   0.301   3.379   3.436  0.8160  2.5533 -0.1622
  156OSM    H2G17453   0.448   3.471   3.455  2.7453  0.5597 -1.7772
  156OSM    C3F17454   0.471   3.250   3.475 -0.1498  0.4203 -0.3596
  156OSM    H3F17455   0.582   3.253   3.475 -0.0328 -0.7732  2.0966
  156OSM    H3G17456   0.445   3.165   3.409  0.0669  2.0762 -2.7139
  156OSM    C4F17457   0.427   3.228   3.626  0.0332  0.0024 -0.1448
  156OSM    H4F17458   0.317   3.219   3.634 -0.1296  2.0708  0.4571
  156OSM    H4G17459   0.455   3.322   3.679  0.0836  0.5705 -1.1605
  156OSM    C5F17460   0.484   3.103   3.689  0.2176  0.5433 -0.4624
  156OSM    H5F17461   0.593   3.089   3.673  0.3610  1.5125 -0.3968
  156OSM    H5G17462   0.428   3.018   3.644 -2.3265  2.3334 -0.9284
  156OSM    C6F17463   0.485   3.099   3.842  0.3334  0.3670  0.3772
  156OSM    H6F17464   0.482   2.993   3.877 -0.2155  0.8766  1.9539
  156OSM    H6G17465   0.383   3.136   3.868  0.2104  2.0120 -2.1810
  156OSM    C7F17466   0.589   3.196   3.912  0.0764  0.1431  0.0227
  156OSM    H7F17467   0.589   3.294   3.861  0.9590 -0.4721 -1.2326
  156OSM    H7G17468   0.688   3.148   3.901 -0.5693 -1.6778  1.4944
  156OSM    C8F17469   0.573   3.219   4.060 -0.4920 -1.1257 -0.4555
  156OSM    H8F17470   0.469   3.254   4.077 -0.6944 -2.7965  2.2831
  156OSM    H8G17471   0.637   3.302   4.095 -2.0597 -0.6563  1.5254
  156OSM    C9F17472   0.598   3.100   4.147 -0.1435  0.6753  0.3384
  156OSM    H9F17473   0.686   3.045   4.110 -0.5835  1.6121 -2.3323
  156OSM   C10F17474   0.523   3.064   4.257  0.2839 -0.4611 -0.3586
  156OSM   H10F17475   0.551   2.970   4.306 -0.8584 -0.4405  0.3737
  156OSM   C11F17476   0.391   3.117   4.308 -0.0509  1.2019 -0.1745
  156OSM   H11F17477   0.328   3.030   4.338  1.7357 -0.5703 -1.2469
  156OSM   H11G17478   0.332   3.168   4.229 -1.0805  1.3132  0.6480
  156OSM   C12F17479   0.406   3.229   4.425  0.1386  0.2679  0.2921
  156OSM   H12F17480   0.307   3.280   4.427 -0.6209 -1.1175 -0.4514
  156OSM   H12G17481   0.472   3.309   4.385 -0.4333  1.2290  1.2111
  156OSM   C13F17482   0.452   3.175   4.558  0.3169  0.3461  0.1098
  156OSM   H13F17483   0.556   3.135   4.559  0.2997  0.3065  0.3404
  156OSM   H13G17484   0.380   3.097   4.590  0.2073  0.6561  0.6326
  156OSM   C14F17485   0.442   3.280   4.672 -0.7632  0.3046  0.1825
  156OSM   H14F17486   0.370   3.357   4.638  0.8938  1.6000 -0.4919
  156OSM   H14G17487   0.540   3.332   4.677 -2.0012  3.0400 -1.5851
  156OSM   C15F17488   0.385   3.221   4.802 -0.4383  0.1910 -0.1435
  156OSM   H15F17489   0.285   3.189   4.768 -0.3638  1.9723 -2.3021
  156OSM   H15G17490   0.372   3.304   4.874  4.2647  2.0187 -0.9932
  156OSM   C16F17491   0.455   3.105   4.870  0.1510 -0.4789 -0.0857
  156OSM   H16F17492   0.469   3.022   4.798  3.1483 -1.7346  1.7667
  156OSM   H16G17493   0.398   3.058   4.953 -0.8353  1.5846  0.4766
  156OSM   C17F17494   0.595   3.141   4.930 -0.9323  0.0997 -0.8205
  156OSM   H17F17495   0.593   3.236   4.989  0.6294 -2.0077  3.0120
  156OSM   H17G17496   0.666   3.163   4.848 -0.5041 -1.6054 -0.9298
  156OSM   C18F17497   0.652   3.018   5.009 -0.6244 -0.1307 -0.2218
  156OSM   H18F17498   0.585   2.993   5.094 -0.5060  1.1312  0.2642
  156OSM   H18G17499   0.748   3.042   5.059 -1.1529 -1.4846  1.5274
  156OSM   H18H17500   0.651   2.923   4.952 -0.3955 -1.4246  1.8118
  157OSM      N17501   4.480   5.204   2.455  0.2570  0.2689  0.0911
  157OSM    C1517502   4.478   5.081   2.371  0.5078 -0.0368 -0.0142
  157OSM   H15A17503   4.420   5.090   2.281  1.5068 -0.9274 -0.7799
  157OSM   H15B17504   4.419   5.010   2.427  0.7023  0.2598  0.5795
  157OSM   H15C17505   4.579   5.045   2.358  0.7382  0.1328  1.1571
  157OSM    C1417506   4.553   5.309   2.382 -0.8263  0.2307  0.3758
  157OSM   H14A17507   4.557   5.409   2.424  1.4833  2.2369 -3.9501
  157OSM   H14B17508   4.517   5.321   2.281  2.5683 -1.2157 -1.1510
  157OSM   H14C17509   4.653   5.271   2.369 -0.4367  1.7603 -1.6745
  157OSM    C1317510   4.340   5.241   2.485  0.1539  0.2327 -0.6682
  157OSM   H13A17511   4.339   5.334   2.539 -1.9489 -0.9331  1.4739
  157OSM   H13B17512   4.277   5.171   2.538  3.7467 -1.0833  2.2929
  157OSM   H13C17513   4.277   5.262   2.400 -0.9145  0.8238  0.2553
  157OSM    C1217514   4.549   5.174   2.588  0.4994 -0.0862 -0.0666
  157OSM   H12A17515   4.487   5.108   2.646 -1.2013  1.7401  0.3398
  157OSM   H12B17516   4.554   5.263   2.650  0.0126 -0.5396  0.6437
  157OSM    C1117517   4.691   5.121   2.579 -0.3754  0.3292  0.7843
  157OSM   H11A17518   4.690   5.030   2.515 -0.8183  1.1401 -0.3978
  157OSM   H11B17519   4.708   5.077   2.680  0.2950  0.0315  0.5485
  157OSM      P17520   4.935   5.189   2.495  0.1963 -0.4547 -0.2951
  157OSM    O1317521   4.934   5.070   2.407  0.0802 -0.3870  0.7318
  157OSM    O1417522   5.005   5.312   2.447 -0.0196 -0.1158 -0.0577
  157OSM    O1117523   4.980   5.148   2.645 -0.6053  0.4584 -0.7100
  157OSM    O1217524   4.777   5.214   2.525 -0.6946  0.0555  0.0304
  157OSM    C1S17525   5.016   5.258   2.735 -0.0754  0.2412 -0.0433
  157OSM    H1S17526   4.936   5.325   2.773  1.4104  1.6141  0.7525
  157OSM    H1T17527   5.087   5.325   2.683  0.3442  1.0715  1.5361
  157OSM     NF17528   5.128   5.310   2.963  0.7903  0.0099  0.1610
  157OSM    HNF17529   5.216   5.354   2.943  1.1978 -0.2586  1.2820
  157OSM    C2S17530   5.095   5.202   2.860 -0.2879  0.2797 -0.0819
  157OSM    H2S17531   5.029   5.129   2.911 -1.4820  0.1474 -1.7620
  157OSM    C3S17532   5.220   5.117   2.812  0.3719  0.6874 -0.5355
  157OSM    H3S17533   5.282   5.188   2.753  0.5797  0.1378 -0.9827
  157OSM     O317534   5.198   5.001   2.728  0.4922  0.2348 -0.5920
  157OSM    HO317535   5.108   5.017   2.698  0.3649 -0.2107 -0.4414
  157OSM    C4S17536   5.295   5.069   2.934  1.3310 -0.5198 -0.1372
  157OSM    H4S17537   5.231   5.007   2.999 -0.0667 -0.6859 -1.5915
  157OSM    C5S17538   5.419   5.107   2.959 -0.1778 -0.4801 -0.9154
  157OSM    H5S17539   5.457   5.192   2.901 -2.3640 -0.0206 -1.7770
  157OSM    C6S17540   5.499   5.077   3.084  0.6988 -0.1885 -0.3090
  157OSM    H6S17541   5.480   5.163   3.152 -2.0516 -0.7910 -0.1846
  157OSM    H6T17542   5.605   5.069   3.051  0.2240 -0.0902 -1.9444
  157OSM    C7S17543   5.456   4.968   3.192  0.4007 -0.8387  0.3320
  157OSM    H7S17544   5.443   4.874   3.133  0.7676 -0.3921 -0.4846
  157OSM    H7T17545   5.359   4.999   3.235 -0.6481  0.2280 -2.5233
  157OSM    C8S17546   5.564   4.950   3.302  0.4004 -0.1950  0.9705
  157OSM    H8S17547   5.559   5.047   3.356 -1.7831 -0.2413  0.9381
  157OSM    H8T17548   5.666   4.944   3.259 -0.1890  1.6149 -0.8530
  157OSM    C9S17549   5.528   4.841   3.414 -0.3439  0.3216  0.7784
  157OSM    H9S17550   5.516   4.746   3.357  0.4148  1.1979 -0.9281
  157OSM    H9T17551   5.430   4.860   3.462 -1.3670 -1.3402 -0.5033
  157OSM   C10S17552   5.648   4.848   3.520  0.9191 -0.1456  0.9056
  157OSM   H10S17553   5.729   4.882   3.451 -0.0602 -0.6691 -0.5309
  157OSM   H10T17554   5.675   4.749   3.563 -0.2453 -0.1507  1.6710
  157OSM   C11S17555   5.626   4.950   3.629  0.0250  0.3827  0.0642
  157OSM   H11S17556   5.530   4.919   3.677  0.7557 -0.5597  0.9877
  157OSM   H11T17557   5.606   5.045   3.576 -0.3677 -1.0579 -2.5631
  157OSM   C12S17558   5.743   4.960   3.726 -0.7885 -1.3460 -0.0057
  157OSM   H12S17559   5.836   4.986   3.671  0.2730  1.7856  2.9225
  157OSM   H12T17560   5.756   4.868   3.786  1.5396 -0.1757  1.4078
  157OSM   C13S17561   5.740   5.063   3.843 -0.0975  0.1436  0.1749
  157OSM   H13S17562   5.656   5.033   3.910  0.3163 -0.2904  0.5090
  157OSM   H13T17563   5.712   5.159   3.796  1.9740  0.0057 -1.4748
  157OSM   C14S17564   5.862   5.073   3.927  0.3054 -0.2539  0.2054
  157OSM   H14S17565   5.943   5.120   3.867 -0.7126  1.5899  0.2095
  157OSM   H14T17566   5.898   4.973   3.960  0.0419 -0.5243 -0.3028
  157OSM   C15S17567   5.838   5.154   4.053  0.7906 -0.3079 -0.1925
  157OSM   H15S17568   5.750   5.132   4.118  1.1596  0.8380  0.7436
  157OSM   H15T17569   5.807   5.258   4.028 -0.4338 -0.2796  1.2851
  157OSM   C16S17570   5.973   5.169   4.133 -0.1770 -0.6412  0.1276
  157OSM   H16S17571   5.974   5.256   4.201  2.8960 -0.3849 -0.1398
  157OSM   H16T17572   6.046   5.208   4.060 -0.3483  0.3470  0.4661
  157OSM   C17S17573   6.005   5.049   4.224 -0.0511 -0.3952  0.0380
  157OSM   H17S17574   6.101   5.059   4.279  0.6722 -2.5201 -0.7300
  157OSM   H17T17575   6.014   4.961   4.157 -0.9427 -0.6099  0.1827
  157OSM   C18S17576   5.902   5.003   4.331  0.0419 -0.4355  0.8131
  157OSM   H18S17577   5.894   5.083   4.407  0.8407  0.8486 -0.3987
  157OSM   H18T17578   5.938   4.907   4.375  0.9208 -1.1768 -1.3655
  157OSM   H18U17579   5.801   4.986   4.288 -0.3199 -0.0286  1.4907
  157OSM    C1F17580   5.040   5.355   3.051 -0.0428 -0.2250 -0.3249
  157OSM     OF17581   4.919   5.322   3.038 -0.7353  0.7633 -0.6150
  157OSM    C2F17582   5.087   5.465   3.147  0.7149  0.1160  0.2895
  157OSM    H2F17583   5.010   5.545   3.148  1.0058  0.3920  0.4702
  157OSM    H2G17584   5.188   5.499   3.116  0.5760 -0.1150 -0.4354
  157OSM    C3F17585   5.105   5.425   3.291 -0.2296  0.4328 -0.5485
  157OSM    H3F17586   5.012   5.379   3.330  1.2701 -0.5910  2.0728
  157OSM    H3G17587   5.135   5.511   3.355 -0.0847  0.2945 -0.4308
  157OSM    C4F17588   5.215   5.324   3.312  0.3083 -0.1502 -0.1625
  157OSM    H4F17589   5.298   5.346   3.241 -1.1223 -4.4869 -3.6890
  157OSM    H4G17590   5.167   5.233   3.268 -1.4629  1.2232 -1.2388
  157OSM    C5F17591   5.261   5.315   3.455  0.3150  0.6089  0.0429
  157OSM    H5F17592   5.335   5.232   3.457  1.2859  1.4669  1.0905
  157OSM    H5G17593   5.174   5.272   3.509 -0.1963 -1.9544 -2.5360
  157OSM    C6F17594   5.332   5.430   3.509  0.0684 -0.6756  0.1083
  157OSM    H6F17595   5.256   5.505   3.542  0.7089  2.4774 -4.5625
  157OSM    H6G17596   5.397   5.483   3.436  0.3918 -0.5117  0.5103
  157OSM    C7F17597   5.416   5.388   3.628  0.0323 -0.7218  0.0910
  157OSM    H7F17598   5.487   5.305   3.602  2.7030  0.9392  1.6266
  157OSM    H7G17599   5.355   5.344   3.710  1.7521  0.4782  2.1148
  157OSM    C8F17600   5.500   5.500   3.684  0.4134 -0.3562  0.4164
  157OSM    H8F17601   5.525   5.572   3.602  0.3142 -1.1156 -0.2892
  157OSM    H8G17602   5.596   5.460   3.725  0.5389 -1.3744 -0.8290
  157OSM    C9F17603   5.428   5.581   3.788  0.2244 -0.3099  0.3433
  157OSM    H9F17604   5.352   5.641   3.737  0.0121  0.9121  2.0186
  157OSM   C10F17605   5.452   5.591   3.920  0.2587  0.1968 -0.1023
  157OSM   H10F17606   5.382   5.652   3.978 -1.2544 -0.7724 -0.8523
  157OSM   C11F17607   5.559   5.521   4.004 -0.1370  0.1533  0.6359
  157OSM   H11F17608   5.617   5.449   3.943 -0.5792 -0.4855  0.9602
  157OSM   H11G17609   5.505   5.451   4.071 -2.8154 -0.1602 -1.6526
  157OSM   C12F17610   5.661   5.605   4.070  0.1318 -0.0653 -1.5238
  157OSM   H12F17611   5.733   5.545   4.130  0.3692  2.7240  1.2823
  157OSM   H12G17612   5.623   5.680   4.143 -0.5880 -0.0841 -1.8707
  157OSM   C13F17613   5.737   5.698   3.968 -0.3531 -0.9717 -0.0331
  157OSM   H13F17614   5.660   5.754   3.911 -1.6871 -2.1714  0.5078
  157OSM   H13G17615   5.770   5.623   3.893 -0.7113 -0.3508 -0.8235
  157OSM   C14F17616   5.851   5.786   4.024  0.8246 -0.0261  0.1382
  157OSM   H14F17617   5.923   5.713   4.067 -2.8971 -2.6230  2.5761
  157OSM   H14G17618   5.815   5.839   4.115  2.5817  1.2517  0.1307
  157OSM   C15F17619   5.905   5.880   3.913 -0.2705  0.2642 -0.1479
  157OSM   H15F17620   5.995   5.936   3.947 -2.0383  0.9216  4.0285
  157OSM   H15G17621   5.827   5.960   3.906  0.0768  0.9829  2.7764
  157OSM   C16F17622   5.922   5.814   3.773 -0.1254  0.0091 -0.3708
  157OSM   H16F17623   5.825   5.771   3.742  0.3518 -0.2088 -1.6396
  157OSM   H16G17624   5.984   5.721   3.776 -0.6473 -0.3175  0.7410
  157OSM   C17F17625   5.967   5.909   3.658  0.3592  0.4461 -0.4426
  157OSM   H17F17626   6.042   5.983   3.693  1.9661 -0.9025 -0.8846
  157OSM   H17G17627   5.882   5.971   3.624  0.2184  1.4550  1.6455
  157OSM   C18F17628   6.037   5.842   3.543 -0.2658  1.1418  0.6264
  157OSM   H18F17629   6.074   5.911   3.465  1.2090 -0.9520 -0.6405
  157OSM   H18G17630   5.961   5.780   3.490 -0.2868  0.2892  1.6047
  157OSM   H18H17631   6.110   5.771   3.587 -1.1947  0.5095  1.2004
  158OSM      N17632   4.637   1.216   2.424 -0.4176 -0.0614  0.4785
  158OSM    C1517633   4.606   1.345   2.350  0.2283  0.3360 -0.5734
  158OSM   H15A17634   4.663   1.418   2.405 -1.6954  1.1437  0.4675
  158OSM   H15B17635   4.502   1.367   2.372  0.1190  0.3846 -1.1101
  158OSM   H15C17636   4.627   1.358   2.245  2.7564 -0.5618 -0.2415
  158OSM    C1417637   4.539   1.122   2.374 -0.6077  0.7327  0.7738
  158OSM   H14A17638   4.442   1.169   2.373 -0.4200  1.2179 -1.7723
  158OSM   H14B17639   4.541   1.037   2.440 -0.0921 -0.2807 -0.5079
  158OSM   H14C17640   4.565   1.101   2.271 -0.5257 -0.9728  1.1190
  158OSM    C1317641   4.775   1.166   2.394  0.1827  0.6278 -0.2242
  158OSM   H13A17642   4.847   1.231   2.443 -0.8303  1.1785  0.5813
  158OSM   H13B17643   4.797   1.148   2.290 -2.3317 -0.4396 -0.6249
  158OSM   H13C17644   4.790   1.068   2.438  1.0526 -0.4896 -2.8426
  158OSM    C1217645   4.630   1.257   2.568 -0.4147  0.7957 -0.1864
  158OSM   H12A17646   4.628   1.167   2.627  1.8803 -1.2234 -2.9230
  158OSM   H12B17647   4.541   1.314   2.591  0.5205  1.2769  2.6277
  158OSM    C1117648   4.744   1.349   2.634  0.1262 -0.4939 -0.2183
  158OSM   H11A17649   4.844   1.309   2.609  0.1737 -0.5640  0.0769
  158OSM   H11B17650   4.726   1.332   2.743 -1.0954 -0.9236 -0.4636
  158OSM      P17651   4.629   1.582   2.662  0.1326  0.0994  0.0815
  158OSM    O1317652   4.686   1.714   2.629 -0.0124  0.0451 -0.2611
  158OSM    O1417653   4.495   1.541   2.612  0.0725  0.4611 -0.4649
  158OSM    O1117654   4.660   1.548   2.815  0.6695 -0.2332 -0.4228
  158OSM    O1217655   4.734   1.485   2.590  0.1438  0.1229 -0.0338
  158OSM    C1S17656   4.629   1.662   2.905 -0.2329 -0.6184 -0.3910
  158OSM    H1S17657   4.523   1.694   2.893 -1.0878 -2.9708  0.3175
  158OSM    H1T17658   4.689   1.753   2.882 -1.3666  0.3003  0.1631
  158OSM     NF17659   4.593   1.723   3.148  0.0112 -0.5031 -0.1616
  158OSM    HNF17660   4.664   1.773   3.197  0.7232 -1.3375 -0.3175
  158OSM    C2S17661   4.636   1.617   3.057  0.1067  0.1402  0.6365
  158OSM    H2S17662   4.575   1.524   3.060 -0.3213  0.1926 -2.5393
  158OSM    C3S17663   4.782   1.561   3.090  0.2219  0.3252  0.1110
  158OSM    H3S17664   4.857   1.643   3.082  0.1652  0.2089 -2.9790
  158OSM     O317665   4.831   1.462   3.000  0.4466 -0.2547  0.3943
  158OSM    HO317666   4.779   1.474   2.920 -0.5992  1.9724  1.3390
  158OSM    C4S17667   4.790   1.507   3.228  0.2330  0.2126 -0.2124
  158OSM    H4S17668   4.758   1.401   3.230  0.9539 -0.0326 -1.0883
  158OSM    C5S17669   4.835   1.568   3.337  0.5789 -0.5512 -0.5074
  158OSM    H5S17670   4.856   1.675   3.322 -2.1753  0.0778 -0.4265
  158OSM    C6S17671   4.844   1.518   3.479 -0.4681 -0.0896 -0.8600
  158OSM    H6S17672   4.948   1.490   3.506 -1.4515 -3.3543 -0.0172
  158OSM    H6T17673   4.788   1.422   3.489 -0.1302 -0.1606  0.4507
  158OSM    C7S17674   4.774   1.603   3.583 -0.3574 -0.0437 -0.7835
  158OSM    H7S17675   4.672   1.636   3.551  0.6975  2.4317 -1.8436
  158OSM    H7T17676   4.830   1.697   3.600 -0.3159  0.2907 -2.5362
  158OSM    C8S17677   4.754   1.524   3.712 -0.3137 -0.1904 -0.5939
  158OSM    H8S17678   4.858   1.488   3.729 -0.1535  0.2765 -0.5777
  158OSM    H8T17679   4.683   1.443   3.686 -1.4316  1.0022 -1.3796
  158OSM    C9S17680   4.726   1.619   3.827  0.5537  0.1808 -0.7347
  158OSM    H9S17681   4.632   1.675   3.807  0.4672 -0.0369 -0.9383
  158OSM    H9T17682   4.808   1.694   3.830  0.0372  0.8042 -1.4627
  158OSM   C10S17683   4.713   1.535   3.957 -0.8395  1.0317  0.3700
  158OSM   H10S17684   4.803   1.473   3.972 -0.4110  1.7369  0.7686
  158OSM   H10T17685   4.630   1.462   3.948  0.2490 -0.2158  0.2625
  158OSM   C11S17686   4.688   1.604   4.088  0.2304 -0.6177 -0.6121
  158OSM   H11S17687   4.615   1.686   4.076  1.4340  0.6819  0.6131
  158OSM   H11T17688   4.778   1.656   4.126 -0.7546 -0.9981  2.4843
  158OSM   C12S17689   4.646   1.493   4.189 -0.6287  0.5084 -0.7328
  158OSM   H12S17690   4.725   1.415   4.204 -1.0616  0.3118  0.5795
  158OSM   H12T17691   4.554   1.444   4.152 -1.4538  0.9463  0.6898
  158OSM   C13S17692   4.611   1.542   4.326  0.1796 -0.2718  0.6002
  158OSM   H13S17693   4.532   1.620   4.315  0.5991 -0.0309 -0.9119
  158OSM   H13T17694   4.703   1.590   4.365  1.1430 -1.2377 -0.4219
  158OSM   C14S17695   4.558   1.440   4.425  0.4621  0.6987  0.0746
  158OSM   H14S17696   4.623   1.350   4.432 -1.3561 -0.5853  1.3868
  158OSM   H14T17697   4.463   1.400   4.383  1.2085 -1.5590  0.4061
  158OSM   C15S17698   4.527   1.493   4.565 -0.3607  0.0246  0.0986
  158OSM   H15S17699   4.493   1.412   4.633 -2.5921 -0.6655 -1.7056
  158OSM   H15T17700   4.449   1.573   4.559  0.3458  0.6626 -0.8628
  158OSM   C16S17701   4.639   1.571   4.635  0.0659 -0.5321 -0.2888
  158OSM   H16S17702   4.595   1.609   4.730 -1.6343  0.3677 -1.3929
  158OSM   H16T17703   4.666   1.651   4.563 -1.3998 -1.6203 -2.1488
  158OSM   C17S17704   4.761   1.484   4.649 -0.1785  0.3174 -0.7886
  158OSM   H17S17705   4.805   1.440   4.557 -2.9781 -0.6675 -1.7593
  158OSM   H17T17706   4.718   1.399   4.705 -1.4439  0.8251 -0.9622
  158OSM   C18S17707   4.884   1.539   4.722 -0.0536  0.3460 -0.5373
  158OSM   H18S17708   4.863   1.572   4.825  0.3796 -0.6948 -0.0998
  158OSM   H18T17709   4.926   1.635   4.685 -0.6543  1.1701  0.8471
  158OSM   H18U17710   4.969   1.467   4.725 -0.3958 -0.0277  1.4471
  158OSM    C1F17711   4.466   1.772   3.161 -0.0232  0.1249 -0.3226
  158OSM     OF17712   4.382   1.719   3.088 -0.4482  0.0159  0.2364
  158OSM    C2F17713   4.439   1.881   3.256 -0.1447  0.3693 -0.2939
  158OSM    H2F17714   4.464   1.973   3.199 -3.7621 -0.1325 -3.0779
  158OSM    H2G17715   4.489   1.865   3.353 -2.7714 -0.8628  0.9701
  158OSM    C3F17716   4.284   1.900   3.280 -0.3442  0.3764 -0.2019
  158OSM    H3F17717   4.254   1.806   3.330  2.5752 -0.3359  0.4052
  158OSM    H3G17718   4.223   1.894   3.187 -1.9345  2.6505  0.6068
  158OSM    C4F17719   4.260   2.036   3.344 -0.5544 -0.6717 -0.3673
  158OSM    H4F17720   4.297   2.123   3.286 -1.0122 -0.8808 -0.9768
  158OSM    H4G17721   4.320   2.037   3.438 -0.0246  0.4448 -0.6999
  158OSM    C5F17722   4.117   2.059   3.382 -0.4531  0.4936  0.1507
  158OSM    H5F17723   4.044   2.032   3.302 -1.1255  0.1830  0.8585
  158OSM    H5G17724   4.103   2.164   3.414 -0.9085  0.1843  0.9845
  158OSM    C6F17725   4.068   1.971   3.510 -0.4554  0.1057  0.3930
  158OSM    H6F17726   4.120   2.004   3.603 -0.6888  1.4220  0.0833
  158OSM    H6G17727   4.102   1.866   3.495 -1.4124 -0.2440  0.6377
  158OSM    C7F17728   3.915   1.984   3.508 -0.4822 -0.4260 -0.6069
  158OSM    H7F17729   3.878   1.940   3.413 -1.4587  1.6365 -1.2453
  158OSM    H7G17730   3.885   2.091   3.502  1.7061  0.4643  2.1281
  158OSM    C8F17731   3.852   1.920   3.630  0.1294 -0.2707 -0.6264
  158OSM    H8F17732   3.744   1.946   3.627  0.5109  1.6692  0.4483
  158OSM    H8G17733   3.894   1.971   3.719  0.5303  0.3722 -1.1728
  158OSM    C9F17734   3.850   1.773   3.634 -0.3783  0.7349 -0.5213
  158OSM    H9F17735   3.870   1.729   3.535  1.7040  1.7883 -0.6321
  158OSM   C10F17736   3.843   1.691   3.740  0.5377 -0.2985  0.2923
  158OSM   H10F17737   3.850   1.583   3.722  1.1869 -0.3792  0.9458
  158OSM   C11F17738   3.827   1.723   3.891  0.0454 -0.4361  0.1606
  158OSM   H11F17739   3.845   1.830   3.909 -0.6598 -0.4673  1.0883
  158OSM   H11G17740   3.889   1.660   3.958 -1.0872 -1.9173 -0.1065
  158OSM   C12F17741   3.682   1.702   3.939 -0.2818 -0.0767  0.0105
  158OSM   H12F17742   3.619   1.777   3.885  0.8587  0.4195 -0.6586
  158OSM   H12G17743   3.693   1.730   4.046  0.3947 -1.0632  0.2055
  158OSM   C13F17744   3.629   1.561   3.917  0.0323 -0.1016  1.0215
  158OSM   H13F17745   3.661   1.515   3.822 -3.7797  0.1761 -0.5741
  158OSM   H13G17746   3.519   1.566   3.908 -0.0162  0.3046  1.6980
  158OSM   C14F17747   3.679   1.454   4.016 -0.5765  0.1346 -0.6044
  158OSM   H14F17748   3.642   1.481   4.117  1.4300  1.0476 -0.0736
  158OSM   H14G17749   3.790   1.458   4.014 -0.3265 -3.0886 -2.9006
  158OSM   C15F17750   3.635   1.315   3.973 -0.2327 -0.6588  0.0040
  158OSM   H15F17751   3.691   1.293   3.879 -0.9727 -0.8855 -0.3925
  158OSM   H15G17752   3.529   1.316   3.942 -0.1930 -1.7889 -0.1906
  158OSM   C16F17753   3.666   1.203   4.068 -0.8115 -0.3243 -0.3029
  158OSM   H16F17754   3.771   1.212   4.103 -0.6657  2.8472 -1.2827
  158OSM   H16G17755   3.653   1.109   4.011  3.2948 -0.6373 -1.0287
  158OSM   C17F17756   3.574   1.213   4.187  0.2839  0.7865 -0.1127
  158OSM   H17F17757   3.472   1.187   4.153  0.3125 -1.0531  1.0953
  158OSM   H17G17758   3.572   1.310   4.241 -1.1858  0.9886 -0.5062
  158OSM   C18F17759   3.613   1.116   4.291 -0.3159 -0.0991 -0.8586
  158OSM   H18F17760   3.540   1.105   4.374 -1.4644  1.9622 -1.5313
  158OSM   H18G17761   3.721   1.131   4.312 -0.8540  2.2438  0.5767
  158OSM   H18H17762   3.603   1.015   4.246  2.9765 -1.1070  0.3347
  159OSM      N17763   5.876   4.504   2.713  0.2609  0.3587 -0.4938
  159OSM    C1517764   5.991   4.595   2.754  0.3290  0.2204  0.1239
  159OSM   H15A17765   6.069   4.541   2.805  0.1253  0.4601  0.7032
  159OSM   H15B17766   5.963   4.682   2.812 -3.7923  0.2074 -1.4594
  159OSM   H15C17767   6.033   4.634   2.663  1.1405  1.6311  1.0720
  159OSM    C1417768   5.759   4.591   2.677 -0.1595 -1.1593  0.0634
  159OSM   H14A17769   5.778   4.641   2.583 -1.9666  0.8276  0.6553
  159OSM   H14B17770   5.747   4.668   2.753 -2.8212  0.1116 -1.4841
  159OSM   H14C17771   5.669   4.534   2.663  0.1234 -0.8739 -4.6924
  159OSM    C1317772   5.903   4.423   2.593  0.3675  0.5932  0.0278
  159OSM   H13A17773   5.829   4.345   2.589  0.0298  0.5506  3.7202
  159OSM   H13B17774   5.996   4.372   2.614  1.3915  1.1563 -2.7063
  159OSM   H13C17775   5.922   4.469   2.497  1.4183 -1.3881 -0.7558
  159OSM    C1217776   5.829   4.409   2.831 -0.1668  0.1226  0.3484
  159OSM   H12A17777   5.745   4.347   2.805  1.9011 -2.7164 -0.0070
  159OSM   H12B17778   5.801   4.484   2.903 -0.4267 -0.5084  0.9086
  159OSM    C1117779   5.930   4.301   2.877 -0.0544 -0.0027 -0.1822
  159OSM   H11A17780   5.889   4.256   2.970 -0.3242 -2.4405 -1.4109
  159OSM   H11B17781   6.032   4.339   2.900 -0.3603  0.7337 -0.0142
  159OSM      P17782   5.802   4.095   2.770 -0.3163  0.2250  0.3787
  159OSM    O1317783   5.690   4.172   2.710 -0.3999 -0.0323  0.5737
  159OSM    O1417784   5.846   3.974   2.702 -0.6222 -0.2615 -0.3529
  159OSM    O1117785   5.758   4.062   2.922 -0.3819 -0.1859 -0.0397
  159OSM    O1217786   5.932   4.193   2.783  0.3022 -0.1354 -0.1140
  159OSM    C1S17787   5.861   4.005   3.007  0.2932  1.1318  0.5241
  159OSM    H1S17788   5.963   4.046   2.990  0.6302 -0.4168 -1.4607
  159OSM    H1T17789   5.862   3.895   2.996 -1.0010  0.9338  1.9609
  159OSM     NF17790   5.946   3.965   3.241  0.1243  0.7165  0.5700
  159OSM    HNF17791   5.926   3.892   3.307  1.5803  0.4981  0.7987
  159OSM    C2S17792   5.843   4.022   3.163  0.7227 -0.5320  0.0745
  159OSM    H2S17793   5.851   4.132   3.179  2.4518 -0.3689 -1.5560
  159OSM    C3S17794   5.702   3.978   3.209  0.8504  0.5784  0.1789
  159OSM    H3S17795   5.675   3.877   3.174  0.6030 -0.3014  2.6585
  159OSM     O317796   5.593   4.043   3.147  0.0307 -0.2946 -0.1203
  159OSM    HO317797   5.642   4.066   3.068  0.2492  1.7589  0.5715
  159OSM    C4S17798   5.695   3.976   3.357 -0.0949 -0.3903  0.4034
  159OSM    H4S17799   5.718   3.878   3.402  1.5624 -0.1952  0.0251
  159OSM    C5S17800   5.669   4.093   3.427  0.5164 -1.1623 -0.3751
  159OSM    H5S17801   5.651   4.193   3.386  0.1162 -0.3984  1.5501
  159OSM    C6S17802   5.665   4.092   3.581  0.3820  0.3340 -0.2038
  159OSM    H6S17803   5.560   4.109   3.615  0.3113 -2.4624  1.2736
  159OSM    H6T17804   5.733   4.171   3.619  0.2808  0.9059 -1.1890
  159OSM    C7S17805   5.691   3.954   3.654 -1.0034  0.2956  0.5627
  159OSM    H7S17806   5.797   3.928   3.636 -0.3617  1.9140  1.7146
  159OSM    H7T17807   5.618   3.881   3.613  0.3335  0.0230 -1.4570
  159OSM    C8S17808   5.686   3.982   3.800  0.1777  0.3778 -0.4956
  159OSM    H8S17809   5.583   4.015   3.827 -0.2263 -0.2388 -1.2295
  159OSM    H8T17810   5.757   4.062   3.830 -0.3546  0.6323  0.1256
  159OSM    C9S17811   5.708   3.852   3.877 -0.7655  0.1656 -0.4757
  159OSM    H9S17812   5.812   3.824   3.852  0.0006  1.4385  1.1672
  159OSM    H9T17813   5.647   3.768   3.836  2.1966 -0.6117 -3.7477
  159OSM   C10S17814   5.694   3.869   4.030 -0.2674  0.0321  0.6508
  159OSM   H10S17815   5.755   3.958   4.058  1.7012  0.5872 -4.3424
  159OSM   H10T17816   5.734   3.778   4.079 -0.6732  0.2517  1.3921
  159OSM   C11S17817   5.554   3.898   4.070  0.4102  0.1305 -0.4250
  159OSM   H11S17818   5.498   3.802   4.058 -1.2028  0.4257  3.3464
  159OSM   H11T17819   5.501   3.973   4.007  1.1794  1.3618  0.3644
  159OSM   C12S17820   5.532   3.931   4.216  0.2979  0.0133  0.2028
  159OSM   H12S17821   5.423   3.951   4.224 -0.0649 -0.5147 -2.5119
  159OSM   H12T17822   5.580   4.026   4.249  0.1541 -0.3034  1.3441
  159OSM   C13S17823   5.590   3.823   4.310 -0.7728  0.2359  0.1299
  159OSM   H13S17824   5.701   3.814   4.314 -0.6414  1.9294  1.6693
  159OSM   H13T17825   5.545   3.729   4.272 -1.0912  0.6359 -0.5108
  159OSM   C14S17826   5.533   3.844   4.450 -0.0348  0.0511  0.1252
  159OSM   H14S17827   5.427   3.879   4.442 -0.2285 -0.2129  1.4636
  159OSM   H14T17828   5.589   3.931   4.492  0.2983 -0.1531  0.1042
  159OSM   C15S17829   5.544   3.721   4.547 -0.1683 -0.4777 -0.1627
  159OSM   H15S17830   5.654   3.705   4.551 -0.1509 -0.3969 -0.3080
  159OSM   H15T17831   5.503   3.630   4.496  1.4192 -1.6630  0.5779
  159OSM   C16S17832   5.478   3.736   4.686  0.5655 -0.0630 -0.1347
  159OSM   H16S17833   5.491   3.638   4.736 -0.2908  0.1750  0.5830
  159OSM   H16T17834   5.372   3.758   4.662  0.8423  1.2296 -0.2536
  159OSM   C17S17835   5.552   3.838   4.780 -0.1816  0.6470  0.4152
  159OSM   H17S17836   5.521   3.936   4.738 -3.9881 -1.6377 -2.8202
  159OSM   H17T17837   5.661   3.818   4.768  0.0010  1.6584  0.3593
  159OSM   C18S17838   5.513   3.824   4.928 -0.9938 -0.2926  0.0182
  159OSM   H18S17839   5.405   3.848   4.936 -0.8892  0.2572 -0.1580
  159OSM   H18T17840   5.578   3.882   4.997 -0.0128 -2.2160  0.7612
  159OSM   H18U17841   5.514   3.715   4.948 -0.0409 -0.7541 -2.2193
  159OSM    C1F17842   6.078   3.993   3.236  0.2063  0.2045 -0.1882
  159OSM     OF17843   6.116   4.106   3.198  0.6098  0.0405  0.2386
  159OSM    C2F17844   6.172   3.888   3.288 -0.1344 -0.2696 -0.6355
  159OSM    H2F17845   6.252   3.876   3.212  1.1794  1.1193  0.4813
  159OSM    H2G17846   6.121   3.789   3.295  0.3655 -0.5469 -0.8845
  159OSM    C3F17847   6.234   3.942   3.417 -0.7293  0.3826 -0.6480
  159OSM    H3F17848   6.289   4.038   3.409 -0.5321  0.6351  2.5038
  159OSM    H3G17849   6.315   3.868   3.438  0.0021  1.1590 -0.6973
  159OSM    C4F17850   6.141   3.953   3.537  0.3084 -0.3686 -0.0003
  159OSM    H4F17851   6.092   3.855   3.558 -2.5906  0.9617 -0.1497
  159OSM    H4G17852   6.058   4.022   3.514 -1.0715 -1.6713  0.9033
  159OSM    C5F17853   6.223   4.005   3.658 -0.6332  0.3097  0.5875
  159OSM    H5F17854   6.280   4.098   3.637  1.5339 -0.8697  0.9305
  159OSM    H5G17855   6.295   3.921   3.674 -0.8557 -0.0432 -0.2049
  159OSM    C6F17856   6.127   4.029   3.777 -0.4213 -0.4008  0.0305
  159OSM    H6F17857   6.059   3.941   3.776  0.2857 -0.9594 -1.2180
  159OSM    H6G17858   6.066   4.117   3.746  0.2190 -0.0761 -0.3413
  159OSM    C7F17859   6.193   4.060   3.911 -0.2775 -0.1437 -0.3189
  159OSM    H7F17860   6.246   4.158   3.902 -0.2702 -0.2365 -1.4200
  159OSM    H7G17861   6.277   3.993   3.940 -0.0955  0.2395  0.0612
  159OSM    C8F17862   6.093   4.057   4.025  0.1905  0.5138  0.0308
  159OSM    H8F17863   6.044   3.957   4.032 -0.6050  0.9293  0.4780
  159OSM    H8G17864   6.019   4.133   3.993 -1.0867 -0.2284  1.1123
  159OSM    C9F17865   6.149   4.083   4.166 -0.1058 -0.0390  0.8684
  159OSM    H9F17866   6.251   4.044   4.172 -0.1679 -0.2994  0.2809
  159OSM   C10F17867   6.080   4.126   4.266 -0.0923 -1.2903  0.2745
  159OSM   H10F17868   6.135   4.141   4.360  1.1927 -1.3628 -0.4415
  159OSM   C11F17869   5.931   4.168   4.264  1.3207  0.5270 -0.0932
  159OSM   H11F17870   5.889   4.125   4.170  1.5480 -1.2407  0.5787
  159OSM   H11G17871   5.909   4.277   4.259 -0.9360  0.0872 -2.1882
  159OSM   C12F17872   5.833   4.106   4.376 -0.1743 -0.0041  0.1107
  159OSM   H12F17873   5.877   4.009   4.405  3.3112 -0.1758 -4.6674
  159OSM   H12G17874   5.724   4.094   4.356  0.1603 -1.2389 -1.1412
  159OSM   C13F17875   5.854   4.193   4.489 -0.7374 -0.3931 -0.1200
  159OSM   H13F17876   5.819   4.296   4.466 -0.5870 -0.4661 -0.6835
  159OSM   H13G17877   5.960   4.202   4.521 -0.2916  0.6988 -1.8180
  159OSM   C14F17878   5.771   4.155   4.613 -0.3021  0.2847  0.4633
  159OSM   H14F17879   5.786   4.047   4.634 -0.4878  0.3679  1.0264
  159OSM   H14G17880   5.663   4.175   4.593 -0.0753  1.4098  0.2884
  159OSM   C15F17881   5.810   4.223   4.746 -0.2908 -0.3923 -0.3965
  159OSM   H15F17882   5.919   4.207   4.763 -0.2609 -0.5288 -0.7095
  159OSM   H15G17883   5.762   4.172   4.832 -0.6954 -0.8776 -0.8942
  159OSM   C16F17884   5.777   4.372   4.765 -0.3266 -0.3755 -0.1636
  159OSM   H16F17885   5.675   4.389   4.725 -0.4019 -2.1363 -0.8223
  159OSM   H16G17886   5.847   4.430   4.702 -0.4312  1.3855  1.2749
  159OSM   C17F17887   5.781   4.428   4.913 -0.0655  0.5235 -0.0046
  159OSM   H17F17888   5.875   4.402   4.965 -0.1883 -2.4839 -1.0950
  159OSM   H17G17889   5.697   4.377   4.966  1.2929 -1.6427  0.1828
  159OSM   C18F17890   5.765   4.579   4.915 -0.5742 -0.6234  0.2335
  159OSM   H18F17891   5.732   4.605   5.018  0.6113 -1.5177  0.8611
  159OSM   H18G17892   5.698   4.624   4.839  1.6058  2.2217 -0.2055
  159OSM   H18H17893   5.859   4.632   4.887  1.1559 -2.8129  1.6186
  160OSM      N17894   2.400   4.839   2.307  0.0489  0.6741 -0.0122
  160OSM    C1517895   2.515   4.869   2.220  0.5234  0.2723  0.3387
  160OSM   H15A17896   2.541   4.973   2.232 -0.6945  1.0480 -2.6873
  160OSM   H15B17897   2.502   4.856   2.113 -0.4127 -1.6207  0.6461
  160OSM   H15C17898   2.599   4.807   2.245  0.5671 -1.6641 -3.7125
  160OSM    C1417899   2.284   4.923   2.264 -0.0726 -0.1015 -0.2396
  160OSM   H14A17900   2.230   4.899   2.174  1.2527 -2.2866 -0.5393
  160OSM   H14B17901   2.321   5.024   2.261 -0.0923 -0.1009 -0.4771
  160OSM   H14C17902   2.214   4.932   2.346  0.6404 -0.2800  0.3978
  160OSM    C1317903   2.354   4.699   2.287 -0.6134 -0.1212  0.2365
  160OSM   H13A17904   2.313   4.686   2.188 -2.1434 -1.3428  0.9800
  160OSM   H13B17905   2.277   4.671   2.357  1.0991 -0.9473  1.8926
  160OSM   H13C17906   2.440   4.636   2.306 -1.1045 -0.7039  0.5971
  160OSM    C1217907   2.432   4.860   2.451  0.2817  0.1716  0.0352
  160OSM   H12A17908   2.505   4.788   2.487  2.6891  2.3287 -0.2207
  160OSM   H12B17909   2.345   4.822   2.503  0.5313 -0.9045 -0.3038
  160OSM    C1117910   2.462   4.997   2.509 -0.6407 -0.1324 -0.1688
  160OSM   H11A17911   2.441   5.006   2.617 -3.0292 -1.2350 -0.4647
  160OSM   H11B17912   2.393   5.071   2.463  0.4765  0.6546 -0.6334
  160OSM      P17913   2.722   4.973   2.552  0.2050 -0.1242  0.1705
  160OSM    O1317914   2.753   4.835   2.515 -0.0057 -0.2931 -0.7507
  160OSM    O1417915   2.829   5.074   2.531 -0.7730 -0.9607 -0.0393
  160OSM    O1117916   2.668   4.976   2.697 -0.1926 -0.7064  0.1262
  160OSM    O1217917   2.595   5.025   2.478 -0.6462  0.0088  0.4838
  160OSM    C1S17918   2.687   5.090   2.778  0.0467 -0.5029 -0.4638
  160OSM    H1S17919   2.634   5.174   2.729 -0.2520 -0.3686  0.0814
  160OSM    H1T17920   2.796   5.111   2.776 -0.0396  0.0905  0.5305
  160OSM     NF17921   2.657   5.187   3.001  0.8258  0.4142  0.6089
  160OSM    HNF17922   2.713   5.177   3.083 -0.2233 -0.5627  1.2182
  160OSM    C2S17923   2.651   5.064   2.924 -0.3043 -0.4672  0.1690
  160OSM    H2S17924   2.547   5.025   2.931  1.0395 -4.3686  1.1114
  160OSM    C3S17925   2.736   4.947   2.983 -0.4159 -0.4206 -0.4282
  160OSM    H3S17926   2.843   4.978   2.987 -0.1284 -1.3365 -0.6444
  160OSM     O317927   2.743   4.824   2.903 -0.3906  0.2979 -0.3689
  160OSM    HO317928   2.704   4.851   2.819 -0.4787  0.0067 -0.4239
  160OSM    C4S17929   2.688   4.919   3.127  0.5128 -0.2680 -0.1613
  160OSM    H4S17930   2.579   4.912   3.136  0.4904 -0.7503 -0.7442
  160OSM    C5S17931   2.764   4.906   3.241 -0.1474  0.0579  0.4015
  160OSM    H5S17932   2.871   4.928   3.227  0.0422 -1.1089 -0.0783
  160OSM    C6S17933   2.709   4.871   3.380  0.2367 -0.1835  0.1734
  160OSM    H6S17934   2.602   4.840   3.377 -0.0910  0.4833  2.7912
  160OSM    H6T17935   2.711   4.962   3.443 -0.0578 -0.9859  1.3920
  160OSM    C7S17936   2.799   4.755   3.442  0.6515  0.2401 -0.1025
  160OSM    H7S17937   2.907   4.768   3.420  0.5273  1.6141  0.0066
  160OSM    H7T17938   2.774   4.657   3.395 -0.1896  0.2547  0.2964
  160OSM    C8S17939   2.793   4.748   3.594  0.1585 -0.6856 -0.3960
  160OSM    H8S17940   2.686   4.744   3.624 -0.2685  1.8285 -1.3271
  160OSM    H8T17941   2.849   4.829   3.644 -1.0056 -0.6237  0.8609
  160OSM    C9S17942   2.858   4.621   3.654  0.2031  0.1598  0.2854
  160OSM    H9S17943   2.949   4.604   3.593 -0.9962  0.7669 -1.7831
  160OSM    H9T17944   2.809   4.532   3.609  2.1272 -0.1697 -1.2721
  160OSM   C10S17945   2.894   4.625   3.800  0.4409  1.0176  0.1985
  160OSM   H10S17946   2.970   4.706   3.811  0.7757  1.0657 -1.9839
  160OSM   H10T17947   2.941   4.527   3.820 -1.3519 -0.0659 -0.6855
  160OSM   C11S17948   2.780   4.641   3.902  0.5342 -0.1768 -0.2807
  160OSM   H11S17949   2.711   4.557   3.881 -1.1750  0.6770  1.5916
  160OSM   H11T17950   2.735   4.742   3.887  0.1260 -0.0820  1.3991
  160OSM   C12S17951   2.843   4.633   4.045  0.1772  0.4727  0.0936
  160OSM   H12S17952   2.928   4.702   4.061  0.8572 -0.5476  1.0270
  160OSM   H12T17953   2.891   4.535   4.065 -0.1463  0.7719  2.5534
  160OSM   C13S17954   2.749   4.660   4.160  0.7837 -0.2636 -0.7470
  160OSM   H13S17955   2.649   4.619   4.135  0.0556 -1.5869  3.4476
  160OSM   H13T17956   2.749   4.768   4.184 -1.6226 -0.8089  2.4067
  160OSM   C14S17957   2.777   4.572   4.287  0.1589 -0.0644  0.4527
  160OSM   H14S17958   2.865   4.606   4.346 -0.0707  1.2227  0.0855
  160OSM   H14T17959   2.787   4.465   4.257  1.7936  0.5253 -1.3668
  160OSM   C15S17960   2.647   4.565   4.373  0.4832 -0.1049  0.2601
  160OSM   H15S17961   2.552   4.558   4.315 -0.5178  0.5983  1.7678
  160OSM   H15T17962   2.648   4.662   4.426 -0.9740 -0.8006  1.6294
  160OSM   C16S17963   2.658   4.451   4.479  0.3432  0.0451  0.0827
  160OSM   H16S17964   2.748   4.480   4.538  1.2650  0.4330 -1.4532
  160OSM   H16T17965   2.670   4.352   4.431 -1.1693  0.4452 -1.2134
  160OSM   C17S17966   2.535   4.446   4.572  0.6180 -0.0209 -0.2809
  160OSM   H17S17967   2.532   4.542   4.628 -1.9263  0.9221 -1.8498
  160OSM   H17T17968   2.549   4.364   4.645  4.9763 -0.7706 -1.6473
  160OSM   C18S17969   2.395   4.425   4.510  0.4349 -0.5656 -0.2860
  160OSM   H18S17970   2.385   4.508   4.436 -1.8170 -0.6319 -0.1399
  160OSM   H18T17971   2.316   4.441   4.587  1.4313  2.9730  0.1720
  160OSM   H18U17972   2.391   4.326   4.461  1.9990 -0.7193 -0.1574
  160OSM    C1F17973   2.581   5.302   2.982  0.4859 -0.3348 -0.1168
  160OSM     OF17974   2.482   5.300   2.912 -0.1038 -0.2546 -0.5523
  160OSM    C2F17975   2.618   5.431   3.054 -0.4875 -0.4288 -0.3151
  160OSM    H2F17976   2.661   5.510   2.988 -1.7448  3.2266  2.9082
  160OSM    H2G17977   2.700   5.400   3.122 -0.7044  0.2123  0.2444
  160OSM    C3F17978   2.513   5.481   3.155 -0.2287  0.2973  0.3538
  160OSM    H3F17979   2.420   5.497   3.096  1.0874  0.7855 -1.7042
  160OSM    H3G17980   2.548   5.571   3.211  0.3336  0.4501 -0.2315
  160OSM    C4F17981   2.483   5.370   3.265 -0.3952  0.2746 -0.2320
  160OSM    H4F17982   2.582   5.342   3.307  0.6240  1.8520 -1.4769
  160OSM    H4G17983   2.445   5.274   3.224 -2.7776  0.7395  0.7022
  160OSM    C5F17984   2.390   5.417   3.380  0.2139  0.6588 -0.6458
  160OSM    H5F17985   2.299   5.354   3.367  0.7285  0.3172 -3.0944
  160OSM    H5G17986   2.352   5.518   3.355  0.4310  1.2039  1.1657
  160OSM    C6F17987   2.446   5.431   3.525  0.3227 -0.5152 -0.9925
  160OSM    H6F17988   2.519   5.514   3.514 -1.7001  1.5839  0.4540
  160OSM    H6G17989   2.502   5.345   3.568  1.3756  1.7048  2.5289
  160OSM    C7F17990   2.331   5.465   3.631  0.1690  0.6486 -0.0415
  160OSM    H7F17991   2.273   5.371   3.625  0.2836  0.5946 -0.3160
  160OSM    H7G17992   2.260   5.544   3.595 -1.9943  0.0326  2.5270
  160OSM    C8F17993   2.382   5.509   3.772 -0.1232 -0.1862  0.5189
  160OSM    H8F17994   2.461   5.586   3.759  0.9079 -1.1699  0.7956
  160OSM    H8G17995   2.447   5.430   3.815 -0.0268 -1.7765 -2.2929
  160OSM    C9F17996   2.282   5.573   3.865 -0.1412  0.0713  0.3316
  160OSM    H9F17997   2.216   5.648   3.819  2.4070  1.5677 -1.0822
  160OSM   C10F17998   2.275   5.561   3.998  0.4582  0.4398  0.3207
  160OSM   H10F17999   2.214   5.624   4.065  1.2471  1.1629  0.3712
  160OSM   C11F18000   2.368   5.472   4.079 -0.7539  0.2605 -0.3163
  160OSM   H11F18001   2.466   5.524   4.083 -0.4184 -0.1297 -2.2777
  160OSM   H11G18002   2.380   5.374   4.027 -2.3248  1.3513 -2.9617
  160OSM   C12F18003   2.315   5.459   4.229 -0.7386  0.2651 -0.4562
  160OSM   H12F18004   2.204   5.460   4.234 -0.7292 -0.8503  0.5851
  160OSM   H12G18005   2.360   5.539   4.292 -1.7861 -0.6774  1.5891
  160OSM   C13F18006   2.368   5.322   4.294 -0.3587  0.0613 -0.1913
  160OSM   H13F18007   2.384   5.252   4.210 -0.8141  1.0197 -1.1125
  160OSM   H13G18008   2.289   5.292   4.366 -0.6513  1.1970 -0.0170
  160OSM   C14F18009   2.482   5.335   4.397  0.2795 -0.1271 -0.0984
  160OSM   H14F18010   2.464   5.428   4.455  1.4878  0.6928 -1.0086
  160OSM   H14G18011   2.577   5.345   4.340  1.2029 -1.4921  1.1048
  160OSM   C15F18012   2.483   5.210   4.495 -0.3793  0.4042 -0.0686
  160OSM   H15F18013   2.523   5.122   4.441 -0.9266  1.1766 -1.8337
  160OSM   H15G18014   2.380   5.194   4.535 -0.6720  0.7565 -0.6572
  160OSM   C16F18015   2.572   5.247   4.623 -0.4968 -0.2026  0.4651
  160OSM   H16F18016   2.541   5.348   4.657  1.0995  1.0736 -1.5494
  160OSM   H16G18017   2.680   5.254   4.597 -0.4273  0.3687  0.8912
  160OSM   C17F18018   2.559   5.141   4.724 -0.4331 -0.4717 -0.6681
  160OSM   H17F18019   2.585   5.041   4.684  0.5086 -0.5364  0.0593
  160OSM   H17G18020   2.455   5.139   4.763 -0.3373  2.0902 -0.0926
  160OSM   C18F18021   2.646   5.167   4.851 -0.3867 -0.2580 -0.1613
  160OSM   H18F18022   2.750   5.193   4.823 -1.4042  2.6191 -1.6367
  160OSM   H18G18023   2.650   5.085   4.926 -0.1083  0.7152  0.9297
  160OSM   H18H18024   2.620   5.259   4.907  0.4504 -0.6205  0.8554
  161OSM      N18025   0.686   3.543   2.436  0.0708  0.5178  0.2552
  161OSM    C1518026   0.809   3.526   2.357 -0.3304  0.2232 -0.1261
  161OSM   H15A18027   0.826   3.612   2.295  0.8095  2.0048  2.4881
  161OSM   H15B18028   0.811   3.433   2.302 -0.9988 -0.5473  1.1056
  161OSM   H15C18029   0.899   3.533   2.416  0.5351  1.0105 -1.4832
  161OSM    C1418030   0.667   3.684   2.471 -0.3639 -0.2743 -0.8750
  161OSM   H14A18031   0.671   3.750   2.386 -3.3863 -0.3808 -1.2112
  161OSM   H14B18032   0.744   3.704   2.544 -2.0490  3.2203  0.1729
  161OSM   H14C18033   0.569   3.705   2.512 -0.2380 -0.0735 -0.6741
  161OSM    C1318034   0.576   3.500   2.339  0.0094  0.0980 -0.0134
  161OSM   H13A18035   0.613   3.410   2.292 -0.5216  0.0593 -0.3614
  161OSM   H13B18036   0.559   3.575   2.264 -2.8518 -1.0047 -0.6164
  161OSM   H13C18037   0.486   3.483   2.396 -0.6853  2.0221 -0.4893
  161OSM    C1218038   0.694   3.457   2.551  0.0165 -0.8832  0.3592
  161OSM   H12A18039   0.704   3.355   2.517 -0.2766  0.0292 -2.8281
  161OSM   H12B18040   0.602   3.459   2.608  0.3441 -1.1722  0.9082
  161OSM    C1118041   0.816   3.485   2.648 -0.8024  0.3019 -0.3573
  161OSM   H11A18042   0.798   3.431   2.743 -1.5826  3.3200  1.3627
  161OSM   H11B18043   0.831   3.592   2.673 -0.3292 -0.3681  2.4770
  161OSM      P18044   0.976   3.280   2.606  0.0019  0.2310 -0.0582
  161OSM    O1318045   0.857   3.190   2.587 -0.4790 -0.6328  0.2494
  161OSM    O1418046   1.089   3.247   2.519 -0.2182 -0.3135  0.4425
  161OSM    O1118047   1.026   3.258   2.751 -0.4476 -0.0432 -0.0027
  161OSM    O1218048   0.939   3.437   2.591  0.0810  0.5889 -0.2071
  161OSM    C1S18049   1.118   3.343   2.823  0.4001 -0.3001  0.2226
  161OSM    H1S18050   1.077   3.447   2.822  0.9844 -0.0110  2.2327
  161OSM    H1T18051   1.215   3.347   2.769 -0.7350  0.0811 -1.9033
  161OSM     NF18052   1.221   3.396   3.046  0.2040 -0.0104  0.5062
  161OSM    HNF18053   1.307   3.362   3.084  0.5360  1.0373  0.7195
  161OSM    C2S18054   1.136   3.305   2.971 -0.2451  0.5077 -0.3203
  161OSM    H2S18055   1.034   3.321   3.012  0.3199  0.2083  1.2826
  161OSM    C3S18056   1.173   3.151   2.993  0.3595 -0.3649 -0.4417
  161OSM    H3S18057   1.277   3.122   2.968  0.2530 -0.6373 -0.5796
  161OSM     O318058   1.092   3.067   2.911  0.0450  0.4324  0.0748
  161OSM    HO318059   1.046   3.126   2.852  2.4305  3.5932  1.0691
  161OSM    C4S18060   1.155   3.120   3.136 -0.4832 -0.6144  0.0477
  161OSM    H4S18061   1.051   3.097   3.163 -1.1283  1.4308 -0.5186
  161OSM    C5S18062   1.252   3.110   3.232  0.2313  0.5220  0.4230
  161OSM    H5S18063   1.360   3.104   3.209  0.5853 -0.9337  2.1789
  161OSM    C6S18064   1.221   3.095   3.377  0.1112  0.0850  0.6954
  161OSM    H6S18065   1.246   2.990   3.405 -0.2678  0.2156  1.5350
  161OSM    H6T18066   1.114   3.069   3.389  0.5706 -2.7203 -0.3683
  161OSM    C7S18067   1.276   3.202   3.471 -0.2061  0.0515  0.1166
  161OSM    H7S18068   1.248   3.305   3.440 -0.2748  0.2650  0.8750
  161OSM    H7T18069   1.386   3.189   3.468 -0.4236 -2.5013  1.0707
  161OSM    C8S18070   1.232   3.161   3.615 -0.9852 -0.5476 -0.0022
  161OSM    H8S18071   1.263   3.059   3.646 -1.3080 -0.2618  1.3264
  161OSM    H8T18072   1.122   3.156   3.609 -1.1311 -0.7306  2.0538
  161OSM    C9S18073   1.277   3.250   3.737 -0.2575 -0.0813 -0.4662
  161OSM    H9S18074   1.214   3.224   3.825 -0.0472 -1.2572 -0.6393
  161OSM    H9T18075   1.259   3.357   3.716 -4.0786 -0.2985  0.9440
  161OSM   C10S18076   1.424   3.236   3.777  0.7946  0.7346 -0.5337
  161OSM   H10S18077   1.486   3.290   3.702  0.9052  0.0035 -0.9794
  161OSM   H10T18078   1.451   3.129   3.762 -2.8722 -0.1244 -1.8711
  161OSM   C11S18079   1.459   3.265   3.922 -0.2171 -0.6753  0.0013
  161OSM   H11S18080   1.428   3.181   3.988 -1.8075  0.0788  0.2425
  161OSM   H11T18081   1.404   3.353   3.960  2.9563  0.3327  2.6603
  161OSM   C12S18082   1.611   3.296   3.931  0.3027 -0.3489 -0.9030
  161OSM   H12S18083   1.617   3.400   3.891 -1.2749  0.1047 -0.0738
  161OSM   H12T18084   1.672   3.221   3.877 -0.7283 -1.6831 -0.2807
  161OSM   C13S18085   1.655   3.303   4.078 -0.2585 -0.3682  0.5672
  161OSM   H13S18086   1.624   3.212   4.133 -1.4577  0.7859  1.8664
  161OSM   H13T18087   1.614   3.395   4.125  2.0289  0.2041  1.5357
  161OSM   C14S18088   1.805   3.319   4.109 -0.2551  0.0044 -0.4689
  161OSM   H14S18089   1.851   3.408   4.062  2.4480 -0.2660  1.4600
  161OSM   H14T18090   1.849   3.221   4.082 -3.2816 -1.8638  0.8065
  161OSM   C15S18091   1.823   3.318   4.263  0.2134  0.3151 -0.6515
  161OSM   H15S18092   1.908   3.247   4.277 -0.2471  0.1276  1.4999
  161OSM   H15T18093   1.738   3.282   4.326  1.2104  0.9186  1.1105
  161OSM   C16S18094   1.876   3.446   4.324  0.3032 -0.2236  0.1600
  161OSM   H16S18095   1.795   3.520   4.341 -0.4572 -0.8339 -0.6867
  161OSM   H16T18096   1.950   3.492   4.254 -1.9701  0.7947 -1.7061
  161OSM   C17S18097   1.947   3.428   4.463 -0.5759  0.1561  0.0107
  161OSM   H17S18098   1.993   3.524   4.495 -1.2835  0.4913  0.0273
  161OSM   H17T18099   2.033   3.362   4.439 -0.0553  0.9205 -0.2622
  161OSM   C18S18100   1.855   3.379   4.574 -0.6180 -0.7428  0.6407
  161OSM   H18S18101   1.768   3.448   4.572 -0.0206  0.0319 -1.9118
  161OSM   H18T18102   1.911   3.387   4.670 -2.1759  0.8347  1.4801
  161OSM   H18U18103   1.833   3.271   4.564  1.6034 -1.0725 -1.6721
  161OSM    C1F18104   1.196   3.524   3.063 -0.6943  0.4952  0.1761
  161OSM     OF18105   1.088   3.570   3.043  0.5396 -0.1538 -0.0274
  161OSM    C2F18106   1.301   3.601   3.128  1.1174 -0.4371 -0.1504
  161OSM    H2F18107   1.386   3.534   3.153  0.2654 -2.7750 -2.9394
  161OSM    H2G18108   1.273   3.649   3.225  3.1063  0.7589 -0.1096
  161OSM    C3F18109   1.359   3.709   3.036 -0.0823  0.3575  0.1978
  161OSM    H3F18110   1.432   3.754   3.107  0.4368  0.4206 -0.3663
  161OSM    H3G18111   1.285   3.789   3.015 -1.2361 -1.0104 -1.1268
  161OSM    C4F18112   1.432   3.669   2.906 -0.4154 -0.1030  0.1922
  161OSM    H4F18113   1.361   3.623   2.834  0.5023 -0.6948 -0.3665
  161OSM    H4G18114   1.505   3.590   2.933  1.7752  1.6635 -0.2359
  161OSM    C5F18115   1.509   3.780   2.832  0.4523  0.2018 -0.6508
  161OSM    H5F18116   1.431   3.858   2.817 -0.9096 -1.0770 -0.4371
  161OSM    H5G18117   1.540   3.730   2.737 -0.4352 -4.4384  1.2107
  161OSM    C6F18118   1.641   3.822   2.895 -0.0588 -0.0580  0.0726
  161OSM    H6F18119   1.680   3.723   2.925 -1.9351 -0.8495  0.0252
  161OSM    H6G18120   1.628   3.872   2.994  0.1252 -0.1317  0.1343
  161OSM    C7F18121   1.741   3.891   2.799  0.2904  0.6223  0.0935
  161OSM    H7F18122   1.677   3.969   2.752 -0.4031 -0.6329 -1.1263
  161OSM    H7G18123   1.763   3.815   2.720 -3.7038 -2.1248  1.3034
  161OSM    C8F18124   1.859   3.951   2.867 -0.1143  0.6928  0.7198
  161OSM    H8F18125   1.823   4.013   2.952  0.2576 -0.1169  1.4817
  161OSM    H8G18126   1.910   4.030   2.808 -0.0611 -0.0133 -0.2082
  161OSM    C9F18127   1.953   3.842   2.911 -0.1795  0.0205  0.8361
  161OSM    H9F18128   2.020   3.793   2.839  0.6476 -0.3843  1.8490
  161OSM   C10F18129   1.951   3.794   3.034 -0.0091  0.3416  0.4367
  161OSM   H10F18130   2.032   3.722   3.052 -0.0216 -0.1944 -1.3887
  161OSM   C11F18131   1.861   3.830   3.157 -0.1951  0.2007  0.4769
  161OSM   H11F18132   1.780   3.757   3.177 -0.2730 -0.1979 -1.1189
  161OSM   H11G18133   1.816   3.931   3.146 -0.1949  0.0124 -1.7766
  161OSM   C12F18134   1.949   3.828   3.285  0.3845  0.1738  0.1984
  161OSM   H12F18135   2.012   3.920   3.291  2.8638 -1.4705  0.7979
  161OSM   H12G18136   2.023   3.746   3.285 -0.6339 -0.7711  0.5631
  161OSM   C13F18137   1.872   3.816   3.422  0.3277  0.8353 -0.2712
  161OSM   H13F18138   1.825   3.716   3.431  0.1964  0.9649  0.5754
  161OSM   H13G18139   1.794   3.894   3.435 -1.9625 -1.5112  0.9746
  161OSM   C14F18140   1.974   3.828   3.536  0.4204  0.1734  0.0474
  161OSM   H14F18141   1.966   3.935   3.565 -1.2339 -0.1790  0.9962
  161OSM   H14G18142   2.078   3.809   3.499 -0.0409 -2.8538  0.0774
  161OSM   C15F18143   1.956   3.745   3.661  0.5385 -0.3978 -0.7943
  161OSM   H15F18144   1.848   3.723   3.671  0.2967  0.0509 -2.1957
  161OSM   H15G18145   1.997   3.798   3.750  0.4068 -0.2989 -0.7915
  161OSM   C16F18146   2.023   3.610   3.656  0.1565 -0.1526  0.6023
  161OSM   H16F18147   2.131   3.618   3.631  0.7937 -1.6159  2.5742
  161OSM   H16G18148   1.984   3.543   3.577 -0.2733 -0.0168  0.6988
  161OSM   C17F18149   2.007   3.538   3.792  0.7332  0.0786  0.5279
  161OSM   H17F18150   2.012   3.427   3.780  0.1251  0.1646 -0.6524
  161OSM   H17G18151   1.905   3.565   3.826  0.4118  0.2055 -0.4955
  161OSM   C18F18152   2.113   3.573   3.897 -0.2673 -0.2783 -0.5446
  161OSM   H18F18153   2.210   3.600   3.850 -1.4433 -0.4993 -3.2947
  161OSM   H18G18154   2.117   3.494   3.975 -3.2205 -2.0350 -1.9829
  161OSM   H18H18155   2.064   3.651   3.959 -0.5028  0.1541 -1.2622
  162OSM      N18156   1.309   4.597   2.068 -0.0495 -0.2338 -0.7269
  162OSM    C1518157   1.237   4.478   2.117 -0.2801 -0.3758  0.9116
  162OSM   H15A18158   1.292   4.415   2.185 -1.5216 -2.7780 -0.1811
  162OSM   H15B18159   1.227   4.404   2.038 -0.7345 -0.9105  1.4607
  162OSM   H15C18160   1.135   4.498   2.148 -0.8506 -0.1368 -0.9558
  162OSM    C1418161   1.448   4.552   2.023 -0.0857 -0.7511  0.1970
  162OSM   H14A18162   1.501   4.630   1.971  0.5366 -0.7807  0.7884
  162OSM   H14B18163   1.439   4.473   1.950 -2.1434 -1.6555  1.3260
  162OSM   H14C18164   1.496   4.513   2.111  1.1229 -0.1481 -0.1690
  162OSM    C1318165   1.235   4.650   1.952  0.1743 -0.6000 -0.1273
  162OSM   H13A18166   1.210   4.578   1.876 -1.4470  0.0454 -0.2423
  162OSM   H13B18167   1.286   4.734   1.907 -1.9792  1.1941  0.6064
  162OSM   H13C18168   1.141   4.693   1.984  1.3312  2.1617 -0.1251
  162OSM    C1218169   1.317   4.701   2.179 -0.4743 -0.4686  0.0062
  162OSM   H12A18170   1.218   4.742   2.195  0.2416  0.5630  2.1950
  162OSM   H12B18171   1.369   4.784   2.134  0.2396 -1.4826 -1.0623
  162OSM    C1118172   1.377   4.663   2.315  0.6217 -0.2315  0.0039
  162OSM   H11A18173   1.301   4.610   2.377 -0.2747 -0.1901 -1.0035
  162OSM   H11B18174   1.391   4.755   2.375 -0.7484  1.0057 -1.4420
  162OSM      P18175   1.558   4.501   2.413 -0.0011  0.1337 -0.4589
  162OSM    O1318176   1.506   4.360   2.413 -1.0423  0.6534 -0.5666
  162OSM    O1418177   1.704   4.521   2.411 -0.3150  1.2507  0.1555
  162OSM    O1118178   1.502   4.584   2.545  0.2178  0.0049  0.2029
  162OSM    O1218179   1.491   4.589   2.299  0.1195  0.6487  0.4080
  162OSM    C1S18180   1.470   4.509   2.667 -0.5659 -0.0518 -0.5486
  162OSM    H1S18181   1.543   4.431   2.697  0.6334 -0.0652 -3.1688
  162OSM    H1T18182   1.374   4.458   2.644 -0.1667 -0.2711 -1.8405
  162OSM     NF18183   1.443   4.528   2.911 -0.0634 -0.5183 -0.2728
  162OSM    HNF18184   1.365   4.556   2.967  0.5023  1.9556 -0.6085
  162OSM    C2S18185   1.459   4.603   2.787 -0.0371 -0.7129  0.2271
  162OSM    H2S18186   1.556   4.657   2.797  1.1662 -2.9135  1.1188
  162OSM    C3S18187   1.348   4.712   2.769  0.5937  0.0035 -0.2426
  162OSM    H3S18188   1.248   4.665   2.778  1.1210 -0.9164  1.1884
  162OSM     O318189   1.337   4.761   2.635  0.8193 -0.0666  0.1436
  162OSM    HO318190   1.379   4.687   2.591 -1.6088 -1.9240  0.7851
  162OSM    C4S18191   1.344   4.818   2.881  0.4216 -0.3605 -0.3203
  162OSM    H4S18192   1.269   4.800   2.959 -2.4918  1.9114 -2.3644
  162OSM    C5S18193   1.407   4.938   2.892 -0.8506 -0.2571  0.3021
  162OSM    H5S18194   1.465   4.967   2.804 -0.0744  2.5534  1.6318
  162OSM    C6S18195   1.401   5.040   3.002 -0.0998  1.2491 -0.1837
  162OSM    H6S18196   1.384   5.146   2.974  0.2135  1.7618  1.4459
  162OSM    H6T18197   1.509   5.055   3.023  0.1287  2.0291 -1.7996
  162OSM    C7S18198   1.315   4.994   3.123  0.8087  0.2203 -0.4846
  162OSM    H7S18199   1.303   4.884   3.136 -0.2723  0.3655 -0.1627
  162OSM    H7T18200   1.214   5.038   3.108 -0.2256 -1.3601  1.4512
  162OSM    C8S18201   1.353   5.058   3.254  0.0820  0.2280  0.2854
  162OSM    H8S18202   1.350   5.169   3.258 -1.0808  0.2809 -1.2513
  162OSM    H8T18203   1.460   5.041   3.277  0.3532 -0.3423 -1.3105
  162OSM    C9S18204   1.265   5.009   3.373 -0.1787 -0.7378  0.2707
  162OSM    H9S18205   1.298   4.903   3.384 -1.5169 -1.2041  0.0122
  162OSM    H9T18206   1.157   5.001   3.350 -0.3348  3.2574 -1.1018
  162OSM   C10S18207   1.282   5.095   3.491 -0.7174  0.2781 -0.8931
  162OSM   H10S18208   1.206   5.176   3.484 -1.0951 -0.0172 -0.2911
  162OSM   H10T18209   1.384   5.136   3.505  0.6097 -3.3394  1.8793
  162OSM   C11S18210   1.274   5.021   3.631  0.9300  0.0863 -0.0489
  162OSM   H11S18211   1.358   4.949   3.645  1.6915  1.1851  1.2270
  162OSM   H11T18212   1.184   4.958   3.648  0.1485  1.0170 -0.6446
  162OSM   C12S18213   1.274   5.112   3.758  0.5615  0.3247  1.0356
  162OSM   H12S18214   1.187   5.182   3.748  0.8851  0.5338 -0.5467
  162OSM   H12T18215   1.371   5.162   3.736  0.4423 -0.5595 -1.9640
  162OSM   C13S18216   1.259   5.037   3.890 -0.7398  0.1625  0.8468
  162OSM   H13S18217   1.341   4.967   3.912  1.1342  1.1315 -2.3969
  162OSM   H13T18218   1.167   4.976   3.874 -1.4943  1.1805  1.1586
  162OSM   C14S18219   1.251   5.131   4.007  0.2886 -0.0170  0.1830
  162OSM   H14S18220   1.168   5.205   4.005  0.1977 -0.0135  2.2368
  162OSM   H14T18221   1.342   5.194   4.006  0.5655 -0.4193 -0.2599
  162OSM   C15S18222   1.243   5.054   4.140  0.5164  0.1450  0.5896
  162OSM   H15S18223   1.346   5.013   4.151  0.9908  0.4763 -1.9714
  162OSM   H15T18224   1.183   4.963   4.119  0.0834  0.9356 -2.0243
  162OSM   C16S18225   1.211   5.129   4.273  0.0296  0.0921  1.1587
  162OSM   H16S18226   1.106   5.158   4.252  0.1549 -0.8825 -1.1832
  162OSM   H16T18227   1.279   5.217   4.277 -0.6235  0.6542  0.4258
  162OSM   C17S18228   1.226   5.046   4.399  1.0237 -0.0616  0.6524
  162OSM   H17S18229   1.331   5.014   4.416  0.5435 -0.6218  2.7200
  162OSM   H17T18230   1.162   4.957   4.383  0.6617  0.1624  0.8232
  162OSM   C18S18231   1.182   5.118   4.531 -0.1068  0.0157 -0.2746
  162OSM   H18S18232   1.187   5.037   4.607 -1.0180  0.7262  0.5809
  162OSM   H18T18233   1.078   5.156   4.522  0.4427  2.1597  1.6632
  162OSM   H18U18234   1.252   5.202   4.547 -1.5339  0.7753  2.5987
  162OSM    C1F18235   1.527   4.431   2.949  0.3502  0.3541  0.3320
  162OSM     OF18236   1.645   4.448   2.934 -0.1415  0.0841  0.1972
  162OSM    C2F18237   1.457   4.316   3.015 -0.2167 -0.4493 -0.6599
  162OSM    H2F18238   1.399   4.260   2.939 -1.7894  2.6497 -1.9190
  162OSM    H2G18239   1.388   4.362   3.088  0.8280  0.7616 -0.3970
  162OSM    C3F18240   1.569   4.231   3.087 -0.3601 -0.3080  0.3190
  162OSM    H3F18241   1.615   4.289   3.170 -0.7998  2.7772 -1.4382
  162OSM    H3G18242   1.653   4.204   3.020 -0.3796 -0.6368  0.4208
  162OSM    C4F18243   1.529   4.096   3.150 -0.1668 -0.4033 -0.5703
  162OSM    H4F18244   1.617   4.048   3.198 -0.4220 -0.5391 -0.2278
  162OSM    H4G18245   1.492   4.013   3.086  0.8997 -2.2630  1.1121
  162OSM    C5F18246   1.424   4.107   3.263  0.2378 -0.0370 -0.0123
  162OSM    H5F18247   1.383   4.012   3.303 -1.3575  1.0577  1.0812
  162OSM    H5G18248   1.332   4.157   3.226 -1.1619 -2.8338 -0.5740
  162OSM    C6F18249   1.475   4.180   3.388 -0.0280 -0.2526  0.0377
  162OSM    H6F18250   1.525   4.279   3.381 -0.7565  0.1220  0.1073
  162OSM    H6G18251   1.554   4.107   3.418 -0.7282 -1.1911 -0.3580
  162OSM    C7F18252   1.369   4.193   3.491 -0.1414 -0.0502 -1.0111
  162OSM    H7F18253   1.329   4.093   3.521  1.2498 -0.7273 -1.3384
  162OSM    H7G18254   1.279   4.251   3.460 -0.8044  0.2743  1.3506
  162OSM    C8F18255   1.416   4.266   3.622 -0.3854  1.1882 -0.0799
  162OSM    H8F18256   1.333   4.279   3.695 -1.0875 -1.1985 -0.3432
  162OSM    H8G18257   1.453   4.369   3.605 -0.6038  1.4567  1.0051
  162OSM    C9F18258   1.533   4.202   3.686  0.0571 -0.0985 -0.0467
  162OSM    H9F18259   1.572   4.112   3.638 -1.3080 -1.7732  1.8344
  162OSM   C10F18260   1.576   4.222   3.810  0.7514 -0.3959 -0.1188
  162OSM   H10F18261   1.658   4.158   3.846  1.5167 -0.2975 -1.5702
  162OSM   C11F18262   1.509   4.320   3.901 -0.1760 -0.1179  0.0865
  162OSM   H11F18263   1.409   4.282   3.932 -0.4867 -1.6103 -2.5287
  162OSM   H11G18264   1.478   4.410   3.844  2.0925  0.2804 -0.5965
  162OSM   C12F18265   1.590   4.350   4.036 -0.0480 -0.4736  0.3964
  162OSM   H12F18266   1.544   4.431   4.096  0.0002 -1.0638  1.2465
  162OSM   H12G18267   1.686   4.391   3.997 -0.9724  0.7143 -0.7272
  162OSM   C13F18268   1.609   4.227   4.135 -0.2175 -0.5216  0.9136
  162OSM   H13F18269   1.664   4.142   4.090 -3.8315 -2.3555 -0.5021
  162OSM   H13G18270   1.511   4.181   4.159 -0.5973 -0.2060  0.0198
  162OSM   C14F18271   1.674   4.264   4.262  1.0170  0.1089 -0.9165
  162OSM   H14F18272   1.648   4.366   4.298 -1.4209 -0.8635  0.2546
  162OSM   H14G18273   1.785   4.268   4.249  0.9493  0.8651 -1.3666
  162OSM   C15F18274   1.649   4.157   4.370 -0.3742 -0.4432 -0.0956
  162OSM   H15F18275   1.716   4.179   4.456 -1.1131  0.7044  0.2216
  162OSM   H15G18276   1.676   4.056   4.332  0.1929 -0.6654  0.8774
  162OSM   C16F18277   1.504   4.155   4.425 -0.3545 -0.2992 -0.0618
  162OSM   H16F18278   1.493   4.079   4.505  2.5406 -2.2207 -1.2988
  162OSM   H16G18279   1.437   4.131   4.339 -0.6309  1.3903 -0.3453
  162OSM   C17F18280   1.471   4.291   4.502  0.3111 -1.0629 -0.3844
  162OSM   H17F18281   1.360   4.290   4.514  0.4539 -0.1909  1.2893
  162OSM   H17G18282   1.495   4.377   4.436  3.7246 -0.8093  0.9894
  162OSM   C18F18283   1.536   4.316   4.635 -0.0879  1.0990 -0.0415
  162OSM   H18F18284   1.646   4.323   4.620 -0.0347 -0.9775 -1.0630
  162OSM   H18G18285   1.520   4.232   4.706 -0.0793  0.7628 -0.4301
  162OSM   H18H18286   1.489   4.402   4.687 -1.1570 -0.7619  2.2975
  163OSM      N18287   6.762   3.622   2.793 -0.6605 -0.5552 -0.5807
  163OSM    C1518288   6.795   3.493   2.877  0.2968  0.0515  0.2535
  163OSM   H15A18289   6.781   3.514   2.981 -1.3306 -0.9261  0.2734
  163OSM   H15B18290   6.896   3.456   2.866 -0.3540 -2.5135  1.8688
  163OSM   H15C18291   6.719   3.419   2.853 -1.1613  1.7370 -0.5828
  163OSM    C1418292   6.775   3.585   2.657 -0.0449 -0.5654 -0.4433
  163OSM   H14A18293   6.881   3.567   2.645  0.2836  2.3190 -3.0486
  163OSM   H14B18294   6.752   3.669   2.592  2.0014  0.9014  0.6169
  163OSM   H14C18295   6.720   3.494   2.638  0.2701 -0.4297 -2.1907
  163OSM    C1318296   6.622   3.654   2.817  0.0916 -0.4467 -0.2577
  163OSM   H13A18297   6.561   3.576   2.776 -0.7039 -0.6160  1.2118
  163OSM   H13B18298   6.592   3.744   2.765  2.7042 -0.2513 -1.6533
  163OSM   H13C18299   6.598   3.665   2.921  2.1875 -0.6158  0.3022
  163OSM    C1218300   6.852   3.741   2.828  0.5334  0.4389  0.1443
  163OSM   H12A18301   6.951   3.701   2.819  0.5485  0.5134 -0.0367
  163OSM   H12B18302   6.842   3.774   2.930  2.9554 -0.9049  0.8865
  163OSM    C1118303   6.843   3.865   2.735  0.4875 -0.4123 -0.3913
  163OSM   H11A18304   6.870   3.827   2.634  1.4026 -0.4449 -0.1467
  163OSM   H11B18305   6.929   3.931   2.760 -0.0662  0.7844 -1.5343
  163OSM      P18306   6.678   4.018   2.858 -0.4772  0.1061 -0.5091
  163OSM    O1318307   6.594   4.132   2.814 -0.2174  0.7030 -0.5225
  163OSM    O1418308   6.624   3.925   2.961 -0.0505  0.1620  0.2672
  163OSM    O1118309   6.817   4.068   2.906 -0.8677  0.5273  0.3917
  163OSM    O1218310   6.717   3.930   2.727 -0.2779 -0.1735 -0.1440
  163OSM    C1S18311   6.841   4.138   3.027 -0.8770  0.4254 -0.3212
  163OSM    H1S18312   6.786   4.101   3.116  1.1087  0.3679  0.9565
  163OSM    H1T18313   6.806   4.244   3.025  0.1131  0.7578 -0.6234
  163OSM     NF18314   7.003   4.217   3.195  0.4996  0.1119 -0.2734
  163OSM    HNF18315   7.023   4.312   3.173 -0.7197  1.0459  2.2265
  163OSM    C2S18316   6.991   4.137   3.073 -0.3474  0.7737 -0.1869
  163OSM    H2S18317   7.023   4.033   3.096  1.7674  1.1557 -1.1609
  163OSM    C3S18318   7.081   4.187   2.962 -0.5591 -0.3813  0.5338
  163OSM    H3S18319   7.038   4.285   2.930  0.3007 -0.0397  0.4032
  163OSM     O318320   7.081   4.108   2.845  0.3445 -0.1331 -0.0895
  163OSM    HO318321   7.009   4.049   2.872 -2.0397  2.0356 -1.2752
  163OSM    C4S18322   7.226   4.205   3.001  0.3750 -0.9516  0.0227
  163OSM    H4S18323   7.282   4.126   3.054  1.1112 -0.5378 -0.1243
  163OSM    C5S18324   7.296   4.311   2.962 -0.3015  0.1247  0.1630
  163OSM    H5S18325   7.241   4.393   2.914  0.5847  0.0096 -1.1201
  163OSM    C6S18326   7.445   4.328   2.989  0.5593  0.8301 -0.0192
  163OSM    H6S18327   7.500   4.357   2.897  1.1805 -0.4839 -0.0864
  163OSM    H6T18328   7.488   4.230   3.017 -1.5881 -0.7108 -1.7490
  163OSM    C7S18329   7.470   4.430   3.110 -0.2072  1.0709  0.5787
  163OSM    H7S18330   7.414   4.522   3.082 -2.3151  0.1162  1.4247
  163OSM    H7T18331   7.578   4.454   3.101  0.2156 -0.6803  0.5870
  163OSM    C8S18332   7.427   4.385   3.251  0.0324 -0.5366  0.2613
  163OSM    H8S18333   7.460   4.281   3.272 -0.2180 -0.5078  0.7993
  163OSM    H8T18334   7.317   4.371   3.252 -0.1131  0.4368  1.9993
  163OSM    C9S18335   7.465   4.481   3.356 -0.1484 -0.0678  0.4365
  163OSM    H9S18336   7.451   4.583   3.313 -2.2213 -0.6884 -0.4830
  163OSM    H9T18337   7.572   4.470   3.384  0.2589 -1.0918 -1.3451
  163OSM   C10S18338   7.383   4.473   3.487  0.5044 -0.4696 -0.1439
  163OSM   H10S18339   7.392   4.373   3.533  1.0146 -1.3148 -1.9930
  163OSM   H10T18340   7.278   4.497   3.461  1.0289 -1.3310 -3.4984
  163OSM   C11S18341   7.437   4.588   3.578 -0.4272  0.4872  0.6345
  163OSM   H11S18342   7.424   4.690   3.536 -3.2314  1.0986  2.7303
  163OSM   H11T18343   7.546   4.571   3.586 -0.7201 -0.6879  2.7173
  163OSM   C12S18344   7.389   4.583   3.727  0.1094 -0.3521 -0.3861
  163OSM   H12S18345   7.425   4.491   3.778  0.1358 -0.9826 -1.4863
  163OSM   H12T18346   7.280   4.587   3.746  0.6707  2.1431  3.1377
  163OSM   C13S18347   7.442   4.706   3.797 -0.7586  0.2818 -0.4869
  163OSM   H13S18348   7.397   4.796   3.751 -2.0808  0.6056  1.3660
  163OSM   H13T18349   7.549   4.722   3.769 -0.3818 -1.0825  0.0824
  163OSM   C14S18350   7.418   4.712   3.948 -0.3221 -0.0091 -0.1451
  163OSM   H14S18351   7.449   4.627   4.011  1.6348  0.3993 -0.4884
  163OSM   H14T18352   7.311   4.740   3.954 -0.6176 -0.7832 -1.4540
  163OSM   C15S18353   7.496   4.835   3.995 -0.3630  0.6222  0.1533
  163OSM   H15S18354   7.460   4.931   3.954 -2.1532 -0.6189 -1.3373
  163OSM   H15T18355   7.602   4.836   3.960 -0.0714 -1.8503  0.7314
  163OSM   C16S18356   7.482   4.856   4.146  0.1310 -0.0945  0.0788
  163OSM   H16S18357   7.376   4.853   4.179  0.2499  0.1775  0.4962
  163OSM   H16T18358   7.525   4.956   4.167  0.2160  0.2084 -1.4181
  163OSM   C17S18359   7.560   4.761   4.236  0.0309 -0.0860  0.6025
  163OSM   H17S18360   7.660   4.762   4.188  0.1975  0.5574  0.9558
  163OSM   H17T18361   7.511   4.661   4.227  1.1172 -0.6797  1.1606
  163OSM   C18S18362   7.561   4.815   4.380 -0.0861 -1.4465 -0.3217
  163OSM   H18S18363   7.598   4.737   4.451 -1.2801  0.0479  2.0831
  163OSM   H18T18364   7.457   4.838   4.412 -0.2694 -0.9215 -1.2651
  163OSM   H18U18365   7.614   4.912   4.387 -1.9826 -0.3287 -0.9005
  163OSM    C1F18366   6.975   4.169   3.311  0.1279  0.9190  0.4056
  163OSM     OF18367   6.919   4.062   3.323 -0.0712  0.4107 -0.6271
  163OSM    C2F18368   7.018   4.261   3.423 -0.6732  0.5656  0.7034
  163OSM    H2F18369   6.971   4.362   3.414 -1.6591  0.1744  1.3100
  163OSM    H2G18370   7.128   4.273   3.415 -0.9336  1.9845 -1.8021
  163OSM    C3F18371   6.986   4.234   3.576  0.3402 -0.3063  0.1973
  163OSM    H3F18372   7.022   4.130   3.598 -0.3461 -0.5928 -0.0152
  163OSM    H3G18373   6.877   4.230   3.592  0.6087 -1.3105  2.1529
  163OSM    C4F18374   7.050   4.330   3.675  0.2780  0.0308  0.2792
  163OSM    H4F18375   7.003   4.430   3.669 -1.5700 -0.7584  0.8442
  163OSM    H4G18376   7.160   4.343   3.662  0.0700  1.9657  0.2395
  163OSM    C5F18377   7.028   4.283   3.816  0.0990  0.1083 -0.8517
  163OSM    H5F18378   7.108   4.212   3.847 -0.4681 -0.5653 -0.8943
  163OSM    H5G18379   6.928   4.234   3.820  0.6697 -1.0738 -0.2813
  163OSM    C6F18380   7.035   4.402   3.917 -0.3427  0.2456  0.5272
  163OSM    H6F18381   6.943   4.464   3.909  0.1060  0.6805 -2.0899
  163OSM    H6G18382   7.129   4.449   3.879  0.3661 -1.2124  0.4126
  163OSM    C7F18383   7.061   4.352   4.064  0.4961 -0.1962 -0.1506
  163OSM    H7F18384   7.153   4.290   4.073  0.0962 -0.6530  0.8991
  163OSM    H7G18385   6.976   4.284   4.085 -0.9525  1.8361  0.9440
  163OSM    C8F18386   7.059   4.469   4.163 -0.4139  0.0539  0.2774
  163OSM    H8F18387   6.965   4.529   4.159 -0.7242 -0.4152  0.4460
  163OSM    H8G18388   7.130   4.547   4.127 -1.3985  0.9563  0.2178
  163OSM    C9F18389   7.067   4.420   4.305 -0.2879  0.0641 -0.6457
  163OSM    H9F18390   6.996   4.337   4.318  0.9604 -0.8823  0.3294
  163OSM   C10F18391   7.129   4.475   4.416  0.5276  0.2726 -0.5562
  163OSM   H10F18392   7.122   4.423   4.512  0.6202  0.0594 -0.6632
  163OSM   C11F18393   7.213   4.599   4.424  0.2073 -0.4398  0.1253
  163OSM   H11F18394   7.178   4.670   4.345 -1.3561 -0.2349  0.9632
  163OSM   H11G18395   7.319   4.570   4.405  0.3540  0.2444 -0.1460
  163OSM   C12F18396   7.220   4.677   4.557  0.8322  0.2687  0.4270
  163OSM   H12F18397   7.282   4.767   4.537  0.2161  0.4421 -0.7316
  163OSM   H12G18398   7.279   4.610   4.625  0.2657 -0.6576  0.0278
  163OSM   C13F18399   7.088   4.717   4.617  0.4183  0.2811 -0.0332
  163OSM   H13F18400   7.020   4.630   4.605 -0.6158  1.0921 -0.2180
  163OSM   H13G18401   7.047   4.795   4.549  1.9434 -0.2851 -1.6741
  163OSM   C14F18402   7.106   4.773   4.757 -0.3830 -1.1033 -0.5139
  163OSM   H14F18403   7.203   4.828   4.756 -1.4477  0.8725 -0.1092
  163OSM   H14G18404   7.116   4.696   4.837 -0.7734 -0.3125  0.3164
  163OSM   C15F18405   6.988   4.863   4.799 -0.1657 -0.6772  0.4686
  163OSM   H15F18406   6.903   4.801   4.834 -1.0025  0.7139  1.0197
  163OSM   H15G18407   6.957   4.934   4.719  0.3016 -1.2170 -0.2001
  163OSM   C16F18408   7.036   4.954   4.908 -0.2385 -0.2763 -0.0140
  163OSM   H16F18409   6.953   5.015   4.948 -0.0230 -1.0087  1.6066
  163OSM   H16G18410   7.121   5.013   4.866 -2.0447  1.8348 -0.9008
  163OSM   C17F18411   7.090   4.871   5.026 -0.1322  0.1872 -0.4867
  163OSM   H17F18412   7.186   4.816   5.008  0.1388  0.8041 -0.9812
  163OSM   H17G18413   7.005   4.801   5.037 -0.2416  0.4044  0.0515
  163OSM   C18F18414   7.107   4.944   5.160 -0.5533  0.4223 -0.0014
  163OSM   H18F18415   7.180   5.026   5.146  0.4294 -0.4180  0.1013
  163OSM   H18G18416   7.144   4.882   5.245 -0.2098  0.1537 -0.3446
  163OSM   H18H18417   7.011   4.984   5.197 -1.1278 -1.4308  0.6329
  164OSM      N18418   1.691   4.943   2.457 -0.6046 -0.3562  0.7570
  164OSM    C1518419   1.562   4.975   2.513 -0.0065  0.2002  0.7536
  164OSM   H15A18420   1.509   5.052   2.460 -1.3643 -0.3717  1.2564
  164OSM   H15B18421   1.585   5.013   2.611  1.0589  0.7235  0.3234
  164OSM   H15C18422   1.501   4.886   2.521 -1.4371  0.4112 -4.2094
  164OSM    C1418423   1.751   4.845   2.553 -0.0748 -0.0726  0.0396
  164OSM   H14A18424   1.687   4.757   2.553 -0.7621  0.4142  1.0545
  164OSM   H14B18425   1.759   4.883   2.654 -0.0722 -1.4952  0.6047
  164OSM   H14C18426   1.850   4.808   2.529 -0.9774 -2.5653 -0.1919
  164OSM    C1318427   1.669   4.871   2.330 -0.6234 -0.2112 -0.3298
  164OSM   H13A18428   1.762   4.827   2.299  0.4165  2.0491 -0.6503
  164OSM   H13B18429   1.622   4.937   2.258 -1.3164  0.0808  0.3699
  164OSM   H13C18430   1.600   4.789   2.344  0.8320 -1.3533  0.3226
  164OSM    C1218431   1.783   5.062   2.441 -0.8256 -0.0322  0.6572
  164OSM   H12A18432   1.785   5.117   2.534 -1.0356  3.1695 -1.1068
  164OSM   H12B18433   1.737   5.128   2.369 -1.3152  1.6172  2.4049
  164OSM    C1118434   1.927   5.032   2.400  0.2286 -0.0784  0.0778
  164OSM   H11A18435   1.908   4.961   2.317 -3.2956  1.9095 -0.9856
  164OSM   H11B18436   1.986   4.988   2.484  0.0841  0.0181  0.2321
  164OSM      P18437   1.983   5.280   2.424  0.0758 -0.2990  0.4274
  164OSM    O1318438   2.098   5.360   2.378 -0.0561 -0.3849  0.0506
  164OSM    O1418439   1.849   5.348   2.411  0.0847 -0.4480  0.1468
  164OSM    O1118440   2.006   5.221   2.574 -0.8253 -0.3758 -0.0122
  164OSM    O1218441   1.984   5.150   2.342 -0.1008  0.1988 -0.8046
  164OSM    C1S18442   2.068   5.315   2.674  0.3838  0.7457  0.6516
  164OSM    H1S18443   1.991   5.389   2.704  0.3449  0.9270  0.1207
  164OSM    H1T18444   2.162   5.361   2.635  0.5597  2.1488  2.5645
  164OSM     NF18445   2.154   5.334   2.911 -0.4019 -0.4553 -0.1969
  164OSM    HNF18446   2.252   5.354   2.902 -1.0450  2.6986 -1.5468
  164OSM    C2S18447   2.109   5.235   2.805  0.3728 -0.5913  0.8871
  164OSM    H2S18448   2.018   5.182   2.839  1.0296 -1.2014  1.7386
  164OSM    C3S18449   2.210   5.125   2.772  0.1228  0.4728 -0.5363
  164OSM    H3S18450   2.295   5.181   2.728  0.5906  0.9812  0.9571
  164OSM     O318451   2.178   5.041   2.666  0.1112  0.0857 -0.2409
  164OSM    HO318452   2.108   5.096   2.632 -1.7334 -1.2062  1.2559
  164OSM    C4S18453   2.255   5.053   2.899 -0.0546  0.3219  0.0572
  164OSM    H4S18454   2.305   5.125   2.966 -0.1266  2.3364 -1.9087
  164OSM    C5S18455   2.212   4.936   2.949 -0.1249 -0.6504  0.3910
  164OSM    H5S18456   2.141   4.880   2.886  0.1678 -0.3676 -0.1986
  164OSM    C6S18457   2.228   4.905   3.095 -0.2741 -0.1293  0.3046
  164OSM    H6S18458   2.295   4.817   3.106 -2.0225 -1.2615  2.4691
  164OSM    H6T18459   2.127   4.883   3.134 -1.3670 -0.2356 -2.3390
  164OSM    C7S18460   2.295   5.003   3.196  0.4011 -0.4885  0.0556
  164OSM    H7S18461   2.244   5.101   3.192 -1.0808 -1.2473 -0.5998
  164OSM    H7T18462   2.397   5.013   3.153 -0.3496 -1.4424 -2.1263
  164OSM    C8S18463   2.302   4.946   3.332 -0.2249  0.0063  0.0095
  164OSM    H8S18464   2.381   4.868   3.330 -0.1017  0.1423 -0.9960
  164OSM    H8T18465   2.206   4.899   3.363  0.2553 -0.5302  0.7178
  164OSM    C9S18466   2.360   5.041   3.434 -0.6226 -0.1281 -0.0035
  164OSM    H9S18467   2.286   5.122   3.453 -0.9241 -0.3869 -0.0638
  164OSM    H9T18468   2.450   5.080   3.380 -0.8534 -0.3023 -0.5188
  164OSM   C10S18469   2.425   4.987   3.566  0.4595 -0.3110 -0.2958
  164OSM   H10S18470   2.501   5.063   3.596 -0.7931  0.5674  0.7907
  164OSM   H10T18471   2.462   4.884   3.546 -0.4457 -0.9200  1.0104
  164OSM   C11S18472   2.332   4.989   3.688 -1.3423 -0.4248  0.3188
  164OSM   H11S18473   2.254   4.911   3.675 -0.7826 -0.7967 -0.8675
  164OSM   H11T18474   2.282   5.087   3.703 -0.8452 -0.4847  2.7749
  164OSM   C12S18475   2.396   4.973   3.820 -0.0641  0.1092 -0.2400
  164OSM   H12S18476   2.484   5.035   3.848  0.6488 -0.3899 -1.2992
  164OSM   H12T18477   2.448   4.875   3.818  2.4173  1.3076  0.7532
  164OSM   C13S18478   2.302   4.970   3.946 -0.0123 -0.0927  0.5423
  164OSM   H13S18479   2.216   4.900   3.936 -0.3521  0.2794  0.7793
  164OSM   H13T18480   2.268   5.076   3.951 -1.6859 -0.5518 -0.2143
  164OSM   C14S18481   2.374   4.939   4.073 -0.1073 -0.1082 -0.1161
  164OSM   H14S18482   2.458   5.011   4.074  1.8418 -2.2467 -1.1328
  164OSM   H14T18483   2.424   4.840   4.077  0.3970  0.1409 -0.2335
  164OSM   C15S18484   2.278   4.944   4.188  0.3910  0.8695  0.1330
  164OSM   H15S18485   2.196   4.871   4.168  0.4525  0.2037  2.0902
  164OSM   H15T18486   2.230   5.043   4.202 -1.8240  0.0722 -1.2050
  164OSM   C16S18487   2.347   4.908   4.320  0.1867  0.2136  0.0047
  164OSM   H16S18488   2.446   4.958   4.318 -0.4541  1.6135  1.5929
  164OSM   H16T18489   2.373   4.801   4.303  1.2698  0.1456  1.8392
  164OSM   C17S18490   2.263   4.933   4.445  0.6494  0.0880 -0.1669
  164OSM   H17S18491   2.239   5.041   4.448 -0.7465 -0.1760 -0.6523
  164OSM   H17T18492   2.321   4.915   4.538 -2.1127 -1.4501  1.3929
  164OSM   C18S18493   2.138   4.846   4.449  0.2568 -0.2367 -0.6005
  164OSM   H18S18494   2.090   4.879   4.543  2.7872  0.1598  0.6319
  164OSM   H18T18495   2.162   4.737   4.456 -0.7549 -0.4466 -0.1814
  164OSM   H18U18496   2.059   4.860   4.372  0.0804  0.4824 -0.2942
  164OSM    C1F18497   2.074   5.405   2.985  0.6138 -0.7319  0.2718
  164OSM     OF18498   1.955   5.369   2.994 -0.1656 -0.0663  0.4245
  164OSM    C2F18499   2.128   5.516   3.072 -0.2946  0.3379  0.0753
  164OSM    H2F18500   2.225   5.542   3.025 -0.4966 -0.1536 -0.6240
  164OSM    H2G18501   2.136   5.490   3.180 -1.5673  0.1096  0.1322
  164OSM    C3F18502   2.037   5.643   3.076  0.6983  0.0048  0.4219
  164OSM    H3F18503   1.936   5.614   3.114  0.1575 -0.4351 -1.2864
  164OSM    H3G18504   2.018   5.678   2.973  2.8895 -1.2563 -0.4774
  164OSM    C4F18505   2.087   5.742   3.182  0.0348 -0.0183 -0.6844
  164OSM    H4F18506   2.074   5.842   3.134  1.6269  0.0247 -1.0711
  164OSM    H4G18507   2.195   5.741   3.206 -0.4626 -1.1346  1.7458
  164OSM    C5F18508   2.012   5.720   3.310 -0.0003 -0.6017  0.2911
  164OSM    H5F18509   2.044   5.618   3.343  0.2980 -0.7093 -0.3077
  164OSM    H5G18510   1.904   5.716   3.283  0.4041 -1.8759 -1.3551
  164OSM    C6F18511   2.037   5.810   3.429  0.2993  0.5760 -0.4881
  164OSM    H6F18512   2.127   5.784   3.490  0.9528  0.4805 -1.4708
  164OSM    H6G18513   1.952   5.810   3.501  1.0986  0.0837  0.4966
  164OSM    C7F18514   2.057   5.953   3.383  0.0286  0.0946  0.4631
  164OSM    H7F18515   1.964   5.972   3.326 -1.3309 -1.9750  1.8643
  164OSM    H7G18516   2.146   5.969   3.318 -0.8336  0.7936 -0.5705
  164OSM    C8F18517   2.054   6.059   3.498  0.1452 -0.0962 -0.1328
  164OSM    H8F18518   1.953   6.048   3.544  0.1086 -1.8160 -0.5635
  164OSM    H8G18519   2.063   6.155   3.444 -0.5598 -0.3987 -0.8237
  164OSM    C9F18520   2.156   6.053   3.606  0.1625  0.2057  0.5315
  164OSM    H9F18521   2.254   6.080   3.564 -0.8042  0.4407 -1.7372
  164OSM   C10F18522   2.134   6.031   3.736 -0.7794 -0.3963  0.3114
  164OSM   H10F18523   2.210   6.049   3.814 -1.3912  0.4762  0.7170
  164OSM   C11F18524   2.000   6.000   3.801  0.7175  0.6658  0.6930
  164OSM   H11F18525   1.990   5.890   3.786  1.5718  0.5756  0.7469
  164OSM   H11G18526   1.913   6.048   3.751 -1.5231 -2.2741  1.4770
  164OSM   C12F18527   1.989   6.030   3.950  0.1969  0.1393  0.0942
  164OSM   H12F18528   1.882   6.026   3.980 -0.0739 -1.3810 -1.0059
  164OSM   H12G18529   2.027   6.132   3.975 -1.7070  0.7866  0.5095
  164OSM   C13F18530   2.052   5.923   4.032 -0.5530 -0.4786  0.3237
  164OSM   H13F18531   2.155   5.918   3.991 -0.1190  0.9056  1.1560
  164OSM   H13G18532   2.009   5.822   4.020  1.4350 -1.2080 -1.3708
  164OSM   C14F18533   2.074   5.958   4.180 -0.5524 -0.4763 -0.4031
  164OSM   H14F18534   1.987   6.021   4.209 -0.0922  0.3836 -0.8508
  164OSM   H14G18535   2.156   6.033   4.186 -1.4231  0.4647  0.1030
  164OSM   C15F18536   2.080   5.840   4.270  0.0589 -0.6224  0.0827
  164OSM   H15F18537   2.153   5.771   4.224  0.9280  1.4422 -1.8280
  164OSM   H15G18538   1.984   5.789   4.290 -0.0277 -0.2588  0.6269
  164OSM   C16F18539   2.136   5.881   4.407 -0.7298 -0.0467 -0.1429
  164OSM   H16F18540   2.058   5.931   4.468  1.6813  0.5050  2.7399
  164OSM   H16G18541   2.226   5.945   4.396  0.7389 -1.8905  0.5957
  164OSM   C17F18542   2.179   5.763   4.491 -0.7101  0.2332 -0.7296
  164OSM   H17F18543   2.286   5.746   4.466  0.3600  1.6896  2.4133
  164OSM   H17G18544   2.117   5.675   4.461  0.1188  0.2157 -2.5366
  164OSM   C18F18545   2.173   5.784   4.644  0.8278 -0.8282  0.2575
  164OSM   H18F18546   2.200   5.696   4.706 -1.0181 -1.4129  0.2877
  164OSM   H18G18547   2.065   5.802   4.664  0.0505 -2.9175 -1.7232
  164OSM   H18H18548   2.230   5.869   4.687 -0.7370 -0.0381  0.8366
  165SAPS     N18549   6.787   3.275   7.629 -0.1830 -0.2698  0.8171
  165SAPS   HN118550   6.799   3.171   7.624  2.2438  0.0088 -0.7319
  165SAPS   HN218551   6.806   3.306   7.532  1.0693 -0.7472  0.8852
  165SAPS   HN318552   6.856   3.311   7.697 -0.4254  0.8772  0.4712
  165SAPS   C1218553   6.650   3.317   7.667  0.7261  0.0543 -0.0274
  165SAPS  H12A18554   6.577   3.259   7.611  1.1039  1.3476 -1.9408
  165SAPS   C1318555   6.606   3.290   7.810 -0.5237  0.1144 -0.4460
  165SAPS  O13A18556   6.689   3.250   7.892  0.4347  0.1016  0.6120
  165SAPS  O13B18557   6.491   3.321   7.840  0.1773 -0.0382  0.1830
  165SAPS   C1118558   6.619   3.466   7.639 -0.1954 -0.1082  0.1097
  165SAPS  H11A18559   6.698   3.525   7.690  0.7406  1.1649 -2.6309
  165SAPS  H11B18560   6.519   3.497   7.676 -0.8487 -1.0074 -0.8350
  165SAPS     P18561   6.627   3.643   7.452  0.1097 -0.0399 -0.0490
  165SAPS   O1318562   6.488   3.705   7.440 -0.4944 -0.2201  0.5179
  165SAPS   O1418563   6.723   3.703   7.545  0.5417  0.0763 -0.1019
  165SAPS   O1218564   6.611   3.486   7.494 -0.5730 -0.2027 -0.1310
  165SAPS   O1118565   6.695   3.637   7.311 -0.6163  0.2028  0.2402
  165SAPS    C118566   6.668   3.531   7.222 -0.1204 -0.1270 -0.3812
  165SAPS    HA18567   6.761   3.470   7.230  0.9273  1.3890 -0.3681
  165SAPS    HB18568   6.584   3.464   7.249  0.4778 -0.7944 -0.1199
  165SAPS    C218569   6.639   3.581   7.080  0.1318  0.2742  0.0439
  165SAPS    HS18570   6.529   3.583   7.064  0.1536 -0.8371 -0.3031
  165SAPS   O2118571   6.698   3.486   6.988  0.0239  0.1322 -0.1834
  165SAPS   C2118572   6.637   3.369   6.984 -0.1691  0.1935 -0.0691
  165SAPS   O2218573   6.547   3.324   7.048 -0.1305  0.3064 -0.2431
  165SAPS   C2218574   6.713   3.291   6.876 -0.5541  0.0906 -0.1335
  165SAPS   H2R18575   6.778   3.362   6.820  0.0971 -1.1186 -0.9643
  165SAPS   H2S18576   6.786   3.218   6.918 -1.0954 -0.3457  0.0657
  165SAPS    C318577   6.690   3.723   7.051  0.0267 -0.1888  0.2163
  165SAPS    HX18578   6.797   3.741   7.076  0.1887 -0.5340 -0.2033
  165SAPS    HY18579   6.638   3.796   7.116  0.9982 -1.0755  2.0894
  165SAPS   O3118580   6.663   3.763   6.914  0.5046  0.3127 -0.0652
  165SAPS   C3118581   6.766   3.748   6.830 -0.0614  0.1628 -0.8461
  165SAPS   O3218582   6.870   3.692   6.858  0.3652  0.1530  0.4030
  165SAPS   C3218583   6.736   3.816   6.694 -0.2058  0.1113 -0.6408
  165SAPS   H2X18584   6.753   3.925   6.698  0.7283 -0.0243 -0.4962
  165SAPS   H2Y18585   6.626   3.803   6.686 -0.0516 -1.0358 -1.1272
  165SAPS   C2318586   6.609   3.219   6.795  0.3149 -0.0053 -0.4766
  165SAPS   H3R18587   6.546   3.300   6.754  1.7250  2.0160  1.1210
  165SAPS   H3S18588   6.555   3.153   6.866 -2.4748  3.3389  0.7903
  165SAPS   C2418589   6.661   3.125   6.679  0.1326 -0.1431 -0.0539
  165SAPS   H4R18590   6.565   3.088   6.639 -0.3964  1.7326 -0.5967
  165SAPS   H4S18591   6.703   3.042   6.741 -0.7725 -0.1054  0.6274
  165SAPS   C2518592   6.733   3.206   6.580 -0.0463 -0.6011 -0.1035
  165SAPS   H5R18593   6.777   3.298   6.620  0.3652 -0.1872 -1.4290
  165SAPS   C2618594   6.730   3.203   6.447 -0.7192  0.1180  0.2312
  165SAPS   H6R18595   6.790   3.272   6.386  2.2374 -0.8385  1.8681
  165SAPS   C2718596   6.678   3.085   6.370  0.3806  0.0825  0.1909
  165SAPS   H7R18597   6.651   2.994   6.429 -3.6821 -0.3036 -1.9333
  165SAPS   H7S18598   6.754   3.058   6.294  0.5248  0.7885  0.0823
  165SAPS   C2818599   6.546   3.133   6.308  0.4840  0.5277 -0.4191
  165SAPS   H8R18600   6.471   3.152   6.386 -0.0665 -0.1518 -0.7799
  165SAPS   C2918601   6.519   3.159   6.178 -0.2099 -0.3894 -0.3935
  165SAPS   H9R18602   6.422   3.196   6.143  0.2840  1.1573 -0.1996
  165SAPS  C21018603   6.626   3.151   6.071 -0.0212 -0.7844  0.2259
  165SAPS  H10R18604   6.725   3.198   6.095  1.1488 -2.3727 -1.2769
  165SAPS  H10S18605   6.598   3.216   5.986  0.8719  1.0473  1.2675
  165SAPS  C21118606   6.650   3.012   6.012  0.9582 -0.4477  0.1969
  165SAPS  H11R18607   6.674   2.933   6.085 -2.4198 -1.6712  0.1217
  165SAPS  C21218608   6.628   2.982   5.881 -1.3413 -0.5892 -0.0586
  165SAPS  H12R18609   6.652   2.880   5.848 -1.7935 -0.1203 -1.9669
  165SAPS  C21318610   6.594   3.079   5.771 -0.4378  0.7845 -0.9947
  165SAPS  H13R18611   6.523   3.156   5.810 -0.2012  0.3471  0.3555
  165SAPS  H13S18612   6.540   3.020   5.694 -0.8262 -1.6517  1.0260
  165SAPS  C21418613   6.724   3.135   5.713  1.1126  0.5967 -0.6674
  165SAPS  H14R18614   6.802   3.138   5.790 -0.1958 -1.8100  0.8528
  165SAPS  C21518615   6.747   3.167   5.583 -0.2886 -0.4887 -0.3381
  165SAPS  H15R18616   6.846   3.198   5.547 -0.1129 -2.7765 -2.0591
  165SAPS  C21618617   6.648   3.155   5.467  0.3840  0.5765 -0.4489
  165SAPS  H16R18618   6.622   3.260   5.444 -1.9709 -0.3097 -2.1905
  165SAPS  H16S18619   6.550   3.118   5.506 -1.4403  4.1637 -1.1727
  165SAPS  C21718620   6.696   3.073   5.349 -0.7363 -0.1373 -0.5789
  165SAPS  H17R18621   6.722   2.970   5.381  1.6787  0.4144 -0.6219
  165SAPS  H17S18622   6.792   3.107   5.304 -1.1847  0.1420 -1.3544
  165SAPS  C21818623   6.597   3.085   5.229  0.3158 -0.8457  0.1531
  165SAPS  H18R18624   6.583   3.194   5.210 -0.0241 -1.2884 -2.6525
  165SAPS  H18S18625   6.496   3.049   5.256 -1.0882  2.6312  0.0427
  165SAPS  C21918626   6.645   3.007   5.100  0.1150  0.6779 -0.5108
  165SAPS  H19R18627   6.614   2.902   5.111  0.5574  0.7723  2.1742
  165SAPS  H19S18628   6.757   3.006   5.097  0.1117 -0.0808 -0.3952
  165SAPS  C22018629   6.602   3.060   4.968  0.0243  0.4569  0.5956
  165SAPS  H20R18630   6.491   3.058   4.960 -0.0553  1.3796  1.2775
  165SAPS  H20S18631   6.641   3.011   4.877 -0.3593  1.7829 -0.3112
  165SAPS  H20T18632   6.627   3.168   4.960 -3.4578  1.4129  0.8291
  165SAPS   C3318633   6.809   3.751   6.573  0.5199 -0.2150  1.0308
  165SAPS   H3X18634   6.775   3.646   6.562 -1.0300  0.4873 -2.2214
  165SAPS   H3Y18635   6.920   3.750   6.588  0.5192  0.1568  1.0714
  165SAPS   C3418636   6.762   3.810   6.441 -0.6938  0.9036 -0.2480
  165SAPS   H4X18637   6.774   3.920   6.452  0.0704  1.0050 -1.7598
  165SAPS   H4Y18638   6.655   3.788   6.423  0.0016 -1.9049 -1.6403
  165SAPS   C3518639   6.839   3.768   6.317  0.2514  0.8559  0.7320
  165SAPS   H5X18640   6.797   3.670   6.286  0.6025  0.8417  0.2806
  165SAPS   H5Y18641   6.944   3.748   6.347  0.0556 -1.6149 -0.0017
  165SAPS   C3618642   6.849   3.882   6.209 -0.0142  0.7845  0.4141
  165SAPS   H6X18643   6.943   3.937   6.232  0.4924  0.2241 -0.2652
  165SAPS   H6Y18644   6.759   3.946   6.220 -2.4314 -2.2802 -0.3639
  165SAPS   C3718645   6.862   3.834   6.063  0.4283 -0.6473 -0.1118
  165SAPS   H7X18646   6.956   3.776   6.047  0.3210 -0.7734 -0.2882
  165SAPS   H7Y18647   6.855   3.925   6.001 -0.3159  0.4698  1.5420
  165SAPS   C3818648   6.740   3.752   6.011  0.0347  0.3982  0.5600
  165SAPS   H8X18649   6.655   3.800   6.064 -2.0320 -0.0258 -2.1270
  165SAPS   H8Y18650   6.754   3.647   6.045 -1.9806 -0.1016 -0.0302
  165SAPS   C3918651   6.722   3.745   5.858  0.5473  0.3561 -0.1001
  165SAPS   H9X18652   6.682   3.843   5.823 -0.5762 -0.0162  0.1044
  165SAPS   H9Y18653   6.641   3.670   5.844 -0.9682  1.9544 -0.2862
  165SAPS  C31018654   6.843   3.711   5.770 -0.0574  0.2741 -0.3122
  165SAPS  H10X18655   6.888   3.622   5.818 -0.5949 -0.1433 -0.5767
  165SAPS  H10Y18656   6.919   3.792   5.778  0.3691 -0.1630  0.1795
  165SAPS  C31118657   6.812   3.684   5.624  0.7615 -0.2863  0.0065
  165SAPS  H11X18658   6.761   3.586   5.619 -0.5930  0.4016  0.0962
  165SAPS  H11Y18659   6.909   3.670   5.571  0.4888 -1.2454 -0.2625
  165SAPS  C31218660   6.724   3.783   5.548 -0.0729 -0.6957 -0.2947
  165SAPS  H12X18661   6.772   3.883   5.543 -0.7380 -0.4274 -2.8790
  165SAPS  H12Y18662   6.624   3.801   5.593 -0.5733 -1.1033 -1.2153
  165SAPS  C31318663   6.698   3.744   5.406 -0.5685  0.1256 -0.0910
  165SAPS  H13X18664   6.793   3.730   5.352  0.7970  3.3056  1.2596
  165SAPS  H13Y18665   6.646   3.822   5.346  0.6266  0.0568 -1.2622
  165SAPS  C31418666   6.606   3.615   5.398 -0.4621  0.1251  0.0308
  165SAPS  H14X18667   6.541   3.594   5.486 -0.2423 -1.3888 -0.1370
  165SAPS  H14Y18668   6.670   3.524   5.400 -1.7981 -0.8289  0.7212
  165SAPS  C31518669   6.521   3.609   5.264  0.0482  0.2179 -0.0732
  165SAPS  H15X18670   6.594   3.615   5.181  1.0931  0.7267  0.8538
  165SAPS  H15Y18671   6.462   3.703   5.257 -0.0992  0.0374 -1.5140
  165SAPS  C31618672   6.440   3.480   5.239 -0.7956  0.2588 -1.1873
  165SAPS  H16X18673   6.365   3.474   5.321 -0.2507 -2.5141 -0.8059
  165SAPS  H16Y18674   6.502   3.389   5.243  0.4845  1.0347  3.4386
  165SAPS  C31718675   6.368   3.497   5.106  0.6386  0.2057  0.4968
  165SAPS  H17X18676   6.430   3.504   5.014 -0.8023  1.6583 -0.4110
  165SAPS  H17Y18677   6.300   3.584   5.111 -0.0074 -0.2983  0.5368
  165SAPS  C31818678   6.277   3.374   5.088 -0.2510 -0.1265 -0.3751
  165SAPS  H18X18679   6.186   3.396   5.027 -0.5080  0.2158  0.1256
  165SAPS  H18Y18680   6.245   3.345   5.190 -1.7541  0.6263 -0.6064
  165SAPS  H18Z18681   6.339   3.292   5.047  2.1326  1.2283  0.2854
  166SAPS     N18682   3.451   2.621   7.505  0.4717  0.3015 -0.5212
  166SAPS   HN118683   3.507   2.566   7.574 -1.7113 -1.2673  0.0892
  166SAPS   HN218684   3.461   2.572   7.415  0.2374 -0.4048 -0.1695
  166SAPS   HN318685   3.501   2.711   7.490  0.2337  0.4517 -0.4120
  166SAPS   C1218686   3.319   2.636   7.560 -0.1934  0.2502  0.1908
  166SAPS  H12A18687   3.283   2.534   7.554  0.2771  0.1813 -2.7876
  166SAPS   C1318688   3.312   2.679   7.705 -0.0702  0.5067 -0.3659
  166SAPS  O13A18689   3.409   2.673   7.781 -0.7073 -0.5273  0.4462
  166SAPS  O13B18690   3.192   2.683   7.754  0.2901 -0.6141  0.3830
  166SAPS   C1118691   3.238   2.723   7.463  0.0725  0.5625 -0.0290
  166SAPS  H11A18692   3.133   2.726   7.500  0.2214 -0.6792  0.5455
  166SAPS  H11B18693   3.246   2.696   7.356 -0.3373  0.9394 -0.1581
  166SAPS     P18694   3.368   2.953   7.400  0.2655 -0.0148 -0.1445
  166SAPS   O1318695   3.288   3.076   7.398  0.3458 -0.1377 -0.2727
  166SAPS   O1418696   3.503   2.951   7.455 -0.0693 -0.5082 -0.3633
  166SAPS   O1218697   3.273   2.857   7.483 -0.3208 -1.0345 -0.6700
  166SAPS   O1118698   3.364   2.905   7.255 -0.1706  0.4885  0.1690
  166SAPS    C118699   3.453   2.949   7.155 -0.3012 -0.1459 -0.4701
  166SAPS    HA18700   3.524   3.027   7.189  1.8127 -2.6577  1.2737
  166SAPS    HB18701   3.530   2.871   7.134 -0.1570 -0.5402  1.3367
  166SAPS    C218702   3.366   2.978   7.027  0.1639 -0.3451  1.2550
  166SAPS    HS18703   3.280   2.907   7.031  0.1622 -0.4061  0.2962
  166SAPS   O2118704   3.452   2.976   6.910  0.0553 -0.4037  0.0542
  166SAPS   C2118705   3.505   2.870   6.864  0.2408 -0.3887 -0.9498
  166SAPS   O2218706   3.491   2.762   6.913 -0.3042  0.6177 -0.3276
  166SAPS   C2218707   3.594   2.896   6.738  0.5796  0.0897 -0.3063
  166SAPS   H2R18708   3.679   2.949   6.786  1.1231 -0.6463 -0.4293
  166SAPS   H2S18709   3.624   2.793   6.708  1.8514  0.2806  0.2639
  166SAPS    C318710   3.285   3.111   7.036 -0.6119  0.0898  0.1806
  166SAPS    HX18711   3.352   3.193   7.070 -2.3425  1.2326  0.9715
  166SAPS    HY18712   3.200   3.105   7.108 -2.6451  1.1945 -1.9664
  166SAPS   O3118713   3.226   3.143   6.912 -0.4808  0.2325  0.5932
  166SAPS   C3118714   3.126   3.062   6.867 -0.5898  0.7687  0.6667
  166SAPS   O3218715   3.074   2.966   6.933 -0.6848 -0.0159  0.4191
  166SAPS   C3218716   3.116   3.086   6.716  0.5541  0.1779  0.2007
  166SAPS   H2X18717   3.219   3.096   6.674  0.4322 -0.4116 -0.2365
  166SAPS   H2Y18718   3.060   3.182   6.716  1.2534  0.6198 -1.7405
  166SAPS   C2318719   3.523   2.971   6.627 -0.2504 -0.4292  0.0689
  166SAPS   H3R18720   3.577   2.987   6.531 -1.5073  0.5548 -0.5060
  166SAPS   H3S18721   3.481   3.067   6.664 -0.1324 -1.2770  2.5109
  166SAPS   C2418722   3.396   2.892   6.579 -0.6784  0.1061  0.1606
  166SAPS   H4R18723   3.353   2.951   6.495  1.6107  2.8088  0.7303
  166SAPS   H4S18724   3.334   2.900   6.671  1.2248 -0.2983  1.5548
  166SAPS   C2518725   3.417   2.746   6.542  0.2792 -0.2196 -0.0457
  166SAPS   H5R18726   3.419   2.668   6.618  0.2880 -1.0842 -0.9103
  166SAPS   C2618727   3.389   2.693   6.420 -0.2267 -0.7625  0.0954
  166SAPS   H6R18728   3.415   2.587   6.405 -0.7177 -0.7059 -1.2588
  166SAPS   C2718729   3.369   2.771   6.287  0.2941  0.4698  0.2075
  166SAPS   H7R18730   3.421   2.868   6.300  0.4302  0.3570  0.5063
  166SAPS   H7S18731   3.261   2.796   6.278  0.2229  0.4658  0.9974
  166SAPS   C2818732   3.412   2.693   6.159 -0.2341 -0.8112  0.0911
  166SAPS   H8R18733   3.479   2.612   6.189  1.1156  0.5194  0.8251
  166SAPS   C2918734   3.376   2.713   6.029 -0.0886  0.6111 -0.2367
  166SAPS   H9R18735   3.421   2.651   5.950 -0.1296 -0.3886  0.4966
  166SAPS  C21018736   3.282   2.823   5.971 -0.8172  0.0784  0.3034
  166SAPS  H10R18737   3.238   2.874   6.059 -1.2476 -0.1158  0.2078
  166SAPS  H10S18738   3.194   2.771   5.926  2.2846 -2.3413 -3.7241
  166SAPS  C21118739   3.344   2.924   5.866 -0.0799 -0.0082  0.2923
  166SAPS  H11R18740   3.445   2.957   5.894  0.4033  1.5804 -2.8707
  166SAPS  C21218741   3.301   2.958   5.747 -0.3323 -0.5662 -0.0701
  166SAPS  H12R18742   3.355   3.034   5.689 -1.3698 -0.6595 -1.2055
  166SAPS  C21318743   3.179   2.935   5.664  1.1040  0.7606 -0.7947
  166SAPS  H13R18744   3.117   2.866   5.725  0.6938  1.4907 -0.3682
  166SAPS  H13S18745   3.201   2.893   5.564 -0.2120  0.9166 -1.1658
  166SAPS  C21418746   3.082   3.046   5.649  0.2000  0.6550  0.0289
  166SAPS  H14R18747   3.046   3.088   5.744  0.1423 -0.5060  0.5292
  166SAPS  C21518748   3.033   3.098   5.539 -0.0171  0.3450  0.3125
  166SAPS  H15R18749   2.941   3.157   5.549 -0.4318  0.1673 -2.0073
  166SAPS  C21618750   3.048   3.067   5.386  1.4009 -0.7462 -0.5524
  166SAPS  H16R18751   3.156   3.053   5.361  1.7230 -0.6317  0.7117
  166SAPS  H16S18752   3.007   3.153   5.329 -2.6113 -1.5168  0.8638
  166SAPS  C21718753   2.978   2.930   5.357 -0.4371 -0.2620  0.0171
  166SAPS  H17R18754   2.880   2.907   5.405 -1.4834  1.2805 -1.2691
  166SAPS  H17S18755   3.055   2.852   5.373  0.6120  1.0353  1.5598
  166SAPS  C21818756   2.945   2.927   5.203  0.1676 -0.4689 -0.8388
  166SAPS  H18R18757   3.041   2.920   5.147  0.7882  1.0328 -0.0271
  166SAPS  H18S18758   2.900   3.027   5.183  0.3159 -0.4526 -1.0985
  166SAPS  C21918759   2.828   2.834   5.158  1.0021 -0.3253 -0.1959
  166SAPS  H19R18760   2.803   2.869   5.056  0.4787 -1.8548 -0.6125
  166SAPS  H19S18761   2.738   2.840   5.223  0.8572  0.8175 -0.4732
  166SAPS  C22018762   2.870   2.696   5.146 -0.2595  0.2163  0.0142
  166SAPS  H20R18763   2.979   2.697   5.121 -0.0782  0.0777  0.7752
  166SAPS  H20S18764   2.810   2.643   5.069  0.2730  0.3024 -0.4721
  166SAPS  H20T18765   2.864   2.642   5.242  0.1516 -1.2191 -0.7425
  166SAPS   C3318766   3.027   2.982   6.638 -0.1528 -0.2042 -0.4148
  166SAPS   H3X18767   2.929   2.979   6.691  0.7564  0.8339  1.4144
  166SAPS   H3Y18768   3.074   2.881   6.646 -0.9091 -0.4762  1.1138
  166SAPS   C3418769   3.002   3.031   6.495  1.0475 -0.0565  0.6429
  166SAPS   H4X18770   3.092   3.080   6.452  0.0576 -0.6920 -2.3895
  166SAPS   H4Y18771   2.927   3.113   6.497  1.5284  0.6426 -2.9442
  166SAPS   C3518772   2.964   2.928   6.396  0.1434 -0.2743  0.0716
  166SAPS   H5X18773   2.868   2.877   6.417  0.5823 -0.4860  1.7573
  166SAPS   H5Y18774   3.044   2.851   6.397  0.3675 -0.0564  1.5483
  166SAPS   C3618775   2.947   2.982   6.245  0.0313 -0.4120 -0.0259
  166SAPS   H6X18776   3.025   3.057   6.220 -0.9507  0.3669 -0.8039
  166SAPS   H6Y18777   2.847   3.028   6.239 -0.8801 -2.4921 -2.1035
  166SAPS   C3718778   2.968   2.871   6.145 -0.9409 -0.3052  0.6500
  166SAPS   H7X18779   2.896   2.787   6.155 -2.3008  0.3820 -2.4195
  166SAPS   H7Y18780   3.072   2.837   6.165 -0.9045  0.1613  1.2865
  166SAPS   C3818781   2.965   2.928   6.000  0.1061  0.4074 -0.0882
  166SAPS   H8X18782   2.993   2.843   5.934 -1.5087 -0.3393  0.1387
  166SAPS   H8Y18783   3.042   3.008   6.005  2.7695 -2.0593  1.0541
  166SAPS   C3918784   2.833   2.974   5.934  0.0515  0.0052 -0.4537
  166SAPS   H9X18785   2.860   3.059   5.868 -0.0912  0.2939 -0.1452
  166SAPS   H9Y18786   2.780   3.009   6.025  1.2073 -2.8251  1.4506
  166SAPS  C31018787   2.745   2.862   5.871 -0.2672 -0.2363  0.1601
  166SAPS  H10X18788   2.641   2.891   5.895  0.7742  1.2140  3.6339
  166SAPS  H10Y18789   2.773   2.770   5.927 -1.0261  0.2517  1.4022
  166SAPS  C31118790   2.757   2.842   5.721 -0.6126  0.4736  1.2293
  166SAPS  H11X18791   2.862   2.819   5.693 -1.6289 -1.1797 -1.6404
  166SAPS  H11Y18792   2.726   2.930   5.661  0.7666  0.9388  1.1675
  166SAPS  C31218793   2.666   2.726   5.671 -0.8129  0.1287 -0.3881
  166SAPS  H12X18794   2.558   2.752   5.667 -1.4486 -1.8321  1.8795
  166SAPS  H12Y18795   2.681   2.641   5.740 -0.5630  1.3118  1.0556
  166SAPS  C31318796   2.678   2.689   5.518 -0.3263 -0.1395  0.5454
  166SAPS  H13X18797   2.783   2.706   5.486 -1.4730 -0.5093 -4.0756
  166SAPS  H13Y18798   2.607   2.742   5.450 -0.8247 -1.9908 -0.4448
  166SAPS  C31418799   2.658   2.539   5.482  0.4191 -0.5348 -0.4032
  166SAPS  H14X18800   2.732   2.477   5.537 -0.0427 -0.7077  0.0348
  166SAPS  H14Y18801   2.681   2.530   5.374  2.1559 -0.4620 -0.0756
  166SAPS  C31518802   2.515   2.493   5.509  0.5280  0.2080 -0.3992
  166SAPS  H15X18803   2.442   2.566   5.468 -1.4078 -0.4648  1.6284
  166SAPS  H15Y18804   2.497   2.470   5.616 -1.0510 -1.0396 -0.9061
  166SAPS  C31618805   2.490   2.354   5.439 -1.0230  0.1257 -0.1949
  166SAPS  H16X18806   2.551   2.273   5.484 -1.8398  0.9070  2.5575
  166SAPS  H16Y18807   2.540   2.362   5.341 -0.1145  1.5755  0.3462
  166SAPS  C31718808   2.342   2.309   5.433  0.4475  0.2417 -0.0580
  166SAPS  H17X18809   2.336   2.215   5.374 -2.1302 -0.2604  0.9009
  166SAPS  H17Y18810   2.283   2.383   5.374 -1.5904  0.1874  1.8140
  166SAPS  C31818811   2.277   2.284   5.568  0.0176 -0.3124 -0.0147
  166SAPS  H18X18812   2.171   2.255   5.558 -0.7925  1.8523  1.5447
  166SAPS  H18Y18813   2.285   2.385   5.613  0.9687 -0.0901 -0.6443
  166SAPS  H18Z18814   2.332   2.208   5.627  0.5491  0.4339  0.4756
  167SAPS     N18815   5.508   2.958   7.175 -0.4387 -1.1303 -0.6010
  167SAPS   HN118816   5.467   2.910   7.258 -1.2137  2.6012  1.4174
  167SAPS   HN218817   5.438   2.952   7.099 -1.0086 -0.1424 -0.1754
  167SAPS   HN318818   5.595   2.909   7.145 -0.0882 -2.2171  1.8763
  167SAPS   C1218819   5.524   3.101   7.203  0.2894  0.3594  0.3339
  167SAPS  H12A18820   5.440   3.133   7.264  0.8734  2.0679  0.2820
  167SAPS   C1318821   5.645   3.148   7.287 -0.3081 -0.0782 -0.2036
  167SAPS  O13A18822   5.711   3.075   7.361  0.6585 -0.1767 -0.1547
  167SAPS  O13B18823   5.656   3.276   7.289  0.0722  0.0265 -0.0400
  167SAPS   C1118824   5.520   3.179   7.064  0.2657  1.1505 -0.4468
  167SAPS  H11A18825   5.609   3.135   7.014 -0.4587  0.0020 -0.7551
  167SAPS  H11B18826   5.536   3.289   7.072 -0.3047  1.2061 -0.0397
  167SAPS     P18827   5.292   3.247   6.956  0.1010 -0.3697  0.3926
  167SAPS   O1318828   5.223   3.290   7.077 -0.4307 -0.1883  0.4697
  167SAPS   O1418829   5.349   3.350   6.868 -0.2395  0.4948 -0.3131
  167SAPS   O1218830   5.405   3.146   6.986 -0.3365  0.2892 -0.3178
  167SAPS   O1118831   5.188   3.172   6.874  0.2335 -0.4299  0.4144
  167SAPS    C118832   5.221   3.044   6.818  0.2487 -0.4448  0.2572
  167SAPS    HA18833   5.274   2.980   6.892 -0.7859 -1.3511  0.2366
  167SAPS    HB18834   5.124   2.993   6.801  0.0682  0.2188 -0.7715
  167SAPS    C218835   5.288   3.056   6.680  0.9393  0.0237 -0.3497
  167SAPS    HS18836   5.274   2.959   6.627 -1.1787 -0.1484  0.4220
  167SAPS   O2118837   5.423   3.103   6.683 -0.1032  0.1998  0.1383
  167SAPS   C2118838   5.515   3.040   6.749 -0.0924  0.4022  0.7544
  167SAPS   O2218839   5.504   2.937   6.814 -0.7237  0.0491  0.1455
  167SAPS   C2218840   5.643   3.103   6.712  0.0857  0.2373 -0.6326
  167SAPS   H2R18841   5.627   3.205   6.753 -0.4799 -0.9200  2.3466
  167SAPS   H2S18842   5.734   3.051   6.750 -0.4684 -0.9040 -0.8326
  167SAPS    C318843   5.216   3.167   6.591  0.0709  0.5476 -0.6043
  167SAPS    HX18844   5.253   3.266   6.623 -1.5311  1.1498 -0.5117
  167SAPS    HY18845   5.106   3.160   6.607  0.2635 -1.5764  0.1198
  167SAPS   O3118846   5.244   3.144   6.454  0.0590  0.0575  0.9775
  167SAPS   C3118847   5.264   3.263   6.380 -0.4836 -0.3051  0.1149
  167SAPS   O3218848   5.238   3.370   6.426 -0.1626 -0.4019 -0.7068
  167SAPS   C3218849   5.315   3.233   6.243 -0.3682  0.5565 -0.0955
  167SAPS   H2X18850   5.274   3.139   6.198  0.5701  1.1649 -2.3877
  167SAPS   H2Y18851   5.424   3.214   6.254 -0.3574  0.5812 -0.1567
  167SAPS   C2318852   5.677   3.117   6.561  0.1161  0.2626 -0.5628
  167SAPS   H3R18853   5.723   3.216   6.542 -0.2393  0.2947 -1.3105
  167SAPS   H3S18854   5.587   3.118   6.495 -1.2897 -1.4635  1.2008
  167SAPS   C2418855   5.770   3.005   6.500  0.3185  0.4640 -0.2154
  167SAPS   H4R18856   5.861   3.001   6.564  0.1317  0.3892  0.0437
  167SAPS   H4S18857   5.802   3.027   6.396  2.4136  0.3777  0.3532
  167SAPS   C2518858   5.703   2.864   6.503  0.3548  0.0056  0.2606
  167SAPS   H5R18859   5.746   2.789   6.571 -0.9977 -1.3961 -0.3727
  167SAPS   C2618860   5.595   2.829   6.431  0.2995  0.5544  0.5829
  167SAPS   H6R18861   5.564   2.724   6.439  0.0198  0.7369  2.3197
  167SAPS   C2718862   5.512   2.900   6.328  0.6555 -0.1751 -0.7652
  167SAPS   H7R18863   5.535   3.009   6.320 -3.2174  0.6989 -2.4862
  167SAPS   H7S18864   5.408   2.889   6.364  1.2848 -0.6274  1.0062
  167SAPS   C2818865   5.520   2.832   6.196  0.0394 -0.2346  0.4314
  167SAPS   H8R18866   5.506   2.724   6.207 -0.1130 -0.2871 -0.2346
  167SAPS   C2918867   5.551   2.883   6.072 -0.3046 -0.0503  0.1553
  167SAPS   H9R18868   5.547   2.828   5.977 -2.4339  1.9310 -1.0009
  167SAPS  C21018869   5.597   3.021   6.042 -0.2002  0.0132 -0.7398
  167SAPS  H10R18870   5.553   3.096   6.112  1.5596  1.7451 -1.3838
  167SAPS  H10S18871   5.557   3.061   5.946 -0.2172 -1.2898 -1.2937
  167SAPS  C21118872   5.749   3.029   6.038 -0.1770  0.0701  0.1207
  167SAPS  H11R18873   5.792   3.060   6.134 -2.7108 -1.5567  1.9033
  167SAPS  C21218874   5.818   3.033   5.923 -0.0261  1.4072  0.2855
  167SAPS  H12R18875   5.927   3.045   5.928  0.1032  1.2065 -1.4351
  167SAPS  C21318876   5.764   3.026   5.783  0.1318 -0.1575  0.1408
  167SAPS  H13R18877   5.658   2.991   5.776 -0.2582  0.9394  0.3388
  167SAPS  H13S18878   5.825   2.949   5.732  0.4792  0.7144 -0.8023
  167SAPS  C21418879   5.796   3.153   5.716  0.7272 -0.0737  0.1354
  167SAPS  H14R18880   5.718   3.230   5.723 -0.5898 -1.3968  0.4528
  167SAPS  C21518881   5.901   3.190   5.635  0.2014  0.1944 -0.0131
  167SAPS  H15R18882   5.904   3.293   5.596 -0.4954  0.3530  0.3567
  167SAPS  C21618883   6.012   3.109   5.577  0.0217 -0.0139 -1.0386
  167SAPS  H16R18884   5.996   3.000   5.593 -0.8572  0.0660 -1.2890
  167SAPS  H16S18885   6.102   3.139   5.634 -0.2068 -1.8800  0.4496
  167SAPS  C21718886   6.043   3.137   5.433 -0.2416  0.1794 -0.2535
  167SAPS  H17R18887   6.154   3.128   5.425 -0.1473 -1.1351  1.7760
  167SAPS  H17S18888   6.013   3.239   5.399  0.0496  0.3449 -0.0216
  167SAPS  C21818889   5.983   3.044   5.333 -0.2789  0.0012 -0.8122
  167SAPS  H18R18890   5.874   3.064   5.342  0.2096  1.7818  2.8258
  167SAPS  H18S18891   6.001   2.938   5.358  0.6631 -0.4736 -3.1903
  167SAPS  C21918892   6.019   3.069   5.192 -0.4889  0.6222  0.7918
  167SAPS  H19R18893   6.127   3.062   5.168  0.0531  3.1563  2.0558
  167SAPS  H19S18894   6.002   3.176   5.169  0.3294  0.6545  0.3210
  167SAPS  C22018895   5.948   2.980   5.086  0.2850 -0.2938  1.3570
  167SAPS  H20R18896   5.843   2.966   5.117 -0.1092  3.5201  2.2749
  167SAPS  H20S18897   5.997   2.881   5.076  0.1048 -0.3170  0.6251
  167SAPS  H20T18898   5.962   3.016   4.981 -1.8242 -0.7742  0.8817
  167SAPS   C3318899   5.290   3.357   6.154 -0.7458  0.0945 -0.2162
  167SAPS   H3X18900   5.351   3.443   6.188  1.1629 -1.4396  0.4471
  167SAPS   H3Y18901   5.183   3.385   6.156 -0.3361  1.9845  3.2902
  167SAPS   C3418902   5.326   3.319   6.011 -0.1432  0.7953 -0.6887
  167SAPS   H4X18903   5.282   3.220   5.989  1.9668 -1.0204  2.4854
  167SAPS   H4Y18904   5.436   3.306   6.000 -0.2736 -2.4735  0.8906
  167SAPS   C3518905   5.261   3.419   5.911  0.7342 -0.0811 -0.2886
  167SAPS   H5X18906   5.151   3.415   5.927  1.0964  0.0594  2.6493
  167SAPS   H5Y18907   5.285   3.389   5.806 -2.2422  1.5748 -1.5461
  167SAPS   C3618908   5.320   3.556   5.922  0.4574  0.0523  0.1730
  167SAPS   H6X18909   5.309   3.601   6.023 -1.9407  0.1338 -0.0650
  167SAPS   H6Y18910   5.264   3.619   5.849 -0.6974 -0.5433  0.5207
  167SAPS   C3718911   5.473   3.569   5.890  0.2072  0.7545 -0.7492
  167SAPS   H7X18912   5.532   3.490   5.940 -0.5630  0.2910 -0.5498
  167SAPS   H7Y18913   5.522   3.653   5.944 -1.1984  0.5625  0.9407
  167SAPS   C3818914   5.519   3.583   5.739 -0.4822 -0.4415 -0.0573
  167SAPS   H8X18915   5.491   3.682   5.697 -1.1772 -1.0410 -1.0662
  167SAPS   H8Y18916   5.472   3.505   5.675  2.2683 -0.1963 -2.6147
  167SAPS   C3918917   5.676   3.559   5.719 -0.0010 -0.4360  0.0835
  167SAPS   H9X18918   5.713   3.540   5.616 -1.6946 -0.7600 -0.4999
  167SAPS   H9Y18919   5.709   3.470   5.776  1.2881 -0.0257  0.0076
  167SAPS  C31018920   5.771   3.669   5.778  0.4474 -0.2559  0.4380
  167SAPS  H10X18921   5.872   3.630   5.754 -0.0844 -1.0876 -0.4949
  167SAPS  H10Y18922   5.769   3.665   5.889  0.3859 -1.2726  0.4134
  167SAPS  C31118923   5.750   3.810   5.715  0.4719  0.6819  0.1396
  167SAPS  H11X18924   5.682   3.865   5.784 -0.0041 -0.8684  0.9657
  167SAPS  H11Y18925   5.703   3.792   5.616  1.3092 -1.8576  0.1332
  167SAPS  C31218926   5.883   3.882   5.693 -0.4243  0.2070  0.0884
  167SAPS  H12X18927   5.952   3.809   5.646 -1.4288  0.3035 -1.6249
  167SAPS  H12Y18928   5.922   3.901   5.796 -2.6355  2.1308  0.6537
  167SAPS  C31318929   5.887   4.004   5.603  0.0703 -0.4960  0.2072
  167SAPS  H13X18930   5.984   4.057   5.591  0.3712 -1.2783 -0.9506
  167SAPS  H13Y18931   5.818   4.083   5.639 -1.0186 -1.4828  0.3462
  167SAPS  C31418932   5.847   3.970   5.456 -0.1988 -0.4042  0.2232
  167SAPS  H14X18933   5.819   4.068   5.413  2.0257  0.1959  0.0360
  167SAPS  H14Y18934   5.751   3.915   5.464 -1.8397  2.2996  0.4802
  167SAPS  C31518935   5.953   3.917   5.365 -0.1756  0.2637 -0.5399
  167SAPS  H15X18936   5.968   3.810   5.391  2.9198  0.5867 -0.6030
  167SAPS  H15Y18937   6.052   3.963   5.384  1.1162 -2.0456 -1.2799
  167SAPS  C31618938   5.936   3.948   5.218  0.7979  0.8633  0.2827
  167SAPS  H16X18939   5.905   4.053   5.203 -0.2001  0.6036  0.4725
  167SAPS  H16Y18940   5.849   3.892   5.179  0.5083  1.4374  0.0947
  167SAPS  C31718941   6.054   3.924   5.121 -0.0718 -0.4116 -0.5336
  167SAPS  H17X18942   6.053   3.813   5.111  0.3103 -0.2906 -2.0546
  167SAPS  H17Y18943   6.143   3.964   5.174 -0.4054  0.1221 -0.3712
  167SAPS  C31818944   6.036   3.977   4.987  0.8181 -0.0261  0.1214
  167SAPS  H18X18945   6.121   3.954   4.918  0.6738 -0.1135 -0.0283
  167SAPS  H18Y18946   6.030   4.087   4.998  0.8403 -0.1990  2.2973
  167SAPS  H18Z18947   5.941   3.943   4.940  2.0409 -0.4752 -2.1907
  168SAPS     N18948   5.122   2.580   7.460  0.7256  0.2743 -0.8513
  168SAPS   HN118949   5.142   2.561   7.561  0.0762  3.4026 -0.0416
  168SAPS   HN218950   5.021   2.566   7.444  0.9002  1.1633 -3.0091
  168SAPS   HN318951   5.164   2.497   7.413 -3.4612 -2.1950 -0.7062
  168SAPS   C1218952   5.178   2.713   7.425 -0.3231 -0.1657 -0.9013
  168SAPS  H12A18953   5.151   2.790   7.495  0.3118 -0.3718 -0.4184
  168SAPS   C1318954   5.333   2.725   7.412 -0.1887 -0.5941  0.1921
  168SAPS  O13A18955   5.403   2.625   7.442  0.2487 -0.2057 -0.1072
  168SAPS  O13B18956   5.394   2.839   7.397  0.0839  0.3118 -0.5802
  168SAPS   C1118957   5.124   2.753   7.287 -0.3721  0.7859  0.6665
  168SAPS  H11A18958   5.161   2.857   7.269 -1.6163  1.1009 -0.2579
  168SAPS  H11B18959   5.013   2.761   7.292 -0.3290  0.8774  1.6637
  168SAPS     P18960   5.225   2.709   7.044  0.2564 -0.0235  0.0314
  168SAPS   O1318961   5.125   2.733   6.938  0.6660  0.5871 -0.5888
  168SAPS   O1418962   5.323   2.816   7.066  0.0666 -0.5497  0.8604
  168SAPS   O1218963   5.161   2.669   7.178 -0.7240  0.3926  0.6030
  168SAPS   O1118964   5.315   2.587   7.000  0.3588 -0.1357 -0.6868
  168SAPS    C118965   5.285   2.453   7.040  0.3400  0.0210 -0.7332
  168SAPS    HA18966   5.365   2.434   7.114 -0.7911 -0.4422  0.4037
  168SAPS    HB18967   5.195   2.453   7.105  1.6912  0.9774  1.2424
  168SAPS    C218968   5.291   2.355   6.919  0.7309  0.0220  0.5371
  168SAPS    HS18969   5.399   2.357   6.890  0.3751 -0.7081 -0.9361
  168SAPS   O2118970   5.208   2.403   6.809  0.0811 -0.3412 -0.4452
  168SAPS   C2118971   5.260   2.504   6.732  0.7640  0.2370 -0.6010
  168SAPS   O2218972   5.369   2.558   6.740 -1.0424 -0.6948 -0.7115
  168SAPS   C2218973   5.147   2.548   6.640 -1.0355  0.6677 -0.5476
  168SAPS   H2R18974   5.114   2.469   6.569 -0.5174 -0.2853  0.2389
  168SAPS   H2S18975   5.064   2.560   6.713 -0.7138  1.8678 -0.3693
  168SAPS    C318976   5.259   2.204   6.959  0.4551  0.3284  0.5925
  168SAPS    HX18977   5.161   2.200   7.010 -0.1755  0.5186 -0.5737
  168SAPS    HY18978   5.331   2.161   7.031  1.4797 -2.6615 -1.9948
  168SAPS   O3118979   5.271   2.118   6.840 -0.1418  0.4552 -0.2715
  168SAPS   C3118980   5.177   2.110   6.753  0.0690  0.0505 -0.0241
  168SAPS   O3218981   5.066   2.158   6.764 -0.1133 -0.3930  0.7411
  168SAPS   C3218982   5.218   2.022   6.632 -0.2781 -0.2095 -0.7417
  168SAPS   H2X18983   5.144   1.939   6.630 -0.5184 -0.1370  1.9196
  168SAPS   H2Y18984   5.312   1.971   6.663  0.6506  2.1031  0.5079
  168SAPS   C2318985   5.172   2.682   6.565 -0.7260 -0.1913 -0.2450
  168SAPS   H3R18986   5.257   2.675   6.494 -0.3732 -0.7985  0.2334
  168SAPS   H3S18987   5.207   2.763   6.634  0.8836  0.6607 -1.9678
  168SAPS   C2418988   5.050   2.731   6.491 -0.3441 -0.1066  0.4443
  168SAPS   H4R18989   4.954   2.719   6.547 -1.5865  1.1658 -1.3075
  168SAPS   H4S18990   5.034   2.657   6.410 -0.7527  0.7870 -0.3044
  168SAPS   C2518991   5.054   2.874   6.436  0.1172  0.1434 -0.5107
  168SAPS   H5R18992   5.040   2.950   6.515  0.1154  1.4667 -1.7524
  168SAPS   C2618993   5.058   2.913   6.309 -0.6597 -0.2364 -0.0954
  168SAPS   H6R18994   5.064   3.021   6.286 -2.3822 -0.0991 -0.0631
  168SAPS   C2718995   5.089   2.822   6.187  0.4964 -0.4088 -0.6457
  168SAPS   H7R18996   5.088   2.717   6.224  0.2268 -0.2328 -0.1362
  168SAPS   H7S18997   5.191   2.832   6.145  1.2216 -1.1747  0.8344
  168SAPS   C2818998   4.973   2.868   6.094 -0.9578  0.8083 -0.5117
  168SAPS   H8R18999   4.866   2.882   6.117 -1.6574 -2.2150 -1.4390
  168SAPS   C2919000   4.993   2.876   5.962  0.2686  0.3988  0.2876
  168SAPS   H9R19001   4.909   2.906   5.898  0.8914 -2.7183 -2.2449
  168SAPS  C21019002   5.114   2.841   5.875  0.4111  0.3412 -0.1065
  168SAPS  H10R19003   5.085   2.787   5.783  2.1142 -0.4566 -0.2164
  168SAPS  H10S19004   5.175   2.769   5.934 -0.1022  0.6322  0.7999
  168SAPS  C21119005   5.191   2.968   5.857  0.4061 -0.3376  0.0205
  168SAPS  H11R19006   5.264   2.995   5.935 -1.7597  2.0470  1.3884
  168SAPS  C21219007   5.188   3.052   5.751  0.4214 -0.0527  0.3415
  168SAPS  H12R19008   5.252   3.142   5.755  1.0003 -0.4458  0.1183
  168SAPS  C21319009   5.099   3.030   5.631  0.4050 -0.4858 -0.1705
  168SAPS  H13R19010   5.003   2.982   5.662 -0.7651  1.0670 -1.2314
  168SAPS  H13S19011   5.142   2.960   5.557  1.5516  0.6089 -0.5662
  168SAPS  C21419012   5.065   3.159   5.566  0.2513  1.0182  0.1423
  168SAPS  H14R19013   4.977   3.210   5.609 -1.1829  0.2828 -1.7401
  168SAPS  C21519014   5.124   3.208   5.460  0.6015 -0.3315  0.3156
  168SAPS  H15R19015   5.102   3.304   5.411 -0.6930 -1.6060 -1.7692
  168SAPS  C21619016   5.243   3.146   5.400 -0.0783 -0.3622  0.5819
  168SAPS  H16R19017   5.306   3.088   5.470  0.3463 -1.1315 -0.4124
  168SAPS  H16S19018   5.302   3.237   5.373  0.1177 -1.0994 -1.6608
  168SAPS  C21719019   5.230   3.068   5.266 -0.2786 -0.5515  0.0453
  168SAPS  H17R19020   5.187   2.968   5.284 -0.0032 -0.6360  0.2402
  168SAPS  H17S19021   5.330   3.039   5.229 -0.5392 -0.5744 -0.6506
  168SAPS  C21819022   5.171   3.151   5.150  0.1165  0.4302 -0.8910
  168SAPS  H18R19023   5.229   3.245   5.135 -0.6101  0.8120 -1.3752
  168SAPS  H18S19024   5.069   3.189   5.168 -0.4547 -0.9681 -1.0171
  168SAPS  C21919025   5.161   3.074   5.027  0.3537 -0.1521 -0.2406
  168SAPS  H19R19026   5.256   3.046   4.977 -0.1186  0.1303 -1.3212
  168SAPS  H19S19027   5.114   3.138   4.949 -0.4012  1.4957  1.4848
  168SAPS  C22019028   5.067   2.945   5.042  0.0142  0.1571  0.1474
  168SAPS  H20R19029   4.978   2.968   5.104 -0.4308 -0.2420 -0.3396
  168SAPS  H20S19030   5.130   2.859   5.075 -1.1674 -1.5936 -1.8970
  168SAPS  H20T19031   5.023   2.917   4.944 -0.9862 -0.2226  0.6913
  168SAPS   C3319032   5.248   2.107   6.505 -0.2231  0.7548  0.2384
  168SAPS   H3X19033   5.348   2.154   6.508 -0.2307  1.0670 -2.1684
  168SAPS   H3Y19034   5.167   2.183   6.499 -2.4405 -1.2714  2.2632
  168SAPS   C3419035   5.226   2.024   6.373 -0.2652  0.4944  0.2225
  168SAPS   H4X19036   5.122   1.985   6.375 -0.6168  1.3444 -0.6585
  168SAPS   H4Y19037   5.291   1.935   6.382 -2.0849 -0.9903 -0.6253
  168SAPS   C3519038   5.242   2.105   6.252  0.8260 -0.0446  0.6725
  168SAPS   H5X19039   5.351   2.118   6.233  1.3263 -4.6213 -0.9032
  168SAPS   H5Y19040   5.189   2.202   6.256  0.7137 -0.1429  1.6019
  168SAPS   C3619041   5.187   2.022   6.136 -0.6075  0.4879  0.7591
  168SAPS   H6X19042   5.076   2.014   6.141 -0.9925  2.4943 -1.9885
  168SAPS   H6Y19043   5.243   1.926   6.137  1.1488  1.4690  1.1772
  168SAPS   C3719044   5.209   2.095   6.005 -0.3353 -0.0874  0.9613
  168SAPS   H7X19045   5.312   2.138   6.002 -0.2093 -0.4017  0.6851
  168SAPS   H7Y19046   5.131   2.173   5.992 -1.2987 -1.3900 -1.9524
  168SAPS   C3819047   5.209   2.013   5.874 -0.1643  0.4820 -0.4963
  168SAPS   H8X19048   5.112   1.960   5.857 -0.3546  0.6769 -0.0354
  168SAPS   H8Y19049   5.273   1.922   5.873 -0.2047  0.4362 -1.8547
  168SAPS   C3919050   5.250   2.097   5.754 -0.6729 -0.2149  0.8000
  168SAPS   H9X19051   5.359   2.119   5.743 -0.6555 -0.4253  0.5605
  168SAPS   H9Y19052   5.206   2.195   5.784 -1.7681 -0.8406  1.2884
  168SAPS  C31019053   5.201   2.041   5.628 -0.1789 -0.0983 -0.9488
  168SAPS  H10X19054   5.108   1.983   5.645  1.7765 -3.1150  0.3750
  168SAPS  H10Y19055   5.283   1.969   5.603 -0.7552 -1.3265  0.5422
  168SAPS  C31119056   5.187   2.150   5.525  0.5157 -0.0135  0.0349
  168SAPS  H11X19057   5.284   2.204   5.528 -0.7010  2.5407 -2.2032
  168SAPS  H11Y19058   5.114   2.225   5.564  2.9789  2.4925  0.1239
  168SAPS  C31219059   5.140   2.095   5.390  0.0899 -0.0633  0.5140
  168SAPS  H12X19060   5.214   2.024   5.349 -0.2029 -0.0832  0.0175
  168SAPS  H12Y19061   5.119   2.178   5.318 -1.7046  1.1268  2.2802
  168SAPS  C31319062   5.001   2.019   5.392  0.1083 -0.0107  0.3995
  168SAPS  H13X19063   4.931   2.083   5.450 -1.0696 -1.4494  0.6229
  168SAPS  H13Y19064   5.004   1.922   5.446  0.0057 -1.6451 -2.3575
  168SAPS  C31419065   4.949   1.980   5.258  0.0547 -0.0653  0.2221
  168SAPS  H14X19066   5.036   1.924   5.216 -0.3240 -1.3211  1.0600
  168SAPS  H14Y19067   4.925   2.068   5.194 -2.1989 -0.5676  0.2809
  168SAPS  C31519068   4.837   1.879   5.273 -0.0703  0.2273  0.9399
  168SAPS  H15X19069   4.740   1.909   5.320 -1.7559 -2.7596 -0.3754
  168SAPS  H15Y19070   4.866   1.796   5.341 -0.9231 -1.3448 -0.5431
  168SAPS  C31619071   4.811   1.812   5.141  0.4490 -0.3834 -0.6074
  168SAPS  H16X19072   4.911   1.775   5.108  1.2152  1.5429 -0.5863
  168SAPS  H16Y19073   4.781   1.893   5.071  0.8887  0.3822  0.0655
  168SAPS  C31719074   4.704   1.698   5.159  0.1010 -0.8482  0.9923
  168SAPS  H17X19075   4.611   1.754   5.184  1.2949  0.6055  2.4124
  168SAPS  H17Y19076   4.731   1.631   5.243  0.5003 -3.5168 -1.1271
  168SAPS  C31819077   4.685   1.616   5.026 -0.2559  0.2144 -0.5402
  168SAPS  H18X19078   4.592   1.555   5.032  0.2388 -0.4217  2.0398
  168SAPS  H18Y19079   4.762   1.538   5.008  0.4530  1.0074 -0.9906
  168SAPS  H18Z19080   4.681   1.681   4.936 -1.6433 -0.1393 -0.7476
  169SAPS     N19081   6.498   0.744   7.646 -0.2611 -0.0135  0.3350
  169SAPS   HN119082   6.560   0.722   7.726  2.6361 -1.1681 -2.0290
  169SAPS   HN219083   6.527   0.682   7.567  0.4998  1.5969 -0.7158
  169SAPS   HN319084   6.508   0.840   7.608 -1.7904  0.6259  1.4407
  169SAPS   C1219085   6.364   0.702   7.701  0.2944 -0.0649 -0.0825
  169SAPS  H12A19086   6.366   0.596   7.722  0.6651  0.1435  0.9600
  169SAPS   C1319087   6.329   0.771   7.840 -0.3496  0.3448 -0.0937
  169SAPS  O13A19088   6.418   0.846   7.891 -0.3177 -0.1480 -0.3041
  169SAPS  O13B19089   6.213   0.748   7.885 -0.1340  0.2980 -0.0320
  169SAPS   C1119090   6.254   0.743   7.597  0.0289 -0.7468 -0.9855
  169SAPS  H11A19091   6.254   0.854   7.596 -3.0873 -0.6678 -0.4091
  169SAPS  H11B19092   6.157   0.716   7.643 -0.7761  0.3229 -2.0127
  169SAPS     P19093   6.222   0.517   7.463 -0.0397  0.2471  0.4565
  169SAPS   O1319094   6.329   0.431   7.522  0.3038  0.0220 -0.0585
  169SAPS   O1419095   6.082   0.493   7.508  0.8589  0.4364 -0.6797
  169SAPS   O1219096   6.257   0.670   7.477 -0.3280 -0.0851 -0.1836
  169SAPS   O1119097   6.219   0.492   7.307 -0.0801  0.3185 -0.3062
  169SAPS    C119098   6.228   0.593   7.205  0.0417  0.7250  0.3856
  169SAPS    HA19099   6.126   0.604   7.162 -1.4558 -0.0756  3.4195
  169SAPS    HB19100   6.241   0.694   7.249 -0.3294  0.4873  1.0457
  169SAPS    C219101   6.342   0.576   7.099  0.1572 -0.0012  0.2466
  169SAPS    HS19102   6.373   0.678   7.068 -1.5941  2.1338  4.6503
  169SAPS   O2119103   6.294   0.493   6.995 -0.2877  0.4322 -0.6109
  169SAPS   C2119104   6.290   0.544   6.879  0.0103 -0.0394 -0.0854
  169SAPS   O2219105   6.295   0.663   6.850 -0.4103  0.5521 -0.0293
  169SAPS   C2219106   6.282   0.427   6.771  0.1296 -0.3979  0.2977
  169SAPS   H2R19107   6.267   0.333   6.827  0.5608 -0.9762 -0.5329
  169SAPS   H2S19108   6.204   0.453   6.695  2.9408  2.6011 -1.8725
  169SAPS    C319109   6.465   0.514   7.161 -0.0389  0.2031  0.2647
  169SAPS    HX19110   6.428   0.417   7.201  0.7733 -0.8340 -1.3941
  169SAPS    HY19111   6.492   0.588   7.240  0.7244  0.4812 -0.2450
  169SAPS   O3119112   6.561   0.483   7.059  0.0634 -0.5015  0.0434
  169SAPS   C3119113   6.634   0.378   7.073 -0.4246  0.2939  0.3356
  169SAPS   O3219114   6.656   0.312   7.175  0.4824 -0.3663 -0.1310
  169SAPS   C3219115   6.720   0.362   6.940  0.4088 -0.5683  0.0140
  169SAPS   H2X19116   6.675   0.278   6.883  2.0983 -1.0706 -0.6503
  169SAPS   H2Y19117   6.824   0.333   6.965  0.3035 -0.5984  0.4181
  169SAPS   C2319118   6.411   0.416   6.679 -0.4810  0.1085 -0.0515
  169SAPS   H3R19119   6.488   0.370   6.744 -0.4546 -1.4970 -1.1797
  169SAPS   H3S19120   6.440   0.521   6.657  0.0321 -0.2146 -0.9666
  169SAPS   C2419121   6.412   0.351   6.542  0.1947 -0.2777  0.6133
  169SAPS   H4R19122   6.502   0.371   6.480 -0.1002  0.1086  0.3026
  169SAPS   H4S19123   6.326   0.392   6.484 -0.7379  0.0794  2.1894
  169SAPS   C2519124   6.406   0.207   6.571  0.2183  0.3297  0.7999
  169SAPS   H5R19125   6.322   0.178   6.636 -0.1907 -1.8635 -0.5752
  169SAPS   C2619126   6.488   0.102   6.525  0.5726 -0.7764 -0.0060
  169SAPS   H6R19127   6.471   0.003   6.569 -0.8514  0.6283  2.9195
  169SAPS   C2719128   6.601   0.110   6.427  0.3311  0.2629 -0.1729
  169SAPS   H7R19129   6.641   0.007   6.420 -3.1525 -1.4798  2.2929
  169SAPS   H7S19130   6.686   0.175   6.457  1.3506 -0.8630 -0.5452
  169SAPS   C2819131   6.564   0.164   6.293 -0.4760  0.6575  0.7007
  169SAPS   H8R19132   6.460   0.198   6.282  0.0939  1.7948 -1.9810
  169SAPS   C2919133   6.639   0.174   6.172 -0.1162  0.5389  0.1275
  169SAPS   H9R19134   6.585   0.205   6.082  0.7437  0.0161 -0.5878
  169SAPS  C21019135   6.788   0.158   6.159  0.2524  0.4871 -0.1297
  169SAPS  H10R19136   6.796   0.047   6.150  1.2229  0.2974  2.2457
  169SAPS  H10S19137   6.846   0.183   6.250  0.6491 -1.2802  0.1479
  169SAPS  C21119138   6.849   0.235   6.048 -0.9418  0.5202  0.2054
  169SAPS  H11R19139   6.820   0.341   6.051 -0.2925  0.6924  0.4831
  169SAPS  C21219140   6.936   0.202   5.958  0.3878 -0.1166 -0.2439
  169SAPS  H12R19141   6.960   0.280   5.884 -3.3800 -0.0400 -1.6045
  169SAPS  C21319142   7.006   0.071   5.952 -0.2444 -0.8752 -0.4797
  169SAPS  H13R19143   6.956   0.005   5.878  0.8030 -0.0734 -1.9675
  169SAPS  H13S19144   7.004   0.017   6.049 -0.5355  0.7774  0.4841
  169SAPS  C21419145   7.152   0.095   5.932  0.3582  0.3028  0.4345
  169SAPS  H14R19146   7.191   0.140   6.025  0.6726  0.5754  0.1723
  169SAPS  C21519147   7.236   0.064   5.832 -0.0893  0.6145  0.6603
  169SAPS  H15R19148   7.341   0.097   5.840 -0.1666  0.5939  1.9916
  169SAPS  C21619149   7.191  -0.005   5.710  0.0987 -0.1614  0.6475
  169SAPS  H16R19150   7.095  -0.059   5.726 -0.1357 -0.2644 -0.9423
  169SAPS  H16S19151   7.266  -0.085   5.686  0.3860  0.1616  0.4574
  169SAPS  C21719152   7.177   0.093   5.593 -0.5893  0.1715 -0.2544
  169SAPS  H17R19153   7.272   0.150   5.604 -0.3773 -0.5440  2.2336
  169SAPS  H17S19154   7.083   0.149   5.610 -0.9952 -1.1227  2.0434
  169SAPS  C21819155   7.177   0.010   5.463 -1.0269  0.2730 -0.2301
  169SAPS  H18R19156   7.105  -0.075   5.468  1.3931 -2.0452 -2.0929
  169SAPS  H18S19157   7.273  -0.045   5.452 -1.8537 -1.4129  0.5091
  169SAPS  C21919158   7.156   0.088   5.333  0.1813 -0.2820 -0.4097
  169SAPS  H19R19159   7.240   0.161   5.324  0.1018 -0.1510 -0.0904
  169SAPS  H19S19160   7.063   0.147   5.344  0.4420 -0.1052  1.1257
  169SAPS  C22019161   7.156  -0.007   5.214 -0.0708  0.0982  0.5593
  169SAPS  H20R19162   7.142   0.044   5.116 -3.2630  0.7722  1.2481
  169SAPS  H20S19163   7.088  -0.093   5.233  0.4495  0.0314  2.2995
  169SAPS  H20T19164   7.258  -0.052   5.216 -0.1526 -0.1805 -0.6803
  169SAPS   C3319165   6.727   0.481   6.838 -0.1357 -0.4704 -0.0863
  169SAPS   H3X19166   6.768   0.569   6.893  0.8330 -2.1135  2.0016
  169SAPS   H3Y19167   6.626   0.505   6.798  0.0663  0.4395 -0.0794
  169SAPS   C3419168   6.811   0.443   6.718  0.0745  0.2440 -0.2841
  169SAPS   H4X19169   6.800   0.336   6.691 -1.5124  0.1926  0.4254
  169SAPS   H4Y19170   6.915   0.467   6.749 -0.4257  0.2548  1.5282
  169SAPS   C3519171   6.776   0.526   6.592  0.6329  0.1896 -0.1206
  169SAPS   H5X19172   6.777   0.634   6.621  2.3290 -0.0443  0.7991
  169SAPS   H5Y19173   6.683   0.483   6.549  3.0826 -4.0069 -1.7431
  169SAPS   C3619174   6.899   0.524   6.491  0.1847  0.6415 -0.2680
  169SAPS   H6X19175   6.897   0.423   6.444 -2.1456  1.1903 -1.4729
  169SAPS   H6Y19176   7.000   0.529   6.536  0.5673 -1.9705 -0.6941
  169SAPS   C3719177   6.878   0.627   6.376  0.0070  0.0633 -0.0259
  169SAPS   H7X19178   6.905   0.728   6.412 -1.1131  0.3877 -0.0459
  169SAPS   H7Y19179   6.768   0.626   6.357  0.2537 -0.1562 -1.6263
  169SAPS   C3819180   6.953   0.602   6.245 -0.2091  0.4311  0.3158
  169SAPS   H8X19181   6.894   0.523   6.194  0.2938 -0.0084  0.4081
  169SAPS   H8Y19182   7.059   0.574   6.265 -0.0450  1.0592  0.3736
  169SAPS   C3919183   6.954   0.720   6.143  0.0699  0.9239  0.1575
  169SAPS   H9X19184   7.009   0.806   6.188  2.7886 -0.3014 -0.6037
  169SAPS   H9Y19185   6.850   0.757   6.134 -1.0237 -2.0741 -0.5647
  169SAPS  C31019186   7.010   0.689   6.003  1.0799 -0.7117  0.2233
  169SAPS  H10X19187   6.956   0.602   5.962 -1.1112  0.9358 -0.5985
  169SAPS  H10Y19188   7.115   0.661   6.028  2.3450  2.2650 -1.2831
  169SAPS  C31119189   6.989   0.809   5.905  0.4843  0.0747  0.1792
  169SAPS  H11X19190   7.073   0.881   5.912 -0.7459  1.5916 -0.3062
  169SAPS  H11Y19191   6.893   0.853   5.937 -0.4338 -0.6950 -1.4186
  169SAPS  C31219192   6.974   0.759   5.762  0.5161 -0.2761 -0.4398
  169SAPS  H12X19193   6.881   0.700   5.750 -1.7608  3.1128 -0.8179
  169SAPS  H12Y19194   7.063   0.706   5.722  1.6759  2.3689 -1.5894
  169SAPS  C31319195   6.954   0.876   5.670  1.6302 -0.6705 -0.6026
  169SAPS  H13X19196   6.916   0.961   5.730  0.1653 -1.1473 -0.8206
  169SAPS  H13Y19197   6.886   0.855   5.585 -0.9651  2.7574  0.4219
  169SAPS  C31419198   7.088   0.925   5.614  0.0999  0.8763  0.2450
  169SAPS  H14X19199   7.141   0.844   5.559 -1.6378  1.1159 -1.8888
  169SAPS  H14Y19200   7.147   0.967   5.699  0.0588  2.0802 -0.3023
  169SAPS  C31519201   7.081   1.041   5.516  0.1359  0.0624 -0.2399
  169SAPS  H15X19202   6.994   1.034   5.448  0.8270 -2.7273 -0.9791
  169SAPS  H15Y19203   7.176   1.049   5.461  1.4390  2.0570  2.0971
  169SAPS  C31619204   7.069   1.173   5.590 -0.7212  0.5280 -0.1570
  169SAPS  H16X19205   7.135   1.185   5.679 -0.7304  1.7915 -0.3106
  169SAPS  H16Y19206   6.964   1.176   5.628 -1.0587  0.7512 -1.0830
  169SAPS  C31719207   7.093   1.295   5.500 -0.0053  0.1475 -0.4480
  169SAPS  H17X19208   7.193   1.281   5.452 -1.1372  1.0572 -3.2745
  169SAPS  H17Y19209   7.106   1.387   5.561 -0.7496 -0.5075  0.7325
  169SAPS  C31819210   6.979   1.331   5.404 -0.1460  0.2145  0.5666
  169SAPS  H18X19211   6.878   1.311   5.446 -0.1526 -1.5509 -0.2213
  169SAPS  H18Y19212   6.981   1.276   5.308  0.9083  1.3009 -0.0688
  169SAPS  H18Z19213   6.982   1.438   5.376 -1.3000  0.1161  0.0337
  170SAPS     N19214   0.160   3.774   7.445  0.1071  0.5775 -0.3620
  170SAPS   HN119215   0.111   3.825   7.369 -0.2912  1.8006  0.6834
  170SAPS   HN219216   0.180   3.680   7.407 -0.1215 -0.9421  2.9523
  170SAPS   HN319217   0.093   3.750   7.521  0.7775 -0.4558 -0.0831
  170SAPS   C1219218   0.288   3.835   7.486 -0.5143 -0.1524 -0.2428
  170SAPS  H12A19219   0.266   3.938   7.509  3.6725  1.6648 -3.1986
  170SAPS   C1319220   0.350   3.776   7.615  0.5245  0.5986 -0.1450
  170SAPS  O13A19221   0.295   3.675   7.674 -0.0426 -0.3750  0.4161
  170SAPS  O13B19222   0.459   3.824   7.653  0.4394 -0.2076 -0.2630
  170SAPS   C1119223   0.390   3.843   7.364 -0.3536  0.0721 -0.3070
  170SAPS  H11A19224   0.359   3.898   7.272  2.6120 -1.1576 -2.1827
  170SAPS  H11B19225   0.398   3.743   7.316 -2.2494  1.5217 -4.0455
  170SAPS     P19226   0.555   4.041   7.398 -0.2969  0.1781 -0.2579
  170SAPS   O1319227   0.443   4.124   7.352  0.5747 -0.5373  0.4768
  170SAPS   O1419228   0.610   4.078   7.528  0.0441  0.0896 -0.0659
  170SAPS   O1219229   0.520   3.886   7.402  0.1781  0.2105  0.1736
  170SAPS   O1119230   0.678   4.048   7.303 -0.3524 -0.2799 -0.5888
  170SAPS    C119231   0.711   3.955   7.204  0.0656  0.8644  0.4662
  170SAPS    HA19232   0.771   3.874   7.250 -1.8664 -2.0039 -1.7554
  170SAPS    HB19233   0.624   3.903   7.159  1.0755  0.3707 -0.9925
  170SAPS    C219234   0.784   4.017   7.081  0.4624 -0.1615  1.2310
  170SAPS    HS19235   0.880   4.053   7.124  0.7289  0.0181  0.4990
  170SAPS   O2119236   0.706   4.130   7.030  0.0738  0.5706 -0.0014
  170SAPS   C2119237   0.774   4.235   6.993  0.5746  0.8716  0.5111
  170SAPS   O2219238   0.897   4.251   7.001  0.2324 -0.8778 -0.4481
  170SAPS   C2219239   0.673   4.327   6.929 -0.7211 -0.3691 -0.7843
  170SAPS   H2R19240   0.600   4.270   6.867 -3.0183  2.1300 -0.5885
  170SAPS   H2S19241   0.625   4.387   7.009  0.9546  0.1306 -0.0983
  170SAPS    C319242   0.800   3.915   6.970 -0.8131 -0.3954  0.5352
  170SAPS    HX19243   0.708   3.882   6.918 -0.2507  1.6170 -1.9539
  170SAPS    HY19244   0.854   3.833   7.022  1.3899  0.3742 -0.3832
  170SAPS   O3119245   0.876   3.964   6.858 -0.7080  0.7112 -0.6160
  170SAPS   C3119246   1.004   3.987   6.876 -1.3477 -0.1328  0.5300
  170SAPS   O3219247   1.072   3.965   6.977  0.4749 -0.1742 -0.1021
  170SAPS   C3219248   1.062   4.072   6.762  0.3107  0.0488 -0.4629
  170SAPS   H2X19249   1.057   4.175   6.804 -1.7074 -0.2170  0.0699
  170SAPS   H2Y19250   0.989   4.070   6.677 -0.6005 -1.4554  0.3171
  170SAPS   C2319251   0.737   4.426   6.828 -0.5579 -0.8581  0.7655
  170SAPS   H3R19252   0.835   4.460   6.867 -0.9358 -1.8109  2.6646
  170SAPS   H3S19253   0.673   4.517   6.828  0.3640 -0.1690 -1.0285
  170SAPS   C2419254   0.772   4.370   6.692 -0.1419  0.4870 -0.1658
  170SAPS   H4R19255   0.817   4.269   6.702  0.7385  1.0127  1.6778
  170SAPS   H4S19256   0.848   4.433   6.641 -0.4444  1.6573  0.7743
  170SAPS   C2519257   0.650   4.358   6.603 -0.6931 -0.0881  0.3883
  170SAPS   H5R19258   0.565   4.418   6.641 -1.0879 -0.1500 -0.3750
  170SAPS   C2619259   0.641   4.282   6.490 -0.0278 -0.4076  0.2797
  170SAPS   H6R19260   0.550   4.277   6.429  1.4638 -2.9301 -1.9417
  170SAPS   C2719261   0.756   4.200   6.430 -0.2811 -0.8563 -0.2650
  170SAPS   H7R19262   0.719   4.124   6.358  0.1046  0.4295 -1.9079
  170SAPS   H7S19263   0.810   4.145   6.510 -0.5779  2.2891  2.3028
  170SAPS   C2819264   0.866   4.275   6.359 -0.3948 -0.3595 -0.7441
  170SAPS   H8R19265   0.954   4.298   6.421  0.6461  3.3042 -3.2672
  170SAPS   C2919266   0.874   4.325   6.232  0.2543 -0.5344  0.2902
  170SAPS   H9R19267   0.963   4.378   6.194 -1.0229  1.9205  0.4821
  170SAPS  C21019268   0.776   4.304   6.121  0.5870  0.2599 -0.2371
  170SAPS  H10R19269   0.686   4.265   6.173  1.6069  1.1015  2.3310
  170SAPS  H10S19270   0.813   4.235   6.043 -0.3915  0.5278 -0.9607
  170SAPS  C21119271   0.739   4.429   6.045 -0.4320  0.0564  0.0468
  170SAPS  H11R19272   0.742   4.518   6.109  3.0537 -1.6804  2.6299
  170SAPS  C21219273   0.711   4.425   5.906  0.2460 -0.5154 -0.6042
  170SAPS  H12R19274   0.683   4.525   5.871  3.1757  1.8867  3.1151
  170SAPS  C21319275   0.707   4.306   5.813 -0.1524 -0.4847 -0.2342
  170SAPS  H13R19276   0.757   4.214   5.848 -0.1968 -0.1895  0.6162
  170SAPS  H13S19277   0.743   4.333   5.711 -2.1807 -0.1994 -0.9258
  170SAPS  C21419278   0.572   4.248   5.788 -0.4561 -0.1446 -0.2619
  170SAPS  H14R19279   0.503   4.257   5.874  0.0280 -0.3272  0.1541
  170SAPS  C21519280   0.520   4.195   5.670  0.3694 -1.3403 -0.3953
  170SAPS  H15R19281   0.419   4.155   5.685  0.4576 -1.1466  0.8067
  170SAPS  C21619282   0.591   4.176   5.544 -0.1695 -0.0622  0.1650
  170SAPS  H16R19283   0.664   4.093   5.545  0.9360  0.8619  2.0768
  170SAPS  H16S19284   0.646   4.271   5.525 -0.4377 -0.1585 -1.2632
  170SAPS  C21719285   0.511   4.159   5.413 -0.1887  0.6516  0.6181
  170SAPS  H17R19286   0.429   4.231   5.393 -1.5418 -1.2808 -1.2769
  170SAPS  H17S19287   0.462   4.059   5.415 -0.2171  0.6607  0.3253
  170SAPS  C21819288   0.601   4.150   5.284  0.0900  0.5247  0.7251
  170SAPS  H18R19289   0.534   4.117   5.201  1.5869 -0.7905 -0.0127
  170SAPS  H18S19290   0.679   4.072   5.291 -0.7387 -0.7708 -2.3940
  170SAPS  C21919291   0.671   4.281   5.258  0.4619 -0.1279  0.5629
  170SAPS  H19R19292   0.758   4.287   5.327  0.7904  1.9288  0.0388
  170SAPS  H19S19293   0.604   4.366   5.281  2.2394  1.1765  1.0760
  170SAPS  C22019294   0.718   4.294   5.113  0.6089 -0.3749  0.0414
  170SAPS  H20R19295   0.784   4.381   5.091  0.8682 -0.5965 -0.0643
  170SAPS  H20S19296   0.631   4.300   5.044 -1.0249 -2.5981  1.7584
  170SAPS  H20T19297   0.776   4.206   5.078  1.8541  0.7792 -0.9033
  170SAPS   C3319298   1.210   4.042   6.719 -0.9245 -0.0763  0.1404
  170SAPS   H3X19299   1.207   3.939   6.678  0.6895  1.1344 -3.4116
  170SAPS   H3Y19300   1.286   4.049   6.799 -0.2764  2.5451 -0.6070
  170SAPS   C3419301   1.273   4.131   6.611 -0.0135 -0.6425  0.5835
  170SAPS   H4X19302   1.378   4.104   6.591 -0.1509 -0.7639  0.0176
  170SAPS   H4Y19303   1.270   4.234   6.654  1.3786 -0.6731  0.7799
  170SAPS   C3519304   1.205   4.118   6.476  0.7012  0.0124  0.2531
  170SAPS   H5X19305   1.100   4.153   6.484  0.5964 -0.2613  0.1046
  170SAPS   H5Y19306   1.205   4.009   6.452  0.2942  0.8413 -4.3057
  170SAPS   C3619307   1.271   4.201   6.365 -0.2545 -0.5148  0.4408
  170SAPS   H6X19308   1.199   4.194   6.281 -0.5415 -0.3612  0.6742
  170SAPS   H6Y19309   1.369   4.157   6.336  0.0828  0.8459 -0.6000
  170SAPS   C3719310   1.287   4.348   6.390  0.1944  0.3935  0.3653
  170SAPS   H7X19311   1.361   4.362   6.472  0.3137 -2.6937  0.9322
  170SAPS   H7Y19312   1.187   4.388   6.417 -0.2808 -0.2057 -0.4571
  170SAPS   C3819313   1.339   4.426   6.275  0.0546 -0.5819 -0.3141
  170SAPS   H8X19314   1.423   4.366   6.234  1.6397 -0.8538  2.9908
  170SAPS   H8Y19315   1.374   4.523   6.318 -3.4030  2.0715 -2.8786
  170SAPS   C3919316   1.241   4.456   6.167  0.0522 -0.1191  0.4409
  170SAPS   H9X19317   1.147   4.503   6.204  0.3848  0.2675  0.7987
  170SAPS   H9Y19318   1.227   4.354   6.123  1.3840  0.0517 -0.4507
  170SAPS  C31019319   1.289   4.560   6.063 -0.2245 -0.6209  0.6678
  170SAPS  H10X19320   1.377   4.516   6.012 -2.2734 -3.7307 -0.4574
  170SAPS  H10Y19321   1.319   4.661   6.099  0.2178 -0.4767 -0.0970
  170SAPS  C31119322   1.181   4.591   5.959 -0.1917  0.5956 -0.1317
  170SAPS  H11X19323   1.212   4.680   5.899  1.2757  0.2078  0.0070
  170SAPS  H11Y19324   1.088   4.617   6.014 -0.9681  1.8040 -1.9030
  170SAPS  C31219325   1.142   4.481   5.864  0.2627  0.8069  0.0384
  170SAPS  H12X19326   1.069   4.516   5.788 -0.0243  0.7936  0.3010
  170SAPS  H12Y19327   1.096   4.392   5.914 -2.5606  1.1337 -1.7795
  170SAPS  C31319328   1.257   4.422   5.776 -0.7484 -1.2528 -0.2681
  170SAPS  H13X19329   1.344   4.389   5.837  0.2483  0.9814 -0.3860
  170SAPS  H13Y19330   1.310   4.504   5.722 -0.4512 -0.7907  0.7071
  170SAPS  C31419331   1.213   4.308   5.674 -1.1205  0.6243 -0.2155
  170SAPS  H14X19332   1.149   4.228   5.718 -0.1237 -0.9955 -1.6014
  170SAPS  H14Y19333   1.308   4.266   5.635  0.1989  0.1711  3.1095
  170SAPS  C31519334   1.130   4.364   5.556  0.0288  0.4530  0.6914
  170SAPS  H15X19335   1.038   4.404   5.604 -1.2990 -2.5493  0.8751
  170SAPS  H15Y19336   1.100   4.272   5.502  0.0844 -1.2107  3.3234
  170SAPS  C31619337   1.217   4.463   5.475  0.0700 -0.2817 -1.1615
  170SAPS  H16X19338   1.296   4.411   5.416  1.6330 -0.4508  0.9861
  170SAPS  H16Y19339   1.261   4.543   5.537  0.4586  0.2380 -2.0767
  170SAPS  C31719340   1.133   4.545   5.378 -0.1712 -0.1146 -0.2004
  170SAPS  H17X19341   1.192   4.622   5.324 -0.2681  0.7696  0.9162
  170SAPS  H17Y19342   1.059   4.610   5.430 -0.5326 -0.4361 -0.3132
  170SAPS  C31819343   1.078   4.458   5.264 -0.2856  0.0278  0.1475
  170SAPS  H18X19344   1.157   4.388   5.230  1.0468  1.5787 -0.0324
  170SAPS  H18Y19345   1.055   4.517   5.172  3.0665  1.5121  0.1185
  170SAPS  H18Z19346   0.991   4.399   5.299 -0.8777  0.9519  0.2817
  171SAPS     N19347   1.306   5.273   7.561 -0.3083  0.2394  0.0724
  171SAPS   HN119348   1.305   5.186   7.618 -0.9101  0.8534  1.0357
  171SAPS   HN219349   1.212   5.316   7.575  0.6260  2.0479  1.0704
  171SAPS   HN319350   1.328   5.250   7.462 -1.5864 -0.1137 -0.1504
  171SAPS   C1219351   1.406   5.366   7.617  0.5916 -1.0262  0.3202
  171SAPS  H12A19352   1.350   5.403   7.701  0.9124 -1.2778  0.6490
  171SAPS   C1319353   1.550   5.309   7.657  0.4796 -0.3244 -0.3465
  171SAPS  O13A19354   1.574   5.190   7.635 -0.4994  0.8356  0.4734
  171SAPS  O13B19355   1.606   5.365   7.755  0.8029  0.2771  0.1186
  171SAPS   C1119356   1.408   5.491   7.524 -0.3576  1.0086  0.0106
  171SAPS  H11A19357   1.468   5.468   7.434 -1.2134  0.1769 -0.3690
  171SAPS  H11B19358   1.459   5.573   7.578  1.0880  0.9718 -1.2515
  171SAPS     P19359   1.217   5.662   7.510  0.2082 -0.0286 -0.0986
  171SAPS   O1319360   1.110   5.638   7.616  0.0709  0.4037 -0.5216
  171SAPS   O1419361   1.312   5.765   7.546 -0.6069  0.5487  0.4363
  171SAPS   O1219362   1.282   5.524   7.477  0.0347  0.4081  0.3586
  171SAPS   O1119363   1.142   5.696   7.372 -0.1876 -0.6297 -0.1071
  171SAPS    C119364   1.121   5.602   7.270 -0.1595 -0.1867  0.2063
  171SAPS    HA19365   1.091   5.505   7.315 -0.5177  0.1244  0.6475
  171SAPS    HB19366   1.038   5.629   7.201  0.2268  0.3997 -0.0340
  171SAPS    C219367   1.253   5.576   7.183  0.0625  0.5786  0.7497
  171SAPS    HS19368   1.338   5.552   7.250 -0.0123  1.1956  1.0813
  171SAPS   O2119369   1.279   5.695   7.109  0.1139  0.1245 -0.3942
  171SAPS   C2119370   1.402   5.691   7.061  0.7354 -0.4884 -0.6386
  171SAPS   O2219371   1.484   5.606   7.075 -0.5484 -0.1358 -0.0030
  171SAPS   C2219372   1.427   5.830   7.001 -0.2066 -0.0932  0.1590
  171SAPS   H2R19373   1.387   5.904   7.073 -0.6973  0.5705 -0.7687
  171SAPS   H2S19374   1.537   5.844   6.999  0.0318 -0.9400  3.2085
  171SAPS    C319375   1.231   5.454   7.095  0.3578  0.1602  0.0563
  171SAPS    HX19376   1.229   5.365   7.161 -0.4656  1.1635  1.4359
  171SAPS    HY19377   1.322   5.442   7.033  1.1799 -0.2866  1.3018
  171SAPS   O3119378   1.104   5.474   7.027 -0.1554  0.1357  0.6046
  171SAPS   C3119379   1.116   5.505   6.897 -0.3008 -0.3723 -0.3777
  171SAPS   O3219380   1.220   5.534   6.836  0.2221 -0.2673 -0.3103
  171SAPS   C3219381   0.980   5.517   6.840 -0.0950  0.0980  0.4285
  171SAPS   H2X19382   0.922   5.583   6.908  1.7047  1.3216  0.8578
  171SAPS   H2Y19383   0.929   5.419   6.852  2.6649 -1.2303  2.2601
  171SAPS   C2319384   1.353   5.847   6.864 -0.0465 -0.4094 -0.5125
  171SAPS   H3R19385   1.249   5.818   6.886 -0.7676  1.6323 -1.0373
  171SAPS   H3S19386   1.408   5.786   6.789  0.6708 -1.2020  0.6425
  171SAPS   C2419387   1.355   5.996   6.813 -0.1070  0.2132  0.6859
  171SAPS   H4R19388   1.452   6.015   6.763  1.2943  0.9505  3.4688
  171SAPS   H4S19389   1.360   6.068   6.898 -1.7356 -1.9445  2.7211
  171SAPS   C2519390   1.238   6.026   6.725  0.3394 -0.5993 -0.5231
  171SAPS   H5R19391   1.146   6.039   6.784  1.9835  0.6968  1.9260
  171SAPS   C2619392   1.247   6.058   6.596  1.2188  0.3162  0.2442
  171SAPS   H6R19393   1.150   6.088   6.553  1.1045 -0.4466 -0.0463
  171SAPS   C2719394   1.365   6.052   6.504  0.0168  0.7466  0.4752
  171SAPS   H7R19395   1.436   5.982   6.552  1.5249  2.0392  0.2285
  171SAPS   H7S19396   1.420   6.149   6.503  2.5013 -0.4937 -2.8045
  171SAPS   C2819397   1.336   6.014   6.361 -0.3894 -0.7812 -0.3951
  171SAPS   H8R19398   1.285   5.917   6.352  1.3588 -2.4021  3.9983
  171SAPS   C2919399   1.373   6.079   6.250 -0.5726 -0.6754 -0.3280
  171SAPS   H9R19400   1.344   6.038   6.152  0.1941  0.2524 -0.9680
  171SAPS  C21019401   1.456   6.205   6.239 -0.2234 -0.3998  0.5164
  171SAPS  H10R19402   1.424   6.283   6.312 -1.6977  1.5286 -2.0404
  171SAPS  H10S19403   1.436   6.247   6.139  2.8499 -0.7978 -0.3808
  171SAPS  C21119404   1.616   6.188   6.253 -0.4306  0.4555 -0.3986
  171SAPS  H11R19405   1.646   6.098   6.309  0.8812  2.4318  2.2533
  171SAPS  C21219406   1.714   6.256   6.193 -0.8384  0.2922  0.1774
  171SAPS  H12R19407   1.818   6.225   6.208 -0.3479  1.5382 -0.5451
  171SAPS  C21319408   1.708   6.379   6.109 -0.0221  0.0842  0.3540
  171SAPS  H13R19409   1.637   6.361   6.026  0.1523  0.9893 -0.0034
  171SAPS  H13S19410   1.795   6.397   6.041  1.4327 -0.2435  2.0530
  171SAPS  C21419411   1.681   6.507   6.185  0.4551 -0.4090 -0.3345
  171SAPS  H14R19412   1.664   6.507   6.294  1.3558 -0.5873 -0.1896
  171SAPS  C21519413   1.662   6.631   6.138 -0.7957 -0.0604  0.5274
  171SAPS  H15R19414   1.670   6.719   6.203  0.0374 -0.1238  0.5312
  171SAPS  C21619415   1.651   6.668   5.995  0.3157  0.1924  0.6744
  171SAPS  H16R19416   1.587   6.759   5.983  0.9181  0.2377 -3.2983
  171SAPS  H16S19417   1.595   6.581   5.953 -1.0486  0.6889  1.3800
  171SAPS  C21719418   1.779   6.679   5.912 -0.1657 -0.0420 -0.4474
  171SAPS  H17R19419   1.822   6.577   5.902 -1.4868 -0.8818  1.7231
  171SAPS  H17S19420   1.849   6.748   5.963  0.8808 -0.1447 -1.6861
  171SAPS  C21819421   1.750   6.724   5.763  0.3479  0.4427 -0.4056
  171SAPS  H18R19422   1.690   6.817   5.769 -1.1846 -0.4537 -1.3586
  171SAPS  H18S19423   1.688   6.642   5.721 -1.4074  2.8250 -2.7551
  171SAPS  C21919424   1.882   6.743   5.672  0.2284  0.5515  0.2458
  171SAPS  H19R19425   1.933   6.644   5.669 -1.1165 -0.1370 -0.9354
  171SAPS  H19S19426   1.947   6.815   5.726 -0.1162  0.2918  1.0303
  171SAPS  C22019427   1.860   6.787   5.534 -0.2320 -0.7282 -0.0977
  171SAPS  H20R19428   1.961   6.801   5.489 -0.8476  1.5073 -0.9364
  171SAPS  H20S19429   1.796   6.878   5.535 -1.5778 -1.6531  0.8148
  171SAPS  H20T19430   1.811   6.712   5.469  0.2472 -0.3621 -0.9112
  171SAPS   C3319431   0.994   5.567   6.697 -0.0926 -0.1313  0.0649
  171SAPS   H3X19432   1.049   5.487   6.645  0.7165 -0.1118  0.8642
  171SAPS   H3Y19433   1.053   5.661   6.688 -1.6158  0.9791  1.0401
  171SAPS   C3419434   0.857   5.613   6.629  0.5689  0.0480 -0.3516
  171SAPS   H4X19435   0.815   5.706   6.674 -0.8367 -0.4565 -0.5496
  171SAPS   H4Y19436   0.786   5.535   6.666  0.1021  0.6800  0.1069
  171SAPS   C3519437   0.857   5.630   6.473  0.0473  0.4466 -0.1013
  171SAPS   H5X19438   0.754   5.600   6.442  0.2580  1.2939 -1.7451
  171SAPS   H5Y19439   0.927   5.563   6.418  1.0358  2.2219 -1.0947
  171SAPS   C3619440   0.893   5.776   6.439 -0.3989 -0.6590 -0.8586
  171SAPS   H6X19441   0.988   5.804   6.488 -1.3118  1.2222 -0.0427
  171SAPS   H6Y19442   0.808   5.835   6.480 -0.9881  0.0521 -2.9583
  171SAPS   C3719443   0.916   5.804   6.291  0.6944  0.1018 -0.0647
  171SAPS   H7X19444   0.819   5.804   6.238  1.0238  2.2958 -0.7707
  171SAPS   H7Y19445   0.984   5.734   6.238 -0.6078 -1.0622 -0.2290
  171SAPS   C3819446   0.965   5.944   6.260 -0.2821 -0.0033  0.5444
  171SAPS   H8X19447   1.066   5.971   6.299  0.1664 -1.0946  0.1572
  171SAPS   H8Y19448   0.893   6.025   6.287  2.2915  2.7068 -0.1248
  171SAPS   C3919449   0.990   5.960   6.105 -0.4907 -0.2000 -0.2298
  171SAPS   H9X19450   0.898   5.945   6.044  0.1911 -1.0048 -1.0744
  171SAPS   H9Y19451   1.066   5.887   6.070  0.4296  0.1562  0.9423
  171SAPS  C31019452   1.032   6.096   6.052 -0.3495 -0.5750  0.4444
  171SAPS  H10X19453   1.086   6.157   6.128 -0.7556 -0.6541  0.7969
  171SAPS  H10Y19454   0.935   6.149   6.041 -1.5811 -2.5981  1.1325
  171SAPS  C31119455   1.122   6.089   5.928 -0.1534 -0.3626 -0.6490
  171SAPS  H11X19456   1.057   6.051   5.846  1.4324 -0.0448 -2.1203
  171SAPS  H11Y19457   1.200   6.012   5.943  0.7321  0.2381 -1.9720
  171SAPS  C31219458   1.186   6.225   5.909 -0.2938  0.7796  0.1480
  171SAPS  H12X19459   1.233   6.274   5.997  0.0637 -1.3457  1.2071
  171SAPS  H12Y19460   1.106   6.286   5.862 -1.3576 -0.5984  0.1057
  171SAPS  C31319461   1.297   6.228   5.817 -0.0708 -0.3936 -0.0632
  171SAPS  H13X19462   1.258   6.191   5.720 -1.3874  1.5604 -0.3500
  171SAPS  H13Y19463   1.382   6.169   5.857 -0.7217 -0.6487  0.9926
  171SAPS  C31419464   1.348   6.377   5.803  0.5799  0.0358  0.8164
  171SAPS  H14X19465   1.403   6.397   5.898  0.7115 -0.7527  0.9079
  171SAPS  H14Y19466   1.263   6.450   5.806  0.1759 -0.2767 -1.6086
  171SAPS  C31519467   1.428   6.406   5.678  0.8195  0.0929  0.2596
  171SAPS  H15X19468   1.430   6.516   5.664  1.6947  0.1457  0.7222
  171SAPS  H15Y19469   1.367   6.365   5.595  0.1184 -0.0072  0.8180
  171SAPS  C31619470   1.578   6.366   5.671  0.5895  0.2204  0.7798
  171SAPS  H16X19471   1.581   6.255   5.679  1.0919  0.1980  0.2974
  171SAPS  H16Y19472   1.633   6.405   5.760 -1.1927  0.4701  1.8288
  171SAPS  C31719473   1.659   6.398   5.546 -0.2414 -0.1242  0.1102
  171SAPS  H17X19474   1.759   6.355   5.568  0.5572  1.7494  0.3025
  171SAPS  H17Y19475   1.669   6.508   5.538 -0.4483 -0.0291  1.1130
  171SAPS  C31819476   1.605   6.344   5.414 -0.3522  0.2769  0.2635
  171SAPS  H18X19477   1.544   6.250   5.418  1.9743 -1.3685 -0.7772
  171SAPS  H18Y19478   1.678   6.320   5.334 -0.4954  2.9260 -0.7318
  171SAPS  H18Z19479   1.534   6.415   5.368 -1.0026 -0.3698  0.2351
  172SAPS     N19480   2.266   4.568   7.586  0.4231  0.0495  0.1223
  172SAPS   HN119481   2.210   4.612   7.509  0.0469 -2.3806 -1.0876
  172SAPS   HN219482   2.201   4.501   7.632 -0.5887  2.0294  1.7393
  172SAPS   HN319483   2.284   4.637   7.662  0.9869 -0.6938  0.6728
  172SAPS   C1219484   2.378   4.494   7.530 -0.5282  0.0073  0.1722
  172SAPS  H12A19485   2.343   4.451   7.438 -3.1852  2.0222  0.1453
  172SAPS   C1319486   2.497   4.574   7.476 -0.2358 -0.3314 -0.4858
  172SAPS  O13A19487   2.502   4.698   7.481 -0.4833  0.1468  0.6358
  172SAPS  O13B19488   2.596   4.512   7.434 -0.9064 -0.6937  0.7906
  172SAPS   C1119489   2.428   4.390   7.630 -0.1293 -0.1268 -0.0355
  172SAPS  H11A19490   2.461   4.435   7.726  1.2568 -1.1304 -0.0052
  172SAPS  H11B19491   2.520   4.343   7.589  0.1867  0.3822  0.0721
  172SAPS     P19492   2.310   4.161   7.603 -0.1980  0.1638 -0.4232
  172SAPS   O1319493   2.437   4.094   7.627 -0.5022 -0.3501  0.0448
  172SAPS   O1419494   2.191   4.090   7.655 -0.7589  0.1644  0.1452
  172SAPS   O1219495   2.318   4.301   7.663  0.0965  0.4834 -0.1556
  172SAPS   O1119496   2.276   4.192   7.453  0.8828 -0.4607  0.5639
  172SAPS    C119497   2.351   4.147   7.340 -0.2410 -0.0070 -0.9960
  172SAPS    HA19498   2.447   4.110   7.381 -1.0482 -0.7440  0.3124
  172SAPS    HB19499   2.300   4.056   7.299 -0.3675  1.1631 -3.6422
  172SAPS    C219500   2.343   4.238   7.221  0.2251  0.1094  0.5812
  172SAPS    HS19501   2.356   4.345   7.250  1.5433  0.5598 -1.4214
  172SAPS   O2119502   2.215   4.224   7.156  0.1492 -0.2954 -0.0409
  172SAPS   C2119503   2.172   4.317   7.065 -0.5765  0.1076  0.8236
  172SAPS   O2219504   2.253   4.394   7.015 -0.3587 -0.2922  0.1397
  172SAPS   C2219505   2.030   4.313   7.016  0.3369 -0.5516 -0.2782
  172SAPS   H2R19506   1.983   4.215   7.036  1.5395 -0.8532  1.2594
  172SAPS   H2S19507   1.977   4.379   7.089 -2.1014 -2.7845  0.1166
  172SAPS    C319508   2.447   4.198   7.118 -0.9077  0.3708  0.0862
  172SAPS    HX19509   2.544   4.191   7.171  0.2830 -3.3495 -2.1883
  172SAPS    HY19510   2.460   4.284   7.050  0.2362  2.1930  2.4646
  172SAPS   O3119511   2.418   4.074   7.056  0.2019 -0.2552  0.4343
  172SAPS   C3119512   2.464   4.056   6.930  0.1345 -0.4622 -0.3592
  172SAPS   O3219513   2.518   4.140   6.859  0.3088 -0.4135 -0.0807
  172SAPS   C3219514   2.438   3.905   6.887 -0.1051 -0.5262 -0.7633
  172SAPS   H2X19515   2.331   3.895   6.858 -0.0054  0.9991 -1.7230
  172SAPS   H2Y19516   2.465   3.840   6.973  0.3766 -1.9608 -1.9618
  172SAPS   C2319517   2.002   4.357   6.863 -0.2260 -0.3530  0.2648
  172SAPS   H3R19518   2.061   4.450   6.846  0.9021 -1.0145  0.5254
  172SAPS   H3S19519   1.896   4.385   6.846  0.1557  0.7304 -0.5026
  172SAPS   C2419520   2.032   4.247   6.754 -0.0890  0.0668  0.8255
  172SAPS   H4R19521   1.980   4.288   6.666  0.3497  3.6087  2.0382
  172SAPS   H4S19522   1.977   4.153   6.775  0.6624 -0.4900  0.3509
  172SAPS   C2519523   2.176   4.226   6.721 -0.5741 -0.4814  0.3838
  172SAPS   H5R19524   2.241   4.237   6.809 -0.9279  0.2526  0.5681
  172SAPS   C2619525   2.234   4.209   6.604 -0.3109  0.7742 -0.1607
  172SAPS   H6R19526   2.340   4.182   6.597 -0.8016 -0.7531 -3.7325
  172SAPS   C2719527   2.162   4.217   6.472 -0.3297  0.6331 -0.4495
  172SAPS   H7R19528   2.076   4.147   6.476  1.3221 -1.4589  2.0355
  172SAPS   H7S19529   2.223   4.160   6.399 -1.5142 -1.6940  0.2623
  172SAPS   C2819530   2.118   4.362   6.433 -0.5772  0.4230  0.6865
  172SAPS   H8R19531   2.081   4.421   6.518 -1.6564  0.6880  0.0520
  172SAPS   C2919532   2.114   4.416   6.313 -0.4758 -0.2574  1.5659
  172SAPS   H9R19533   2.087   4.522   6.303 -0.0672 -0.2644  0.0439
  172SAPS  C21019534   2.148   4.333   6.192 -0.6580  0.2736 -0.8576
  172SAPS  H10R19535   2.109   4.232   6.219 -0.1734  0.6405  1.4054
  172SAPS  H10S19536   2.257   4.321   6.181 -0.4993 -0.8817  1.3326
  172SAPS  C21119537   2.091   4.406   6.080  0.1142  0.0881  0.8205
  172SAPS  H11R19538   2.040   4.502   6.095  1.5861  0.9538  0.4049
  172SAPS  C21219539   2.078   4.335   5.967 -0.1811 -0.0168 -0.5201
  172SAPS  H12R19540   2.020   4.384   5.888  2.1306  1.4410 -1.4311
  172SAPS  C21319541   2.134   4.198   5.939  0.0225 -0.1015  0.2265
  172SAPS  H13R19542   2.048   4.150   5.889 -1.6916  0.9098  2.0602
  172SAPS  H13S19543   2.164   4.136   6.027 -1.3964 -0.2335  0.6446
  172SAPS  C21419544   2.259   4.186   5.855 -0.3050  0.1578 -0.5257
  172SAPS  H14R19545   2.346   4.156   5.916 -0.5850  1.0349  0.3223
  172SAPS  C21519546   2.250   4.190   5.723 -1.0085  0.7062 -0.1131
  172SAPS  H15R19547   2.338   4.169   5.660 -1.8062  1.2850 -1.4632
  172SAPS  C21619548   2.127   4.242   5.651 -0.3830 -0.0961  0.6439
  172SAPS  H16R19549   2.125   4.352   5.661  2.2844  0.2398 -1.3926
  172SAPS  H16S19550   2.036   4.205   5.703 -1.7113  1.8224 -0.2102
  172SAPS  C21719551   2.133   4.194   5.504  0.1657 -0.5195 -0.1421
  172SAPS  H17R19552   2.232   4.200   5.455 -0.4795 -1.1486 -1.5733
  172SAPS  H17S19553   2.070   4.264   5.446  2.9496  1.3986 -1.0620
  172SAPS  C21819554   2.074   4.053   5.482 -0.3953  0.3255 -0.1752
  172SAPS  H18R19555   1.967   4.051   5.511 -0.6566  0.4470 -1.1155
  172SAPS  H18S19556   2.124   3.978   5.547 -0.5348  1.5090  1.3495
  172SAPS  C21919557   2.089   4.016   5.337 -0.3345  0.2229  0.1098
  172SAPS  H19R19558   2.197   3.998   5.324 -0.5709 -1.0914 -0.1201
  172SAPS  H19S19559   2.075   4.105   5.272  1.9539  0.4692 -0.1199
  172SAPS  C22019560   2.009   3.898   5.289 -0.0644 -0.5937  0.7101
  172SAPS  H20R19561   2.001   3.907   5.179 -1.0914  0.7176  0.8666
  172SAPS  H20S19562   1.908   3.893   5.336  0.0349 -2.1907  0.8119
  172SAPS  H20T19563   2.059   3.803   5.317  0.3248 -1.0186 -1.2865
  172SAPS   C3319564   2.526   3.859   6.772 -0.9910 -0.7729 -0.4211
  172SAPS   H3X19565   2.517   3.748   6.767 -0.8754 -0.7425 -1.3107
  172SAPS   H3Y19566   2.633   3.879   6.797 -0.8622 -3.8469  2.1887
  172SAPS   C3419567   2.484   3.910   6.631  0.4970 -0.2419 -0.2252
  172SAPS   H4X19568   2.496   4.020   6.624 -1.1074 -0.0682 -0.6015
  172SAPS   H4Y19569   2.376   3.889   6.617  0.8882 -3.6897  0.9631
  172SAPS   C3519570   2.556   3.844   6.508 -0.0502 -0.2576 -0.6070
  172SAPS   H5X19571   2.574   3.740   6.542  1.5853 -0.5016 -2.0592
  172SAPS   H5Y19572   2.662   3.876   6.494  0.4602 -0.5861  1.9218
  172SAPS   C3619573   2.477   3.844   6.380  0.0698  0.2223  0.1812
  172SAPS   H6X19574   2.449   3.948   6.353  0.3585  0.2089 -0.1776
  172SAPS   H6Y19575   2.380   3.792   6.401  0.4022 -0.2332  0.6371
  172SAPS   C3719576   2.538   3.781   6.256 -0.6050  0.5868  0.3902
  172SAPS   H7X19577   2.559   3.673   6.270  4.6400  1.2374 -0.2542
  172SAPS   H7Y19578   2.644   3.812   6.244 -0.3264 -0.5976 -0.3022
  172SAPS   C3819579   2.446   3.807   6.131 -0.1531 -0.6200 -0.0354
  172SAPS   H8X19580   2.401   3.908   6.137 -1.9295 -1.4408  1.0850
  172SAPS   H8Y19581   2.365   3.732   6.130 -0.2974 -0.4741  0.5601
  172SAPS   C3919582   2.522   3.802   6.002  0.0084 -0.4918 -0.9198
  172SAPS   H9X19583   2.596   3.718   6.004  1.1729  0.5175  0.5802
  172SAPS   H9Y19584   2.568   3.903   5.996 -1.9034  0.4377 -0.5896
  172SAPS  C31019585   2.435   3.793   5.870  0.3768  0.0704  0.4579
  172SAPS  H10X19586   2.344   3.855   5.862  0.8871  0.6912 -0.8476
  172SAPS  H10Y19587   2.388   3.692   5.877 -0.4343  0.2702 -1.5635
  172SAPS  C31119588   2.508   3.794   5.738  0.2353 -0.4174  0.5758
  172SAPS  H11X19589   2.583   3.713   5.729 -0.2310 -0.6508 -1.6826
  172SAPS  H11Y19590   2.563   3.890   5.723  0.0771 -0.2299  1.1374
  172SAPS  C31219591   2.394   3.775   5.623 -0.7593 -0.9942 -0.8255
  172SAPS  H12X19592   2.347   3.875   5.610  1.1662 -0.1297 -1.5262
  172SAPS  H12Y19593   2.310   3.709   5.654 -1.4779  0.3748  0.2982
  172SAPS  C31319594   2.453   3.747   5.481  0.2864 -0.0187 -0.8121
  172SAPS  H13X19595   2.504   3.649   5.491  0.2188 -0.0147 -0.3868
  172SAPS  H13Y19596   2.522   3.825   5.442 -1.7916  1.5791 -1.5614
  172SAPS  C31419597   2.346   3.725   5.374 -0.7696  0.1038  0.1008
  172SAPS  H14X19598   2.290   3.821   5.365 -0.7500  0.0684 -0.4147
  172SAPS  H14Y19599   2.276   3.641   5.393  0.6606 -2.3080 -4.0102
  172SAPS  C31519600   2.422   3.679   5.244 -0.2543  0.0829 -0.3833
  172SAPS  H15X19601   2.474   3.582   5.259 -0.5331  0.1828  1.4722
  172SAPS  H15Y19602   2.510   3.743   5.220  0.2043 -1.1030 -2.0176
  172SAPS  C31619603   2.311   3.677   5.140  0.0785 -0.3231 -0.2700
  172SAPS  H16X19604   2.228   3.611   5.174 -2.1126  1.7278 -1.3422
  172SAPS  H16Y19605   2.274   3.780   5.117 -1.0977 -0.4538  0.8754
  172SAPS  C31719606   2.358   3.608   5.010 -0.3572 -0.4216  0.6665
  172SAPS  H17X19607   2.269   3.582   4.950 -0.8017 -1.2784  1.6651
  172SAPS  H17Y19608   2.410   3.515   5.043  0.0300 -0.4670 -0.0458
  172SAPS  C31819609   2.474   3.681   4.933  0.2361 -0.3113 -0.0338
  172SAPS  H18X19610   2.529   3.613   4.865 -0.4947 -1.2638  0.3065
  172SAPS  H18Y19611   2.539   3.733   5.006  0.9193 -0.4801 -0.5159
  172SAPS  H18Z19612   2.442   3.769   4.872 -1.0800 -0.7381  0.0091
  173SAPS     N19613   1.235   2.821   2.791 -0.3887 -0.1637  0.3151
  173SAPS   HN119614   1.309   2.810   2.863  0.0657  1.1473  0.0681
  173SAPS   HN219615   1.281   2.860   2.707  0.3761 -1.5349  0.0663
  173SAPS   HN319616   1.152   2.870   2.831 -1.7925 -2.2213  0.1195
  173SAPS   C1219617   1.194   2.685   2.748 -0.5301  0.9389 -0.2088
  173SAPS  H12A19618   1.148   2.697   2.651  0.9060  0.4359 -0.9803
  173SAPS   C1319619   1.318   2.600   2.716  0.1846  0.0055  0.6560
  173SAPS  O13A19620   1.431   2.649   2.753 -0.6736  0.4741 -0.5209
  173SAPS  O13B19621   1.311   2.491   2.659  0.4462  0.3417  0.3675
  173SAPS   C1119622   1.107   2.630   2.861  0.0569 -0.3793 -0.3590
  173SAPS  H11A19623   1.170   2.626   2.953 -2.9103  2.0357  1.9916
  173SAPS  H11B19624   1.077   2.529   2.828 -0.6494 -0.1875 -0.3088
  173SAPS     P19625   0.870   2.655   2.957 -0.5490  0.3662 -0.0941
  173SAPS   O1319626   0.778   2.773   2.977 -0.5714 -0.0792 -0.4016
  173SAPS   O1419627   0.831   2.534   2.880  0.1088  0.0080 -0.1082
  173SAPS   O1219628   0.997   2.718   2.883 -0.4593  0.0457 -0.8602
  173SAPS   O1119629   0.933   2.615   3.091 -0.3902 -0.5568 -0.0202
  173SAPS    C119630   0.954   2.703   3.200  0.4684  0.4093  0.3378
  173SAPS    HA19631   1.020   2.786   3.167 -0.5343  1.2461  0.4247
  173SAPS    HB19632   0.860   2.747   3.239  0.1094  1.3962 -1.5385
  173SAPS    C219633   1.031   2.631   3.316  0.2225 -0.5492 -0.0240
  173SAPS    HS19634   0.966   2.552   3.357 -0.7067 -0.2918 -0.9711
  173SAPS   O2119635   1.067   2.717   3.424 -0.3678  0.3758 -0.1876
  173SAPS   C2119636   0.960   2.755   3.496  0.2874  0.3868  0.1970
  173SAPS   O2219637   0.846   2.709   3.486 -0.2603  0.0462  0.1062
  173SAPS   C2219638   1.012   2.855   3.603  0.3199  0.2819  0.3798
  173SAPS   H2R19639   1.116   2.831   3.632 -0.0807 -1.8019  0.3002
  173SAPS   H2S19640   1.006   2.956   3.558  0.3665  2.1380  4.1511
  173SAPS    C319641   1.157   2.567   3.261  0.1150  0.2249 -0.1786
  173SAPS    HX19642   1.204   2.629   3.182 -0.8682  1.0168 -0.1645
  173SAPS    HY19643   1.126   2.479   3.202  3.5794 -0.2379 -1.5518
  173SAPS   O3119644   1.246   2.532   3.375 -0.8379 -0.6210  0.0075
  173SAPS   C3119645   1.325   2.641   3.405  0.2258  0.2685  1.5601
  173SAPS   O3219646   1.340   2.741   3.337 -0.6050  0.2006  0.0845
  173SAPS   C3219647   1.367   2.611   3.547 -0.2362  0.2478  0.9197
  173SAPS   H2X19648   1.423   2.518   3.568 -0.4809  0.1773  1.2817
  173SAPS   H2Y19649   1.269   2.593   3.597 -0.8593  1.1617  0.0759
  173SAPS   C2319650   0.917   2.868   3.727 -0.4475  0.9830 -0.7434
  173SAPS   H3R19651   0.895   2.765   3.762  1.1239  0.6478 -0.6648
  173SAPS   H3S19652   0.824   2.922   3.700 -1.2162 -0.0825 -0.2966
  173SAPS   C2419653   0.984   2.949   3.849 -0.5875 -0.5894  0.0295
  173SAPS   H4R19654   0.899   2.980   3.914  1.0008  1.7038  1.1542
  173SAPS   H4S19655   1.023   3.038   3.795 -0.2065 -1.3263 -0.9330
  173SAPS   C2519656   1.099   2.885   3.929 -0.0770 -0.0308 -0.4923
  173SAPS   H5R19657   1.192   2.855   3.879  0.5862  2.0079 -0.5754
  173SAPS   C2619658   1.092   2.873   4.067  0.0947 -0.6629  0.3599
  173SAPS   H6R19659   1.178   2.830   4.120 -0.8567 -1.2923  1.4498
  173SAPS   C2719660   0.972   2.925   4.147  0.0238  0.5287  0.0372
  173SAPS   H7R19661   0.882   2.886   4.096 -0.6834  2.1312 -0.0016
  173SAPS   H7S19662   0.965   3.035   4.160  0.2140  0.6607 -0.9054
  173SAPS   C2819663   0.974   2.849   4.280 -0.3415 -0.6219  0.5695
  173SAPS   H8R19664   0.972   2.740   4.265 -0.6397 -0.4656 -0.6532
  173SAPS   C2919665   0.989   2.892   4.407 -0.5875 -0.4780  0.2690
  173SAPS   H9R19666   0.991   2.814   4.484  0.6245  0.0896  0.8357
  173SAPS  C21019667   1.005   3.034   4.451 -0.7826 -0.2494  0.2814
  173SAPS  H10R19668   0.978   3.109   4.373  1.2548  1.1993  0.8847
  173SAPS  H10S19669   1.110   3.058   4.475 -0.4097 -2.6688  1.3956
  173SAPS  C21119670   0.922   3.072   4.578 -0.1701  0.2220  0.1166
  173SAPS  H11R19671   0.817   3.097   4.557 -0.0533 -0.6827 -1.7545
  173SAPS  C21219672   0.981   3.094   4.695  0.1389  0.1911  0.2168
  173SAPS  H12R19673   0.912   3.125   4.776  0.5389 -0.5244  0.8434
  173SAPS  C21319674   1.129   3.080   4.728  0.2721 -0.7911  0.4917
  173SAPS  H13R19675   1.178   3.150   4.657 -1.1723 -1.9731 -1.8111
  173SAPS  H13S19676   1.168   2.979   4.703  2.2501  0.4087 -1.6329
  173SAPS  C21419677   1.154   3.110   4.874 -0.1728  0.1447 -0.5421
  173SAPS  H14R19678   1.072   3.088   4.945 -0.7237  0.3664 -1.1027
  173SAPS  C21519679   1.260   3.166   4.927  0.0492 -0.0939  0.1414
  173SAPS  H15R19680   1.278   3.173   5.035 -0.7726 -3.3040  0.6041
  173SAPS  C21619681   1.380   3.210   4.843 -0.2153  0.4273  0.0194
  173SAPS  H16R19682   1.350   3.264   4.750 -1.0822  0.8462  0.5328
  173SAPS  H16S19683   1.436   3.123   4.803  4.3326  2.4585  1.3822
  173SAPS  C21719684   1.486   3.278   4.929  0.3105 -0.2950 -0.2206
  173SAPS  H17R19685   1.520   3.215   5.014 -0.6708 -1.0364 -0.3517
  173SAPS  H17S19686   1.446   3.368   4.980 -3.4473  0.4893 -3.9857
  173SAPS  C21819687   1.596   3.333   4.834 -0.1047  0.1127  0.2553
  173SAPS  H18R19688   1.550   3.400   4.758 -0.3253 -0.0909  0.2111
  173SAPS  H18S19689   1.646   3.253   4.775 -1.1731 -1.0917  0.9425
  173SAPS  C21919690   1.691   3.429   4.903 -0.2490  0.0785  0.4834
  173SAPS  H19R19691   1.784   3.414   4.844  0.4635  0.5314  1.4695
  173SAPS  H19S19692   1.706   3.409   5.011 -0.1867 -2.1708  0.1128
  173SAPS  C22019693   1.643   3.574   4.887  1.5913  0.0789 -0.2979
  173SAPS  H20R19694   1.715   3.642   4.938  0.3335  1.5867 -0.4316
  173SAPS  H20S19695   1.551   3.589   4.946  1.8030 -0.4417  0.1692
  173SAPS  H20T19696   1.625   3.605   4.782  0.6110  1.5778  0.2840
  173SAPS   C3319697   1.444   2.732   3.617  0.1619 -0.1471  0.4142
  173SAPS   H3X19698   1.381   2.823   3.607  1.1615  0.3820 -1.5708
  173SAPS   H3Y19699   1.544   2.737   3.569 -0.1799 -2.6451 -0.7319
  173SAPS   C3419700   1.457   2.705   3.773  0.4630 -0.0686  0.5487
  173SAPS   H4X19701   1.504   2.604   3.779  0.6259 -0.0522 -0.3756
  173SAPS   H4Y19702   1.355   2.701   3.817  0.2396  3.0549  0.5460
  173SAPS   C3519703   1.550   2.811   3.838  0.3924  0.0200 -0.2622
  173SAPS   H5X19704   1.508   2.914   3.845 -1.3300 -0.7344  1.6327
  173SAPS   H5Y19705   1.644   2.822   3.781  0.0314 -0.0932 -0.8929
  173SAPS   C3619706   1.582   2.768   3.983 -0.1538  0.1271  0.3157
  173SAPS   H6X19707   1.627   2.668   3.966  0.3675  0.7829 -2.7315
  173SAPS   H6Y19708   1.486   2.775   4.037 -0.0876  0.8250  0.3546
  173SAPS   C3719709   1.683   2.855   4.047  0.1458  0.0043 -0.0292
  173SAPS   H7X19710   1.652   2.961   4.035  0.6058  0.1194 -0.2313
  173SAPS   H7Y19711   1.781   2.841   3.997  1.1513  1.0652  1.5555
  173SAPS   C3819712   1.694   2.829   4.196 -0.1493 -0.2760 -0.1810
  173SAPS   H8X19713   1.702   2.718   4.199 -0.5401 -0.2984  0.4120
  173SAPS   H8Y19714   1.596   2.854   4.243  1.5064  1.3777  2.6466
  173SAPS   C3919715   1.796   2.896   4.281  0.0924 -0.9160  0.0486
  173SAPS   H9X19716   1.771   3.003   4.264  1.7130 -0.8942 -2.8302
  173SAPS   H9Y19717   1.899   2.885   4.241 -0.7410 -1.9677 -1.9459
  173SAPS  C31019718   1.802   2.845   4.425  0.5275 -0.6391 -0.8135
  173SAPS  H10X19719   1.864   2.753   4.425  1.5973  0.0208  1.1226
  173SAPS  H10Y19720   1.699   2.822   4.459  0.7639 -2.0102 -0.9780
  173SAPS  C31119721   1.855   2.955   4.522 -0.0498 -0.0861 -0.2682
  173SAPS  H11X19722   1.794   3.046   4.510  0.4806  0.1024 -1.7037
  173SAPS  H11Y19723   1.948   2.989   4.472  1.0137 -0.7231  1.1910
  173SAPS  C31219724   1.863   2.921   4.666  0.5581  0.1941 -0.2324
  173SAPS  H12X19725   1.935   2.838   4.680 -0.0821 -0.2543  0.4868
  173SAPS  H12Y19726   1.764   2.885   4.702 -0.4193  0.4126 -2.5630
  173SAPS  C31319727   1.910   3.033   4.756 -0.6073 -0.4845  0.1352
  173SAPS  H13X19728   1.826   3.103   4.774 -1.0602 -1.1496  0.6377
  173SAPS  H13Y19729   1.989   3.084   4.696  0.0929 -0.5985  0.9259
  173SAPS  C31419730   1.959   2.995   4.894 -0.2153 -0.6531 -0.4578
  173SAPS  H14X19731   1.962   3.082   4.963  0.1190  0.1160 -1.4037
  173SAPS  H14Y19732   2.058   2.954   4.864 -1.3643 -1.7069 -3.1537
  173SAPS  C31519733   1.867   2.889   4.966 -0.0229 -0.4574  0.1490
  173SAPS  H15X19734   1.913   2.866   5.064 -0.5277 -2.1917  0.0104
  173SAPS  H15Y19735   1.864   2.791   4.914  0.6886 -0.3892 -0.0291
  173SAPS  C31619736   1.728   2.943   4.985  0.1674 -0.4083  0.0936
  173SAPS  H16X19737   1.675   2.946   4.888 -3.6711  1.1225  2.0360
  173SAPS  H16Y19738   1.739   3.047   5.022  1.8622 -1.3635  2.5574
  173SAPS  C31719739   1.640   2.870   5.086 -0.2706  0.1651  0.4655
  173SAPS  H17X19740   1.650   2.760   5.075  2.1820  0.2913  1.0040
  173SAPS  H17Y19741   1.538   2.904   5.059 -0.2483  1.2327  1.6240
  173SAPS  C31819742   1.649   2.927   5.227  0.3803  0.4652  0.8520
  173SAPS  H18X19743   1.578   2.877   5.297  0.0729  1.4261  1.2375
  173SAPS  H18Y19744   1.623   3.035   5.233 -0.5079  0.2088  2.1172
  173SAPS  H18Z19745   1.755   2.926   5.263  0.4762 -1.7070  0.6730
  174SAPS     N19746   2.529   6.332   2.387 -0.4570 -0.5784  0.0864
  174SAPS   HN119747   2.566   6.304   2.479 -2.8543  0.0084  1.3089
  174SAPS   HN219748   2.441   6.282   2.365 -0.8324  0.0493  0.1223
  174SAPS   HN319749   2.602   6.321   2.313  0.2194 -2.0191  0.9320
  174SAPS   C1219750   2.483   6.476   2.388 -0.1580 -0.2460  0.5808
  174SAPS  H12A19751   2.568   6.543   2.397 -1.1393  0.8155  2.5457
  174SAPS   C1319752   2.388   6.525   2.274 -0.3311 -0.1450  0.3903
  174SAPS  O13A19753   2.327   6.436   2.206  0.0709 -0.0359  0.3733
  174SAPS  O13B19754   2.368   6.644   2.263  0.2792 -0.3673 -0.4449
  174SAPS   C1119755   2.395   6.508   2.517 -0.8000 -0.3942 -0.5066
  174SAPS  H11A19756   2.309   6.438   2.510 -0.1130 -1.4662  1.1451
  174SAPS  H11B19757   2.376   6.618   2.519  2.8829  0.3807  0.8462
  174SAPS     P19758   2.387   6.486   2.785 -0.0588  0.2554 -0.1483
  174SAPS   O1319759   2.300   6.363   2.795  0.0609  0.2142  0.2298
  174SAPS   O1419760   2.482   6.498   2.894 -0.2847 -0.2986 -0.3586
  174SAPS   O1219761   2.465   6.473   2.638  0.4019 -0.6904  0.0333
  174SAPS   O1119762   2.294   6.612   2.763  0.2208 -0.3128  0.2385
  174SAPS    C119763   2.366   6.740   2.760 -0.0418 -0.2824  0.2362
  174SAPS    HA19764   2.476   6.733   2.752 -0.0788 -0.8688  0.2307
  174SAPS    HB19765   2.330   6.790   2.667 -0.4627 -0.9086  0.0509
  174SAPS    C219766   2.341   6.839   2.875 -0.1094  0.4081  0.0083
  174SAPS    HS19767   2.401   6.931   2.856 -0.5930  0.9242  0.8800
  174SAPS   O2119768   2.374   6.774   3.003 -0.2272  0.4159 -0.4954
  174SAPS   C2119769   2.481   6.822   3.065  0.1885 -0.2342  0.4873
  174SAPS   O2219770   2.550   6.915   3.021 -0.0443 -0.5488  0.5266
  174SAPS   C2219771   2.510   6.743   3.196  0.2664 -0.2136  0.0101
  174SAPS   H2R19772   2.411   6.703   3.227 -0.1257  0.8286  0.1445
  174SAPS   H2S19773   2.577   6.662   3.159  1.9765  1.2498 -0.2132
  174SAPS    C319774   2.190   6.878   2.867  0.1618 -0.0978  0.0358
  174SAPS    HX19775   2.123   6.791   2.888 -1.1778  0.9827  0.3790
  174SAPS    HY19776   2.178   6.919   2.764  1.4000  0.3515  0.0601
  174SAPS   O3119777   2.168   6.978   2.973  0.5226 -0.3333 -0.1348
  174SAPS   C3119778   2.039   6.994   3.007  0.4929  0.3902 -0.3291
  174SAPS   O3219779   1.946   6.935   2.957 -0.0642  0.4216  0.0268
  174SAPS   C3219780   2.039   7.085   3.131 -0.6332  0.9523  0.4580
  174SAPS   H2X19781   2.024   7.189   3.094 -2.4046  0.3378 -0.6684
  174SAPS   H2Y19782   2.134   7.076   3.187 -0.8437  3.1895  1.2674
  174SAPS   C2319783   2.559   6.817   3.318 -0.3507 -0.1995 -0.0795
  174SAPS   H3R19784   2.655   6.868   3.293  0.3858 -1.0813  0.8914
  174SAPS   H3S19785   2.597   6.744   3.392 -0.3711  0.0974  0.2260
  174SAPS   C2419786   2.455   6.904   3.379  0.1471 -0.1109 -0.7191
  174SAPS   H4R19787   2.352   6.862   3.376  0.1029 -0.2624  1.5264
  174SAPS   H4S19788   2.460   6.988   3.306  2.9239 -0.3618 -0.9206
  174SAPS   C2519789   2.498   6.950   3.518  0.0497 -0.3332 -0.2552
  174SAPS   H5R19790   2.601   6.990   3.516 -0.2979  0.6912 -3.3259
  174SAPS   C2619791   2.446   6.918   3.640  0.6981 -0.6249  0.2140
  174SAPS   H6R19792   2.484   6.970   3.728  1.9083 -1.1707  0.0301
  174SAPS   C2719793   2.310   6.849   3.667  0.5882 -0.0214 -0.6446
  174SAPS   H7R19794   2.320   6.784   3.756  2.2777  0.3491 -0.5437
  174SAPS   H7S19795   2.291   6.787   3.576  1.3844 -2.8101  0.9607
  174SAPS   C2819796   2.200   6.955   3.691  0.0366 -0.0272  0.0375
  174SAPS   H8R19797   2.210   7.042   3.624  0.0105 -1.1842 -1.5434
  174SAPS   C2919798   2.104   6.936   3.788  0.2294 -0.7775 -0.0401
  174SAPS   H9R19799   2.031   7.016   3.809  1.1752 -0.3220  1.6964
  174SAPS  C21019800   2.083   6.817   3.873  0.7494 -0.4527 -0.0754
  174SAPS  H10R19801   2.113   6.728   3.815  0.3714  0.3569 -1.5618
  174SAPS  H10S19802   1.973   6.802   3.871  0.7305 -0.4999  0.8336
  174SAPS  C21119803   2.137   6.806   4.009 -0.5871  0.3971  0.3493
  174SAPS  H11R19804   2.243   6.778   4.013 -0.5053  0.4195 -1.1223
  174SAPS  C21219805   2.076   6.829   4.128  0.9940  0.8880  0.5176
  174SAPS  H12R19806   2.130   6.821   4.224  0.0450 -0.9616  0.9259
  174SAPS  C21319807   1.930   6.860   4.147 -0.7100 -0.1978 -0.5251
  174SAPS  H13R19808   1.881   6.892   4.053  0.1499 -0.6730 -1.1527
  174SAPS  H13S19809   1.928   6.947   4.216  0.5138 -0.5887  0.0399
  174SAPS  C21419810   1.861   6.750   4.222 -0.2654  0.2787  0.0044
  174SAPS  H14R19811   1.857   6.652   4.172  1.4413  0.0550  0.2689
  174SAPS  C21519812   1.768   6.760   4.327 -0.6173 -0.7955  0.3009
  174SAPS  H15R19813   1.709   6.669   4.344 -2.1097  0.3811  1.7353
  174SAPS  C21619814   1.734   6.888   4.411  0.1532  0.1586  1.1802
  174SAPS  H16R19815   1.625   6.899   4.391  0.5873  0.3340 -1.6058
  174SAPS  H16S19816   1.784   6.986   4.396  2.3736 -0.8039  1.9230
  174SAPS  C21719817   1.769   6.857   4.554 -0.5209  0.7666 -0.6018
  174SAPS  H17R19818   1.710   6.768   4.587  1.6152 -0.3466  0.4442
  174SAPS  H17S19819   1.748   6.947   4.615  0.5607  0.3777  0.4051
  174SAPS  C21819820   1.916   6.813   4.579  0.0307 -0.4968 -0.3724
  174SAPS  H18R19821   1.986   6.867   4.512  0.2595  0.0330  0.2847
  174SAPS  H18S19822   1.926   6.707   4.545  1.7705 -0.9173  1.2477
  174SAPS  C21919823   1.957   6.814   4.730 -0.1579 -0.4323  0.5697
  174SAPS  H19R19824   1.883   6.753   4.786  0.7656 -2.6836 -0.5149
  174SAPS  H19S19825   1.968   6.914   4.776 -0.3114 -0.7604  1.3324
  174SAPS  C22019826   2.096   6.736   4.754  0.6109  0.7279  0.0572
  174SAPS  H20R19827   2.106   6.702   4.860  2.8731  1.4752  0.1293
  174SAPS  H20S19828   2.176   6.808   4.726 -0.1100  1.0383 -1.3183
  174SAPS  H20T19829   2.104   6.656   4.678 -0.9153 -0.7474  1.3459
  174SAPS   C3319830   1.917   7.046   3.213  0.2515  0.6434 -0.2289
  174SAPS   H3X19831   1.921   6.938   3.237  0.0207  0.6286 -0.2559
  174SAPS   H3Y19832   1.823   7.063   3.156 -0.8889 -0.4892  1.2594
  174SAPS   C3419833   1.904   7.128   3.346 -0.3906 -0.3770  0.1332
  174SAPS   H4X19834   1.917   7.237   3.331 -1.4327 -0.2306  0.2207
  174SAPS   H4Y19835   1.992   7.082   3.395 -0.6454 -2.4684 -1.2502
  174SAPS   C3519836   1.778   7.108   3.435  0.2963 -0.9953  0.2692
  174SAPS   H5X19837   1.773   6.998   3.451  4.7383 -1.3762  0.3938
  174SAPS   H5Y19838   1.684   7.148   3.393  1.2871  0.9698 -0.2305
  174SAPS   C3619839   1.777   7.163   3.575 -0.6314 -0.2503 -0.5891
  174SAPS   H6X19840   1.794   7.273   3.575 -0.0666 -0.3338 -1.2580
  174SAPS   H6Y19841   1.866   7.120   3.625 -0.1770 -1.4561 -2.3327
  174SAPS   C3719842   1.651   7.122   3.654 -0.5752 -0.0211 -0.0865
  174SAPS   H7X19843   1.645   7.011   3.655 -1.7557  0.0377  0.0355
  174SAPS   H7Y19844   1.569   7.167   3.594  0.0185 -0.0056 -0.9036
  174SAPS   C3819845   1.630   7.187   3.792  0.0990 -0.5270  0.0069
  174SAPS   H8X19846   1.526   7.177   3.830  0.3523  1.0126  1.2508
  174SAPS   H8Y19847   1.660   7.294   3.794  2.0638 -1.0156  2.3139
  174SAPS   C3919848   1.731   7.137   3.894 -1.1704 -0.1532  0.2637
  174SAPS   H9X19849   1.833   7.163   3.857 -0.8480  0.3397  1.4410
  174SAPS   H9Y19850   1.722   7.027   3.913  1.6568 -0.3618  0.9041
  174SAPS  C31019851   1.718   7.209   4.025 -0.1373  0.4371  0.2661
  174SAPS  H10X19852   1.732   7.319   4.015  2.0556  0.0699 -1.4886
  174SAPS  H10Y19853   1.801   7.166   4.085 -0.6847 -1.5801 -0.3417
  174SAPS  C31119854   1.589   7.184   4.101 -0.3940  0.1633 -0.2239
  174SAPS  H11X19855   1.557   7.078   4.090 -1.1679  0.0619  2.3122
  174SAPS  H11Y19856   1.513   7.255   4.062  1.1897  3.0647  1.6237
  174SAPS  C31219857   1.610   7.208   4.245 -0.0227  0.0048 -1.2525
  174SAPS  H12X19858   1.625   7.314   4.275  1.4975 -1.1612  2.7238
  174SAPS  H12Y19859   1.701   7.149   4.269  0.2875  0.8251 -0.3439
  174SAPS  C31319860   1.485   7.159   4.326 -0.4088 -0.6861 -0.7148
  174SAPS  H13X19861   1.449   7.058   4.295  0.0910 -0.8269 -0.8430
  174SAPS  H13Y19862   1.395   7.223   4.319 -0.3870 -0.5220  0.2880
  174SAPS  C31419863   1.510   7.161   4.479 -0.0201 -0.1776  0.0967
  174SAPS  H14X19864   1.507   7.268   4.508  2.8130  0.0072  0.0508
  174SAPS  H14Y19865   1.608   7.115   4.506 -0.3361  1.3234  4.5461
  174SAPS  C31519866   1.394   7.084   4.545 -0.3838  1.4095 -0.6358
  174SAPS  H15X19867   1.380   6.985   4.497  4.1248 -0.8491  2.0262
  174SAPS  H15Y19868   1.304   7.146   4.528 -0.2981  1.2058 -1.9677
  174SAPS  C31619869   1.420   7.059   4.698 -0.7216 -0.3155  0.2043
  174SAPS  H16X19870   1.401   7.157   4.746  0.9269  0.9595 -1.5952
  174SAPS  H16Y19871   1.525   7.025   4.711 -1.2002 -1.3754  1.5822
  174SAPS  C31719872   1.327   6.943   4.757 -0.1574  0.2163  0.1407
  174SAPS  H17X19873   1.366   6.850   4.710  0.4327  0.1475  0.7512
  174SAPS  H17Y19874   1.218   6.963   4.746  0.0467  1.0299 -0.5260
  174SAPS  C31819875   1.347   6.928   4.910  0.1901  0.3598  0.0476
  174SAPS  H18X19876   1.257   6.883   4.957  1.8843 -0.1844  3.0063
  174SAPS  H18Y19877   1.359   7.028   4.956  1.2411 -0.1662  0.9782
  174SAPS  H18Z19878   1.443   6.875   4.926 -0.3569 -0.4104  0.8573
  175SAPS     N19879   6.351   5.080   2.372 -0.5150  0.2772 -0.1313
  175SAPS   HN119880   6.414   5.082   2.290 -0.2157  0.2792  0.0953
  175SAPS   HN219881   6.407   5.074   2.459  1.0819 -3.5387 -1.1926
  175SAPS   HN319882   6.292   4.994   2.373 -1.2802  0.7843  0.8940
  175SAPS   C1219883   6.256   5.201   2.355  0.4237 -0.1469 -0.1538
  175SAPS  H12A19884   6.310   5.295   2.359  2.4150 -1.1907 -1.0967
  175SAPS   C1319885   6.202   5.202   2.207 -0.4698 -0.5556  0.3688
  175SAPS  O13A19886   6.231   5.107   2.130  0.4681  0.3027  0.7618
  175SAPS  O13B19887   6.121   5.292   2.176  0.5737  0.0592 -0.0322
  175SAPS   C1119888   6.136   5.200   2.451  0.7135 -0.0478  0.1505
  175SAPS  H11A19889   6.077   5.112   2.417 -1.5099  1.7480 -0.8865
  175SAPS  H11B19890   6.066   5.286   2.451  1.1562  0.3228  0.8692
  175SAPS     P19891   6.248   5.317   2.669 -0.4188  0.0170  0.0548
  175SAPS   O1319892   6.304   5.264   2.798 -0.2618  0.3484 -0.1956
  175SAPS   O1419893   6.339   5.398   2.592 -0.0353  0.4545  0.0378
  175SAPS   O1219894   6.191   5.194   2.585 -0.3053 -0.5970 -0.0598
  175SAPS   O1119895   6.122   5.414   2.700  0.2243 -0.2927  0.1433
  175SAPS    C119896   6.010   5.386   2.783 -0.0457  0.0995  0.3854
  175SAPS    HA19897   5.924   5.446   2.745  1.4389  2.2233  0.2336
  175SAPS    HB19898   5.977   5.280   2.779  0.7451 -0.2037  1.3473
  175SAPS    C219899   6.035   5.440   2.927  0.5044 -0.6117  0.6835
  175SAPS    HS19900   6.110   5.373   2.973  2.0051  0.2020 -0.4970
  175SAPS   O2119901   5.910   5.437   3.008  0.1206 -0.3203  0.3714
  175SAPS   C2119902   5.888   5.317   3.043  0.5876  0.5535 -0.4520
  175SAPS   O2219903   5.944   5.211   3.004  0.5219 -0.8348 -0.3218
  175SAPS   C2219904   5.794   5.314   3.165 -0.7444 -0.6590  0.0489
  175SAPS   H2R19905   5.689   5.310   3.128 -0.7836 -0.3959  0.1236
  175SAPS   H2S19906   5.815   5.220   3.220  2.0074 -0.2294 -0.1372
  175SAPS    C319907   6.099   5.585   2.932  0.0108  0.4233  0.6007
  175SAPS    HX19908   6.016   5.651   2.901 -1.7963 -1.5646  0.9555
  175SAPS    HY19909   6.183   5.597   2.860 -1.9157  1.6888 -1.5693
  175SAPS   O3119910   6.131   5.620   3.069  0.1316 -0.6165 -0.5282
  175SAPS   C3119911   6.247   5.564   3.110  0.1591  0.5453 -0.1129
  175SAPS   O3219912   6.327   5.504   3.038 -0.3071  0.7034 -1.1540
  175SAPS   C3219913   6.268   5.580   3.257  0.8901 -0.2698 -0.0072
  175SAPS   H2X19914   6.186   5.523   3.305  0.7742 -2.2682 -2.3771
  175SAPS   H2Y19915   6.257   5.688   3.283  1.8957 -0.1165 -0.1975
  175SAPS   C2319916   5.818   5.430   3.261  0.2637 -0.8842 -0.4212
  175SAPS   H3R19917   5.772   5.522   3.220 -2.0732 -1.4626  0.7624
  175SAPS   H3S19918   5.924   5.450   3.290 -0.3700 -1.2670  2.4393
  175SAPS   C2419919   5.748   5.419   3.393  0.7898 -0.2916  0.2120
  175SAPS   H4R19920   5.642   5.402   3.365  0.5082  0.3119  0.8840
  175SAPS   H4S19921   5.756   5.518   3.443  0.4138  0.5853 -1.3811
  175SAPS   C2519922   5.793   5.310   3.480 -1.2659 -0.3245  0.5318
  175SAPS   H5R19923   5.754   5.209   3.462 -1.2339 -0.1713 -0.4448
  175SAPS   C2619924   5.880   5.326   3.584 -0.0623 -0.6023 -0.4043
  175SAPS   H6R19925   5.905   5.234   3.639  0.4954 -2.4982 -3.5963
  175SAPS   C2719926   5.951   5.452   3.620  0.2063 -0.0885  0.2015
  175SAPS   H7R19927   5.903   5.501   3.707 -0.2392  0.8631 -0.5592
  175SAPS   H7S19928   5.943   5.521   3.533 -1.5515 -2.1215 -1.3745
  175SAPS   C2819929   6.083   5.395   3.657  0.5957 -1.0645 -0.3093
  175SAPS   H8R19930   6.144   5.348   3.579  2.6293  0.1564  0.4591
  175SAPS   C2919931   6.147   5.413   3.783 -0.0933  0.1754  0.0288
  175SAPS   H9R19932   6.250   5.376   3.792 -1.0334 -2.0665  3.3709
  175SAPS  C21019933   6.099   5.485   3.902  0.2468  0.3177  0.7045
  175SAPS  H10R19934   6.097   5.414   3.987  0.9904 -0.7368 -0.1288
  175SAPS  H10S19935   5.996   5.526   3.901  1.3533  3.3840  0.6150
  175SAPS  C21119936   6.196   5.600   3.934 -0.9578  0.0131 -0.0692
  175SAPS  H11R19937   6.216   5.666   3.848 -2.3482 -0.0256 -0.4559
  175SAPS  C21219938   6.288   5.603   4.036  0.2763  0.1136  0.5014
  175SAPS  H12R19939   6.349   5.695   4.042  0.0583  0.3297 -0.4270
  175SAPS  C21319940   6.284   5.512   4.165  0.2093  0.5202  0.0426
  175SAPS  H13R19941   6.267   5.403   4.149 -1.0959  0.3913  2.0199
  175SAPS  H13S19942   6.194   5.552   4.216  1.0032  2.5622 -0.0371
  175SAPS  C21419943   6.393   5.529   4.267 -0.1515  0.8741  0.5389
  175SAPS  H14R19944   6.452   5.619   4.246 -0.6669  0.9233 -0.7998
  175SAPS  C21519945   6.423   5.439   4.366 -0.3507 -0.6239  0.6128
  175SAPS  H15R19946   6.499   5.459   4.444 -1.8961  1.2648  1.7394
  175SAPS  C21619947   6.347   5.310   4.384  0.3719  0.2633 -1.0449
  175SAPS  H16R19948   6.419   5.235   4.346  0.0886 -0.7931  0.4320
  175SAPS  H16S19949   6.257   5.306   4.318 -1.2953  1.2474  1.0663
  175SAPS  C21719950   6.309   5.268   4.532  0.2943 -0.3446  0.4142
  175SAPS  H17R19951   6.229   5.338   4.564 -1.3861 -0.6618 -2.6871
  175SAPS  H17S19952   6.395   5.281   4.601  0.2110 -1.9466  0.8549
  175SAPS  C21819953   6.260   5.121   4.538 -0.4389  0.0214 -0.2873
  175SAPS  H18R19954   6.342   5.053   4.507 -1.7635 -1.6502 -0.2782
  175SAPS  H18S19955   6.174   5.100   4.471  0.1604 -1.2858 -0.6692
  175SAPS  C21919956   6.213   5.079   4.683  0.5608  0.1416 -0.2266
  175SAPS  H19R19957   6.130   5.145   4.718 -0.4977 -1.0770 -0.3799
  175SAPS  H19S19958   6.294   5.091   4.758  0.2157  0.7381  0.0614
  175SAPS  C22019959   6.163   4.932   4.690 -0.0905 -0.3742 -0.0409
  175SAPS  H20R19960   6.067   4.918   4.636 -0.7905  0.5391  0.9172
  175SAPS  H20S19961   6.133   4.903   4.793 -3.6221  1.1128 -0.5249
  175SAPS  H20T19962   6.229   4.857   4.642 -2.5505 -1.4735 -1.8696
  175SAPS   C3319963   6.406   5.540   3.306  0.3986 -0.2521 -0.3276
  175SAPS   H3X19964   6.479   5.568   3.227 -0.8283  1.5967 -0.8693
  175SAPS   H3Y19965   6.407   5.433   3.334 -1.5582 -0.2545 -0.0844
  175SAPS   C3419966   6.451   5.610   3.434  0.1388 -0.1816  0.0264
  175SAPS   H4X19967   6.370   5.584   3.506 -3.8123  1.2879 -3.4944
  175SAPS   H4Y19968   6.443   5.719   3.419  0.0128 -0.2558 -0.4545
  175SAPS   C3519969   6.593   5.580   3.464  0.4154  0.4175  0.9191
  175SAPS   H5X19970   6.625   5.644   3.549 -0.5916 -0.9280  2.3633
  175SAPS   H5Y19971   6.657   5.595   3.374  0.2541 -3.7613 -0.0775
  175SAPS   C3619972   6.624   5.433   3.500  0.5935  0.1742  0.0440
  175SAPS   H6X19973   6.729   5.423   3.534  1.0931  0.1118 -1.4605
  175SAPS   H6Y19974   6.600   5.373   3.410 -1.4087 -0.5592  1.0228
  175SAPS   C3719975   6.540   5.382   3.614  0.2343 -0.5289  0.0486
  175SAPS   H7X19976   6.554   5.272   3.611  1.7008 -0.3919 -3.2984
  175SAPS   H7Y19977   6.430   5.397   3.609 -0.2308 -2.4217  2.6669
  175SAPS   C3819978   6.584   5.446   3.746 -0.2170 -0.3068 -0.1492
  175SAPS   H8X19979   6.521   5.534   3.772 -1.5437 -1.0614 -0.7321
  175SAPS   H8Y19980   6.690   5.473   3.726 -0.4545  0.5534 -0.2827
  175SAPS   C3919981   6.592   5.349   3.864  0.1679  0.2665 -0.3171
  175SAPS   H9X19982   6.647   5.257   3.832  0.9829  0.9952 -1.0779
  175SAPS   H9Y19983   6.496   5.312   3.905  0.1060  0.6671 -0.1004
  175SAPS  C31019984   6.670   5.402   3.981 -0.2118 -0.0429  0.6743
  175SAPS  H10X19985   6.635   5.498   4.023 -0.6191  0.0075  0.2212
  175SAPS  H10Y19986   6.775   5.424   3.954 -1.2710  4.1347 -0.7715
  175SAPS  C31119987   6.675   5.314   4.113 -0.0912 -0.9034 -0.1198
  175SAPS  H11X19988   6.704   5.208   4.100 -1.3200 -1.1662 -0.8044
  175SAPS  H11Y19989   6.574   5.303   4.157  0.0373  0.0610  0.4402
  175SAPS  C31219990   6.749   5.384   4.227  0.6174 -0.6214  0.0708
  175SAPS  H12X19991   6.710   5.351   4.326  0.0911  2.2734  0.9420
  175SAPS  H12Y19992   6.713   5.489   4.239  0.2993 -0.8505  1.3195
  175SAPS  C31319993   6.900   5.380   4.220 -0.4378 -0.3907  0.1172
  175SAPS  H13X19994   6.935   5.439   4.308 -0.2366  0.2569 -0.3901
  175SAPS  H13Y19995   6.928   5.435   4.128  1.3292  1.1668  1.4791
  175SAPS  C31419996   6.964   5.243   4.237  0.5680  0.2906  0.6432
  175SAPS  H14X19997   6.930   5.187   4.147  1.0908  0.1045  0.5598
  175SAPS  H14Y19998   6.919   5.199   4.328  0.5693  0.4115  0.7021
  175SAPS  C31519999   7.115   5.230   4.245 -0.4518  1.0692 -0.0858
  175SAPS  H15X20000   7.153   5.296   4.325 -2.3275  0.1035  1.6710
  175SAPS  H15Y20001   7.157   5.277   4.153 -2.1007 -0.4919 -1.7097
  175SAPS  C31620002   7.163   5.082   4.266 -1.1054 -0.4617 -0.3739
  175SAPS  H16X20003   7.271   5.079   4.240 -1.2941  1.3470 -1.5382
  175SAPS  H16Y20004   7.111   5.021   4.190 -1.3985  0.7188 -1.1475
  175SAPS  C31720005   7.123   5.012   4.402 -0.0177 -0.1136  0.2369
  175SAPS  H17X20006   7.158   4.909   4.381 -0.4044 -0.6413  2.0275
  175SAPS  H17Y20007   7.012   5.007   4.404 -0.1576  1.7280 -0.7430
  175SAPS  C31820008   7.181   5.068   4.533  0.0072  0.0884 -0.3485
  175SAPS  H18X20009   7.135   5.015   4.619 -2.9767 -1.2488 -2.5815
  175SAPS  H18Y20010   7.155   5.174   4.549  2.7122  0.6185  1.1079
  175SAPS  H18Z20011   7.291   5.062   4.543 -0.0823  0.6961  1.3976
  176SAPS     N20012   4.619   4.062   3.143  0.3895  0.1935 -0.0408
  176SAPS   HN120013   4.669   4.049   3.233  1.2072  0.3194 -0.4667
  176SAPS   HN220014   4.644   4.156   3.106  0.9997  0.7109  1.5940
  176SAPS   HN320015   4.518   4.052   3.167  0.7216  0.2483  1.4424
  176SAPS   C1220016   4.669   3.970   3.044 -0.1116 -0.2198 -0.3084
  176SAPS  H12A20017   4.591   3.897   3.031 -1.5578  1.4478 -1.5641
  176SAPS   C1320018   4.686   4.035   2.898 -0.3140  0.4942 -0.4772
  176SAPS  O13A20019   4.646   4.158   2.887 -0.3352  0.0047  0.3681
  176SAPS  O13B20020   4.729   3.966   2.805 -0.8579  0.5786  0.7490
  176SAPS   C1120021   4.808   3.919   3.076 -0.3362  0.0726  0.0836
  176SAPS  H11A20022   4.876   4.006   3.063 -0.4692  0.2299  0.4108
  176SAPS  H11B20023   4.846   3.843   3.004  0.6791  0.6289  0.0272
  176SAPS     P20024   4.959   3.859   3.284  0.1970  0.5833  0.4038
  176SAPS   O1320025   4.994   3.714   3.273  0.1380 -0.7587 -0.3364
  176SAPS   O1420026   5.049   3.955   3.218  0.0640  0.5407  0.0756
  176SAPS   O1220027   4.819   3.873   3.210  0.9791 -0.2560  0.2943
  176SAPS   O1120028   4.934   3.904   3.431  0.5409 -0.3528  0.4503
  176SAPS    C120029   5.044   3.951   3.508  0.1922  0.9421 -0.4551
  176SAPS    HA20030   5.123   3.992   3.443 -0.2289  1.3295 -0.7262
  176SAPS    HB20031   5.012   4.032   3.577 -0.8500  1.2828 -1.3137
  176SAPS    C220032   5.111   3.839   3.590  0.4629  0.4343 -0.7408
  176SAPS    HS20033   5.119   3.749   3.526 -1.1745 -1.5710  1.6871
  176SAPS   O2120034   5.032   3.810   3.712 -0.9393  0.0876 -0.4811
  176SAPS   C2120035   5.074   3.692   3.764  0.6257  0.2674  0.7563
  176SAPS   O2220036   5.155   3.616   3.709  0.1801 -0.3351 -0.4357
  176SAPS   C2220037   4.993   3.662   3.892 -0.1946  0.2152 -0.2881
  176SAPS   H2R20038   5.053   3.715   3.968 -1.2446  1.1370 -0.0792
  176SAPS   H2S20039   4.888   3.697   3.880  0.1507  1.4677  0.1644
  176SAPS    C320040   5.259   3.878   3.622  0.1691 -0.2145  0.6596
  176SAPS    HX20041   5.293   3.887   3.517 -2.4708  1.1764 -0.1781
  176SAPS    HY20042   5.303   3.794   3.680 -1.2594 -1.0959  0.5255
  176SAPS   O3120043   5.272   4.005   3.698 -0.1991  0.7628 -0.3018
  176SAPS   C3120044   5.267   3.987   3.838  0.0055  0.1336 -0.4934
  176SAPS   O3220045   5.285   3.883   3.893  0.6525  0.2296  0.2780
  176SAPS   C3220046   5.251   4.129   3.904 -0.3245 -0.2118  0.6613
  176SAPS   H2X20047   5.169   4.177   3.846 -1.0080  0.4816  2.1697
  176SAPS   H2Y20048   5.347   4.182   3.887 -0.2404 -0.6017 -0.1776
  176SAPS   C2320049   5.010   3.515   3.940 -0.8965 -0.4533  0.1014
  176SAPS   H3R20050   5.114   3.503   3.978 -0.3097  1.9177 -0.5810
  176SAPS   H3S20051   4.981   3.449   3.855  1.3612 -0.7360 -0.5093
  176SAPS   C2420052   4.915   3.475   4.060  0.0869 -0.9908  0.2147
  176SAPS   H4R20053   4.922   3.365   4.077  1.2881 -0.9172  0.2811
  176SAPS   H4S20054   4.811   3.496   4.028  0.7959  2.9066 -0.0085
  176SAPS   C2520055   4.945   3.541   4.191 -0.3105 -0.4221 -0.4362
  176SAPS   H5R20056   5.048   3.524   4.226 -0.2313  2.5560  1.0319
  176SAPS   C2620057   4.859   3.614   4.267 -0.0003  0.0444  0.7785
  176SAPS   H6R20058   4.885   3.648   4.369 -1.5258  1.9403  0.5901
  176SAPS   C2720059   4.713   3.645   4.236  0.3367  0.4515 -0.2167
  176SAPS   H7R20060   4.649   3.609   4.319  0.7185 -0.4999 -0.3190
  176SAPS   H7S20061   4.669   3.578   4.158  0.2062 -1.7437  1.6421
  176SAPS   C2820062   4.707   3.797   4.219  0.1810  0.0724  0.0302
  176SAPS   H8R20063   4.750   3.837   4.126 -0.3088  0.4408 -0.0405
  176SAPS   C2920064   4.653   3.888   4.304  0.0746  0.1694  0.4066
  176SAPS   H9R20065   4.671   3.994   4.281 -1.1955  0.0497 -1.2856
  176SAPS  C21020066   4.578   3.868   4.434  0.0979 -0.0654 -0.5729
  176SAPS  H10R20067   4.532   3.767   4.441  2.1278 -1.0315 -0.2327
  176SAPS  H10S20068   4.495   3.941   4.436 -0.2769 -0.4752 -1.1056
  176SAPS  C21120069   4.645   3.895   4.575  0.1962  0.0275  0.3561
  176SAPS  H11R20070   4.669   3.807   4.636  0.2302 -0.5939 -0.5303
  176SAPS  C21220071   4.687   4.006   4.623 -0.0423 -0.3202 -0.3964
  176SAPS  H12R20072   4.731   3.984   4.721 -0.0404  0.2336 -0.2747
  176SAPS  C21320073   4.670   4.151   4.574 -0.4677  0.1904  0.0885
  176SAPS  H13R20074   4.564   4.180   4.589 -0.8700  0.0652 -2.0875
  176SAPS  H13S20075   4.698   4.157   4.467  1.0262 -0.3129  0.4306
  176SAPS  C21420076   4.769   4.239   4.639  0.6688 -0.4375 -0.7361
  176SAPS  H14R20077   4.876   4.237   4.611  1.4958 -1.5302  2.0868
  176SAPS  C21520078   4.725   4.341   4.714 -0.2275  0.6613 -0.0729
  176SAPS  H15R20079   4.790   4.416   4.762 -2.0388  2.1329  0.1892
  176SAPS  C21620080   4.583   4.360   4.754 -0.0536  0.1802  0.5916
  176SAPS  H16R20081   4.512   4.275   4.760  0.7739 -0.5679  0.0145
  176SAPS  H16S20082   4.542   4.419   4.669  1.6179  1.0793  0.3677
  176SAPS  C21720083   4.568   4.436   4.890  0.2479 -0.3563  0.6657
  176SAPS  H17R20084   4.473   4.494   4.891 -0.2011 -1.0734  1.7300
  176SAPS  H17S20085   4.645   4.515   4.891  0.5633 -0.5453 -1.7825
  176SAPS  C21820086   4.591   4.345   5.012  0.7503  0.5623 -0.3628
  176SAPS  H18R20087   4.701   4.331   5.016  0.4908 -1.8122 -0.4984
  176SAPS  H18S20088   4.548   4.245   4.992 -0.9416  0.9198  1.2484
  176SAPS  C21920089   4.540   4.392   5.152 -0.1940 -0.0082 -0.0202
  176SAPS  H19R20090   4.430   4.406   5.142 -0.4674 -0.1250  2.2751
  176SAPS  H19S20091   4.593   4.488   5.169 -0.3469  0.4330 -1.7732
  176SAPS  C22020092   4.568   4.300   5.256  0.0392  0.6782 -0.3358
  176SAPS  H20R20093   4.553   4.194   5.225 -0.6526  0.8006 -0.4193
  176SAPS  H20S20094   4.508   4.319   5.347 -3.6062 -0.9957 -2.1780
  176SAPS  H20T20095   4.676   4.304   5.283 -0.1015  2.6283  0.0817
  176SAPS   C3320096   5.207   4.121   4.054 -0.1119 -1.1786 -0.0129
  176SAPS   H3X20097   5.238   4.212   4.109  3.2009 -2.2912  0.1982
  176SAPS   H3Y20098   5.255   4.030   4.096 -0.1302 -1.6026 -0.8946
  176SAPS   C3420099   5.054   4.098   4.064  0.3105 -0.0994  0.4968
  176SAPS   H4X20100   5.042   4.003   4.007  1.2995 -0.2929  0.5889
  176SAPS   H4Y20101   4.994   4.178   4.016  0.6319  0.3150  0.7736
  176SAPS   C3520102   5.015   4.068   4.216 -0.0582  0.2544  0.3344
  176SAPS   H5X20103   4.907   4.041   4.210 -0.4392  0.4312  4.0580
  176SAPS   H5Y20104   5.024   4.164   4.272 -0.1324  1.2718 -1.3500
  176SAPS   C3620105   5.105   3.973   4.299  0.2809  0.4009 -0.7112
  176SAPS   H6X20106   5.200   4.028   4.314 -0.7052  1.5592  1.9109
  176SAPS   H6Y20107   5.127   3.879   4.245  1.3682 -0.0668  0.4991
  176SAPS   C3720108   5.032   3.924   4.427 -0.6613  0.0333  0.3064
  176SAPS   H7X20109   4.924   3.906   4.406 -0.2441 -0.7408 -1.3059
  176SAPS   H7Y20110   5.023   4.010   4.497 -3.8287  0.3476 -0.3426
  176SAPS   C3820111   5.103   3.804   4.488  0.3496 -0.7715 -0.6686
  176SAPS   H8X20112   5.209   3.836   4.497 -0.5171  2.2516  0.0254
  176SAPS   H8Y20113   5.096   3.710   4.429 -2.5288 -1.2128  0.2152
  176SAPS   C3920114   5.043   3.773   4.632 -0.0524  0.3507 -0.3364
  176SAPS   H9X20115   5.096   3.686   4.676 -0.6128  1.3767  2.6365
  176SAPS   H9Y20116   4.933   3.759   4.634 -0.1175  0.8806  0.4575
  176SAPS  C31020117   5.065   3.892   4.727  0.4348 -0.2695 -0.4368
  176SAPS  H10X20118   4.982   3.964   4.707  2.3613  1.8974 -1.0367
  176SAPS  H10Y20119   5.147   3.958   4.693  0.3448 -1.0367 -2.2408
  176SAPS  C31120120   5.073   3.870   4.881  0.0550 -0.0360  0.1078
  176SAPS  H11X20121   5.172   3.827   4.908  0.7120  2.6835  2.5728
  176SAPS  H11Y20122   5.001   3.787   4.899 -0.4127  0.6424  1.6166
  176SAPS  C31220123   5.044   3.991   4.953  0.2810 -0.4784  0.4410
  176SAPS  H12X20124   4.954   4.037   4.907  1.8497  2.1883 -0.2113
  176SAPS  H12Y20125   5.130   4.061   4.945 -0.2243  0.6528  3.3866
  176SAPS  C31320126   5.028   3.979   5.101  0.3003  0.1439  0.4746
  176SAPS  H13X20127   5.123   3.940   5.146 -0.0972 -0.5288  0.7471
  176SAPS  H13Y20128   4.946   3.910   5.131 -0.2825  0.8903  0.6143
  176SAPS  C31420129   5.007   4.118   5.159  0.1763  0.3408  0.7289
  176SAPS  H14X20130   4.899   4.139   5.145  0.0551  0.4073  1.6983
  176SAPS  H14Y20131   5.074   4.198   5.120  2.5604 -1.7181  0.3201
  176SAPS  C31520132   5.038   4.117   5.309 -0.2060 -0.7798  0.3226
  176SAPS  H15X20133   5.142   4.084   5.331 -0.6056 -2.0615  0.4003
  176SAPS  H15Y20134   4.971   4.041   5.354 -1.0061  1.1014  2.4628
  176SAPS  C31620135   5.017   4.248   5.376 -0.4959  0.2020 -0.2410
  176SAPS  H16X20136   4.914   4.287   5.365 -0.9607 -0.4553  1.4597
  176SAPS  H16Y20137   5.082   4.324   5.327  1.9928 -0.9656  1.0526
  176SAPS  C31720138   5.046   4.241   5.524  0.8022  0.0506 -0.2899
  176SAPS  H17X20139   5.122   4.165   5.551  2.1350  2.2242  2.5822
  176SAPS  H17Y20140   4.949   4.210   5.568  0.3385 -0.2564 -1.4940
  176SAPS  C31820141   5.092   4.375   5.592  0.5586  0.2559  0.0866
  176SAPS  H18X20142   5.200   4.379   5.565  0.3480 -0.9591 -1.0680
  176SAPS  H18Y20143   5.088   4.364   5.703  0.9995 -0.4931  0.0429
  176SAPS  H18Z20144   5.037   4.460   5.548 -0.0910 -0.0514  0.2893
  177SAPS     N20145   1.669   1.500   2.865 -0.3074 -0.7447  0.7420
  177SAPS   HN120146   1.652   1.538   2.961 -2.9668  1.3025 -0.4280
  177SAPS   HN220147   1.685   1.397   2.867  1.7256 -0.4800  1.0333
  177SAPS   HN320148   1.758   1.541   2.830  0.4482 -1.7385  1.4077
  177SAPS   C1220149   1.549   1.538   2.780  0.0163 -0.7437 -0.7826
  177SAPS  H12A20150   1.540   1.645   2.770 -1.7480 -0.4915  2.4278
  177SAPS   C1320151   1.554   1.485   2.636  0.7306 -0.7122  0.6481
  177SAPS  O13A20152   1.647   1.412   2.597 -0.4090  0.0929 -0.0032
  177SAPS  O13B20153   1.463   1.519   2.559  0.3685  0.3282  0.1664
  177SAPS   C1120154   1.408   1.500   2.837 -0.2172 -0.2827  0.0212
  177SAPS  H11A20155   1.404   1.393   2.866  0.5828 -0.3532 -0.1014
  177SAPS  H11B20156   1.320   1.499   2.769 -1.5971 -3.8199  1.6084
  177SAPS     P20157   1.310   1.716   2.963  0.1035 -0.2358  0.7772
  177SAPS   O1320158   1.337   1.804   2.843 -0.1008 -0.2638  0.1632
  177SAPS   O1420159   1.169   1.679   2.986 -0.6725  0.0172  0.1603
  177SAPS   O1220160   1.393   1.585   2.953  0.2176 -0.1791  0.0568
  177SAPS   O1120161   1.369   1.791   3.084  0.4099  0.0317  0.1832
  177SAPS    C120162   1.375   1.711   3.208 -0.1841 -0.3243  0.1707
  177SAPS    HA20163   1.273   1.679   3.237  0.2543 -1.3935  0.5762
  177SAPS    HB20164   1.434   1.618   3.193 -0.1259 -0.3438  0.5186
  177SAPS    C220165   1.424   1.797   3.329  0.3936  0.2122  0.0001
  177SAPS    HS20166   1.533   1.814   3.325  0.0924  2.4388 -0.6425
  177SAPS   O2120167   1.380   1.730   3.451 -0.2571 -0.2854 -0.0889
  177SAPS   C2120168   1.477   1.698   3.536  0.8602  0.1049 -0.3385
  177SAPS   O2220169   1.594   1.717   3.522  0.6901  0.3977  0.2384
  177SAPS   C2220170   1.421   1.642   3.666  0.1998 -0.4422 -0.0691
  177SAPS   H2R20171   1.348   1.717   3.705 -3.0302 -2.8704 -0.9651
  177SAPS   H2S20172   1.350   1.560   3.643 -0.7839 -0.4444  2.5753
  177SAPS    C320173   1.368   1.940   3.345  0.2457 -1.6911  0.0421
  177SAPS    HX20174   1.258   1.924   3.358  0.0059 -2.7151 -2.5247
  177SAPS    HY20175   1.379   1.985   3.244  2.0910 -3.1284 -0.4452
  177SAPS   O3120176   1.441   2.016   3.443  0.0023 -0.6775  0.1648
  177SAPS   C3120177   1.385   2.023   3.567  0.2405 -0.1535  0.3712
  177SAPS   O3220178   1.278   1.977   3.595  0.4225  0.0325  0.3573
  177SAPS   C3220179   1.471   2.120   3.645  0.4758 -0.4387  0.5368
  177SAPS   H2X20180   1.499   2.198   3.571  0.5890 -2.4828 -1.6945
  177SAPS   H2Y20181   1.568   2.067   3.641  0.2930 -0.7077 -0.7319
  177SAPS   C2320182   1.517   1.599   3.774 -0.7761 -0.0774 -0.4561
  177SAPS   H3R20183   1.602   1.542   3.732  0.0334  1.0528 -0.3938
  177SAPS   H3S20184   1.481   1.525   3.849 -0.6163  2.1194  1.9303
  177SAPS   C2420185   1.569   1.716   3.860 -0.2752  0.2758  0.1637
  177SAPS   H4R20186   1.620   1.792   3.796 -0.0111 -0.1812 -0.1718
  177SAPS   H4S20187   1.643   1.664   3.924 -0.6505 -3.0808 -1.8860
  177SAPS   C2520188   1.468   1.779   3.953 -0.9004 -0.0393 -0.0297
  177SAPS   H5R20189   1.368   1.791   3.908 -0.4660 -1.2295 -1.3853
  177SAPS   C2620190   1.485   1.817   4.081  0.1237  0.0483  0.3123
  177SAPS   H6R20191   1.401   1.861   4.137 -1.1314 -2.2797  0.3916
  177SAPS   C2720192   1.619   1.795   4.142 -0.2168  0.3780 -0.1936
  177SAPS   H7R20193   1.706   1.820   4.076 -0.2422 -0.5320 -0.6043
  177SAPS   H7S20194   1.626   1.687   4.169  1.6068  0.1658 -1.2579
  177SAPS   C2820195   1.639   1.877   4.269 -0.2377  0.4809 -0.3900
  177SAPS   H8R20196   1.660   1.984   4.260  2.9440  0.1158  1.0482
  177SAPS   C2920197   1.621   1.831   4.393 -0.1200  0.2052  0.5360
  177SAPS   H9R20198   1.643   1.898   4.477  2.8506  0.6225 -0.4542
  177SAPS  C21020199   1.612   1.693   4.438 -0.8853  0.3506  0.3810
  177SAPS  H10R20200   1.678   1.687   4.528 -1.2307 -1.8363  0.5632
  177SAPS  H10S20201   1.652   1.620   4.363  2.1842  0.3312  1.8695
  177SAPS  C21120202   1.475   1.635   4.459  0.7740 -0.6080  0.0623
  177SAPS  H11R20203   1.423   1.622   4.363  1.5525 -0.9564 -0.3175
  177SAPS  C21220204   1.410   1.622   4.584  0.2916  0.0234  0.6490
  177SAPS  H12R20205   1.301   1.606   4.574 -0.6915  4.4721  1.7943
  177SAPS  C21320206   1.466   1.669   4.713 -0.2846 -0.8495  0.2951
  177SAPS  H13R20207   1.517   1.766   4.699  0.6430 -1.2409  0.8596
  177SAPS  H13S20208   1.558   1.609   4.731 -0.0433 -0.4769  0.3031
  177SAPS  C21420209   1.377   1.651   4.838 -0.3451  0.9598 -0.2845
  177SAPS  H14R20210   1.331   1.552   4.854  1.8479  0.2063  1.9584
  177SAPS  C21520211   1.356   1.742   4.932  0.6356 -0.3075  0.4271
  177SAPS  H15R20212   1.286   1.721   5.015  0.8317  0.7610  0.8743
  177SAPS  C21620213   1.424   1.874   4.941 -0.5442 -0.4193  0.5336
  177SAPS  H16R20214   1.354   1.957   4.964  0.1523  0.8739 -1.8037
  177SAPS  H16S20215   1.471   1.907   4.847  0.5544 -1.3342  0.7388
  177SAPS  C21720216   1.527   1.867   5.055 -0.0020  0.7877 -0.3356
  177SAPS  H17R20217   1.598   1.784   5.035  0.7731  0.9057  1.6438
  177SAPS  H17S20218   1.478   1.831   5.149  0.3742  1.5564  0.1605
  177SAPS  C21820219   1.619   1.986   5.078  0.2681 -0.5092 -0.3588
  177SAPS  H18R20220   1.685   1.962   5.164 -1.8283 -1.5560  1.0635
  177SAPS  H18S20221   1.568   2.079   5.112 -0.5054  0.0045 -2.7441
  177SAPS  C21920222   1.700   2.024   4.952 -0.1014 -0.3625 -0.4029
  177SAPS  H19R20223   1.643   2.085   4.879  2.5220  2.5159 -0.2638
  177SAPS  H19S20224   1.737   1.928   4.909  2.0666  0.4090 -0.3748
  177SAPS  C22020225   1.809   2.127   4.989  1.1395 -0.0053  0.3059
  177SAPS  H20R20226   1.894   2.078   5.042  0.6208  0.3641  1.5081
  177SAPS  H20S20227   1.763   2.194   5.064 -1.9368 -1.4093 -0.1617
  177SAPS  H20T20228   1.845   2.186   4.902 -0.2278  0.0649 -0.2253
  177SAPS   C3320229   1.425   2.161   3.784 -0.1660  0.6960 -0.1442
  177SAPS   H3X20230   1.409   2.069   3.844  2.4794  0.5525  0.4637
  177SAPS   H3Y20231   1.334   2.225   3.781 -0.9905 -0.4446 -0.1670
  177SAPS   C3420232   1.535   2.240   3.861 -0.7280  0.8137  0.3683
  177SAPS   H4X20233   1.525   2.348   3.837 -0.4528  0.2209 -2.9585
  177SAPS   H4Y20234   1.633   2.207   3.819  0.1734  0.7608  2.4095
  177SAPS   C3520235   1.528   2.226   4.018  0.1757 -0.8785 -0.7093
  177SAPS   H5X20236   1.541   2.119   4.043 -0.8358 -1.0287 -0.7607
  177SAPS   H5Y20237   1.427   2.256   4.055  0.0973 -1.2383 -0.6288
  177SAPS   C3620238   1.634   2.325   4.068 -0.1647 -0.7579  0.7600
  177SAPS   H6X20239   1.592   2.427   4.055 -0.9006 -0.9777  1.3641
  177SAPS   H6Y20240   1.730   2.306   4.015  0.3721 -0.6503  1.6506
  177SAPS   C3720241   1.656   2.308   4.220 -0.4736 -0.3239  0.1000
  177SAPS   H7X20242   1.665   2.201   4.245 -3.0322 -0.6964 -0.3912
  177SAPS   H7Y20243   1.563   2.349   4.264  0.7401  1.9690  0.7294
  177SAPS   C3820244   1.774   2.382   4.285  0.2583 -0.5930 -0.1299
  177SAPS   H8X20245   1.760   2.491   4.271  0.1403 -0.5293  0.4494
  177SAPS   H8Y20246   1.866   2.346   4.234 -0.0637 -0.0035 -1.1467
  177SAPS   C3920247   1.794   2.344   4.433  0.8506 -0.3819 -0.1536
  177SAPS   H9X20248   1.831   2.239   4.442 -0.7816 -0.8899  1.4059
  177SAPS   H9Y20249   1.698   2.353   4.489  1.5173 -1.0677  1.1499
  177SAPS  C31020250   1.884   2.444   4.505  0.2288  0.0450 -0.2256
  177SAPS  H10X20251   1.841   2.547   4.501 -1.1896 -0.4844  0.6032
  177SAPS  H10Y20252   1.983   2.441   4.455 -0.4758  0.4331 -1.7257
  177SAPS  C31120253   1.910   2.402   4.653  0.1791 -0.1069  0.4498
  177SAPS  H11X20254   1.970   2.309   4.663  0.0217 -0.8847 -3.8743
  177SAPS  H11Y20255   1.815   2.370   4.701  1.1798 -1.4818  1.5803
  177SAPS  C31220256   1.976   2.509   4.744 -0.5331  0.6531 -0.1562
  177SAPS  H12X20257   1.941   2.612   4.721 -1.0131 -0.0271 -2.8818
  177SAPS  H12Y20258   2.081   2.505   4.710 -0.2339 -0.3057  0.8331
  177SAPS  C31320259   1.990   2.480   4.893 -0.0708 -0.6159  0.2595
  177SAPS  H13X20260   2.025   2.376   4.911  0.9442  0.1402  3.0946
  177SAPS  H13Y20261   1.892   2.485   4.945  0.3575  0.4339  0.9872
  177SAPS  C31420262   2.083   2.578   4.960  0.2679  0.2608 -0.5954
  177SAPS  H14X20263   2.062   2.684   4.932 -0.5514  1.2700  3.3040
  177SAPS  H14Y20264   2.187   2.552   4.930  0.8104  0.7899  0.7353
  177SAPS  C31520265   2.094   2.567   5.113  0.2820  0.2685  0.3964
  177SAPS  H15X20266   2.092   2.460   5.142  0.9926  0.1602  0.0573
  177SAPS  H15Y20267   2.005   2.610   5.165 -0.5134 -1.3686  0.4423
  177SAPS  C31620268   2.221   2.625   5.167  0.3620  0.2434 -0.4507
  177SAPS  H16X20269   2.265   2.684   5.084 -1.3769  0.7718 -1.0372
  177SAPS  H16Y20270   2.286   2.539   5.194 -0.6748 -0.7546 -1.0501
  177SAPS  C31720271   2.201   2.715   5.290  0.6944 -0.1181 -0.0059
  177SAPS  H17X20272   2.169   2.653   5.377 -2.3034  2.1753  0.6998
  177SAPS  H17Y20273   2.121   2.787   5.264 -0.3775 -0.6950  1.5101
  177SAPS  C31820274   2.329   2.802   5.323  0.3090  0.8766 -0.5803
  177SAPS  H18X20275   2.422   2.740   5.317  1.3615  1.9965  2.3752
  177SAPS  H18Y20276   2.335   2.853   5.422  0.3219  1.1699 -0.7317
  177SAPS  H18Z20277   2.349   2.872   5.239  1.9832  1.3276  0.1546
  178SAPS     N20278   6.470   2.824   2.319 -0.9833  0.2922  0.5624
  178SAPS   HN120279   6.395   2.762   2.355 -1.2855 -0.1079 -0.7018
  178SAPS   HN220280   6.491   2.810   2.218 -0.6826  0.8570  0.5413
  178SAPS   HN320281   6.546   2.785   2.379 -0.7239  2.2236  1.5740
  178SAPS   C1220282   6.452   2.971   2.347  0.2659 -0.8801  0.5262
  178SAPS  H12A20283   6.440   2.998   2.451 -1.9211  0.1485  0.0777
  178SAPS   C1320284   6.577   3.047   2.291 -0.1070 -0.0788  0.4510
  178SAPS  O13A20285   6.661   2.981   2.225 -0.7562 -0.2243  0.2368
  178SAPS  O13B20286   6.590   3.172   2.309  0.4958  0.1764  1.0496
  178SAPS   C1120287   6.322   3.023   2.276  0.0769 -0.2084  0.0705
  178SAPS  H11A20288   6.354   3.040   2.171  2.0810 -0.2494  0.6453
  178SAPS  H11B20289   6.312   3.127   2.315  1.6188 -0.7851  2.1612
  178SAPS     P20290   6.131   2.930   2.442 -0.5184  0.2930  0.1183
  178SAPS   O1320291   6.018   2.846   2.425 -0.0475 -0.0078 -0.4790
  178SAPS   O1420292   6.221   2.896   2.551 -0.3064 -0.1139 -0.1792
  178SAPS   O1220293   6.206   2.939   2.304 -0.4626  0.0839 -0.3724
  178SAPS   O1120294   6.080   3.077   2.459 -0.0068  0.1693 -0.0495
  178SAPS    C120295   6.144   3.186   2.525 -0.0397  0.6947 -0.2553
  178SAPS    HA20296   6.253   3.184   2.503  0.1047 -2.6594  0.2840
  178SAPS    HB20297   6.116   3.287   2.487 -0.0245  1.7441  2.3068
  178SAPS    C220298   6.140   3.166   2.678 -0.6069 -0.0808  0.1409
  178SAPS    HS20299   6.211   3.080   2.688  0.1223 -0.1399 -3.8338
  178SAPS   O2120300   6.010   3.134   2.723  0.4155 -0.4989  0.3517
  178SAPS   C2120301   6.003   3.049   2.822  0.3641  0.0947  0.0915
  178SAPS   O2220302   6.093   2.977   2.857 -0.4747  0.4038  0.2736
  178SAPS   C2220303   5.860   3.046   2.874 -0.0512 -0.5828 -0.3044
  178SAPS   H2R20304   5.846   3.146   2.919  1.0321 -1.0965  1.2351
  178SAPS   H2S20305   5.789   3.042   2.788 -0.1314 -2.0608 -0.1940
  178SAPS    C320306   6.201   3.288   2.759  0.1082  0.1453 -0.1174
  178SAPS    HX20307   6.131   3.370   2.732 -0.4878 -0.3982 -0.2383
  178SAPS    HY20308   6.304   3.311   2.725  0.6303 -2.5101 -0.5044
  178SAPS   O3120309   6.187   3.259   2.900  0.2433 -0.0997 -0.3090
  178SAPS   C3120310   6.285   3.307   2.977 -1.3034 -0.2687  0.3373
  178SAPS   O3220311   6.393   3.360   2.941  0.5879 -0.3549 -0.0791
  178SAPS   C3220312   6.238   3.294   3.121 -0.7622  0.1167  0.2446
  178SAPS   H2X20313   6.214   3.188   3.144 -0.9369  0.3823  1.3537
  178SAPS   H2Y20314   6.142   3.349   3.134 -0.0265  1.6013 -0.3919
  178SAPS   C2320315   5.824   2.931   2.973  0.0843  0.2872 -0.4241
  178SAPS   H3R20316   5.879   2.935   3.069 -1.4483  1.4546  0.4510
  178SAPS   H3S20317   5.864   2.839   2.924  0.2416 -0.0772  0.3771
  178SAPS   C2420318   5.672   2.918   3.005  0.0088  0.2281  0.1755
  178SAPS   H4R20319   5.655   2.828   3.069  0.4543  0.5834  0.8057
  178SAPS   H4S20320   5.617   2.897   2.911 -2.9552  1.8906  1.3844
  178SAPS   C2520321   5.620   3.050   3.060  0.6658 -0.0466 -0.2453
  178SAPS   H5R20322   5.576   3.110   2.979 -1.2293  0.3793  1.0204
  178SAPS   C2620323   5.616   3.084   3.195 -0.3293 -0.0983  0.0878
  178SAPS   H6R20324   5.574   3.181   3.225 -0.6461  0.5685 -2.3110
  178SAPS   C2720325   5.678   2.997   3.302 -0.2646 -0.2621  0.1184
  178SAPS   H7R20326   5.759   2.930   3.264  0.1037  1.1030 -1.6214
  178SAPS   H7S20327   5.603   2.928   3.346 -2.3195  2.5188  1.2613
  178SAPS   C2820328   5.747   3.079   3.413  0.1298 -0.3360 -0.5220
  178SAPS   H8R20329   5.800   3.165   3.370  1.1838 -1.5685 -1.8012
  178SAPS   C2920330   5.760   3.041   3.543  0.4368 -0.1764 -0.2143
  178SAPS   H9R20331   5.818   3.106   3.612  0.9561 -0.9974  0.1442
  178SAPS  C21020332   5.720   2.921   3.612  0.5307  0.2107  1.0225
  178SAPS  H10R20333   5.815   2.877   3.648  0.6787 -1.2170 -0.9741
  178SAPS  H10S20334   5.678   2.840   3.549  1.1675  0.4704  0.2452
  178SAPS  C21120335   5.625   2.950   3.726  0.8559  0.1469 -0.3059
  178SAPS  H11R20336   5.521   2.957   3.690  1.4840 -1.4751 -2.6888
  178SAPS  C21220337   5.663   2.976   3.852 -0.0933  0.3094  0.0020
  178SAPS  H12R20338   5.587   2.987   3.930  0.8633 -2.3994  1.4408
  178SAPS  C21320339   5.807   2.977   3.905 -0.3971  0.5091 -0.1125
  178SAPS  H13R20340   5.880   2.920   3.842  1.8658 -0.1401  2.8657
  178SAPS  H13S20341   5.813   2.926   4.003 -0.4072  1.9544  0.6668
  178SAPS  C21420342   5.844   3.123   3.914 -0.5428 -0.0904  0.0098
  178SAPS  H14R20343   5.825   3.167   3.815 -1.7258 -0.5388  0.0160
  178SAPS  C21520344   5.885   3.185   4.022 -0.6598 -0.0527  0.2673
  178SAPS  H15R20345   5.904   3.294   4.018 -0.8047  0.0372  1.5829
  178SAPS  C21620346   5.895   3.136   4.162 -0.3346 -0.3756  0.0502
  178SAPS  H16R20347   5.972   3.190   4.220 -0.7754  1.0983 -0.6709
  178SAPS  H16S20348   5.909   3.026   4.166 -0.4836 -0.4299 -0.6959
  178SAPS  C21720349   5.762   3.160   4.235  0.6765 -0.6401  0.2388
  178SAPS  H17R20350   5.677   3.125   4.173  1.2893  0.4604 -1.2678
  178SAPS  H17S20351   5.754   3.271   4.242  0.6708 -0.6201 -0.0939
  178SAPS  C21820352   5.759   3.095   4.371 -0.0368 -0.1337 -0.7776
  178SAPS  H18R20353   5.755   2.984   4.369  3.9069 -0.4206 -1.0532
  178SAPS  H18S20354   5.668   3.141   4.414  1.0974  2.9153 -1.3729
  178SAPS  C21920355   5.878   3.133   4.469  0.7844  0.4485  0.7352
  178SAPS  H19R20356   5.916   3.234   4.443  1.4301 -0.6651 -3.4614
  178SAPS  H19S20357   5.971   3.082   4.434  1.7727  0.1271  3.5742
  178SAPS  C22020358   5.865   3.088   4.611  0.2757  0.5597  0.2119
  178SAPS  H20R20359   5.807   3.156   4.676  1.5431  0.6591  1.2752
  178SAPS  H20S20360   5.964   3.091   4.662  0.3413  0.6622  0.0816
  178SAPS  H20T20361   5.815   2.989   4.618  1.1824  0.1480  1.1644
  178SAPS   C3320362   6.333   3.349   3.232  0.0506 -0.4401  0.3298
  178SAPS   H3X20363   6.432   3.306   3.204  0.9374  1.3016  0.6881
  178SAPS   H3Y20364   6.302   3.300   3.327 -1.5597 -0.1408 -0.0251
  178SAPS   C3420365   6.329   3.501   3.250 -0.4156  0.3362  0.1849
  178SAPS   H4X20366   6.227   3.544   3.263  0.2980  2.0134  0.5180
  178SAPS   H4Y20367   6.372   3.538   3.155 -1.8394 -0.6364 -0.8792
  178SAPS   C3520368   6.418   3.551   3.363 -0.1699  0.0177  0.2587
  178SAPS   H5X20369   6.420   3.662   3.371 -0.2669 -0.1102  3.5161
  178SAPS   H5Y20370   6.522   3.514   3.345 -0.7929 -1.7678  0.1133
  178SAPS   C3620371   6.379   3.521   3.507  0.7378 -0.5025 -0.7280
  178SAPS   H6X20372   6.365   3.414   3.536  3.3173 -0.4498  1.0620
  178SAPS   H6Y20373   6.276   3.558   3.527  0.8223 -1.4656  1.9352
  178SAPS   C3720374   6.469   3.587   3.614 -0.1377 -0.7107 -0.0950
  178SAPS   H7X20375   6.508   3.687   3.583  1.8851 -1.5272 -0.3215
  178SAPS   H7Y20376   6.572   3.549   3.624  0.2694  0.6432  1.3319
  178SAPS   C3820377   6.403   3.593   3.752  0.5962 -0.3107 -0.1475
  178SAPS   H8X20378   6.395   3.485   3.778  1.3826 -0.8286 -1.9016
  178SAPS   H8Y20379   6.303   3.641   3.748  0.1264 -1.1959  0.5103
  178SAPS   C3920380   6.488   3.674   3.850 -0.1401 -0.1444  0.1423
  178SAPS   H9X20381   6.501   3.776   3.806 -0.9616  0.4290  1.1873
  178SAPS   H9Y20382   6.584   3.621   3.864 -1.0296 -1.5357  1.1562
  178SAPS  C31020383   6.413   3.685   3.988  0.3988 -0.7929  0.0011
  178SAPS  H10X20384   6.357   3.594   4.018 -1.9906  0.3972 -0.5943
  178SAPS  H10Y20385   6.336   3.759   3.958  1.0950 -0.1442 -0.2160
  178SAPS  C31120386   6.493   3.743   4.100 -0.4421 -0.2090 -0.0888
  178SAPS  H11X20387   6.534   3.842   4.071  0.8291 -0.3633  1.0878
  178SAPS  H11Y20388   6.580   3.679   4.127  0.9505  1.6768  0.1156
  178SAPS  C31220389   6.411   3.752   4.229  0.2513 -0.4608 -0.3470
  178SAPS  H12X20390   6.364   3.656   4.259 -0.5646  0.0134 -0.1006
  178SAPS  H12Y20391   6.325   3.821   4.217  1.3088  1.0643  0.4627
  178SAPS  C31320392   6.508   3.786   4.342  0.1778 -0.3267  0.5350
  178SAPS  H13X20393   6.566   3.878   4.315  2.1364 -1.7288 -0.2709
  178SAPS  H13Y20394   6.584   3.706   4.353  0.9168  0.1348 -0.9510
  178SAPS  C31420395   6.428   3.797   4.471 -0.3167  1.2672 -0.1033
  178SAPS  H14X20396   6.353   3.715   4.469  0.2372  0.7465  0.1118
  178SAPS  H14Y20397   6.380   3.897   4.469  0.5278  1.6734 -1.1004
  178SAPS  C31520398   6.517   3.788   4.598  0.1163 -0.0724  0.1158
  178SAPS  H15X20399   6.583   3.877   4.605  1.4160 -0.9569 -0.5713
  178SAPS  H15Y20400   6.571   3.691   4.595 -0.5690 -0.4964  1.0725
  178SAPS  C31620401   6.430   3.802   4.721  0.6657  1.1067  0.2305
  178SAPS  H16X20402   6.347   3.729   4.728 -0.3581  1.8711 -2.7477
  178SAPS  H16Y20403   6.380   3.900   4.733 -1.7951 -0.1381  0.7947
  178SAPS  C31720404   6.518   3.788   4.849 -0.4298  0.0132  0.6472
  178SAPS  H17X20405   6.606   3.854   4.835 -1.5896  2.1146  2.5150
  178SAPS  H17Y20406   6.560   3.687   4.864  0.8388  0.6745  1.6431
  178SAPS  C31820407   6.445   3.839   4.978  0.2574  0.0368  0.5264
  178SAPS  H18X20408   6.432   3.949   4.973  0.9032  0.0943 -0.0730
  178SAPS  H18Y20409   6.506   3.816   5.068  0.4876  2.3761  1.0347
  178SAPS  H18Z20410   6.340   3.802   4.976 -0.6988  2.6003 -1.1246
  179SAPS     N20411   0.075   4.780   2.484  0.5958 -0.0519 -0.0592
  179SAPS   HN120412   0.032   4.816   2.397  2.5364  0.9140 -0.6762
  179SAPS   HN220413   0.169   4.742   2.459  0.6624 -0.4374  0.7494
  179SAPS   HN320414   0.016   4.711   2.535  0.2934  1.6094  1.9683
  179SAPS   C1220415   0.086   4.896   2.575  0.4433  0.7346 -0.1128
  179SAPS  H12A20416   0.096   4.854   2.674 -0.2014  0.4794 -0.1504
  179SAPS   C1320417   0.212   4.981   2.542 -0.4445  0.1637 -0.3756
  179SAPS  O13A20418   0.296   4.949   2.456  0.5258  0.1257 -0.1448
  179SAPS  O13B20419   0.224   5.089   2.610  0.2170 -0.3413  0.1308
  179SAPS   C1120420  -0.042   4.980   2.566  0.1248 -0.4928 -1.3495
  179SAPS  H11A20421  -0.093   4.968   2.468 -2.8667  0.6940 -0.0879
  179SAPS  H11B20422  -0.013   5.087   2.580  2.5617 -1.2396 -0.1144
  179SAPS     P20423  -0.244   5.010   2.719  0.0932 -0.3867 -0.0747
  179SAPS   O1320424  -0.322   5.044   2.599  0.2645  0.2353 -0.9621
  179SAPS   O1420425  -0.319   4.927   2.816  0.4901  0.3413 -0.6596
  179SAPS   O1220426  -0.122   4.931   2.673 -0.2748 -0.1366 -0.0551
  179SAPS   O1120427  -0.194   5.146   2.791 -0.4514 -0.0329 -0.3238
  179SAPS    C120428  -0.080   5.145   2.877  0.1895 -0.4788  0.3613
  179SAPS    HA20429  -0.001   5.075   2.842 -1.0656 -2.0174  0.5154
  179SAPS    HB20430  -0.037   5.247   2.888 -0.4794 -0.3807  2.7077
  179SAPS    C220431  -0.116   5.082   3.016 -0.1704  0.3380 -0.6977
  179SAPS    HS20432  -0.137   4.975   2.994  0.4658 -0.4996  2.2467
  179SAPS   O2120433  -0.230   5.146   3.071 -0.5637 -1.2381 -0.0139
  179SAPS   C2120434  -0.310   5.072   3.146  0.0476  0.1505 -0.3645
  179SAPS   O2220435  -0.310   4.953   3.162 -0.5461  0.0251 -0.1246
  179SAPS   C2220436  -0.409   5.165   3.214 -0.9337  0.0146  0.2871
  179SAPS   H2R20437  -0.355   5.241   3.273 -2.5476  1.0228  0.5330
  179SAPS   H2S20438  -0.455   5.223   3.131 -0.5193  1.8365  1.2772
  179SAPS    C320439   0.009   5.070   3.112  0.0118 -0.3493  0.3904
  179SAPS    HX20440   0.029   5.174   3.143 -0.4716  0.6582 -2.4116
  179SAPS    HY20441   0.096   5.031   3.056  0.4636 -0.0489  0.8800
  179SAPS   O3120442  -0.016   4.980   3.220  0.3479 -0.4220  0.2850
  179SAPS   C3120443  -0.058   5.045   3.334  0.5397 -0.2782 -0.6455
  179SAPS   O3220444  -0.088   5.159   3.351 -0.4899  0.0736  0.6021
  179SAPS   C3220445  -0.081   4.937   3.448  0.3675 -0.3426 -0.4619
  179SAPS   H2X20446   0.017   4.899   3.482 -0.2216  0.0550  1.8950
  179SAPS   H2Y20447  -0.130   4.847   3.405 -0.8307  0.3782 -0.6708
  179SAPS   C2320448  -0.509   5.083   3.289 -0.2817  0.1923  0.1771
  179SAPS   H3R20449  -0.449   5.027   3.364 -0.2800 -1.2064 -0.8159
  179SAPS   H3S20450  -0.552   5.002   3.225  0.5764 -1.7060  1.8835
  179SAPS   C2420451  -0.615   5.177   3.362 -0.0721  0.3277  0.1222
  179SAPS   H4R20452  -0.659   5.245   3.286 -2.1909  0.6006  1.5116
  179SAPS   H4S20453  -0.546   5.232   3.429  0.5969 -0.4911  0.1337
  179SAPS   C2520454  -0.722   5.100   3.440 -0.4125 -0.2600  0.5473
  179SAPS   H5R20455  -0.825   5.105   3.401 -0.1930 -2.7261 -0.5187
  179SAPS   C2620456  -0.701   5.042   3.561  0.1826 -0.4476 -0.4103
  179SAPS   H6R20457  -0.785   4.993   3.613 -0.0623 -0.9223 -1.2280
  179SAPS   C2720458  -0.564   5.017   3.627  0.4766  0.0121  0.2469
  179SAPS   H7R20459  -0.480   5.076   3.586  2.0639 -1.1202  1.7365
  179SAPS   H7S20460  -0.541   4.909   3.619  0.8862  0.0337  1.0491
  179SAPS   C2820461  -0.552   5.049   3.774 -0.3123  0.1517  0.6455
  179SAPS   H8R20462  -0.489   5.138   3.784  0.0873  0.3665 -2.6175
  179SAPS   C2920463  -0.580   4.979   3.886 -0.4240 -0.8667 -0.7300
  179SAPS   H9R20464  -0.563   5.031   3.982 -0.3430 -0.5361 -0.9199
  179SAPS  C21020465  -0.659   4.852   3.887  0.1950 -0.4122  0.1820
  179SAPS  H10R20466  -0.722   4.843   3.796  0.7813 -1.0577 -0.1675
  179SAPS  H10S20467  -0.744   4.850   3.959 -0.7319 -0.1891 -0.8911
  179SAPS  C21120468  -0.571   4.727   3.909  0.7055 -0.2033  0.2275
  179SAPS  H11R20469  -0.523   4.697   3.815 -0.5034 -0.5306 -0.3033
  179SAPS  C21220470  -0.550   4.677   4.034 -0.1852  0.7947  0.9402
  179SAPS  H12R20471  -0.479   4.593   4.037 -0.3880  0.5755 -0.0750
  179SAPS  C21320472  -0.602   4.728   4.166  0.2672  0.0455 -0.3565
  179SAPS  H13R20473  -0.702   4.682   4.180  1.4378 -2.3033  0.8734
  179SAPS  H13S20474  -0.616   4.838   4.159  1.5466  0.3033  0.8292
  179SAPS  C21420475  -0.502   4.704   4.276  0.5349  0.0322  0.6536
  179SAPS  H14R20476  -0.421   4.778   4.275  0.3674  0.2184 -0.1125
  179SAPS  C21520477  -0.519   4.614   4.370 -0.3111  0.1777  0.2909
  179SAPS  H15R20478  -0.433   4.597   4.436 -0.3528 -0.1329  0.2631
  179SAPS  C21620479  -0.638   4.527   4.390  0.2860 -0.6566 -0.2116
  179SAPS  H16R20480  -0.608   4.421   4.384 -1.1653 -1.0335 -1.1594
  179SAPS  H16S20481  -0.715   4.540   4.311  2.0502 -1.3918 -2.1451
  179SAPS  C21720482  -0.707   4.543   4.530  0.5327 -0.1765 -0.1245
  179SAPS  H17R20483  -0.791   4.471   4.534  0.4487 -0.0216  2.1051
  179SAPS  H17S20484  -0.749   4.645   4.538 -0.8993 -0.6907 -0.8537
  179SAPS  C21820485  -0.625   4.532   4.660 -0.1619  0.1330  0.7995
  179SAPS  H18R20486  -0.542   4.606   4.648 -0.1451  0.0950  0.6764
  179SAPS  H18S20487  -0.584   4.429   4.659 -0.5104 -0.0958 -2.5643
  179SAPS  C21920488  -0.704   4.537   4.781 -0.1633  0.4322  0.3672
  179SAPS  H19R20489  -0.775   4.452   4.779 -0.4591  0.6250  1.7491
  179SAPS  H19S20490  -0.765   4.630   4.784 -1.3553 -0.3473  1.0689
  179SAPS  C22020491  -0.614   4.529   4.899  0.6874  0.2499 -0.3839
  179SAPS  H20R20492  -0.676   4.527   4.992  0.3553  0.5146 -0.5984
  179SAPS  H20S20493  -0.540   4.610   4.914 -3.5524  3.8611  4.5769
  179SAPS  H20T20494  -0.565   4.429   4.900 -2.8462 -1.6880  1.1779
  179SAPS   C3320495  -0.163   4.990   3.562  0.6614 -0.2674  0.1313
  179SAPS   H3X20496  -0.258   5.043   3.540  0.9033  0.6137  1.1336
  179SAPS   H3Y20497  -0.104   5.077   3.597 -1.6572  1.3665  0.2395
  179SAPS   C3420498  -0.170   4.895   3.677 -0.5391  0.9731 -0.2898
  179SAPS   H4X20499  -0.075   4.838   3.691 -0.7535  0.6273 -0.2278
  179SAPS   H4Y20500  -0.248   4.818   3.658 -0.6839  0.3111  2.4950
  179SAPS   C3520501  -0.195   4.967   3.818  0.0404  0.4121  0.3805
  179SAPS   H5X20502  -0.295   5.015   3.821  0.2188  0.9894 -1.5724
  179SAPS   H5Y20503  -0.121   5.049   3.832 -0.5400  0.9664  0.2387
  179SAPS   C3620504  -0.187   4.867   3.929  0.6798  0.2330  0.0834
  179SAPS   H6X20505  -0.100   4.803   3.906  0.2570 -1.1706  2.0804
  179SAPS   H6Y20506  -0.281   4.808   3.933  0.7508  0.1736  1.2492
  179SAPS   C3720507  -0.161   4.932   4.062  1.0397 -0.3395  0.3222
  179SAPS   H7X20508  -0.257   4.974   4.099  0.0425 -1.0465 -1.3686
  179SAPS   H7Y20509  -0.090   5.017   4.054  1.5740 -0.8172 -0.1187
  179SAPS   C3820510  -0.117   4.831   4.176 -0.2004 -0.5254  0.9284
  179SAPS   H8X20511  -0.015   4.789   4.160  0.4274  1.1473  0.2901
  179SAPS   H8Y20512  -0.183   4.743   4.173  0.6486 -1.2152 -2.8439
  179SAPS   C3920513  -0.136   4.889   4.314  0.3390 -0.4038 -0.4276
  179SAPS   H9X20514  -0.238   4.933   4.319  0.2795 -0.3196 -1.9419
  179SAPS   H9Y20515  -0.062   4.967   4.342 -1.7342  1.5590 -0.0743
  179SAPS  C31020516  -0.107   4.782   4.411  0.3707 -0.0905  0.5353
  179SAPS  H10X20517  -0.010   4.733   4.387  1.0394  0.8788  1.1924
  179SAPS  H10Y20518  -0.188   4.705   4.407  1.7267 -1.5601  0.2510
  179SAPS  C31120519  -0.100   4.822   4.559  0.2487 -0.5603 -0.5580
  179SAPS  H11X20520  -0.008   4.882   4.576  0.5514 -1.3925  0.8995
  179SAPS  H11Y20521  -0.076   4.734   4.621 -0.6517  0.8520  1.9162
  179SAPS  C31220522  -0.223   4.883   4.623 -0.4486 -0.6725  0.2659
  179SAPS  H12X20523  -0.298   4.802   4.634 -1.9810  0.5477 -0.7836
  179SAPS  H12Y20524  -0.282   4.958   4.566 -1.4395 -3.3627 -2.5046
  179SAPS  C31320525  -0.199   4.947   4.765  0.6356 -0.5329  0.8194
  179SAPS  H13X20526  -0.144   4.877   4.831 -0.2952 -0.4558  1.7082
  179SAPS  H13Y20527  -0.290   4.962   4.827 -0.5675 -0.8954 -0.8063
  179SAPS  C31420528  -0.136   5.085   4.751 -0.4581 -0.5640  0.4181
  179SAPS  H14X20529  -0.165   5.145   4.662  1.4582 -2.1146 -1.3736
  179SAPS  H14Y20530  -0.025   5.076   4.751 -0.5429 -1.8358  1.5250
  179SAPS  C31520531  -0.162   5.173   4.876  0.2033 -0.2842 -0.0384
  179SAPS  H15X20532  -0.138   5.106   4.962  0.7107  1.1321  0.9640
  179SAPS  H15Y20533  -0.269   5.194   4.893  0.4140 -0.7401  2.2150
  179SAPS  C31620534  -0.096   5.308   4.866  0.0297  0.0832 -0.4409
  179SAPS  H16X20535  -0.129   5.370   4.951  0.3712  0.1269 -0.3396
  179SAPS  H16Y20536  -0.146   5.352   4.776 -3.6808 -0.3063  1.2508
  179SAPS  C31720537   0.055   5.301   4.861 -0.0762 -0.0228  0.3793
  179SAPS  H17X20538   0.089   5.271   4.759  1.0298  0.1641  0.6725
  179SAPS  H17Y20539   0.090   5.228   4.937 -1.9378 -2.1654 -0.7064
  179SAPS  C31820540   0.121   5.437   4.895 -0.0889  0.1818 -0.0293
  179SAPS  H18X20541   0.229   5.437   4.868  0.1737 -1.7034  0.8581
  179SAPS  H18Y20542   0.109   5.464   5.002 -0.5182 -1.7473  0.4449
  179SAPS  H18Z20543   0.063   5.517   4.846  0.1563  0.0662 -0.5154
  180SAPS     N20544   1.086   5.203   2.499 -0.4358  0.5295  0.2722
  180SAPS   HN120545   1.070   5.288   2.442  0.1656 -0.6451 -1.7798
  180SAPS   HN220546   1.001   5.196   2.557 -1.2079  0.0210 -0.8804
  180SAPS   HN320547   1.163   5.207   2.569 -0.5913 -0.8816  0.5545
  180SAPS   C1220548   1.108   5.090   2.406  0.0512  0.0985  0.4854
  180SAPS  H12A20549   1.022   5.088   2.341  2.1533 -0.9595 -2.5423
  180SAPS   C1320550   1.218   5.108   2.297 -0.3648  0.6104  0.4077
  180SAPS  O13A20551   1.279   5.217   2.288 -0.1103 -0.2180  0.0571
  180SAPS  O13B20552   1.228   5.014   2.212  0.1235 -0.0198 -0.0513
  180SAPS   C1120553   1.131   4.956   2.482  0.6155  0.5711 -0.9274
  180SAPS  H11A20554   1.212   4.974   2.556  0.5243  2.0393 -1.1424
  180SAPS  H11B20555   1.156   4.869   2.418  1.9598  0.5639 -0.4177
  180SAPS     P20556   0.886   4.862   2.480 -0.0017 -0.2658 -0.4361
  180SAPS   O1320557   0.787   4.966   2.483 -0.0911 -0.5171 -0.1832
  180SAPS   O1420558   0.921   4.795   2.354 -0.2349  0.6585 -0.1054
  180SAPS   O1220559   1.011   4.930   2.549  0.3227 -0.5636 -0.0744
  180SAPS   O1120560   0.859   4.751   2.585 -0.1793 -0.1254 -0.0369
  180SAPS    C120561   0.948   4.647   2.628 -0.3867  0.4311  0.2560
  180SAPS    HA20562   0.971   4.573   2.549  0.0629  1.4013 -0.5352
  180SAPS    HB20563   1.042   4.696   2.662 -0.5334  1.8411 -1.2926
  180SAPS    C220564   0.880   4.565   2.745 -0.3195 -0.0526 -0.0016
  180SAPS    HS20565   0.799   4.505   2.699 -0.7762  1.8664 -1.9236
  180SAPS   O2120566   0.848   4.644   2.860  0.4809 -0.0129  0.4476
  180SAPS   C2120567   0.715   4.675   2.870 -0.5609  0.0799  0.1172
  180SAPS   O2220568   0.625   4.620   2.804 -0.1660  0.0273  0.1694
  180SAPS   C2220569   0.688   4.772   2.989  0.5295 -0.1738 -1.2901
  180SAPS   H2R20570   0.733   4.750   3.087 -1.4029  1.5233  0.0639
  180SAPS   H2S20571   0.739   4.863   2.950  1.8422 -0.7821 -1.0173
  180SAPS    C320572   0.986   4.457   2.781  0.2155  0.1589 -0.6789
  180SAPS    HX20573   1.072   4.515   2.820  0.0413 -1.1130  1.8052
  180SAPS    HY20574   1.028   4.404   2.692  3.6406  0.3629  0.6748
  180SAPS   O3120575   0.936   4.363   2.883  0.0361 -0.2623  0.1008
  180SAPS   C3120576   1.024   4.270   2.913 -0.4004 -0.0995 -0.8801
  180SAPS   O3220577   1.135   4.256   2.863  0.0436 -0.3543  0.1665
  180SAPS   C3220578   0.975   4.171   3.027 -0.2449  0.3916 -0.4202
  180SAPS   H2X20579   0.886   4.119   2.986 -1.4107 -0.2329  2.6387
  180SAPS   H2Y20580   0.949   4.231   3.117  3.1647  2.4576 -0.6343
  180SAPS   C2320581   0.528   4.790   3.014 -0.4889  0.0953  0.1188
  180SAPS   H3R20582   0.473   4.693   3.017 -1.8956  0.8641 -0.3182
  180SAPS   H3S20583   0.489   4.841   2.924  0.1583  0.2163 -0.1017
  180SAPS   C2420584   0.503   4.869   3.136  0.8343  0.4858 -0.3546
  180SAPS   H4R20585   0.565   4.961   3.129  1.4298  0.0724 -0.5478
  180SAPS   H4S20586   0.544   4.818   3.225  1.1068 -0.2424 -0.8869
  180SAPS   C2520587   0.364   4.920   3.168  0.3602  0.2869 -0.1291
  180SAPS   H5R20588   0.322   4.988   3.093  0.5302 -0.0240 -0.5049
  180SAPS   C2620589   0.286   4.882   3.278 -0.1632  1.1549  0.5795
  180SAPS   H6R20590   0.184   4.921   3.291 -0.6545  0.1933 -0.3106
  180SAPS   C2720591   0.335   4.779   3.374 -0.5713 -0.0559 -0.4807
  180SAPS   H7R20592   0.393   4.838   3.448  0.2797  0.3461 -1.4506
  180SAPS   H7S20593   0.403   4.707   3.322 -1.4933  0.9527 -3.2708
  180SAPS   C2820594   0.231   4.695   3.438 -0.3097 -0.4073  0.0814
  180SAPS   H8R20595   0.170   4.627   3.377  2.1339 -1.1099 -1.7777
  180SAPS   C2920596   0.187   4.704   3.567 -0.5171 -0.4203  0.3881
  180SAPS   H9R20597   0.111   4.634   3.605 -1.1137  0.5009  0.9284
  180SAPS  C21020598   0.243   4.806   3.665  0.1901 -0.5333 -0.4080
  180SAPS  H10R20599   0.204   4.904   3.631  1.3365  0.4068  0.8739
  180SAPS  H10S20600   0.353   4.813   3.659  0.2378 -1.7658 -1.4476
  180SAPS  C21120601   0.213   4.794   3.813  0.2284 -0.2293 -0.5228
  180SAPS  H11R20602   0.213   4.694   3.860  1.6958  0.8754  2.1126
  180SAPS  C21220603   0.207   4.897   3.907 -0.6046 -0.4707 -0.4475
  180SAPS  H12R20604   0.178   4.864   4.008  0.0012  0.9070  0.2008
  180SAPS  C21320605   0.214   5.047   3.877 -0.7346  0.4258  0.5328
  180SAPS  H13R20606   0.179   5.091   3.972 -1.7039 -1.6669  1.2171
  180SAPS  H13S20607   0.145   5.068   3.793 -1.5745  1.3296  1.4284
  180SAPS  C21420608   0.352   5.093   3.851  0.5381 -0.1975 -0.2040
  180SAPS  H14R20609   0.424   5.024   3.898  0.9998  1.6615  1.9594
  180SAPS  C21520610   0.400   5.204   3.806 -0.5645  0.1068 -0.7026
  180SAPS  H15R20611   0.509   5.221   3.813 -0.2964 -1.1245 -1.6132
  180SAPS  C21620612   0.324   5.321   3.759  0.5145 -0.5024 -0.3616
  180SAPS  H16R20613   0.215   5.300   3.759  0.5292 -0.7647 -2.3188
  180SAPS  H16S20614   0.354   5.349   3.656 -0.4540 -0.2326 -0.5816
  180SAPS  C21720615   0.344   5.447   3.845  0.0409 -0.0511  0.8625
  180SAPS  H17R20616   0.309   5.432   3.950 -1.8391 -1.2202  0.1175
  180SAPS  H17S20617   0.279   5.524   3.799  3.1072  0.4629 -3.2441
  180SAPS  C21820618   0.492   5.506   3.855 -0.4245 -0.5393  0.3204
  180SAPS  H18R20619   0.562   5.439   3.911  0.0838  1.1701  1.8332
  180SAPS  H18S20620   0.492   5.600   3.915  1.0162  0.6461 -1.4512
  180SAPS  C21920621   0.536   5.546   3.715 -0.3302 -0.2204 -0.6775
  180SAPS  H19R20622   0.463   5.619   3.674  0.3427  0.1456 -1.2470
  180SAPS  H19S20623   0.529   5.460   3.646  0.2365 -0.0195 -0.9957
  180SAPS  C22020624   0.675   5.606   3.720  0.6309  0.0208 -0.0946
  180SAPS  H20R20625   0.747   5.536   3.673  1.0316 -0.8639  1.7210
  180SAPS  H20S20626   0.681   5.699   3.661 -2.4275 -0.5030 -1.4319
  180SAPS  H20T20627   0.702   5.628   3.826  0.0639  1.7304 -0.2825
  180SAPS   C3320628   1.089   4.077   3.058  0.0531 -0.0380 -0.3406
  180SAPS   H3X20629   1.183   4.131   3.084  0.7976  0.1141 -3.0573
  180SAPS   H3Y20630   1.112   4.016   2.968 -1.5851 -0.5245 -0.4621
  180SAPS   C3420631   1.036   3.978   3.168 -0.3968 -0.1536 -0.1912
  180SAPS   H4X20632   1.106   3.892   3.184 -2.9414 -2.3297  0.0271
  180SAPS   H4Y20633   0.938   3.930   3.145 -0.9143  1.5768 -1.7692
  180SAPS   C3520634   1.024   4.042   3.304  0.5047  0.0337 -1.0738
  180SAPS   H5X20635   0.936   4.110   3.306  1.4938  1.3530 -0.6885
  180SAPS   H5Y20636   1.109   4.108   3.330 -0.3508  0.2912  1.3109
  180SAPS   C3620637   1.004   3.944   3.420  0.0311 -0.5489 -0.5050
  180SAPS   H6X20638   1.087   3.871   3.409  1.1961  0.2153  2.3621
  180SAPS   H6Y20639   0.903   3.900   3.432  0.2492 -0.6737  1.1860
  180SAPS   C3720640   1.002   4.011   3.559 -0.0509 -0.1691  0.2050
  180SAPS   H7X20641   0.912   4.076   3.563 -0.2777 -0.5082  0.9812
  180SAPS   H7Y20642   1.085   4.083   3.573  0.8765 -1.5304  2.2312
  180SAPS   C3820643   1.013   3.915   3.678 -0.4400 -0.1867  0.2852
  180SAPS   H8X20644   1.070   3.825   3.648  0.0200  0.0972  0.2963
  180SAPS   H8Y20645   0.906   3.886   3.687 -0.4733 -0.1310  0.0737
  180SAPS   C3920646   1.045   3.986   3.814 -0.3052  0.6621 -0.4144
  180SAPS   H9X20647   1.002   3.923   3.895  1.2520 -1.9045 -1.4589
  180SAPS   H9Y20648   1.000   4.088   3.819  0.2126  0.9593 -1.5714
  180SAPS  C31020649   1.192   4.000   3.852  0.0531 -1.2317  0.6355
  180SAPS  H10X20650   1.235   4.064   3.771 -1.1674  2.4179  2.6229
  180SAPS  H10Y20651   1.242   3.902   3.840  3.0652 -0.0216  2.2841
  180SAPS  C31120652   1.209   4.068   3.993 -1.0458 -1.1170  1.0026
  180SAPS  H11X20653   1.187   4.173   3.961  0.4713 -1.4401 -1.3314
  180SAPS  H11Y20654   1.314   4.064   4.028 -0.6343  0.3785  0.0678
  180SAPS  C31220655   1.122   4.014   4.102 -0.3034  0.3133  0.8701
  180SAPS  H12X20656   1.131   3.904   4.107  0.8548  0.3451 -0.1460
  180SAPS  H12Y20657   1.015   4.040   4.086 -0.3668 -0.8329 -0.7383
  180SAPS  C31320658   1.158   4.071   4.245 -0.1247 -0.4861  0.0204
  180SAPS  H13X20659   1.195   4.174   4.231  2.0210 -1.4441 -2.1076
  180SAPS  H13Y20660   1.246   4.011   4.277 -1.6978 -2.0977  1.6145
  180SAPS  C31420661   1.047   4.072   4.354  0.5561  0.1175 -0.2119
  180SAPS  H14X20662   0.995   3.974   4.350 -0.6556  0.6562  1.4450
  180SAPS  H14Y20663   0.980   4.157   4.330 -1.0239 -1.1396 -0.4088
  180SAPS  C31520664   1.089   4.104   4.497 -0.2953 -0.9686  0.6136
  180SAPS  H15X20665   0.996   4.108   4.559 -1.5155 -2.0371 -1.0522
  180SAPS  H15Y20666   1.141   4.202   4.500  0.0161 -1.0955 -0.2940
  180SAPS  C31620667   1.177   3.996   4.560 -0.5580  0.0844  0.3200
  180SAPS  H16X20668   1.253   3.959   4.489  0.4622  1.2956  0.7551
  180SAPS  H16Y20669   1.121   3.905   4.593 -2.4235  1.4105  0.9570
  180SAPS  C31720670   1.249   4.049   4.680 -0.2032 -0.2104 -0.0794
  180SAPS  H17X20671   1.175   4.104   4.741 -0.7955 -2.0950  1.0006
  180SAPS  H17Y20672   1.321   4.125   4.642 -1.0730  2.0107  2.4220
  180SAPS  C31820673   1.335   3.957   4.764 -0.1216  0.5651 -0.8518
  180SAPS  H18X20674   1.384   4.001   4.854  0.1933 -0.1724 -0.6503
  180SAPS  H18Y20675   1.407   3.905   4.698 -0.4476  1.6998 -2.1487
  180SAPS  H18Z20676   1.265   3.887   4.816 -0.4105  0.7289 -1.0175
  181POPC     N20677   5.239   1.117   7.797  0.0708 -0.1366 -0.6534
  181POPC   C1220678   5.137   1.023   7.727  0.7136  0.0757 -0.0911
  181POPC  H12A20679   5.101   0.958   7.805 -0.3547  1.0596  0.2628
  181POPC  H12B20680   5.207   0.960   7.675 -0.5951 -0.9581 -0.6514
  181POPC   C1320681   5.338   1.034   7.870 -0.3202 -0.1571  0.4272
  181POPC  H13A20682   5.287   0.965   7.936  1.2260 -2.4477 -0.6332
  181POPC  H13B20683   5.404   0.980   7.804  1.4860  0.6316  1.4809
  181POPC  H13C20684   5.403   1.090   7.937  2.4034 -1.7137 -0.7450
  181POPC   C1420685   5.295   1.208   7.685  0.2026 -0.0026  0.3567
  181POPC  H14A20686   5.223   1.232   7.609 -1.6161  0.3729  2.1401
  181POPC  H14B20687   5.336   1.302   7.719 -0.5074  0.0285  1.1511
  181POPC  H14C20688   5.381   1.159   7.641  1.3620  1.5617  0.7934
  181POPC   C1520689   5.169   1.210   7.892  0.0277  0.1213  0.1343
  181POPC  H15A20690   5.235   1.280   7.941  1.6745 -0.7340 -0.7702
  181POPC  H15B20691   5.105   1.160   7.963  0.4953  2.8987  2.6985
  181POPC  H15C20692   5.099   1.270   7.836 -0.0739 -0.0909  0.0337
  181POPC   C1120693   5.031   1.084   7.628  0.1152  0.7687  0.2241
  181POPC  H11A20694   4.984   1.181   7.654  0.2793  1.1410 -0.8394
  181POPC  H11B20695   4.949   1.009   7.619 -0.9311  1.9203 -0.0598
  181POPC     P20696   5.094   0.969   7.403 -0.3878  0.1888 -0.1214
  181POPC   O1320697   4.963   0.961   7.337 -0.0726  0.0091  0.1561
  181POPC   O1420698   5.120   0.847   7.485 -0.2074 -0.0669 -0.2707
  181POPC   O1220699   5.098   1.094   7.504 -0.6899  0.1467 -0.1635
  181POPC   O1120700   5.207   0.988   7.292 -0.3600  0.1810 -0.5237
  181POPC    C120701   5.250   1.123   7.243  0.7205  0.0585  0.2842
  181POPC    HA20702   5.352   1.160   7.263 -0.2724  2.6883  0.8790
  181POPC    HB20703   5.189   1.206   7.283  1.7600  1.5614 -1.1261
  181POPC    C220704   5.232   1.128   7.084 -0.1468 -0.1579  0.0580
  181POPC    HS20705   5.232   1.235   7.054  1.6738  0.0443  0.6845
  181POPC   O2120706   5.108   1.067   7.049  0.4273 -0.2484  0.1386
  181POPC   C2120707   4.992   1.141   7.070 -0.5048 -0.7228  0.2745
  181POPC   O2220708   4.989   1.243   7.135  0.0587 -0.4399 -0.0636
  181POPC   C2220709   4.875   1.072   7.012 -0.5232 -0.1145 -0.1441
  181POPC   H2R20710   4.817   1.033   7.098 -1.2843 -0.9551 -1.0160
  181POPC   H2S20711   4.901   0.988   6.944  0.2499  0.9415 -1.2107
  181POPC    C320712   5.349   1.062   7.004 -0.2256 -0.0111 -0.2262
  181POPC    HX20713   5.331   0.952   7.003  1.0819 -0.2477 -0.1398
  181POPC    HY20714   5.434   1.068   7.076 -0.9298 -0.6125  0.6687
  181POPC   O3120715   5.391   1.125   6.883 -0.2352 -0.2163  0.1075
  181POPC   C3120716   5.350   1.072   6.765 -0.5112  0.4487 -0.1343
  181POPC   O3220717   5.278   0.976   6.747  0.1482 -0.6270  1.0779
  181POPC   C3220718   5.411   1.162   6.658  0.0401 -0.7088 -0.0440
  181POPC   H2X20719   5.520   1.143   6.647  0.1004  0.0568 -0.9456
  181POPC   H2Y20720   5.403   1.268   6.692 -0.8592  0.0639 -2.4105
  181POPC   C2320721   4.787   1.167   6.927 -0.6863  0.7901  0.8179
  181POPC   H3R20722   4.757   1.240   7.005 -1.0107  1.5075  0.0373
  181POPC   H3S20723   4.700   1.107   6.890 -1.5558  2.3633  0.1944
  181POPC   C2420724   4.859   1.245   6.809 -0.2585 -0.0162  0.3260
  181POPC   H4R20725   4.910   1.169   6.746 -0.9400  0.4406 -0.8123
  181POPC   H4S20726   4.941   1.311   6.842  1.1103 -1.8347  0.7185
  181POPC   C2520727   4.756   1.313   6.722 -0.7464 -0.3337 -0.4583
  181POPC   H5R20728   4.686   1.372   6.785  0.4643 -1.8065  2.4754
  181POPC   H5S20729   4.702   1.225   6.680 -1.7347  0.1587 -0.2610
  181POPC   C2620730   4.795   1.400   6.605 -0.3263  0.2178 -0.5859
  181POPC   H6R20731   4.884   1.355   6.556  2.3605  1.1600  2.9641
  181POPC   H6S20732   4.829   1.498   6.646 -2.1522  1.0192 -0.9254
  181POPC   C2720733   4.685   1.424   6.495 -0.1393 -0.9808  0.1522
  181POPC   H7R20734   4.599   1.478   6.540  0.6644  0.0001  0.5773
  181POPC   H7S20735   4.654   1.329   6.448 -2.4621 -0.9779  1.5270
  181POPC   C2820736   4.745   1.508   6.377  0.0061 -0.0097  0.1847
  181POPC   H8R20737   4.849   1.478   6.356  0.2232  0.1883  0.9364
  181POPC   H8S20738   4.731   1.617   6.397 -2.8371 -0.4840  1.2147
  181POPC   C2920739   4.665   1.489   6.254  0.0304 -0.4015  0.2759
  181POPC   H9120740   4.603   1.398   6.255 -1.8507  0.8059  2.1954
  181POPC  C21020741   4.661   1.578   6.152  0.9164  0.7021  0.7711
  181POPC  H10120742   4.610   1.547   6.060  0.6173 -1.5804  1.6421
  181POPC  C21120743   4.744   1.701   6.145  0.7926  0.1259  0.2381
  181POPC  H11R20744   4.786   1.704   6.042 -0.4949  0.5902 -0.2950
  181POPC  H11S20745   4.826   1.704   6.220 -0.7816 -0.8584  2.0940
  181POPC  C21220746   4.661   1.831   6.165  0.0404  0.0062 -0.2702
  181POPC  H12R20747   4.615   1.814   6.264  0.4203 -2.4615 -0.4661
  181POPC  H12S20748   4.584   1.849   6.087 -0.4448  1.6146  0.5353
  181POPC  C21320749   4.759   1.953   6.185  0.4818 -0.4238  0.3476
  181POPC  H13R20750   4.824   1.925   6.271 -0.0302 -2.6082  0.0841
  181POPC  H13S20751   4.716   2.048   6.224  5.8246  2.1152  0.9417
  181POPC  C21420752   4.830   1.995   6.059 -0.4805  0.4010  0.4391
  181POPC  H14R20753   4.896   1.909   6.035  1.3279  0.8051  3.4348
  181POPC  H14S20754   4.900   2.075   6.093 -1.5545  0.4473  2.7752
  181POPC  C21520755   4.751   2.041   5.936  0.2787  0.0415  0.4432
  181POPC  H15R20756   4.680   2.118   5.973  0.6423 -0.7109  2.9379
  181POPC  H15S20757   4.695   1.958   5.888  0.5223  0.4690 -0.5914
  181POPC  C21620758   4.844   2.090   5.828  1.3148 -0.4657 -0.2990
  181POPC  H16R20759   4.912   2.005   5.808  1.1120 -0.4096 -1.2854
  181POPC  H16S20760   4.892   2.174   5.883 -1.4166  1.1643 -0.1803
  181POPC  C21720761   4.773   2.134   5.701  0.5120  0.5243  0.1774
  181POPC  H17R20762   4.853   2.166   5.630  1.2216 -0.0653  0.6920
  181POPC  H17S20763   4.705   2.219   5.723 -1.0188 -1.2785  2.9918
  181POPC  C21820764   4.685   2.025   5.628  0.2721 -0.2879 -0.3922
  181POPC  H18R20765   4.740   1.930   5.618 -1.0622 -1.2607  0.9198
  181POPC  H18S20766   4.635   2.064   5.536 -1.1296 -0.6842  0.1637
  181POPC  H18T20767   4.602   1.992   5.695  1.6072 -1.1084  0.9195
  181POPC   C3320768   5.355   1.142   6.513  0.5062  0.0113 -1.2707
  181POPC   H3X20769   5.250   1.178   6.522  0.6360  0.1535 -0.2358
  181POPC   H3Y20770   5.354   1.033   6.489  2.0312 -0.4931  0.6819
  181POPC   C3420771   5.442   1.220   6.415 -0.9110 -0.1258  0.5011
  181POPC   H4X20772   5.543   1.174   6.429  0.1398  2.3660  1.7776
  181POPC   H4Y20773   5.446   1.319   6.466 -1.1187  1.2807 -2.0375
  181POPC   C3520774   5.394   1.227   6.269 -0.3549 -0.2639  0.3817
  181POPC   H5X20775   5.288   1.259   6.258  0.3908  2.4383  0.5382
  181POPC   H5Y20776   5.399   1.129   6.216 -1.6354 -0.0116 -0.2472
  181POPC   C3620777   5.483   1.325   6.181  0.1497 -0.0481 -0.5444
  181POPC   H6X20778   5.588   1.299   6.205 -0.4871 -2.0184  0.3215
  181POPC   H6Y20779   5.467   1.426   6.225  2.7920  1.0872 -2.0034
  181POPC   C3720780   5.456   1.307   6.036  0.2187 -0.0393  0.0022
  181POPC   H7X20781   5.347   1.318   6.018 -0.0631 -1.4704  0.7339
  181POPC   H7Y20782   5.496   1.214   5.991  0.8103  0.8131 -1.2731
  181POPC   C3820783   5.510   1.422   5.955  0.0046  0.1340  0.0101
  181POPC   H8X20784   5.621   1.416   5.963 -0.1293 -3.3628  0.6132
  181POPC   H8Y20785   5.492   1.524   5.993 -1.2141  0.3344 -1.0506
  181POPC   C3920786   5.473   1.406   5.801 -1.1620 -0.0401 -0.7791
  181POPC   H9X20787   5.363   1.397   5.788 -1.5832  0.4862  1.8520
  181POPC   H9Y20788   5.528   1.318   5.763 -1.8398 -0.3482 -1.0696
  181POPC  C31020789   5.517   1.527   5.713  0.4120 -0.3278  0.1464
  181POPC  H10X20790   5.628   1.523   5.714  0.5596  2.2330  0.7480
  181POPC  H10Y20791   5.486   1.631   5.737 -1.3314 -0.7458 -0.1453
  181POPC  C31120792   5.485   1.516   5.561  0.7552  0.2173  0.5962
  181POPC  H11X20793   5.531   1.420   5.526 -2.5235 -0.9169 -0.9600
  181POPC  H11Y20794   5.524   1.606   5.508  0.9934  1.8199  3.3139
  181POPC  C31220795   5.338   1.517   5.527  0.0472  0.2465 -0.3642
  181POPC  H12X20796   5.297   1.614   5.561 -0.5730  0.2326 -1.0600
  181POPC  H12Y20797   5.294   1.433   5.585 -4.8556  4.0751  2.1110
  181POPC  C31320798   5.312   1.498   5.369 -0.4103  0.2959 -0.5865
  181POPC  H13X20799   5.361   1.403   5.337 -2.2653 -2.0096  2.7417
  181POPC  H13Y20800   5.355   1.589   5.323 -2.3586  2.0053  0.7819
  181POPC  C31420801   5.161   1.494   5.326 -0.5222  0.4742 -0.2622
  181POPC  H14X20802   5.115   1.595   5.321  0.8315  1.3642  2.5779
  181POPC  H14Y20803   5.106   1.425   5.394  1.5604  0.4303  1.4886
  181POPC  C31520804   5.161   1.432   5.183  0.2928  0.5913  0.1997
  181POPC  H15X20805   5.201   1.329   5.194  0.5053  0.5078 -1.1602
  181POPC  H15Y20806   5.220   1.496   5.113 -0.1828  1.5942  0.6963
  181POPC  C31620807   5.014   1.429   5.135 -0.1523 -0.2778 -0.0102
  181POPC  H16X20808   5.004   1.375   5.038 -0.0262  0.1453 -0.2637
  181POPC  H16Y20809   4.979   1.534   5.126  0.3558  0.1839  2.6181
  181POPC  H16Z20810   4.948   1.367   5.199 -0.3877 -0.6081 -0.5635
  182POPC     N20811   3.433   6.011   7.091 -0.2905  0.2600 -0.0758
  182POPC   C1220812   3.323   5.944   7.011  0.0742  0.4274 -0.3059
  182POPC  H12A20813   3.238   5.923   7.075  1.5831  0.5852  1.8271
  182POPC  H12B20814   3.362   5.845   6.991  2.0247  0.6659  1.9870
  182POPC   C1320815   3.467   5.919   7.216 -0.1703 -0.5372  0.8685
  182POPC  H13A20816   3.541   5.971   7.277 -1.1691  0.8021  0.9790
  182POPC  H13B20817   3.384   5.878   7.270 -0.0277 -0.3888  1.2038
  182POPC  H13C20818   3.508   5.823   7.189  0.9919  0.3772 -0.7866
  182POPC   C1420819   3.558   6.010   7.006 -0.2986  0.8292  0.1870
  182POPC  H14A20820   3.547   6.057   6.909 -3.0973  1.8156  0.8985
  182POPC  H14B20821   3.637   6.065   7.056  0.7639  0.8142 -1.4050
  182POPC  H14C20822   3.603   5.913   6.994 -0.7975  0.7541 -1.2313
  182POPC   C1520823   3.387   6.146   7.131  0.5071  0.6535  0.7240
  182POPC  H15A20824   3.322   6.140   7.217 -2.9858  3.4408 -1.4144
  182POPC  H15B20825   3.332   6.188   7.048  1.2664 -0.9138 -0.6082
  182POPC  H15C20826   3.467   6.214   7.156 -0.9182  2.2058  1.2466
  182POPC   C1120827   3.262   5.994   6.879  0.0896 -0.0633  0.2230
  182POPC  H11A20828   3.188   5.916   6.851  0.5887  0.2703 -2.2979
  182POPC  H11B20829   3.342   6.002   6.802  0.2435  0.9001  0.4755
  182POPC     P20830   3.057   6.146   6.956  0.3136 -0.0527  0.0426
  182POPC   O1320831   3.068   6.249   7.060 -0.3300  0.5227  0.3600
  182POPC   O1420832   3.005   6.020   7.001  1.1125 -0.1160 -0.4224
  182POPC   O1220833   3.199   6.125   6.890 -0.6157 -0.0451  0.2832
  182POPC   O1120834   2.963   6.202   6.843  0.4380  0.2533  0.6582
  182POPC    C120835   2.984   6.174   6.704  0.0182 -0.1954 -0.3208
  182POPC    HA20836   2.985   6.066   6.679 -3.7115 -0.3781 -0.2090
  182POPC    HB20837   3.075   6.221   6.661  0.3688  0.5057  1.1227
  182POPC    C220838   2.860   6.226   6.621  0.0480  0.4147 -1.2223
  182POPC    HS20839   2.777   6.157   6.648 -0.0335  0.8972 -0.1705
  182POPC   O2120840   2.906   6.225   6.488 -0.4743 -0.5459  0.0034
  182POPC   C2120841   2.811   6.226   6.396 -0.5101  0.9888 -0.0757
  182POPC   O2220842   2.693   6.197   6.418  0.7947 -0.0558  0.1195
  182POPC   C2220843   2.880   6.231   6.260 -0.6720  0.9447  0.2974
  182POPC   H2R20844   2.932   6.135   6.242 -1.1928  0.9883 -1.7952
  182POPC   H2S20845   2.953   6.314   6.272  0.9496 -0.3868  0.0353
  182POPC    C320846   2.835   6.377   6.668  0.1281  0.5564  0.0104
  182POPC    HX20847   2.931   6.432   6.673  0.8456 -0.7825  1.8990
  182POPC    HY20848   2.807   6.389   6.775 -0.1129  0.4342 -0.0387
  182POPC   O3120849   2.746   6.445   6.579  0.3044 -0.0399 -0.1714
  182POPC   C3120850   2.620   6.449   6.610 -0.1280  0.0123 -0.2283
  182POPC   O3220851   2.582   6.391   6.716 -0.4633 -0.4997 -0.8536
  182POPC   C3220852   2.533   6.523   6.514 -0.2963  0.0060  0.8787
  182POPC   H2X20853   2.488   6.616   6.556 -0.0142  0.6170 -0.1490
  182POPC   H2Y20854   2.462   6.442   6.487  2.1033 -1.6308 -0.9881
  182POPC   C2320855   2.781   6.243   6.141 -0.6199  0.6426 -0.1197
  182POPC   H3R20856   2.697   6.306   6.176 -0.4272 -0.0077  1.6150
  182POPC   H3S20857   2.734   6.143   6.128  2.3903 -1.2422  2.1224
  182POPC   C2420858   2.854   6.302   6.021 -0.2280 -0.8556  0.6304
  182POPC   H4R20859   2.906   6.396   6.047  0.3482 -1.1785  0.6449
  182POPC   H4S20860   2.783   6.323   5.937  2.8671 -1.9532 -2.5133
  182POPC   C2520861   2.946   6.211   5.945 -0.1572  0.3043  0.0114
  182POPC   H5R20862   2.893   6.118   5.915  0.1143 -0.2088  1.0837
  182POPC   H5S20863   3.017   6.185   6.026 -2.7657  2.5439  3.2899
  182POPC   C2620864   3.027   6.289   5.838  0.2397  0.1221  0.5324
  182POPC   H6R20865   3.090   6.208   5.795 -0.0824 -0.6054  1.3776
  182POPC   H6S20866   3.085   6.373   5.881 -1.7039  1.7811  0.0659
  182POPC   C2720867   2.943   6.337   5.716  0.4835 -0.1159  0.2843
  182POPC   H7R20868   3.020   6.382   5.649  0.8219  0.9586  1.3594
  182POPC   H7S20869   2.873   6.418   5.745 -0.4389 -1.3168  1.5031
  182POPC   C2820870   2.855   6.236   5.652 -0.0559 -0.3509  0.2898
  182POPC   H8R20871   2.790   6.281   5.574 -1.4800 -3.4934 -0.4920
  182POPC   H8S20872   2.784   6.191   5.724 -0.6579  0.5475  0.2760
  182POPC   C2920873   2.933   6.118   5.597  0.0034  0.0850  0.2571
  182POPC   H9120874   2.954   6.037   5.668 -1.0024 -1.0720 -0.7323
  182POPC  C21020875   2.992   6.116   5.477  0.1959  0.9750 -0.0723
  182POPC  H10120876   3.049   6.025   5.453  1.7021  1.9726 -0.4406
  182POPC  C21120877   2.997   6.224   5.377  0.2526  0.0008 -0.1600
  182POPC  H11R20878   3.098   6.257   5.346  0.3840 -0.5028 -0.2810
  182POPC  H11S20879   2.958   6.313   5.431  0.5080 -0.1425  0.2651
  182POPC  C21220880   2.926   6.220   5.236 -0.7046  0.3455 -0.2011
  182POPC  H12R20881   2.817   6.206   5.247 -0.9206 -1.0989 -3.2047
  182POPC  H12S20882   2.959   6.125   5.188 -1.3634  0.3790 -0.7233
  182POPC  C21320883   2.931   6.350   5.158 -0.0422 -0.3294  0.4389
  182POPC  H13R20884   3.030   6.399   5.146 -0.2226  0.0028  0.2694
  182POPC  H13S20885   2.855   6.417   5.204  2.1611  1.3358  1.8675
  182POPC  C21420886   2.894   6.340   5.011 -0.4404 -0.3794  0.5065
  182POPC  H14R20887   2.793   6.294   5.002 -0.3152 -0.2838 -2.2965
  182POPC  H14S20888   2.972   6.279   4.961 -0.6654 -0.0735 -0.2358
  182POPC  C21520889   2.870   6.476   4.938  0.1957 -0.4766 -0.2956
  182POPC  H15R20890   2.971   6.515   4.914  0.4294 -1.5233 -1.0603
  182POPC  H15S20891   2.830   6.542   5.019  0.3551  0.8864 -1.2933
  182POPC  C21620892   2.779   6.469   4.811 -0.3650  0.4840 -0.2158
  182POPC  H16R20893   2.769   6.575   4.779  1.7612  1.3401  1.7272
  182POPC  H16S20894   2.682   6.418   4.827  0.3108 -1.7370 -2.4296
  182POPC  C21720895   2.840   6.385   4.695 -0.0422 -0.0010 -0.4693
  182POPC  H17R20896   2.834   6.274   4.695  0.3369 -0.0254 -0.9216
  182POPC  H17S20897   2.946   6.413   4.677 -0.6579  4.1224  1.1244
  182POPC  C21820898   2.768   6.415   4.558  0.7656  0.0920  0.8331
  182POPC  H18R20899   2.829   6.383   4.470 -0.5938  0.8442 -0.4208
  182POPC  H18S20900   2.736   6.520   4.546 -0.9858 -0.2861  1.8961
  182POPC  H18T20901   2.676   6.353   4.548  0.3766  0.7427  0.3261
  182POPC   C3320902   2.601   6.561   6.379  0.2162 -0.3503 -0.5637
  182POPC   H3X20903   2.628   6.465   6.331 -1.1472  0.4096 -2.9942
  182POPC   H3Y20904   2.698   6.614   6.391 -0.3405  0.4804  0.4489
  182POPC   C3420905   2.513   6.632   6.279  0.8385 -0.4150  0.0237
  182POPC   H4X20906   2.476   6.726   6.325 -0.6445 -1.5197  1.1780
  182POPC   H4Y20907   2.421   6.569   6.268  0.1759  0.6691 -0.8431
  182POPC   C3520908   2.593   6.641   6.147 -0.7858  0.6652 -0.4331
  182POPC   H5X20909   2.636   6.539   6.133  0.9825  1.2505  0.4495
  182POPC   H5Y20910   2.677   6.714   6.157 -0.9661  0.7570  0.4582
  182POPC   C3620911   2.505   6.672   6.027 -0.1261  0.2377  0.0544
  182POPC   H6X20912   2.487   6.781   6.030 -0.1916  0.2970 -1.5658
  182POPC   H6Y20913   2.406   6.621   6.022  0.4439 -0.7923 -1.6369
  182POPC   C3720914   2.590   6.635   5.901 -0.0265  0.6347  0.6844
  182POPC   H7X20915   2.586   6.526   5.878  0.9701  0.9009 -0.8950
  182POPC   H7Y20916   2.698   6.656   5.912 -0.0375  1.5233 -0.7397
  182POPC   C3820917   2.548   6.710   5.772 -0.3997 -0.6025 -0.1599
  182POPC   H8X20918   2.520   6.816   5.788 -1.1830 -0.8405  0.0798
  182POPC   H8Y20919   2.456   6.662   5.732  0.3938 -1.6396 -0.7831
  182POPC   C3920920   2.651   6.709   5.661  0.3048 -0.3478 -0.4708
  182POPC   H9X20921   2.694   6.610   5.637 -0.5560 -0.7954 -0.1987
  182POPC   H9Y20922   2.733   6.779   5.690 -2.0464  3.1441 -1.5433
  182POPC  C31020923   2.599   6.756   5.520  0.5827 -0.7723  0.0292
  182POPC  H10X20924   2.550   6.851   5.549  0.3211 -0.8506 -0.1531
  182POPC  H10Y20925   2.520   6.687   5.483 -1.3540  1.6117 -0.5472
  182POPC  C31120926   2.704   6.778   5.409 -0.2387 -0.7640 -0.4963
  182POPC  H11X20927   2.771   6.690   5.395  0.5388 -0.1679 -0.5671
  182POPC  H11Y20928   2.766   6.860   5.451 -0.7434  0.1758 -1.5444
  182POPC  C31220929   2.638   6.817   5.277 -0.4277 -0.2135 -0.2356
  182POPC  H12X20930   2.574   6.907   5.292 -0.4136 -0.2754  0.2277
  182POPC  H12Y20931   2.575   6.731   5.248  0.3312 -1.2133  0.9733
  182POPC  C31320932   2.738   6.848   5.168  0.2458 -1.0486  0.7351
  182POPC  H13X20933   2.789   6.753   5.141  0.7017 -1.5826  3.2354
  182POPC  H13Y20934   2.816   6.923   5.196 -1.4512  0.5139  1.4775
  182POPC  C31420935   2.661   6.901   5.046 -0.5589 -0.2193 -0.1026
  182POPC  H14X20936   2.606   6.993   5.074  0.0154  0.2097 -0.3518
  182POPC  H14Y20937   2.588   6.821   5.022 -0.4807 -0.0411 -0.9921
  182POPC  C31520938   2.746   6.936   4.918 -0.5469 -0.3585  0.2578
  182POPC  H15X20939   2.829   6.863   4.911  1.9098  2.2746  0.4705
  182POPC  H15Y20940   2.793   7.032   4.946 -0.0090 -0.4284 -0.4007
  182POPC  C31620941   2.677   6.945   4.782 -0.5664 -0.1776 -0.1793
  182POPC  H16X20942   2.602   7.026   4.795  1.1064  1.5070 -0.5059
  182POPC  H16Y20943   2.629   6.849   4.754 -0.5677 -0.6234  1.2429
  182POPC  H16Z20944   2.758   6.965   4.709 -0.8538  0.3294 -0.3682
  183POPC     N20945   4.186   2.692   7.333  0.0422  0.1435 -0.0506
  183POPC   C1220946   4.301   2.788   7.336 -0.0926  0.6610  0.3746
  183POPC  H12A20947   4.384   2.747   7.391  0.4528 -0.3116 -1.1096
  183POPC  H12B20948   4.269   2.877   7.388 -1.5351 -0.7412  2.0165
  183POPC   C1320949   4.065   2.750   7.257  0.7746  0.9545  0.2020
  183POPC  H13A20950   4.092   2.819   7.179 -0.9298  1.2268 -0.1851
  183POPC  H13B20951   4.020   2.668   7.202  1.9321  0.0330  0.5964
  183POPC  H13C20952   3.996   2.801   7.322 -1.6394 -2.4190  0.5461
  183POPC   C1420953   4.227   2.568   7.263 -0.1142  0.0123 -0.2133
  183POPC  H14A20954   4.303   2.519   7.322 -1.0999 -2.0344 -0.5636
  183POPC  H14B20955   4.149   2.495   7.250 -0.7349  0.1305  2.3443
  183POPC  H14C20956   4.256   2.600   7.164  0.5808 -2.0101 -0.7149
  183POPC   C1520957   4.147   2.657   7.472  0.0719  0.3080  0.2512
  183POPC  H15A20958   4.072   2.579   7.472 -0.2982  0.6603 -0.1013
  183POPC  H15B20959   4.098   2.733   7.530 -0.4621 -0.8268  1.3303
  183POPC  H15C20960   4.228   2.629   7.538 -0.9423  0.5211  1.6318
  183POPC   C1120961   4.354   2.835   7.195  0.3151  0.0225 -0.4252
  183POPC  H11A20962   4.383   2.746   7.135  2.4352  1.0269 -0.9743
  183POPC  H11B20963   4.454   2.881   7.208  0.4399 -0.4514  0.3127
  183POPC     P20964   4.276   3.076   7.120  0.2850 -0.2332  0.5290
  183POPC   O1320965   4.297   3.129   7.250  0.0931 -0.4240 -0.0671
  183POPC   O1420966   4.166   3.132   7.035  0.3255 -0.7385 -0.1317
  183POPC   O1220967   4.265   2.916   7.125 -0.3772 -0.2464 -0.2458
  183POPC   O1120968   4.410   3.102   7.043  0.1042  0.3524  0.0749
  183POPC    C120969   4.441   3.043   6.915  0.4029 -0.6024 -0.2882
  183POPC    HA20970   4.348   3.007   6.866  0.6115 -1.1550 -0.2826
  183POPC    HB20971   4.502   2.952   6.935 -0.1170 -0.6823  1.0361
  183POPC    C220972   4.503   3.142   6.820 -0.5625  0.0830  0.0585
  183POPC    HS20973   4.563   3.214   6.880  0.8985 -1.6064  0.7152
  183POPC   O2120974   4.401   3.194   6.734 -0.4183 -0.3147  0.1427
  183POPC   C2120975   4.424   3.310   6.681 -0.3696 -0.0723  0.0892
  183POPC   O2220976   4.527   3.376   6.704  0.1283  0.2543 -0.2821
  183POPC   C2220977   4.305   3.369   6.606 -0.4507  0.2055 -0.0843
  183POPC   H2R20978   4.259   3.445   6.673  2.5022  2.4588 -0.4013
  183POPC   H2S20979   4.237   3.290   6.569 -0.5481  0.7145 -1.0398
  183POPC    C320980   4.605   3.061   6.735 -0.6666 -0.2202 -0.6449
  183POPC    HX20981   4.557   2.975   6.684  0.5836 -1.7621  0.6775
  183POPC    HY20982   4.681   3.020   6.805 -0.0670  4.0898  1.5367
  183POPC   O3120983   4.668   3.143   6.634 -0.1122 -0.6805  0.3152
  183POPC   C3120984   4.794   3.144   6.610  0.8293 -0.0697 -0.0538
  183POPC   O3220985   4.873   3.061   6.653  0.1931 -0.4223 -0.1482
  183POPC   C3220986   4.835   3.260   6.524  0.1575  0.1711  0.4274
  183POPC   H2X20987   4.936   3.290   6.557  0.1107  0.9544 -0.1114
  183POPC   H2Y20988   4.776   3.351   6.549 -2.0149 -0.5991 -1.5311
  183POPC   C2320989   4.347   3.453   6.485 -1.4087 -0.0554 -0.0581
  183POPC   H3R20990   4.388   3.387   6.405  0.8781  2.3193 -0.9862
  183POPC   H3S20991   4.429   3.522   6.514 -0.3639 -0.8704 -0.9725
  183POPC   C2420992   4.237   3.539   6.434  0.3896 -0.0567  0.6003
  183POPC   H4R20993   4.201   3.603   6.518 -0.3648  1.5683 -0.8870
  183POPC   H4S20994   4.145   3.495   6.389  0.5574 -0.2748  0.4718
  183POPC   C2520995   4.282   3.637   6.329 -1.0075 -0.2208 -0.3974
  183POPC   H5R20996   4.390   3.659   6.342 -0.8295  0.0574 -2.0956
  183POPC   H5S20997   4.213   3.725   6.333 -3.2672 -1.8390 -1.4258
  183POPC   C2620998   4.265   3.577   6.190  0.3610 -0.3489 -0.8197
  183POPC   H6R20999   4.158   3.556   6.167  0.5536 -4.3632  1.1033
  183POPC   H6S21000   4.309   3.476   6.184 -2.0668 -1.4544 -1.1747
  183POPC   C2721001   4.333   3.663   6.080  0.0196  0.0080  0.2702
  183POPC   H7R21002   4.428   3.709   6.113 -0.9537  2.3074  0.0197
  183POPC   H7S21003   4.260   3.743   6.059 -2.1246 -2.1051 -0.8316
  183POPC   C2821004   4.363   3.585   5.953  0.0948 -0.2910 -0.3216
  183POPC   H8R21005   4.282   3.521   5.914  0.3619 -1.2610  0.6605
  183POPC   H8S21006   4.447   3.513   5.971  1.0551 -0.0122 -3.2309
  183POPC   C2921007   4.426   3.689   5.857  0.3777  0.1328  0.1049
  183POPC   H9121008   4.483   3.769   5.906  3.9188 -1.5458 -0.8951
  183POPC  C21021009   4.440   3.661   5.728 -0.8267 -0.3076  0.5212
  183POPC  H10121010   4.483   3.737   5.661 -0.1571 -2.5829 -1.7549
  183POPC  C21121011   4.388   3.535   5.662 -0.2632  0.0247 -0.4378
  183POPC  H11R21012   4.283   3.520   5.695 -0.1380  0.4682  0.1670
  183POPC  H11S21013   4.444   3.442   5.688  2.9189  1.6807 -0.8377
  183POPC  C21221014   4.381   3.551   5.514  0.0520 -0.5614 -0.0179
  183POPC  H12R21015   4.332   3.640   5.469 -0.1007 -1.1525 -1.0641
  183POPC  H12S21016   4.319   3.464   5.484 -0.3540  0.0485 -0.9797
  183POPC  C21321017   4.524   3.548   5.447 -0.0446 -0.1346 -0.1477
  183POPC  H13R21018   4.596   3.476   5.491  1.4092  0.0253 -2.1318
  183POPC  H13S21019   4.566   3.651   5.449  0.6860 -0.4142 -0.6968
  183POPC  C21421020   4.524   3.500   5.301  0.1937  0.3648  0.4235
  183POPC  H14R21021   4.468   3.574   5.239  1.8568  0.9286 -0.4554
  183POPC  H14S21022   4.471   3.403   5.288 -0.6060  0.7941  0.3745
  183POPC  C21521023   4.668   3.475   5.250 -0.5101  0.3238  0.0105
  183POPC  H15R21024   4.705   3.397   5.320 -1.7255  1.2124  1.7219
  183POPC  H15S21025   4.734   3.563   5.264  0.5018 -0.5200  0.6826
  183POPC  C21621026   4.673   3.423   5.109 -0.7339  0.0640  0.5247
  183POPC  H16R21027   4.628   3.499   5.041  0.3759  2.0839  1.9516
  183POPC  H16S21028   4.631   3.322   5.091 -1.8558  0.2810  1.7374
  183POPC  C21721029   4.824   3.405   5.071  0.4798  0.0677 -0.1797
  183POPC  H17R21030   4.826   3.391   4.961 -1.3573  0.7856 -0.3399
  183POPC  H17S21031   4.862   3.307   5.108  0.4957 -0.6384 -1.9557
  183POPC  C21821032   4.930   3.504   5.104 -0.2851 -0.3688 -0.3269
  183POPC  H18R21033   4.919   3.597   5.044  1.0015 -0.8780 -1.3830
  183POPC  H18S21034   5.028   3.471   5.065  0.0966  0.1540  0.1716
  183POPC  H18T21035   4.941   3.522   5.214 -0.8534  0.9751 -0.4715
  183POPC   C3321036   4.820   3.237   6.372 -0.1842 -0.4454  0.7134
  183POPC   H3X21037   4.715   3.236   6.337  0.6747  1.4855 -2.2824
  183POPC   H3Y21038   4.866   3.145   6.329 -2.0972  0.2565 -3.2359
  183POPC   C3421039   4.885   3.350   6.287  1.3905 -0.3453 -0.1391
  183POPC   H4X21040   4.996   3.347   6.284  1.3692 -1.8582  0.0423
  183POPC   H4Y21041   4.860   3.448   6.333  0.4713 -0.8076  0.3692
  183POPC   C3521042   4.835   3.362   6.140 -0.4793  0.3275  0.1311
  183POPC   H5X21043   4.724   3.360   6.134 -0.5432 -1.7630  1.0767
  183POPC   H5Y21044   4.874   3.273   6.086 -0.3493 -0.6532  1.8041
  183POPC   C3621045   4.882   3.501   6.081  0.1057  0.2575 -0.2743
  183POPC   H6X21046   4.992   3.509   6.091 -0.1115  0.8385  2.0318
  183POPC   H6Y21047   4.840   3.573   6.154 -1.4974  0.1030 -0.9996
  183POPC   C3721048   4.812   3.533   5.952  0.5382 -1.1170  0.2377
  183POPC   H7X21049   4.818   3.643   5.938 -0.1506 -1.0989  0.0094
  183POPC   H7Y21050   4.704   3.508   5.965  0.1908  1.4413  3.6179
  183POPC   C3821051   4.882   3.461   5.831 -0.6415 -0.3278  0.4973
  183POPC   H8X21052   4.879   3.351   5.848 -3.1683 -0.5521 -1.0481
  183POPC   H8Y21053   4.987   3.498   5.825 -0.9737  0.5638  0.1730
  183POPC   C3921054   4.817   3.487   5.696  0.5104 -0.5005  0.2823
  183POPC   H9X21055   4.708   3.489   5.718  0.2873  0.7603 -0.8516
  183POPC   H9Y21056   4.840   3.403   5.627  0.0788  0.1499 -0.6674
  183POPC  C31021057   4.869   3.617   5.631  0.3230 -0.4087 -0.2437
  183POPC  H10X21058   4.868   3.697   5.707 -1.0259 -0.2973 -0.3509
  183POPC  H10Y21059   4.797   3.649   5.552  1.9768 -0.1319 -1.6870
  183POPC  C31121060   5.002   3.598   5.550  0.3211 -0.2128  1.0201
  183POPC  H11X21061   4.981   3.504   5.494 -0.1901 -0.2053  1.1909
  183POPC  H11Y21062   5.084   3.575   5.621  1.4458 -0.6974 -0.3855
  183POPC  C31221063   5.032   3.716   5.455  0.2198 -0.7222 -0.2848
  183POPC  H12X21064   5.047   3.804   5.521  2.1041 -1.2249  0.0103
  183POPC  H12Y21065   4.942   3.746   5.398  1.7241  0.1018 -2.3303
  183POPC  C31321066   5.156   3.708   5.360  0.7232  0.3636 -0.1706
  183POPC  H13X21067   5.160   3.809   5.314  2.5980 -0.5363 -2.2212
  183POPC  H13Y21068   5.134   3.641   5.274 -1.4538  0.0462  0.5581
  183POPC  C31421069   5.282   3.684   5.438  0.0505 -1.2403  0.6649
  183POPC  H14X21070   5.282   3.583   5.483 -0.9979 -2.0781 -1.1062
  183POPC  H14Y21071   5.293   3.764   5.515  1.2850  0.0367 -0.7773
  183POPC  C31521072   5.402   3.696   5.343  0.5544  0.5566  0.2997
  183POPC  H15X21073   5.383   3.627   5.257 -1.5477  0.7201  0.5790
  183POPC  H15Y21074   5.500   3.666   5.387  0.0046  1.1777  2.0296
  183POPC  C31621075   5.427   3.837   5.304  0.2635 -0.3456  0.0175
  183POPC  H16X21076   5.335   3.884   5.262  0.5250 -0.5528 -0.8001
  183POPC  H16Y21077   5.512   3.837   5.233  2.4923 -1.4500  2.5205
  183POPC  H16Z21078   5.455   3.895   5.395  1.3675 -0.0914 -0.4735
  184POPC     N21079   5.210   3.691   7.010 -0.2584  0.5604 -0.0509
  184POPC   C1221080   5.225   3.841   7.020  0.3114  0.1484  0.8546
  184POPC  H12A21081   5.153   3.883   6.953  0.6362  2.5911  1.9294
  184POPC  H12B21082   5.324   3.867   6.986 -0.7843  0.9139 -2.0281
  184POPC   C1321083   5.289   3.623   7.120  0.3457  0.3632  0.3118
  184POPC  H13A21084   5.267   3.518   7.133  0.4888  0.2788 -0.1342
  184POPC  H13B21085   5.395   3.629   7.099  0.4828 -2.1827 -0.0013
  184POPC  H13C21086   5.261   3.687   7.202 -1.2678  1.4947 -1.0650
  184POPC   C1421087   5.055   3.655   7.008  0.4511  0.2038 -0.1720
  184POPC  H14A21088   5.007   3.679   6.914 -0.3724 -0.4300  0.0833
  184POPC  H14B21089   5.033   3.552   7.029 -2.9737  0.8664  0.1085
  184POPC  H14C21090   5.001   3.712   7.083  0.2690 -0.9291  0.5867
  184POPC   C1521091   5.265   3.643   6.883  0.7332  0.2197 -0.6563
  184POPC  H15A21092   5.370   3.671   6.886  0.6910  0.6175 -2.0331
  184POPC  H15B21093   5.227   3.676   6.787  1.8302 -0.6042 -1.4001
  184POPC  H15C21094   5.270   3.535   6.882 -0.6353  0.1291  0.4499
  184POPC   C1121095   5.206   3.907   7.155  0.1522 -0.1670  0.0346
  184POPC  H11A21096   5.232   4.015   7.148 -0.1042 -0.2222 -2.8191
  184POPC  H11B21097   5.277   3.861   7.228  0.5735  1.0534  0.4212
  184POPC     P21098   4.960   3.988   7.127 -0.3238 -0.0984 -0.1367
  184POPC   O1321099   4.893   4.081   7.220 -0.2368  0.3571 -0.0702
  184POPC   O1421100   4.878   3.898   7.043 -0.2251  0.3034 -0.9240
  184POPC   O1221101   5.071   3.905   7.204  0.4568  0.2179  1.2495
  184POPC   O1121102   5.048   4.070   7.019  0.0878 -0.5794 -0.3265
  184POPC    C121103   5.025   4.214   7.000 -0.0235  0.3240 -0.6837
  184POPC    HA21104   5.070   4.265   7.088 -0.9198  0.8457 -0.5104
  184POPC    HB21105   4.919   4.249   7.005 -0.6637 -1.5873  0.2373
  184POPC    C221106   5.091   4.265   6.867  0.2173 -0.1667  0.2653
  184POPC    HS21107   5.062   4.372   6.863 -4.8666 -1.3271 -2.2200
  184POPC   O2121108   5.036   4.189   6.759 -0.2974  0.3863 -0.7859
  184POPC   C2121109   4.999   4.265   6.655  0.1541  0.0091 -0.2913
  184POPC   O2221110   5.017   4.386   6.655  0.0409  0.2192 -0.1773
  184POPC   C2221111   4.938   4.181   6.546 -0.7699 -0.5074  0.2768
  184POPC   H2R21112   4.829   4.189   6.562 -0.9162  2.7918 -1.5204
  184POPC   H2S21113   4.970   4.076   6.563  1.1856  0.2089  1.3854
  184POPC    C321114   5.246   4.243   6.865  0.8340 -0.3936  0.4697
  184POPC    HX21115   5.272   4.138   6.841  1.9865 -0.4492  1.8166
  184POPC    HY21116   5.284   4.265   6.968  1.1494  1.6285 -0.0328
  184POPC   O3121117   5.312   4.326   6.760 -0.5693  0.7261 -0.6518
  184POPC   C3121118   5.309   4.451   6.779 -1.0108 -0.3582  0.6492
  184POPC   O3221119   5.271   4.510   6.880 -0.4228 -0.2266 -0.3556
  184POPC   C3221120   5.360   4.519   6.650  0.1339  0.0837  0.0326
  184POPC   H2X21121   5.384   4.442   6.574  1.2418 -1.2191  1.6287
  184POPC   H2Y21122   5.456   4.568   6.675 -0.0244  0.1455  0.5305
  184POPC   C2321123   4.967   4.249   6.408  0.1274  0.4572 -0.8779
  184POPC   H3R21124   4.927   4.352   6.395 -1.0018 -0.0398 -1.4122
  184POPC   H3S21125   4.912   4.188   6.333 -0.0070  0.8237 -1.0781
  184POPC   C2421126   5.118   4.230   6.376 -0.4904 -0.1760 -0.1417
  184POPC   H4R21127   5.145   4.123   6.391  0.4109  0.3286  2.4163
  184POPC   H4S21128   5.178   4.291   6.447  0.8895 -1.3363 -0.2656
  184POPC   C2521129   5.162   4.286   6.241  0.1745 -0.0727 -0.2779
  184POPC   H5R21130   5.123   4.390   6.247 -0.1431 -0.2638  1.2608
  184POPC   H5S21131   5.120   4.233   6.153  0.7899  0.0037 -0.6209
  184POPC   C2621132   5.313   4.295   6.220  0.0741  0.4728  0.0290
  184POPC   H6R21133   5.346   4.189   6.224 -3.0098 -0.6152 -0.8869
  184POPC   H6S21134   5.360   4.339   6.311 -2.4014 -0.6075  1.9383
  184POPC   C2721135   5.350   4.360   6.095  0.0091 -0.3536  0.1977
  184POPC   H7R21136   5.334   4.469   6.107 -0.7531 -0.6346  2.1393
  184POPC   H7S21137   5.292   4.317   6.011  1.0034 -0.3796 -0.4851
  184POPC   C2821138   5.504   4.331   6.056  0.4052  0.3273 -0.5438
  184POPC   H8R21139   5.517   4.338   5.946  1.4125 -1.9417 -0.6231
  184POPC   H8S21140   5.526   4.226   6.082  2.4478  0.8384 -0.0549
  184POPC   C2921141   5.598   4.419   6.128 -0.7708  0.7028  0.3576
  184POPC   H9121142   5.557   4.467   6.218 -0.4845 -0.1919  0.9811
  184POPC  C21021143   5.711   4.467   6.066 -1.1919  0.1784 -0.2015
  184POPC  H10121144   5.777   4.522   6.134 -0.6876 -0.8524  0.1679
  184POPC  C21121145   5.781   4.425   5.936 -0.1454  0.1901  0.2382
  184POPC  H11R21146   5.793   4.315   5.927  2.2206  0.3042  1.1844
  184POPC  H11S21147   5.886   4.460   5.932  0.6798 -1.8988  1.6107
  184POPC  C21221148   5.715   4.483   5.810 -0.5329 -0.1924 -0.6310
  184POPC  H12R21149   5.742   4.589   5.792  1.3792 -0.4877  0.3038
  184POPC  H12S21150   5.606   4.488   5.829 -0.1140  1.0044  1.6840
  184POPC  C21321151   5.762   4.407   5.690  0.2711  0.4412 -0.9564
  184POPC  H13R21152   5.735   4.300   5.701 -1.0877  0.8762  0.3158
  184POPC  H13S21153   5.873   4.414   5.687  0.1917  2.7961 -0.5428
  184POPC  C21421154   5.705   4.462   5.562 -0.0030  0.8271 -0.8175
  184POPC  H14R21155   5.732   4.570   5.570 -3.0321  1.5525  1.4960
  184POPC  H14S21156   5.594   4.460   5.567  0.0418 -1.1051  0.6185
  184POPC  C21521157   5.751   4.391   5.431 -0.6211  0.4454  0.0199
  184POPC  H15R21158   5.701   4.433   5.341 -0.1192  1.4062  0.1775
  184POPC  H15S21159   5.718   4.285   5.427 -0.9075  0.5298  0.1163
  184POPC  C21621160   5.898   4.388   5.411  0.3312 -1.1546  0.1072
  184POPC  H16R21161   5.943   4.305   5.471 -0.8523 -1.2724  0.8668
  184POPC  H16S21162   5.944   4.483   5.446  0.6140 -0.6172 -1.6193
  184POPC  C21721163   5.939   4.354   5.275 -0.1613  0.6948 -0.9128
  184POPC  H17R21164   5.917   4.444   5.213  0.6426  0.7013 -1.2018
  184POPC  H17S21165   5.887   4.260   5.248 -0.6305 -0.1330  2.4514
  184POPC  C21821166   6.096   4.321   5.262  0.0705 -0.7442  0.6835
  184POPC  H18R21167   6.128   4.247   5.339  1.9964 -0.8218 -0.1478
  184POPC  H18S21168   6.157   4.414   5.265 -0.8267 -0.0848 -0.7083
  184POPC  H18T21169   6.111   4.279   5.161  0.1706  0.3291  0.2452
  184POPC   C3321170   5.254   4.620   6.596  0.3174 -0.5126 -0.3374
  184POPC   H3X21171   5.269   4.720   6.642 -2.2294  0.0968 -0.6657
  184POPC   H3Y21172   5.150   4.588   6.619  0.1061  0.8689  0.8562
  184POPC   C3421173   5.272   4.637   6.445  0.3438  0.4189  0.0500
  184POPC   H4X21174   5.295   4.542   6.391 -0.8796  0.7316 -1.0787
  184POPC   H4Y21175   5.359   4.706   6.439  2.0452 -1.6766 -0.4853
  184POPC   C3521176   5.155   4.709   6.376  0.2246  0.1385 -0.1342
  184POPC   H5X21177   5.126   4.801   6.432 -0.4641 -0.7543  1.0254
  184POPC   H5Y21178   5.069   4.642   6.399  0.1207  0.0950 -0.6356
  184POPC   C3621179   5.170   4.719   6.229 -0.0980 -0.0776 -0.3017
  184POPC   H6X21180   5.074   4.758   6.188  0.6388  2.5055  0.2083
  184POPC   H6Y21181   5.180   4.622   6.177  3.1394 -1.3360  2.3045
  184POPC   C3721182   5.277   4.815   6.183 -0.3846  0.3384 -0.1763
  184POPC   H7X21183   5.377   4.773   6.209  1.3270  2.8765 -2.0627
  184POPC   H7Y21184   5.283   4.912   6.238 -1.1107  0.7015 -0.7174
  184POPC   C3821185   5.266   4.858   6.033 -0.0357  0.1612 -0.3768
  184POPC   H8X21186   5.349   4.929   6.011  0.7490 -0.8229 -0.6352
  184POPC   H8Y21187   5.175   4.918   6.011 -0.3913  0.7439  2.3986
  184POPC   C3921188   5.275   4.739   5.947 -0.5605  0.4669  0.1538
  184POPC   H9X21189   5.175   4.691   5.944 -0.5697  0.5398 -1.0927
  184POPC   H9Y21190   5.345   4.658   5.979 -0.9500 -0.4781 -1.3091
  184POPC  C31021191   5.322   4.777   5.799 -0.6941 -1.3179 -0.3591
  184POPC  H10X21192   5.427   4.809   5.812 -1.1569  1.3471 -2.4168
  184POPC  H10Y21193   5.265   4.857   5.748  0.6664 -0.9867 -1.4103
  184POPC  C31121194   5.323   4.658   5.700  0.3217 -0.1230 -0.7467
  184POPC  H11X21195   5.222   4.611   5.705  0.2386 -0.0806 -1.7296
  184POPC  H11Y21196   5.394   4.578   5.729 -0.2408 -0.1752  0.5652
  184POPC  C31221197   5.328   4.719   5.558  0.3367 -0.0921  0.2942
  184POPC  H12X21198   5.416   4.784   5.543 -0.2654  1.1722  1.9200
  184POPC  H12Y21199   5.241   4.786   5.546  0.5523  0.1352  0.0011
  184POPC  C31321200   5.327   4.626   5.441  0.0370 -0.7196  0.6305
  184POPC  H13X21201   5.229   4.575   5.428 -0.6934 -0.0625  3.0551
  184POPC  H13Y21202   5.402   4.547   5.460 -0.9737 -1.3913  1.9869
  184POPC  C31421203   5.354   4.706   5.309 -0.5275  0.9980 -0.1583
  184POPC  H14X21204   5.436   4.781   5.320  0.8191  0.0934 -3.2078
  184POPC  H14Y21205   5.256   4.749   5.281 -1.1823 -0.8070 -0.7684
  184POPC  C31521206   5.403   4.613   5.199  0.5819  0.5283  0.0109
  184POPC  H15X21207   5.334   4.527   5.188  2.2901 -0.5684 -3.2898
  184POPC  H15Y21208   5.506   4.578   5.223 -0.0381 -1.5482 -0.1305
  184POPC  C31621209   5.424   4.665   5.061 -0.1963 -0.2112  0.8620
  184POPC  H16X21210   5.332   4.705   5.014  0.6353  1.1248  0.2751
  184POPC  H16Y21211   5.458   4.576   5.004  1.3670  0.9685 -0.1333
  184POPC  H16Z21212   5.498   4.749   5.066 -0.4992  0.3029 -1.7575
  185POPC     N21213   3.770   0.028   2.488  0.0121 -0.0915 -0.2577
  185POPC   C1221214   3.662   0.117   2.530  0.2924  0.0824  0.3180
  185POPC  H12A21215   3.570   0.062   2.539 -0.7847  1.5591 -1.1357
  185POPC  H12B21216   3.647   0.193   2.455 -1.4395  0.0171  0.5710
  185POPC   C1321217   3.812  -0.060   2.593  0.2424 -0.7927  0.0680
  185POPC  H13A21218   3.896  -0.125   2.574  2.4113  2.2062 -1.3009
  185POPC  H13B21219   3.843   0.010   2.669 -0.8423 -1.2247  0.9422
  185POPC  H13C21220   3.726  -0.110   2.635 -2.4458  3.2283 -0.0275
  185POPC   C1421221   3.728  -0.061   2.377 -0.1449 -0.2857 -0.8792
  185POPC  H14A21222   3.810  -0.107   2.325  1.4665 -0.4657  1.6353
  185POPC  H14B21223   3.666  -0.144   2.408 -2.4681  2.0985  1.3790
  185POPC  H14C21224   3.675   0.005   2.310 -0.4976  0.4745  0.1170
  185POPC   C1521225   3.890   0.103   2.444 -0.4882  0.1513 -0.5846
  185POPC  H15A21226   3.923   0.166   2.526 -0.7435  0.7051 -0.9035
  185POPC  H15B21227   3.858   0.173   2.368 -1.1718  0.7311  0.2251
  185POPC  H15C21228   3.968   0.033   2.416 -1.3088 -1.3658  0.7716
  185POPC   C1121229   3.688   0.198   2.664 -0.3057 -0.2442 -0.8545
  185POPC  H11A21230   3.791   0.241   2.666 -0.5836  0.4047  0.5275
  185POPC  H11B21231   3.686   0.134   2.755 -1.0368  0.4928 -0.3357
  185POPC     P21232   3.445   0.304   2.718 -0.2964  0.2642 -0.1850
  185POPC   O1321233   3.375   0.206   2.636  0.0569 -0.3259 -0.3665
  185POPC   O1421234   3.388   0.440   2.721 -0.4961 -0.6465  0.0415
  185POPC   O1221235   3.597   0.310   2.667  0.2572  0.3151 -0.4954
  185POPC   O1121236   3.457   0.244   2.863  0.3931  0.3144  0.2996
  185POPC    C121237   3.508   0.335   2.961  0.3089  0.2002 -1.1347
  185POPC    HA21238   3.475   0.441   2.952 -1.8623 -0.3981 -0.8357
  185POPC    HB21239   3.619   0.338   2.956  0.6552 -2.8644  1.2870
  185POPC    C221240   3.454   0.303   3.105  0.0367  0.2141 -0.5455
  185POPC    HS21241   3.487   0.198   3.113  0.3825  0.2158 -1.7966
  185POPC   O2121242   3.310   0.323   3.107 -0.1011 -0.2738  0.1052
  185POPC   C2121243   3.244   0.232   3.177  0.1206  0.3581 -0.5523
  185POPC   O2221244   3.289   0.135   3.234 -0.5832 -0.7873  0.0347
  185POPC   C2221245   3.096   0.271   3.167  0.8903 -0.4241 -0.1952
  185POPC   H2R21246   3.052   0.257   3.066 -1.2117  3.8410 -0.0828
  185POPC   H2S21247   3.102   0.379   3.192 -1.7040 -0.6557  1.7895
  185POPC    C321248   3.520   0.400   3.207  0.4636  0.3393  0.9440
  185POPC    HX21249   3.475   0.498   3.182  1.8481  0.7252 -0.1966
  185POPC    HY21250   3.628   0.400   3.181 -0.0080 -2.1680 -1.4748
  185POPC   O3121251   3.492   0.366   3.347 -0.0191 -0.8535 -0.5678
  185POPC   C3121252   3.576   0.285   3.399  0.6936  0.1751 -0.3889
  185POPC   O3221253   3.671   0.231   3.344  0.3561  0.0203  0.2703
  185POPC   C3221254   3.528   0.251   3.537  0.0703 -0.0301 -0.8811
  185POPC   H2X21255   3.431   0.306   3.542  1.0004  1.7467 -1.6177
  185POPC   H2Y21256   3.602   0.290   3.610 -1.2678  0.1682  0.4268
  185POPC   C2321257   3.003   0.209   3.276  0.1617 -0.2619  0.5538
  185POPC   H3R21258   3.013   0.099   3.267 -0.7411 -0.3131 -0.0273
  185POPC   H3S21259   2.900   0.240   3.245  0.9609  0.5738 -1.4070
  185POPC   C2421260   3.037   0.251   3.417  0.0535 -0.7569  0.4416
  185POPC   H4R21261   3.029   0.362   3.417  2.4499 -0.5282  0.6991
  185POPC   H4S21262   3.146   0.231   3.425 -0.1630 -1.7462  1.0383
  185POPC   C2521263   2.951   0.193   3.523 -0.5076 -0.0018 -0.0366
  185POPC   H5R21264   2.846   0.225   3.509 -1.0586 -1.5730  0.2476
  185POPC   H5S21265   2.982   0.228   3.624 -2.3357  0.1465  0.5160
  185POPC   C2621266   2.951   0.042   3.510 -0.3138 -0.3376  0.7423
  185POPC   H6R21267   3.056   0.005   3.502 -0.3337 -0.1213 -0.8372
  185POPC   H6S21268   2.897   0.006   3.421 -0.0847  0.4353  0.2810
  185POPC   C2721269   2.887  -0.030   3.630 -0.5091 -0.5791  0.3641
  185POPC   H7R21270   2.898  -0.139   3.614  0.4353 -0.3807 -0.4504
  185POPC   H7S21271   2.778  -0.006   3.629 -0.7332 -1.5663  0.0453
  185POPC   C2821272   2.949   0.008   3.766  0.0911  0.4410 -0.8754
  185POPC   H8R21273   2.883  -0.052   3.834 -0.2295  0.5773 -1.0645
  185POPC   H8S21274   2.941   0.115   3.792  3.0995  1.5568 -3.9081
  185POPC   C2921275   3.097  -0.019   3.779  1.1669 -0.6713 -0.7484
  185POPC   H9121276   3.165   0.065   3.758  0.5296 -0.2936 -1.3614
  185POPC  C21021277   3.146  -0.133   3.816  0.1474  0.3111 -1.2901
  185POPC  H10121278   3.255  -0.143   3.804  0.1508 -1.7219 -0.0360
  185POPC  C21121279   3.082  -0.264   3.853  0.2705 -0.5847 -0.1209
  185POPC  H11R21280   3.030  -0.312   3.768  0.9309 -0.2730 -0.7033
  185POPC  H11S21281   3.001  -0.231   3.922  0.9572  1.1181 -0.0720
  185POPC  C21221282   3.178  -0.366   3.931  0.0690 -0.2319  0.3810
  185POPC  H12R21283   3.257  -0.407   3.865  0.0384  1.8969 -1.0976
  185POPC  H12S21284   3.126  -0.460   3.956  0.9949 -0.6488  0.7871
  185POPC  C21321285   3.226  -0.301   4.065 -0.3503 -0.2092  0.0006
  185POPC  H13R21286   3.145  -0.237   4.105  0.7059  0.5888  0.9238
  185POPC  H13S21287   3.308  -0.251   4.010  0.0058 -1.3868 -0.5907
  185POPC  C21421288   3.250  -0.407   4.167 -0.4835  0.4861 -0.5494
  185POPC  H14R21289   3.306  -0.491   4.119  0.8182  1.4288 -0.7514
  185POPC  H14S21290   3.157  -0.454   4.203 -1.1725  0.7098 -1.9514
  185POPC  C21521291   3.325  -0.343   4.285  0.6573  0.4989  0.7181
  185POPC  H15R21292   3.259  -0.274   4.342 -0.1427  1.8957 -1.7355
  185POPC  H15S21293   3.413  -0.288   4.247  0.3747  1.2237  1.1066
  185POPC  C21621294   3.370  -0.457   4.377  0.1871  0.0617 -0.6477
  185POPC  H16R21295   3.427  -0.525   4.311  1.5814 -1.4736  1.9837
  185POPC  H16S21296   3.281  -0.512   4.415  0.2295 -0.2373 -0.9741
  185POPC  C21721297   3.459  -0.403   4.491  0.7169 -0.4469  0.0178
  185POPC  H17R21298   3.421  -0.310   4.539  2.4638  0.4051 -0.1878
  185POPC  H17S21299   3.560  -0.373   4.457  0.7714 -1.2063 -0.5177
  185POPC  C21821300   3.479  -0.497   4.606  0.3585 -0.7506  0.1526
  185POPC  H18R21301   3.524  -0.446   4.694 -2.0203  0.4316  0.7594
  185POPC  H18S21302   3.541  -0.586   4.581 -0.0683 -1.7157  2.2877
  185POPC  H18T21303   3.380  -0.531   4.643 -0.1709  3.0415  2.8426
  185POPC   C3321304   3.498   0.103   3.554 -0.0751  0.7993  0.4493
  185POPC   H3X21305   3.454   0.057   3.463  0.5868  0.2778  0.3846
  185POPC   H3Y21306   3.417   0.086   3.628 -0.8165  0.0863 -0.4927
  185POPC   C3421307   3.613   0.022   3.603  0.5401  0.5850 -0.3114
  185POPC   H4X21308   3.703   0.051   3.544 -0.7474  2.3852 -1.4883
  185POPC   H4Y21309   3.590  -0.087   3.593  1.8024  0.1118  1.4614
  185POPC   C3521310   3.652   0.038   3.756 -0.1705  0.1700  0.1243
  185POPC   H5X21311   3.711   0.132   3.765  0.6325 -0.3985  1.0171
  185POPC   H5Y21312   3.709  -0.053   3.786  3.0593  2.1974  0.6062
  185POPC   C3621313   3.533   0.046   3.845 -0.8044  0.5590 -0.1598
  185POPC   H6X21314   3.452  -0.029   3.841 -2.6254  2.0505  3.6505
  185POPC   H6Y21315   3.485   0.144   3.822  1.0170  1.1355 -1.8479
  185POPC   C3721316   3.581   0.041   3.984  0.7112  0.1718 -0.4842
  185POPC   H7X21317   3.654   0.114   4.024  2.7509 -2.0837  0.1034
  185POPC   H7Y21318   3.640  -0.052   3.989  2.1855  1.1361  1.6736
  185POPC   C3821319   3.456   0.022   4.082  0.0921  0.0510  0.6455
  185POPC   H8X21320   3.391  -0.057   4.039  0.2142  0.1831  0.2075
  185POPC   H8Y21321   3.400   0.115   4.102  1.1290  0.4307  1.8381
  185POPC   C3921322   3.507  -0.022   4.221 -0.2803  0.1564  0.7850
  185POPC   H9X21323   3.569  -0.114   4.217  1.9962  1.6527 -0.8477
  185POPC   H9Y21324   3.422  -0.029   4.292  0.3963 -1.2676  1.5040
  185POPC  C31021325   3.582   0.093   4.296 -0.2899 -0.1216  0.3588
  185POPC  H10X21326   3.523   0.181   4.263 -0.1100  1.3772  3.6465
  185POPC  H10Y21327   3.682   0.091   4.247  0.3026  0.3769  1.5082
  185POPC  C31121328   3.582   0.091   4.449 -0.0974 -0.5480  0.4186
  185POPC  H11X21329   3.488   0.145   4.473  1.1848  2.5634 -0.9423
  185POPC  H11Y21330   3.666   0.146   4.495 -0.5971  1.3691 -0.8398
  185POPC  C31221331   3.595  -0.044   4.516  0.6396 -0.6584 -0.2464
  185POPC  H12X21332   3.683  -0.098   4.475 -0.5277 -2.0301 -1.0494
  185POPC  H12Y21333   3.506  -0.105   4.487 -2.9057  3.4413  0.8797
  185POPC  C31321334   3.598  -0.031   4.671 -0.5999 -0.3842 -0.4433
  185POPC  H13X21335   3.512   0.025   4.713 -0.6187 -1.3174  0.8290
  185POPC  H13Y21336   3.692   0.026   4.689  0.2532 -2.1739  1.1208
  185POPC  C31421337   3.607  -0.173   4.732 -0.6715 -0.0964 -0.7277
  185POPC  H14X21338   3.681  -0.237   4.678 -0.1796  1.0875 -1.5066
  185POPC  H14Y21339   3.509  -0.217   4.705 -0.2467 -1.7583  0.2942
  185POPC  C31521340   3.644  -0.169   4.880 -0.4149 -0.1055  0.0855
  185POPC  H15X21341   3.560  -0.128   4.940 -1.5007 -0.7915 -0.9259
  185POPC  H15Y21342   3.735  -0.107   4.894 -1.0137  0.3566  2.1422
  185POPC  C31621343   3.676  -0.309   4.931  0.3190  0.4813 -0.2640
  185POPC  H16X21344   3.698  -0.305   5.039  1.3109 -0.1798 -0.4294
  185POPC  H16Y21345   3.775  -0.329   4.883  0.8953 -0.9760  1.4276
  185POPC  H16Z21346   3.605  -0.393   4.913 -0.3176  0.6027  1.5434
  186POPC     N21347   1.819   2.157   2.386  0.2319  0.5027 -0.2705
  186POPC   C1221348   1.749   2.033   2.411  0.7885 -0.0183 -0.4439
  186POPC  H12A21349   1.798   1.951   2.360  1.9342  0.8811 -0.8129
  186POPC  H12B21350   1.652   2.044   2.365  0.4234  0.4277  0.4153
  186POPC   C1321351   1.849   2.172   2.240 -0.3345  0.3515  0.4153
  186POPC  H13A21352   1.892   2.083   2.197 -0.9220  1.8094 -3.6021
  186POPC  H13B21353   1.759   2.179   2.180  1.4701 -0.6133 -2.5934
  186POPC  H13C21354   1.919   2.251   2.218 -0.1645 -0.0300 -0.4520
  186POPC   C1421355   1.728   2.266   2.424 -0.3036 -0.1218 -0.1025
  186POPC  H14A21356   1.712   2.271   2.531  2.1556 -0.7855  0.3579
  186POPC  H14B21357   1.775   2.360   2.400 -0.4430  0.3905  1.4793
  186POPC  H14C21358   1.634   2.254   2.372 -0.1867 -3.1949  0.1857
  186POPC   C1521359   1.949   2.161   2.458  0.2572 -0.2242 -0.1769
  186POPC  H15A21360   2.009   2.081   2.415 -1.3040 -0.6182 -1.7595
  186POPC  H15B21361   1.948   2.131   2.561  1.0237  2.2582  0.6165
  186POPC  H15C21362   2.004   2.253   2.448 -1.0022  0.5272 -0.3720
  186POPC   C1121363   1.718   2.000   2.561 -0.8849 -0.0057 -0.1684
  186POPC  H11A21364   1.633   1.930   2.575  0.6821 -1.4459  3.5567
  186POPC  H11B21365   1.679   2.091   2.611 -2.3032 -1.2487  1.0999
  186POPC     P21366   1.864   1.810   2.671 -0.2298 -0.2355  0.4458
  186POPC   O1321367   1.990   1.821   2.739 -0.7870  0.3084  0.3985
  186POPC   O1421368   1.853   1.738   2.543 -0.1215 -0.2537  0.7792
  186POPC   O1221369   1.825   1.961   2.644 -0.6207  0.3577  0.2619
  186POPC   O1121370   1.748   1.770   2.771  0.1267  0.0602 -0.0200
  186POPC    C121371   1.721   1.854   2.880 -0.0724 -0.3241  0.0191
  186POPC    HA21372   1.615   1.832   2.907 -0.6301  2.0844  0.0956
  186POPC    HB21373   1.721   1.963   2.858 -1.2835 -0.8282 -3.1661
  186POPC    C221374   1.798   1.816   3.021  0.1395 -0.0796  0.6475
  186POPC    HS21375   1.902   1.853   3.008 -0.0075  1.6840  3.4775
  186POPC   O2121376   1.790   1.676   3.055  0.3447 -0.0168 -0.0854
  186POPC   C2121377   1.886   1.643   3.140 -0.1667 -0.2237  1.0174
  186POPC   O2221378   1.984   1.714   3.160 -0.4285 -0.1549 -0.3648
  186POPC   C2221379   1.859   1.499   3.191 -0.1208 -0.7299  0.8569
  186POPC   H2R21380   1.889   1.433   3.107  0.9567  0.9554 -0.1349
  186POPC   H2S21381   1.750   1.488   3.210 -0.2073 -0.4428  0.5295
  186POPC    C321382   1.734   1.902   3.128  0.0064  0.5200  0.1030
  186POPC    HX21383   1.624   1.890   3.114  0.3063 -0.5558 -1.5947
  186POPC    HY21384   1.748   2.006   3.092  0.9216  0.4828  0.3456
  186POPC   O3121385   1.766   1.883   3.270 -0.0344  0.3097 -0.0642
  186POPC   C3121386   1.818   1.985   3.338  1.2285 -0.0320  1.1506
  186POPC   O3221387   1.844   2.093   3.288  0.0869 -0.1977  0.6419
  186POPC   C3221388   1.799   1.949   3.489 -0.0111  0.2715  0.5756
  186POPC   H2X21389   1.836   1.844   3.496  0.1963  0.3270  0.3308
  186POPC   H2Y21390   1.689   1.959   3.502 -0.3162 -0.1902 -1.3254
  186POPC   C2321391   1.946   1.469   3.319  0.7298 -0.1487  0.0836
  186POPC   H3R21392   1.917   1.532   3.406 -0.0186  1.7827 -1.4664
  186POPC   H3S21393   2.054   1.486   3.297  0.8634  0.8894  1.4646
  186POPC   C2421394   1.923   1.323   3.378  0.3477 -0.1085  0.9209
  186POPC   H4R21395   1.999   1.304   3.457  1.4965 -1.9699 -0.5519
  186POPC   H4S21396   1.942   1.251   3.296 -0.0343  0.7286  0.0794
  186POPC   C2521397   1.784   1.305   3.430  0.6234  0.5191 -0.1426
  186POPC   H5R21398   1.721   1.249   3.358 -0.6265  0.9991  0.5520
  186POPC   H5S21399   1.730   1.398   3.460 -0.6711 -1.1140  3.0824
  186POPC   C2621400   1.781   1.223   3.557 -0.3193 -0.7767  0.0889
  186POPC   H6R21401   1.841   1.132   3.536 -0.9508 -0.7149 -2.1938
  186POPC   H6S21402   1.676   1.203   3.585 -1.0664  1.7311 -0.7105
  186POPC   C2721403   1.841   1.292   3.673 -0.0449 -0.3984 -0.5617
  186POPC   H7R21404   1.815   1.400   3.667 -0.4404 -0.4024  0.8332
  186POPC   H7S21405   1.951   1.279   3.673  0.3446  2.1074  1.0458
  186POPC   C2821406   1.795   1.221   3.806 -0.1360 -0.0642 -0.1483
  186POPC   H8R21407   1.819   1.113   3.795  1.7641  0.3707 -0.6123
  186POPC   H8S21408   1.685   1.226   3.822 -0.3856 -3.0273 -0.4801
  186POPC   C2921409   1.861   1.268   3.927 -1.2577 -0.7091 -0.2633
  186POPC   H9121410   1.965   1.238   3.910 -1.0108 -0.8901  1.4662
  186POPC  C21021411   1.827   1.322   4.041 -0.5415 -0.3872 -0.8622
  186POPC  H10121412   1.907   1.364   4.105  0.7719  0.0206 -2.7087
  186POPC  C21121413   1.687   1.356   4.093  0.3858  0.0711 -0.2974
  186POPC  H11R21414   1.608   1.337   4.018  0.7447 -0.4966 -0.5371
  186POPC  H11S21415   1.694   1.464   4.117  1.6442 -0.6786  3.2879
  186POPC  C21221416   1.659   1.287   4.228 -0.1414 -0.1133 -0.3146
  186POPC  H12R21417   1.634   1.184   4.194  0.6894 -0.3552 -0.1975
  186POPC  H12S21418   1.566   1.328   4.274  0.1508  1.1341 -0.8129
  186POPC  C21321419   1.775   1.286   4.329  0.1500 -0.2170 -0.1415
  186POPC  H13R21420   1.816   1.389   4.328  3.7415 -1.4989  0.3892
  186POPC  H13S21421   1.860   1.221   4.299  1.6309  1.0457  1.1262
  186POPC  C21421422   1.739   1.255   4.477  0.9738  1.0934  0.5110
  186POPC  H14R21423   1.719   1.146   4.481  0.1592  1.2079 -0.1221
  186POPC  H14S21424   1.646   1.312   4.496  0.2206 -0.2161  0.8652
  186POPC  C21521425   1.851   1.294   4.564  0.3926  0.6565 -0.5391
  186POPC  H15R21426   1.818   1.285   4.669 -0.3204 -3.2858 -0.9646
  186POPC  H15S21427   1.878   1.400   4.546  3.1516  0.3262  1.0593
  186POPC  C21621428   1.987   1.220   4.545 -0.7235  0.9873 -0.0237
  186POPC  H16R21429   2.024   1.251   4.445  0.4294  1.3426  0.5011
  186POPC  H16S21430   1.961   1.113   4.534 -1.6878  1.1069  0.9184
  186POPC  C21721431   2.099   1.247   4.647  0.7063  0.1522 -0.2395
  186POPC  H17R21432   2.070   1.227   4.752  0.3729 -1.6518 -0.6297
  186POPC  H17S21433   2.115   1.356   4.638  0.2663  0.2347 -0.0563
  186POPC  C21821434   2.221   1.161   4.610  0.3104  0.0089 -0.2988
  186POPC  H18R21435   2.277   1.195   4.520  3.0152 -2.0375  0.4543
  186POPC  H18S21436   2.293   1.165   4.695 -0.6648 -1.9059  0.6922
  186POPC  H18T21437   2.178   1.061   4.588 -0.3214  0.0185  0.7818
  186POPC   C3321438   1.869   2.052   3.591  0.4484 -0.3078 -0.3659
  186POPC   H3X21439   1.831   2.155   3.574 -1.0462 -0.4202  1.8459
  186POPC   H3Y21440   1.980   2.055   3.578  0.4010 -1.7856 -1.3362
  186POPC   C3421441   1.847   2.008   3.739  0.0426 -0.3888  1.0146
  186POPC   H4X21442   1.867   1.899   3.752 -0.3156 -0.3212  2.2358
  186POPC   H4Y21443   1.740   2.015   3.765  0.1076 -1.1660  1.5167
  186POPC   C3521444   1.933   2.091   3.832 -0.4711 -0.2013  0.0536
  186POPC   H5X21445   1.897   2.196   3.842  3.5129  1.5188 -1.4850
  186POPC   H5Y21446   2.037   2.085   3.792 -0.6935 -0.8020 -0.4504
  186POPC   C3621447   1.941   2.028   3.968 -0.4728 -0.0890 -0.5138
  186POPC   H6X21448   1.993   1.930   3.957  3.5048  1.4312  2.4676
  186POPC   H6Y21449   1.844   2.009   4.018  0.1283 -1.8510  0.0527
  186POPC   C3721450   2.029   2.108   4.066  0.0149 -0.7125  0.2689
  186POPC   H7X21451   1.988   2.209   4.049  0.0355 -0.9923 -1.6766
  186POPC   H7Y21452   2.130   2.104   4.021  0.9566  1.2223  2.0543
  186POPC   C3821453   2.038   2.050   4.204 -0.3070 -0.1494 -0.5192
  186POPC   H8X21454   2.082   1.948   4.199  1.6616  0.6955 -1.1077
  186POPC   H8Y21455   1.944   2.042   4.263  0.8109 -0.8950  1.2589
  186POPC   C3921456   2.129   2.135   4.291  0.0247  0.0241 -0.2569
  186POPC   H9X21457   2.111   2.244   4.278 -0.8445 -0.1134 -0.2804
  186POPC   H9Y21458   2.229   2.107   4.253 -0.3300  1.8792 -2.8420
  186POPC  C31021459   2.110   2.108   4.445 -0.6330 -0.3880  0.0324
  186POPC  H10X21460   2.005   2.136   4.466  0.2992  2.9178  0.9211
  186POPC  H10Y21461   2.178   2.175   4.502 -1.1250  0.5988 -0.5134
  186POPC  C31121462   2.137   1.955   4.473 -0.0374 -0.2668 -0.2930
  186POPC  H11X21463   2.245   1.939   4.455  0.0546 -1.0269  0.8539
  186POPC  H11Y21464   2.086   1.892   4.398  1.1261 -0.7748 -0.6733
  186POPC  C31221465   2.110   1.921   4.620  0.2482 -0.6768 -0.0486
  186POPC  H12X21466   2.055   2.001   4.673 -0.4546 -2.3034  1.7971
  186POPC  H12Y21467   2.205   1.896   4.672  0.9362 -1.1014 -1.4435
  186POPC  C31321468   2.013   1.806   4.626 -0.0748 -0.0507 -0.4745
  186POPC  H13X21469   2.075   1.715   4.612 -0.6918 -0.6392  0.5252
  186POPC  H13Y21470   1.940   1.807   4.543 -1.4505  0.0672  0.6947
  186POPC  C31421471   1.951   1.792   4.767  0.1143 -0.1823  0.3613
  186POPC  H14X21472   1.877   1.709   4.763  0.5265 -0.5389  0.0642
  186POPC  H14Y21473   1.900   1.888   4.791  0.3548  0.2981 -0.9768
  186POPC  C31521474   2.052   1.773   4.880  0.4271  0.0871 -0.0832
  186POPC  H15X21475   2.131   1.852   4.885  0.5085 -0.0889  2.4700
  186POPC  H15Y21476   2.111   1.680   4.864 -0.4720 -0.5919  0.4613
  186POPC  C31621477   1.984   1.763   5.012 -0.2514  0.3586 -0.2097
  186POPC  H16X21478   2.059   1.740   5.091 -1.1897 -2.2455  0.0141
  186POPC  H16Y21479   1.902   1.689   5.018  1.7588 -1.8923  0.8539
  186POPC  H16Z21480   1.938   1.858   5.047 -1.1616 -0.5285  1.0330
  187POPC     N21481   5.861   0.909   2.433  0.1172 -0.3423 -0.4613
  187POPC   C1221482   5.878   0.914   2.586  0.2618  0.0651  0.8892
  187POPC  H12A21483   5.827   1.001   2.624 -0.8301 -1.4459  3.0775
  187POPC  H12B21484   5.981   0.938   2.611  0.3770  0.1901  0.3236
  187POPC   C1321485   5.719   0.904   2.395 -0.1541  0.0244 -0.0571
  187POPC  H13A21486   5.704   0.898   2.288 -2.2595  0.8336  0.1483
  187POPC  H13B21487   5.672   0.815   2.434 -1.7917 -0.1441 -2.2384
  187POPC  H13C21488   5.665   0.993   2.424  2.3785  1.8654 -0.7030
  187POPC   C1421489   5.920   1.031   2.372  0.1879  0.3227  0.2038
  187POPC  H14A21490   5.924   1.020   2.265  1.3172  0.5342  0.2112
  187POPC  H14B21491   5.878   1.123   2.409  1.5847  0.5044  1.4605
  187POPC  H14C21492   6.026   1.042   2.390  0.0591  0.3349  0.9990
  187POPC   C1521493   5.919   0.792   2.374  0.8077  0.2940  0.3219
  187POPC  H15A21494   5.860   0.704   2.394  0.8753 -0.6029 -2.8943
  187POPC  H15B21495   6.016   0.770   2.416  0.0560 -2.5295  0.7806
  187POPC  H15C21496   5.920   0.799   2.266 -0.0650 -0.0839  0.2759
  187POPC   C1121497   5.833   0.793   2.673 -0.3889  0.1045  0.7258
  187POPC  H11A21498   5.843   0.824   2.780 -0.2165  0.8002  0.5107
  187POPC  H11B21499   5.900   0.711   2.640  0.3702  0.9767  0.0517
  187POPC     P21500   5.645   0.610   2.626 -0.2885  0.1035 -0.4995
  187POPC   O1321501   5.745   0.547   2.542 -0.3261  0.7403  0.2524
  187POPC   O1421502   5.507   0.626   2.587 -0.2605 -0.3302 -0.4088
  187POPC   O1221503   5.695   0.756   2.655 -0.1352 -0.0324  0.5481
  187POPC   O1121504   5.653   0.548   2.775  0.6564  0.2265  0.2094
  187POPC    C121505   5.785   0.540   2.838  0.5121  0.0146  0.0644
  187POPC    HA21506   5.810   0.626   2.902  1.1125 -0.7833  0.9248
  187POPC    HB21507   5.867   0.518   2.766 -1.0083 -0.7080 -1.5390
  187POPC    C221508   5.796   0.424   2.944 -0.7287 -0.6769  0.1961
  187POPC    HS21509   5.757   0.330   2.899 -1.0780  0.0907 -1.1585
  187POPC   O2121510   5.719   0.455   3.054  0.6469  0.2015  0.3969
  187POPC   C2121511   5.676   0.359   3.132  0.6943  0.3720  0.1178
  187POPC   O2221512   5.684   0.238   3.111  0.6785 -0.3189  0.0478
  187POPC   C2221513   5.623   0.419   3.254  0.4612 -0.1816 -0.2914
  187POPC   H2R21514   5.523   0.465   3.236  0.2817 -0.7123 -0.6748
  187POPC   H2S21515   5.700   0.494   3.283 -0.0568 -0.2590  1.3571
  187POPC    C321516   5.946   0.392   2.976 -0.6390  0.9443 -0.2019
  187POPC    HX21517   6.006   0.485   2.961  0.6980 -0.0965 -1.7332
  187POPC    HY21518   5.985   0.341   2.885 -0.9155 -1.4436  0.9570
  187POPC   O3121519   5.971   0.327   3.101  0.2913  0.1296 -0.1962
  187POPC   C3121520   5.991   0.202   3.086 -0.5735  0.6356  0.1346
  187POPC   O3221521   5.992   0.136   2.981  0.7669  0.4230 -0.6720
  187POPC   C3221522   6.018   0.149   3.232  0.4246 -0.1473 -0.2022
  187POPC   H2X21523   5.923   0.172   3.285  0.8517 -0.8173  0.9047
  187POPC   H2Y21524   6.099   0.211   3.275 -0.0981 -1.2223  2.5486
  187POPC   C2321525   5.610   0.328   3.380  0.2253 -0.9670 -0.0561
  187POPC   H3R21526   5.709   0.280   3.393  0.4186 -0.2380  1.3549
  187POPC   H3S21527   5.528   0.255   3.372  0.8591 -1.7347  0.3559
  187POPC   C2421528   5.594   0.414   3.515  0.1310  1.0004 -0.0161
  187POPC   H4R21529   5.508   0.485   3.510  1.0991  2.1355 -1.4636
  187POPC   H4S21530   5.684   0.476   3.534  0.5363  0.3494  0.2137
  187POPC   C2521531   5.577   0.326   3.644 -0.0948 -0.1175  0.6570
  187POPC   H5R21532   5.642   0.236   3.631  1.3401  0.6452  2.2083
  187POPC   H5S21533   5.473   0.286   3.647 -0.4846  0.7936 -0.1306
  187POPC   C2621534   5.599   0.406   3.777 -0.7662  0.2617 -0.3639
  187POPC   H6R21535   5.502   0.439   3.820 -1.3989 -0.7523 -0.9685
  187POPC   H6S21536   5.660   0.495   3.751 -0.9695  0.5330  0.0631
  187POPC   C2721537   5.682   0.325   3.881 -0.0690  0.3835  0.3531
  187POPC   H7R21538   5.777   0.290   3.836  0.7364 -1.0029  2.9497
  187POPC   H7S21539   5.620   0.234   3.890 -1.5607  1.2826 -0.3558
  187POPC   C2821540   5.704   0.390   4.023  0.6780  0.6187 -0.2908
  187POPC   H8R21541   5.621   0.464   4.023  1.1369  1.2533  2.6545
  187POPC   H8S21542   5.804   0.437   4.020  0.2356  1.8468  2.0159
  187POPC   C2921543   5.685   0.296   4.136  0.9268  0.1595 -0.4745
  187POPC   H9121544   5.742   0.202   4.141  0.7258  0.0438 -0.3061
  187POPC  C21021545   5.606   0.306   4.247  0.3840 -0.6703  0.5165
  187POPC  H10121546   5.621   0.225   4.320 -0.5929 -0.3279  1.0997
  187POPC  C21121547   5.516   0.423   4.280 -0.0895  0.0075 -0.2315
  187POPC  H11R21548   5.570   0.509   4.236 -1.1962  2.0080  2.1135
  187POPC  H11S21549   5.509   0.445   4.388  0.2837  0.9514 -0.3919
  187POPC  C21221550   5.377   0.406   4.220  0.2270  0.1487  0.4275
  187POPC  H12R21551   5.311   0.333   4.271 -0.7858  0.5037 -0.3267
  187POPC  H12S21552   5.387   0.367   4.116 -1.9538 -1.3591  0.7021
  187POPC  C21321553   5.287   0.531   4.213  0.8123  1.1962  0.0514
  187POPC  H13R21554   5.312   0.589   4.304  2.3937 -1.6823  1.5761
  187POPC  H13S21555   5.180   0.500   4.217  0.2583  2.8238 -1.0092
  187POPC  C21421556   5.311   0.617   4.088  0.4830 -0.1521 -0.0952
  187POPC  H14R21557   5.420   0.640   4.087 -0.1023  3.0526 -0.7168
  187POPC  H14S21558   5.257   0.714   4.091 -0.4011 -0.5946 -1.0861
  187POPC  C21521559   5.277   0.545   3.954 -0.1153  0.0112 -0.2379
  187POPC  H15R21560   5.177   0.497   3.966  0.0797  0.1708  3.2349
  187POPC  H15S21561   5.346   0.462   3.925 -0.2912 -0.4180  0.5371
  187POPC  C21621562   5.265   0.656   3.850  0.4418  0.2594  0.1276
  187POPC  H16R21563   5.357   0.718   3.852 -1.2533  2.9375  0.4191
  187POPC  H16S21564   5.179   0.719   3.883  1.5543  1.8991 -0.0369
  187POPC  C21721565   5.248   0.594   3.710 -0.3849 -0.3383  0.2413
  187POPC  H17R21566   5.144   0.561   3.689  0.0332 -0.5051 -1.7357
  187POPC  H17S21567   5.315   0.507   3.692 -0.3605 -0.3877  0.5603
  187POPC  C21821568   5.287   0.696   3.607  0.2351 -0.7193  0.5517
  187POPC  H18R21569   5.397   0.703   3.590 -0.1280  2.7073 -1.3584
  187POPC  H18S21570   5.248   0.798   3.631 -0.9804 -1.0484 -0.0073
  187POPC  H18T21571   5.243   0.670   3.509  0.7669 -0.3744  0.2136
  187POPC   C3321572   6.042  -0.004   3.242  0.3664 -0.3353  0.1116
  187POPC   H3X21573   6.131  -0.019   3.177  1.3873  2.5906  0.6993
  187POPC   H3Y21574   5.963  -0.072   3.203  0.0755 -0.2772  0.6016
  187POPC   C3421575   6.084  -0.050   3.385  0.2741 -0.2210 -0.2702
  187POPC   H4X21576   6.170   0.012   3.419 -0.4650  0.7632 -0.1528
  187POPC   H4Y21577   6.123  -0.154   3.384  1.7725  0.3191 -0.4098
  187POPC   C3521578   5.977  -0.046   3.494  0.3343  0.4467 -0.3090
  187POPC   H5X21579   5.907  -0.132   3.488  0.0743  0.7011 -1.0959
  187POPC   H5Y21580   5.927   0.049   3.467  1.2191  1.5625  1.8165
  187POPC   C3621581   6.036  -0.035   3.636  0.2890 -0.4956 -0.5970
  187POPC   H6X21582   6.095   0.060   3.637 -0.4289 -0.0393  0.3286
  187POPC   H6Y21583   6.109  -0.116   3.653  1.1135  0.1077 -1.1932
  187POPC   C3721584   5.933  -0.037   3.753  0.6836  0.2226 -0.3818
  187POPC   H7X21585   5.872  -0.128   3.735  0.8101 -0.1986  1.2486
  187POPC   H7Y21586   5.874   0.058   3.749 -0.7906 -0.6279  0.2610
  187POPC   C3821587   6.009  -0.027   3.885 -0.0329  0.0487 -0.3959
  187POPC   H8X21588   6.077   0.060   3.888 -0.5222  0.4070  0.9945
  187POPC   H8Y21589   6.069  -0.120   3.893 -0.8933 -0.5608 -0.8187
  187POPC   C3921590   5.911  -0.034   4.010  0.1667 -0.1509  0.2517
  187POPC   H9X21591   5.879  -0.140   4.023 -1.6608  0.6844  3.8596
  187POPC   H9Y21592   5.827   0.034   3.988 -0.0504 -0.5900 -0.3100
  187POPC  C31021593   5.980   0.005   4.138  0.5559 -0.1195  0.4707
  187POPC  H10X21594   6.013   0.110   4.122  1.2695 -0.2737  0.8946
  187POPC  H10Y21595   6.069  -0.062   4.141 -0.4583 -1.4868  0.7520
  187POPC  C31121596   5.888  -0.019   4.257  0.3868  0.6216  0.0989
  187POPC  H11X21597   5.889  -0.124   4.293 -1.9297  0.1820 -0.9717
  187POPC  H11Y21598   5.785  -0.006   4.217  1.3620  1.6275 -2.2725
  187POPC  C31221599   5.903   0.076   4.372  0.2598 -0.1178 -0.3379
  187POPC  H12X21600   5.881   0.181   4.344 -0.1731 -0.0264  0.3334
  187POPC  H12Y21601   6.012   0.078   4.394 -0.1000  2.2208  1.6556
  187POPC  C31321602   5.826   0.039   4.500  0.2016  0.2501  0.0436
  187POPC  H13X21603   5.844  -0.070   4.512  3.3018  0.5578 -0.9023
  187POPC  H13Y21604   5.718   0.053   4.475  0.2822 -1.1292 -1.2347
  187POPC  C31421605   5.876   0.107   4.624 -0.2790  0.7725 -0.5103
  187POPC  H14X21606   5.844   0.213   4.615 -2.2313  0.3930  1.2445
  187POPC  H14Y21607   5.987   0.119   4.625 -0.3813  1.8304 -0.1679
  187POPC  C31521608   5.824   0.037   4.752  0.2610 -0.3896 -0.1029
  187POPC  H15X21609   5.869  -0.064   4.764 -3.3683 -2.3875 -1.4034
  187POPC  H15Y21610   5.715   0.017   4.767  0.7946 -2.5583  1.3781
  187POPC  C31621611   5.863   0.123   4.870  0.3492  0.0150 -0.7008
  187POPC  H16X21612   5.825   0.227   4.861  1.0681  0.4494  0.9102
  187POPC  H16Y21613   5.973   0.132   4.857  0.1402  2.4206 -1.3026
  187POPC  H16Z21614   5.836   0.073   4.966 -0.3867  0.3026 -0.7491
  188POPC     N21615   2.199   1.429   2.522  0.3357  0.9112  0.5723
  188POPC   C1221616   2.230   1.425   2.670  0.0216 -0.5198 -0.2917
  188POPC  H12A21617   2.179   1.508   2.717  1.4271 -0.6661  1.6345
  188POPC  H12B21618   2.335   1.451   2.675  0.0774 -0.5443 -1.1943
  188POPC   C1321619   2.257   1.302   2.463 -0.2824  0.1801 -0.0973
  188POPC  H13A21620   2.204   1.218   2.506  0.1777 -0.5304 -0.8959
  188POPC  H13B21621   2.237   1.295   2.358 -2.6505 -0.3346  0.3257
  188POPC  H13C21622   2.362   1.291   2.487 -0.5892 -2.1275  0.4001
  188POPC   C1421623   2.044   1.426   2.509  0.5714 -0.2632 -0.4425
  188POPC  H14A21624   2.005   1.336   2.553  1.1010 -0.7636 -0.9787
  188POPC  H14B21625   2.001   1.523   2.529 -1.5728 -0.4252 -3.5156
  188POPC  H14C21626   2.022   1.408   2.405 -0.9460  1.1981 -0.4251
  188POPC   C1521627   2.258   1.555   2.462 -0.6251 -0.3399  0.7396
  188POPC  H15A21628   2.211   1.643   2.503  1.9359  0.7888  1.4351
  188POPC  H15B21629   2.253   1.564   2.354 -1.2735  2.8516  0.9212
  188POPC  H15C21630   2.361   1.566   2.492 -0.4448 -0.0446  0.0504
  188POPC   C1121631   2.198   1.300   2.761 -0.1580  0.2047 -0.4754
  188POPC  H11A21632   2.211   1.323   2.869  0.1422  0.9778 -0.6703
  188POPC  H11B21633   2.273   1.222   2.738  1.2712  1.0540  1.1384
  188POPC     P21634   2.020   1.107   2.712  0.1672 -0.6812 -0.5130
  188POPC   O1321635   2.084   1.055   2.589 -0.3798  0.5669  0.3629
  188POPC   O1421636   1.873   1.115   2.721 -0.0148 -0.2033  0.3424
  188POPC   O1221637   2.066   1.257   2.742 -0.2054  0.0081  0.1764
  188POPC   O1121638   2.072   1.021   2.838 -0.2692  0.8334  0.4946
  188POPC    C121639   2.116   1.072   2.959  0.0422  0.5509 -0.4657
  188POPC    HA21640   2.083   1.177   2.980  0.5352  0.2485  2.1403
  188POPC    HB21641   2.224   1.052   2.974 -0.2058 -0.9174 -0.5338
  188POPC    C221642   2.032   0.998   3.074 -0.2523 -0.3884  0.2588
  188POPC    HS21643   2.049   1.058   3.166 -1.3223  0.2371  0.0673
  188POPC   O2121644   2.071   0.858   3.085 -0.0103  0.2174 -0.0215
  188POPC   C2121645   2.190   0.835   3.129 -0.1003 -0.0629 -0.1382
  188POPC   O2221646   2.269   0.922   3.178 -0.0302  0.2502  0.6501
  188POPC   C2221647   2.216   0.681   3.122  0.0222 -0.2036 -0.3592
  188POPC   H2R21648   2.279   0.676   3.031 -0.2885  2.4048 -0.7806
  188POPC   H2S21649   2.117   0.632   3.108  0.6509 -0.5619 -5.4682
  188POPC    C321650   1.878   0.999   3.067 -0.1032 -0.0365  0.0956
  188POPC    HX21651   1.840   0.916   3.005  0.2641 -0.8100  0.8927
  188POPC    HY21652   1.851   1.097   3.021  1.2856  0.7418  0.8720
  188POPC   O3121653   1.819   0.985   3.195  0.8432 -0.0555 -0.2288
  188POPC   C3121654   1.767   0.869   3.235 -0.0014  0.4122 -0.2511
  188POPC   O3221655   1.777   0.764   3.174 -0.1141  0.4148 -0.4754
  188POPC   C3221656   1.710   0.881   3.379 -0.3190 -0.0240  0.0264
  188POPC   H2X21657   1.607   0.839   3.379 -0.2848 -0.1093 -0.0414
  188POPC   H2Y21658   1.703   0.989   3.404 -0.8528 -0.1903  0.6177
  188POPC   C2321659   2.288   0.620   3.241  0.3173 -0.6674 -0.5610
  188POPC   H3R21660   2.370   0.692   3.262  0.0007  0.3219 -2.5240
  188POPC   H3S21661   2.335   0.524   3.213  1.5602 -0.6837  1.3530
  188POPC   C2421662   2.191   0.604   3.357 -0.1198  0.4286 -0.0002
  188POPC   H4R21663   2.116   0.528   3.327  1.3555 -1.0794  0.0012
  188POPC   H4S21664   2.131   0.694   3.381 -0.1262  0.1926  0.9200
  188POPC   C2521665   2.274   0.575   3.483 -0.4589 -1.3669  0.6849
  188POPC   H5R21666   2.336   0.665   3.501 -2.2922  0.4968 -1.6486
  188POPC   H5S21667   2.330   0.479   3.479  0.3755 -0.8563 -0.2454
  188POPC   C2621668   2.190   0.574   3.613 -0.2969  0.6758  0.4879
  188POPC   H6R21669   2.134   0.479   3.604  4.1876 -2.2625  0.1358
  188POPC   H6S21670   2.117   0.658   3.605 -0.2027  0.6619 -0.6926
  188POPC   C2721671   2.275   0.557   3.740 -0.9266 -0.0265  0.5777
  188POPC   H7R21672   2.357   0.632   3.735 -0.1491 -0.7935  1.2974
  188POPC   H7S21673   2.330   0.461   3.735  1.4970  1.2355  1.1914
  188POPC   C2821674   2.189   0.584   3.864  0.5203  0.0451  0.5806
  188POPC   H8R21675   2.122   0.665   3.827 -0.6383 -2.4069 -3.2357
  188POPC   H8S21676   2.247   0.619   3.952 -1.7766 -3.6345  3.8708
  188POPC   C2921677   2.105   0.466   3.900 -0.0632  0.2489 -0.2817
  188POPC   H9121678   2.053   0.426   3.812  3.2880 -1.9495 -1.4352
  188POPC  C21021679   2.110   0.396   4.023  0.2204 -0.9403 -0.0895
  188POPC  H10121680   2.032   0.319   4.027  0.4409 -1.1119  1.6670
  188POPC  C21121681   2.191   0.420   4.150  0.2026  0.2520 -0.0010
  188POPC  H11R21682   2.250   0.514   4.148  3.1176 -1.3872  1.7613
  188POPC  H11S21683   2.271   0.346   4.167  0.2028  0.3558  0.4688
  188POPC  C21221684   2.105   0.403   4.278 -0.1743  0.3099  0.3008
  188POPC  H12R21685   2.045   0.309   4.276 -3.6354  2.3416  1.3624
  188POPC  H12S21686   2.040   0.492   4.270 -0.7147 -0.1379 -0.4476
  188POPC  C21321687   2.188   0.409   4.406  0.1365  1.1942 -0.7634
  188POPC  H13R21688   2.208   0.518   4.421  2.8077  0.6475  0.3721
  188POPC  H13S21689   2.283   0.354   4.391 -0.1933 -1.0766  3.6802
  188POPC  C21421690   2.116   0.354   4.530 -0.1360 -0.0350 -0.4268
  188POPC  H14R21691   2.116   0.243   4.535 -1.0694 -0.1318 -1.9281
  188POPC  H14S21692   2.010   0.389   4.530  0.0299  0.5804  1.4553
  188POPC  C21521693   2.179   0.415   4.665 -0.4783 -0.0283  0.3008
  188POPC  H15R21694   2.190   0.526   4.656  1.4529 -0.0199  1.8844
  188POPC  H15S21695   2.286   0.382   4.665 -0.3942  0.2375  0.3619
  188POPC  C21621696   2.108   0.375   4.790 -0.0741  0.3363 -0.3474
  188POPC  H16R21697   2.096   0.265   4.792  0.7983  0.2371 -0.0309
  188POPC  H16S21698   2.011   0.430   4.787  2.3752  5.3134  1.1343
  188POPC  C21721699   2.162   0.442   4.923 -0.2725 -0.4816  1.0734
  188POPC  H17R21700   2.074   0.461   4.989 -1.2106  1.7803 -0.6567
  188POPC  H17S21701   2.202   0.545   4.909  3.6255 -2.0086 -0.4512
  188POPC  C21821702   2.262   0.361   5.003  0.3969 -0.7327  0.0784
  188POPC  H18R21703   2.251   0.251   4.989 -0.5915 -0.3976 -2.3046
  188POPC  H18S21704   2.250   0.391   5.109  0.6952  0.2909 -0.1621
  188POPC  H18T21705   2.363   0.388   4.965  0.5183 -0.4808  0.5746
  188POPC   C3321706   1.802   0.807   3.482 -0.4431  0.2134 -0.2650
  188POPC   H3X21707   1.901   0.859   3.487 -1.0125  1.5758 -2.1644
  188POPC   H3Y21708   1.822   0.706   3.442  0.3064  0.7219 -1.2224
  188POPC   C3421709   1.749   0.809   3.627 -0.0795  0.3235  0.2961
  188POPC   H4X21710   1.662   0.740   3.626  0.5934 -0.5567 -1.0290
  188POPC   H4Y21711   1.723   0.915   3.645  1.7191  1.5595 -3.3408
  188POPC   C3521712   1.846   0.769   3.743 -0.0521  0.3034  0.0680
  188POPC   H5X21713   1.927   0.844   3.732  1.0885 -0.9315 -0.2563
  188POPC   H5Y21714   1.892   0.669   3.725  0.5561 -0.1214  3.3577
  188POPC   C3621715   1.786   0.784   3.876  0.3105  0.4942  0.2675
  188POPC   H6X21716   1.744   0.681   3.886 -1.2287  1.1282  0.6596
  188POPC   H6Y21717   1.705   0.860   3.867 -1.4889 -1.1491  1.5239
  188POPC   C3721718   1.889   0.825   3.979  0.4281  0.0849 -0.1030
  188POPC   H7X21719   1.923   0.930   3.962  0.5121  0.0343 -0.2468
  188POPC   H7Y21720   1.969   0.751   3.957  0.1691  0.3821 -2.2999
  188POPC   C3821721   1.841   0.823   4.123  0.6545  0.4678 -0.1657
  188POPC   H8X21722   1.809   0.720   4.146  1.6280 -0.7197 -3.4918
  188POPC   H8Y21723   1.753   0.889   4.134  0.8399  0.6631  0.1357
  188POPC   C3921724   1.953   0.864   4.225 -0.0025 -0.2490  0.1050
  188POPC   H9X21725   1.984   0.966   4.195  1.4817 -0.9655 -0.9818
  188POPC   H9Y21726   2.042   0.797   4.225  0.3801  0.2551 -0.3568
  188POPC  C31021727   1.904   0.862   4.372  0.0968  0.0588  0.1370
  188POPC  H10X21728   1.809   0.920   4.372 -0.1501 -0.3276  1.1493
  188POPC  H10Y21729   1.988   0.905   4.430 -0.0743 -0.6902  0.9587
  188POPC  C31121730   1.849   0.726   4.421 -0.0628 -0.4071  0.0463
  188POPC  H11X21731   1.928   0.650   4.438 -0.1160 -0.3443  0.6074
  188POPC  H11Y21732   1.788   0.676   4.343  1.5411 -0.7728 -1.0228
  188POPC  C31221733   1.759   0.753   4.544  0.5022  0.1153  0.0005
  188POPC  H12X21734   1.664   0.799   4.510  1.1674  1.4303 -0.1500
  188POPC  H12Y21735   1.819   0.815   4.615  1.4876 -0.1780 -0.5447
  188POPC  C31321736   1.725   0.615   4.609  0.9321 -0.6772 -0.6303
  188POPC  H13X21737   1.815   0.567   4.655  0.3510 -1.5567 -0.3893
  188POPC  H13Y21738   1.693   0.548   4.527  0.2503 -1.0337 -0.0846
  188POPC  C31421739   1.618   0.632   4.718 -0.0542  0.3935  0.4371
  188POPC  H14X21740   1.587   0.535   4.764 -1.0028  0.7749  0.6117
  188POPC  H14Y21741   1.533   0.679   4.664  0.9137 -0.7527 -2.2562
  188POPC  C31521742   1.649   0.734   4.818  0.1993  0.1032 -0.4920
  188POPC  H15X21743   1.568   0.760   4.889  1.6748  0.6931  1.0619
  188POPC  H15Y21744   1.664   0.830   4.763 -0.4812  0.3470 -0.2604
  188POPC  C31621745   1.775   0.704   4.901  0.8213 -0.0488 -0.3101
  188POPC  H16X21746   1.769   0.610   4.960  2.1169 -0.6877 -1.1445
  188POPC  H16Y21747   1.792   0.787   4.972 -0.6306 -0.1397  0.1709
  188POPC  H16Z21748   1.863   0.689   4.834  0.8255 -0.9745 -0.1104
  189SAPI   C1221749   4.188   6.084   7.054 -1.0143  0.4285  0.6447
  189SAPI    H221750   4.121   6.111   6.969  1.4026 -2.7398 -2.6207
  189SAPI    O221751   4.312   6.144   7.016  0.1091 -0.0547  0.0729
  189SAPI   HO221752   4.326   6.108   6.929  3.3836 -0.3316  0.6173
  189SAPI   C1321753   4.138   6.137   7.180 -0.6489  0.7356 -0.5029
  189SAPI    H321754   4.044   6.082   7.204 -0.3343  0.9525  1.3769
  189SAPI    O321755   4.124   6.281   7.174 -0.4620  0.0708  0.1002
  189SAPI   HO321756   4.213   6.317   7.178  0.2045 -1.2611 -1.3836
  189SAPI   C1421757   4.228   6.103   7.297  0.1613  0.9941  0.5311
  189SAPI    H421758   4.311   6.176   7.298 -0.7261  2.0544 -0.9774
  189SAPI    O421759   4.155   6.119   7.417  0.1397 -0.1745 -0.2201
  189SAPI   HO421760   4.137   6.212   7.431 -0.4985 -0.3874  0.4580
  189SAPI   C1521761   4.298   5.967   7.292  0.6273  0.4602 -0.1058
  189SAPI    H521762   4.227   5.899   7.344  1.1589 -1.3853 -1.6639
  189SAPI    O521763   4.413   5.967   7.377  0.0568 -0.6894 -0.5023
  189SAPI   HO521764   4.395   5.945   7.468 -0.0269 -0.5309 -0.4789
  189SAPI   C1621765   4.314   5.894   7.157 -0.0731 -0.6025 -0.5470
  189SAPI    H621766   4.417   5.908   7.120  0.0773  0.4152  0.2247
  189SAPI    O621767   4.318   5.755   7.180 -0.1776  0.3994 -0.1717
  189SAPI   HO621768   4.408   5.722   7.191  0.5174  1.8920 -1.0455
  189SAPI   C1121769   4.213   5.935   7.055  0.4764  0.5189 -0.5691
  189SAPI    H121770   4.114   5.890   7.082  0.2841 -0.5031 -2.7412
  189SAPI     P21771   4.153   5.857   6.806 -0.1103  0.1967  0.2115
  189SAPI   O1321772   4.221   5.892   6.679  0.2522 -0.0077  0.0444
  189SAPI   O1421773   4.030   5.937   6.829 -0.3248  0.1289  0.2432
  189SAPI   O1221774   4.263   5.894   6.927 -0.5435  0.5326 -0.2387
  189SAPI   O1121775   4.126   5.701   6.817  0.7765 -0.8878  0.2421
  189SAPI    C121776   4.240   5.620   6.800  0.1458 -0.1687  0.7559
  189SAPI    HA21777   4.288   5.648   6.704  0.3296  0.5139  1.0453
  189SAPI    HB21778   4.311   5.629   6.885  0.2633  1.9422  0.4842
  189SAPI    C221779   4.185   5.473   6.800 -0.1135  0.1199  0.5841
  189SAPI    HS21780   4.158   5.454   6.906 -0.2679  1.3177  0.7783
  189SAPI   O2121781   4.291   5.384   6.769 -0.4849  0.3800  0.2084
  189SAPI   C2121782   4.272   5.253   6.795 -0.7242  0.3773 -0.3880
  189SAPI   O2221783   4.168   5.210   6.844  0.1395 -0.0383  0.6330
  189SAPI   C2221784   4.381   5.169   6.742  0.1890  0.1334 -0.5525
  189SAPI   H2R21785   4.413   5.207   6.643  2.2105  0.8369  0.3282
  189SAPI   H2S21786   4.472   5.176   6.805  0.1517  0.4667 -0.5366
  189SAPI    C321787   4.068   5.460   6.695  0.6815  0.8804 -0.0836
  189SAPI    HX21788   3.977   5.512   6.731 -0.4251 -1.5217  0.8169
  189SAPI    HY21789   4.043   5.351   6.699  0.2987  0.9857  0.5464
  189SAPI   O3121790   4.105   5.493   6.562 -0.0172 -0.0480  0.6076
  189SAPI   C3121791   4.008   5.463   6.475  0.0327  0.3328 -0.2722
  189SAPI   O3221792   3.919   5.382   6.498  0.2274  0.0881  0.5321
  189SAPI   C3221793   4.020   5.538   6.344  0.3064  0.5780  0.4968
  189SAPI   H2X21794   4.122   5.526   6.301 -1.0866 -1.7801 -2.5667
  189SAPI   H2Y21795   4.000   5.646   6.360  1.0541  0.9662 -0.9886
  189SAPI   C2321796   4.333   5.022   6.746  0.0224 -0.0204 -0.0271
  189SAPI   H3R21797   4.294   5.000   6.848 -1.3429  2.2477  0.0130
  189SAPI   H3S21798   4.424   4.958   6.748 -0.0908 -0.1832 -0.1621
  189SAPI   C2421799   4.250   4.969   6.625 -0.5766 -0.0521  0.2840
  189SAPI   H4R21800   4.153   5.023   6.624 -0.0135  1.0098 -1.5780
  189SAPI   H4S21801   4.228   4.863   6.651 -2.6991  0.5261  1.0399
  189SAPI   C2521802   4.329   4.974   6.496  0.5772 -0.3833 -0.1450
  189SAPI   H5R21803   4.386   4.880   6.481 -0.7884 -1.3984  0.7691
  189SAPI   C2621804   4.312   5.060   6.396 -0.1372  0.3310 -0.4463
  189SAPI   H6R21805   4.376   5.053   6.306 -0.3996 -1.6939 -0.5106
  189SAPI   C2721806   4.222   5.180   6.395  0.0902 -0.0749 -0.4414
  189SAPI   H7R21807   4.163   5.194   6.488 -0.9495  0.8095 -1.2052
  189SAPI   H7S21808   4.144   5.176   6.316 -0.5681  1.7891  0.0471
  189SAPI   C2821809   4.292   5.310   6.363  0.6749 -0.2606  0.3089
  189SAPI   H8R21810   4.319   5.366   6.454 -1.0764  0.8183  0.2272
  189SAPI   C2921811   4.327   5.365   6.241 -0.1147  0.3945  0.8290
  189SAPI   H9R21812   4.375   5.464   6.238 -0.8993  0.7607  0.3410
  189SAPI  C21021813   4.318   5.298   6.108 -0.2488  0.1402 -0.2936
  189SAPI  H10R21814   4.239   5.220   6.101 -1.7248  1.5101  0.4712
  189SAPI  H10S21815   4.416   5.252   6.083 -0.6497 -0.9816  0.1515
  189SAPI  C21121816   4.299   5.398   5.999 -0.5432 -0.0738 -0.5593
  189SAPI  H11R21817   4.273   5.498   6.037 -0.2428 -0.4997  0.8114
  189SAPI  C21221818   4.294   5.379   5.863  0.7655  0.2121  0.4477
  189SAPI  H12R21819   4.240   5.464   5.819 -0.4083 -0.8458 -0.2292
  189SAPI  C21321820   4.317   5.263   5.763  0.1136 -0.2781  0.1738
  189SAPI  H13R21821   4.328   5.303   5.661 -0.6241 -1.2559 -0.3132
  189SAPI  H13S21822   4.218   5.211   5.760  0.5902 -1.2050 -2.7545
  189SAPI  C21421823   4.419   5.158   5.795  0.3313 -0.7134 -0.4785
  189SAPI  H14R21824   4.417   5.126   5.900  1.0293  1.6548  0.3174
  189SAPI  C21521825   4.514   5.097   5.715  0.3688 -0.3403 -1.3824
  189SAPI  H15R21826   4.576   5.016   5.757  1.9220  0.0233 -2.8211
  189SAPI  C21621827   4.552   5.146   5.581 -0.6823  0.3290  0.9392
  189SAPI  H16R21828   4.663   5.141   5.583 -0.5340  2.3622  0.1451
  189SAPI  H16S21829   4.530   5.255   5.570 -0.4431  0.2277 -0.7849
  189SAPI  C21721830   4.495   5.064   5.466 -0.0909  0.1501 -0.4103
  189SAPI  H17R21831   4.384   5.071   5.461 -0.1467  0.7874  1.2121
  189SAPI  H17S21832   4.513   4.956   5.484  0.0067  0.4850  1.7497
  189SAPI  C21821833   4.574   5.102   5.337  0.2749  0.4734  0.2772
  189SAPI  H18R21834   4.683   5.082   5.351 -0.2336 -2.6537  0.6770
  189SAPI  H18S21835   4.556   5.208   5.312 -0.7336  1.0730  3.2090
  189SAPI  C21921836   4.526   5.012   5.223  0.0207  0.4630  0.7996
  189SAPI  H19R21837   4.415   5.024   5.224 -0.1014 -0.3351 -0.7066
  189SAPI  H19S21838   4.547   4.908   5.254  0.0310  0.7407  1.7667
  189SAPI  C22021839   4.585   5.039   5.079 -0.5870  0.0245 -0.3208
  189SAPI  H20R21840   4.585   5.148   5.056  2.9752  0.6927  2.0772
  189SAPI  H20S21841   4.524   4.984   5.004  1.3710 -1.8069 -0.6940
  189SAPI  H20T21842   4.687   4.995   5.072 -0.1282  1.1242 -0.7166
  189SAPI   C3321843   3.918   5.481   6.247  0.3973 -0.6196  0.2177
  189SAPI   H3X21844   3.933   5.548   6.160  1.6582 -1.0391  0.0957
  189SAPI   H3Y21845   3.813   5.494   6.280 -0.0654  0.2747 -1.4832
  189SAPI   C3421846   3.936   5.335   6.198  0.0097  0.0438  0.2215
  189SAPI   H4X21847   3.909   5.270   6.284  0.9648 -0.4551  0.1563
  189SAPI   H4Y21848   4.042   5.321   6.169 -0.3437 -0.0437 -1.0831
  189SAPI   C3521849   3.845   5.295   6.084  0.5214  0.1694 -0.5191
  189SAPI   H5X21850   3.739   5.326   6.093  0.5995  0.4651 -0.6165
  189SAPI   H5Y21851   3.850   5.184   6.076 -2.3367  0.0259 -1.7609
  189SAPI   C3621852   3.897   5.357   5.953 -0.3448 -0.2220 -0.5223
  189SAPI   H6X21853   4.007   5.347   5.945 -0.2832  0.3985 -0.4688
  189SAPI   H6Y21854   3.850   5.457   5.946 -1.3332 -0.6520 -0.3118
  189SAPI   C3721855   3.855   5.290   5.826  0.5363  0.0233 -0.4144
  189SAPI   H7X21856   3.744   5.291   5.825  0.5274  1.7777 -2.0358
  189SAPI   H7Y21857   3.883   5.183   5.836 -2.2618 -0.5961  3.4152
  189SAPI   C3821858   3.905   5.345   5.693  0.2645  0.2425  0.5350
  189SAPI   H8X21859   4.004   5.396   5.701 -0.6499  2.1074  0.4944
  189SAPI   H8Y21860   3.838   5.423   5.651 -1.0140 -0.9481  0.2808
  189SAPI   C3921861   3.925   5.234   5.589 -0.5005 -0.3435 -0.4481
  189SAPI   H9X21862   3.830   5.191   5.552 -1.3879  2.6164 -1.9598
  189SAPI   H9Y21863   3.987   5.152   5.630 -1.5718 -0.7940  0.3147
  189SAPI  C31021864   3.996   5.298   5.462  0.7451 -0.0104  0.0904
  189SAPI  H10X21865   4.088   5.355   5.487  0.4106  0.2855  0.6624
  189SAPI  H10Y21866   3.922   5.364   5.413  0.2642 -0.1930  0.5603
  189SAPI  C31121867   4.027   5.176   5.379 -0.6677  0.0532  0.0876
  189SAPI  H11X21868   3.938   5.113   5.362 -1.7126  1.0671  1.5075
  189SAPI  H11Y21869   4.093   5.111   5.440 -0.2111 -0.2384 -0.7113
  189SAPI  C31221870   4.098   5.220   5.242  0.0825  0.5635  0.2452
  189SAPI  H12X21871   4.024   5.277   5.183 -0.1532  1.4760  1.3718
  189SAPI  H12Y21872   4.120   5.123   5.193 -1.6780  1.0077 -1.5599
  189SAPI  C31321873   4.212   5.308   5.260  0.4630 -0.0451  0.0761
  189SAPI  H13X21874   4.279   5.268   5.340  1.5938 -0.6931 -1.1613
  189SAPI  H13Y21875   4.183   5.407   5.301  0.0427  0.7878 -2.1426
  189SAPI  C31421876   4.287   5.336   5.129  0.5044  0.2493  0.1784
  189SAPI  H14X21877   4.212   5.376   5.058  2.4949  0.0656 -2.1823
  189SAPI  H14Y21878   4.339   5.247   5.088 -0.1011 -0.0242  0.0001
  189SAPI  C31521879   4.388   5.451   5.154 -0.8328 -0.5261 -0.0112
  189SAPI  H15X21880   4.456   5.425   5.238 -1.1643 -0.4489  0.2822
  189SAPI  H15Y21881   4.331   5.538   5.194  0.6622  0.1232  0.8280
  189SAPI  C31621882   4.469   5.496   5.040 -0.3213  0.3708  0.4712
  189SAPI  H16X21883   4.510   5.416   4.974 -1.0162 -0.6015  1.1838
  189SAPI  H16Y21884   4.550   5.565   5.072 -0.0288  0.2485  0.0126
  189SAPI  C31721885   4.387   5.572   4.935  0.0730 -0.4767  0.0960
  189SAPI  H17X21886   4.367   5.663   4.996 -0.0145  0.3162 -1.0797
  189SAPI  H17Y21887   4.295   5.532   4.887  0.5245  2.6340 -3.8735
  189SAPI  C31821888   4.473   5.602   4.812 -0.3352 -0.3935  0.3113
  189SAPI  H18X21889   4.415   5.630   4.721 -3.3340  0.1776  2.2583
  189SAPI  H18Y21890   4.534   5.510   4.791  0.0359 -0.4375  1.5094
  189SAPI  H18Z21891   4.561   5.666   4.837  0.3767 -1.2312  0.0204
  190SAPI   C1221892   5.990   4.477   7.324  0.9307  0.0390 -0.1317
  190SAPI    H221893   5.969   4.586   7.334  1.6345  0.2066 -0.4240
  190SAPI    O221894   6.123   4.469   7.278  0.5564 -0.1912  0.2189
  190SAPI   HO221895   6.133   4.479   7.183 -4.5517 -2.6948 -0.8904
  190SAPI   C1321896   5.966   4.409   7.459 -0.5674  0.4893 -0.0288
  190SAPI    H321897   5.857   4.401   7.481 -0.2095  1.8371  2.6013
  190SAPI    O321898   6.021   4.479   7.567 -0.1352  0.5546  1.0278
  190SAPI   HO321899   5.956   4.547   7.586  0.1711  0.8823  0.9069
  190SAPI   C1421900   6.013   4.260   7.447 -0.1000 -0.2496 -0.3154
  190SAPI    H421901   6.118   4.259   7.411  0.1322 -1.0739  0.3458
  190SAPI    O421902   6.016   4.181   7.570 -0.0267  0.0473 -0.2007
  190SAPI   HO421903   5.936   4.207   7.617 -1.0614 -0.3983 -1.6463
  190SAPI   C1521904   5.944   4.184   7.339 -0.2538  0.0321  0.5399
  190SAPI    H521905   5.838   4.170   7.371 -0.9271  1.7495 -0.7778
  190SAPI    O521906   6.002   4.058   7.311 -1.1006 -0.4805  0.3348
  190SAPI   HO521907   5.929   3.998   7.295 -0.2712 -1.3784 -0.2203
  190SAPI   C1621908   5.931   4.258   7.203  0.5962 -0.0982 -0.5214
  190SAPI    H621909   6.032   4.248   7.157 -0.1065  0.4084 -2.2812
  190SAPI    O621910   5.832   4.198   7.120 -0.2832 -0.1520  0.1240
  190SAPI   HO621911   5.791   4.268   7.068 -1.1869  0.8587  2.1013
  190SAPI   C1121912   5.900   4.408   7.221 -0.2025 -0.3672 -0.4821
  190SAPI    H121913   5.803   4.418   7.274  0.4832  2.3828  0.4444
  190SAPI     P21914   5.771   4.559   7.041  0.0807 -0.4151  0.0600
  190SAPI   O1321915   5.717   4.676   7.117  0.8812 -0.2422 -0.0383
  190SAPI   O1421916   5.675   4.450   7.019 -0.1188 -0.3088  0.1439
  190SAPI   O1221917   5.911   4.495   7.106  1.0899 -0.1508  0.3255
  190SAPI   O1121918   5.827   4.611   6.901  0.2264  0.3584  0.4705
  190SAPI    C121919   5.950   4.684   6.889  0.2394 -0.4645 -0.2805
  190SAPI    HA21920   5.976   4.734   6.985 -3.0955  1.0584 -0.0575
  190SAPI    HB21921   6.030   4.615   6.852 -0.3804 -1.7311  0.6655
  190SAPI    C221922   5.943   4.795   6.772  0.6025 -0.8568  0.3186
  190SAPI    HS21923   5.920   4.895   6.815 -0.8412  0.1720 -2.6150
  190SAPI   O2121924   5.847   4.759   6.671 -0.8910  0.1743  0.0787
  190SAPI   C2121925   5.751   4.843   6.650  0.3238  0.0856 -0.6581
  190SAPI   O2221926   5.730   4.938   6.727  0.2199 -0.6002 -0.0017
  190SAPI   C2221927   5.687   4.811   6.520  0.1729  0.6507 -0.0851
  190SAPI   H2R21928   5.766   4.809   6.442  1.0964  1.3180  0.8058
  190SAPI   H2S21929   5.630   4.716   6.512 -1.6576  1.8253 -2.5177
  190SAPI    C321930   6.088   4.799   6.712 -0.3055 -0.0804  0.2245
  190SAPI    HX21931   6.115   4.697   6.678 -1.5287 -0.9705  1.8140
  190SAPI    HY21932   6.151   4.811   6.803  1.5308 -0.7938 -0.8926
  190SAPI   O3121933   6.109   4.898   6.603  0.0746  0.3511 -0.1024
  190SAPI   C3121934   6.096   5.029   6.646  0.3052  0.2087  0.0353
  190SAPI   O3221935   6.073   5.060   6.760  0.3095 -0.0910  0.0275
  190SAPI   C3221936   6.109   5.119   6.518  0.1263 -0.3076  0.1399
  190SAPI   H2X21937   6.054   5.079   6.429  1.7309  3.2742 -2.7080
  190SAPI   H2Y21938   6.218   5.122   6.495  0.1932  0.1981  0.5113
  190SAPI   C2321939   5.593   4.920   6.463 -0.5862  0.8793  0.2032
  190SAPI   H3R21940   5.530   4.962   6.544 -2.4916  1.0273 -1.2952
  190SAPI   H3S21941   5.529   4.863   6.392  2.0002 -1.3400 -0.4895
  190SAPI   C2421942   5.665   5.037   6.391  0.1907 -0.7892 -0.1614
  190SAPI   H4R21943   5.746   5.000   6.325 -1.0741 -0.4274 -1.9718
  190SAPI   H4S21944   5.712   5.087   6.479  0.2611 -1.1860  0.0286
  190SAPI   C2521945   5.586   5.150   6.335  0.0035  0.2797  0.3962
  190SAPI   H5R21946   5.524   5.195   6.414  0.5062 -2.0424  2.2333
  190SAPI   C2621947   5.594   5.198   6.210  0.0165  0.2260  0.7962
  190SAPI   H6R21948   5.523   5.272   6.171 -0.2058  0.1885  1.1224
  190SAPI   C2721949   5.674   5.139   6.095 -0.6169 -0.6753  0.3288
  190SAPI   H7R21950   5.781   5.122   6.119  0.1063 -0.0684 -2.1834
  190SAPI   H7S21951   5.676   5.208   6.008  1.6142 -0.5626  0.4031
  190SAPI   C2821952   5.626   5.006   6.046 -0.3023  0.1892  0.6470
  190SAPI   H8R21953   5.531   4.975   6.091 -0.4208  0.6633  0.7239
  190SAPI   C2921954   5.656   4.951   5.927 -0.3483 -0.1049  0.0746
  190SAPI   H9R21955   5.603   4.858   5.899  0.9123 -0.8251  0.0033
  190SAPI  C21021956   5.767   5.002   5.841 -0.3307  0.0607  0.2835
  190SAPI  H10R21957   5.828   5.071   5.902 -0.8705 -2.3673  3.9011
  190SAPI  H10S21958   5.718   5.067   5.765 -1.3680 -1.0373 -0.0306
  190SAPI  C21121959   5.846   4.893   5.761 -0.3531 -0.8605 -0.7076
  190SAPI  H11R21960   5.925   4.855   5.827  0.7457  1.4061 -0.6283
  190SAPI  C21221961   5.822   4.859   5.635 -0.1140 -0.7319  0.9262
  190SAPI  H12R21962   5.895   4.790   5.589  0.6560  0.2522  0.6506
  190SAPI  C21321963   5.704   4.903   5.553  0.9779 -0.4455  0.7304
  190SAPI  H13R21964   5.703   5.014   5.556  0.1361 -0.4409  0.3472
  190SAPI  H13S21965   5.611   4.869   5.603  0.0695  0.1051 -0.5476
  190SAPI  C21421966   5.709   4.843   5.416 -0.0321 -0.0140  0.1778
  190SAPI  H14R21967   5.673   4.740   5.404  0.0517  0.0998 -1.3516
  190SAPI  C21521968   5.738   4.905   5.299  0.1314 -0.4796  0.6663
  190SAPI  H15R21969   5.727   4.842   5.210  1.4291  0.3346 -0.0848
  190SAPI  C21621970   5.782   5.048   5.279  0.7198 -0.1574  0.2475
  190SAPI  H16R21971   5.878   5.054   5.224 -0.0482  0.8903 -1.0634
  190SAPI  H16S21972   5.804   5.095   5.377 -1.1846  1.6175 -0.0790
  190SAPI  C21721973   5.673   5.150   5.222  0.0655  0.6361  0.0726
  190SAPI  H17R21974   5.714   5.251   5.244  1.4273  0.2878 -0.7428
  190SAPI  H17S21975   5.586   5.135   5.290  3.0800  1.0688  4.4478
  190SAPI  C21821976   5.644   5.124   5.077  0.1336  0.3900  0.0083
  190SAPI  H18R21977   5.628   5.015   5.064  1.9710  0.1909 -0.8733
  190SAPI  H18S21978   5.728   5.145   5.008  1.1945 -0.7587  0.9042
  190SAPI  C21921979   5.520   5.190   5.021 -0.7102 -0.8077 -1.3828
  190SAPI  H19R21980   5.516   5.163   4.914  1.1128 -0.8544 -1.4592
  190SAPI  H19S21981   5.539   5.299   5.022 -0.0230 -0.9184 -0.6112
  190SAPI  C22021982   5.390   5.165   5.095  0.5205 -0.2362  0.3824
  190SAPI  H20R21983   5.374   5.221   5.190  3.3274 -0.8792  1.3303
  190SAPI  H20S21984   5.395   5.057   5.123 -1.0869 -0.1544  1.1077
  190SAPI  H20T21985   5.303   5.171   5.027  0.2133 -0.5462  0.7458
  190SAPI   C3321986   6.053   5.264   6.540  0.4558 -0.3049 -0.7690
  190SAPI   H3X21987   6.093   5.311   6.632 -1.6130 -1.1357  0.6449
  190SAPI   H3Y21988   5.943   5.253   6.554  0.5767 -0.1604  0.3517
  190SAPI   C3421989   6.080   5.350   6.416 -0.3030 -0.1451  0.0563
  190SAPI   H4X21990   6.189   5.350   6.397 -0.4914 -0.4249 -1.0558
  190SAPI   H4Y21991   6.046   5.454   6.439  0.9181  1.0023 -2.8824
  190SAPI   C3521992   6.003   5.310   6.287 -0.4548  0.0695  0.3443
  190SAPI   H5X21993   5.896   5.335   6.307 -0.4637 -0.3439  0.8276
  190SAPI   H5Y21994   6.016   5.203   6.262  0.2216 -0.1492  1.5562
  190SAPI   C3621995   6.051   5.378   6.161  0.0276 -0.1403  0.1634
  190SAPI   H6X21996   6.159   5.360   6.143  0.4239  0.8559  1.4246
  190SAPI   H6Y21997   6.054   5.489   6.170 -1.0426 -0.0157 -0.7961
  190SAPI   C3721998   5.978   5.348   6.025 -0.7771  0.2495 -0.7706
  190SAPI   H7X21999   5.867   5.343   6.034 -0.7484  1.2927  0.4268
  190SAPI   H7Y22000   6.012   5.250   5.986 -1.4593  0.2896 -1.5009
  190SAPI   C3822001   6.008   5.459   5.924 -0.0044  0.4911  0.2503
  190SAPI   H8X22002   6.119   5.462   5.919 -0.0530  0.3731 -2.4516
  190SAPI   H8Y22003   5.970   5.554   5.966  0.1929  0.2973  0.8758
  190SAPI   C3922004   5.944   5.446   5.789  0.1320 -0.0382  0.1555
  190SAPI   H9X22005   5.833   5.439   5.786  0.1905 -0.7913 -0.5109
  190SAPI   H9Y22006   5.981   5.350   5.746  1.3623  1.8835 -3.4432
  190SAPI  C31022007   5.995   5.556   5.695  0.6331 -0.0932  0.8890
  190SAPI  H10X22008   6.106   5.559   5.704  0.8119  1.3808 -1.0705
  190SAPI  H10Y22009   5.969   5.657   5.735  1.6350  0.3621  0.4315
  190SAPI  C31122010   5.962   5.542   5.551  0.0253 -0.3783  0.3709
  190SAPI  H11X22011   5.976   5.437   5.520 -1.3848 -0.0937 -1.4405
  190SAPI  H11Y22012   6.034   5.604   5.494 -1.0108 -0.9647 -1.6701
  190SAPI  C31222013   5.812   5.573   5.521 -0.1119  0.4196  0.3074
  190SAPI  H12X22014   5.785   5.677   5.550 -1.8205  0.5008 -1.3959
  190SAPI  H12Y22015   5.760   5.514   5.600 -0.3595  0.3430  0.0872
  190SAPI  C31322016   5.775   5.525   5.378  0.7685 -0.4408  0.7506
  190SAPI  H13X22017   5.671   5.486   5.379  1.0276 -1.1408  0.9307
  190SAPI  H13Y22018   5.832   5.432   5.362  1.2056  0.1468 -1.4383
  190SAPI  C31422019   5.796   5.630   5.270  0.0499 -0.4998  0.1369
  190SAPI  H14X22020   5.906   5.643   5.262  0.1451 -1.0516  0.4943
  190SAPI  H14Y22021   5.751   5.723   5.310  1.5120 -0.2429  1.2986
  190SAPI  C31522022   5.732   5.596   5.132  0.4852  0.5703  0.0681
  190SAPI  H15X22023   5.628   5.571   5.161  1.1436  1.1836  3.3465
  190SAPI  H15Y22024   5.781   5.508   5.083 -0.6650 -0.7447  1.1946
  190SAPI  C31622025   5.746   5.708   5.023  0.2724  0.2091 -0.4624
  190SAPI  H16X22026   5.847   5.752   5.014  1.0389 -1.2817  0.4187
  190SAPI  H16Y22027   5.673   5.787   5.054 -0.8700 -1.1568  0.4641
  190SAPI  C31722028   5.699   5.654   4.892  0.2884  0.0738 -0.3273
  190SAPI  H17X22029   5.617   5.580   4.902 -0.4211  0.4588 -2.6466
  190SAPI  H17Y22030   5.783   5.604   4.839  0.9354  1.1529 -0.3561
  190SAPI  C31822031   5.647   5.759   4.788 -0.1516 -0.4479  1.1131
  190SAPI  H18X22032   5.730   5.830   4.767 -1.3488  0.7671  0.3565
  190SAPI  H18Y22033   5.560   5.812   4.831  0.6505  0.8775  1.1571
  190SAPI  H18Z22034   5.617   5.711   4.692  1.0910  0.7973  0.0510
  191SAPI   C1222035   2.657   3.209   2.614 -0.1682  0.2637 -0.2951
  191SAPI    H222036   2.593   3.266   2.684 -0.7955 -0.0239 -0.6258
  191SAPI    O222037   2.791   3.208   2.666  0.7892 -0.5378  0.8402
  191SAPI   HO222038   2.798   3.264   2.743 -0.0025 -0.1510  0.6423
  191SAPI   C1322039   2.609   3.062   2.618 -0.3767 -1.0830  0.5508
  191SAPI    H322040   2.505   3.065   2.580  0.2645  0.3145 -1.2801
  191SAPI    O322041   2.592   3.007   2.747  0.0080  0.0760  0.3173
  191SAPI   HO322042   2.663   3.031   2.807  0.8803  0.1556 -0.7146
  191SAPI   C1422043   2.696   2.971   2.528  0.0841 -0.0237 -0.6561
  191SAPI    H422044   2.782   2.942   2.592  1.7537  2.3737 -1.6937
  191SAPI    O422045   2.636   2.846   2.500  0.2238 -0.6535  0.3861
  191SAPI   HO422046   2.547   2.864   2.469  1.2064  1.1696 -1.6930
  191SAPI   C1522047   2.750   3.041   2.399 -0.6796 -0.1449 -0.2440
  191SAPI    H522048   2.673   3.029   2.320  0.0243  3.2733 -1.6336
  191SAPI    O522049   2.869   2.982   2.348  0.0331 -0.3912  0.3105
  191SAPI   HO522050   2.840   2.905   2.299 -2.6847  0.5196  0.2738
  191SAPI   C1622051   2.758   3.195   2.389  0.4012  0.0213 -0.3222
  191SAPI    H622052   2.861   3.219   2.425  0.2824 -0.1240  0.1317
  191SAPI    O622053   2.756   3.240   2.252 -0.3912 -0.0721 -0.6156
  191SAPI   HO622054   2.847   3.266   2.234 -0.8570  3.1202  0.9444
  191SAPI   C1122055   2.646   3.269   2.478 -0.4479  0.0874  0.0530
  191SAPI    H122056   2.548   3.245   2.432 -0.7156  0.7974  0.2418
  191SAPI     P22057   2.549   3.520   2.478  0.1296  0.2075 -0.1555
  191SAPI   O1322058   2.436   3.459   2.402 -0.3100 -0.4046  0.3321
  191SAPI   O1422059   2.597   3.656   2.441  0.5109 -0.2865 -0.7768
  191SAPI   O1222060   2.672   3.409   2.477 -0.6925 -0.1212  1.0309
  191SAPI   O1122061   2.507   3.512   2.630 -0.2365  0.0664 -0.2301
  191SAPI    C122062   2.581   3.608   2.710 -0.0597  0.3128  0.1430
  191SAPI    HA22063   2.691   3.605   2.694  0.5135 -1.0755  3.3628
  191SAPI    HB22064   2.528   3.703   2.687  0.0808  0.3843  0.1152
  191SAPI    C222065   2.570   3.577   2.859 -0.0117  0.3263  0.6747
  191SAPI    HS22066   2.608   3.473   2.871 -3.0965 -0.9217  0.5329
  191SAPI   O2122067   2.431   3.585   2.896 -0.2871 -0.5546 -0.4249
  191SAPI   C2122068   2.391   3.495   2.988  0.7664  0.6091 -0.3807
  191SAPI   O2222069   2.444   3.393   3.020 -0.2501 -0.2901 -0.1533
  191SAPI   C2222070   2.272   3.560   3.051  0.3139 -0.1396 -0.4820
  191SAPI   H2R22071   2.268   3.664   3.012 -2.4541 -0.1495 -0.4578
  191SAPI   H2S22072   2.185   3.502   3.014  1.2670 -1.0089 -1.4239
  191SAPI    C322073   2.646   3.676   2.953 -0.1538  0.5406  0.4447
  191SAPI    HX22074   2.594   3.773   2.947 -1.2501  0.0068  0.9554
  191SAPI    HY22075   2.754   3.669   2.928  0.3111 -2.1153  2.5999
  191SAPI   O3122076   2.627   3.630   3.094  0.5124 -0.1160 -0.5039
  191SAPI   C3122077   2.741   3.625   3.175 -0.6394  0.6403 -0.3132
  191SAPI   O3222078   2.853   3.639   3.134  0.3604 -0.5760  0.2740
  191SAPI   C3222079   2.708   3.615   3.325  0.3370 -0.2427  0.6563
  191SAPI   H2X22080   2.729   3.510   3.356 -1.4888 -1.1623 -0.9879
  191SAPI   H2Y22081   2.599   3.621   3.343  0.2375 -2.3931  1.1190
  191SAPI   C2322082   2.285   3.545   3.208  0.5163  0.0622 -0.2432
  191SAPI   H3R22083   2.243   3.637   3.254 -1.2177 -0.2941 -1.0418
  191SAPI   H3S22084   2.391   3.540   3.243  0.2077  2.2299  1.1979
  191SAPI   C2422085   2.194   3.436   3.273 -0.9011  0.1563 -0.1217
  191SAPI   H4R22086   2.099   3.451   3.218  0.3809  0.2743 -2.4439
  191SAPI   H4S22087   2.165   3.458   3.377 -1.5155  0.3772 -0.3339
  191SAPI   C2522088   2.245   3.291   3.253 -0.1622 -0.7196  0.3447
  191SAPI   H5R22089   2.214   3.240   3.160  0.5945 -2.3279  0.9401
  191SAPI   C2622090   2.338   3.232   3.335  0.4513 -0.9673  0.0823
  191SAPI   H6R22091   2.373   3.132   3.306  1.0113 -1.6151  2.7886
  191SAPI   C2722092   2.396   3.293   3.458 -0.0086  0.2980  0.2315
  191SAPI   H7R22093   2.436   3.396   3.448  0.0129  0.0399 -4.8060
  191SAPI   H7S22094   2.484   3.227   3.472  1.4131  1.4691 -2.4088
  191SAPI   C2822095   2.296   3.283   3.574  0.1483 -0.0557 -0.1627
  191SAPI   H8R22096   2.195   3.252   3.545  0.0440  1.6002 -1.7764
  191SAPI   C2922097   2.329   3.305   3.702 -1.0254  0.5222  0.1828
  191SAPI   H9R22098   2.256   3.277   3.779 -1.2161 -0.5670 -0.3619
  191SAPI  C21022099   2.473   3.346   3.744 -0.1400  0.2085 -0.2057
  191SAPI  H10R22100   2.469   3.454   3.772 -0.4482  0.3141 -0.6583
  191SAPI  H10S22101   2.547   3.341   3.661  0.7976 -3.2383  0.6795
  191SAPI  C21122102   2.519   3.258   3.855 -1.5700  0.6626  0.2758
  191SAPI  H11R22103   2.524   3.152   3.824 -0.2107  0.6645  0.4254
  191SAPI  C21222104   2.554   3.298   3.980 -0.4392 -0.5702  0.1026
  191SAPI  H12R22105   2.622   3.228   4.031  1.0095 -0.6029 -1.7681
  191SAPI  C21322106   2.533   3.439   4.037  0.6196  0.2259 -0.0857
  191SAPI  H13R22107   2.535   3.514   3.954  1.6385 -0.4854 -0.7312
  191SAPI  H13S22108   2.622   3.470   4.096 -0.7129 -0.4572  2.4153
  191SAPI  C21422109   2.414   3.448   4.120  0.4081  0.0900 -0.4599
  191SAPI  H14R22110   2.325   3.395   4.084 -1.6287  3.4373 -0.8508
  191SAPI  C21522111   2.402   3.523   4.233  0.1458 -0.2533  0.1850
  191SAPI  H15R22112   2.314   3.509   4.299  1.4047  1.7076  2.4551
  191SAPI  C21622113   2.499   3.624   4.296  0.2982 -0.5626 -0.2452
  191SAPI  H16R22114   2.454   3.688   4.375  1.5728 -1.2930  1.1223
  191SAPI  H16S22115   2.529   3.695   4.216 -1.6846  0.8159  0.1552
  191SAPI  C21722116   2.627   3.577   4.372  0.2895  0.7985 -0.3144
  191SAPI  H17R22117   2.715   3.575   4.305 -0.4829  0.2100 -1.3637
  191SAPI  H17S22118   2.620   3.475   4.417  1.6235  0.0488 -1.7049
  191SAPI  C21822119   2.655   3.670   4.487 -0.3148  0.0951  0.0305
  191SAPI  H18R22120   2.567   3.700   4.549  2.0631  0.6958  3.3865
  191SAPI  H18S22121   2.698   3.758   4.436 -1.7574  0.4970 -0.5527
  191SAPI  C21922122   2.779   3.623   4.563  0.3903 -0.1692 -0.2218
  191SAPI  H19R22123   2.865   3.645   4.497 -0.9067  1.9496 -1.3251
  191SAPI  H19S22124   2.783   3.513   4.576 -1.3195 -0.0379  1.9982
  191SAPI  C22022125   2.811   3.697   4.694  0.8976  0.0694 -1.4235
  191SAPI  H20R22126   2.813   3.806   4.673  2.9046  0.7171  1.5061
  191SAPI  H20S22127   2.911   3.674   4.736  0.4584  2.1675  1.0953
  191SAPI  H20T22128   2.735   3.668   4.771 -0.0337 -0.0570 -2.3700
  191SAPI   C3322129   2.799   3.703   3.417 -0.5320  0.1874  0.3123
  191SAPI   H3X22130   2.788   3.812   3.401 -2.0440  0.0634  0.3796
  191SAPI   H3Y22131   2.909   3.689   3.409 -0.3214  1.2882  0.9778
  191SAPI   C3422132   2.758   3.664   3.561 -0.2802 -0.5719 -0.4517
  191SAPI   H4X22133   2.764   3.554   3.574  0.8371 -0.3960  0.7351
  191SAPI   H4Y22134   2.655   3.693   3.595  0.3872 -2.5157  3.9890
  191SAPI   C3522135   2.863   3.703   3.670  0.4875 -0.8673  0.0846
  191SAPI   H5X22136   2.871   3.813   3.654 -0.4247 -0.7279  0.5181
  191SAPI   H5Y22137   2.965   3.667   3.646  0.9004 -0.4876  1.2199
  191SAPI   C3622138   2.811   3.674   3.813 -0.0449 -0.5959  0.4839
  191SAPI   H6X22139   2.792   3.565   3.810 -3.6003 -0.1102  1.1248
  191SAPI   H6Y22140   2.703   3.700   3.820  0.1136 -0.1696  1.5016
  191SAPI   C3722141   2.897   3.715   3.931  0.5832  1.1727 -0.5386
  191SAPI   H7X22142   2.863   3.815   3.964  0.0819  0.5449  0.9070
  191SAPI   H7Y22143   3.000   3.733   3.893 -0.2309  0.2852 -3.5067
  191SAPI   C3822144   2.901   3.606   4.046  0.0467  0.2685  0.1377
  191SAPI   H8X22145   2.912   3.504   4.001 -1.7177  0.5808 -1.1106
  191SAPI   H8Y22146   2.796   3.607   4.083 -0.1476 -1.1001 -0.3215
  191SAPI   C3922147   2.994   3.641   4.162 -0.5258 -0.2627  0.2045
  191SAPI   H9X22148   3.095   3.638   4.117 -0.9437 -1.5202 -0.7209
  191SAPI   H9Y22149   2.986   3.559   4.237 -0.3783  1.0717  1.7415
  191SAPI  C31022150   2.967   3.782   4.227 -0.7158 -0.1230  0.5735
  191SAPI  H10X22151   2.866   3.777   4.271 -0.8057 -0.2163  0.3574
  191SAPI  H10Y22152   2.972   3.868   4.157  3.4911  0.4501  1.3025
  191SAPI  C31122153   3.065   3.803   4.346  0.1949 -0.4559  0.6706
  191SAPI  H11X22154   3.168   3.808   4.306  0.0774  0.2777  0.4448
  191SAPI  H11Y22155   3.058   3.708   4.404  0.1270 -1.0276 -0.2615
  191SAPI  C31222156   3.042   3.920   4.427  0.2397 -0.3987 -0.3920
  191SAPI  H12X22157   2.937   3.909   4.463  0.1842  0.3179 -0.3228
  191SAPI  H12Y22158   3.054   4.013   4.368  0.7642  0.3380  0.8442
  191SAPI  C31322159   3.130   3.927   4.557 -0.0727 -0.1775  0.7338
  191SAPI  H13X22160   3.235   3.945   4.526 -1.1146  3.7094 -1.1262
  191SAPI  H13Y22161   3.129   3.836   4.621  1.8278 -0.9963 -0.2991
  191SAPI  C31422162   3.096   4.045   4.650  0.0071  0.1740  0.2853
  191SAPI  H14X22163   3.191   4.061   4.705 -0.1706 -0.8076  0.9044
  191SAPI  H14Y22164   3.017   4.012   4.721 -1.3812 -2.9613 -2.4282
  191SAPI  C31522165   3.048   4.172   4.580  0.3004 -0.6571  0.1913
  191SAPI  H15X22166   2.948   4.140   4.543  0.5029 -3.1358  1.5486
  191SAPI  H15Y22167   3.104   4.206   4.491 -1.4263  0.4167 -0.5319
  191SAPI  C31622168   3.048   4.302   4.658 -0.9587 -0.2050 -0.5276
  191SAPI  H16X22169   2.974   4.312   4.740 -0.7497 -1.7118 -0.1293
  191SAPI  H16Y22170   3.018   4.376   4.580 -0.6280  0.9410  0.3994
  191SAPI  C31722171   3.194   4.329   4.695  0.0671  0.1912  0.3535
  191SAPI  H17X22172   3.261   4.250   4.655  1.9111  0.4152  2.7704
  191SAPI  H17Y22173   3.216   4.328   4.804  0.0566  0.3794  0.3580
  191SAPI  C31822174   3.241   4.459   4.654  0.4209 -0.2776  0.4755
  191SAPI  H18X22175   3.257   4.468   4.545  1.6349 -1.0474  0.5675
  191SAPI  H18Y22176   3.333   4.487   4.710 -1.3888  2.6566  2.2610
  191SAPI  H18Z22177   3.174   4.543   4.684  0.7750  1.3188 -2.7568
  192SAPI   C1222178   4.286   2.126   2.859  0.4230 -0.3706 -0.2841
  192SAPI    H222179   4.231   2.072   2.779  1.0055  1.4570 -2.0122
  192SAPI    O222180   4.249   2.066   2.984 -0.0732 -0.1822  0.4582
  192SAPI   HO222181   4.165   2.107   3.005  0.2372  0.2160  0.9362
  192SAPI   C1322182   4.433   2.114   2.843 -0.4560  0.2284  0.5209
  192SAPI    H322183   4.461   2.180   2.758 -1.4021  1.6808  1.2914
  192SAPI    O322184   4.471   1.980   2.816 -0.8058  0.3293 -0.2336
  192SAPI   HO322185   4.567   1.977   2.829 -0.2758 -0.7199 -3.4724
  192SAPI   C1422186   4.513   2.173   2.957  0.9931 -0.1672  0.5523
  192SAPI    H422187   4.485   2.100   3.036  0.3167 -2.9531 -2.0659
  192SAPI    O422188   4.658   2.159   2.943  0.3802  0.5100  0.0233
  192SAPI   HO422189   4.691   2.209   2.868  1.2744 -1.1089 -0.6930
  192SAPI   C1522190   4.463   2.316   2.982 -0.7406 -0.6200 -0.2557
  192SAPI    H522191   4.526   2.373   2.910  1.4131 -1.4252  0.8884
  192SAPI    O522192   4.507   2.362   3.115 -0.0105 -0.5964  0.5016
  192SAPI   HO522193   4.558   2.442   3.105  0.4675 -0.7718  1.3495
  192SAPI   C1622194   4.321   2.359   2.946 -0.5250 -0.0071  1.3598
  192SAPI    H622195   4.257   2.358   3.037  0.7765 -1.3307  2.3058
  192SAPI    O622196   4.312   2.497   2.907  0.1863  0.0480  0.1288
  192SAPI   HO622197   4.226   2.519   2.870 -0.5294  0.8930  2.1437
  192SAPI   C1122198   4.248   2.267   2.845  0.1580  0.0345 -0.2767
  192SAPI    H122199   4.268   2.298   2.741 -0.5041  1.1463 -0.0978
  192SAPI     P22200   4.009   2.377   2.774 -0.2342  0.4134  0.1566
  192SAPI   O1322201   3.870   2.341   2.808  0.2843 -0.5824 -0.1422
  192SAPI   O1422202   4.041   2.370   2.629 -0.0327  0.3568  0.1476
  192SAPI   O1222203   4.102   2.273   2.865  0.0731  0.9717 -0.1389
  192SAPI   O1122204   4.039   2.509   2.843  0.0762  0.1074  0.0986
  192SAPI    C122205   3.943   2.581   2.911  0.3231 -0.1604  0.8682
  192SAPI    HA22206   3.858   2.614   2.848 -0.0267  1.3161  2.0461
  192SAPI    HB22207   3.885   2.517   2.980 -2.3969 -0.2109 -1.3283
  192SAPI    C222208   3.996   2.707   2.980  0.0439 -0.3309  0.3335
  192SAPI    HS22209   4.045   2.770   2.903 -1.6694  0.7520  0.0716
  192SAPI   O2122210   4.099   2.666   3.073 -0.4642 -0.4371 -0.4969
  192SAPI   C2122211   4.171   2.760   3.123 -0.4248 -0.5653  0.4793
  192SAPI   O2222212   4.191   2.874   3.075  0.5071  0.1689  0.2152
  192SAPI   C2222213   4.252   2.707   3.240  0.1200  0.8193  0.1133
  192SAPI   H2R22214   4.329   2.636   3.202  0.1121 -0.3547  2.1484
  192SAPI   H2S22215   4.298   2.798   3.285 -0.4015  0.7201  0.8769
  192SAPI    C322216   3.883   2.802   3.044 -0.2415 -0.9003  0.2074
  192SAPI    HX22217   3.793   2.817   2.982  1.9711 -1.4086 -3.4275
  192SAPI    HY22218   3.920   2.904   3.065 -3.1805  0.4672 -0.8298
  192SAPI   O3122219   3.841   2.749   3.175 -0.1254  0.0530 -0.0545
  192SAPI   C3122220   3.754   2.658   3.174 -0.0535  0.5569  0.2360
  192SAPI   O3222221   3.697   2.619   3.072 -0.5197  0.6461 -0.0180
  192SAPI   C3222222   3.749   2.588   3.309 -0.3937 -0.4098  0.4622
  192SAPI   H2X22223   3.716   2.662   3.385 -1.2276  0.0347 -0.3118
  192SAPI   H2Y22224   3.853   2.557   3.333 -0.4349 -0.7613  0.1908
  192SAPI   C2322225   4.170   2.652   3.358  0.6530  0.2498  0.2845
  192SAPI   H3R22226   4.066   2.628   3.328  1.1098 -2.0751  0.3993
  192SAPI   H3S22227   4.171   2.732   3.436  1.6178  2.3575 -1.7770
  192SAPI   C2422228   4.224   2.508   3.400  0.4970 -0.0145  0.0092
  192SAPI   H4R22229   4.333   2.518   3.421  0.9107 -0.2467 -1.8530
  192SAPI   H4S22230   4.220   2.443   3.310  1.2007  0.4554 -0.3706
  192SAPI   C2522231   4.144   2.440   3.508  0.3056  0.4050 -0.0025
  192SAPI   H5R22232   4.066   2.367   3.479 -2.2372  2.7082  0.6418
  192SAPI   C2622233   4.167   2.462   3.641  0.2544  0.1732 -0.8818
  192SAPI   H6R22234   4.093   2.426   3.714  0.7305  0.0045 -0.4813
  192SAPI   C2722235   4.267   2.566   3.691 -0.1129  0.0760 -0.5084
  192SAPI   H7R22236   4.201   2.634   3.750 -0.0282  1.2515 -1.7268
  192SAPI   H7S22237   4.315   2.627   3.613 -2.7391  2.4032 -0.4700
  192SAPI   C2822238   4.372   2.503   3.780  0.3259  0.2467  0.3659
  192SAPI   H8R22239   4.455   2.458   3.724  0.2007  0.7577 -0.2365
  192SAPI   C2922240   4.377   2.501   3.913 -0.2987 -0.0112 -0.4048
  192SAPI   H9R22241   4.465   2.458   3.964  0.5291  1.8308 -0.1816
  192SAPI  C21022242   4.278   2.560   4.011  0.2150  0.5770  0.4065
  192SAPI  H10R22243   4.227   2.649   3.968 -0.2668 -0.3882 -1.0829
  192SAPI  H10S22244   4.335   2.591   4.101  3.3580  1.1306 -1.5966
  192SAPI  C21122245   4.169   2.463   4.053  0.5172  0.0171  0.1419
  192SAPI  H11R22246   4.125   2.407   3.970 -3.1306  5.9430 -2.5448
  192SAPI  C21222247   4.128   2.443   4.179  0.8085 -0.0005  0.0813
  192SAPI  H12R22248   4.054   2.367   4.204  1.6533 -0.5757  0.9001
  192SAPI  C21322249   4.179   2.517   4.301 -0.6693 -0.4226  0.2201
  192SAPI  H13R22250   4.102   2.517   4.381 -2.9527  0.4128 -1.8658
  192SAPI  H13S22251   4.186   2.626   4.283  2.1165 -0.4287  0.8208
  192SAPI  C21422252   4.303   2.450   4.352 -0.8532 -0.6811 -0.6183
  192SAPI  H14R22253   4.378   2.429   4.274 -0.7181  1.6488 -1.1682
  192SAPI  C21522254   4.341   2.439   4.479 -0.1528 -0.6539 -0.2226
  192SAPI  H15R22255   4.433   2.382   4.501 -0.7890 -0.0835  5.2262
  192SAPI  C21622256   4.280   2.484   4.606 -0.2058 -0.3846  0.2403
  192SAPI  H16R22257   4.228   2.400   4.657  1.4216 -2.0804 -0.7664
  192SAPI  H16S22258   4.216   2.574   4.591  0.3421  0.0659  0.5755
  192SAPI  C21722259   4.389   2.524   4.708 -0.1401  0.0730  0.2396
  192SAPI  H17R22260   4.477   2.578   4.667  1.8041 -2.8429  0.2631
  192SAPI  H17S22261   4.437   2.430   4.745 -1.3235 -0.3309  0.7806
  192SAPI  C21822262   4.339   2.603   4.829  0.5830  0.0133  0.5524
  192SAPI  H18R22263   4.263   2.540   4.882  1.9758 -0.9346  1.4923
  192SAPI  H18S22264   4.298   2.701   4.798 -1.9331 -1.4701 -1.2810
  192SAPI  C21922265   4.455   2.640   4.931  0.3374 -0.4174 -0.1467
  192SAPI  H19R22266   4.416   2.715   5.003 -0.4701  0.2107 -1.2241
  192SAPI  H19S22267   4.545   2.675   4.876  0.1986  0.7642  0.3587
  192SAPI  C22022268   4.496   2.524   5.013  0.1245 -0.1756 -0.4752
  192SAPI  H20R22269   4.531   2.440   4.950 -1.4434 -1.8963  0.8470
  192SAPI  H20S22270   4.418   2.500   5.088  1.1645  1.5586  1.2523
  192SAPI  H20T22271   4.586   2.564   5.066 -0.8943  1.7855 -0.1481
  192SAPI   C3322272   3.663   2.461   3.313 -0.1326 -0.5573  0.4025
  192SAPI   H3X22273   3.709   2.370   3.269 -1.3589 -0.0358 -2.1229
  192SAPI   H3Y22274   3.573   2.482   3.251 -0.0220 -0.6629  0.2033
  192SAPI   C3422275   3.619   2.421   3.461 -0.0787 -0.2406 -0.4176
  192SAPI   H4X22276   3.557   2.329   3.464  0.5062 -0.6247  0.3200
  192SAPI   H4Y22277   3.554   2.500   3.503  0.1819  1.6462 -3.2886
  192SAPI   C3522278   3.741   2.395   3.557 -0.0181 -0.6680 -0.2308
  192SAPI   H5X22279   3.788   2.491   3.584 -2.6463  0.4351  0.7767
  192SAPI   H5Y22280   3.816   2.337   3.499  0.9616  0.1905  0.1624
  192SAPI   C3622281   3.686   2.319   3.678 -0.1864 -0.0093  0.1142
  192SAPI   H6X22282   3.634   2.227   3.641 -0.9436  0.3696  0.2211
  192SAPI   H6Y22283   3.621   2.394   3.728 -0.9754 -0.1687 -0.6502
  192SAPI   C3722284   3.794   2.265   3.769  0.0668 -0.0103  0.2476
  192SAPI   H7X22285   3.848   2.352   3.813 -1.4997  1.2355 -0.2018
  192SAPI   H7Y22286   3.859   2.197   3.711  0.9236  0.0908  1.0702
  192SAPI   C3822287   3.734   2.178   3.886 -0.8537  0.3277 -0.3644
  192SAPI   H8X22288   3.702   2.082   3.841 -0.8163 -0.0630  0.4372
  192SAPI   H8Y22289   3.645   2.230   3.926  0.1675  2.4440 -0.6813
  192SAPI   C3922290   3.849   2.142   3.984  0.3413  0.3950  0.6420
  192SAPI   H9X22291   3.905   2.232   4.017  1.3124 -0.5561  1.6772
  192SAPI   H9Y22292   3.929   2.087   3.930 -0.2232 -1.9965  2.1192
  192SAPI  C31022293   3.800   2.064   4.110 -0.3372  0.1424  0.6207
  192SAPI  H10X22294   3.766   1.968   4.065 -2.4335  1.0006  0.2471
  192SAPI  H10Y22295   3.700   2.091   4.148  0.0382 -1.1769  2.6760
  192SAPI  C31122296   3.895   2.057   4.228 -0.0228  0.1717  0.5481
  192SAPI  H11X22297   3.932   2.155   4.264  1.6740  1.2221 -3.5165
  192SAPI  H11Y22298   3.985   1.999   4.198 -0.4262 -0.7036  0.9887
  192SAPI  C31222299   3.826   1.974   4.335  0.3779  0.7789 -0.5264
  192SAPI  H12X22300   3.799   1.875   4.292  1.0033  0.8685 -1.1360
  192SAPI  H12Y22301   3.732   2.022   4.369  0.0543 -0.7236  0.8172
  192SAPI  C31322302   3.913   1.943   4.459 -0.8438  0.3701  0.2779
  192SAPI  H13X22303   3.994   1.870   4.440 -1.3943 -0.0626 -0.4363
  192SAPI  H13Y22304   3.850   1.887   4.532 -2.1411  0.3808 -0.7940
  192SAPI  C31422305   3.969   2.061   4.536 -0.7162  0.2481  0.0986
  192SAPI  H14X22306   3.879   2.123   4.554 -0.9857  0.0514 -0.5431
  192SAPI  H14Y22307   4.039   2.119   4.472  0.3878  0.9030  1.8555
  192SAPI  C31522308   4.037   2.033   4.669 -0.1945  0.6210  0.1860
  192SAPI  H15X22309   4.135   1.987   4.646  0.1883  0.3380  2.2217
  192SAPI  H15Y22310   3.979   1.956   4.724  1.5887 -0.2594  0.9211
  192SAPI  C31622311   4.046   2.164   4.747  0.0417 -0.0934 -0.3377
  192SAPI  H16X22312   3.943   2.186   4.782 -1.0446  1.3839 -3.9912
  192SAPI  H16Y22313   4.081   2.237   4.671 -0.7323 -0.2028 -0.8053
  192SAPI  C31722314   4.132   2.146   4.878 -0.0436  0.5151  0.0610
  192SAPI  H17X22315   4.232   2.105   4.854  0.1981  1.4545 -0.5852
  192SAPI  H17Y22316   4.085   2.069   4.943  0.1361  0.3328 -0.0219
  192SAPI  C31822317   4.147   2.268   4.964 -0.1245  0.1405 -0.1516
  192SAPI  H18X22318   4.209   2.346   4.913 -1.4434  0.5037 -1.2446
  192SAPI  H18Y22319   4.196   2.239   5.060 -3.2812  0.4539  1.6929
  192SAPI  H18Z22320   4.048   2.309   4.992 -0.9827 -2.1860  0.4135
  193SOD    SOD22321   3.952   6.526   0.157  0.2418  0.4534 -0.3380
  194SOD    SOD22322   4.040   6.114   8.669  0.5255 -0.5106  0.0010
  195SOD    SOD22323   2.865   3.540   8.435  0.3131 -0.1432  0.2268
  196SOD    SOD22324   4.742   3.380   7.109  0.2411 -0.5868 -0.2702
  197SOD    SOD22325   2.823   4.594   6.988  0.0303  0.6087  0.4419
  198SOD    SOD22326   1.050   5.733   1.969  0.6342 -0.6711 -0.2621
  199SOD    SOD22327   2.054   2.268   2.872  0.2060  0.1712  0.1322
  200SOD    SOD22328   0.654   3.628   0.261 -0.2327 -0.3437  0.0005
  201SOD    SOD22329   5.415   4.328   1.531 -0.2519 -0.1054 -0.0633
  202SOD    SOD22330   1.386   0.565   2.433  0.6759  0.0611 -0.8218
  203SOD    SOD22331   3.472   1.613   2.853 -0.0208 -0.0049 -0.4995
  204SOD    SOD22332   3.854   3.524   2.627 -0.0641 -0.0996  0.2404
  205SOD    SOD22333   1.585   5.770   8.644 -0.0394  0.3965 -0.3220
  206SOD    SOD22334   4.813   4.549   2.106 -0.2190  0.0246 -0.5743
  207SOD    SOD22335   1.328   4.204   0.457 -0.5045  0.0452 -0.0828
  208SOD    SOD22336   5.971   2.111   0.681  0.1808  0.5256  0.4280
  209SOD    SOD22337   1.229   2.510   2.030 -0.2927  0.1537 -0.0483
  210SOD    SOD22338   4.557   6.616   8.333 -0.2722  0.0176 -0.2793
  211SOD    SOD22339   1.112   1.255   0.800 -0.0398  0.1016 -0.1908
  212SOD    SOD22340   2.299   3.845   1.973  0.0797 -0.4336 -0.3094
  213SOD    SOD22341   6.135   3.964   7.882  0.7832 -0.7309 -0.1150
  214SOD    SOD22342   5.853   2.746   0.166 -0.2281 -0.1324  0.4048
  215SOD    SOD22343   3.399   4.780   7.579  0.0722 -0.6621 -0.8165
  216SOD    SOD22344   1.412   4.412   8.084 -0.2556 -0.4522 -0.0132
  217SOD    SOD22345   2.727   5.263   1.869 -0.5175 -0.4679  0.4735
  218SOD    SOD22346   6.106   3.416   7.639 -0.2074 -0.1410 -0.2262
  219SOD    SOD22347   3.890   6.347   7.132  0.0458 -0.0986  0.2951
  220SOD    SOD22348   3.174   4.542   0.049  0.1183 -0.3781 -0.3561
  221SOD    SOD22349   5.403   3.998   3.027 -0.1884 -0.0135  0.0481
  222SOD    SOD22350   1.258   2.617   8.333 -0.0177 -0.4088 -0.1644
  223SOD    SOD22351   0.429   6.277   2.797  0.1560 -0.3469 -0.3106
  224SOD    SOD22352   0.125   6.489   1.855  0.2089  0.1934  0.0313
  225SOD    SOD22353   0.693   5.745   7.609 -0.1688  0.2126 -0.1517
  226SOD    SOD22354   6.360   5.522   0.256  0.1413  0.3522  0.0003
  227SOD    SOD22355   6.162   0.055   2.783 -0.2301 -0.0763  0.1472
  228SOD    SOD22356   4.246   0.467   8.776  0.0813  0.0316 -0.2351
  229SOD    SOD22357   4.669   2.573   1.232  0.3951  0.5162  0.1527
  230CLA    CLA22358   2.661   6.678   1.549 -0.1048 -0.1574  0.1014
  231CLA    CLA22359   6.656   5.524   8.380  0.3125  0.1125 -0.2408
  232CLA    CLA22360   4.403   1.320   8.155 -0.3374  0.0708 -0.1500
  233CLA    CLA22361   1.329   6.631   1.260 -0.4140 -0.0368  0.1464
  234CLA    CLA22362   4.699   4.519   0.790 -0.0800  0.2869 -0.4844
  235CLA    CLA22363   2.490   4.624   1.753 -0.0043 -0.0375 -0.2863
  236CLA    CLA22364   1.672   4.355   8.441  0.0446  0.2103 -0.2261
  237CLA    CLA22365   4.845   2.479   8.567  0.2043  0.0859 -0.0289
  238CLA    CLA22366   3.971   6.290   7.841  0.3188 -0.0829 -0.1929
  239CLA    CLA22367   4.915   5.713   0.064  0.0588  0.4814  0.1185
  240CLA    CLA22368   5.441   2.918   0.247  0.0753  0.3078 -0.2643
  241CLA    CLA22369   4.225   6.402   2.366 -0.4068 -0.0443  0.2801
  242CLA    CLA22370   0.649   3.338   8.268  0.2611  0.5879  0.1122
  243CLA    CLA22371   2.926   1.455   1.109  0.0089 -0.1979 -0.3199
  244CLA    CLA22372   2.883   4.359   8.168 -0.2560 -0.0817 -0.0889
  245CLA    CLA22373   5.743   3.601   8.351 -0.0635  0.5979  0.0605
  246CLA    CLA22374   4.755   4.484   1.271  0.3319 -0.6099 -0.0225
  247TIP3   OH222375   4.959   3.963   7.912  0.8185 -0.4197 -0.2409
  247TIP3    H122376   5.035   3.919   7.875  0.0753 -0.7365 -1.4216
  247TIP3    H222377   4.890   3.953   7.847  0.3116  1.5815 -0.0945
  248TIP3   OH222378   3.373   4.041   6.635  0.2686 -0.6610 -0.0048
  248TIP3    H122379   3.346   4.096   6.709  1.6533  1.1706 -0.7731
  248TIP3    H222380   3.456   4.003   6.663 -0.0847 -1.4198  0.0426
  249TIP3   OH222381   4.712   0.098   7.773 -0.1714  0.7010  0.1887
  249TIP3    H122382   4.671   0.184   7.775 -0.2898  0.7661 -2.1227
  249TIP3    H222383   4.762   0.097   7.692  2.0230 -0.4875  1.4650
  250TIP3   OH222384   1.543   6.356   0.172  0.0753 -0.1962 -0.0697
  250TIP3    H122385   1.633   6.369   0.142 -0.3642 -0.2712 -1.5074
  250TIP3    H222386   1.513   6.277   0.126 -0.5517 -0.4965  0.8166
  251TIP3   OH222387   0.747   4.148   1.585 -0.1797 -0.9150 -0.5332
  251TIP3    H122388   0.820   4.101   1.546  0.3441  0.1106 -0.8412
  251TIP3    H222389   0.689   4.080   1.620 -0.0165 -1.8125 -1.9472
  252TIP3   OH222390   6.212   4.607   2.103 -0.5787  0.0693 -0.4158
  252TIP3    H122391   6.219   4.526   2.052 -3.1826  0.2691 -1.2869
  252TIP3    H222392   6.219   4.677   2.038  0.6665  0.5425  0.1945
  253TIP3   OH222393   2.521   6.789   1.027 -0.3387  0.0701 -0.2917
  253TIP3    H122394   2.504   6.830   0.942 -1.5750 -0.2863 -0.2359
  253TIP3    H222395   2.446   6.731   1.040 -1.3843  1.7921  2.0769
  254TIP3   OH222396   0.333   4.016   2.368 -0.5607 -0.5086 -0.3262
  254TIP3    H122397   0.359   3.925   2.380  1.0691 -0.0159  0.0199
  254TIP3    H222398   0.364   4.061   2.447  2.2570  1.0719 -2.1509
  255TIP3   OH222399   6.254   5.037   1.080 -0.0701  0.4046 -0.2095
  255TIP3    H122400   6.315   4.963   1.077 -1.1301 -0.4795 -1.5015
  255TIP3    H222401   6.306   5.110   1.112  1.0812 -0.8318  0.8923
  256TIP3   OH222402   0.993   4.426   7.175 -0.2748 -0.3040  0.2906
  256TIP3    H122403   0.959   4.355   7.120 -2.1467  0.3482  0.5379
  256TIP3    H222404   1.019   4.493   7.112 -2.1046  0.3086  0.1410
  257TIP3   OH222405   3.875   3.542   7.159  0.6206  0.2774 -0.0530
  257TIP3    H122406   3.786   3.535   7.192 -0.5517 -0.8664 -3.1447
  257TIP3    H222407   3.918   3.461   7.189 -0.7547 -1.2952 -2.0371
  258TIP3   OH222408   0.143   2.465   8.336 -0.2105  0.2218  0.3087
  258TIP3    H122409   0.176   2.555   8.334 -0.3531  0.2611 -0.2838
  258TIP3    H222410   0.092   2.460   8.417 -1.3174  1.0769 -0.3088
  259TIP3   OH222411   2.670   6.811   0.128 -0.0658  0.2102  0.4643
  259TIP3    H122412   2.721   6.844   0.202  0.4804 -0.8977  0.6090
  259TIP3    H222413   2.735   6.785   0.063 -0.5398  1.0628 -0.3667
  260TIP3   OH222414   4.631   1.953   8.473 -0.3795  0.3543 -0.3456
  260TIP3    H122415   4.712   1.915   8.508 -0.2705  0.5665 -0.3654
  260TIP3    H222416   4.565   1.885   8.486 -0.1257  0.0475 -0.6402
  261TIP3   OH222417   3.276   0.701   0.880  0.2557  0.2721  0.3315
  261TIP3    H122418   3.330   0.752   0.941 -0.4836 -0.1474  1.3835
  261TIP3    H222419   3.219   0.765   0.838  0.3390  0.5001  0.5618
  262TIP3   OH222420   6.762   3.267   1.442  0.3451 -0.3507 -0.2853
  262TIP3    H122421   6.784   3.248   1.351  1.3162 -0.4750 -0.0314
  262TIP3    H222422   6.684   3.213   1.459 -1.1498  1.2576 -1.6449
  263TIP3   OH222423   3.497   4.369   0.632 -0.6772  0.3419  0.0800
  263TIP3    H122424   3.558   4.308   0.674 -0.0046 -0.1632 -1.5642
  263TIP3    H222425   3.536   4.387   0.547 -2.3304  0.7993 -0.6194
  264TIP3   OH222426   5.291   4.587   7.376 -0.0477  0.2449  0.0680
  264TIP3    H122427   5.345   4.656   7.339 -0.1984  0.5045  0.3340
  264TIP3    H222428   5.219   4.576   7.313 -0.1306  0.4663  0.1251
  265TIP3   OH222429   2.349   3.671   1.814 -0.0170 -0.1755  0.0195
  265TIP3    H122430   2.343   3.636   1.725  1.5597  0.3082 -0.3093
  265TIP3    H222431   2.340   3.594   1.870 -0.0452 -0.6280 -0.5936
  266TIP3   OH222432   4.884   1.788   2.018  0.2048  0.5771 -0.0050
  266TIP3    H122433   4.861   1.781   2.110  2.5224  0.0259  0.6100
  266TIP3    H222434   4.972   1.825   2.017  0.3834  0.2637 -1.9720
  267TIP3   OH222435   4.708   1.382   8.740 -0.1058  0.1800 -0.2423
  267TIP3    H122436   4.643   1.388   8.810 -1.0908  0.1791 -1.1341
  267TIP3    H222437   4.669   1.321   8.677 -0.3058  1.9254 -1.8952
  268TIP3   OH222438   1.731   0.571   7.286 -0.3466  0.4954 -0.0168
  268TIP3    H122439   1.709   0.519   7.209  1.8664  0.1367 -0.4522
  268TIP3    H222440   1.762   0.507   7.350  0.7210  1.0936  0.0741
  269TIP3   OH222441   1.562   0.538   8.311 -0.2524 -0.1886  0.4446
  269TIP3    H122442   1.475   0.501   8.324 -0.2863 -0.1043  0.4549
  269TIP3    H222443   1.561   0.620   8.359 -0.3105  0.0198  0.0899
  270TIP3   OH222444   3.246   0.976   0.794 -0.5900 -0.5266 -0.4184
  270TIP3    H122445   3.289   0.990   0.878  0.2900  0.1390 -0.9644
  270TIP3    H222446   3.154   0.961   0.817 -0.2616 -0.9616  0.6923
  271TIP3   OH222447   3.036   0.527   0.072 -0.4181  0.0287 -0.0022
  271TIP3    H122448   3.033   0.596   0.005 -1.0501 -0.9580 -1.0245
  271TIP3    H222449   3.010   0.572   0.153 -0.2752  1.1050 -0.5330
  272TIP3   OH222450   3.754   1.828   2.206 -0.7366 -0.7017  0.0361
  272TIP3    H122451   3.839   1.787   2.225 -0.3598 -0.1109 -0.3230
  272TIP3    H222452   3.753   1.838   2.111 -0.0292  1.7182  0.2004
  273TIP3   OH222453   3.585   2.315   0.801  0.5202  0.1867  0.3177
  273TIP3    H122454   3.580   2.229   0.842 -0.3026 -0.1270 -0.4022
  273TIP3    H222455   3.678   2.337   0.802  0.8374 -1.0533 -0.1646
  274TIP3   OH222456   6.467   5.939   7.497  0.5058  0.0730  0.3712
  274TIP3    H122457   6.513   6.014   7.533  0.9855 -0.4167  0.8046
  274TIP3    H222458   6.535   5.886   7.456  0.4845 -1.0525  1.6876
  275TIP3   OH222459   2.479   0.794   8.565  0.4936  0.4212  0.2978
  275TIP3    H122460   2.568   0.789   8.532  0.6533  0.7978  0.6534
  275TIP3    H222461   2.485   0.850   8.642 -0.2515  1.5390 -0.4107
  276TIP3   OH222462   2.876   6.533   7.770  0.4274  0.4153  0.1938
  276TIP3    H122463   2.861   6.461   7.831  0.7381 -0.3035 -0.5526
  276TIP3    H222464   2.859   6.612   7.821 -1.9242 -0.2020  0.5140
  277TIP3   OH222465   1.988   2.860   0.475  0.5740  0.0747 -0.5166
  277TIP3    H122466   2.035   2.802   0.534  0.9420  0.5135 -0.3716
  277TIP3    H222467   1.931   2.912   0.532 -0.5187 -0.8367 -0.7425
  278TIP3   OH222468   4.895   6.178   7.984  0.0337  0.0792 -0.0843
  278TIP3    H122469   4.944   6.100   7.961 -0.6844 -0.1046 -1.0511
  278TIP3    H222470   4.804   6.157   7.961 -0.3516  0.7783  0.7187
  279TIP3   OH222471   4.087   1.909   8.575 -0.4387  0.2195  0.3108
  279TIP3    H122472   4.133   1.825   8.574 -1.5243 -0.4086 -1.1722
  279TIP3    H222473   4.154   1.974   8.551 -0.2039 -0.6443 -1.5732
  280TIP3   OH222474   5.526   1.685   8.246  0.1243  0.0185  0.1971
  280TIP3    H122475   5.450   1.655   8.197 -0.0758  2.7786 -1.3435
  280TIP3    H222476   5.497   1.765   8.290  1.7271  0.3198  0.7924
  281TIP3   OH222477   4.494   3.298   8.675  0.2323 -0.4267  0.4260
  281TIP3    H122478   4.551   3.345   8.615 -0.3443  0.0322  0.2337
  281TIP3    H222479   4.422   3.266   8.621  0.0986 -0.6597  0.7369
  282TIP3   OH222480   2.877   2.329   8.295 -0.0812  0.1732  0.6526
  282TIP3    H122481   2.801   2.347   8.239  1.0259  0.1779 -0.9377
  282TIP3    H222482   2.914   2.416   8.313  0.7040  0.0797 -0.3512
  283TIP3   OH222483   1.140   2.031   1.563 -0.0789 -0.6134  0.0175
  283TIP3    H122484   1.201   2.052   1.491 -0.4306  0.3275 -0.0255
  283TIP3    H222485   1.072   1.978   1.522  1.0568 -2.2897  0.2113
  284TIP3   OH222486   5.352   0.516   0.447 -0.2927  0.1532  0.8543
  284TIP3    H122487   5.333   0.493   0.538 -0.2138 -0.2454  0.7696
  284TIP3    H222488   5.376   0.609   0.451 -0.8491  0.2869  1.1587
  285TIP3   OH222489   5.511   1.654   8.585 -1.0275 -0.2449 -0.4603
  285TIP3    H122490   5.452   1.689   8.518  0.5415  1.9211 -0.8373
  285TIP3    H222491   5.478   1.566   8.603 -3.5193  0.3562 -1.6064
  286TIP3   OH222492   5.501   0.692   6.922  0.0071 -0.2747  1.0174
  286TIP3    H122493   5.558   0.636   6.869 -1.1805 -1.5148  1.0065
  286TIP3    H222494   5.528   0.676   7.012 -0.3412 -0.9008  1.0153
  287TIP3   OH222495   4.155   1.529   0.125 -0.2473 -0.1800 -0.6282
  287TIP3    H122496   4.230   1.541   0.184  0.1609 -0.2405 -1.1226
  287TIP3    H222497   4.090   1.482   0.177  0.6953 -1.5984 -0.6772
  288TIP3   OH222498   3.145   3.422   7.239 -0.0141 -0.8007  0.7224
  288TIP3    H122499   3.124   3.409   7.147  0.8646  0.0152  0.3835
  288TIP3    H222500   3.218   3.485   7.238  0.2852 -1.1012  1.9499
  289TIP3   OH222501   0.990   1.425   8.232 -0.1998  0.2596 -0.3660
  289TIP3    H122502   0.948   1.362   8.291  3.0965  0.1104  2.0807
  289TIP3    H222503   0.966   1.511   8.268  0.8731  0.1874  0.5825
  290TIP3   OH222504   2.824   3.161   7.374 -0.1860 -0.4988  0.9073
  290TIP3    H122505   2.913   3.125   7.373 -0.6438 -1.6646 -0.8683
  290TIP3    H222506   2.837   3.256   7.382  1.2752 -0.5521 -0.3690
  291TIP3   OH222507   6.382   3.518   7.986  0.0805 -0.0349  0.0257
  291TIP3    H122508   6.361   3.482   8.072 -0.8369 -0.4676 -0.3695
  291TIP3    H222509   6.453   3.464   7.954  0.8641  0.5272  0.7700
  292TIP3   OH222510   4.567   0.628   0.473  0.4873  1.2179  0.0258
  292TIP3    H122511   4.662   0.615   0.467  0.3180 -0.2396  0.1781
  292TIP3    H222512   4.544   0.598   0.561 -0.1558  1.2771 -0.1169
  293TIP3   OH222513   2.423   6.009   0.126 -0.8326 -0.0025  0.3156
  293TIP3    H122514   2.400   6.102   0.118 -0.1623  0.4218  2.5680
  293TIP3    H222515   2.517   6.009   0.145 -0.2505 -1.3330 -2.1310
  294TIP3   OH222516   3.387   1.106   0.597  0.4355 -0.9964  0.0005
  294TIP3    H122517   3.365   1.057   0.677  0.2776  0.7903  1.1184
  294TIP3    H222518   3.315   1.089   0.537 -1.1925  0.2146  1.4986
  295TIP3   OH222519   2.534   1.454   2.635  0.0410  0.2867  0.1004
  295TIP3    H122520   2.525   1.406   2.718  0.0904  0.8011  0.4113
  295TIP3    H222521   2.606   1.515   2.651  1.8529 -1.3820 -1.1879
  296TIP3   OH222522   3.209   1.107   8.682 -0.7506  0.1730  0.1722
  296TIP3    H122523   3.197   1.109   8.587 -0.2630  1.3131  0.1263
  296TIP3    H222524   3.303   1.118   8.696 -0.9560  1.3901  0.8047
  297TIP3   OH222525   4.550   1.158   2.852 -0.4130  0.1197  0.3703
  297TIP3    H122526   4.628   1.103   2.863 -1.2442 -1.3479 -0.6639
  297TIP3    H222527   4.492   1.132   2.925 -1.0512 -0.8688 -0.4582
  298TIP3   OH222528   1.244   6.090   1.767  0.1091  0.3479  0.7094
  298TIP3    H122529   1.301   6.022   1.731 -1.1292 -0.0571 -0.5551
  298TIP3    H222530   1.238   6.069   1.861 -1.3698 -2.2055  0.1362
  299TIP3   OH222531   2.205   0.453   2.098  0.4204 -0.1439 -0.1052
  299TIP3    H122532   2.246   0.428   2.180  1.4243 -0.1355 -0.5895
  299TIP3    H222533   2.259   0.526   2.066 -0.3751  0.3146 -0.4299
  300TIP3   OH222534   3.325   5.162   7.336 -0.1936  0.1426  0.3236
  300TIP3    H122535   3.237   5.147   7.371  0.1102  1.2072  1.6250
  300TIP3    H222536   3.312   5.168   7.242 -1.5302  0.2822  0.4908
  301TIP3   OH222537   4.847   1.051   8.809 -0.2452 -0.1725 -0.3100
  301TIP3    H122538   4.874   1.117   8.873  1.9294 -0.4569 -0.8717
  301TIP3    H222539   4.795   0.989   8.859  3.2196 -1.6145  1.8334
  302TIP3   OH222540   5.158   6.766   0.221 -0.2798 -0.2302 -0.0582
  302TIP3    H122541   5.184   6.713   0.296 -1.5247  3.4491  3.3298
  302TIP3    H222542   5.238   6.809   0.192 -0.1183 -0.0697  0.6113
  303TIP3   OH222543   1.074   0.242   2.160  0.0451  0.2914  0.7993
  303TIP3    H122544   1.150   0.187   2.182 -1.3981 -1.2269  2.2871
  303TIP3    H222545   1.074   0.246   2.065  0.7267 -1.6032  0.6679
  304TIP3   OH222546   1.460   3.809   0.082 -0.1566 -0.6475  0.3183
  304TIP3    H122547   1.392   3.744   0.101  0.5792 -1.1862  1.1943
  304TIP3    H222548   1.530   3.789   0.144  0.0466  1.0638  0.6774
  305TIP3   OH222549   5.243   0.276   8.287 -0.4121  0.4461 -0.0978
  305TIP3    H122550   5.307   0.243   8.223 -1.2442 -2.2281  0.3134
  305TIP3    H222551   5.158   0.264   8.244 -1.0266 -1.9085  1.6224
  306TIP3   OH222552   1.962   6.391   8.576  0.2558 -0.1847  0.2808
  306TIP3    H122553   1.963   6.454   8.504 -2.2354 -0.0154  0.3166
  306TIP3    H222554   2.022   6.321   8.548  0.9770  0.8918 -0.9587
  307TIP3   OH222555   2.715   2.825   0.595  0.2123 -0.4259  0.0509
  307TIP3    H122556   2.710   2.912   0.555 -1.5252 -0.7876 -0.6192
  307TIP3    H222557   2.750   2.842   0.683  0.0249  0.9299 -0.1023
  308TIP3   OH222558   1.996   3.516   7.456  0.3524 -0.5937  0.6816
  308TIP3    H122559   1.966   3.573   7.385  0.9315  0.6061  1.3652
  308TIP3    H222560   2.078   3.479   7.424  0.1845 -0.7187  0.3956
  309TIP3   OH222561   0.065   1.234   1.770 -0.0330  0.3191  0.4878
  309TIP3    H122562   0.085   1.325   1.788  0.2059 -0.0864  2.5205
  309TIP3    H222563  -0.002   1.237   1.701 -0.5456  2.0407  1.0186
  310TIP3   OH222564   2.035   5.428   0.132 -0.6101 -0.1789 -0.3565
  310TIP3    H122565   2.096   5.464   0.067 -0.3204 -1.4997 -0.8418
  310TIP3    H222566   1.973   5.376   0.080 -0.8068 -0.6633  0.3525
  311TIP3   OH222567   0.274   4.069   7.950  0.5574 -0.2926  0.3538
  311TIP3    H122568   0.220   3.993   7.929  1.2826 -0.8071  0.3136
  311TIP3    H222569   0.332   4.079   7.874  0.9069 -0.1007  0.6421
  312TIP3   OH222570   5.262   3.075   7.421  0.3232 -0.3126  0.6630
  312TIP3    H122571   5.304   3.100   7.503  0.2457  0.4950  0.4620
  312TIP3    H222572   5.297   2.988   7.401  0.7880 -0.2608  1.2437
  313TIP3   OH222573   1.522   5.035   7.861  0.4524 -0.0849  0.2570
  313TIP3    H122574   1.575   5.050   7.940  0.6902  0.6090 -0.0226
  313TIP3    H222575   1.571   5.078   7.791 -0.5263  0.6914  0.0141
  314TIP3   OH222576   2.720   3.867   0.094  0.0683  0.0619 -0.2079
  314TIP3    H122577   2.686   3.818   0.168  2.7509  1.2007  1.9509
  314TIP3    H222578   2.777   3.804   0.048  0.0287 -0.0728 -0.0717
  315TIP3   OH222579   4.222   4.691   0.046  0.3242 -0.0520 -0.7349
  315TIP3    H122580   4.210   4.776   0.087  1.8949  0.1599 -0.6531
  315TIP3    H222581   4.176   4.697  -0.038  0.0176  0.6994 -0.5158
  316TIP3   OH222582   3.950   3.938   8.813 -0.1553  0.7867 -0.2155
  316TIP3    H122583   3.911   3.936   8.900  1.2057 -0.8073  0.4013
  316TIP3    H222584   4.039   3.905   8.826  0.2452  1.0189 -2.1324
  317TIP3   OH222585   6.476   1.107   8.626 -0.0658 -0.6122  0.3348
  317TIP3    H122586   6.547   1.044   8.630  1.0862  0.6440  0.4808
  317TIP3    H222587   6.457   1.129   8.717  0.5516  0.3141  0.2557
  318TIP3   OH222588   2.476   2.713   2.226 -0.9439 -0.7082 -0.2217
  318TIP3    H122589   2.531   2.663   2.285 -0.9427 -0.2197  0.2001
  318TIP3    H222590   2.467   2.799   2.268 -0.2568 -0.0749 -1.3238
  319TIP3   OH222591   6.649   4.509   8.826  0.0389  0.8273 -0.2957
  319TIP3    H122592   6.615   4.580   8.772 -0.1029 -0.1432 -1.5300
  319TIP3    H222593   6.594   4.434   8.805  0.0918  0.3779  1.0888
  320TIP3   OH222594   4.177   4.975   2.063 -0.3570  0.1647  0.6670
  320TIP3    H122595   4.249   5.039   2.065 -0.7097  0.5676  2.4138
  320TIP3    H222596   4.104   5.024   2.025 -0.8600  1.1337  2.7397
  321TIP3   OH222597   4.550   2.234   1.805  0.2012  0.0348  0.7881
  321TIP3    H122598   4.515   2.297   1.867  1.3045  3.0048 -1.4042
  321TIP3    H222599   4.486   2.162   1.805 -1.5296  1.4570  2.8280
  322TIP3   OH222600   0.635   2.656   8.368  0.2135 -0.0361  0.1351
  322TIP3    H122601   0.542   2.656   8.391  0.3323 -0.7556  0.6240
  322TIP3    H222602   0.641   2.596   8.293  0.2587  0.1478 -0.0093
  323TIP3   OH222603   5.974   6.274   0.633  0.4370 -0.0891 -0.0497
  323TIP3    H122604   5.961   6.230   0.549  0.7045  0.7996 -0.5720
  323TIP3    H222605   5.888   6.269   0.676  0.5720 -1.4914  0.1089
  324TIP3   OH222606   3.886   1.797   0.657 -0.1591  1.1248  0.1152
  324TIP3    H122607   3.897   1.863   0.725 -0.3337  0.3894  0.8650
  324TIP3    H222608   3.866   1.716   0.704  2.2663 -0.0164 -0.6353
  325TIP3   OH222609   4.533   1.904   7.712 -0.0187 -0.3843  0.1592
  325TIP3    H122610   4.569   1.990   7.730 -2.1062  0.4723  0.5454
  325TIP3    H222611   4.463   1.893   7.776 -1.0338 -1.5418 -1.0719
  326TIP3   OH222612   5.813   4.798   7.357  0.2513 -0.5294 -0.5681
  326TIP3    H122613   5.775   4.756   7.280  3.0816 -2.0984 -1.2668
  326TIP3    H222614   5.779   4.747   7.431  1.9851 -2.8462 -1.2709
  327TIP3   OH222615   4.540   2.667   7.476  0.6211 -0.1205 -0.6744
  327TIP3    H122616   4.548   2.575   7.450 -1.2976 -0.4523 -0.2156
  327TIP3    H222617   4.608   2.712   7.425  0.8356 -1.6156 -1.7770
  328TIP3   OH222618   0.377   3.144   8.226 -0.3761 -0.5460  0.1741
  328TIP3    H122619   0.318   3.219   8.219  0.0684 -0.3307 -2.5570
  328TIP3    H222620   0.460   3.181   8.256 -0.7601 -0.3226  0.9654
  329TIP3   OH222621   0.517   0.523   8.036 -0.5263 -0.1227 -0.2257
  329TIP3    H122622   0.531   0.429   8.030 -1.5127 -0.2109 -1.8584
  329TIP3    H222623   0.537   0.556   7.948 -0.9886  1.0707  0.0879
  330TIP3   OH222624   2.678   0.377   0.801  0.4287  0.6443 -0.2498
  330TIP3    H122625   2.651   0.338   0.884  0.3841  0.5744 -0.2975
  330TIP3    H222626   2.773   0.386   0.810  0.4519  0.4387 -0.2745
  331TIP3   OH222627   0.592   6.302   1.676  0.2577 -1.1060 -0.0389
  331TIP3    H122628   0.509   6.328   1.636  0.9571  0.1122 -0.7505
  331TIP3    H222629   0.659   6.347   1.624  1.2605 -0.4158  1.7509
  332TIP3   OH222630   5.612   5.960   1.215  0.4973  0.3513 -0.1757
  332TIP3    H122631   5.608   5.865   1.212  0.8826  0.3525 -1.2743
  332TIP3    H222632   5.642   5.980   1.304 -0.1719 -0.5110  0.2647
  333TIP3   OH222633   5.192   4.378   0.469  0.0416  0.6291  0.2378
  333TIP3    H122634   5.144   4.390   0.387 -1.4985  0.6639  1.1002
  333TIP3    H222635   5.265   4.439   0.464 -0.5936  1.3332 -0.6981
  334TIP3   OH222636   6.029   4.561   0.117 -0.3259  0.0833 -0.1192
  334TIP3    H122637   6.019   4.642   0.166  0.3449  1.0099 -1.4576
  334TIP3    H222638   6.006   4.584   0.027  0.3241 -1.0912 -0.6133
  335TIP3   OH222639   4.581   4.759   2.521 -0.2813 -0.5203  0.2517
  335TIP3    H122640   4.495   4.799   2.531 -0.2630 -0.9462  2.8608
  335TIP3    H222641   4.584   4.691   2.588  1.8454 -0.9848 -0.2293
  336TIP3   OH222642   2.764   1.246   0.681  0.2775  0.5670 -0.0007
  336TIP3    H122643   2.712   1.296   0.744 -0.2944 -0.7746  0.6178
  336TIP3    H222644   2.720   1.161   0.675  1.1700  0.1597 -1.1030
  337TIP3   OH222645   0.985   0.166   7.642 -0.0640  0.1975 -0.4741
  337TIP3    H122646   1.051   0.102   7.667 -2.0320 -1.4404  0.8121
  337TIP3    H222647   1.015   0.248   7.682  0.4698 -0.8356  1.3683
  338TIP3   OH222648   3.120   1.039   3.062 -0.2387 -0.0174  0.0678
  338TIP3    H122649   3.103   0.978   3.134 -0.2240  1.2311  1.1762
  338TIP3    H222650   3.070   1.117   3.085  1.0357  0.9808 -0.4603
  339TIP3   OH222651   5.258   6.047   7.818  0.0330 -0.4974  0.4639
  339TIP3    H122652   5.274   6.120   7.758  0.8309 -0.4961  0.6664
  339TIP3    H222653   5.339   5.997   7.817 -0.7232 -1.7702 -0.1743
  340TIP3   OH222654   5.994   0.208   8.524  0.6070  0.3136 -0.6558
  340TIP3    H122655   5.928   0.165   8.578  0.3174  0.0584 -1.2055
  340TIP3    H222656   5.966   0.191   8.434  1.4890  0.0805 -0.8979
  341TIP3   OH222657   0.764   1.981   1.574  0.0439  0.1559  0.1480
  341TIP3    H122658   0.806   2.033   1.505 -1.0511  0.8232 -0.0357
  341TIP3    H222659   0.837   1.938   1.619  0.8573  0.6015 -0.7018
  342TIP3   OH222660   5.126   3.788   2.636  0.6820  0.2504  0.0236
  342TIP3    H122661   5.054   3.727   2.654 -1.6166  1.6966 -3.2729
  342TIP3    H222662   5.101   3.869   2.680  0.0657  0.8368 -1.3425
  343TIP3   OH222663   0.754   0.339   0.290  0.0044  0.9014  0.0187
  343TIP3    H122664   0.681   0.359   0.348 -1.6079 -1.1253 -1.1495
  343TIP3    H222665   0.832   0.348   0.345 -1.2184  1.7160  1.7113
  344TIP3   OH222666   2.688   5.673   8.219  0.5027  0.2055 -0.1349
  344TIP3    H122667   2.731   5.589   8.233 -1.5094 -0.8155  0.2719
  344TIP3    H222668   2.621   5.677   8.287 -0.3999  1.4894 -1.0560
  345TIP3   OH222669   4.961   2.354   2.293 -0.2955 -0.1746  0.0262
  345TIP3    H122670   4.979   2.286   2.228  2.0034  0.4143 -0.0249
  345TIP3    H222671   4.880   2.395   2.264 -0.4500 -1.3395 -1.2517
  346TIP3   OH222672   4.861   5.303   1.496  0.2121  0.1418 -0.0756
  346TIP3    H122673   4.928   5.291   1.563  1.4100 -1.7288 -1.5264
  346TIP3    H222674   4.904   5.355   1.428 -0.0655 -0.4022 -0.6709
  347TIP3   OH222675   2.321   6.682   8.530  0.1842 -0.1161  0.0825
  347TIP3    H122676   2.320   6.754   8.593  2.1628 -0.8071  1.0090
  347TIP3    H222677   2.249   6.626   8.557  1.4313 -0.7754  2.3015
  348TIP3   OH222678   2.317   0.471   0.728  0.0704 -0.2014  0.3301
  348TIP3    H122679   2.370   0.503   0.801 -1.7894  0.8964  1.2481
  348TIP3    H222680   2.357   0.512   0.651  0.6374  0.5053  0.9782
  349TIP3   OH222681   4.926   0.073   1.193  0.0143 -0.5705  0.2043
  349TIP3    H122682   5.004   0.104   1.146  0.8381 -0.5084  1.5464
  349TIP3    H222683   4.855   0.128   1.161  0.6199 -0.2680 -0.6643
  350TIP3   OH222684   5.884   5.744   7.311  0.1574  0.3305 -0.3474
  350TIP3    H122685   5.839   5.825   7.334 -1.3005 -0.1076 -1.5141
  350TIP3    H222686   5.904   5.754   7.218  0.0999 -0.5687 -0.4605
  351TIP3   OH222687   0.302   4.998   1.089 -0.2503  0.1970  0.2229
  351TIP3    H122688   0.256   4.916   1.076 -0.3664  0.0779  1.3240
  351TIP3    H222689   0.323   5.000   1.182 -0.2031  1.3895  0.2078
  352TIP3   OH222690   3.263   0.420   0.993  0.2396 -0.2186  0.7241
  352TIP3    H122691   3.257   0.497   0.936  0.0718 -1.0686 -0.4344
  352TIP3    H222692   3.254   0.455   1.082  0.0899  1.0868  0.2097
  353TIP3   OH222693   5.997   3.328   8.116  0.2381 -0.5304  0.2688
  353TIP3    H122694   5.998   3.422   8.134 -1.6109 -0.9191  2.8790
  353TIP3    H222695   6.086   3.308   8.086  0.4743  2.1241 -1.0362
  354TIP3   OH222696   3.138   4.370   0.329 -0.0824 -1.0494  0.4843
  354TIP3    H122697   3.058   4.391   0.280  0.8173  2.3737  0.2416
  354TIP3    H222698   3.128   4.415   0.412  1.7611 -0.1659  0.2734
  355TIP3   OH222699   1.767   4.295   7.617 -0.3875 -0.0105 -0.2879
  355TIP3    H122700   1.682   4.335   7.637 -0.8785 -1.2698  0.2350
  355TIP3    H222701   1.760   4.270   7.525  0.2544  1.8460 -0.8878
  356TIP3   OH222702   2.805   6.733   1.033  0.1908  0.1747 -0.6777
  356TIP3    H122703   2.769   6.647   1.013 -0.3068  0.0497  0.6754
  356TIP3    H222704   2.728   6.786   1.057  0.8138 -0.0931  2.2758
  357TIP3   OH222705   5.520   3.379   2.806 -0.0320  0.9746  0.1455
  357TIP3    H122706   5.444   3.322   2.810  0.5855  0.1210  0.0562
  357TIP3    H222707   5.517   3.430   2.887  0.0079  0.0124  0.7712
  358TIP3   OH222708   1.894   3.194   8.091 -0.1413  0.1617 -0.4472
  358TIP3    H122709   1.908   3.182   7.998  0.6853  1.1778 -0.4788
  358TIP3    H222710   1.975   3.236   8.122 -0.6311  0.3578  0.6109
  359TIP3   OH222711   0.973   6.326   1.247  0.3986  0.2378  0.0909
  359TIP3    H122712   1.026   6.391   1.293 -0.9962  0.9097  0.8227
  359TIP3    H222713   0.943   6.370   1.168  1.6122 -0.4371 -0.7771
  360TIP3   OH222714   1.679   1.607   1.488 -0.0492 -0.2100 -0.0341
  360TIP3    H122715   1.680   1.554   1.408 -0.9549 -1.2503  0.6099
  360TIP3    H222716   1.760   1.582   1.533 -0.6715 -1.4015  0.4655
  361TIP3   OH222717   2.608   2.684   1.230  0.2962  0.9486 -0.1458
  361TIP3    H122718   2.661   2.614   1.268  0.7943  1.2805 -0.2192
  361TIP3    H222719   2.518   2.655   1.242  0.4931  0.3641 -0.0412
  362TIP3   OH222720   6.441   0.258   1.562 -0.5852  0.7807  0.5316
  362TIP3    H122721   6.347   0.279   1.567 -0.7259  0.3142 -0.0261
  362TIP3    H222722   6.453   0.226   1.473 -0.1186 -0.2027  0.9351
  363TIP3   OH222723   0.451   4.567   1.990 -0.4274 -0.0202 -0.7792
  363TIP3    H122724   0.387   4.580   2.061 -0.8340  1.6798 -1.4130
  363TIP3    H222725   0.434   4.478   1.959  0.0603 -1.0016  1.5218
  364TIP3   OH222726   2.725   0.404   6.899  0.1778  0.0256 -0.2806
  364TIP3    H122727   2.657   0.448   6.848  0.1415 -1.3721 -1.4982
  364TIP3    H222728   2.807   0.444   6.869  0.1081 -0.3408 -0.9732
  365TIP3   OH222729   5.390   0.522   0.151  0.0186  0.2992  0.0578
  365TIP3    H122730   5.315   0.522   0.092 -0.4966  0.6572  0.6977
  365TIP3    H222731   5.357   0.482   0.231  0.5399  0.3677  0.3085
  366TIP3   OH222732   6.140   1.533   7.739 -0.1120  0.1585 -0.0382
  366TIP3    H122733   6.053   1.547   7.775 -0.3726 -0.7267 -0.3143
  366TIP3    H222734   6.126   1.513   7.647  0.5288  2.0024 -0.5832
  367TIP3   OH222735   6.452   1.125   1.412  0.3318 -0.6745  0.0676
  367TIP3    H122736   6.424   1.063   1.480  1.3139 -0.4047  0.7366
  367TIP3    H222737   6.517   1.077   1.361  1.7869  0.0602  1.1541
  368TIP3   OH222738   3.753   4.473   7.720  0.0152  0.1749 -0.5410
  368TIP3    H122739   3.840   4.513   7.717  0.5427 -0.6458  1.6528
  368TIP3    H222740   3.758   4.400   7.658  1.0857 -0.1859 -0.0636
  369TIP3   OH222741   4.538   5.808   8.044 -0.2016 -0.5882  0.0361
  369TIP3    H122742   4.476   5.833   7.975  0.7516 -1.0944 -1.0532
  369TIP3    H222743   4.500   5.841   8.125  0.0358  2.6978 -1.0447
  370TIP3   OH222744   2.457   5.305   1.123 -0.1739 -0.2744 -0.6521
  370TIP3    H122745   2.475   5.373   1.187 -2.6912  0.2790 -0.4187
  370TIP3    H222746   2.491   5.224   1.162  0.4964  0.4365  0.2616
  371TIP3   OH222747   4.222   5.189   0.905  0.2794  0.3431  0.1174
  371TIP3    H122748   4.270   5.215   0.984 -1.3415  0.6099  1.0571
  371TIP3    H222749   4.136   5.228   0.916 -1.1813 -2.5963 -0.0187
  372TIP3   OH222750   2.830   3.266   7.934 -0.0220 -0.0494  0.0808
  372TIP3    H122751   2.881   3.235   8.009  2.3745  0.6739 -1.1619
  372TIP3    H222752   2.812   3.188   7.883 -1.2323 -0.4738  1.1067
  373TIP3   OH222753   4.041   2.797   2.633  0.1937 -0.1803 -0.0445
  373TIP3    H122754   3.954   2.825   2.663 -0.1590 -1.8840  0.6026
  373TIP3    H222755   4.024   2.752   2.550  0.7008  0.9795 -0.8153
  374TIP3   OH222756   6.582   2.887   8.166 -0.3439  0.3227  0.1221
  374TIP3    H122757   6.560   2.972   8.128 -0.5175 -0.3535 -1.3891
  374TIP3    H222758   6.610   2.834   8.091  1.5886 -0.3970  1.2868
  375TIP3   OH222759   0.865   1.777   2.323  0.0959 -0.1474  0.1372
  375TIP3    H122760   0.885   1.779   2.229  0.4763 -0.8408  0.1985
  375TIP3    H222761   0.928   1.839   2.361 -0.1164  0.2016 -0.0691
  376TIP3   OH222762   0.352   6.230   8.522 -0.4185 -0.5474 -0.2392
  376TIP3    H122763   0.399   6.245   8.440 -0.7989 -0.6715 -0.4835
  376TIP3    H222764   0.407   6.271   8.589 -0.7987  0.8181 -0.7251
  377TIP3   OH222765   4.013   1.111   1.350  0.1811  0.8073 -0.2480
  377TIP3    H122766   4.060   1.031   1.373 -1.1678  0.7131  2.7930
  377TIP3    H222767   3.922   1.083   1.338  0.1654  1.5170 -2.1876
  378TIP3   OH222768   5.909   1.425   0.691  0.2202  0.5003 -0.2517
  378TIP3    H122769   5.869   1.468   0.616 -0.5423 -0.9578 -0.7283
  378TIP3    H222770   5.844   1.434   0.761  0.2562  0.5177 -0.2206
  379TIP3   OH222771   2.032   0.817   1.152  0.4496 -0.0999 -0.6845
  379TIP3    H122772   2.060   0.802   1.242 -1.6230  0.3312  0.0978
  379TIP3    H222773   1.949   0.865   1.161  1.1919  1.7779 -2.8562
  380TIP3   OH222774   6.410   4.926   7.902  0.3713 -0.2483  0.0768
  380TIP3    H122775   6.339   4.977   7.864  0.8021 -0.4890 -1.1149
  380TIP3    H222776   6.372   4.840   7.920  0.6759 -0.8399 -1.8977
  381TIP3   OH222777   2.994   2.419   1.792 -0.4445 -0.2689 -0.4743
  381TIP3    H122778   2.931   2.347   1.783 -1.8104  0.8303 -0.0528
  381TIP3    H222779   2.957   2.489   1.738  0.1045  0.6123  0.2712
  382TIP3   OH222780   2.442   1.071   1.173 -0.2008 -0.4758  0.1451
  382TIP3    H122781   2.380   1.011   1.131  0.2827 -0.1888 -1.0343
  382TIP3    H222782   2.389   1.145   1.202 -0.3308  0.1929 -1.6633
  383TIP3   OH222783   4.369   1.564   1.713 -0.0011  0.1966  0.1925
  383TIP3    H122784   4.446   1.554   1.657 -0.7775  2.5209 -1.4311
  383TIP3    H222785   4.333   1.649   1.690 -2.1431 -0.0885  2.0981
  384TIP3   OH222786   1.259   5.195   1.602  0.2978  0.3398 -0.4720
  384TIP3    H122787   1.223   5.246   1.530 -1.6611 -1.4144 -0.8250
  384TIP3    H222788   1.183   5.168   1.653  1.3022 -1.6219  0.0967
  385TIP3   OH222789   0.038   4.708   3.075  0.6159  0.0974 -0.1382
  385TIP3    H122790   0.047   4.795   3.112 -0.4108 -1.0751  3.1522
  385TIP3    H222791  -0.052   4.703   3.044  0.6455  0.1409 -0.2327
  386TIP3   OH222792   0.788   4.430   8.130  0.4653 -0.3704 -0.4804
  386TIP3    H122793   0.731   4.353   8.131 -0.4556  0.2613  1.5608
  386TIP3    H222794   0.858   4.407   8.069 -1.3361 -1.6353 -2.2171
  387TIP3   OH222795   3.508   4.020   1.228 -0.0679  0.1978  0.0252
  387TIP3    H122796   3.603   4.022   1.238 -0.0178 -1.2090  0.0107
  387TIP3    H222797   3.484   4.111   1.212  1.1641  0.7147  0.9459
  388TIP3   OH222798   1.064   4.720   0.847  0.8373 -0.4167  0.2775
  388TIP3    H122799   1.078   4.677   0.763  1.0776  0.5101 -0.1683
  388TIP3    H222800   1.149   4.757   0.870  0.4744  0.4292  0.2937
  389TIP3   OH222801   3.578   2.852   0.586  0.4593  0.9039 -0.7943
  389TIP3    H122802   3.526   2.871   0.664  1.0935  0.6983 -0.3164
  389TIP3    H222803   3.532   2.779   0.544  0.4838  0.5737 -0.2597
  390TIP3   OH222804   2.218   1.914   8.806  0.1426 -0.6431  0.5231
  390TIP3    H122805   2.181   2.001   8.824 -0.0097 -0.6584  0.2839
  390TIP3    H222806   2.142   1.856   8.802  0.1496 -0.5968 -0.4318
  391TIP3   OH222807   2.534   0.152   2.643  0.3864  0.0068  0.1662
  391TIP3    H122808   2.523   0.205   2.723  0.0273  1.2425 -0.6707
  391TIP3    H222809   2.462   0.181   2.586 -0.0450 -1.6797 -0.1852
  392TIP3   OH222810   6.103   4.510   2.333 -0.2074 -0.0618 -0.0986
  392TIP3    H122811   6.080   4.585   2.388 -1.4692  0.1362 -0.8474
  392TIP3    H222812   6.149   4.549   2.258 -0.5562 -0.0665 -0.3179
  393TIP3   OH222813   6.171   3.222   7.515  0.4754 -0.0642 -0.1439
  393TIP3    H122814   6.113   3.197   7.442  0.4519  2.1333 -0.9325
  393TIP3    H222815   6.252   3.251   7.472  0.6467  0.7794  0.7321
  394TIP3   OH222816   1.806   3.377   1.591  0.0611 -0.4505  0.7088
  394TIP3    H122817   1.739   3.414   1.650 -0.3067 -0.6564  0.4257
  394TIP3    H222818   1.861   3.452   1.568 -2.5914  0.7729 -2.4943
  395TIP3   OH222819   1.437   2.014   1.629 -0.3360  0.3641 -0.2324
  395TIP3    H122820   1.349   2.034   1.662 -0.1244 -0.0126  0.5847
  395TIP3    H222821   1.434   1.920   1.609 -0.6965  0.7189 -2.0714
  396TIP3   OH222822   4.683   4.196   6.786  0.6605 -0.7758  0.1106
  396TIP3    H122823   4.712   4.106   6.775 -0.2002 -1.1983  1.2260
  396TIP3    H222824   4.677   4.209   6.880 -1.4643 -0.3020 -0.0475
  397TIP3   OH222825   4.487   0.153   2.234 -0.1192  0.2800 -0.0869
  397TIP3    H122826   4.569   0.162   2.186 -1.3437 -2.8756 -3.1999
  397TIP3    H222827   4.420   0.184   2.173 -1.4824 -0.3129  1.0607
  398TIP3   OH222828   0.728   4.217   7.731 -0.0913  0.4137 -0.5229
  398TIP3    H122829   0.786   4.152   7.772 -0.4024  0.7217  0.4481
  398TIP3    H222830   0.702   4.178   7.648  0.6147 -0.2134 -0.4560
  399TIP3   OH222831   4.836   2.911   0.280  0.2775  0.2449  0.1115
  399TIP3    H122832   4.776   2.985   0.276 -0.4185 -0.3578 -1.8047
  399TIP3    H222833   4.923   2.952   0.290 -0.1569  1.3011 -0.2237
  400TIP3   OH222834   3.004   4.535   7.377 -0.6831 -0.0374 -0.2963
  400TIP3    H122835   2.938   4.598   7.349  0.5985  0.7336 -1.6978
  400TIP3    H222836   2.961   4.485   7.447 -2.2451  1.3526 -0.2099
  401TIP3   OH222837   3.593   4.673   7.523 -0.2968  0.1577 -0.0154
  401TIP3    H122838   3.654   4.613   7.565 -1.8319 -1.0258  0.6244
  401TIP3    H222839   3.571   4.632   7.440 -0.7475  0.2279  0.0661
  402TIP3   OH222840   4.223   0.869   0.698  0.1676  0.3294 -0.2914
  402TIP3    H122841   4.248   0.950   0.743 -3.7090  1.0828  0.8507
  402TIP3    H222842   4.218   0.804   0.768  0.5804 -0.2401 -0.7783
  403TIP3   OH222843   0.379   6.508   8.134  0.3062 -0.0552 -0.2460
  403TIP3    H122844   0.302   6.565   8.130  0.5966  0.6277  2.3982
  403TIP3    H222845   0.440   6.548   8.072 -0.8593  0.2741 -1.2413
  404TIP3   OH222846   0.258   5.349   7.893 -0.6542  0.2009  0.1171
  404TIP3    H122847   0.323   5.311   7.952 -0.4482  0.8580  0.3181
  404TIP3    H222848   0.227   5.275   7.841 -0.5417 -0.3114  0.7648
  405TIP3   OH222849   0.203   4.141   0.271 -0.6229  0.4390 -0.2861
  405TIP3    H122850   0.253   4.101   0.199 -1.1053 -1.1610  0.2219
  405TIP3    H222851   0.269   4.163   0.336 -0.4023 -0.3016 -0.2419
  406TIP3   OH222852   4.891   5.138   7.740  0.2089 -0.1876 -0.0596
  406TIP3    H122853   4.965   5.080   7.757  1.2411  0.7458 -1.1213
  406TIP3    H222854   4.834   5.088   7.681  0.9079 -0.2725 -0.6806
  407TIP3   OH222855   0.175   2.263   7.605  0.0969  0.3637  0.6715
  407TIP3    H122856   0.246   2.299   7.551 -0.1380 -0.0614  0.0695
  407TIP3    H222857   0.120   2.216   7.543 -0.5628  0.4561  1.1832
  408TIP3   OH222858   6.283   2.554   8.617  0.1599 -0.3983  0.0615
  408TIP3    H122859   6.252   2.587   8.702  1.4767 -0.0098  0.4164
  408TIP3    H222860   6.342   2.482   8.640  1.3547  0.3842 -0.4501
  409TIP3   OH222861   5.824   2.155   1.917  0.3719  1.1513  0.5308
  409TIP3    H122862   5.875   2.140   1.997  1.4193 -0.0334 -0.3074
  409TIP3    H222863   5.786   2.242   1.928 -1.1672  0.2662  3.1838
  410TIP3   OH222864   3.880   3.039   8.097  1.0890 -0.2302  0.2301
  410TIP3    H122865   3.836   3.110   8.143 -1.2463 -1.6767  0.3843
  410TIP3    H222866   3.954   3.015   8.154 -0.2180 -0.2857  1.9638
  411TIP3   OH222867   0.982   6.774   1.400 -0.2189  0.2205 -0.2810
  411TIP3    H122868   0.886   6.777   1.405 -0.2108  0.0657  0.0343
  411TIP3    H222869   1.003   6.681   1.401 -0.0203  0.2522  0.9175
  412TIP3   OH222870   1.625   3.970   1.470  0.3207 -0.0379 -0.2891
  412TIP3    H122871   1.616   4.011   1.557 -0.2082 -2.0893  0.6897
  412TIP3    H222872   1.564   4.019   1.415 -1.8896 -0.7378  1.3484
  413TIP3   OH222873   3.703   4.634   1.359  0.4581  0.8852 -0.0996
  413TIP3    H122874   3.693   4.637   1.264  0.2564  1.7468 -0.0581
  413TIP3    H222875   3.661   4.714   1.391 -2.3338 -0.8261  0.9877
  414TIP3   OH222876   2.584   5.493   0.203  0.0528 -0.0524  0.6056
  414TIP3    H122877   2.559   5.422   0.143  0.9846 -0.0576  0.2160
  414TIP3    H222878   2.502   5.515   0.248 -0.6573 -0.0748 -0.6206
  415TIP3   OH222879   6.255   5.532   1.331  0.2170 -0.3041  0.2839
  415TIP3    H122880   6.247   5.488   1.246  1.3643 -0.3485  0.1830
  415TIP3    H222881   6.266   5.460   1.393 -3.9336 -0.5358  1.0149
  416TIP3   OH222882   4.645   0.502   1.908  0.0523 -0.1708 -0.2371
  416TIP3    H122883   4.559   0.474   1.877 -0.0986  0.3349 -0.2977
  416TIP3    H222884   4.708   0.450   1.859 -0.0392  2.6207 -3.6544
  417TIP3   OH222885   5.439   2.843   1.189  0.0079 -0.1344  0.4774
  417TIP3    H122886   5.395   2.800   1.262  0.5204 -0.9668  0.3037
  417TIP3    H222887   5.483   2.918   1.230  0.1689 -0.5081  1.0016
  418TIP3   OH222888   4.886   2.333   1.112 -0.6086 -0.3339  0.3027
  418TIP3    H122889   4.850   2.346   1.024  0.1397  0.7163  0.1320
  418TIP3    H222890   4.825   2.272   1.154 -1.4763 -0.1449 -0.6349
  419TIP3   OH222891   1.770   1.869   1.767 -0.3036  0.2954 -0.0194
  419TIP3    H122892   1.772   1.782   1.809 -0.4056  0.7080  0.8708
  419TIP3    H222893   1.849   1.871   1.713 -0.1465 -0.2420  0.1783
  420TIP3   OH222894   5.554   2.670   1.862  0.2650  0.0966  0.0467
  420TIP3    H122895   5.631   2.726   1.853 -0.0200  0.4872  0.0294
  420TIP3    H222896   5.557   2.613   1.786 -0.2352  1.0670 -0.7243
  421TIP3   OH222897   4.492   1.500   0.081  0.0994 -0.1238  0.3014
  421TIP3    H122898   4.477   1.549   0.001  0.7164  1.2260  0.9739
  421TIP3    H222899   4.410   1.505   0.129 -0.1679 -0.6585 -0.0923
  422TIP3   OH222900   0.616   5.182   0.628 -0.1180 -0.2300 -0.2729
  422TIP3    H122901   0.531   5.213   0.662 -1.0900 -0.9924 -1.8646
  422TIP3    H222902   0.673   5.258   0.634 -0.9519  0.3374  0.7558
  423TIP3   OH222903   4.894   2.567   6.996 -0.5635  0.0871  0.6037
  423TIP3    H122904   4.902   2.662   7.007 -1.4056  0.2147  0.2549
  423TIP3    H222905   4.973   2.542   6.948  0.0217  0.4933  1.3376
  424TIP3   OH222906   4.922   0.589   8.126  0.1688  0.2605  0.6743
  424TIP3    H122907   4.881   0.590   8.212 -0.6825  1.0329  0.2768
  424TIP3    H222908   4.872   0.653   8.075  2.2769  1.7494  0.3478
  425TIP3   OH222909   3.987   1.834   0.185 -0.4432  0.2802  0.0881
  425TIP3    H122910   3.961   1.796   0.101  2.8851 -1.4349 -0.3338
  425TIP3    H222911   3.919   1.806   0.246 -0.3706 -2.8648 -1.0884
  426TIP3   OH222912   0.863   6.242   7.960 -0.7041  0.5656  0.3872
  426TIP3    H122913   0.946   6.250   7.914 -0.1634  0.2908  1.2925
  426TIP3    H222914   0.827   6.158   7.931  0.5524 -0.5464  1.8619
  427TIP3   OH222915   6.038   5.205   0.404  0.5221  0.2852 -0.2212
  427TIP3    H122916   6.123   5.165   0.390  1.1912  2.1785 -1.9827
  427TIP3    H222917   6.009   5.171   0.489  3.1150 -0.2291  0.5352
  428TIP3   OH222918   3.043   0.523   8.198  0.5148 -0.0114  0.3495
  428TIP3    H122919   3.123   0.476   8.220  0.3521 -0.0570  0.8563
  428TIP3    H222920   3.067   0.578   8.123  1.0198 -0.0202  0.5015
  429TIP3   OH222921   1.009   0.626   7.841 -0.3626 -0.0925 -0.4304
  429TIP3    H122922   0.976   0.601   7.754  0.0374  1.0673 -0.9275
  429TIP3    H222923   1.016   0.721   7.838  1.4176 -0.1627  0.2306
  430TIP3   OH222924   0.412   4.362   2.425 -0.5067  0.0759  0.1235
  430TIP3    H122925   0.403   4.457   2.421 -3.1413 -0.1228 -0.1537
  430TIP3    H222926   0.350   4.335   2.492  1.0804 -1.4053  1.0888
  431TIP3   OH222927   2.405   5.920   1.295  0.0105  0.3093 -0.0610
  431TIP3    H122928   2.429   5.947   1.384  2.3653 -0.8203 -0.2624
  431TIP3    H222929   2.487   5.925   1.246 -0.9217 -0.5531 -1.7970
  432TIP3   OH222930   5.959   2.121   1.690  0.0149 -0.3477 -0.2103
  432TIP3    H122931   5.980   2.214   1.684 -0.7163 -0.2414 -1.4313
  432TIP3    H222932   5.931   2.109   1.781  1.1349  0.3861  0.2530
  433TIP3   OH222933   0.035   5.988   8.176 -0.3065 -0.0220 -0.1189
  433TIP3    H122934   0.012   5.898   8.198  2.4495 -1.2688 -1.6631
  433TIP3    H222935   0.075   6.023   8.255 -1.8648  0.0821  0.6543
  434TIP3   OH222936   6.323   6.671   2.105  0.8418  0.1435  0.1160
  434TIP3    H122937   6.393   6.608   2.091 -0.4301 -0.9729 -1.6945
  434TIP3    H222938   6.249   6.636   2.056  0.1488  3.2067 -1.2876
  435TIP3   OH222939   5.329   2.732   0.572  0.1263  0.0953  0.0568
  435TIP3    H122940   5.379   2.699   0.497  0.3037  1.8899 -0.6714
  435TIP3    H222941   5.394   2.745   0.641  0.2062 -0.1807  0.0332
  436TIP3   OH222942   3.416   3.721   0.494  0.1640 -0.3616  0.2777
  436TIP3    H122943   3.348   3.657   0.513 -0.3486  0.3697  0.9770
  436TIP3    H222944   3.482   3.672   0.444 -0.3800 -1.3363  0.4883
  437TIP3   OH222945   6.800   1.143   2.951 -0.2317  0.6096 -0.4033
  437TIP3    H122946   6.883   1.100   2.973  0.6471  0.8721 -2.9282
  437TIP3    H222947   6.799   1.222   3.005  0.3759 -0.1920  0.8285
  438TIP3   OH222948   6.390   3.738   8.165  0.0250  0.5136  0.5625
  438TIP3    H122949   6.353   3.667   8.112 -0.8439  1.2253  0.2014
  438TIP3    H222950   6.314   3.788   8.196  0.6519  1.8786 -0.0159
  439TIP3   OH222951   1.030   0.970   2.819 -0.1651  0.0332 -0.3006
  439TIP3    H122952   1.106   0.912   2.822  0.0549  0.3583  1.2620
  439TIP3    H222953   1.066   1.058   2.821 -0.5454  0.2161 -1.1740
  440TIP3   OH222954   2.970   2.584   8.404 -0.7992  0.0927 -0.3409
  440TIP3    H122955   3.040   2.633   8.362 -0.2457 -0.7167 -0.3761
  440TIP3    H222956   2.890   2.621   8.366 -0.3773  0.5501 -0.8131
  441TIP3   OH222957   2.144   2.471   8.147  0.9090  0.5106 -0.3507
  441TIP3    H122958   2.177   2.415   8.076  0.5035 -0.9923  0.5801
  441TIP3    H222959   2.084   2.531   8.104  1.5783  0.4259 -1.4461
  442TIP3   OH222960   3.376   0.080   0.654 -0.1013 -0.2192 -0.5260
  442TIP3    H122961   3.331   0.098   0.737  1.8514  0.3859  0.4592
  442TIP3    H222962   3.430   0.003   0.672  1.3246  0.6780 -0.7897
  443TIP3   OH222963   0.070   2.320   1.297  0.1254 -0.2226 -0.4218
  443TIP3    H122964   0.154   2.300   1.338 -0.3014 -1.4981 -0.1239
  443TIP3    H222965   0.088   2.318   1.203  0.1594 -1.9540 -0.4158
  444TIP3   OH222966   3.237   6.580   1.841  0.4959 -0.2801 -0.1334
  444TIP3    H122967   3.175   6.508   1.857 -2.1691  1.9873  0.6092
  444TIP3    H222968   3.252   6.619   1.927  0.8534  0.7970 -0.6634
  445TIP3   OH222969   2.071   5.355   1.876 -0.1498  0.3045  0.2871
  445TIP3    H122970   2.049   5.327   1.965 -1.3833  1.1363  0.2710
  445TIP3    H222971   2.011   5.305   1.820 -0.4724  0.9535  0.0502
  446TIP3   OH222972   4.869   2.886   2.407 -0.1429  0.3639 -0.1697
  446TIP3    H122973   4.932   2.851   2.471  0.6336 -0.2007 -1.2200
  446TIP3    H222974   4.912   2.874   2.323 -1.7070 -0.1174 -0.9289
  447TIP3   OH222975   2.121   0.751   2.773 -0.4100 -0.2719 -0.0265
  447TIP3    H122976   2.107   0.832   2.823 -2.2185 -0.4042 -0.2543
  447TIP3    H222977   2.190   0.773   2.711 -0.0572  0.7381  0.6961
  448TIP3   OH222978   2.199   5.644   2.002  0.0391 -0.1664 -0.5577
  448TIP3    H122979   2.292   5.666   2.010 -0.0595  0.3616 -0.8294
  448TIP3    H222980   2.192   5.604   1.915  0.1046 -0.7172 -0.3168
  449TIP3   OH222981   3.187   1.924   0.072 -0.1483 -0.8210  0.8775
  449TIP3    H122982   3.222   1.998   0.023  1.6223 -1.6768  0.7812
  449TIP3    H222983   3.112   1.895   0.020  0.7773 -0.7679 -0.5667
  450TIP3   OH222984   5.105   1.692   2.234 -0.2906  0.8338  0.8993
  450TIP3    H122985   5.118   1.650   2.149 -1.1736  2.8941 -0.3380
  450TIP3    H222986   5.033   1.643   2.274 -0.8214  0.6901 -0.1907
  451TIP3   OH222987   2.554   0.487   8.419  0.3285 -0.5326 -0.4465
  451TIP3    H122988   2.528   0.575   8.392 -1.4439 -0.9389 -0.1900
  451TIP3    H222989   2.624   0.463   8.358  0.5780  0.8956 -0.7593
  452TIP3   OH222990   5.693   4.503   6.677 -0.2747 -0.0499  0.8533
  452TIP3    H122991   5.711   4.506   6.771 -0.8011 -1.2336  1.0026
  452TIP3    H222992   5.777   4.526   6.636  0.1852 -0.3754  1.5977
  453TIP3   OH222993   4.083   1.412   1.086  0.2153  0.3682  0.9364
  453TIP3    H122994   4.071   1.454   1.171 -0.7163  1.0210  0.5030
  453TIP3    H222995   4.169   1.443   1.056 -0.5344  2.2096  0.5317
  454TIP3   OH222996   2.128   0.957   8.623 -0.0937 -0.3602  0.8718
  454TIP3    H122997   2.134   1.051   8.611  0.1179 -0.3436  1.1166
  454TIP3    H222998   2.169   0.920   8.545  0.5417 -0.2503  1.1511
  455TIP3   OH222999   5.310   0.463   0.700  0.0707  0.0909 -0.5087
  455TIP3    H123000   5.341   0.387   0.749  0.2951 -0.8565 -2.0610
  455TIP3    H223001   5.216   0.448   0.690 -0.0847  0.5865  0.1085
  456TIP3   OH223002   6.532   1.613   0.039 -0.1915  0.1938  0.1668
  456TIP3    H123003   6.499   1.668   0.110  0.0819 -1.2606  1.4745
  456TIP3    H223004   6.455   1.595  -0.014 -0.8802 -0.4828  1.3414
  457TIP3   OH223005   3.416   5.892   1.215  0.2123  0.0089  0.0883
  457TIP3    H123006   3.366   5.899   1.296 -0.6043 -1.7151 -0.2214
  457TIP3    H223007   3.443   5.800   1.212  3.5453  0.8614  0.2996
  458TIP3   OH223008   5.329   0.391   2.322  0.2348  0.1423  0.0395
  458TIP3    H123009   5.311   0.309   2.275  0.8605 -0.4827  0.8555
  458TIP3    H223010   5.243   0.424   2.347 -0.1594  0.8120 -2.0395
  459TIP3   OH223011   6.248   3.173   8.122 -0.1680  0.4959  0.1068
  459TIP3    H123012   6.259   3.164   8.216  1.0970 -0.2735 -0.0933
  459TIP3    H223013   6.337   3.187   8.089 -0.2791 -1.4470 -1.1819
  460TIP3   OH223014   5.710   5.670   1.180 -0.1773  0.0332  0.0087
  460TIP3    H123015   5.743   5.709   1.099  0.4370  2.2363  1.2397
  460TIP3    H223016   5.629   5.626   1.154  0.8902 -0.8544 -2.0932
  461TIP3   OH223017   5.240   6.250   2.298  0.2116  0.1832 -0.6676
  461TIP3    H123018   5.275   6.300   2.225 -0.5873  1.1476 -0.4058
  461TIP3    H223019   5.148   6.236   2.277 -0.3910  1.6949  0.7798
  462TIP3   OH223020   0.157   6.590   6.979  0.1484  0.1360  0.1238
  462TIP3    H123021   0.218   6.611   7.050 -0.8882  0.4833  0.9478
  462TIP3    H223022   0.210   6.546   6.913  1.2376  0.2440  0.9056
  463TIP3   OH223023   5.858   1.921   7.233 -0.2881 -0.1607  0.1483
  463TIP3    H123024   5.920   1.994   7.231 -0.0886 -0.3253  0.2462
  463TIP3    H223025   5.894   1.857   7.173 -1.4851  0.6153 -1.4744
  464TIP3   OH223026   2.232   1.738   1.008  0.2041  0.3425 -0.1689
  464TIP3    H123027   2.310   1.768   1.055  0.7405  0.5475 -1.1499
  464TIP3    H223028   2.267   1.697   0.928 -0.6739  0.0701 -0.4207
  465TIP3   OH223029   1.740   6.519   1.747  0.0743  0.1186 -0.0766
  465TIP3    H123030   1.792   6.448   1.785 -0.0731 -0.2988 -0.6581
  465TIP3    H223031   1.772   6.528   1.658 -0.0520  0.6512 -0.0760
  466TIP3   OH223032   3.745   3.655   8.266 -0.0517 -0.1335 -0.1283
  466TIP3    H123033   3.786   3.735   8.232 -1.5865  0.8565  0.2496
  466TIP3    H223034   3.697   3.684   8.343 -0.7122 -1.4196 -0.0351
  467TIP3   OH223035   5.873   5.420   1.036  0.3361  0.2920  0.1913
  467TIP3    H123036   5.815   5.491   1.062  0.9061  1.0796 -0.6422
  467TIP3    H223037   5.953   5.463   1.006  0.9100 -0.7208  0.1927
  468TIP3   OH223038   0.436   3.607   0.319 -0.3192 -0.2983 -0.0456
  468TIP3    H123039   0.397   3.690   0.345 -0.1784  0.0897 -1.0202
  468TIP3    H223040   0.442   3.557   0.400  0.1832  0.8812  0.6707
  469TIP3   OH223041   4.817   1.660   1.457 -0.0494 -0.5886  1.1511
  469TIP3    H123042   4.858   1.745   1.440 -0.7393 -0.5788 -0.7026
  469TIP3    H223043   4.878   1.597   1.420 -0.5919 -0.7331  0.4889
  470TIP3   OH223044   3.717   6.483   7.045  0.6906  0.2736  0.4362
  470TIP3    H123045   3.755   6.560   7.002 -2.6835  1.5862 -0.5313
  470TIP3    H223046   3.665   6.519   7.117 -0.1340 -1.1703  0.6115
  471TIP3   OH223047   4.379   6.672   2.455  0.0338 -0.0734 -0.1086
  471TIP3    H123048   4.434   6.605   2.414 -1.8852 -2.2414  0.6204
  471TIP3    H223049   4.293   6.631   2.463 -1.4215  2.7307 -0.1245
  472TIP3   OH223050   2.274   0.219   1.160 -0.0941 -0.0849 -0.0626
  472TIP3    H123051   2.214   0.202   1.087  0.8712  0.0672 -0.9017
  472TIP3    H223052   2.268   0.313   1.176 -0.1136 -0.0795 -0.1039
  473TIP3   OH223053   3.554   1.251   8.118 -0.2659 -0.4005 -0.1205
  473TIP3    H123054   3.459   1.248   8.112 -0.3237  0.2020  0.3750
  473TIP3    H223055   3.572   1.261   8.212  0.3341 -1.9980 -0.0228
  474TIP3   OH223056   2.944   2.826   7.118  0.2017  0.4125  0.1950
  474TIP3    H123057   2.855   2.822   7.083  1.4997 -1.7131 -3.3460
  474TIP3    H223058   2.994   2.874   7.052  1.7368  1.7232  2.1956
  475TIP3   OH223059   3.524   6.594   1.758 -0.0341 -0.2874  0.0254
  475TIP3    H123060   3.518   6.556   1.671  1.2301 -0.8459  0.1498
  475TIP3    H223061   3.434   6.602   1.788 -0.3982 -2.7323 -0.2332
  476TIP3   OH223062   1.425   6.168   8.805 -0.0830 -0.1021  0.6712
  476TIP3    H123063   1.420   6.123   8.889  1.6124 -0.0763  0.8268
  476TIP3    H223064   1.363   6.241   8.813 -0.3264 -0.4034  1.6983
  477TIP3   OH223065   4.064   4.195   8.792  0.1210 -0.4841  0.0000
  477TIP3    H123066   4.135   4.142   8.755  1.6069 -1.2342  3.5235
  477TIP3    H223067   4.006   4.132   8.833 -2.0650  0.2351 -1.7679
  478TIP3   OH223068   3.964   5.628   0.282  0.0141 -0.3333  0.2134
  478TIP3    H123069   4.014   5.547   0.293  1.5213  0.2233 -1.9725
  478TIP3    H223070   3.945   5.632   0.188  1.3658  2.6014 -0.0327
  479TIP3   OH223071   3.751   2.597   2.443 -0.4911  0.4429 -0.0561
  479TIP3    H123072   3.845   2.604   2.426 -0.6623  1.2757 -0.7437
  479TIP3    H223073   3.720   2.530   2.381  0.0304 -1.7525  1.9009
  480TIP3   OH223074   0.016   4.157   8.843  0.3791  0.1660  0.5682
  480TIP3    H123075   0.037   4.186   8.932 -0.0062 -0.6825  0.9441
  480TIP3    H223076  -0.069   4.114   8.851 -0.2153  1.1267 -0.4400
  481TIP3   OH223077   5.444   4.746   7.706 -0.2347  0.6306  0.2519
  481TIP3    H123078   5.489   4.806   7.647  1.1743 -1.0185 -0.4579
  481TIP3    H223079   5.513   4.710   7.762 -0.1697 -3.1297 -1.8895
  482TIP3   OH223080   6.345   2.938   7.290  0.1929 -0.0662  0.4035
  482TIP3    H123081   6.351   3.017   7.236  0.7520 -1.3014 -1.4711
  482TIP3    H223082   6.419   2.885   7.261 -0.3919 -1.4318  1.3414
  483TIP3   OH223083   2.195   0.646   7.892 -0.2958  0.2675 -0.0511
  483TIP3    H123084   2.140   0.628   7.815  1.6050 -0.3171 -1.3422
  483TIP3    H223085   2.168   0.580   7.956 -0.9702 -0.1414 -0.7320
  484TIP3   OH223086   2.486   6.105   7.829 -0.5400  0.1965  0.0796
  484TIP3    H123087   2.460   6.191   7.796 -1.7426 -0.7037 -1.4450
  484TIP3    H223088   2.566   6.122   7.878 -1.3959  2.3596  0.8522
  485TIP3   OH223089   3.647   1.765   7.760  0.0603 -0.1677  0.2699
  485TIP3    H123090   3.673   1.673   7.766  0.7334  0.0733  1.4357
  485TIP3    H223091   3.667   1.802   7.847  3.7784  2.0735 -1.2814
  486TIP3   OH223092   4.060   3.114   3.131 -0.1758 -0.1822 -0.0069
  486TIP3    H123093   4.035   3.155   3.048  1.1789  0.7972  0.0429
  486TIP3    H223094   4.102   3.032   3.105 -1.4802 -0.8210 -0.1788
  487TIP3   OH223095   5.513   0.309   0.359 -0.5394  0.2267 -0.9266
  487TIP3    H123096   5.461   0.386   0.384  0.0214  0.3545 -0.0930
  487TIP3    H223097   5.512   0.253   0.437  0.4544  0.1827 -0.9281
  488TIP3   OH223098   6.018   4.017   0.748 -0.1420 -0.1531 -0.1185
  488TIP3    H123099   6.057   3.930   0.757  1.0035  0.2975 -0.5501
  488TIP3    H223100   5.995   4.042   0.838  1.2491 -0.1420  0.2603
  489TIP3   OH223101   0.992   5.004   7.498  0.6992  0.7291  0.2139
  489TIP3    H123102   1.071   4.951   7.504  0.0907 -0.3610 -0.9680
  489TIP3    H223103   1.015   5.075   7.439  1.1379  1.0744  0.7925
  490TIP3   OH223104   1.133   4.009   8.293 -0.0294 -0.7624  0.0057
  490TIP3    H123105   1.144   3.947   8.365  0.2757 -1.7410 -0.8584
  490TIP3    H223106   1.172   3.965   8.217 -0.2216  0.2985 -0.7325
  491TIP3   OH223107   3.877   1.089   0.936 -0.6425 -0.2474 -0.1720
  491TIP3    H123108   3.908   1.005   0.972 -1.3185  0.7444  3.1474
  491TIP3    H223109   3.956   1.136   0.913  0.0138 -0.3619  1.6784
  492TIP3   OH223110   3.860   0.676   7.582 -0.2089 -0.0177 -0.3676
  492TIP3    H123111   3.903   0.759   7.604 -0.4364 -0.2032  0.8217
  492TIP3    H223112   3.898   0.651   7.498  1.0203  0.4972  0.0138
  493TIP3   OH223113   5.542   3.245   1.453 -0.2220 -0.1677 -0.1548
  493TIP3    H123114   5.598   3.310   1.412 -1.1869  1.6734  1.2660
  493TIP3    H223115   5.542   3.269   1.546 -0.8676 -2.0317  0.3628
  494TIP3   OH223116   5.162   4.932   8.772  0.1348 -0.9363 -0.3529
  494TIP3    H123117   5.078   4.977   8.759 -0.6726 -1.6462  1.9188
  494TIP3    H223118   5.139   4.850   8.815  2.1020 -0.1306  2.5152
  495TIP3   OH223119   5.681   2.597   2.489  0.4964 -0.0559  0.3658
  495TIP3    H123120   5.726   2.513   2.483 -0.1269 -0.3584 -0.1461
  495TIP3    H223121   5.629   2.592   2.569  0.3564 -0.2071  0.2646
  496TIP3   OH223122   4.502   0.265   1.863  0.4417 -0.1693 -0.2374
  496TIP3    H123123   4.426   0.277   1.806  1.5622  0.6348 -1.6293
  496TIP3    H223124   4.549   0.191   1.825  1.2125  0.3860 -0.3738
  497TIP3   OH223125   5.600   2.029   7.188  0.0669 -0.3298  0.2992
  497TIP3    H123126   5.629   2.080   7.113 -0.1579  1.1884  1.1936
  497TIP3    H223127   5.677   1.980   7.216  1.0529  1.5526  0.9981
  498TIP3   OH223128   0.539   2.871   3.390 -0.1069  0.1203 -0.1111
  498TIP3    H123129   0.630   2.840   3.386 -0.5122 -1.1471 -0.0655
  498TIP3    H223130   0.536   2.946   3.332  1.2984  1.0523  0.9670
  499TIP3   OH223131   0.507   2.222   7.147 -0.2575  0.5276 -0.3221
  499TIP3    H123132   0.428   2.170   7.132 -1.1837  1.6318  0.5365
  499TIP3    H223133   0.538   2.244   7.059  0.2273 -1.5108 -0.7227
  500TIP3   OH223134   1.722   5.580   2.960 -0.0620  0.0491  0.2444
  500TIP3    H123135   1.755   5.637   2.891  0.1653 -1.1989 -0.7122
  500TIP3    H223136   1.792   5.516   2.974 -0.9290 -0.9296  0.1883
  501TIP3   OH223137   5.943   3.572   7.521  0.1175 -0.8777  0.0909
  501TIP3    H123138   5.952   3.660   7.483 -0.3370 -1.1479 -0.6581
  501TIP3    H223139   5.849   3.557   7.525  0.1409 -0.7882  1.5330
  502TIP3   OH223140   5.348   6.437   7.889  0.1885  0.3401 -0.6834
  502TIP3    H123141   5.322   6.348   7.914 -1.6575  0.9569 -0.2440
  502TIP3    H223142   5.357   6.433   7.794  0.4871 -0.4049 -0.6336
  503TIP3   OH223143   5.898   0.146   8.261  0.2273  0.1654 -0.2862
  503TIP3    H123144   5.802   0.145   8.260  0.1321 -2.9124 -0.8293
  503TIP3    H223145   5.922   0.187   8.178 -0.6401  0.4122 -0.4246
  504TIP3   OH223146   3.435   1.166   1.632  0.0438 -0.3164 -0.4051
  504TIP3    H123147   3.387   1.184   1.551  0.1926 -1.4673 -0.7768
  504TIP3    H223148   3.412   1.238   1.690 -1.5185 -0.4086 -0.8515
  505TIP3   OH223149   2.361   2.702   1.413 -0.0902 -0.4434  0.5025
  505TIP3    H123150   2.266   2.690   1.411  0.1254 -2.8528  0.9712
  505TIP3    H223151   2.381   2.726   1.504 -0.2611  0.3478  0.3356
  506TIP3   OH223152   2.983   4.599   1.591 -0.2155  0.0053  0.3691
  506TIP3    H123153   2.917   4.598   1.660 -0.0399 -0.7879  0.5320
  506TIP3    H223154   2.966   4.521   1.539  0.9888 -0.5968  0.8191
  507TIP3   OH223155   3.060   1.668   0.225 -0.1247 -0.6833  0.1851
  507TIP3    H123156   3.090   1.626   0.306  0.8969  0.0451  0.2206
  507TIP3    H223157   3.138   1.713   0.193 -0.4511 -1.1890 -1.3621
  508TIP3   OH223158   0.736   1.566   2.510 -0.1630  0.2397  0.2176
  508TIP3    H123159   0.719   1.653   2.474 -1.4377  0.1528  0.5697
  508TIP3    H223160   0.691   1.566   2.595 -2.8376 -1.7556 -1.0640
  509TIP3   OH223161   1.905   0.628   2.602 -0.0173 -0.5120 -0.7656
  509TIP3    H123162   1.967   0.683   2.650 -0.9127 -0.7567  0.7234
  509TIP3    H223163   1.834   0.687   2.578  0.2084 -0.4914 -1.3948
  510TIP3   OH223164   3.867   5.022   1.124  0.1238  0.2077 -0.2085
  510TIP3    H123165   3.914   4.940   1.136  0.6822  0.5896  0.2901
  510TIP3    H223166   3.796   5.019   1.189  0.8498  0.6131  0.6340
  511TIP3   OH223167   5.698   2.119   8.366 -0.0161  0.0318 -0.9661
  511TIP3    H123168   5.630   2.186   8.370 -0.1207 -0.1226  0.2773
  511TIP3    H223169   5.655   2.044   8.325 -0.6921 -0.1386  0.0043
  512TIP3   OH223170   0.521   4.946   1.493  0.0462  0.3112  0.3344
  512TIP3    H123171   0.609   4.972   1.466 -0.4771  0.4556 -1.3244
  512TIP3    H223172   0.534   4.867   1.546  1.1328  0.0536 -0.2909
  513TIP3   OH223173   2.426   0.645   8.240 -0.4227  0.4835 -0.5503
  513TIP3    H123174   2.344   0.602   8.219  0.1204 -0.9310  0.0686
  513TIP3    H223175   2.482   0.629   8.164  0.1368 -0.9031  0.1243
  514TIP3   OH223176   5.573   3.655   1.266 -0.2547 -0.3566  0.5113
  514TIP3    H123177   5.518   3.732   1.249 -0.1211 -0.4849 -0.6070
  514TIP3    H223178   5.511   3.583   1.275 -0.2814 -0.6892 -1.7894
  515TIP3   OH223179   4.788   0.546   1.544 -0.4485 -0.6175 -0.3251
  515TIP3    H123180   4.742   0.617   1.587  0.9807  0.0932  0.1162
  515TIP3    H223181   4.881   0.569   1.553  0.0447 -2.4261 -0.3714
  516TIP3   OH223182   4.458   2.892   0.340  0.2158  0.4447  0.3982
  516TIP3    H123183   4.516   2.964   0.315 -0.3632  0.7284 -0.1768
  516TIP3    H223184   4.428   2.856   0.256 -0.6508  0.4856  0.6812
  517TIP3   OH223185   0.732   4.836   8.379  0.1569 -0.6489 -0.2202
  517TIP3    H123186   0.678   4.848   8.457  0.4361 -0.3662 -0.0672
  517TIP3    H223187   0.767   4.747   8.387 -0.1590 -0.7764 -0.2425
  518TIP3   OH223188   6.006   6.236   8.838  0.4741  0.0812 -0.6680
  518TIP3    H123189   5.994   6.311   8.896 -2.3569  1.6291 -3.0506
  518TIP3    H223190   6.061   6.269   8.767 -0.4141 -0.2227 -1.5046
  519TIP3   OH223191   5.060   5.998   0.754 -0.2269  0.2455  0.2804
  519TIP3    H123192   5.019   5.933   0.696  0.2163  1.8377 -1.9438
  519TIP3    H223193   5.154   5.987   0.739 -0.1678  2.0807 -1.0246
  520TIP3   OH223194   2.088   6.440   1.211 -0.0504 -0.2233 -0.3084
  520TIP3    H123195   2.056   6.453   1.122 -0.6754  2.4815  0.2055
  520TIP3    H223196   2.023   6.384   1.253  0.9364 -2.6762 -1.8281
  521TIP3   OH223197   4.562   3.758   7.609  0.6464 -0.2365  0.2854
  521TIP3    H123198   4.616   3.785   7.534  0.2300  0.0040  0.0693
  521TIP3    H223199   4.532   3.670   7.586 -2.6644  1.2262 -1.6712
  522TIP3   OH223200   3.035   0.103   8.015 -0.7924  0.2931  0.5541
  522TIP3    H123201   3.048   0.110   8.109 -0.4148 -0.5670  0.5790
  522TIP3    H223202   3.087   0.174   7.978 -2.5811  1.9628  1.0784
  523TIP3   OH223203   0.952   1.003   2.561  0.2100  0.2735 -0.1549
  523TIP3    H123204   0.983   0.973   2.646 -1.8916 -0.6145  0.3769
  523TIP3    H223205   0.897   1.079   2.581 -2.9230 -1.7759 -0.1914
  524TIP3   OH223206   6.193   5.988   1.557  0.0726  0.1087  0.0549
  524TIP3    H123207   6.208   5.899   1.526  0.6803 -0.5818  2.1643
  524TIP3    H223208   6.240   6.043   1.494 -0.3013 -1.0336 -1.2703
  525TIP3   OH223209   0.464   5.305   8.054  0.0979  0.2755 -0.3786
  525TIP3    H123210   0.515   5.281   8.132 -0.5396  0.9183  0.2488
  525TIP3    H223211   0.494   5.244   7.987 -0.0800 -1.0021  0.6514
  526TIP3   OH223212   1.307   6.559   7.450  0.3765 -0.0529 -0.4978
  526TIP3    H123213   1.331   6.650   7.436  1.6378 -0.1320  0.8884
  526TIP3    H223214   1.375   6.525   7.508  0.4667 -2.1383 -1.7393
  527TIP3   OH223215   0.113   5.427   1.704  0.2181 -0.4105 -0.2217
  527TIP3    H123216   0.190   5.469   1.742 -0.0992  0.4444 -0.4995
  527TIP3    H223217   0.105   5.465   1.617 -0.6492 -0.3275 -0.1177
  528TIP3   OH223218   3.553   2.505   2.073  0.3189 -0.2756  0.6056
  528TIP3    H123219   3.486   2.502   2.142  0.7102  0.0749  1.0133
  528TIP3    H223220   3.550   2.595   2.041  0.2666 -0.3898  0.2952
  529TIP3   OH223221   0.225   2.365   0.277  0.8740 -0.2346  0.3799
  529TIP3    H123222   0.304   2.418   0.265  0.8297 -0.0145  0.9889
  529TIP3    H223223   0.241   2.316   0.358 -0.0986  0.7542  1.2233
  530TIP3   OH223224   0.357   0.532   6.766 -0.5642 -0.2234 -0.1865
  530TIP3    H123225   0.439   0.560   6.807 -0.5506  1.5526 -1.3065
  530TIP3    H223226   0.351   0.439   6.785  0.8627 -0.0410  1.3534
  531TIP3   OH223227   1.745   5.625   1.133  0.5756  0.1807 -0.0474
  531TIP3    H123228   1.650   5.615   1.131  0.4191  1.5574 -1.8260
  531TIP3    H223229   1.778   5.536   1.147 -0.9523 -0.3110  0.6466
  532TIP3   OH223230   2.559   6.017   2.513  0.6320 -0.0363 -0.7912
  532TIP3    H123231   2.569   6.083   2.581 -1.6878 -1.3097  0.9035
  532TIP3    H223232   2.639   5.964   2.519 -0.0767 -0.9240  1.9073
  533TIP3   OH223233   1.880   4.204   1.645  0.0443 -0.1249  0.2128
  533TIP3    H123234   1.792   4.167   1.653 -0.5608  0.9816 -1.0348
  533TIP3    H223235   1.904   4.190   1.553  1.3458 -0.7533  0.6222
  534TIP3   OH223236   5.381   2.972   8.092  0.2927 -0.5744  0.1835
  534TIP3    H123237   5.405   3.022   8.170 -1.2220  1.2386 -0.4364
  534TIP3    H223238   5.331   2.897   8.125  1.6922 -1.1526  1.0631
  535TIP3   OH223239   5.911   5.459   2.263 -0.0177  0.0646 -0.7460
  535TIP3    H123240   5.974   5.388   2.250  0.2928  0.1983 -0.0323
  535TIP3    H223241   5.877   5.477   2.175  1.9262  0.9091 -1.3997
  536TIP3   OH223242   3.148   4.210   0.668  0.7993  0.3919 -0.4154
  536TIP3    H123243   3.068   4.239   0.625  0.1009 -0.4467  0.2791
  536TIP3    H223244   3.189   4.150   0.606 -0.2994 -0.9626  0.1026
  537TIP3   OH223245   1.622   0.814   0.788 -0.4919  0.2724  0.5952
  537TIP3    H123246   1.699   0.800   0.843 -0.5834 -0.4795  0.5513
  537TIP3    H223247   1.656   0.857   0.710 -0.0985 -0.0991  0.5546
  538TIP3   OH223248   6.195   4.657   1.174 -0.2485 -0.6639  0.6753
  538TIP3    H123249   6.203   4.570   1.134 -0.0053 -0.2949 -0.0851
  538TIP3    H223250   6.103   4.681   1.160  0.0938 -0.0510 -0.7080
  539TIP3   OH223251   2.065   5.985   2.447 -0.1691  0.0639  0.0836
  539TIP3    H123252   1.975   5.953   2.446 -0.9049  1.8442  2.1706
  539TIP3    H223253   2.118   5.909   2.473 -1.1747 -0.7416 -0.1548
  540TIP3   OH223254   3.604   0.932   1.222 -0.6175  0.4452  0.6755
  540TIP3    H123255   3.564   0.945   1.308  2.0464  0.2269  2.0404
  540TIP3    H223256   3.678   0.873   1.239 -0.4910 -0.2468 -1.9257
  541TIP3   OH223257   6.766   4.191   2.356  0.1011 -0.8407  0.1431
  541TIP3    H123258   6.735   4.282   2.358  1.2066 -0.4412 -0.1055
  541TIP3    H223259   6.686   4.138   2.362 -0.4487  0.1036  3.5924
  542TIP3   OH223260   5.906   1.867   1.106  0.0789 -0.4347  0.0932
  542TIP3    H123261   5.898   1.834   1.017 -0.6458  1.2283 -0.4989
  542TIP3    H223262   5.999   1.888   1.117  0.0696 -0.0542 -0.5117
  543TIP3   OH223263   0.167   5.578   2.200 -0.0748  0.6311 -0.1436
  543TIP3    H123264   0.251   5.541   2.229 -0.7348 -0.4558  0.4749
  543TIP3    H223265   0.110   5.502   2.189 -0.7548  1.2895 -1.3504
  544TIP3   OH223266   4.415   0.438   8.183 -0.2084 -0.1920 -0.8613
  544TIP3    H123267   4.357   0.375   8.141  0.3907 -0.5882 -1.1063
  544TIP3    H223268   4.358   0.486   8.244 -1.2947  1.0263 -2.7435
  545TIP3   OH223269   6.500   3.354   0.202  0.3961 -0.5662  0.1002
  545TIP3    H123270   6.552   3.365   0.281 -0.3450 -0.1476  0.5446
  545TIP3    H223271   6.508   3.438   0.156 -1.1156  0.0955  0.9495
  546TIP3   OH223272   4.562   5.370   8.497 -0.0934  0.1097 -0.2082
  546TIP3    H123273   4.510   5.380   8.417 -0.3280 -0.4343 -0.1298
  546TIP3    H223274   4.620   5.296   8.479 -0.5637 -0.4038  0.3328
  547TIP3   OH223275   4.152   0.098   1.926 -0.0546 -0.2180  0.4341
  547TIP3    H123276   4.183   0.128   2.012  1.7669 -0.6430 -0.0242
  547TIP3    H223277   4.208   0.143   1.863 -0.9137 -0.4343 -0.5041
  548TIP3   OH223278   5.928   1.668   2.331 -0.2123  0.2298  0.0823
  548TIP3    H123279   6.023   1.678   2.321 -0.2176 -0.2528 -0.4410
  548TIP3    H223280   5.905   1.730   2.401  0.4085  0.7306 -0.1498
  549TIP3   OH223281   2.030   4.807   0.783 -0.3936  0.2993  0.4216
  549TIP3    H123282   2.005   4.788   0.692 -0.4523 -1.0841  0.7124
  549TIP3    H223283   2.125   4.792   0.786 -0.5034 -0.3367  0.7533
  550TIP3   OH223284   2.578   5.148   2.016  0.4170 -0.1698  0.7385
  550TIP3    H123285   2.583   5.147   2.111 -0.8824 -1.1954  0.8159
  550TIP3    H223286   2.486   5.166   1.997  0.7488  0.5100 -0.3446
  551TIP3   OH223287   4.339   2.827   0.704  0.1634  0.5483  0.3856
  551TIP3    H123288   4.337   2.763   0.634  1.1187  0.2606  0.6088
  551TIP3    H223289   4.253   2.821   0.745  0.1024 -0.2947  0.1428
  552TIP3   OH223290   5.940   4.656   8.753 -0.1704 -0.2206  0.4331
  552TIP3    H123291   5.855   4.637   8.712  0.6617 -1.6198 -0.7378
  552TIP3    H223292   5.989   4.704   8.686  0.6244 -1.0800  0.3817
  553TIP3   OH223293   1.921   1.572   0.376  0.2661  0.1288  1.1706
  553TIP3    H123294   1.953   1.485   0.351 -0.3134  0.5723 -1.4674
  553TIP3    H223295   2.000   1.620   0.402  1.3034 -0.0289 -1.3040
  554TIP3   OH223296   3.925   6.176   8.125 -0.2990 -0.1888 -0.1493
  554TIP3    H123297   3.881   6.093   8.107  0.6814 -0.4797 -1.3603
  554TIP3    H223298   3.956   6.206   8.039  2.6003 -0.4540  0.7063
  555TIP3   OH223299   5.398   1.351   8.530  0.2806  0.2548  0.0805
  555TIP3    H123300   5.482   1.324   8.491  0.6790  1.0242  0.3928
  555TIP3    H223301   5.333   1.299   8.483  0.8577  0.2879 -0.7899
  556TIP3   OH223302   5.168   4.571   7.133  0.2958 -0.1587  0.4555
  556TIP3    H123303   5.214   4.544   7.053  0.0021 -1.0835  0.5834
  556TIP3    H223304   5.077   4.580   7.107  0.4272  1.0573  0.3471
  557TIP3   OH223305   2.684   4.326   0.749  0.2587 -0.3558  0.1429
  557TIP3    H123306   2.762   4.294   0.794  0.8563  1.3097  0.3931
  557TIP3    H223307   2.625   4.354   0.820  0.4271  0.5503 -0.0594
  558TIP3   OH223308   3.170   1.217   1.947 -0.3465  0.1917  0.2697
  558TIP3    H123309   3.260   1.244   1.928 -0.1566  0.4279  1.4473
  558TIP3    H223310   3.158   1.138   1.895  0.5782  0.1011  0.1676
  559TIP3   OH223311   4.899   1.632   1.058  0.3305  0.1904 -0.0553
  559TIP3    H123312   4.905   1.579   1.138  0.9766 -0.6682 -0.6506
  559TIP3    H223313   4.909   1.722   1.089  1.0475 -0.1555  0.7907
  560TIP3   OH223314   2.534   1.298   1.864 -0.5962 -0.3472  0.1051
  560TIP3    H123315   2.624   1.300   1.894 -0.9478 -0.5261  1.1964
  560TIP3    H223316   2.483   1.336   1.935 -1.2278  1.2003 -1.1150
  561TIP3   OH223317   5.537   4.779   2.170 -0.2159  0.3204  0.1925
  561TIP3    H123318   5.450   4.820   2.164 -0.3708  0.0518  0.5345
  561TIP3    H223319   5.584   4.812   2.094 -0.6761  0.3385 -0.0914
  562TIP3   OH223320   2.177   4.655   0.208 -0.4437  0.2700 -0.6437
  562TIP3    H123321   2.261   4.610   0.215  0.1833  1.4195 -0.5973
  562TIP3    H223322   2.131   4.609   0.137  0.4466 -0.0028 -1.0558
  563TIP3   OH223323   3.500   5.593   2.336  0.3078  0.6512 -0.0941
  563TIP3    H123324   3.500   5.498   2.325 -0.8715  0.8293 -2.2739
  563TIP3    H223325   3.590   5.620   2.316  0.4893  0.0541 -0.0849
  564TIP3   OH223326   1.763   4.113   1.989  0.2363 -0.4002 -0.0527
  564TIP3    H123327   1.690   4.117   2.051  0.3078 -0.0990  0.0139
  564TIP3    H223328   1.797   4.024   1.998 -0.0650 -0.5140 -0.0178
  565TIP3   OH223329   4.967   2.396   0.749  0.0545 -0.7847 -0.4726
  565TIP3    H123330   5.003   2.401   0.660  0.8412 -1.6243 -0.2121
  565TIP3    H223331   4.966   2.487   0.779 -0.4739 -0.4533 -1.4274
  566TIP3   OH223332   5.281   1.281   1.831 -0.5158  0.1842 -0.9461
  566TIP3    H123333   5.275   1.357   1.774  2.1952 -0.2228 -1.9641
  566TIP3    H223334   5.314   1.315   1.914 -0.1081  0.2633 -1.1342
  567TIP3   OH223335   6.661   3.652   0.332 -0.2892  0.2224  0.7122
  567TIP3    H123336   6.612   3.729   0.304 -1.8643 -0.6528  0.9415
  567TIP3    H223337   6.727   3.639   0.264  0.3363  2.0491  0.9370
  568TIP3   OH223338   6.704   3.524   1.892 -0.1564 -0.1677  0.9219
  568TIP3    H123339   6.694   3.429   1.904 -1.0642 -0.1180  0.6198
  568TIP3    H223340   6.652   3.562   1.963 -1.0657  0.0966  0.1408
  569TIP3   OH223341   3.465   0.784   2.289 -0.0854  0.0779  0.1192
  569TIP3    H123342   3.462   0.721   2.361 -0.9333  0.3948  0.3707
  569TIP3    H223343   3.373   0.793   2.262  0.1198  0.6673 -0.3839
  570TIP3   OH223344   6.170   0.420   7.876  0.0302 -0.2797  0.1850
  570TIP3    H123345   6.151   0.514   7.868  2.5674  0.3489  0.4471
  570TIP3    H223346   6.233   0.402   7.806  0.7390 -1.4122  1.0726
  571TIP3   OH223347   2.516   1.721   1.629  0.7614 -0.6060 -0.1542
  571TIP3    H123348   2.452   1.793   1.631  1.5973  0.1612 -0.2834
  571TIP3    H223349   2.463   1.642   1.624 -0.1843  0.0025 -0.0331
  572TIP3   OH223350   4.694   0.142   7.342  0.4885 -0.2752 -0.1073
  572TIP3    H123351   4.759   0.194   7.295  1.8681 -1.3803  0.4848
  572TIP3    H223352   4.710   0.052   7.313 -0.6766 -0.5940  0.1843
  573TIP3   OH223353   5.083   0.154   2.743  0.0605 -0.9583 -0.2873
  573TIP3    H123354   5.081   0.195   2.657  0.4140  0.7810  0.4823
  573TIP3    H223355   4.992   0.157   2.773  0.2520  0.3770  0.2303
  574TIP3   OH223356   2.796   3.585   0.713 -0.2341 -0.2901  0.2401
  574TIP3    H123357   2.766   3.497   0.736 -1.2155 -0.0642 -0.1023
  574TIP3    H223358   2.891   3.577   0.706 -0.3311 -1.3835 -0.0319
  575TIP3   OH223359   5.728   6.226   0.764 -0.3383  0.3879  0.3456
  575TIP3    H123360   5.747   6.222   0.857  0.6392 -0.1217  0.1376
  575TIP3    H223361   5.713   6.319   0.746 -0.2173  0.5280  0.9462
  576TIP3   OH223362   2.369   1.712   0.755  1.1669  0.6796  0.1095
  576TIP3    H123363   2.368   1.755   0.669  0.3829  2.5193  0.9693
  576TIP3    H223364   2.352   1.620   0.736  0.9082  1.0583 -1.7048
  577TIP3   OH223365   2.045   1.097   1.561  0.2567 -0.8113  0.4238
  577TIP3    H123366   1.962   1.054   1.582 -0.3477  0.5825  1.0769
  577TIP3    H223367   2.089   1.107   1.645  0.1608  0.2327  0.3667
  578TIP3   OH223368   6.272   3.667   7.280  0.0312  0.2271 -0.4377
  578TIP3    H123369   6.275   3.753   7.237  2.0141 -0.0840 -1.0554
  578TIP3    H223370   6.349   3.666   7.337 -0.5763 -0.7341  0.3898
  579TIP3   OH223371   4.229   6.535   8.201  0.8193 -0.8418 -0.3179
  579TIP3    H123372   4.164   6.528   8.271 -1.1434  1.6691 -1.6725
  579TIP3    H223373   4.295   6.596   8.235 -2.0310  3.4506 -1.6128
  580TIP3   OH223374   1.954   4.693   2.729  0.2572  0.1506  0.0847
  580TIP3    H123375   1.916   4.613   2.693 -0.3422  0.5962 -0.2697
  580TIP3    H223376   1.902   4.711   2.808 -0.3674  0.8350 -0.4747
  581TIP3   OH223377   4.825   0.028   7.125 -0.4929  0.1809 -0.0493
  581TIP3    H123378   4.766  -0.045   7.140 -0.9122  0.3138 -0.9576
  581TIP3    H223379   4.772   0.092   7.077 -0.2722  1.2786  1.1196
  582TIP3   OH223380   4.717   3.671   8.447 -0.8026  0.4359  0.2820
  582TIP3    H123381   4.766   3.619   8.511 -2.0652  0.2643  1.1513
  582TIP3    H223382   4.774   3.674   8.370 -0.1434 -1.1312  0.6684
  583TIP3   OH223383   2.790   2.757   8.758 -0.5106 -0.1636 -0.1925
  583TIP3    H123384   2.752   2.744   8.845  0.1166  0.5184  0.1905
  583TIP3    H223385   2.768   2.847   8.735 -3.3550 -1.1971 -2.1002
  584TIP3   OH223386   6.780   3.828   1.519  0.6104  0.2666  0.0022
  584TIP3    H123387   6.834   3.795   1.591 -0.4709 -0.2440  0.6144
  584TIP3    H223388   6.824   3.800   1.440  2.0802  1.2358  0.4437
  585TIP3   OH223389   5.492   2.842   0.795 -0.0689  0.1397  0.0138
  585TIP3    H123390   5.551   2.773   0.826  0.1397  0.7683  1.0857
  585TIP3    H223391   5.536   2.924   0.819 -0.6304  0.6426 -0.6179
  586TIP3   OH223392   3.918   4.694   0.472 -0.1122  0.3960 -0.5413
  586TIP3    H123393   3.972   4.626   0.513 -1.2760 -0.5936 -0.6070
  586TIP3    H223394   3.919   4.672   0.379 -0.8296  0.2251 -0.5108
  587TIP3   OH223395   0.069   3.626   1.716 -0.1585  0.2333 -0.4039
  587TIP3    H123396   0.101   3.541   1.686  0.7962  0.5936 -0.4577
  587TIP3    H223397   0.024   3.608   1.798 -1.1189 -0.4970 -1.0746
  588TIP3   OH223398   2.508   3.956   1.962 -0.0153 -0.2037  0.3304
  588TIP3    H123399   2.526   3.964   1.869 -0.9052  0.0143  0.1621
  588TIP3    H223400   2.473   4.041   1.988 -0.9587 -0.6364  0.5668
  589TIP3   OH223401   1.903   4.467   8.162  0.1766  0.1255  0.0437
  589TIP3    H123402   1.822   4.486   8.210 -0.3956  0.2098 -0.9373
  589TIP3    H223403   1.914   4.372   8.170  0.1257  0.1436  0.3756
  590TIP3   OH223404   3.365   6.715   3.291  0.0983  0.7606  0.2255
  590TIP3    H123405   3.337   6.807   3.286  0.3433  0.8082 -0.4581
  590TIP3    H223406   3.284   6.666   3.306 -0.1362  1.0328 -0.1301
  591TIP3   OH223407   3.870   5.757   7.009 -1.0081  0.3688 -0.4720
  591TIP3    H123408   3.866   5.795   6.921  0.3176  1.8896  0.0649
  591TIP3    H223409   3.949   5.703   7.009 -0.5042  1.0732 -0.0004
  592TIP3   OH223410   6.665   5.567   8.698 -0.0405 -0.2797  0.1519
  592TIP3    H123411   6.755   5.571   8.730  0.8206  5.3619 -1.8522
  592TIP3    H223412   6.674   5.557   8.603 -1.6091 -0.5520 -0.0013
  593TIP3   OH223413   5.669   5.420   8.168 -0.1972  0.1001 -0.5195
  593TIP3    H123414   5.596   5.441   8.109 -1.2279 -0.8510  0.3802
  593TIP3    H223415   5.748   5.438   8.116 -1.0697 -0.7109 -2.1962
  594TIP3   OH223416   4.916   1.717   8.734 -0.7921  0.2166 -0.0491
  594TIP3    H123417   4.914   1.805   8.697 -0.7511 -0.9655 -3.1611
  594TIP3    H223418   4.865   1.664   8.673  1.2055 -2.3640  0.3516
  595TIP3   OH223419   5.436   1.792   2.041 -0.2839 -0.1229 -0.1313
  595TIP3    H123420   5.485   1.791   2.123 -1.0551 -0.0919  0.3409
  595TIP3    H223421   5.470   1.868   1.994 -0.8773  0.7717  0.8295
  596TIP3   OH223422   4.159   4.095   0.878  0.2866  0.1498  0.2427
  596TIP3    H123423   4.211   4.172   0.902 -1.3919  0.9505  1.4814
  596TIP3    H223424   4.131   4.113   0.788  2.7954 -0.7203 -0.8069
  597TIP3   OH223425   5.801   2.848   0.934  0.3364  0.3500 -0.3857
  597TIP3    H123426   5.858   2.912   0.978 -0.1222  1.6521 -1.5877
  597TIP3    H223427   5.781   2.783   1.001  4.1031 -0.8160 -0.1630
  598TIP3   OH223428   2.199   2.080   0.404  0.4014  0.3820  0.3971
  598TIP3    H123429   2.248   2.091   0.485  1.3807 -1.4086  0.1001
  598TIP3    H223430   2.264   2.094   0.335 -0.1090  0.5142 -0.0627
  599TIP3   OH223431   5.085   0.768   1.267 -0.0941 -0.1977  0.0015
  599TIP3    H123432   4.992   0.779   1.290 -0.0219  0.8785 -0.1579
  599TIP3    H223433   5.085   0.760   1.171 -0.0005  0.1233 -0.0267
  600TIP3   OH223434   2.462   1.846   1.916  0.0137 -0.4668  0.0885
  600TIP3    H123435   2.504   1.854   1.830 -2.3575 -1.1073 -1.2349
  600TIP3    H223436   2.438   1.936   1.939  0.1008 -0.3538 -0.2514
  601TIP3   OH223437   0.224   1.542   8.434 -0.3100 -0.1093 -0.2298
  601TIP3    H123438   0.278   1.522   8.511 -0.4592 -1.1714 -0.3856
  601TIP3    H223439   0.144   1.491   8.447 -0.8011  0.5506 -0.5667
  602TIP3   OH223440   5.283   5.681   1.264  0.0064  0.1914  0.6759
  602TIP3    H123441   5.337   5.711   1.337 -0.7013 -0.5513  1.5337
  602TIP3    H223442   5.335   5.612   1.223  0.4312  0.6497  0.4309
  603TIP3   OH223443   1.096   3.718   2.381 -0.4986 -0.5079 -0.4458
  603TIP3    H123444   1.028   3.774   2.419 -0.1469  0.3001 -0.9824
  603TIP3    H223445   1.085   3.728   2.287 -0.2566 -1.1478 -0.5481
  604TIP3   OH223446   1.573   0.004   1.269  0.4525 -0.2098  0.7679
  604TIP3    H123447   1.652  -0.031   1.310 -0.2237 -2.6375  0.1576
  604TIP3    H223448   1.508  -0.066   1.278 -0.8219  0.6516 -1.0996
  605TIP3   OH223449   6.026   3.329   8.467  0.1812  0.0009 -0.1805
  605TIP3    H123450   6.041   3.364   8.555  0.9887 -1.0876  0.1401
  605TIP3    H223451   6.015   3.406   8.412  0.3133  0.7124  0.7622
  606TIP3   OH223452   5.357   5.715   0.226  0.2554  0.0148 -0.2464
  606TIP3    H123453   5.322   5.790   0.178 -0.8280  0.6759  1.4713
  606TIP3    H223454   5.282   5.655   0.235  1.0180 -1.1567 -1.2980
  607TIP3   OH223455   3.184   0.576   2.805  0.1429 -0.0084  0.6653
  607TIP3    H123456   3.138   0.602   2.725 -0.0137 -0.3691  0.6364
  607TIP3    H223457   3.262   0.531   2.774  0.6167  0.7668  0.7137
  608TIP3   OH223458   4.694   5.478   7.836  0.4114  0.0773  0.2014
  608TIP3    H123459   4.679   5.389   7.805 -2.4793  0.2587  0.7643
  608TIP3    H223460   4.759   5.514   7.776  2.4837 -2.6485  0.5769
  609TIP3   OH223461   0.301   3.499   1.856  0.5131  0.3251 -0.1168
  609TIP3    H123462   0.389   3.489   1.821  0.6992 -0.0262  0.4388
  609TIP3    H223463   0.307   3.574   1.916  0.7369 -0.4362  0.8431
  610TIP3   OH223464   0.125   1.488   8.735  0.1144 -0.3451 -0.0010
  610TIP3    H123465   0.048   1.494   8.679 -0.3576  2.5758  0.7903
  610TIP3    H223466   0.162   1.402   8.717 -2.0044 -0.8939 -2.1261
  611TIP3   OH223467   2.134   2.482   1.894  1.0410  0.3671 -0.5511
  611TIP3    H123468   2.059   2.535   1.868 -0.4830  0.5527  3.5329
  611TIP3    H223469   2.103   2.391   1.887  0.5286  0.4277  0.7302
  612TIP3   OH223470   2.979   3.358   1.187 -0.0964 -0.3735 -0.1935
  612TIP3    H123471   2.995   3.413   1.110  0.5816 -0.2889  0.0023
  612TIP3    H223472   3.017   3.406   1.260  1.0718 -1.3658 -0.1156
  613TIP3   OH223473   3.779   6.219   7.605 -0.4189 -0.5718  0.0728
  613TIP3    H123474   3.848   6.206   7.670 -0.2166  1.4646  0.3322
  613TIP3    H223475   3.767   6.314   7.601 -1.1051 -0.6948 -2.1750
  614TIP3   OH223476   5.771   1.563   0.499 -0.0478  0.0828 -0.0690
  614TIP3    H123477   5.691   1.524   0.463 -0.6991 -0.0928  1.4832
  614TIP3    H223478   5.740   1.634   0.555  0.7781 -0.6257  1.3688
  615TIP3   OH223479   3.212   6.331   8.252  0.0137 -0.2131 -0.0385
  615TIP3    H123480   3.192   6.308   8.161  0.4671 -0.3738 -0.1040
  615TIP3    H223481   3.177   6.419   8.263 -0.9545 -0.5851 -0.0606
  616TIP3   OH223482   4.469   0.353   2.568 -0.5308  0.2096 -0.2445
  616TIP3    H123483   4.518   0.409   2.509  3.9317 -0.3054  2.5466
  616TIP3    H223484   4.490   0.264   2.539  1.0942 -0.0325  1.5481
  617TIP3   OH223485   5.969   1.175   7.680  0.6766  0.6144 -0.0689
  617TIP3    H123486   5.959   1.174   7.584  0.8612 -0.0469 -0.0836
  617TIP3    H223487   6.027   1.102   7.699 -2.1852 -1.6137  0.8586
  618TIP3   OH223488   4.266   3.088   0.093 -0.0253  0.3811  0.0100
  618TIP3    H123489   4.344   3.055   0.050  0.8101  0.1174  1.6411
  618TIP3    H223490   4.194   3.063   0.036  1.0612  0.5424 -1.4782
  619TIP3   OH223491   0.774   2.361   0.355 -0.4369  0.9857  0.2949
  619TIP3    H123492   0.734   2.375   0.440 -1.2435 -0.6974  0.2324
  619TIP3    H223493   0.706   2.320   0.302  0.8996 -0.7010 -0.2411
  620TIP3   OH223494   2.191   4.946   7.855  0.1709 -0.4338 -0.2947
  620TIP3    H123495   2.274   4.983   7.885 -0.3403 -0.4654  1.2078
  620TIP3    H223496   2.217   4.871   7.801  1.1272 -0.1840 -0.2038
  621TIP3   OH223497   6.523   1.375   1.788  0.2770 -0.2426 -0.3363
  621TIP3    H123498   6.545   1.368   1.881 -1.8740  0.4827  0.2985
  621TIP3    H223499   6.530   1.285   1.755 -0.9359 -0.8918  1.0563
  622TIP3   OH223500   0.404   6.326   0.208 -0.2632 -0.1436  0.1166
  622TIP3    H123501   0.475   6.262   0.216  0.1369 -0.1086 -2.2558
  622TIP3    H223502   0.363   6.305   0.124 -1.7526  1.1407  0.4789
  623TIP3   OH223503   3.306   1.472   2.319  0.1749 -0.2861  0.3470
  623TIP3    H123504   3.233   1.423   2.358 -0.4671  1.5069  1.5181
  623TIP3    H223505   3.268   1.556   2.294  1.0193 -0.6242 -2.5107
  624TIP3   OH223506   4.452   3.630   1.842  0.1395 -0.0552  0.2514
  624TIP3    H123507   4.429   3.585   1.923  0.7316 -1.4115 -0.3074
  624TIP3    H223508   4.533   3.588   1.814 -0.5472 -0.2610 -1.5358
  625TIP3   OH223509   0.783   2.591   2.222  0.4720  0.3615 -0.3299
  625TIP3    H123510   0.764   2.625   2.134 -0.4579 -0.1823 -0.3537
  625TIP3    H223511   0.698   2.562   2.255  0.8773  0.2016  0.6016
  626TIP3   OH223512   2.185   5.839   2.822 -0.0007  0.6934  0.4015
  626TIP3    H123513   2.091   5.844   2.809  0.2447 -0.0612 -2.2811
  626TIP3    H223514   2.217   5.926   2.799  0.2050  0.0178 -2.1428
  627TIP3   OH223515   2.580   2.036   8.494  0.5259 -0.0227  0.3986
  627TIP3    H123516   2.644   2.010   8.428  0.5359  1.4556 -0.2109
  627TIP3    H223517   2.578   2.131   8.490 -3.8881  0.0603 -1.7750
  628TIP3   OH223518   6.803   4.964   0.324  0.1329  0.0458  0.6353
  628TIP3    H123519   6.736   4.985   0.260 -0.6216 -0.0200  1.3919
  628TIP3    H223520   6.877   4.933   0.272  0.2233  1.7603 -0.3218
  629TIP3   OH223521   0.683   0.258   1.903 -0.3496 -0.1567 -0.2929
  629TIP3    H123522   0.748   0.275   1.835 -0.5383  0.0166 -0.4288
  629TIP3    H223523   0.641   0.343   1.918 -1.7354 -0.6262 -1.4158
  630TIP3   OH223524   0.002   2.393   8.688  0.9473 -0.3623  0.2345
  630TIP3    H123525  -0.077   2.359   8.646  0.2811 -0.7822  1.7537
  630TIP3    H223526  -0.023   2.478   8.722  0.6539 -1.1145  2.0111
  631TIP3   OH223527   1.931   4.736   6.828  0.4490 -0.2594 -0.0695
  631TIP3    H123528   1.893   4.706   6.910  1.0464 -0.3090  0.1966
  631TIP3    H223529   1.857   4.746   6.769 -0.1119  0.7513  0.7804
  632TIP3   OH223530   1.943   3.355   1.317  0.4633 -0.0169  0.6290
  632TIP3    H123531   1.926   3.265   1.289  0.4688  0.3887 -0.7801
  632TIP3    H223532   1.885   3.369   1.392  0.6602 -1.2647  1.0373
  633TIP3   OH223533   5.263   2.336   0.754  0.6467  0.5427 -0.3221
  633TIP3    H123534   5.235   2.427   0.746 -2.9431 -0.3447  0.5558
  633TIP3    H223535   5.283   2.309   0.664 -1.0520  1.4560 -1.0267
  634TIP3   OH223536   5.069   0.646   2.623 -0.6730 -0.4110 -0.1871
  634TIP3    H123537   5.134   0.715   2.615  0.7243 -1.6766 -0.1008
  634TIP3    H223538   4.993   0.689   2.662  0.3456  0.9593  0.3429
  635TIP3   OH223539   5.131   5.729   8.467  0.2826  0.1843 -0.7360
  635TIP3    H123540   5.116   5.724   8.373 -0.2865 -0.1785 -0.6283
  635TIP3    H223541   5.055   5.687   8.506 -0.1528  1.5323 -0.0635
  636TIP3   OH223542   6.526   2.326   1.576  0.2943  0.0704 -0.6720
  636TIP3    H123543   6.480   2.292   1.499  0.3816 -0.0438 -0.6735
  636TIP3    H223544   6.553   2.247   1.624 -1.8155  0.1008  0.7151
  637TIP3   OH223545   5.843   4.885   0.505 -0.0807 -0.2812  0.1669
  637TIP3    H123546   5.856   4.799   0.544 -1.6577 -0.3744  0.5255
  637TIP3    H223547   5.852   4.946   0.578  2.7838  0.0854 -0.3524
  638TIP3   OH223548   3.520   0.237   0.482 -0.5544  0.7141 -0.4474
  638TIP3    H123549   3.605   0.245   0.524  0.1573  1.8912 -2.0150
  638TIP3    H223550   3.481   0.159   0.522  1.2321  0.1583  0.3172
  639TIP3   OH223551   3.611   4.335   2.362 -0.2699  0.5862 -0.3052
  639TIP3    H123552   3.544   4.302   2.302 -0.7246  0.5426  0.2225
  639TIP3    H223553   3.644   4.414   2.319 -1.3862  1.1819 -0.0817
  640TIP3   OH223554   2.915   5.430   8.103 -0.0048 -0.3136 -0.0419
  640TIP3    H123555   2.886   5.371   8.033  2.8364 -1.9239 -0.0061
  640TIP3    H223556   2.838   5.438   8.160 -0.9964 -2.7988 -0.8576
  641TIP3   OH223557   0.814   3.331   0.627 -0.1436 -0.1270 -1.1849
  641TIP3    H123558   0.741   3.268   0.627  0.4711 -0.9016 -2.8227
  641TIP3    H223559   0.776   3.411   0.589 -0.5597  0.0476 -0.4284
  642TIP3   OH223560   0.864   6.079   1.251 -0.1757  0.5769  0.0531
  642TIP3    H123561   0.920   6.151   1.278  1.8400 -1.4771  1.8232
  642TIP3    H223562   0.787   6.085   1.308 -0.3049  1.5848 -0.2047
  643TIP3   OH223563   5.063   2.188   7.232 -0.1146 -0.0610 -0.4001
  643TIP3    H123564   5.015   2.180   7.150  2.5499 -1.6778 -1.9171
  643TIP3    H223565   5.096   2.100   7.250  4.0641  1.2203 -0.6983
  644TIP3   OH223566   1.490   4.583   8.537  0.6756 -0.0696  0.8268
  644TIP3    H123567   1.515   4.510   8.480 -0.3756  1.4785 -1.7729
  644TIP3    H223568   1.574   4.617   8.569  1.4870  0.0650 -1.2414
  645TIP3   OH223569   6.299   1.746   8.496  0.0622 -0.3211 -0.9056
  645TIP3    H123570   6.280   1.829   8.539 -2.1100 -1.4142  0.3907
  645TIP3    H223571   6.386   1.759   8.458  0.1647  2.2271 -0.0133
  646TIP3   OH223572   6.303   2.494   1.322 -0.5641 -0.0840  0.4049
  646TIP3    H123573   6.368   2.549   1.278  0.1643 -0.1096  1.4125
  646TIP3    H223574   6.219   2.519   1.283  0.0963 -0.4819 -1.3541
  647TIP3   OH223575   6.569   3.578   1.618  0.0307 -0.3354 -0.2797
  647TIP3    H123576   6.648   3.565   1.672  0.0643  0.5011 -0.1231
  647TIP3    H223577   6.519   3.497   1.630  0.2676 -0.3624  0.6239
  648TIP3   OH223578   4.811   2.640   1.878  0.4862 -0.4280 -0.1824
  648TIP3    H123579   4.820   2.717   1.822  0.3017  1.2892  2.0109
  648TIP3    H223580   4.889   2.640   1.932  0.3347 -1.6318  0.0817
  649TIP3   OH223581   6.739   6.556   1.863  0.3676 -0.6618 -0.6307
  649TIP3    H123582   6.691   6.583   1.785  0.4321  0.0861 -0.4208
  649TIP3    H223583   6.674   6.516   1.920  0.3981 -1.6214 -1.2406
  650TIP3   OH223584   1.574   6.614   0.513 -0.1666 -0.1676  0.3174
  650TIP3    H123585   1.578   6.575   0.600 -0.1867 -0.2711  0.2730
  650TIP3    H223586   1.536   6.545   0.458 -1.2062  0.2935  0.4495
  651TIP3   OH223587   5.124   4.592   1.679  0.1656 -0.5356 -0.0444
  651TIP3    H123588   5.051   4.617   1.622  0.5733 -0.0892 -0.3803
  651TIP3    H223589   5.194   4.568   1.619  1.3534  2.0477  0.1751
  652TIP3   OH223590   6.277   2.085   1.844  0.2987 -0.3160  0.4623
  652TIP3    H123591   6.207   2.143   1.815  1.0349  0.5082  0.3171
  652TIP3    H223592   6.322   2.134   1.913  1.5935 -0.2610 -0.3937
  653TIP3   OH223593   4.238   0.691   2.138 -0.4931  0.3576  0.2943
  653TIP3    H123594   4.172   0.711   2.205 -1.0717  0.1413 -0.1998
  653TIP3    H223595   4.306   0.642   2.185 -1.4470 -0.8159  0.5184
  654TIP3   OH223596   6.243   6.632   1.486 -0.3581 -0.1138 -0.2801
  654TIP3    H123597   6.335   6.649   1.468 -0.1114 -0.2241  0.7752
  654TIP3    H223598   6.233   6.537   1.474 -0.0892 -0.2580  0.5247
  655TIP3   OH223599   0.034   0.947   2.030  0.5974 -0.2573  0.6198
  655TIP3    H123600   0.061   1.038   2.037  1.3224 -0.2450 -1.5811
  655TIP3    H223601  -0.017   0.943   1.949  1.2277 -1.9459  0.2729
  656TIP3   OH223602   3.167   5.540   8.119 -0.2628 -0.0471  0.0642
  656TIP3    H123603   3.205   5.533   8.032  1.3931  0.0663  0.7408
  656TIP3    H223604   3.085   5.491   8.114 -0.2249  0.0217 -1.5596
  657TIP3   OH223605   1.490   2.930   0.249  0.2672 -0.0691  0.3649
  657TIP3    H123606   1.399   2.919   0.220 -0.3020  0.2108  1.9509
  657TIP3    H223607   1.536   2.854   0.213 -0.0347  0.9279 -2.3883
  658TIP3   OH223608   0.202   3.378   8.531 -0.0887  0.2613  0.4545
  658TIP3    H123609   0.270   3.310   8.535 -0.7432 -0.3772  3.3269
  658TIP3    H223610   0.131   3.338   8.480  1.0630  0.3768 -1.3068
  659TIP3   OH223611   1.077   6.150   2.295 -0.0284  0.0700  0.5159
  659TIP3    H123612   1.084   6.099   2.376 -0.1586 -1.1730 -0.2284
  659TIP3    H223613   1.007   6.213   2.312 -1.5446 -1.5696  0.6773
  660TIP3   OH223614   4.712   5.937   3.104  0.3476  0.4064  0.3341
  660TIP3    H123615   4.769   5.865   3.077  1.4910  1.2224  0.5175
  660TIP3    H223616   4.625   5.912   3.073  0.9653 -0.4384 -0.7531
  661TIP3   OH223617   0.304   4.920   2.195  0.2430  0.2967 -0.1488
  661TIP3    H123618   0.392   4.890   2.215  0.2688 -0.2078 -0.9993
  661TIP3    H223619   0.274   4.961   2.276  1.4727  1.0104 -0.0304
  662TIP3   OH223620   2.911   1.883   1.017 -0.0250  0.2418  0.2922
  662TIP3    H123621   2.997   1.850   0.991 -0.9236 -0.7562 -1.5996
  662TIP3    H223622   2.865   1.898   0.934 -1.9931 -0.1009  1.2671
  663TIP3   OH223623   6.103   3.584   2.397  0.2435 -0.2582  0.3005
  663TIP3    H123624   6.100   3.675   2.366  0.3113 -0.3324  0.0716
  663TIP3    H223625   6.042   3.582   2.470  1.4939  0.3796  1.4055
  664TIP3   OH223626   5.279   2.770   1.604 -0.1064  0.3312 -0.1451
  664TIP3    H123627   5.323   2.854   1.607  1.5259 -0.4810 -0.3394
  664TIP3    H223628   5.274   2.749   1.511 -0.6073  0.2556 -0.1041
  665TIP3   OH223629   0.339   5.422   8.739 -0.1503 -0.5658  0.2784
  665TIP3    H123630   0.405   5.428   8.671  0.0996  0.8534  0.6157
  665TIP3    H223631   0.263   5.469   8.704 -0.1317 -0.1045  0.8284
  666TIP3   OH223632   0.148   5.442   1.142  0.3114  0.1378 -0.4338
  666TIP3    H123633   0.087   5.419   1.071  2.2434  1.1692 -2.5829
  666TIP3    H223634   0.212   5.371   1.142 -0.2205 -0.3699  1.0404
  667TIP3   OH223635   5.153   2.612   1.128 -0.8161 -0.4687  0.2835
  667TIP3    H123636   5.225   2.569   1.082 -0.4391 -0.4625  0.8521
  667TIP3    H223637   5.090   2.634   1.060  0.6365  1.3934 -0.5364
  668TIP3   OH223638   1.998   2.532   0.442  0.2711  0.0209 -0.1034
  668TIP3    H123639   1.912   2.570   0.455  0.8330  1.5954 -0.6902
  668TIP3    H223640   1.984   2.462   0.378 -0.4336  0.9669 -1.0322
  669TIP3   OH223641   4.610   0.361   7.774 -0.0871  0.6608 -0.4986
  669TIP3    H123642   4.584   0.432   7.832  2.3212 -0.2794  1.9469
  669TIP3    H223643   4.622   0.403   7.688 -0.0933  2.9247  0.5489
  670TIP3   OH223644   0.104   3.041   1.868 -0.0975 -0.5215  0.3144
  670TIP3    H123645   0.070   3.077   1.950 -1.2604 -0.0819 -0.3413
  670TIP3    H223646   0.027   3.009   1.822  0.6655 -1.7414 -0.1584
  671TIP3   OH223647   4.393   0.968   2.671 -0.1670 -0.1112  0.2107
  671TIP3    H123648   4.401   0.876   2.693  0.0893  0.0175  0.6637
  671TIP3    H223649   4.422   1.015   2.749  2.3833  0.3757 -0.9387
  672TIP3   OH223650   0.541   5.535   1.771 -0.1036 -0.4868 -0.5411
  672TIP3    H123651   0.452   5.516   1.801 -0.2669 -0.4504 -0.9924
  672TIP3    H223652   0.537   5.626   1.740 -0.0076 -0.6221 -0.9447
  673TIP3   OH223653   3.303   0.873   7.944 -0.3265  0.5040  0.4097
  673TIP3    H123654   3.374   0.869   7.880 -0.0772  2.2194  0.5296
  673TIP3    H223655   3.240   0.935   7.906 -3.1161 -2.8317 -0.9487
  674TIP3   OH223656   5.789   5.346   0.427  0.0258  0.1438  0.3968
  674TIP3    H123657   5.870   5.296   0.415 -0.3872 -0.3618 -0.3671
  674TIP3    H223658   5.722   5.293   0.384 -0.4548  1.2533 -0.2453
  675TIP3   OH223659   4.622   5.614   8.838  0.1043  0.1355 -0.2559
  675TIP3    H123660   4.688   5.641   8.901 -2.1291 -1.1164  2.8904
  675TIP3    H223661   4.612   5.690   8.780  2.9144  1.0101  0.2844
  676TIP3   OH223662   3.306   3.939   2.852 -0.1549  0.6986 -0.3120
  676TIP3    H123663   3.343   3.851   2.859  0.5192  0.7135 -2.7768
  676TIP3    H223664   3.217   3.931   2.885 -0.2431 -1.0349 -0.8808
  677TIP3   OH223665   4.821   0.432   0.082 -0.4750 -0.1682  0.2717
  677TIP3    H123666   4.740   0.388   0.108 -1.4942  1.3925 -0.1048
  677TIP3    H223667   4.847   0.389   0.001 -1.1678 -0.4223  0.1736
  678TIP3   OH223668   4.019   0.917   0.155  0.0892  0.2549 -0.2731
  678TIP3    H123669   3.971   0.930   0.073 -0.8157  1.4401  0.4140
  678TIP3    H223670   3.961   0.952   0.223  1.2212  0.1701  0.7702
  679TIP3   OH223671   0.470   2.480   0.215  0.6910  0.5164 -0.2306
  679TIP3    H123672   0.422   2.560   0.193  1.9443  0.6760 -2.8268
  679TIP3    H223673   0.471   2.430   0.133  1.8184 -1.1450  0.7434
  680TIP3   OH223674   3.253   5.913   8.134  0.2919  0.4856 -0.4603
  680TIP3    H123675   3.194   5.988   8.142 -1.5441 -0.6819 -2.0500
  680TIP3    H223676   3.220   5.850   8.198  0.8909  0.4489 -0.1809
  681TIP3   OH223677   3.716   0.866   2.176 -0.6647  0.1635 -0.0019
  681TIP3    H123678   3.622   0.881   2.191 -0.4320  1.7060  0.0096
  681TIP3    H223679   3.738   0.794   2.236 -2.2869 -1.7763 -1.5984
  682TIP3   OH223680   0.602   1.160   2.268  0.7913  0.6373 -0.0014
  682TIP3    H123681   0.516   1.200   2.276  1.1494  1.2592  0.9099
  682TIP3    H223682   0.587   1.081   2.216 -0.5508  0.0712  1.1757
  683TIP3   OH223683   3.474   0.525   8.806  0.3946 -0.4330  0.1216
  683TIP3    H123684   3.484   0.466   8.731  1.0096 -1.8385  1.2757
  683TIP3    H223685   3.555   0.517   8.855 -0.0519  0.3600  1.0274
  684TIP3   OH223686   1.082   4.420   8.483 -0.3862  0.2573 -0.3707
  684TIP3    H123687   1.050   4.380   8.402  1.6744 -0.7503 -0.7436
  684TIP3    H223688   1.010   4.476   8.512 -1.3850  0.2163 -2.5894
  685TIP3   OH223689   2.429   2.268   8.759  0.2076 -0.7598  0.2571
  685TIP3    H123690   2.515   2.240   8.729  0.4956  1.4360 -1.2241
  685TIP3    H223691   2.429   2.251   8.853  3.5874  2.1589  0.9761
  686TIP3   OH223692   4.103   5.316   7.821  0.4278 -0.0923 -0.2027
  686TIP3    H123693   4.039   5.361   7.875 -0.1962 -0.2771 -0.7814
  686TIP3    H223694   4.067   5.318   7.733  1.9768  1.2644 -0.8600
  687TIP3   OH223695   5.388   0.984   8.246  0.5872 -0.1621  0.3128
  687TIP3    H123696   5.391   0.928   8.324  0.3588 -0.1699  0.3175
  687TIP3    H223697   5.354   0.928   8.177 -1.3065  0.4265  0.7248
  688TIP3   OH223698   4.825   0.599   0.322  0.0826  0.2704 -0.3067
  688TIP3    H123699   4.785   0.560   0.245  0.1871 -1.4965  0.4676
  688TIP3    H223700   4.919   0.597   0.304  0.0540  0.7927 -0.5306
  689TIP3   OH223701   6.477   5.214   1.112 -0.6226  0.2283 -0.1191
  689TIP3    H123702   6.535   5.203   1.187  1.7223  2.1414 -1.4616
  689TIP3    H223703   6.532   5.192   1.036 -0.8047  4.0955 -1.6136
  690TIP3   OH223704   3.907   2.711   0.593 -0.1367 -0.4698  0.9995
  690TIP3    H123705   3.862   2.683   0.673 -1.1088  3.0758  1.8550
  690TIP3    H223706   3.853   2.782   0.558  1.5085 -0.3362 -1.5667
  691TIP3   OH223707   6.400   2.783   2.020 -0.0055  0.7850 -0.3409
  691TIP3    H123708   6.366   2.717   1.959 -0.7802 -0.2740  1.1578
  691TIP3    H223709   6.399   2.864   1.970 -0.6376 -0.0348 -1.7302
  692TIP3   OH223710   6.774   4.281   0.228 -0.5497  0.1795  0.4004
  692TIP3    H123711   6.696   4.249   0.274  0.1795 -0.2467  1.3586
  692TIP3    H223712   6.845   4.225   0.258  0.1383  0.5456 -0.4928
  693TIP3   OH223713   6.484   6.014   1.003  0.4613 -0.0418 -0.1638
  693TIP3    H123714   6.427   6.028   0.927 -0.2001  0.4595  0.4030
  693TIP3    H223715   6.562   6.067   0.984  0.3821 -0.0728 -0.5816
  694TIP3   OH223716   5.894   0.394   7.645  0.3804  0.4147 -0.1734
  694TIP3    H123717   5.972   0.440   7.614  1.6235 -1.6625 -0.3497
  694TIP3    H223718   5.922   0.303   7.655 -1.6962 -0.1738  1.0122
  695TIP3   OH223719   6.607   5.612   1.670 -0.3049  0.1272 -0.1617
  695TIP3    H123720   6.624   5.549   1.739 -0.4287  1.5599  1.2483
  695TIP3    H223721   6.689   5.618   1.621  1.0214  1.6198  2.0568
  696TIP3   OH223722   6.429   0.675   0.779 -0.0038  0.3844 -0.1632
  696TIP3    H123723   6.487   0.682   0.855 -0.9449  0.9221  0.5316
  696TIP3    H223724   6.403   0.583   0.777  0.2974  0.2962 -0.0384
  697TIP3   OH223725   4.337   5.643   1.366  0.5566  0.0905  0.2545
  697TIP3    H123726   4.267   5.580   1.383 -0.2669  0.6710 -0.8792
  697TIP3    H223727   4.417   5.589   1.366  0.2051 -0.5015  2.0340
  698TIP3   OH223728   3.130   6.657   7.182 -0.5365  0.2021 -0.4630
  698TIP3    H123729   3.133   6.638   7.088 -1.9324 -0.8185 -0.3245
  698TIP3    H223730   3.037   6.662   7.203 -0.3104 -1.8328  1.2881
  699TIP3   OH223731   0.856   5.398   7.439  0.5545 -0.3741 -0.2973
  699TIP3    H123732   0.777   5.439   7.405  0.5031  1.2385  1.5948
  699TIP3    H223733   0.917   5.398   7.365 -1.2009 -1.7711 -1.8143
  700TIP3   OH223734   5.964   6.493   1.709  0.9485  0.2432  0.7088
  700TIP3    H123735   5.980   6.399   1.716 -0.6017 -0.1456 -0.5124
  700TIP3    H223736   6.010   6.519   1.630  0.2762  0.2303  0.3060
  701TIP3   OH223737   6.319   5.332   7.769 -0.1902  1.0559  0.0391
  701TIP3    H123738   6.393   5.362   7.823  1.4684  0.8210 -1.9876
  701TIP3    H223739   6.303   5.404   7.709 -0.3656  0.3655 -0.7542
  702TIP3   OH223740   2.542   0.254   0.994 -0.3063  0.0518 -0.0851
  702TIP3    H123741   2.544   0.172   1.044  1.9667  0.3461  0.4030
  702TIP3    H223742   2.461   0.296   1.022  0.1985 -0.4290  2.3560
  703TIP3   OH223743   1.280   0.458   0.553 -0.9182  0.1784  0.0511
  703TIP3    H123744   1.260   0.542   0.512 -0.2562  0.8680  1.0905
  703TIP3    H223745   1.361   0.429   0.511 -0.8277  0.3481  0.1099
  704TIP3   OH223746   4.329   5.521   7.650 -0.6085  0.0506  0.1408
  704TIP3    H123747   4.422   5.536   7.629 -0.8233  0.9692 -0.2159
  704TIP3    H223748   4.290   5.491   7.568 -0.6067 -0.4159  0.3125
  705TIP3   OH223749   2.150   0.451   6.583  0.3777 -0.0100  0.0845
  705TIP3    H123750   2.072   0.488   6.542 -0.1958 -0.3884  0.7932
  705TIP3    H223751   2.141   0.474   6.676  1.5963  0.7631  0.0413
  706TIP3   OH223752   4.721   2.557   8.283 -0.3214  0.2891 -0.2102
  706TIP3    H123753   4.745   2.542   8.374 -0.8676 -1.1551 -0.2816
  706TIP3    H223754   4.644   2.615   8.287 -0.8219 -0.3977  0.2889
  707TIP3   OH223755   1.637   6.347   8.202 -0.1436  0.0567 -0.9331
  707TIP3    H123756   1.575   6.285   8.240  0.0881  0.9036  0.8907
  707TIP3    H223757   1.697   6.369   8.273  0.1134  1.9473 -1.6709
  708TIP3   OH223758   2.525   5.919   7.434 -0.4304 -0.4585 -0.3012
  708TIP3    H123759   2.617   5.895   7.425  0.1681  1.9180 -1.3569
  708TIP3    H223760   2.482   5.879   7.358 -0.5038 -2.3306  0.6726
  709TIP3   OH223761   5.857   2.379   7.433  0.3907 -0.0617  0.2228
  709TIP3    H123762   5.764   2.398   7.445  0.4930 -0.6847  2.4814
  709TIP3    H223763   5.875   2.405   7.343 -1.9338  0.1749 -0.2447
  710TIP3   OH223764   1.001   4.345   7.981 -0.5761 -0.8817  0.3811
  710TIP3    H123765   1.004   4.392   7.898  0.2299  0.0781  0.9384
  710TIP3    H223766   1.063   4.273   7.969 -1.0420 -1.2106 -0.1100
  711TIP3   OH223767   0.855   4.705   1.437  0.5208 -0.1995 -0.4769
  711TIP3    H123768   0.871   4.620   1.396  0.6982  0.1401 -1.1357
  711TIP3    H223769   0.857   4.767   1.364 -3.1348 -0.0218 -0.6253
  712TIP3   OH223770   0.681   6.580   0.780  0.3185 -0.7364  0.3170
  712TIP3    H123771   0.686   6.491   0.746  2.0614  0.0902 -1.8248
  712TIP3    H223772   0.762   6.622   0.750 -1.8070  2.4754 -1.5483
  713TIP3   OH223773   6.103   6.810   1.306 -0.2678 -0.6745  0.0987
  713TIP3    H123774   6.015   6.774   1.294 -0.1596 -0.5876 -0.9639
  713TIP3    H223775   6.146   6.748   1.366  0.3244 -3.0919 -2.6317
  714TIP3   OH223776   0.427   2.529   1.416 -0.1430  0.3883 -0.5445
  714TIP3    H123777   0.354   2.580   1.453 -0.8658 -0.4907 -0.7208
  714TIP3    H223778   0.492   2.595   1.391 -1.2655  1.2741 -1.2323
  715TIP3   OH223779   6.505   4.012   3.194  0.0531 -0.1119  0.6409
  715TIP3    H123780   6.416   4.030   3.163  0.6491  1.1464 -0.4331
  715TIP3    H223781   6.548   3.972   3.118  0.8660  0.7951  0.6169
  716TIP3   OH223782   2.421   0.225   8.160 -0.2921 -0.2072 -0.2874
  716TIP3    H123783   2.448   0.313   8.185 -1.9471  0.1895  0.2629
  716TIP3    H223784   2.359   0.198   8.228  1.3958 -2.4962  0.4806
  717TIP3   OH223785   0.719   6.220   1.030  0.6105 -0.3965 -0.5751
  717TIP3    H123786   0.744   6.172   1.109  1.6513  1.1338  0.0852
  717TIP3    H223787   0.773   6.299   1.032  0.4474 -0.1640 -2.6811
  718TIP3   OH223788   2.518   2.589   0.587 -0.1358 -0.3911 -0.1005
  718TIP3    H123789   2.452   2.602   0.656 -1.5069  0.5929 -1.5289
  718TIP3    H223790   2.569   2.670   0.588 -2.5055  1.3492 -2.5498
  719TIP3   OH223791   2.945   5.592   7.880 -0.4053  0.1628  0.2807
  719TIP3    H123792   2.945   5.555   7.968 -2.7880  1.3237  0.8244
  719TIP3    H223793   2.872   5.549   7.836 -1.2414  1.8508 -0.0731
  720TIP3   OH223794   3.482   1.727   2.192  0.1175 -0.6602 -0.4096
  720TIP3    H123795   3.396   1.753   2.223  0.4050 -0.0409 -0.1216
  720TIP3    H223796   3.534   1.807   2.196  1.4648 -1.5654  1.9525
  721TIP3   OH223797   0.642   2.067   8.008  0.0170 -0.4807 -0.2054
  721TIP3    H123798   0.668   2.058   8.100 -0.5324 -0.6520 -0.0618
  721TIP3    H223799   0.572   2.002   7.997 -0.0453 -0.3306 -0.6942
  722TIP3   OH223800   2.992   1.342   8.508  0.3761 -0.1057 -0.3857
  722TIP3    H123801   3.079   1.345   8.470  0.4771 -1.6003 -0.3148
  722TIP3    H223802   2.964   1.251   8.499 -0.5630  0.0080  0.9457
  723TIP3   OH223803   3.337   6.791   1.526 -0.5005 -0.2748 -0.4228
  723TIP3    H123804   3.414   6.782   1.469 -1.2584 -4.6381 -1.0934
  723TIP3    H223805   3.374   6.799   1.614  0.7727 -1.4177 -0.8200
  724TIP3   OH223806   1.608   0.759   7.784 -0.4882  0.2428 -0.2021
  724TIP3    H123807   1.636   0.822   7.717  0.0940 -0.5687 -0.7588
  724TIP3    H223808   1.513   0.766   7.785 -0.4274  1.2176 -0.1575
  725TIP3   OH223809   5.904   0.417   7.327 -0.3181 -0.0151 -0.2573
  725TIP3    H123810   5.970   0.433   7.394 -2.6172 -0.4277  2.3169
  725TIP3    H223811   5.877   0.505   7.298  0.6309  0.1710 -0.5943
  726TIP3   OH223812   5.257   4.780   8.462 -0.1836  0.7142  0.2138
  726TIP3    H123813   5.233   4.871   8.480  0.2278  0.3105  3.4354
  726TIP3    H223814   5.212   4.730   8.531  2.0860 -1.1439  0.4468
  727TIP3   OH223815   1.078   0.386   1.480 -0.3909 -0.8856  0.0952
  727TIP3    H123816   1.095   0.306   1.532  1.2079 -0.0433  0.9577
  727TIP3    H223817   1.164   0.425   1.469 -0.9871  0.0476 -1.4889
  728TIP3   OH223818   6.426   6.666   0.446  0.6258 -0.3411 -0.1993
  728TIP3    H123819   6.396   6.583   0.409  0.8754 -0.7412  0.4736
  728TIP3    H223820   6.513   6.679   0.407 -0.0962  0.4676 -1.6078
  729TIP3   OH223821   3.434   2.589   8.825 -0.3258  0.2254 -0.2952
  729TIP3    H123822   3.376   2.554   8.757 -0.3395  0.7261 -0.5461
  729TIP3    H223823   3.499   2.520   8.839 -2.0203 -1.1541  1.3088
  730TIP3   OH223824   4.693   5.639   2.439  0.7695 -0.1230  0.0619
  730TIP3    H123825   4.679   5.599   2.524 -0.1791  1.3479  0.6414
  730TIP3    H223826   4.788   5.639   2.427  0.8429 -1.5478  0.4904
  731TIP3   OH223827   6.245   4.226   0.671 -0.2192  0.1564 -0.3517
  731TIP3    H123828   6.294   4.156   0.713  0.5293  1.0111  0.2439
  731TIP3    H223829   6.188   4.182   0.609  1.7016 -0.8698 -1.4954
  732TIP3   OH223830   5.345   3.569   2.217 -0.1632  0.2092 -0.3116
  732TIP3    H123831   5.404   3.543   2.288 -1.4563 -0.0882  0.6806
  732TIP3    H223832   5.307   3.651   2.246 -1.0815 -0.1635 -0.4270
  733TIP3   OH223833   3.187   4.651   8.481 -0.3814  0.0644  0.1983
  733TIP3    H123834   3.245   4.678   8.410  0.2008 -1.0992  0.1997
  733TIP3    H223835   3.106   4.626   8.438 -0.8644  1.5711  0.1816
  734TIP3   OH223836   5.056   1.567   0.290  0.0080  0.2772 -0.2399
  734TIP3    H123837   5.051   1.484   0.337  0.3967  1.3616  1.8792
  734TIP3    H223838   5.129   1.613   0.331  0.6003  1.2088 -2.2073
  735TIP3   OH223839   1.923   3.959   0.627  0.4189  0.0907  0.1713
  735TIP3    H123840   1.876   3.884   0.591  0.2319  1.4471 -2.6448
  735TIP3    H223841   1.948   3.931   0.715 -1.4136 -2.4754 -0.0073
  736TIP3   OH223842   5.343   1.296   1.462 -0.0606  0.2888 -0.6736
  736TIP3    H123843   5.372   1.386   1.451 -0.8027  0.7559  0.8915
  736TIP3    H223844   5.262   1.303   1.514  1.5127 -1.3988  2.2842
  737TIP3   OH223845   4.082   5.839   8.052  0.2587  0.6491  0.0509
  737TIP3    H123846   4.082   5.884   8.136  1.8482  1.9403 -0.5849
  737TIP3    H223847   4.112   5.750   8.071  0.5605  0.9177  0.8414
  738TIP3   OH223848   3.122   3.315   2.717 -0.0703  0.5154  0.2143
  738TIP3    H123849   3.052   3.370   2.683  0.7689  0.4905 -1.6962
  738TIP3    H223850   3.203   3.359   2.689  0.6399 -0.4828  0.6358
  739TIP3   OH223851   2.949   6.167   7.805 -0.2776  0.8147 -0.5741
  739TIP3    H123852   2.870   6.139   7.757  0.9370  1.7524 -3.3024
  739TIP3    H223853   3.014   6.100   7.783 -0.0613  0.4621  1.0451
  740TIP3   OH223854   0.189   5.469   7.031  0.4515 -1.0241 -0.4813
  740TIP3    H123855   0.254   5.538   7.037  0.2235 -0.8101 -0.4585
  740TIP3    H223856   0.124   5.490   7.098 -1.3655  0.5961 -2.6160
  741TIP3   OH223857   2.776   3.215   1.287 -0.7487 -0.4200 -1.0367
  741TIP3    H123858   2.844   3.265   1.243 -0.2802 -0.9070 -0.8845
  741TIP3    H223859   2.784   3.127   1.251 -0.4329 -0.7984 -0.0807
  742TIP3   OH223860   6.235   5.598   0.624  0.0160  0.3798  0.1283
  742TIP3    H123861   6.196   5.511   0.628  1.3988 -0.3048 -0.5178
  742TIP3    H223862   6.181   5.646   0.561  0.4124 -0.6616 -1.0416
  743TIP3   OH223863   4.342   1.171   1.859  0.2910  0.2095 -0.1916
  743TIP3    H123864   4.417   1.190   1.803  0.8372  0.7823  0.7032
  743TIP3    H223865   4.348   1.077   1.876 -0.2445 -0.0906 -1.5856
  744TIP3   OH223866   1.541   5.183   0.342 -0.6023 -0.1321  0.1865
  744TIP3    H123867   1.600   5.130   0.395 -0.3662 -0.4552 -0.3896
  744TIP3    H223868   1.590   5.201   0.262 -1.0126  0.2170  0.0111
  745TIP3   OH223869   0.784   0.878   8.268  0.1815  0.0098 -0.0966
  745TIP3    H123870   0.706   0.838   8.229 -0.5068  2.1868 -1.1608
  745TIP3    H223871   0.851   0.811   8.260 -0.9677 -1.0642 -1.4347
  746TIP3   OH223872   3.746   4.559   2.282  0.2248  0.2876  0.2475
  746TIP3    H123873   3.840   4.567   2.301 -0.4263  2.1057  3.2716
  746TIP3    H223874   3.738   4.589   2.191  2.4895  0.6195  0.1030
  747TIP3   OH223875   5.073   2.068   0.324  0.5318  0.4354 -0.1782
  747TIP3    H123876   5.003   2.131   0.334  0.7323  0.5985  0.2476
  747TIP3    H223877   5.036   1.998   0.270  0.5291  1.2379 -1.2443
  748TIP3   OH223878   1.562   4.020   7.765  0.0481  0.2625 -1.2191
  748TIP3    H123879   1.614   4.045   7.689  1.5552  0.8174 -0.0385
  748TIP3    H223880   1.590   4.079   7.834 -1.3445 -0.1844 -0.2224
  749TIP3   OH223881   4.040   6.516   8.446 -0.3042  0.1217 -0.1633
  749TIP3    H123882   4.084   6.444   8.490  0.4693  0.4284 -0.4187
  749TIP3    H223883   3.949   6.487   8.437 -0.1005 -0.6286  0.1304
  750TIP3   OH223884   5.822   5.805   1.674 -0.0090 -0.1873 -0.5695
  750TIP3    H123885   5.880   5.738   1.710 -1.1289 -0.8649  0.0357
  750TIP3    H223886   5.799   5.772   1.587 -0.9189 -0.8336 -0.0955
  751TIP3   OH223887   0.685   4.941   0.494  0.4503  0.0716  0.2274
  751TIP3    H123888   0.691   5.037   0.491 -1.4475  0.2272 -0.0970
  751TIP3    H223889   0.710   4.919   0.583 -2.6933  1.2875  1.5711
  752TIP3   OH223890   1.137   6.444   7.201 -0.2164  0.2941 -0.8982
  752TIP3    H123891   1.211   6.420   7.257 -0.4582 -2.5229 -1.5971
  752TIP3    H223892   1.167   6.523   7.155  1.6334  0.2732  0.1489
  753TIP3   OH223893   3.065   0.314   8.520  0.1670 -0.2842  0.2620
  753TIP3    H123894   2.985   0.358   8.547  1.0320  1.5073  0.0293
  753TIP3    H223895   3.134   0.352   8.575  1.0533 -0.8156 -0.4386
  754TIP3   OH223896   3.187   2.723   0.540  0.4515 -0.3520  0.0560
  754TIP3    H123897   3.141   2.665   0.601  2.4431  0.8513  2.9495
  754TIP3    H223898   3.262   2.672   0.511  0.3769 -0.3703 -0.1061
  755TIP3   OH223899   4.757   5.211   8.818 -0.1855  0.6067  0.3059
  755TIP3    H123900   4.700   5.277   8.779 -1.8558 -0.7086  0.4055
  755TIP3    H223901   4.702   5.167   8.883  1.4675  0.3970  1.6447
  756TIP3   OH223902   6.102   2.766   1.049 -0.5269 -0.2163 -0.5737
  756TIP3    H123903   6.175   2.774   0.987 -1.1749 -1.0740 -1.4787
  756TIP3    H223904   6.073   2.857   1.062 -0.0773  0.0225 -1.1552
  757TIP3   OH223905   4.817   3.527   8.015  0.5685  0.6590  0.1385
  757TIP3    H123906   4.883   3.574   7.965  1.1029  1.1292  1.2565
  757TIP3    H223907   4.849   3.528   8.105  0.3260 -1.3701  0.2993
  758TIP3   OH223908   6.051   1.531   8.491 -0.3399  0.6321 -0.7547
  758TIP3    H123909   6.008   1.512   8.574  0.9728 -2.9574 -0.6959
  758TIP3    H223910   6.121   1.592   8.513 -0.2831  0.0709  0.7463
  759TIP3   OH223911   2.991   3.765   7.692 -1.0704  0.2062 -0.1716
  759TIP3    H123912   2.999   3.669   7.694 -2.8171 -0.0944  4.2544
  759TIP3    H223913   2.898   3.781   7.682 -0.8569  1.4317 -0.2974
  760TIP3   OH223914   1.882   5.304   0.563 -0.1432 -0.4683  0.1216
  760TIP3    H123915   1.935   5.225   0.560 -0.3144 -0.6124  0.7644
  760TIP3    H223916   1.814   5.290   0.497  0.8978 -0.0581 -1.0852
  761TIP3   OH223917   4.807   5.746   0.874  0.5407  0.8765 -0.7014
  761TIP3    H123918   4.862   5.714   0.802  0.2933  2.3850 -1.6173
  761TIP3    H223919   4.867   5.756   0.948  0.5991 -1.6971 -0.3272
  762TIP3   OH223920   2.896   2.808   0.257 -0.7081 -0.3806 -0.0364
  762TIP3    H123921   2.851   2.848   0.182 -0.2653 -0.8883 -0.5895
  762TIP3    H223922   2.834   2.744   0.291 -0.9177 -0.1365  0.0404
  763TIP3   OH223923   3.609   3.333   7.552 -0.1559  0.5870 -0.1029
  763TIP3    H123924   3.628   3.324   7.458  2.7902 -1.9167  0.5491
  763TIP3    H223925   3.523   3.293   7.563 -0.2006  0.1791 -1.6288
  764TIP3   OH223926   1.579   0.698   8.733 -0.3495  0.0927 -0.2218
  764TIP3    H123927   1.570   0.780   8.781  2.6023 -0.1872  0.9979
  764TIP3    H223928   1.586   0.724   8.641 -1.4697  1.0016 -0.0687
  765TIP3   OH223929   1.140   2.355   2.489 -0.6718  0.1805 -0.5691
  765TIP3    H123930   1.205   2.407   2.536 -1.2641  0.6091 -0.2008
  765TIP3    H223931   1.069   2.343   2.552  0.8089 -4.0329  0.5962
  766TIP3   OH223932   1.327   2.673   8.554 -0.4959 -0.2121 -0.1099
  766TIP3    H123933   1.401   2.725   8.585 -1.7868  0.5876  1.7650
  766TIP3    H223934   1.250   2.714   8.594 -1.9870 -1.0163 -1.9898
  767TIP3   OH223935   0.602   2.204   0.193  0.1948  0.3437 -0.4761
  767TIP3    H123936   0.662   2.225   0.121 -0.3701 -0.4491 -1.2037
  767TIP3    H223937   0.514   2.214   0.155 -0.1085 -0.4500 -0.0180
  768TIP3   OH223938   4.923   5.927   6.613 -0.4259  0.1136  0.0058
  768TIP3    H123939   4.983   5.854   6.625 -0.8162 -0.2291 -0.1051
  768TIP3    H223940   4.847   5.906   6.667 -2.0380 -1.2747 -2.5875
  769TIP3   OH223941   5.377   1.185   0.648  0.2008  0.2684 -0.2247
  769TIP3    H123942   5.381   1.101   0.694 -1.7297  1.1712  1.7669
  769TIP3    H223943   5.467   1.203   0.622  0.6464 -2.4664 -0.8857
  770TIP3   OH223944   3.684   0.687   1.854 -0.1031 -0.1382  0.3122
  770TIP3    H123945   3.742   0.673   1.779 -0.5727 -1.4042  0.1662
  770TIP3    H223946   3.597   0.694   1.817 -0.3984 -1.2231  0.7532
  771TIP3   OH223947   2.453   4.191   2.655  0.0672 -0.1418  0.0164
  771TIP3    H123948   2.538   4.212   2.618 -0.0211 -1.8678 -1.2706
  771TIP3    H223949   2.399   4.268   2.636  0.4186 -0.4076 -2.2454
  772TIP3   OH223950   5.059   4.434   1.422 -0.8789 -0.0406  0.1066
  772TIP3    H123951   5.014   4.460   1.342 -2.2382  0.6417  1.0528
  772TIP3    H223952   4.988   4.411   1.483  0.0806  0.1721  1.3468
  773TIP3   OH223953   0.099   5.882   1.238  0.0140  0.5488 -0.4356
  773TIP3    H123954   0.125   5.849   1.324  1.3093  1.7729 -0.3174
  773TIP3    H223955   0.006   5.903   1.248  0.1397  0.6790  0.6795
  774TIP3   OH223956   4.493   3.373   8.362  0.5896 -0.3859  0.1834
  774TIP3    H123957   4.567   3.326   8.401  0.8568 -0.6533 -0.6179
  774TIP3    H223958   4.476   3.327   8.280 -1.5834 -1.4143  1.1265
  775TIP3   OH223959   3.566   6.729   7.514  0.1239  0.2000 -0.3027
  775TIP3    H123960   3.656   6.752   7.535  0.0119  0.3125  0.0623
  775TIP3    H223961   3.573   6.650   7.460  0.3861 -0.4685  0.6828
  776TIP3   OH223962   4.842   3.484   8.640 -0.6136 -0.4711 -0.0900
  776TIP3    H123963   4.924   3.519   8.676 -0.5480  0.2780 -0.9431
  776TIP3    H223964   4.849   3.390   8.653  1.0759 -0.5970 -1.4762
  777TIP3   OH223965   3.963   3.118   1.842  0.4802 -0.3706  0.2885
  777TIP3    H123966   4.028   3.174   1.885  1.2492 -1.0559  0.0226
  777TIP3    H223967   4.012   3.044   1.808  0.0621  0.5437 -2.5980
  778TIP3   OH223968   1.613   6.002   8.679 -0.6539  0.7169  0.1379
  778TIP3    H123969   1.542   6.057   8.713 -0.1765  0.8902  0.8934
  778TIP3    H223970   1.687   6.021   8.737 -0.5394 -0.8835  0.5589
  779TIP3   OH223971   2.274   5.604   2.744  0.1904  0.8346 -0.5106
  779TIP3    H123972   2.188   5.619   2.706 -0.0656  0.0778 -0.2382
  779TIP3    H223973   2.277   5.662   2.820 -0.1349  0.7558 -0.4378
  780TIP3   OH223974   4.918   4.454   1.889  0.0380  0.0110 -0.4584
  780TIP3    H123975   4.868   4.388   1.842 -0.6368 -0.1689  0.4835
  780TIP3    H223976   4.915   4.531   1.832 -0.8738 -0.1616 -0.6571
  781TIP3   OH223977   5.371   4.006   0.666 -0.5178  0.7423  0.5076
  781TIP3    H123978   5.315   4.080   0.691 -1.1251  0.1225  0.9906
  781TIP3    H223979   5.401   3.970   0.749  1.9315  2.0299  0.2788
  782TIP3   OH223980   4.291   4.040   8.698 -1.0711  0.4727  0.1617
  782TIP3    H123981   4.373   4.083   8.672 -0.7695  0.4372  1.0230
  782TIP3    H223982   4.259   3.998   8.618 -0.0543  0.1716 -0.0933
  783TIP3   OH223983   5.350   4.450   0.790  0.2888  0.0874  0.3612
  783TIP3    H123984   5.349   4.372   0.734  0.3878 -0.0576  0.5612
  783TIP3    H223985   5.258   4.474   0.799  0.3894  2.0950 -2.6202
  784TIP3   OH223986   5.182   4.500   2.329  0.4424  0.2785  0.2446
  784TIP3    H123987   5.210   4.509   2.420  0.7013 -2.3825  0.5219
  784TIP3    H223988   5.247   4.442   2.289 -0.3072  0.4607 -1.3253
  785TIP3   OH223989   1.997   6.210   0.555 -0.3151  0.2687  0.3263
  785TIP3    H123990   1.974   6.119   0.540 -0.8066  0.4939 -0.3484
  785TIP3    H223991   2.062   6.208   0.625 -0.4612 -0.5801  0.4396
  786TIP3   OH223992   5.282   2.825   0.945 -0.3470  0.4424  0.4163
  786TIP3    H123993   5.349   2.807   0.879 -1.7461 -1.9592 -0.4865
  786TIP3    H223994   5.320   2.791   1.027  0.0874  0.3748  0.1930
  787TIP3   OH223995   1.878   0.564   2.923 -0.1176  0.3046 -0.3268
  787TIP3    H123996   1.805   0.624   2.939 -0.4904 -0.0830 -0.5183
  787TIP3    H223997   1.955   0.620   2.915 -0.3464  0.6996  0.1765
  788TIP3   OH223998   3.415   0.772   8.195  0.1837 -0.4785 -0.3591
  788TIP3    H123999   3.374   0.823   8.125  4.4345  1.4817 -1.7829
  788TIP3    H224000   3.454   0.697   8.151  2.0843  0.2652 -0.0560
  789TIP3   OH224001   5.327   6.586   8.148 -0.1434 -0.1183  0.3021
  789TIP3    H124002   5.315   6.679   8.132 -0.2624 -0.3822 -1.3002
  789TIP3    H224003   5.314   6.545   8.063  0.5566 -1.5421  0.8446
  790TIP3   OH224004   5.333   4.130   1.099 -0.0098 -0.6881 -0.4061
  790TIP3    H124005   5.408   4.132   1.040 -0.4407 -2.8992 -1.1268
  790TIP3    H224006   5.262   4.169   1.048  0.2753  0.0198 -0.2757
  791TIP3   OH224007   2.945   0.387   0.752  0.3382 -0.4061  0.1043
  791TIP3    H124008   2.902   0.345   0.678 -1.1282 -0.7189  1.0739
  791TIP3    H224009   2.972   0.473   0.720 -0.0890 -0.6190 -0.8374
  792TIP3   OH224010   2.616   5.175   0.226  0.1416 -0.7021 -0.5193
  792TIP3    H124011   2.603   5.206   0.137  0.3549 -1.7076 -0.9192
  792TIP3    H224012   2.529   5.148   0.255 -0.5960  2.7365  0.8525
  793TIP3   OH224013   6.595   4.290   2.612  0.5496  0.6272  0.8180
  793TIP3    H124014   6.520   4.242   2.578  1.4570  0.7562 -1.5920
  793TIP3    H224015   6.611   4.254   2.699 -0.1457 -1.8879 -0.0331
  794TIP3   OH224016   0.953   3.281   2.251 -0.4738 -0.0620  0.2919
  794TIP3    H124017   1.025   3.248   2.305  1.1945  1.1281 -1.0869
  794TIP3    H224018   0.922   3.204   2.203  1.3371 -0.2754 -0.6496
  795TIP3   OH224019   4.280   6.310   1.380 -0.0582  0.1394 -0.2426
  795TIP3    H124020   4.200   6.318   1.431 -0.1538 -1.4991 -0.0905
  795TIP3    H224021   4.350   6.303   1.445 -0.1021 -1.1950 -0.3107
  796TIP3   OH224022   4.229   3.575   7.783  0.3288 -0.1295  0.3988
  796TIP3    H124023   4.265   3.564   7.695  0.5265  0.2190  0.4316
  796TIP3    H224024   4.282   3.644   7.822 -0.1737  0.1678  0.5662
  797TIP3   OH224025   3.594   2.645   8.498  0.9220  0.0730 -0.1608
  797TIP3    H124026   3.621   2.671   8.410  0.2781  0.0740 -0.3603
  797TIP3    H224027   3.676   2.639   8.547  1.4130 -1.1117 -1.0708
  798TIP3   OH224028   4.900   2.692   2.198  0.3068  0.1314 -0.5154
  798TIP3    H124029   4.914   2.771   2.146  1.3851 -0.3155 -0.9282
  798TIP3    H224030   4.988   2.658   2.214 -0.1768 -1.5359 -1.1946
  799TIP3   OH224031   3.198   4.277   8.200 -0.2248  0.2241 -0.2726
  799TIP3    H124032   3.108   4.308   8.192  0.1995  1.1543 -1.8592
  799TIP3    H224033   3.216   4.234   8.117  0.7791 -0.0209  0.0588
  800TIP3   OH224034   1.552   2.796   7.983 -0.0004  0.0547  0.3370
  800TIP3    H124035   1.485   2.863   7.990  0.7882  1.0100 -0.9022
  800TIP3    H224036   1.635   2.844   7.978  0.4584 -0.8452 -2.6585
  801TIP3   OH224037   3.496   2.947   7.719  0.4594 -0.0993 -0.1426
  801TIP3    H124038   3.444   2.871   7.745  2.1131 -0.8068  1.3053
  801TIP3    H224039   3.514   2.933   7.627  1.6438 -2.0816  0.3364
  802TIP3   OH224040   4.952   2.882   7.671 -0.1215 -0.6239 -0.3014
  802TIP3    H124041   5.014   2.914   7.736 -0.4652  0.7977 -0.6321
  802TIP3    H224042   4.991   2.908   7.587 -0.8378 -0.2820 -0.5389
  803TIP3   OH224043   3.674   3.351   0.607 -0.2524  0.4948 -0.3902
  803TIP3    H124044   3.621   3.294   0.663 -0.1909 -0.0833 -0.9059
  803TIP3    H224045   3.754   3.368   0.657  0.3727 -1.0666 -0.7934
  804TIP3   OH224046   6.342   6.425   8.432 -0.3568 -0.5105 -0.2189
  804TIP3    H124047   6.331   6.475   8.351 -0.6184  0.3304  0.3255
  804TIP3    H224048   6.351   6.491   8.501  1.4833 -1.1780  0.2454
  805TIP3   OH224049   4.195   5.112   8.017  0.4987 -0.0406 -0.0273
  805TIP3    H124050   4.183   5.187   7.958  0.3319 -0.5735 -0.6917
  805TIP3    H224051   4.139   5.043   7.980 -0.0918 -0.2001  1.1139
  806TIP3   OH224052   1.573   2.530   1.504  0.0638  0.2824  0.0475
  806TIP3    H124053   1.551   2.596   1.439  0.2735  0.2685 -0.0396
  806TIP3    H224054   1.566   2.447   1.457  1.4540  0.3425 -0.3218
  807TIP3   OH224055   3.585   1.711   1.336  0.0112 -0.1489  0.2848
  807TIP3    H124056   3.594   1.624   1.375  1.0128 -0.1452  0.0927
  807TIP3    H224057   3.675   1.739   1.318 -0.3334  0.6353 -0.3052
  808TIP3   OH224058   1.107   6.811   7.297 -0.2334  0.5176 -0.5797
  808TIP3    H124059   1.188   6.851   7.328 -0.0766 -0.3572  0.1619
  808TIP3    H224060   1.134   6.761   7.219  0.1590 -0.6100  0.2498
  809TIP3   OH224061   4.215   2.095   2.259 -1.2485  0.4746  0.1128
  809TIP3    H124062   4.181   2.009   2.232 -0.2427 -0.2080  0.9350
  809TIP3    H224063   4.181   2.107   2.348 -1.2931  0.8784  0.0408
  810TIP3   OH224064   1.632   1.229   3.123  0.8483  0.1595 -0.7468
  810TIP3    H124065   1.676   1.144   3.116 -1.5167 -1.0387 -2.1218
  810TIP3    H224066   1.540   1.208   3.139  0.3415  2.5099 -0.1822
  811TIP3   OH224067   3.618   1.810   2.848 -0.2641  0.2909  0.4165
  811TIP3    H124068   3.694   1.866   2.840  0.2198 -0.4316 -0.1578
  811TIP3    H224069   3.581   1.831   2.934  1.4530 -0.4210  1.3666
  812TIP3   OH224070   0.514   6.173   2.605  0.1041  0.0281 -0.3063
  812TIP3    H124071   0.505   6.084   2.573 -1.7523 -0.2806  0.8756
  812TIP3    H224072   0.608   6.191   2.602  0.5289 -2.0059 -0.4558
  813TIP3   OH224073   0.446   3.452   0.602  0.3122  0.4248 -0.0797
  813TIP3    H124074   0.476   3.368   0.637 -2.3888 -0.1901  1.0500
  813TIP3    H224075   0.383   3.484   0.667 -0.3434  2.2681 -1.5198
  814TIP3   OH224076   4.840   3.531   7.290 -0.6459  0.2892 -0.0890
  814TIP3    H124077   4.914   3.564   7.341  0.0908 -1.8127  0.2872
  814TIP3    H224078   4.769   3.521   7.354 -0.8800  1.1130 -0.2095
  815TIP3   OH224079   6.549   6.557   0.069  0.4397  0.3460  0.7336
  815TIP3    H124080   6.471   6.604   0.098 -0.6853 -1.0573  0.0894
  815TIP3    H224081   6.596   6.620   0.014  0.3958  1.5883  2.0516
  816TIP3   OH224082   6.278   1.756   1.904  0.1840 -0.2362 -0.1339
  816TIP3    H124083   6.349   1.808   1.867  0.6229 -1.5245 -1.2198
  816TIP3    H224084   6.251   1.803   1.983  1.3134  0.9955 -0.4547
  817TIP3   OH224085   4.578   3.624   0.961  0.6006 -0.2718 -0.9050
  817TIP3    H124086   4.552   3.709   0.926  0.3386  0.0661  0.1024
  817TIP3    H224087   4.629   3.644   1.039 -0.7786 -1.0713  0.2339
  818TIP3   OH224088   0.201   0.754   2.126 -0.1042 -0.0633 -0.4523
  818TIP3    H124089   0.159   0.836   2.101 -0.0819  1.2777  3.2432
  818TIP3    H224090   0.254   0.777   2.202  0.1014 -3.4973  0.6093
  819TIP3   OH224091   6.548   0.981   7.516 -0.1498 -0.1691  0.3154
  819TIP3    H124092   6.537   1.076   7.512 -0.8318 -0.2745 -0.8403
  819TIP3    H224093   6.593   0.959   7.434 -2.4314 -1.1125 -0.7661
  820TIP3   OH224094   5.043   3.805   1.839  0.1637  0.1925  0.2468
  820TIP3    H124095   5.116   3.749   1.867 -0.5429 -0.4305  0.8861
  820TIP3    H224096   5.004   3.759   1.765  0.0817  0.2598  0.2482
  821TIP3   OH224097   3.777   0.194   0.129 -0.5786  0.3713 -0.3765
  821TIP3    H124098   3.820   0.275   0.157  0.2149 -0.6138  1.4193
  821TIP3    H224099   3.685   0.209   0.147 -0.1743 -0.0236  2.5885
  822TIP3   OH224100   4.120   1.204   0.887  0.6190  0.2734 -0.1090
  822TIP3    H124101   4.144   1.277   0.945 -0.3937  1.0104 -0.5817
  822TIP3    H224102   4.203   1.176   0.849  1.1191  0.7024  0.6352
  823TIP3   OH224103   0.838   0.134   0.763 -0.4346  0.2316  0.0306
  823TIP3    H124104   0.856   0.053   0.715  0.7036  0.0583  0.7136
  823TIP3    H224105   0.924   0.171   0.781 -0.9281  1.4386  0.0169
  824TIP3   OH224106   6.215   4.604   3.212 -0.1075  0.0025  0.2935
  824TIP3    H124107   6.189   4.518   3.243 -0.2244 -0.0127  0.1533
  824TIP3    H224108   6.133   4.652   3.201 -0.1247 -0.2209 -0.6624
  825TIP3   OH224109   0.864   0.547   1.580 -0.4841 -0.1001 -0.9522
  825TIP3    H124110   0.873   0.502   1.665  1.2578 -0.1440 -1.1126
  825TIP3    H224111   0.928   0.504   1.524 -1.6217 -0.0778 -2.3249
  826TIP3   OH224112   0.417   3.742   0.612  0.7227 -0.1049  0.0681
  826TIP3    H124113   0.414   3.803   0.538  2.5773  0.3845  0.3459
  826TIP3    H224114   0.391   3.795   0.687 -2.0956 -0.8229 -0.2532
  827TIP3   OH224115   5.395   5.233   1.414 -0.5680  0.6737  0.4017
  827TIP3    H124116   5.306   5.218   1.383 -0.0761  0.1786 -0.8363
  827TIP3    H224117   5.446   5.246   1.334  1.0076 -2.0251  0.8773
  828TIP3   OH224118   5.628   1.516   2.334 -0.2155 -0.0296  0.4307
  828TIP3    H124119   5.724   1.512   2.341  0.3767  0.1780 -4.3921
  828TIP3    H224120   5.603   1.431   2.300 -1.2933  0.8475 -1.1024
  829TIP3   OH224121   3.798   2.448   8.355  0.7192  0.3477 -0.0375
  829TIP3    H124122   3.768   2.378   8.413  1.0027  0.3196  0.0789
  829TIP3    H224123   3.726   2.461   8.293  0.0980  0.8949  0.7742
  830TIP3   OH224124   5.898   2.640   0.749  0.1794  0.6911  0.0645
  830TIP3    H124125   5.978   2.623   0.700  0.5140  0.0973  0.7915
  830TIP3    H224126   5.926   2.691   0.825  0.0456 -0.4119  0.8768
  831TIP3   OH224127   2.280   0.904   8.398  0.0996  0.6056  0.3027
  831TIP3    H124128   2.349   0.882   8.459  0.9791 -0.5659 -1.0552
  831TIP3    H224129   2.297   0.850   8.321 -1.9685  0.7467 -0.3211
  832TIP3   OH224130   2.375   3.229   8.289  0.8906  0.1863 -0.2159
  832TIP3    H124131   2.291   3.264   8.259  0.8324  0.6106  0.4201
  832TIP3    H224132   2.411   3.184   8.212  0.0114 -0.1437 -0.4460
  833TIP3   OH224133   0.736   4.068   2.273 -0.0342 -0.1842 -0.7208
  833TIP3    H124134   0.782   4.150   2.294 -0.6167 -0.0986  0.2843
  833TIP3    H224135   0.646   4.095   2.257 -0.7386 -0.8183  1.7146
  834TIP3   OH224136   0.129   4.315   8.000 -0.9568  0.2168  0.2704
  834TIP3    H124137   0.181   4.377   8.050  0.4720  1.1512 -2.2040
  834TIP3    H224138   0.169   4.230   8.017 -2.2879  0.0118  2.8642
  835TIP3   OH224139   6.103   2.912   0.491  0.0370  0.4105  0.1134
  835TIP3    H124140   6.189   2.919   0.450 -0.5520 -0.3646 -1.3096
  835TIP3    H224141   6.090   2.998   0.532  0.6269  1.2576 -1.3794
  836TIP3   OH224142   0.785   5.279   1.328 -0.5659  0.4293 -0.0959
  836TIP3    H124143   0.785   5.184   1.337  1.9767  0.3058 -0.5468
  836TIP3    H224144   0.836   5.310   1.403  0.2836  1.2639 -0.9893
  837TIP3   OH224145   2.679   4.632   8.222 -0.0976  0.2598  0.1534
  837TIP3    H124146   2.587   4.613   8.240  0.1442  1.0977  2.8835
  837TIP3    H224147   2.721   4.546   8.222 -0.6702 -0.0306  0.4057
  838TIP3   OH224148   5.519   6.413   8.741  0.2201  0.3471 -0.2687
  838TIP3    H124149   5.501   6.503   8.771  0.5280 -0.4702  2.7179
  838TIP3    H224150   5.518   6.361   8.821 -0.1352 -2.3886 -1.9386
  839TIP3   OH224151   5.387   3.131   1.269 -0.1789 -0.0152  0.4318
  839TIP3    H124152   5.438   3.168   1.340 -1.1428 -0.5192  1.4265
  839TIP3    H224153   5.298   3.163   1.285 -0.2268  0.7560 -1.1872
  840TIP3   OH224154   0.363   4.497   0.116 -0.3458  0.3395  0.4518
  840TIP3    H124155   0.280   4.468   0.077 -0.8883  1.4977  0.7034
  840TIP3    H224156   0.339   4.529   0.203 -0.0793  2.8898 -0.3153
  841TIP3   OH224157   1.695   1.604   1.851 -0.4313  0.1583 -0.1715
  841TIP3    H124158   1.744   1.584   1.930  0.2906  0.3249 -0.5629
  841TIP3    H224159   1.644   1.524   1.832  0.6514 -0.4838 -0.4489
  842TIP3   OH224160   3.425   6.716   2.043 -0.2545 -0.3769 -0.8244
  842TIP3    H124161   3.486   6.678   2.107 -0.5223  2.6394  1.4842
  842TIP3    H224162   3.341   6.720   2.090 -0.2646  2.7014 -0.8684
  843TIP3   OH224163   6.359   4.109   2.616 -0.0682  1.2139 -0.1127
  843TIP3    H124164   6.412   4.097   2.695 -1.1650  1.0909  0.6186
  843TIP3    H224165   6.271   4.129   2.648 -0.2260  2.6214 -1.3083
  844TIP3   OH224166   3.280   0.390   8.236 -0.3447  0.1346  0.2169
  844TIP3    H124167   3.360   0.388   8.289 -0.6789 -0.0284  0.7146
  844TIP3    H224168   3.312   0.403   8.147  0.4649 -2.5705  0.0051
  845TIP3   OH224169   6.193   5.848   8.623 -0.3225  0.3141 -0.0895
  845TIP3    H124170   6.264   5.800   8.581  0.4280  0.2858  1.1418
  845TIP3    H224171   6.132   5.781   8.653  0.7297  0.0673  1.6392
  846TIP3   OH224172   4.295   3.248   0.713 -0.0743 -0.2844  0.2271
  846TIP3    H124173   4.289   3.174   0.653  1.3245 -0.7883  0.6819
  846TIP3    H224174   4.388   3.270   0.717 -0.3978  1.2241  0.4464
  847TIP3   OH224175   2.412   2.873   8.724 -0.1383 -0.1242 -0.3540
  847TIP3    H124176   2.428   2.788   8.764  0.1490  0.8858  1.7871
  847TIP3    H224177   2.437   2.861   8.632  2.5009 -1.6362  0.4511
  848TIP3   OH224178   3.794   0.717   2.450 -0.1913 -0.8404  0.3259
  848TIP3    H124179   3.785   0.755   2.538 -2.9800 -0.2339 -0.1268
  848TIP3    H224180   3.723   0.653   2.444  0.2517 -1.2205 -1.3271
  849TIP3   OH224181   5.109   3.491   6.609  0.2567  0.0074 -0.6266
  849TIP3    H124182   5.050   3.561   6.583 -0.5193 -1.0283 -1.7380
  849TIP3    H224183   5.124   3.441   6.529  0.0002 -1.6741  0.3435
  850TIP3   OH224184   1.392   1.069   2.902 -0.3933  0.0883 -0.3206
  850TIP3    H124185   1.376   0.984   2.860 -0.5892  0.1398 -0.3480
  850TIP3    H224186   1.408   1.048   2.994  1.7436 -0.2124 -0.7023
  851TIP3   OH224187   5.110   6.283   1.532  0.3979  0.0169  1.0542
  851TIP3    H124188   5.196   6.309   1.567  0.9833  0.1350 -0.3876
  851TIP3    H224189   5.071   6.365   1.501 -1.3680  0.3830  3.8994
  852TIP3   OH224190   5.595   5.645   7.859 -0.5355  0.2345  0.0071
  852TIP3    H124191   5.690   5.641   7.868 -0.6299  0.6475  1.3162
  852TIP3    H224192   5.563   5.572   7.912 -0.9718  0.3678 -0.0741
  853TIP3   OH224193   3.150   5.514   2.121 -0.2856  0.4530  0.4532
  853TIP3    H124194   3.227   5.480   2.077 -2.0079 -1.1280 -1.5578
  853TIP3    H224195   3.150   5.472   2.207  0.0289 -1.1665 -0.3053
  854TIP3   OH224196   6.650   2.120   2.320  0.4674  0.3359  0.5608
  854TIP3    H124197   6.623   2.190   2.260  0.9487 -0.0078 -0.0709
  854TIP3    H224198   6.632   2.155   2.407 -0.5710  0.7182  0.2187
  855TIP3   OH224199   1.987   2.159   0.581  0.1055 -0.2626  0.1098
  855TIP3    H124200   2.051   2.148   0.651  1.9060  1.7224 -1.0953
  855TIP3    H224201   2.029   2.122   0.504 -1.2512 -1.1075 -0.2593
  856TIP3   OH224202   4.175   1.843   2.165  0.0760  0.1946  0.0431
  856TIP3    H124203   4.218   1.766   2.127  0.3836  0.3095  0.1530
  856TIP3    H224204   4.120   1.807   2.235  1.0843  0.1662  0.8514
  857TIP3   OH224205   2.133   2.264   7.889  0.1899 -0.2128  0.2674
  857TIP3    H124206   2.138   2.354   7.857  1.3283 -0.5157 -0.4851
  857TIP3    H224207   2.224   2.239   7.906  0.0014 -1.5657 -0.5499
  858TIP3   OH224208   2.720   6.225   0.120  0.1864 -0.5984 -0.1688
  858TIP3    H124209   2.716   6.135   0.154  0.8958 -0.8888 -0.8290
  858TIP3    H224210   2.651   6.229   0.054 -1.0522 -0.0969  1.0993
  859TIP3   OH224211   1.673   2.167   0.121 -1.1105  0.0917  0.2827
  859TIP3    H124212   1.705   2.098   0.062 -2.3968 -1.5158  1.3921
  859TIP3    H224213   1.733   2.164   0.196  0.2291  1.8059 -0.6559
  860TIP3   OH224214   0.149   2.649   3.130 -0.3734 -0.1633  0.0835
  860TIP3    H124215   0.063   2.678   3.160 -1.0811 -1.6417 -0.4423
  860TIP3    H224216   0.154   2.557   3.155  1.1587 -0.0574  0.2909
  861TIP3   OH224217   6.174   3.907   8.262  0.2597 -0.0078 -0.2856
  861TIP3    H124218   6.129   3.871   8.339  2.0468  0.0068  0.8269
  861TIP3    H224219   6.165   4.002   8.271  1.5996  0.0579  0.6844
  862TIP3   OH224220   4.677   0.371   8.477 -0.5865  0.4061 -0.0923
  862TIP3    H124221   4.763   0.365   8.519 -0.2519  0.1902 -0.7929
  862TIP3    H224222   4.690   0.433   8.405 -0.5447 -0.9936 -1.3347
  863TIP3   OH224223   6.210   0.457   8.626  0.6283  0.0368  0.4588
  863TIP3    H124224   6.149   0.527   8.651 -0.3847 -0.6221 -0.1284
  863TIP3    H224225   6.185   0.383   8.682 -0.9915 -1.1321 -1.6934
  864TIP3   OH224226   5.972   5.366   1.958  0.0263 -0.0540  0.0618
  864TIP3    H124227   6.046   5.347   2.016 -1.0166 -0.7278  1.2038
  864TIP3    H224228   5.993   5.319   1.877  0.6451 -0.5916  0.5178
  865TIP3   OH224229   3.837   3.598   0.006  0.4519 -0.0054 -0.2133
  865TIP3    H124230   3.768   3.533   0.019  0.9904 -0.3270  1.2050
  865TIP3    H224231   3.918   3.548   0.007  0.8166  0.5822 -0.0179
  866TIP3   OH224232   6.751   1.532   8.128 -0.1413 -0.0428  0.4631
  866TIP3    H124233   6.665   1.492   8.142 -1.0034  2.0449  1.6738
  866TIP3    H224234   6.762   1.534   8.033 -0.8088 -1.5516  0.3349
  867TIP3   OH224235   2.898   0.790   1.680 -0.4665 -0.1557  0.5620
  867TIP3    H124236   2.929   0.700   1.667 -2.0357 -0.9321  1.9082
  867TIP3    H224237   2.907   0.805   1.774 -0.4713  1.0265  0.3915
  868TIP3   OH224238   2.416   5.754   0.079 -0.3942 -0.2893 -0.8207
  868TIP3    H124239   2.395   5.847   0.087 -0.2166 -0.0963 -2.2913
  868TIP3    H224240   2.434   5.725   0.169  1.0840  1.4634 -0.4934
  869TIP3   OH224241   4.572   4.436   0.002  0.0287 -0.4139 -0.3258
  869TIP3    H124242   4.566   4.346   0.034  1.1918 -0.9356 -1.4504
  869TIP3    H224243   4.485   4.456  -0.033  0.4472 -2.1561 -2.5880
  870TIP3   OH224244   1.931   4.209   8.259 -0.0400 -0.3411 -0.1648
  870TIP3    H124245   1.971   4.133   8.301 -2.4016 -0.6161  1.8327
  870TIP3    H224246   1.873   4.245   8.326  0.4346  2.8315 -1.2880
  871TIP3   OH224247   0.135   2.593   6.950  0.0120 -0.4069  0.1954
  871TIP3    H124248   0.120   2.529   7.020  0.6589  0.4451  1.1342
  871TIP3    H224249   0.220   2.568   6.914  1.1030  0.9265  1.7232
  872TIP3   OH224250   0.164   1.720   7.213  0.3502  0.4840 -0.3830
  872TIP3    H124251   0.123   1.744   7.296 -0.3382  1.4975 -0.9902
  872TIP3    H224252   0.114   1.644   7.182 -0.5107  1.1504 -0.6738
  873TIP3   OH224253   1.754   2.307   8.342 -0.1905  0.0517 -0.3988
  873TIP3    H124254   1.847   2.331   8.336 -0.5795  2.2868  0.9931
  873TIP3    H224255   1.718   2.330   8.256  0.2293  0.9425 -0.3535
  874TIP3   OH224256   5.844   3.493   1.611 -0.2110 -0.1891  0.0570
  874TIP3    H124257   5.922   3.500   1.666  1.4695 -2.9135 -1.7355
  874TIP3    H224258   5.779   3.449   1.667  1.6245 -3.3788 -0.0712
  875TIP3   OH224259   4.686   4.422   7.082  0.3076  0.0851 -0.6501
  875TIP3    H124260   4.770   4.411   7.126 -0.4851 -0.8580  0.7028
  875TIP3    H224261   4.691   4.508   7.039  1.3968  0.7061  0.6724
  876TIP3   OH224262   0.956   5.299   1.078  0.2981  0.0872  0.6476
  876TIP3    H124263   1.028   5.250   1.118 -0.5947  0.3933  2.7660
  876TIP3    H224264   0.887   5.300   1.145 -1.4167  0.4344 -1.0210
  877TIP3   OH224265   1.483   0.245   2.077  0.1839 -0.0899  0.2506
  877TIP3    H124266   1.504   0.166   2.026  0.8074 -0.0370  0.4162
  877TIP3    H224267   1.563   0.297   2.074  0.6531 -0.6374  2.3007
  878TIP3   OH224268   2.980   5.322   0.542  0.0728  0.1846 -0.0496
  878TIP3    H124269   2.947   5.242   0.584 -1.8486  1.2978  0.6475
  878TIP3    H224270   3.054   5.349   0.597 -0.8704  0.2701  1.1972
  879TIP3   OH224271   0.104   5.783   1.805  0.5409 -0.0008  0.2773
  879TIP3    H124272   0.035   5.722   1.830 -0.6575  0.7327 -1.0980
  879TIP3    H224273   0.157   5.793   1.885 -0.4699 -1.1859  1.1363
  880TIP3   OH224274   0.247   0.493   2.218  0.3103  0.3217 -0.0566
  880TIP3    H124275   0.238   0.584   2.187 -0.3069  0.6958  1.1651
  880TIP3    H224276   0.161   0.454   2.204  0.6790 -0.1974 -0.9185
  881TIP3   OH224277   1.993   3.994   1.316  0.1070 -0.3927  0.8975
  881TIP3    H124278   1.923   3.973   1.254 -0.7860  2.2412  0.9024
  881TIP3    H224279   2.003   3.914   1.368  0.0844 -2.3176 -1.7983
  882TIP3   OH224280   6.026   0.838   1.755 -0.1754 -0.0919 -0.0418
  882TIP3    H124281   6.119   0.846   1.734  0.3433 -0.6682  1.8934
  882TIP3    H224282   5.988   0.922   1.726  0.8471  0.0149 -1.1697
  883TIP3   OH224283   0.278   0.770   1.547  0.4654  0.1071 -1.0116
  883TIP3    H124284   0.364   0.730   1.537  0.9290  1.0661 -1.0075
  883TIP3    H224285   0.296   0.862   1.568 -0.5507  0.0827  0.1072
  884TIP3   OH224286   3.177   4.414   6.790 -0.3729 -0.0613 -0.0187
  884TIP3    H124287   3.257   4.411   6.737 -0.2080  2.1130  0.0120
  884TIP3    H224288   3.202   4.375   6.873 -0.0125 -1.4737 -0.7508
  885TIP3   OH224289   3.590   0.273   1.871 -0.3727 -0.4617  0.3872
  885TIP3    H124290   3.668   0.275   1.815 -0.7739 -0.3305 -0.1755
  885TIP3    H224291   3.564   0.181   1.874 -1.4119 -0.2537 -1.1547
  886TIP3   OH224292   2.726   0.727   0.476  0.4631 -0.8123  0.0324
  886TIP3    H124293   2.676   0.716   0.557  1.9897 -0.3593  1.0800
  886TIP3    H224294   2.674   0.789   0.424 -0.1377 -0.4702  1.0102
  887TIP3   OH224295   3.628   5.723   7.640  0.3339 -0.8408 -0.1739
  887TIP3    H124296   3.543   5.692   7.672  1.8690 -1.6553  3.7061
  887TIP3    H224297   3.620   5.818   7.637 -1.0353 -0.9622 -1.0032
  888TIP3   OH224298   3.691   6.391   7.948 -0.4931 -0.6471  1.1124
  888TIP3    H124299   3.782   6.360   7.942  0.3126  1.5487  0.9924
  888TIP3    H224300   3.667   6.412   7.857 -0.3990  0.5727  1.3444
  889TIP3   OH224301   0.424   6.708   1.457 -0.1550 -0.2698 -0.5307
  889TIP3    H124302   0.401   6.622   1.423 -0.3665 -0.2144 -0.5310
  889TIP3    H224303   0.429   6.695   1.552 -0.8366 -0.1374 -0.4734
  890TIP3   OH224304   1.901   4.121   0.379 -0.4537 -0.3142 -0.1029
  890TIP3    H124305   1.886   4.090   0.468  0.2746 -1.6125 -0.4095
  890TIP3    H224306   1.987   4.087   0.356  0.3908  1.9280 -0.5036
  891TIP3   OH224307   0.009   3.737   0.832  0.3594  0.2164  0.3891
  891TIP3    H124308  -0.015   3.771   0.746  1.1758 -1.1562 -0.4016
  891TIP3    H224309   0.014   3.816   0.887 -1.6869  0.9804 -0.3926
  892TIP3   OH224310   4.151   4.460   8.497  0.0694 -0.0612 -0.2734
  892TIP3    H124311   4.118   4.377   8.464  0.9843  0.1512 -1.8280
  892TIP3    H224312   4.231   4.476   8.447  0.8196  0.9540  1.1700
  893TIP3   OH224313   1.830   2.668   0.762  0.2509  0.3243  0.1625
  893TIP3    H124314   1.793   2.615   0.691  0.1819  1.0088 -0.3167
  893TIP3    H224315   1.782   2.750   0.758  0.0168  0.2513  1.2223
  894TIP3   OH224316   2.484   4.407   0.970 -0.0999 -0.5102  0.4155
  894TIP3    H124317   2.393   4.429   0.991  0.1035  1.6411 -0.6729
  894TIP3    H224318   2.531   4.420   1.052 -0.3104  1.5332  0.2620
  895TIP3   OH224319   3.918   1.205   0.097 -0.1936  0.3712 -0.1763
  895TIP3    H124320   3.986   1.178   0.035 -1.8304 -3.0087 -0.7642
  895TIP3    H224321   3.965   1.225   0.177  1.6511  0.2098 -1.1638
  896TIP3   OH224322   2.401   6.045   0.550 -0.6968 -0.2961  0.4335
  896TIP3    H124323   2.491   6.059   0.521 -0.8527  3.5274  1.2194
  896TIP3    H224324   2.394   5.951   0.566  2.4057 -1.0605 -1.8930
  897TIP3   OH224325   3.137   5.144   7.830  0.2189  0.1963 -0.7289
  897TIP3    H124326   3.133   5.237   7.851  0.4613 -0.0932  0.7291
  897TIP3    H224327   3.053   5.109   7.859  1.6983 -0.7763  2.9713
  898TIP3   OH224328   2.223   3.109   1.281 -0.3168 -0.4387  0.5827
  898TIP3    H124329   2.163   3.081   1.350 -0.5842  0.3290  0.6734
  898TIP3    H224330   2.166   3.141   1.211 -0.0374  0.9215  0.9333
  899TIP3   OH224331   4.484   0.423   8.687 -0.1663 -0.2197 -0.3698
  899TIP3    H124332   4.474   0.519   8.694 -0.1667 -0.2975  0.9672
  899TIP3    H224333   4.553   0.411   8.622 -1.5863  0.6265 -2.1336
  900TIP3   OH224334   1.682   0.958   7.596  0.6243 -0.0807 -0.1413
  900TIP3    H124335   1.636   0.911   7.526  0.1764 -2.3078  1.5399
  900TIP3    H224336   1.774   0.956   7.569  0.2370  1.2745 -1.7857
  901TIP3   OH224337   3.633   2.197   8.047  0.4759 -0.0400  0.5909
  901TIP3    H124338   3.727   2.191   8.063  0.4283  0.5982  1.1850
  901TIP3    H224339   3.605   2.274   8.097 -0.3138 -0.0597  0.2020
  902TIP3   OH224340   0.963   0.826   2.128  0.0027 -0.2962  0.1958
  902TIP3    H124341   1.024   0.825   2.055  1.6459 -0.6046  1.5103
  902TIP3    H224342   0.931   0.916   2.133  0.9256  0.0493 -0.0631
  903TIP3   OH224343   3.077   3.362   8.775 -0.0135  0.4198  0.0410
  903TIP3    H124344   3.087   3.364   8.871  0.2120  3.2525  0.0318
  903TIP3    H224345   3.064   3.269   8.755 -0.5976 -0.2157  2.8666
  904TIP3   OH224346   1.663   5.514   0.452 -0.3742  0.2368 -0.1417
  904TIP3    H124347   1.633   5.575   0.519  2.0900  2.1133 -0.5981
  904TIP3    H224348   1.656   5.428   0.494 -3.3216  0.7925  0.7631
  905TIP3   OH224349   3.109   2.425   2.299  0.1230 -0.0495  0.0927
  905TIP3    H124350   3.202   2.444   2.309 -0.1962  2.2197 -0.5217
  905TIP3    H224351   3.097   2.412   2.205 -0.1469 -0.5140  0.1898
  906TIP3   OH224352   0.275   3.919   2.067 -0.0594  0.8785 -0.4771
  906TIP3    H124353   0.361   3.953   2.042 -0.4625  0.8430 -2.0065
  906TIP3    H224354   0.222   3.997   2.082  0.2442  0.9015  0.5685
  907TIP3   OH224355   6.236   0.784   1.149 -0.5789 -0.4504  0.5750
  907TIP3    H124356   6.173   0.753   1.084  0.8702 -1.9480 -0.2061
  907TIP3    H224357   6.188   0.787   1.231 -1.9414 -0.4289 -0.2059
  908TIP3   OH224358   2.004   1.901   8.498 -0.3798  0.1784 -0.6739
  908TIP3    H124359   1.999   1.995   8.515 -0.6280 -0.2220  1.9055
  908TIP3    H224360   1.914   1.870   8.507 -0.1666 -0.4199 -0.5799
  909TIP3   OH224361   5.966   4.329   8.662  0.0222  0.1907 -0.2944
  909TIP3    H124362   5.987   4.266   8.732  2.5840  2.2766  1.0031
  909TIP3    H224363   5.887   4.374   8.693 -0.8842 -1.2122 -0.4704
  910TIP3   OH224364   3.572   1.704   0.912  0.0269  0.0171  0.0114
  910TIP3    H124365   3.498   1.665   0.865 -1.3275  0.4836  1.6492
  910TIP3    H224366   3.648   1.656   0.880 -0.8536  0.0452 -2.3138
  911TIP3   OH224367   2.888   4.058   8.002 -0.4059  0.0007 -0.2542
  911TIP3    H124368   2.915   4.047   8.093  1.1113 -0.4374 -0.7341
  911TIP3    H224369   2.834   4.137   8.002 -3.6479 -1.9742  1.6473
  912TIP3   OH224370   3.389   1.038   1.939  0.2342  0.2648  0.1181
  912TIP3    H124371   3.328   1.011   1.870 -1.2866  1.6401  0.8556
  912TIP3    H224372   3.428   1.119   1.905  1.6245 -0.5570 -0.3054
  913TIP3   OH224373   5.391   5.086   8.172 -0.7036 -0.0120  0.2922
  913TIP3    H124374   5.412   5.021   8.239 -0.1411 -0.5469 -0.3872
  913TIP3    H224375   5.412   5.170   8.213  1.2753 -0.4147  0.2274
  914TIP3   OH224376   6.803   3.818   2.085 -0.5654  0.0455  0.0304
  914TIP3    H124377   6.860   3.803   2.009  0.5048 -0.8028  0.9648
  914TIP3    H224378   6.860   3.855   2.151 -0.7750 -1.8870  1.3853
  915TIP3   OH224379   3.156   6.235   0.942  0.2363 -0.4586  0.1300
  915TIP3    H124380   3.110   6.314   0.915  1.4516  0.2318  0.0128
  915TIP3    H224381   3.094   6.190   1.000  0.1509  1.4576  1.6401
  916TIP3   OH224382   0.992   3.490   2.043 -0.5880  0.1629  0.1655
  916TIP3    H124383   1.015   3.579   2.069  0.9214 -0.2183  0.2359
  916TIP3    H224384   0.950   3.452   2.120 -0.2294  0.4632  0.5114
  917TIP3   OH224385   1.009   4.746   0.533  0.3779 -0.4529 -0.1826
  917TIP3    H124386   1.103   4.755   0.548  0.1050 -0.1073  1.4888
  917TIP3    H224387   0.996   4.785   0.446  1.6091  0.6040  0.0624
  918TIP3   OH224388   3.720   5.930   8.044  0.2618 -0.2008 -0.0462
  918TIP3    H124389   3.763   5.890   7.969  0.9500 -0.1753  0.3295
  918TIP3    H224390   3.675   6.006   8.007 -0.4114 -0.8629 -0.6286
  919TIP3   OH224391   2.498   2.376   2.103 -0.1294 -0.3035  0.4663
  919TIP3    H124392   2.425   2.438   2.097  2.6061  3.0991 -1.4882
  919TIP3    H224393   2.543   2.400   2.184  0.7290  0.0746 -0.1028
  920TIP3   OH224394   3.702   0.241   7.921  0.6352 -0.1688 -0.0492
  920TIP3    H124395   3.745   0.304   7.863  0.5260 -0.2134 -0.1780
  920TIP3    H224396   3.638   0.197   7.866  0.2750  0.0461  0.1982
  921TIP3   OH224397   6.512   2.224   0.323 -0.0933 -0.2825 -0.1040
  921TIP3    H124398   6.586   2.279   0.299 -0.4772  0.0028 -0.6601
  921TIP3    H224399   6.542   2.134   0.306  0.2430 -0.1920  0.0092
  922TIP3   OH224400   1.834   1.050   7.889  0.1887 -0.2976  0.2741
  922TIP3    H124401   1.870   0.988   7.826 -0.0396  1.1462 -1.3427
  922TIP3    H224402   1.911   1.092   7.928  0.3308 -1.2226  1.0428
  923TIP3   OH224403   3.442   3.576   2.342  1.0274 -0.1647  0.2640
  923TIP3    H124404   3.353   3.542   2.335  0.9289  0.2451 -0.4750
  923TIP3    H224405   3.491   3.531   2.273  1.2566  0.0543  0.2821
  924TIP3   OH224406   0.112   0.185   7.786 -0.8519  0.3573  0.2033
  924TIP3    H124407   0.193   0.231   7.807 -0.5543  0.1158 -0.4042
  924TIP3    H224408   0.140   0.106   7.740 -1.4474  0.4628 -0.3587
  925TIP3   OH224409   3.961   3.119   2.692  0.2126 -0.3055  0.1285
  925TIP3    H124410   4.044   3.125   2.739  0.6952 -1.6882 -0.4877
  925TIP3    H224411   3.977   3.054   2.624 -0.5946  1.3033 -1.6871
  926TIP3   OH224412   2.296   2.089   2.534  0.5420 -0.5076  0.2149
  926TIP3    H124413   2.385   2.073   2.567  0.7601  1.7328  0.8416
  926TIP3    H224414   2.309   2.138   2.453 -0.1163 -1.3729 -0.4275
  927TIP3   OH224415   4.576   6.539   8.839  0.8498 -0.5671 -0.0102
  927TIP3    H124416   4.666   6.516   8.816  0.4887  1.2103 -4.1289
  927TIP3    H224417   4.582   6.628   8.874  0.6276  0.2998 -2.0573
  928TIP3   OH224418   5.608   5.498   1.573 -0.2914 -0.3079 -0.2572
  928TIP3    H124419   5.585   5.446   1.650  2.7796 -0.6183  0.5630
  928TIP3    H224420   5.596   5.439   1.499 -2.3204 -0.3057  0.0050
  929TIP3   OH224421   2.173   5.338   8.001 -0.2016  0.0867 -0.1934
  929TIP3    H124422   2.122   5.266   7.965  0.3644 -0.9117  0.9470
  929TIP3    H224423   2.151   5.339   8.094  2.2848 -0.7995  0.4800
  930TIP3   OH224424   1.279   4.852   8.491 -0.8283 -0.9552  0.2026
  930TIP3    H124425   1.313   4.800   8.564  1.4780 -1.5342 -1.1952
  930TIP3    H224426   1.240   4.929   8.532  0.3949 -1.2614  2.0503
  931TIP3   OH224427   2.544   3.289   0.333  0.4017 -0.3815  0.4559
  931TIP3    H124428   2.449   3.283   0.324  0.5428 -1.3945 -0.6424
  931TIP3    H224429   2.569   3.362   0.276  0.3056 -0.2201  0.6187
  932TIP3   OH224430   4.428   3.033   3.094  0.0723  0.1059  0.3280
  932TIP3    H124431   4.437   3.122   3.059 -0.0401 -0.0177 -0.0277
  932TIP3    H224432   4.336   3.011   3.081  0.1091 -0.0777  0.3742
  933TIP3   OH224433   5.540   5.246   2.599  0.0717  0.0649 -0.0543
  933TIP3    H124434   5.616   5.266   2.545  0.0635  0.4524  0.0733
  933TIP3    H224435   5.496   5.174   2.553  0.5912 -0.2562 -0.0514
  934TIP3   OH224436   5.409   3.895   8.357  0.2824  0.2893 -0.1618
  934TIP3    H124437   5.492   3.903   8.403  0.9187  1.3905 -1.4335
  934TIP3    H224438   5.392   3.801   8.353  1.5816  0.0330 -0.0669
  935TIP3   OH224439   1.907   6.595   2.844  0.7906 -0.5228  0.2122
  935TIP3    H124440   1.920   6.674   2.791  2.2551 -0.1282  1.0968
  935TIP3    H224441   1.964   6.529   2.803 -0.8543 -1.3432 -0.8701
  936TIP3   OH224442   0.593   0.339   1.536  0.7740  0.1156  0.5132
  936TIP3    H124443   0.597   0.284   1.458 -2.0863 -0.1213  0.4278
  936TIP3    H224444   0.613   0.427   1.504 -0.9325  0.1162 -0.6466
  937TIP3   OH224445   0.998   1.764   3.170 -0.0459  0.3751  0.1125
  937TIP3    H124446   1.015   1.858   3.160  0.0637  0.1696 -2.3175
  937TIP3    H224447   1.073   1.722   3.127 -0.1435 -0.8517  1.0809
  938TIP3   OH224448   3.849   1.404   8.600 -0.1005 -0.0272  0.2814
  938TIP3    H124449   3.793   1.406   8.678 -1.5691 -0.9651 -0.6893
  938TIP3    H224450   3.929   1.448   8.627 -0.4167 -0.6270  2.4292
  939TIP3   OH224451   2.613   6.599   0.423 -0.3269  0.1647 -0.0487
  939TIP3    H124452   2.681   6.532   0.413  0.9126  1.2310  0.8136
  939TIP3    H224453   2.574   6.608   0.336  1.7588  0.6328 -0.9910
  940TIP3   OH224454   1.006   3.954   0.789  0.5591  0.6476  0.0817
  940TIP3    H124455   0.990   3.941   0.883 -0.0179  1.5337  0.1154
  940TIP3    H224456   1.054   3.875   0.762  0.9280  0.4786  1.1615
  941TIP3   OH224457   5.548   1.653   7.869  0.4925 -0.1186  0.4801
  941TIP3    H124458   5.611   1.682   7.803  0.2916  0.6396  0.6221
  941TIP3    H224459   5.506   1.577   7.829 -0.0170  0.6595 -0.4934
  942TIP3   OH224460   1.769   0.079   2.287 -0.4051  0.3744  0.2191
  942TIP3    H124461   1.797   0.134   2.214  0.8562  0.9299  1.0861
  942TIP3    H224462   1.748   0.140   2.357  1.6273 -0.1891  1.4052
  943TIP3   OH224463   5.779   5.043   7.931  0.4483 -0.0462  0.0296
  943TIP3    H124464   5.817   4.959   7.957 -1.3988 -0.5732  1.1702
  943TIP3    H224465   5.847   5.084   7.877  1.4020 -2.2391 -0.5329
  944TIP3   OH224466   3.835   3.901   1.833 -0.3901 -0.0980  0.3509
  944TIP3    H124467   3.822   3.811   1.802  0.0553  0.4748 -1.6559
  944TIP3    H224468   3.786   3.955   1.771 -0.1335  1.0870  1.1489
  945TIP3   OH224469   2.927   3.454   8.225  0.1601  0.6692 -0.4737
  945TIP3    H124470   3.004   3.401   8.205  0.9066  1.8977 -0.9677
  945TIP3    H224471   2.876   3.453   8.144 -0.5721 -0.4652 -0.0255
  946TIP3   OH224472   0.905   1.821   0.667  0.1438  0.0143 -0.4427
  946TIP3    H124473   0.993   1.857   0.675  0.5571 -0.9765 -0.3884
  946TIP3    H224474   0.917   1.736   0.626 -0.7858 -0.1702 -0.3614
  947TIP3   OH224475   5.952   1.638   8.272  0.2703  0.0058 -0.7412
  947TIP3    H124476   5.860   1.621   8.291  0.1541  0.4125 -0.9200
  947TIP3    H224477   5.996   1.633   8.357  0.1764 -0.7496 -0.7364
  948TIP3   OH224478   2.375   5.674   1.155  0.1420  0.0164 -0.6276
  948TIP3    H124479   2.285   5.640   1.152 -0.0219  0.5007 -2.8798
  948TIP3    H224480   2.363   5.767   1.177  0.2028 -0.1962  0.3330
  949TIP3   OH224481   2.082   4.548   2.023 -0.3430  0.0127  0.4745
  949TIP3    H124482   2.025   4.487   1.976  0.4309  0.2701 -0.8285
  949TIP3    H224483   2.158   4.495   2.049 -0.2803  0.1185  0.5063
  950TIP3   OH224484   5.873   4.378   2.280 -0.4710 -0.3608 -0.4918
  950TIP3    H124485   5.944   4.442   2.282  0.7754 -1.5404 -2.5656
  950TIP3    H224486   5.794   4.430   2.293  0.6038  1.3580 -0.4424
  951TIP3   OH224487   1.922   3.163   2.939  0.3112  0.1717  0.4133
  951TIP3    H124488   1.864   3.186   3.011 -1.2651  0.3411 -0.8679
  951TIP3    H224489   1.930   3.068   2.944  1.0670  0.2663  1.4065
  952TIP3   OH224490   5.929   3.646   8.720  0.3830  0.2841 -0.2934
  952TIP3    H124491   5.865   3.627   8.788 -0.0360  0.7964 -0.5367
  952TIP3    H224492   5.991   3.573   8.724  0.8208  0.7116  1.1693
  953TIP3   OH224493   6.227   1.000   2.394  0.5553 -0.4231  0.1040
  953TIP3    H124494   6.226   0.999   2.298  1.1498  0.7645  0.0706
  953TIP3    H224495   6.297   0.939   2.417 -1.9495 -3.6517 -0.0621
  954TIP3   OH224496   0.249   3.579   0.743  0.1193 -0.3060 -0.4847
  954TIP3    H124497   0.306   3.630   0.686  2.6565 -1.6993  0.5755
  954TIP3    H224498   0.191   3.643   0.783  1.7499  1.4595 -0.7741
  955TIP3   OH224499   0.074   6.655   8.169  0.6385  0.4268 -0.1586
  955TIP3    H124500   0.033   6.619   8.090  2.0660 -1.0917 -0.2642
  955TIP3    H224501   0.067   6.750   8.158 -1.6808  0.2584 -0.7354
  956TIP3   OH224502   4.130   0.326   0.811  0.3299  0.3700 -0.0314
  956TIP3    H124503   4.132   0.286   0.723 -0.1820  0.8609 -0.2729
  956TIP3    H224504   4.056   0.386   0.808  0.5117  0.6337  0.6400
  957TIP3   OH224505   2.567   6.588   7.776 -0.3002  0.1285  0.1202
  957TIP3    H124506   2.653   6.572   7.816  0.2944  0.8836 -0.8133
  957TIP3    H224507   2.555   6.682   7.784  1.6962  1.1239 -4.8668
  958TIP3   OH224508   2.318   1.892   2.998  0.0478  0.4219  0.1673
  958TIP3    H124509   2.409   1.883   2.968 -0.3508  0.1624 -1.0155
  958TIP3    H224510   2.322   1.873   3.092  0.6763 -3.3052 -0.4593
  959TIP3   OH224511   5.366   5.010   1.976  0.1505  0.1289  0.2334
  959TIP3    H124512   5.305   4.986   2.046  1.7654  2.7708  2.7628
  959TIP3    H224513   5.312   5.017   1.898 -2.5730  1.1159  2.0816
  960TIP3   OH224514   4.664   0.988   7.782  0.1406  0.0568  0.2626
  960TIP3    H124515   4.590   0.980   7.722  1.3041 -1.0963 -1.0741
  960TIP3    H224516   4.735   1.021   7.728  1.3792 -1.5508  0.8252
  961TIP3   OH224517   5.936   4.418   8.409  0.5052 -0.8874 -0.1906
  961TIP3    H124518   5.960   4.403   8.500 -0.3292  0.9260  0.3649
  961TIP3    H224519   5.886   4.499   8.410  0.9262 -0.5368 -2.3426
  962TIP3   OH224520   6.220   6.760   0.648 -0.0092 -0.4562 -0.1609
  962TIP3    H124521   6.305   6.744   0.607  0.3981 -0.2130  0.5674
  962TIP3    H224522   6.241   6.784   0.738 -0.7516  1.3986 -0.4360
  963TIP3   OH224523   6.038   6.610   8.174 -0.1318  0.2698  0.0578
  963TIP3    H124524   5.970   6.602   8.241 -0.4119  0.9931 -0.1263
  963TIP3    H224525   6.022   6.539   8.113  0.3358 -0.6121  0.9400
  964TIP3   OH224526   3.409   3.846   0.160 -0.4982  0.4661  0.4102
  964TIP3    H124527   3.394   3.941   0.167 -0.9410  0.3678  0.8887
  964TIP3    H224528   3.502   3.838   0.136 -0.6448  1.0365 -0.3957
  965TIP3   OH224529   1.604   1.357   1.785  0.1104  0.2928  0.2297
  965TIP3    H124530   1.656   1.277   1.786  1.4344  1.1206 -0.1449
  965TIP3    H224531   1.539   1.342   1.717  2.0518  0.5374 -1.7794
  966TIP3   OH224532   2.232   5.529   1.439  0.3566 -0.3060  0.2394
  966TIP3    H124533   2.178   5.551   1.363  0.5348  0.4586  0.3269
  966TIP3    H224534   2.170   5.495   1.504 -0.0596  0.6728  0.3825
  967TIP3   OH224535   4.470   0.090   2.486 -0.4278 -0.4430  0.1614
  967TIP3    H124536   4.453   0.130   2.401  1.8019 -1.1308 -0.6850
  967TIP3    H224537   4.430   0.003   2.481  1.8980 -1.5449 -1.3012
  968TIP3   OH224538   5.147   2.236   1.047 -0.1305 -0.2309  0.6444
  968TIP3    H124539   5.201   2.300   1.001 -0.1291 -0.7325 -0.0683
  968TIP3    H224540   5.064   2.280   1.063  0.3550  0.4298  1.4390
  969TIP3   OH224541   0.467   0.628   0.686  0.2063  0.1316  0.4166
  969TIP3    H124542   0.493   0.570   0.758  2.7954  2.6352  1.7223
  969TIP3    H224543   0.547   0.640   0.635 -1.0328  0.1930 -1.6105
  970TIP3   OH224544   1.541   5.472   8.171 -0.1258 -0.7699  0.4986
  970TIP3    H124545   1.456   5.508   8.199 -0.0428 -0.5955  0.5290
  970TIP3    H224546   1.604   5.509   8.233  0.4851  1.9548 -1.5594
  971TIP3   OH224547   3.003   1.699   0.639  0.1507  0.4080 -0.6423
  971TIP3    H124548   3.003   1.617   0.689  1.0662  1.7117  1.6381
  971TIP3    H224549   3.044   1.676   0.556  1.9840 -1.1061  0.6009
  972TIP3   OH224550   2.541   0.028   2.238 -0.3312 -0.6039  0.1393
  972TIP3    H124551   2.549   0.040   2.332 -1.6199  1.3028  0.0557
  972TIP3    H224552   2.474  -0.040   2.228 -0.5999 -0.4124  0.6057
  973TIP3   OH224553   4.640   2.491   0.984  0.0196 -0.4812  0.3088
  973TIP3    H124554   4.629   2.569   0.929  2.6820  0.5767  1.1164
  973TIP3    H224555   4.663   2.422   0.922  1.7546  0.4094 -0.1284
  974TIP3   OH224556   5.551   6.494   1.721 -0.1571  0.9685 -0.2735
  974TIP3    H124557   5.525   6.582   1.746  0.2800  0.8573  0.6073
  974TIP3    H224558   5.609   6.465   1.791 -1.0991 -0.4076 -0.0163
  975TIP3   OH224559   2.666   2.354   0.143  0.6127  0.1286  0.0823
  975TIP3    H124560   2.686   2.356   0.049  1.1717  0.0487  0.1948
  975TIP3    H224561   2.752   2.353   0.185  0.3665 -0.2583  0.5858
  976TIP3   OH224562   2.724   5.915   0.639  0.0674 -0.1273 -0.3122
  976TIP3    H124563   2.775   5.952   0.567  0.6794 -1.2224 -0.4633
  976TIP3    H224564   2.777   5.932   0.717 -1.3647  2.5756  0.1993
  977TIP3   OH224565   1.245   1.185   0.266 -0.4358 -0.8733 -0.0581
  977TIP3    H124566   1.222   1.277   0.254 -0.4425 -1.0278 -1.5087
  977TIP3    H224567   1.297   1.183   0.347 -0.6606  0.3571  0.1345
  978TIP3   OH224568   2.808   5.840   7.830 -0.4329 -0.8055 -0.1188
  978TIP3    H124569   2.818   5.836   7.925 -0.7904 -0.1436 -0.0490
  978TIP3    H224570   2.830   5.752   7.800  0.9781 -0.6780  0.4557
  979TIP3   OH224571   3.749   4.857   8.131 -0.4455  0.0628 -0.2831
  979TIP3    H124572   3.737   4.771   8.171 -0.9883 -0.0456 -0.6645
  979TIP3    H224573   3.707   4.849   8.045  1.9013 -0.1599 -1.4952
  980TIP3   OH224574   6.276   6.124   1.916  0.3248  0.6258  0.3294
  980TIP3    H124575   6.227   6.042   1.905 -0.5857  1.1853  0.1065
  980TIP3    H224576   6.368   6.096   1.924  0.0769 -0.3867 -0.1483
  981TIP3   OH224577   4.132   6.364   0.160  0.0897 -0.3118  0.0843
  981TIP3    H124578   4.212   6.376   0.111 -0.3189 -0.0367 -0.5211
  981TIP3    H224579   4.159   6.370   0.252  0.7759 -0.3583 -0.1110
  982TIP3   OH224580   0.806   6.811   8.069  0.7043  0.0871  0.3283
  982TIP3    H124581   0.894   6.779   8.088  1.5890  2.7122  1.1541
  982TIP3    H224582   0.815   6.857   7.986  0.4616  1.4413  1.0231
  983TIP3   OH224583   5.009   1.355   0.481  0.0067  0.1305  0.0232
  983TIP3    H124584   4.939   1.384   0.540 -0.0005  0.8474 -0.3312
  983TIP3    H224585   4.994   1.261   0.471  0.0755 -0.0271  1.2588
  984TIP3   OH224586   5.387   4.856   1.160  0.4135  0.0641 -0.2587
  984TIP3    H124587   5.470   4.843   1.204  0.0352  0.0844  0.4775
  984TIP3    H224588   5.332   4.902   1.224  0.1069  0.8013 -1.0303
  985TIP3   OH224589   5.613   3.619   8.697  0.2831  0.0043 -0.0604
  985TIP3    H124590   5.658   3.547   8.742  0.3468  0.6330  0.9015
  985TIP3    H224591   5.668   3.638   8.621  1.4019  0.4341  0.8315
  986TIP3   OH224592   5.897   0.102   0.432 -0.0598 -0.3592  0.1490
  986TIP3    H124593   5.841   0.121   0.357  1.2186 -2.3886 -1.4319
  986TIP3    H224594   5.843   0.047   0.490 -0.4987 -0.2277 -0.1365
  987TIP3   OH224595   3.549   0.149   7.696 -0.5570 -0.5003  0.0184
  987TIP3    H124596   3.511   0.083   7.638 -2.1920  0.6439 -0.2742
  987TIP3    H224597   3.592   0.211   7.637 -1.9422  0.4904  0.0120
  988TIP3   OH224598   4.429   4.076   2.085 -1.1243 -0.1023 -0.1274
  988TIP3    H124599   4.432   4.028   2.168 -1.1734  1.6235  0.9114
  988TIP3    H224600   4.335   4.084   2.066 -1.1836  0.7551  0.4429
  989TIP3   OH224601   1.500   0.050   7.081  0.0825  0.1275  0.3466
  989TIP3    H124602   1.572   0.097   7.039 -0.0003 -0.3670 -0.3765
  989TIP3    H224603   1.452   0.010   7.008  0.0512 -0.9219  0.9294
  990TIP3   OH224604   5.868   2.313   0.693  0.1722 -0.0352  0.2728
  990TIP3    H124605   5.903   2.402   0.689 -0.5823  0.2391 -0.3226
  990TIP3    H224606   5.774   2.324   0.706  0.0357 -0.7398 -0.0680
  991TIP3   OH224607   5.942   2.859   8.297  0.4073  0.2689 -0.2480
  991TIP3    H124608   5.992   2.919   8.352 -0.3036  1.1053 -0.4896
  991TIP3    H224609   5.857   2.852   8.341  0.8927 -1.6467  0.5174
  992TIP3   OH224610   5.535   6.210   1.107 -0.2056 -0.0118  0.2515
  992TIP3    H124611   5.532   6.131   1.162 -0.4008 -0.3643 -0.2614
  992TIP3    H224612   5.566   6.279   1.166  1.0132 -0.6953  0.4423
  993TIP3   OH224613   0.491   1.915   2.750  0.5063 -0.1739 -0.4163
  993TIP3    H124614   0.456   1.861   2.821  0.7773  1.4037  0.9611
  993TIP3    H224615   0.568   1.958   2.787 -0.6623  2.4840 -0.8789
  994TIP3   OH224616   1.201   5.778   1.798  0.3221  0.4060  0.3415
  994TIP3    H124617   1.205   5.736   1.712  1.6412 -0.5783  0.8445
  994TIP3    H224618   1.283   5.826   1.805  0.8262 -0.5741  1.5419
  995TIP3   OH224619   1.070   6.753   8.075 -0.3206 -0.3269 -0.0068
  995TIP3    H124620   1.149   6.805   8.055 -0.5594  0.0830  0.0961
  995TIP3    H224621   1.086   6.716   8.161 -0.2218 -0.2740 -0.0018
  996TIP3   OH224622   3.882   5.416   8.029 -0.4159  0.2787 -0.0163
  996TIP3    H124623   3.913   5.458   8.109  0.1552 -0.7877  0.3483
  996TIP3    H224624   3.835   5.339   8.060  0.9525 -0.8930 -0.7254
  997TIP3   OH224625   1.403   2.235   2.364  0.7161  0.0105 -0.3654
  997TIP3    H124626   1.385   2.141   2.369 -1.5118  0.2254 -2.2671
  997TIP3    H224627   1.413   2.251   2.270 -1.6017  2.0239 -0.3577
  998TIP3   OH224628   0.027   4.517   8.295 -0.2007 -0.4963 -1.0881
  998TIP3    H124629  -0.011   4.601   8.269  0.8254 -0.2701 -1.9395
  998TIP3    H224630   0.057   4.531   8.385 -1.1253 -0.3459 -0.7954
  999TIP3   OH224631   3.174   0.580   7.020  0.0770  0.2153 -0.0429
  999TIP3    H124632   3.267   0.593   7.039 -0.0215 -1.0900  1.5396
  999TIP3    H224633   3.131   0.593   7.104 -0.8406 -1.9865 -0.1164
 1000TIP3   OH224634   4.891   4.212   3.191  0.4147 -0.1001  0.6154
 1000TIP3    H124635   4.880   4.307   3.191  0.0653 -0.1257 -0.4242
 1000TIP3    H224636   4.985   4.199   3.197  0.5871  0.3537 -0.8223
 1001TIP3   OH224637   5.905   1.306   8.445 -0.0933  0.2775 -0.5858
 1001TIP3    H124638   5.941   1.381   8.493 -2.4159  1.5002 -0.5899
 1001TIP3    H224639   5.949   1.310   8.360 -0.2035  1.7247 -0.6140
 1002TIP3   OH224640   5.917   3.600   8.089 -0.1932 -0.0155  0.1628
 1002TIP3    H124641   5.870   3.530   8.043 -0.6487  0.5486 -0.2492
 1002TIP3    H224642   5.873   3.607   8.174 -0.2641 -0.1140  0.1342
 1003TIP3   OH224643   3.805   0.791   1.583 -0.2455  0.5487 -0.2498
 1003TIP3    H124644   3.888   0.829   1.612  1.3621 -1.4184 -1.9448
 1003TIP3    H224645   3.738   0.850   1.617  1.7304  1.3657  2.5219
 1004TIP3   OH224646   6.250   2.638   0.329  0.1933 -0.5913  0.0412
 1004TIP3    H124647   6.342   2.663   0.332  0.3669 -1.2111  0.0642
 1004TIP3    H224648   6.248   2.560   0.274 -0.4019 -0.2453 -0.4359
 1005TIP3   OH224649   3.249   1.882   8.050  0.1474  0.0625 -0.2731
 1005TIP3    H124650   3.319   1.927   8.097  0.0034 -0.8641  0.8736
 1005TIP3    H224651   3.197   1.953   8.011 -0.4631  0.9636  2.0243
 1006TIP3   OH224652   5.608   6.334   2.307 -0.3763 -0.3332 -0.3488
 1006TIP3    H124653   5.631   6.400   2.371  2.0996 -1.9957  0.6274
 1006TIP3    H224654   5.560   6.267   2.356  0.4044 -0.9986 -0.4577
 1007TIP3   OH224655   5.093   3.405   3.530 -0.3392  0.3975 -0.3683
 1007TIP3    H124656   5.085   3.462   3.607  0.6280 -2.2161  1.8171
 1007TIP3    H224657   5.150   3.454   3.470  0.5534  1.7212  1.4594
 1008TIP3   OH224658   5.066   6.320   8.130 -0.5652  0.2190 -0.2962
 1008TIP3    H124659   4.998   6.288   8.070  0.3337 -1.1628 -0.6243
 1008TIP3    H224660   5.080   6.248   8.191  1.6697 -0.1548 -1.1710
 1009TIP3   OH224661   0.253   5.550   1.451  0.0421 -0.0302  0.5921
 1009TIP3    H124662   0.313   5.586   1.386  0.8011  1.8792  2.2481
 1009TIP3    H224663   0.168   5.586   1.428 -0.0162 -0.6882 -0.2684
 1010TIP3   OH224664   5.996   3.009   0.796 -0.0137 -0.1897  0.1244
 1010TIP3    H124665   5.939   2.937   0.771 -0.6751  0.0221  0.9942
 1010TIP3    H224666   5.994   3.068   0.720  0.4379 -1.0081 -0.5429
 1011TIP3   OH224667   2.341   0.279   1.498  0.3595 -0.0525  0.0446
 1011TIP3    H124668   2.429   0.316   1.503  1.1626 -1.8702  0.1326
 1011TIP3    H224669   2.353   0.187   1.519 -1.3566 -0.6555 -1.4356
 1012TIP3   OH224670   4.971   0.490   1.963 -0.2390  0.3690  0.1671
 1012TIP3    H124671   5.035   0.457   1.901 -0.3145  0.3656  0.0908
 1012TIP3    H224672   4.889   0.448   1.938  0.2971 -2.1771  2.2343
 1013TIP3   OH224673   0.381   0.484   1.118  0.3189  0.3944  0.4131
 1013TIP3    H124674   0.348   0.537   1.191  2.6136 -0.1291  1.9261
 1013TIP3    H224675   0.320   0.410   1.113 -0.6863  1.1724  0.8466
 1014TIP3   OH224676   0.230   4.726   1.406  0.3264  0.3501 -0.6020
 1014TIP3    H124677   0.248   4.818   1.424 -1.1089  0.6351 -0.5198
 1014TIP3    H224678   0.295   4.678   1.457  0.0895  1.2886  0.6152
 1015TIP3   OH224679   4.060   2.875   7.661 -0.5438 -0.4383  0.0353
 1015TIP3    H124680   4.104   2.931   7.597 -0.3870 -1.0026 -0.3590
 1015TIP3    H224681   4.010   2.936   7.716 -2.6909 -0.0681 -2.1191
 1016TIP3   OH224682   0.023   4.983   1.219 -0.0851 -1.1551  0.5268
 1016TIP3    H124683  -0.042   4.947   1.279 -0.1218 -2.6352 -0.3431
 1016TIP3    H224684   0.108   4.962   1.259 -0.1209 -0.4777  0.9669
 1017TIP3   OH224685   0.526   1.236   8.787 -0.4412 -0.2884  0.1212
 1017TIP3    H124686   0.528   1.153   8.836  1.9595  0.9092  2.2317
 1017TIP3    H224687   0.592   1.290   8.828 -2.2561  2.9377 -0.8738
 1018TIP3   OH224688   2.412   1.137   0.394  0.1216 -0.2337 -0.4652
 1018TIP3    H124689   2.418   1.231   0.381  1.0155 -0.3073 -0.6194
 1018TIP3    H224690   2.318   1.118   0.390 -0.2032  0.8505  0.9857
 1019TIP3   OH224691   5.079   1.091   0.950 -0.0804 -0.0111  0.2040
 1019TIP3    H124692   5.116   1.082   1.038 -0.6307 -1.5053  0.3074
 1019TIP3    H224693   5.047   1.004   0.928  2.5110 -0.4394 -2.6203
 1020TIP3   OH224694   0.484   2.182   8.614 -0.1951  0.1028 -0.5363
 1020TIP3    H124695   0.526   2.102   8.582 -0.0830  0.1370 -0.4765
 1020TIP3    H224696   0.426   2.209   8.543  0.6567  0.6331 -1.0513
 1021TIP3   OH224697   4.483   2.067   1.032  0.0204  0.2378 -0.1107
 1021TIP3    H124698   4.430   2.135   0.989 -1.1271 -0.1495  0.6513
 1021TIP3    H224699   4.500   2.003   0.964 -1.7900 -0.3777 -0.0380
 1022TIP3   OH224700   6.204   3.805   7.751 -0.0587 -0.1543 -0.3320
 1022TIP3    H124701   6.166   3.720   7.774  1.6848 -0.8171  0.3192
 1022TIP3    H224702   6.187   3.814   7.657 -0.1178 -1.3195 -0.4539
 1023TIP3   OH224703   3.338   1.481   0.274  0.5375 -0.1989  0.2362
 1023TIP3    H124704   3.343   1.539   0.198  0.3648 -0.8471 -0.2888
 1023TIP3    H224705   3.419   1.496   0.322  0.0046  1.2853  0.7237
 1024TIP3   OH224706   3.778   2.829   7.116 -0.1773 -0.6791 -0.1434
 1024TIP3    H124707   3.846   2.769   7.086  0.4023 -0.5933  0.9564
 1024TIP3    H224708   3.719   2.775   7.169 -0.3537 -0.5290 -0.1835
 1025TIP3   OH224709   6.570   6.357   8.596 -0.2502  0.2694  0.0108
 1025TIP3    H124710   6.592   6.306   8.519  0.8912  1.1947 -0.3116
 1025TIP3    H224711   6.538   6.441   8.562 -2.7136 -0.3839  0.5123
 1026TIP3   OH224712   3.456   4.857   8.551  0.5646 -0.0141  0.7661
 1026TIP3    H124713   3.547   4.852   8.522  0.7547 -0.5848  1.4282
 1026TIP3    H224714   3.415   4.920   8.492  1.1758 -0.3942 -0.0903
 1027TIP3   OH224715   4.115   5.290   7.178 -0.1051  0.4623 -0.9951
 1027TIP3    H124716   4.106   5.198   7.152  1.5313 -0.4041  1.1329
 1027TIP3    H224717   4.191   5.322   7.128 -0.1574  0.3876 -1.1223
 1028TIP3   OH224718   5.086   2.853   1.829 -0.1154  0.0386 -0.2512
 1028TIP3    H124719   5.170   2.816   1.800 -0.0382  0.7064 -0.9035
 1028TIP3    H224720   5.090   2.945   1.803 -1.6056 -0.2284 -1.5333
 1029TIP3   OH224721   3.282   0.527   0.192  0.1622  0.5451 -0.3774
 1029TIP3    H124722   3.349   0.559   0.131  0.1739  0.0476 -0.6333
 1029TIP3    H224723   3.211   0.496   0.136  1.6833 -3.4600 -0.4405
 1030TIP3   OH224724   2.892   1.088   8.013 -0.5641 -0.5936 -0.2520
 1030TIP3    H124725   2.879   1.086   8.107  1.2969 -0.0390  0.0677
 1030TIP3    H224726   2.821   1.142   7.980 -1.5623 -1.2542  0.7537
 1031TIP3   OH224727   3.202   0.243   7.630 -0.1540 -0.4505 -0.4888
 1031TIP3    H124728   3.282   0.272   7.588  0.9443 -1.3116  0.9350
 1031TIP3    H224729   3.211   0.148   7.637 -2.0960 -0.8112 -1.8627
 1032TIP3   OH224730   0.975   5.964   8.173 -0.0619 -0.2342 -0.3419
 1032TIP3    H124731   1.057   5.993   8.132 -0.0115 -1.6716 -1.3515
 1032TIP3    H224732   0.957   6.029   8.240  1.3001  0.7429 -0.8790
 1033TIP3   OH224733   2.768   4.814   1.734 -0.1371  0.1050  0.3832
 1033TIP3    H124734   2.814   4.847   1.811  1.4344  2.7575 -1.5191
 1033TIP3    H224735   2.676   4.814   1.758  0.2477  1.5608  2.0220
 1034TIP3   OH224736   4.713   6.356   8.547 -0.3728 -0.8267  0.3484
 1034TIP3    H124737   4.746   6.295   8.482  0.3704  0.8190 -0.8954
 1034TIP3    H224738   4.788   6.411   8.569 -1.2427  0.3008  0.6324
 1035TIP3   OH224739   3.081   1.723   8.358  0.1370 -0.0446 -0.0825
 1035TIP3    H124740   3.176   1.728   8.369  0.0920 -0.9615  0.8141
 1035TIP3    H224741   3.067   1.739   8.265  0.9987  2.1331  0.1158
 1036TIP3   OH224742   3.774   2.895   2.265 -0.9067 -0.1566  0.2868
 1036TIP3    H124743   3.860   2.858   2.246 -0.1998  1.1825  0.7051
 1036TIP3    H224744   3.743   2.930   2.181  0.1379  1.6362  0.5989
 1037TIP3   OH224745   4.569   2.249   8.442 -0.2013 -0.5651  0.6099
 1037TIP3    H124746   4.598   2.159   8.434  0.5444 -0.2383 -0.6588
 1037TIP3    H224747   4.623   2.286   8.512  0.0442 -0.8889  0.5901
 1038TIP3   OH224748   1.143   5.865   8.497 -0.3253 -0.5706 -0.7254
 1038TIP3    H124749   1.061   5.910   8.478 -0.6593 -1.2752 -1.0079
 1038TIP3    H224750   1.151   5.800   8.427 -0.7707 -2.1570  0.6258
 1039TIP3   OH224751   0.315   2.088   2.567 -0.1945 -0.1706 -0.2369
 1039TIP3    H124752   0.276   2.090   2.655 -0.4634 -0.6117 -0.3417
 1039TIP3    H224753   0.403   2.053   2.581  0.3515  1.2659  0.0627
 1040TIP3   OH224754   5.607   1.041   7.687  0.3218 -0.6221  0.1346
 1040TIP3    H124755   5.686   0.988   7.676 -0.0728 -1.5949  1.7148
 1040TIP3    H224756   5.638   1.125   7.720  0.6531 -1.3564  1.7750
 1041TIP3   OH224757   2.727   2.530   7.582  0.0383  0.2183  0.2611
 1041TIP3    H124758   2.731   2.435   7.571  0.9869  0.3199 -0.3977
 1041TIP3    H224759   2.807   2.552   7.630 -1.0568  0.4989  2.0636
 1042TIP3   OH224760   2.208   2.101   2.185 -0.6144  0.3814  0.0040
 1042TIP3    H124761   2.302   2.088   2.180 -0.6773 -0.4850  0.9444
 1042TIP3    H224762   2.197   2.195   2.202  0.0107  0.7696 -1.5667
 1043TIP3   OH224763   3.972   0.376   8.181  0.0075  0.2037 -0.0358
 1043TIP3    H124764   3.905   0.426   8.134 -1.7353 -0.1502  1.9422
 1043TIP3    H224765   4.032   0.346   8.112 -1.6251  0.8658 -1.8412
 1044TIP3   OH224766   4.255   3.042   7.960 -0.3678  0.2482 -0.1604
 1044TIP3    H124767   4.210   2.974   8.010 -0.7288  1.4822  1.2570
 1044TIP3    H224768   4.239   3.122   8.009  1.7981  1.0395 -0.6638
 1045TIP3   OH224769   0.607   1.447   0.176 -0.4894  0.0655  0.0221
 1045TIP3    H124770   0.523   1.488   0.153 -0.7609  0.1969  1.2067
 1045TIP3    H224771   0.628   1.482   0.262 -0.3355 -1.6895  0.7395
 1046TIP3   OH224772   5.537   4.044   0.413  0.6811  0.6825 -0.0654
 1046TIP3    H124773   5.467   4.025   0.475  0.4021  1.6848 -0.0466
 1046TIP3    H224774   5.496   4.102   0.348  1.2102  0.3963 -0.6612
 1047TIP3   OH224775   4.546   2.302   8.135 -0.5160  0.4988  0.0060
 1047TIP3    H124776   4.560   2.207   8.128 -1.6053  0.2972  0.3640
 1047TIP3    H224777   4.581   2.325   8.220 -2.5348 -0.0696  1.0682
 1048TIP3   OH224778   2.643   1.665   7.998  0.0666 -0.2437  0.4832
 1048TIP3    H124779   2.555   1.670   8.036  0.5424  0.5096  1.5338
 1048TIP3    H224780   2.680   1.753   8.013  1.3014 -0.8063  0.8442
 1049TIP3   OH224781   1.235   0.462   2.585 -0.3748  0.5193  0.4314
 1049TIP3    H124782   1.189   0.513   2.651 -1.9694 -2.5694  1.9138
 1049TIP3    H224783   1.201   0.373   2.594  1.9389 -0.8250 -2.1933
 1050TIP3   OH224784   4.517   3.297   7.760  0.1009  0.2952 -0.0675
 1050TIP3    H124785   4.476   3.214   7.737  1.4565 -0.4669  0.1193
 1050TIP3    H224786   4.611   3.281   7.750  0.3815  1.9691 -0.5332
 1051TIP3   OH224787   2.383   1.654   8.123 -0.5212  0.0094 -0.0079
 1051TIP3    H124788   2.299   1.699   8.125 -0.6707 -0.2953  0.6045
 1051TIP3    H224789   2.381   1.595   8.198 -0.4777 -1.2904 -1.0025
 1052TIP3   OH224790   2.974   0.738   7.455 -0.0348  0.3140  0.2046
 1052TIP3    H124791   3.027   0.818   7.446 -0.1413  0.4048  0.3671
 1052TIP3    H224792   2.991   0.709   7.545  0.3190 -0.0728  0.0175
 1053TIP3   OH224793   4.958   5.881   2.148 -0.5775 -0.1545 -0.2526
 1053TIP3    H124794   4.961   5.936   2.070 -0.1584  0.4018  0.1428
 1053TIP3    H224795   4.991   5.796   2.120 -0.0927  0.1447 -0.6010
 1054TIP3   OH224796   3.323   4.973   1.316 -0.1314 -0.5180 -0.0928
 1054TIP3    H124797   3.340   4.896   1.262 -2.0937 -0.8326 -0.3446
 1054TIP3    H224798   3.234   4.961   1.348 -0.2358  1.3058  0.4495
 1055TIP3   OH224799   2.480   0.908   7.972 -0.3767  0.3149 -0.0193
 1055TIP3    H124800   2.507   0.818   7.957  0.2829  0.5602 -0.3625
 1055TIP3    H224801   2.384   0.905   7.972 -0.3605 -0.3288 -0.3752
 1056TIP3   OH224802   1.774   3.707   2.247 -0.0576  0.8221 -0.5301
 1056TIP3    H124803   1.825   3.784   2.273  1.8910  0.1722 -2.1684
 1056TIP3    H224804   1.826   3.633   2.277 -0.0838  0.1307 -2.1254
 1057TIP3   OH224805   1.956   2.948   8.308 -0.0992  0.0780 -0.4050
 1057TIP3    H124806   1.972   3.032   8.350  0.2346 -0.7212  1.1383
 1057TIP3    H224807   1.897   2.902   8.368 -2.1482  0.0293 -2.2954
 1058TIP3   OH224808   6.080   3.426   8.749 -0.3937 -0.0067 -0.4681
 1058TIP3    H124809   6.166   3.410   8.788  0.2107 -0.5715 -1.9573
 1058TIP3    H224810   6.020   3.373   8.801 -0.0060  0.9815  1.0749
 1059TIP3   OH224811   4.501   0.192   8.377  0.1455  1.1895  0.1856
 1059TIP3    H124812   4.428   0.251   8.361  0.0714  1.5132  1.5691
 1059TIP3    H224813   4.575   0.250   8.396  0.9675  0.8854 -1.8279
 1060TIP3   OH224814   4.623   3.310   1.307  0.0690  0.2964  0.0478
 1060TIP3    H124815   4.620   3.223   1.266  0.5207  0.2923  0.0214
 1060TIP3    H224816   4.695   3.355   1.264  0.8434  0.1413  1.1245
 1061TIP3   OH224817   5.828   2.222   7.838  0.2059 -0.5555  0.2799
 1061TIP3    H124818   5.788   2.185   7.917 -0.6363 -0.6436 -0.1768
 1061TIP3    H224819   5.802   2.314   7.840  2.0306  0.0011  1.2477
 1062TIP3   OH224820   5.415   4.797   8.239  0.0618 -0.5864 -0.0668
 1062TIP3    H124821   5.374   4.743   8.172 -3.6526  1.8228 -0.0031
 1062TIP3    H224822   5.383   4.762   8.322  2.3220 -1.7430  0.4122
 1063TIP3   OH224823   5.926   3.930   7.726  0.0424  0.0321  0.6904
 1063TIP3    H124824   5.877   3.848   7.731 -0.6087  0.4313  1.2064
 1063TIP3    H224825   5.967   3.930   7.640 -0.6680 -0.4412  0.3479
 1064TIP3   OH224826   5.186   3.785   0.219 -0.0076 -0.1040  0.5531
 1064TIP3    H124827   5.169   3.835   0.299 -0.4635 -0.6189  0.7819
 1064TIP3    H224828   5.236   3.845   0.164 -1.3878  0.9968  0.4242
 1065TIP3   OH224829   4.050   1.374   1.418 -0.5790  0.6650 -0.0255
 1065TIP3    H124830   4.143   1.389   1.434 -0.1130 -0.2667 -1.6169
 1065TIP3    H224831   4.044   1.281   1.394 -2.0484  0.5083  0.8143
 1066TIP3   OH224832   5.353   3.583   0.300 -0.4127 -0.2902 -0.5299
 1066TIP3    H124833   5.317   3.657   0.251 -2.3096 -0.8768 -0.1269
 1066TIP3    H224834   5.332   3.602   0.391 -1.0404 -1.3450 -0.4309
 1067TIP3   OH224835   0.139   6.546   1.627 -0.6145 -0.3911  0.2423
 1067TIP3    H124836   0.127   6.640   1.616  0.1308 -0.2818  0.3156
 1067TIP3    H224837   0.094   6.507   1.551 -2.3684 -0.0897  1.0668
 1068TIP3   OH224838   5.551   6.277   0.116  0.0059 -0.1209 -0.6566
 1068TIP3    H124839   5.604   6.209   0.075 -0.3220 -0.0422 -1.2169
 1068TIP3    H224840   5.487   6.230   0.169  1.0797 -0.2121  0.6131
 1069TIP3   OH224841   1.511   6.325   1.962 -0.2831  0.7962 -0.2158
 1069TIP3    H124842   1.549   6.405   1.996 -0.8248  1.0037 -0.0932
 1069TIP3    H224843   1.578   6.289   1.904  0.1981  1.0196  0.2048
 1070TIP3   OH224844   5.764   4.891   2.820  0.8250  0.0535 -0.3550
 1070TIP3    H124845   5.776   4.848   2.904 -0.8746  0.2909  0.0323
 1070TIP3    H224846   5.816   4.972   2.827 -1.2060  1.3128  1.4525
 1071TIP3   OH224847   1.806   6.049   8.209 -0.4598  0.3155  0.4486
 1071TIP3    H124848   1.760   5.975   8.170 -0.9554  1.7368 -1.8570
 1071TIP3    H224849   1.740   6.094   8.261 -0.4206 -0.2865  1.0217
 1072TIP3   OH224850   2.702   1.181   2.292 -0.1704  0.0196 -0.1119
 1072TIP3    H124851   2.755   1.181   2.371  0.0862 -1.3521 -0.2610
 1072TIP3    H224852   2.658   1.266   2.292  2.0755  1.2503 -0.0327
 1073TIP3   OH224853   5.609   5.139   1.957  0.3550 -0.2291  0.3140
 1073TIP3    H124854   5.644   5.087   1.885  0.0313  2.5954 -2.1091
 1073TIP3    H224855   5.514   5.134   1.946  0.3169  0.7263  0.1050
 1074TIP3   OH224856   6.642   0.912   1.305  0.5443  0.8881 -0.4447
 1074TIP3    H124857   6.677   0.824   1.316  0.1732  0.7861 -0.0492
 1074TIP3    H224858   6.704   0.956   1.247  1.0981  0.5823 -0.0869
 1075TIP3   OH224859   6.105   3.097   0.141 -0.1875  0.2082  0.7191
 1075TIP3    H124860   6.085   3.108   0.048 -3.4233  2.3540  1.4720
 1075TIP3    H224861   6.116   3.003   0.152  1.3634 -0.0256 -1.9507
 1076TIP3   OH224862   5.177   4.153   8.139 -0.1487  0.5153 -0.5519
 1076TIP3    H124863   5.213   4.177   8.224  1.5957  2.5234 -1.7335
 1076TIP3    H224864   5.130   4.232   8.110  0.2646  0.3085 -1.8809
 1077TIP3   OH224865   5.426   3.424   0.876 -0.6306  0.7367 -0.1228
 1077TIP3    H124866   5.460   3.418   0.965 -1.4448 -3.3717  0.1355
 1077TIP3    H224867   5.498   3.392   0.821 -0.7261  1.5878 -0.7614
 1078TIP3   OH224868   6.173   6.315   1.151 -0.4001  0.4381  0.7833
 1078TIP3    H124869   6.220   6.395   1.126  1.0863  0.0190  2.1380
 1078TIP3    H224870   6.141   6.280   1.068  0.0405  1.7510  0.0283
 1079TIP3   OH224871   3.185   4.091   2.555  0.6821  0.6991  0.1248
 1079TIP3    H124872   3.098   4.051   2.545  1.5842 -0.9792 -1.6297
 1079TIP3    H224873   3.214   4.063   2.642 -0.4304  1.1460  0.6683
 1080TIP3   OH224874   4.927   4.071   8.488  0.6678 -0.5664  0.1865
 1080TIP3    H124875   4.948   3.979   8.504 -0.4231 -1.0862 -1.1412
 1080TIP3    H224876   4.831   4.074   8.493  0.6900  0.4798  0.1214
 1081TIP3   OH224877   5.627   4.451   3.132 -0.0067 -0.6462  0.2000
 1081TIP3    H124878   5.590   4.429   3.047 -0.5562  1.3379 -0.1326
 1081TIP3    H224879   5.568   4.410   3.196  1.0862 -3.1999 -0.2925
 1082TIP3   OH224880   4.184   3.971   8.469 -0.4478 -0.1364  0.0047
 1082TIP3    H124881   4.206   3.900   8.408 -1.2808 -0.3462 -0.0633
 1082TIP3    H224882   4.092   3.956   8.491 -0.0113 -0.3853  1.7564
 1083TIP3   OH224883   4.947   1.864   8.348  0.1507 -0.5488  0.0992
 1083TIP3    H124884   4.981   1.791   8.298 -1.2012 -0.0698 -1.6210
 1083TIP3    H224885   4.997   1.863   8.429  2.6507 -1.1767 -1.3624
 1084TIP3   OH224886   2.894   0.140   7.166  0.2855 -0.3048 -0.2582
 1084TIP3    H124887   2.817   0.109   7.214  2.7305 -3.3228  2.1614
 1084TIP3    H224888   2.872   0.126   7.074 -2.2462 -0.4874  0.3032
 1085TIP3   OH224889   3.536   6.456   1.509 -0.4595 -0.1048  0.4107
 1085TIP3    H124890   3.447   6.445   1.476  0.1393 -0.1747 -1.2559
 1085TIP3    H224891   3.592   6.431   1.436  0.9426 -0.4146  1.5504
 1086TIP3   OH224892   5.377   0.202   0.824 -0.1909 -0.6233  0.0656
 1086TIP3    H124893   5.443   0.219   0.891 -1.0642  2.4416  0.2984
 1086TIP3    H224894   5.351   0.111   0.838  3.7953 -1.9562  0.0290
 1087TIP3   OH224895   4.651   5.816   8.545  0.0498 -0.1459 -0.0444
 1087TIP3    H124896   4.666   5.878   8.473 -2.0014  2.7936  1.8416
 1087TIP3    H224897   4.705   5.850   8.617 -0.1813 -1.3141  0.6980
 1088TIP3   OH224898   4.801   0.887   0.297 -0.1872  0.0327 -0.9495
 1088TIP3    H124899   4.740   0.925   0.234 -1.1684 -0.9018 -0.5937
 1088TIP3    H224900   4.781   0.793   0.295  0.7226 -0.1836 -0.2591
 1089TIP3   OH224901   5.195   5.976   8.211  0.3957  0.2548  0.3332
 1089TIP3    H124902   5.144   5.903   8.246 -0.4776  0.7642  0.1596
 1089TIP3    H224903   5.270   5.935   8.169 -1.5319 -0.8494 -2.3554
 1090TIP3   OH224904   0.559   0.234   8.030  0.8084 -0.4648  0.2499
 1090TIP3    H124905   0.617   0.176   8.080 -1.2253 -1.9817  1.0156
 1090TIP3    H224906   0.475   0.187   8.027 -0.7007  2.0324  0.0788
 1091TIP3   OH224907   1.614   3.406   8.094  0.3129 -0.1305  0.0659
 1091TIP3    H124908   1.534   3.358   8.072  0.6692 -1.2308  1.0669
 1091TIP3    H224909   1.644   3.441   8.010 -1.0753  0.1066 -0.3640
 1092TIP3   OH224910   1.933   3.206   0.263 -0.5896 -0.2661  0.5077
 1092TIP3    H124911   1.987   3.132   0.239 -0.2577 -0.8415  2.7544
 1092TIP3    H224912   1.955   3.275   0.200 -0.1394 -1.7126 -0.9678
 1093TIP3   OH224913   5.192   0.165   1.552  0.3372 -0.2183 -0.1813
 1093TIP3    H124914   5.275   0.118   1.548 -0.7013 -2.0223 -1.3441
 1093TIP3    H224915   5.213   0.252   1.517  1.6357 -0.7959 -0.9350
 1094TIP3   OH224916   5.587   4.815   8.467  0.1403 -0.1876 -0.4389
 1094TIP3    H124917   5.557   4.792   8.379 -0.0980  3.5385 -1.4666
 1094TIP3    H224918   5.552   4.903   8.482  2.0250  0.1743  2.5135
 1095TIP3   OH224919   2.414   6.182   6.707  0.0718  0.1834 -0.5229
 1095TIP3    H124920   2.470   6.259   6.722  1.9685 -1.3099  0.6113
 1095TIP3    H224921   2.410   6.138   6.792 -0.6684 -1.1501 -1.2093
 1096TIP3   OH224922   2.595   0.354   1.521 -0.4129 -0.6007 -0.5067
 1096TIP3    H124923   2.606   0.434   1.573 -1.4079 -0.6616 -0.1820
 1096TIP3    H224924   2.670   0.355   1.461  1.4841 -1.1546  1.6986
 1097TIP3   OH224925   4.261   0.305   2.138 -0.3348  0.6421 -0.2659
 1097TIP3    H124926   4.261   0.390   2.094  0.4630  1.0243  0.4385
 1097TIP3    H224927   4.169   0.289   2.159 -0.4441  1.5284 -0.0377
 1098TIP3   OH224928   4.675   1.876   1.874 -0.1207 -0.1897  0.5601
 1098TIP3    H124929   4.745   1.844   1.931  1.3050 -0.2091 -1.1110
 1098TIP3    H224930   4.721   1.911   1.798 -1.8926  1.1239  0.0399
 1099TIP3   OH224931   3.722   1.292   2.129  0.3029 -0.0269 -0.1991
 1099TIP3    H124932   3.641   1.342   2.130  1.2852  1.6488 -0.2740
 1099TIP3    H224933   3.705   1.218   2.070 -1.0229  0.5181 -0.5223
 1100TIP3   OH224934   3.620   6.287   1.298 -0.7204  0.9325  0.4454
 1100TIP3    H124935   3.586   6.220   1.239  0.5605  0.2601  0.4261
 1100TIP3    H224936   3.693   6.244   1.343  0.7157  2.5552 -0.1927
 1101TIP3   OH224937   6.202   5.936   2.391  0.0695  0.0495 -0.2298
 1101TIP3    H124938   6.189   5.842   2.377  1.3231 -0.3870  1.2350
 1101TIP3    H224939   6.173   5.951   2.481 -0.3427  1.1295 -0.5287
 1102TIP3   OH224940   3.145   5.795   7.885 -0.2889  0.1464 -0.0455
 1102TIP3    H124941   3.067   5.747   7.911 -0.7481  1.2812  0.7170
 1102TIP3    H224942   3.160   5.858   7.955 -0.1181  1.6066 -1.3488
 1103TIP3   OH224943   2.481   5.781   0.673 -0.4127 -0.8159  0.0908
 1103TIP3    H124944   2.556   5.839   0.656 -2.0176  0.9069 -1.6630
 1103TIP3    H224945   2.518   5.693   0.672  1.9713  0.0732  1.7916
 1104TIP3   OH224946   2.478   6.111   8.674 -0.1154 -0.3357 -0.2644
 1104TIP3    H124947   2.563   6.068   8.663  0.2871  0.7103 -1.5300
 1104TIP3    H224948   2.498   6.190   8.724 -0.3220 -0.0255 -0.6722
 1105TIP3   OH224949   4.487   1.470   8.442 -0.1792 -0.3079  0.0737
 1105TIP3    H124950   4.472   1.429   8.358 -1.6080  0.4474 -0.0758
 1105TIP3    H224951   4.516   1.399   8.499  1.6420 -0.6701 -1.2367
 1106TIP3   OH224952   3.023   2.093   8.173 -0.1965 -0.5508  0.0552
 1106TIP3    H124953   3.000   2.182   8.201 -1.2854 -1.3129  1.7349
 1106TIP3    H224954   3.087   2.106   8.102  0.9610  1.5524  1.3673
 1107TIP3   OH224955   5.461   4.737   2.897 -0.1110 -0.1932 -0.3313
 1107TIP3    H124956   5.431   4.793   2.968  0.6683 -0.5794  0.3197
 1107TIP3    H224957   5.483   4.798   2.826 -0.4683  0.2274 -0.0809
 1108TIP3   OH224958   5.736   5.278   2.425  0.4940 -0.0946  0.1989
 1108TIP3    H124959   5.751   5.217   2.353  2.4269  0.5496  0.0082
 1108TIP3    H224960   5.797   5.350   2.409 -1.0228  1.4324  0.9601
 1109TIP3   OH224961   4.862   3.480   3.225  0.6757 -0.1614  0.3445
 1109TIP3    H124962   4.770   3.492   3.204  0.6671 -1.1192 -0.2696
 1109TIP3    H224963   4.887   3.559   3.273 -0.1276  0.6909 -0.5954
 1110TIP3   OH224964   3.458   0.925   1.453  0.2974 -0.1414  0.3245
 1110TIP3    H124965   3.397   0.852   1.441 -0.6678  0.6575  0.2220
 1110TIP3    H224966   3.481   0.922   1.546 -2.4150  1.4023  1.1706
 1111TIP3   OH224967   5.980   3.927   1.013  0.3666  0.2856  0.2932
 1111TIP3    H124968   5.897   3.887   1.039  1.0938 -0.9177  0.8582
 1111TIP3    H224969   6.046   3.879   1.063  1.3625  1.6199  0.2969
 1112TIP3   OH224970   4.213   4.409   0.102  0.0979  0.2244  0.1313
 1112TIP3    H124971   4.144   4.367   0.052 -0.7933 -0.3692  1.7847
 1112TIP3    H224972   4.196   4.503   0.092 -0.7786  0.0884  0.2909
 1113TIP3   OH224973   0.708   2.108   8.277 -0.6334  0.4713  0.4900
 1113TIP3    H124974   0.704   2.190   8.326  0.1694  0.1610  1.1059
 1113TIP3    H224975   0.630   2.060   8.304 -0.4861  0.5377  1.0569
 1114TIP3   OH224976   6.295   0.466   8.349  0.0591 -0.2180 -0.3217
 1114TIP3    H124977   6.255   0.437   8.431  0.1404 -0.1253 -0.2489
 1114TIP3    H224978   6.345   0.391   8.319  0.1836 -0.1894 -0.1880
 1115TIP3   OH224979   3.308   4.227   1.325  0.1093  0.0296  0.7609
 1115TIP3    H124980   3.267   4.222   1.412 -0.6805  0.2099  0.4098
 1115TIP3    H224981   3.234   4.230   1.264  0.6351  1.1224  0.1449
 1116TIP3   OH224982   0.731   6.014   7.920 -0.0906  0.5625  0.1274
 1116TIP3    H124983   0.789   5.948   7.956 -0.6546  0.5011  0.9343
 1116TIP3    H224984   0.643   5.986   7.945 -0.3890  1.2444 -0.1284
 1117TIP3   OH224985   6.446   4.551   7.938  0.1831  0.2512 -0.8889
 1117TIP3    H124986   6.491   4.634   7.952  0.5119 -0.0648  0.0009
 1117TIP3    H224987   6.504   4.485   7.976 -1.9730  0.0352  2.4570
 1118TIP3   OH224988   2.374   6.062   1.536  0.2828 -0.2073 -0.5782
 1118TIP3    H124989   2.367   6.156   1.550  0.0444 -0.2389 -0.4817
 1118TIP3    H224990   2.285   6.029   1.545  0.3753 -0.4526 -0.5401
 1119TIP3   OH224991   4.558   3.829   2.014  0.1006  0.3026 -0.1867
 1119TIP3    H124992   4.505   3.878   2.077  0.5316 -0.2284  0.6074
 1119TIP3    H224993   4.503   3.822   1.936 -0.8525  0.0737  0.4918
 1120TIP3   OH224994   1.902   2.465   2.901 -0.0096 -0.7613 -0.3600
 1120TIP3    H124995   1.807   2.471   2.914  0.0123 -2.9350  1.4321
 1120TIP3    H224996   1.918   2.516   2.821 -2.6423 -0.1892 -0.6341
 1121TIP3   OH224997   4.614   4.233   0.805  0.7952 -0.9355  0.0974
 1121TIP3    H124998   4.571   4.230   0.720 -2.0249 -0.3251  1.3815
 1121TIP3    H224999   4.635   4.326   0.818  1.0671 -1.0026  0.1557
 1122TIP3   OH225000   5.079   5.375   7.370  0.5270  0.4378  0.2302
 1122TIP3    H125001   5.127   5.339   7.444  0.4597  0.9117  0.5069
 1122TIP3    H225002   5.127   5.454   7.347  0.2708  0.5479  0.0732
 1123TIP3   OH225003   2.118   4.500   1.138  0.1000 -0.3783 -0.1602
 1123TIP3    H125004   2.073   4.583   1.128 -0.3468 -0.4605  1.0397
 1123TIP3    H225005   2.193   4.520   1.194  0.1887 -0.7221 -0.1537
 1124TIP3   OH225006   3.851   3.734   1.448  0.2805 -0.2933  0.3895
 1124TIP3    H125007   3.782   3.670   1.466 -1.2463  0.7653 -1.3309
 1124TIP3    H225008   3.913   3.688   1.392  0.1359 -0.7666  0.6098
 1125TIP3   OH225009   3.324   0.222   8.730  0.3107  0.0888 -0.4343
 1125TIP3    H125010   3.301   0.316   8.730 -0.2151 -0.0313 -1.1654
 1125TIP3    H225011   3.281   0.188   8.809  1.0678  0.5854  0.2069
 1126TIP3   OH225012   4.315   3.513   8.111 -0.0959 -0.0182 -0.0866
 1126TIP3    H125013   4.293   3.604   8.090 -0.0737 -0.6035 -3.1842
 1126TIP3    H225014   4.405   3.503   8.079 -0.2006 -1.1789 -0.0480
 1127TIP3   OH225015   4.407   4.569   1.337  0.7416 -0.4152 -0.0142
 1127TIP3    H125016   4.425   4.502   1.403 -0.2016 -1.7281 -1.0148
 1127TIP3    H225017   4.459   4.541   1.261  3.4994  2.2168  0.7204
 1128TIP3   OH225018   2.876   2.270   0.336 -0.4232  0.3825  0.0164
 1128TIP3    H125019   2.913   2.182   0.333  1.0506  0.9539  0.4921
 1128TIP3    H225020   2.950   2.328   0.316 -0.3632  1.7480  3.4469
 1129TIP3   OH225021   1.500   2.436   2.083 -0.0966  0.2087 -0.0868
 1129TIP3    H125022   1.555   2.366   2.049  0.1587  0.3851 -0.0351
 1129TIP3    H225023   1.547   2.516   2.063 -0.6114  0.4009 -0.5690
 1130TIP3   OH225024   1.158   3.686   7.860 -0.0834 -0.2611 -0.1716
 1130TIP3    H125025   1.148   3.637   7.778 -0.8263 -0.8488  0.2590
 1130TIP3    H225026   1.074   3.676   7.904  0.7135 -0.9809  1.2455
 1131TIP3   OH225027   5.830   0.149   0.916  0.2729 -0.6241  0.3942
 1131TIP3    H125028   5.871   0.172   0.999  1.0175  0.9256 -0.3809
 1131TIP3    H225029   5.902   0.122   0.859  0.2294  1.4847 -0.7629
 1132TIP3   OH225030   2.401   3.872   1.319  0.2439  0.1376  0.0412
 1132TIP3    H125031   2.414   3.779   1.334  1.6316  0.2834 -0.1278
 1132TIP3    H225032   2.340   3.877   1.245 -1.1883 -0.6016  1.1296
 1133TIP3   OH225033   2.149   0.020   0.854  0.5762 -0.3907  0.0040
 1133TIP3    H125034   2.071  -0.020   0.816  1.8925 -2.3099 -0.9047
 1133TIP3    H225035   2.117   0.090   0.909 -1.7630 -1.0446 -0.4387
 1134TIP3   OH225036   4.133   3.757   1.556  0.0504 -0.0862  0.1501
 1134TIP3    H125037   4.115   3.730   1.646  0.1933  0.6143  0.3883
 1134TIP3    H225038   4.102   3.683   1.503  0.5381 -0.7705  0.8008
 1135TIP3   OH225039   0.777   5.033   6.948 -0.3645 -0.1843  0.1052
 1135TIP3    H125040   0.704   5.040   6.886  1.0471 -0.7758 -1.6815
 1135TIP3    H225041   0.797   4.940   6.953  0.8504  0.0441 -0.1464
 1136TIP3   OH225042   1.017   4.869   0.256 -0.0759  0.9155 -0.0032
 1136TIP3    H125043   1.042   4.956   0.288  0.2153  1.5913 -1.9449
 1136TIP3    H225044   1.034   4.873   0.162  1.9428 -1.9099  0.1115
 1137TIP3   OH225045   6.755   4.704   0.964  0.6955  0.3436  0.0258
 1137TIP3    H125046   6.793   4.664   0.886 -1.6430 -1.7216 -0.1769
 1137TIP3    H225047   6.774   4.643   1.035 -0.4129  0.3105  0.3126
 1138TIP3   OH225048   4.610   3.021   8.122 -0.2543 -0.1325  0.0790
 1138TIP3    H125049   4.686   3.015   8.181 -1.6125  1.7280  2.1625
 1138TIP3    H225050   4.602   3.114   8.103 -1.8686 -0.3356 -0.3557
 1139TIP3   OH225051   3.733   4.283   1.159 -0.3644 -0.9155 -0.1812
 1139TIP3    H125052   3.751   4.295   1.252 -1.4816 -0.0177 -0.0536
 1139TIP3    H225053   3.775   4.358   1.117  0.1923 -1.3536 -0.4176
 1140TIP3   OH225054   2.714   6.453   1.056  0.8700  0.3865  0.3967
 1140TIP3    H125055   2.739   6.360   1.055 -0.3617  0.0056 -2.0340
 1140TIP3    H225056   2.622   6.452   1.084  0.0649  0.5555 -2.0459
 1141TIP3   OH225057   1.648   3.448   1.357 -0.3284  0.4087  0.1311
 1141TIP3    H125058   1.681   3.529   1.395 -2.0599  1.0469  0.3410
 1141TIP3    H225059   1.617   3.398   1.433 -0.5565  0.1593 -0.1260
 1142TIP3   OH225060   5.543   5.266   7.565 -0.1566  0.3816 -0.0591
 1142TIP3    H125061   5.470   5.252   7.625  0.4615  0.3532  0.7137
 1142TIP3    H225062   5.504   5.306   7.487 -1.3349 -1.6849 -0.5929
 1143TIP3   OH225063   4.954   3.628   2.110  0.4117  0.1839 -0.7107
 1143TIP3    H125064   4.935   3.586   2.026  0.9507 -0.9623 -0.2853
 1143TIP3    H225065   5.048   3.648   2.105  0.4930 -0.0948 -0.2925
 1144TIP3   OH225066   1.181   5.341   1.372  0.0402 -0.2506  0.6235
 1144TIP3    H125067   1.120   5.405   1.408  0.5497  0.4665  0.2324
 1144TIP3    H225068   1.172   5.350   1.277 -0.7899 -1.6435  0.5425
 1145TIP3   OH225069   0.743   4.199   0.911 -0.1755 -0.2795  0.3519
 1145TIP3    H125070   0.714   4.107   0.907 -0.6566 -0.0858 -2.2376
 1145TIP3    H225071   0.665   4.248   0.937 -0.2429 -0.4713  0.5145
 1146TIP3   OH225072   4.310   2.770   8.260 -0.4188  0.0395 -0.0750
 1146TIP3    H125073   4.276   2.681   8.272 -1.3820  0.3347 -0.4760
 1146TIP3    H225074   4.397   2.757   8.223 -0.5768 -0.7426 -0.2033
 1147TIP3   OH225075   3.469   5.323   2.276  0.2280 -0.7896  0.1353
 1147TIP3    H125076   3.469   5.235   2.315  0.8901 -0.4000  1.0566
 1147TIP3    H225077   3.404   5.318   2.206 -0.2482 -1.8145  0.6238
 1148TIP3   OH225078   4.658   5.765   1.384 -0.1387 -0.2229 -0.5315
 1148TIP3    H125079   4.664   5.729   1.473 -0.2188 -1.1795 -0.8977
 1148TIP3    H225080   4.676   5.690   1.327  1.6268  0.7339 -1.3088
 1149TIP3   OH225081   2.772   4.472   1.765  0.5747 -0.4272 -0.0763
 1149TIP3    H125082   2.706   4.542   1.763 -0.4248 -1.3122 -2.4143
 1149TIP3    H225083   2.775   4.445   1.856 -0.4113  1.3716  0.5478
 1150TIP3   OH225084   4.623   2.328   8.694  0.4212 -0.1475 -0.2562
 1150TIP3    H125085   4.664   2.284   8.769 -0.0628 -2.2052 -1.1206
 1150TIP3    H225086   4.681   2.402   8.675  0.4569  0.5726  2.2147
 1151TIP3   OH225087   1.266   4.260   1.888  0.1692  0.0905  0.1010
 1151TIP3    H125088   1.306   4.174   1.877  1.3578  0.8832 -2.7665
 1151TIP3    H225089   1.175   4.241   1.910  0.0611 -1.9651 -1.7398
 1152TIP3   OH225090   0.858   0.548   7.629 -0.4802 -0.5369  0.2433
 1152TIP3    H125091   0.822   0.539   7.541 -0.1925 -1.8626  0.2391
 1152TIP3    H225092   0.794   0.506   7.686  0.4127 -1.8042  0.3730
 1153TIP3   OH225093   1.058   0.222   1.882 -0.0518  0.2402  0.4825
 1153TIP3    H125094   0.975   0.210   1.836 -0.4702  0.4532  1.1691
 1153TIP3    H225095   1.113   0.150   1.851 -0.1205  0.7090 -0.7857
 1154TIP3   OH225096   4.160   2.710   0.130  0.0955 -0.6285  0.1373
 1154TIP3    H125097   4.121   2.778   0.186 -1.0810 -0.6193 -0.6686
 1154TIP3    H225098   4.224   2.756   0.077 -1.4033  0.1162 -1.1309
 1155TIP3   OH225099   3.546   5.173   7.877  0.3008  0.7681 -0.3213
 1155TIP3    H125100   3.630   5.148   7.915  0.4615  1.1764 -0.4111
 1155TIP3    H225101   3.489   5.097   7.894 -0.1574  1.5976  2.3766
 1156TIP3   OH225102   1.872   5.815   1.982 -0.3073 -0.2024  0.1100
 1156TIP3    H125103   1.926   5.890   2.007 -2.7045  1.4180  0.6578
 1156TIP3    H225104   1.907   5.788   1.896  1.2484  0.8504  0.3703
 1157TIP3   OH225105   3.013   0.292   1.439 -0.4349  0.3734  0.4682
 1157TIP3    H125106   3.098   0.288   1.481 -1.2432 -0.6574  2.1150
 1157TIP3    H225107   2.954   0.245   1.499 -2.4247  2.1719  0.0486
 1158TIP3   OH225108   0.238   1.235   1.973  0.3162 -0.1152 -0.2923
 1158TIP3    H125109   0.179   1.213   1.901  0.4820 -0.5109 -0.3125
 1158TIP3    H225110   0.184   1.284   2.034  0.1550  0.1598 -0.6533
 1159TIP3   OH225111   2.364   5.196   7.865  0.7541 -0.4758  0.0313
 1159TIP3    H125112   2.306   5.261   7.905  0.4428 -0.9463  0.3649
 1159TIP3    H225113   2.334   5.190   7.774 -0.3102 -1.3371  0.4108
 1160TIP3   OH225114   4.967   3.928   8.195  0.1920  0.2261 -0.2942
 1160TIP3    H125115   5.018   4.005   8.220  0.4663 -0.2929  0.8323
 1160TIP3    H225116   4.965   3.930   8.100  1.7114  0.6475 -0.3481
 1161TIP3   OH225117   1.645   6.379   7.824 -0.7599 -0.2789 -0.4741
 1161TIP3    H125118   1.691   6.445   7.875 -0.9085 -0.2000 -0.4419
 1161TIP3    H225119   1.702   6.303   7.825 -0.1194  0.1774 -1.3566
 1162TIP3   OH225120   1.438   6.034   0.168  0.5684  0.2943 -0.5061
 1162TIP3    H125121   1.398   5.951   0.139  2.7846 -0.1774 -2.5625
 1162TIP3    H225122   1.517   6.007   0.215 -0.5260  1.2354  2.0510
 1163TIP3   OH225123   5.922   3.295   1.025 -0.0005  0.5537  0.4039
 1163TIP3    H125124   6.005   3.302   1.072  0.3294 -0.0867 -0.0755
 1163TIP3    H225125   5.946   3.289   0.933 -0.5502 -0.1610  0.2960
 1164TIP3   OH225126   1.949   1.616   7.164  0.1718 -0.1406  0.4241
 1164TIP3    H125127   1.861   1.652   7.176 -0.4062 -0.8870 -1.1903
 1164TIP3    H225128   1.993   1.679   7.107 -0.4345 -1.2536 -1.3943
 1165TIP3   OH225129   6.588   2.329   7.534 -0.2003 -0.7351  0.3706
 1165TIP3    H125130   6.509   2.288   7.500 -0.2100  1.3859 -2.5167
 1165TIP3    H225131   6.660   2.291   7.484  0.4827 -1.4015  1.7818
 1166TIP3   OH225132   2.832   5.130   7.641  0.1928  0.0391  0.6407
 1166TIP3    H125133   2.843   5.035   7.649  0.0432  0.0250  0.6956
 1166TIP3    H225134   2.740   5.141   7.614 -0.1774  0.2259  1.9183
 1167TIP3   OH225135   1.505   5.543   2.782 -0.0080  0.3735 -0.5762
 1167TIP3    H125136   1.557   5.509   2.710 -0.1657  2.0701 -1.5427
 1167TIP3    H225137   1.568   5.559   2.852  0.2098 -0.9049 -0.4646
 1168TIP3   OH225138   2.601   1.245   8.309 -0.9127  0.2856  0.1912
 1168TIP3    H125139   2.638   1.306   8.245 -0.4179 -0.1337  0.0724
 1168TIP3    H225140   2.602   1.161   8.264 -3.1553  0.4609 -0.2765
 1169TIP3   OH225141   2.767   0.306   8.592  0.7911 -0.2991  0.2862
 1169TIP3    H125142   2.690   0.250   8.585 -0.7486  1.7756 -0.6427
 1169TIP3    H225143   2.788   0.306   8.685  0.2055 -1.5835  0.4395
 1170TIP3   OH225144   6.015   5.551   7.488  0.0697  0.0379  0.4293
 1170TIP3    H125145   6.033   5.614   7.419 -0.8602 -0.0790  0.0659
 1170TIP3    H225146   6.002   5.468   7.441 -0.0183 -0.1584  0.7989
 1171TIP3   OH225147   6.365   2.048   8.260  0.1851 -0.2128 -0.8844
 1171TIP3    H125148   6.356   1.954   8.242 -0.1995  0.0090 -1.9500
 1171TIP3    H225149   6.308   2.090   8.195  0.2063  0.7511 -0.2950
 1172TIP3   OH225150   3.964   4.349   8.051  0.6757 -0.4549 -0.2141
 1172TIP3    H125151   4.008   4.275   8.092  1.1503 -0.0208  0.0612
 1172TIP3    H225152   4.028   4.385   7.989  1.2861  1.0941  1.2624
 1173TIP3   OH225153   5.328   5.965   0.099  0.4052  0.5665  0.3828
 1173TIP3    H125154   5.314   6.054   0.132 -3.1049 -0.0155  0.8657
 1173TIP3    H225155   5.377   5.977   0.018 -0.5357  3.0213  0.0804
 1174TIP3   OH225156   2.821   4.415   7.539 -0.5432 -0.1803 -0.3364
 1174TIP3    H125157   2.809   4.320   7.536  1.3643 -0.4513 -1.8831
 1174TIP3    H225158   2.747   4.451   7.491 -0.1440 -1.0794 -1.6724
 1175TIP3   OH225159   1.771   4.264   2.750  0.3018 -0.3594  0.2054
 1175TIP3    H125160   1.801   4.312   2.673 -2.2484  0.3289 -0.4732
 1175TIP3    H225161   1.734   4.331   2.807 -0.3039 -1.1633  0.7826
 1176TIP3   OH225162   3.239   3.090   8.314 -0.3075  0.6354  0.0901
 1176TIP3    H125163   3.259   3.136   8.395  0.1321  0.2643  0.1926
 1176TIP3    H225164   3.309   3.026   8.304  0.5207  1.6849 -1.3723
 1177TIP3   OH225165   3.737   5.789   8.601 -0.7251  0.5854 -0.0003
 1177TIP3    H125166   3.727   5.785   8.505 -0.5548 -0.0771  0.0020
 1177TIP3    H225167   3.710   5.702   8.631  3.5615 -0.9375  0.1284
 1178TIP3   OH225168   1.425   0.367   7.021 -0.0933  0.7894 -0.1154
 1178TIP3    H125169   1.429   0.426   6.945 -1.3318  0.9126 -0.0937
 1178TIP3    H225170   1.517   0.352   7.044  0.2531  2.6316 -0.1799
 1179TIP3   OH225171   1.172   2.354   7.820 -0.0666  0.4472  0.0303
 1179TIP3    H125172   1.146   2.315   7.737 -2.5275 -2.1897  1.8443
 1179TIP3    H225173   1.169   2.448   7.804 -0.0751  0.0411 -2.9250
 1180TIP3   OH225174   5.875   5.953   7.913  0.1891  0.5409  0.3037
 1180TIP3    H125175   5.824   5.875   7.895  0.9623  0.6279 -2.6712
 1180TIP3    H225176   5.817   6.026   7.890  0.2469  0.7899  0.9193
 1181TIP3   OH225177   6.432   5.316   0.351 -0.2957  0.0521 -0.3771
 1181TIP3    H125178   6.375   5.240   0.337 -0.0949 -0.2210  0.2586
 1181TIP3    H225179   6.516   5.291   0.313  0.4866 -0.9955  1.8564
 1182TIP3   OH225180   3.190   2.857   0.310  0.0640  0.0351 -0.8266
 1182TIP3    H125181   3.201   2.812   0.394  0.7691 -0.1180 -0.9901
 1182TIP3    H225182   3.096   2.853   0.293  0.1357 -1.6515 -0.9820
 1183TIP3   OH225183   5.003   3.597   7.824 -0.4997 -0.3561 -0.0872
 1183TIP3    H125184   5.031   3.686   7.803 -1.1415  0.3304  1.7519
 1183TIP3    H225185   4.950   3.569   7.750  0.0287  0.6400 -0.8550
 1184TIP3   OH225186   3.542   2.298   8.659 -0.1913  0.1405 -0.4557
 1184TIP3    H125187   3.534   2.229   8.725  1.0015  0.1668 -0.2667
 1184TIP3    H225188   3.618   2.273   8.607 -0.7463  0.4480 -1.4438
 1185TIP3   OH225189   0.020   0.557   8.057 -0.1833 -0.4984 -0.4402
 1185TIP3    H125190   0.085   0.565   7.988  0.2498 -2.2295 -0.2779
 1185TIP3    H225191   0.069   0.530   8.134 -0.6579  1.3928  0.6050
 1186TIP3   OH225192   6.380   5.698   8.485  0.1208 -0.2495 -0.4108
 1186TIP3    H125193   6.471   5.671   8.470 -0.8922 -3.5249 -1.5288
 1186TIP3    H225194   6.350   5.729   8.400 -0.0426  0.1396 -0.2161
 1187TIP3   OH225195   0.966   1.099   2.120 -0.1553 -0.0586  0.0079
 1187TIP3    H125196   0.935   1.187   2.141 -0.7764  0.0523 -1.2815
 1187TIP3    H225197   1.061   1.108   2.112  0.1635 -0.1439  2.7722
 1188TIP3   OH225198   6.268   1.060   8.476 -0.3130  0.3589  0.1141
 1188TIP3    H125199   6.256   1.114   8.398  3.2106  1.7298  0.3543
 1188TIP3    H225200   6.355   1.083   8.508 -0.6559 -1.9296  3.1080
 1189TIP3   OH225201   3.073   0.722   8.766 -0.1842 -0.3625  0.1518
 1189TIP3    H125202   3.160   0.723   8.725  0.2639 -1.8695  1.0048
 1189TIP3    H225203   3.025   0.793   8.722  0.7834 -0.8630 -1.8029
 1190TIP3   OH225204   2.913   0.625   0.916 -0.2014  0.3405  0.6080
 1190TIP3    H125205   2.888   0.682   0.843 -0.8142 -1.0019 -0.2900
 1190TIP3    H225206   2.942   0.544   0.874 -0.1892 -0.3284  1.8553
 1191TIP3   OH225207   4.652   2.163   7.876 -0.2747 -0.1726  0.1603
 1191TIP3    H125208   4.627   2.200   7.961 -0.3598 -1.3424  0.6673
 1191TIP3    H225209   4.747   2.169   7.874 -0.1909 -1.0080  0.7815
 1192TIP3   OH225210   2.951   4.730   6.476  0.6566  0.0774  0.1728
 1192TIP3    H125211   2.944   4.824   6.490  0.6491  0.4852 -2.0856
 1192TIP3    H225212   2.871   4.694   6.512  0.8415  0.8710  1.4229
 1193TIP3   OH225213   4.864   1.668   0.685  0.1371  0.0019 -0.1883
 1193TIP3    H125214   4.824   1.627   0.608  1.3668  0.8635 -1.3221
 1193TIP3    H225215   4.947   1.623   0.697  0.1178  0.1141  0.4326
 1194TIP3   OH225216   6.256   6.417   7.843 -0.5065 -0.5150 -0.0167
 1194TIP3    H125217   6.279   6.503   7.808 -0.0295 -0.6615 -0.0668
 1194TIP3    H225218   6.340   6.374   7.860 -0.7340 -1.4541 -1.1782
 1195TIP3   OH225219   5.796   5.424   6.674  0.4919 -0.0664  0.4020
 1195TIP3    H125220   5.857   5.419   6.747 -0.3459 -0.9387  1.0702
 1195TIP3    H225221   5.736   5.350   6.688 -0.5337  0.5914 -0.3905
 1196TIP3   OH225222   5.042   4.038   1.677  0.2116 -0.5362  0.6764
 1196TIP3    H125223   5.017   4.109   1.736 -0.8857 -0.6424  0.3603
 1196TIP3    H225224   5.069   3.967   1.736 -1.5441 -0.8923  1.1331
 1197TIP3   OH225225   1.815   5.666   0.885 -0.1784  0.5712  0.2525
 1197TIP3    H125226   1.773   5.662   0.971  1.0899  0.5580  0.9056
 1197TIP3    H225227   1.827   5.575   0.859  1.7621  0.4711  1.2951
 1198TIP3   OH225228   3.711   1.869   1.683  0.1533  0.0262  0.2710
 1198TIP3    H125229   3.692   1.776   1.671 -0.5327  0.3252 -1.1837
 1198TIP3    H225230   3.625   1.911   1.688  0.3915  0.8450 -1.6155
 1199TIP3   OH225231   5.261   5.341   7.647  0.2058 -0.1889 -0.0380
 1199TIP3    H125232   5.343   5.389   7.663  0.4018 -0.3384 -0.5777
 1199TIP3    H225233   5.206   5.362   7.722  0.5042  0.4226  0.0156
 1200TIP3   OH225234   1.549   0.353   0.509 -0.1582 -0.0078 -0.1949
 1200TIP3    H125235   1.611   0.425   0.515 -1.2156  0.8504  1.0259
 1200TIP3    H225236   1.602   0.274   0.519  0.7290  0.7001  0.9298
 1201TIP3   OH225237   0.245   4.427   7.772  0.5242  0.4557 -0.2607
 1201TIP3    H125238   0.183   4.385   7.832  0.9686 -0.1302 -0.2000
 1201TIP3    H225239   0.198   4.431   7.689  0.6714 -0.6961 -0.4154
 1202TIP3   OH225240   5.637   1.189   0.551  0.2228 -0.2792  0.0753
 1202TIP3    H125241   5.664   1.117   0.493  2.6524  1.3275 -0.9443
 1202TIP3    H225242   5.625   1.263   0.492 -0.1902  0.6720  1.3312
 1203TIP3   OH225243   3.616   4.993   2.091  0.5508 -0.0798 -0.3975
 1203TIP3    H125244   3.663   4.957   2.016  0.4395 -0.8682 -0.0934
 1203TIP3    H225245   3.679   4.990   2.163  0.5078  0.2467 -0.3424
 1204TIP3   OH225246   4.224   3.719   2.432  0.4546  0.3215  0.4994
 1204TIP3    H125247   4.160   3.730   2.502  0.0503  1.6866 -0.0614
 1204TIP3    H225248   4.172   3.685   2.358  0.6120  0.2464  0.4236
 1205TIP3   OH225249   5.054   1.016   1.642 -0.0224 -0.1558 -0.0064
 1205TIP3    H125250   4.969   0.973   1.644 -0.7395  1.2079 -0.4582
 1205TIP3    H225251   5.105   0.966   1.578 -1.5591  0.8923 -2.1737
 1206TIP3   OH225252   5.914   0.635   1.623 -0.6491  0.6162 -0.1951
 1206TIP3    H125253   5.950   0.694   1.689 -1.2404  2.5069 -1.4644
 1206TIP3    H225254   5.929   0.547   1.658  2.2073  1.3912  0.8221
 1207TIP3   OH225255   2.107   1.507   0.815 -0.3169 -0.2138  0.5548
 1207TIP3    H125256   2.091   1.598   0.843 -0.1136  0.4368 -1.3163
 1207TIP3    H225257   2.159   1.469   0.886  0.7835  1.5556  0.7531
 1208TIP3   OH225258   1.052   0.760   1.800  0.3135  0.5826  0.0218
 1208TIP3    H125259   1.096   0.771   1.716 -0.2166  1.7731 -0.1098
 1208TIP3    H225260   1.016   0.671   1.797  0.0019  0.7370 -1.1561
 1209TIP3   OH225261   2.338   4.719   7.818  0.3215  0.2717 -0.5070
 1209TIP3    H125262   2.331   4.707   7.913  0.6476 -1.3977 -0.6525
 1209TIP3    H225263   2.430   4.738   7.803  0.4792 -0.4755 -0.5526
 1210TIP3   OH225264   6.357   1.708   0.528 -0.4381 -0.2983  0.1725
 1210TIP3    H125265   6.274   1.663   0.544 -0.6139  0.6423  2.3293
 1210TIP3    H225266   6.419   1.666   0.589 -0.3198  1.4874  1.3700
 1211TIP3   OH225267   3.119   5.909   2.016 -0.3203 -0.4074 -1.0151
 1211TIP3    H125268   3.030   5.936   1.994 -0.3989 -0.8083 -1.1996
 1211TIP3    H225269   3.107   5.837   2.078 -0.1033  0.6510  0.2882
 1212TIP3   OH225270   1.637   6.723   8.652  0.2642  0.0743  0.6208
 1212TIP3    H125271   1.706   6.759   8.595  0.2118 -0.5703  0.1349
 1212TIP3    H225272   1.635   6.630   8.631 -1.8526  0.3278 -0.5452
 1213TIP3   OH225273   0.692   0.991   7.259 -0.5979  0.3021 -0.1506
 1213TIP3    H125274   0.634   1.042   7.315 -0.0721 -0.2126  0.9036
 1213TIP3    H225275   0.747   1.055   7.214 -1.7057  0.7691 -0.8610
 1214TIP3   OH225276   2.761   3.608   8.638 -0.1002  0.1237 -0.0232
 1214TIP3    H125277   2.752   3.603   8.733  0.7596  0.6422  0.1042
 1214TIP3    H225278   2.681   3.569   8.604 -1.3029  1.6352  0.9310
 1215TIP3   OH225279   5.564   0.760   0.063  0.3417 -0.3054 -0.2496
 1215TIP3    H125280   5.481   0.724   0.095 -0.5889  1.5891 -0.4468
 1215TIP3    H225281   5.631   0.714   0.115 -0.8372 -1.3430  0.4180
 1216TIP3   OH225282   6.718   4.729   7.908 -0.1312  0.0566 -0.0757
 1216TIP3    H125283   6.753   4.812   7.875 -0.4621  1.7841  3.4032
 1216TIP3    H225284   6.793   4.687   7.951 -0.4685 -0.3485  0.1236
 1217TIP3   OH225285   1.763   4.649   7.055  0.7653  0.2002  0.1555
 1217TIP3    H125286   1.732   4.738   7.037 -0.0956 -0.1913 -0.3506
 1217TIP3    H225287   1.755   4.639   7.149 -1.3517 -0.1230 -0.0173
 1218TIP3   OH225288   3.194   5.994   3.016 -0.3979  0.1189  0.4509
 1218TIP3    H125289   3.250   5.973   2.941  0.8242 -2.6179  1.9871
 1218TIP3    H225290   3.252   5.986   3.092 -1.6793  2.4236  1.7722
 1219TIP3   OH225291   0.636   1.954   0.302 -0.3630 -0.2402 -0.6410
 1219TIP3    H125292   0.548   1.920   0.319 -1.5559  2.7622 -0.2430
 1219TIP3    H225293   0.622   2.045   0.275  2.7450  1.4911  2.7407
 1220TIP3   OH225294   6.216   1.177   8.238  0.0017 -0.2716  0.2027
 1220TIP3    H125295   6.164   1.237   8.186 -0.5904  0.2423  1.3393
 1220TIP3    H225296   6.213   1.094   8.189  1.3991  0.7619 -1.7138
 1221TIP3   OH225297   0.237   2.774   1.948  0.3119 -0.1982  0.0515
 1221TIP3    H125298   0.194   2.844   1.899  0.2782 -0.2964 -0.0604
 1221TIP3    H225299   0.238   2.805   2.039 -0.3784 -0.3871  0.1265
 1222TIP3   OH225300   2.888   6.067   0.449  0.5086 -0.4615  0.6223
 1222TIP3    H125301   2.970   6.102   0.484 -0.3882  0.5356  1.7669
 1222TIP3    H225302   2.914   6.025   0.367  1.6895  2.7344 -0.8001
 1223TIP3   OH225303   5.507   2.941   2.116  0.1551  0.6173  0.3985
 1223TIP3    H125304   5.517   3.014   2.177  1.1637  0.5467  0.3256
 1223TIP3    H225305   5.506   2.863   2.172 -1.0402  0.6720  0.4869
 1224TIP3   OH225306   3.704   3.747   2.322  0.5283  0.4817  0.4204
 1224TIP3    H125307   3.640   3.811   2.353 -0.3849 -0.0916 -0.2389
 1224TIP3    H225308   3.789   3.788   2.340 -0.0243  1.6059  0.5768
 1225TIP3   OH225309   1.491   0.570   6.836 -0.0222 -0.0059  0.5383
 1225TIP3    H125310   1.522   0.514   6.765 -1.2540 -2.6840  1.9251
 1225TIP3    H225311   1.569   0.587   6.889  0.4505 -0.1181 -0.1121
 1226TIP3   OH225312   3.428   4.513   0.872 -0.7359 -0.2778 -0.1091
 1226TIP3    H125313   3.460   4.472   0.791 -1.3234  0.1966 -0.5885
 1226TIP3    H225314   3.370   4.448   0.911  0.2434 -0.8642  0.4026
 1227TIP3   OH225315   5.029   5.669   1.031 -0.4367  0.1637  0.4041
 1227TIP3    H125316   5.049   5.605   0.962  0.0659  0.9415 -0.1966
 1227TIP3    H225317   5.115   5.700   1.061 -0.6507 -0.2174  1.4499
 1228TIP3   OH225318   5.550   3.716   6.678 -0.0195 -0.1036  0.1014
 1228TIP3    H125319   5.644   3.697   6.682  0.1705  1.0248  1.5958
 1228TIP3    H225320   5.508   3.630   6.676  1.0305 -0.6185 -0.7180
 1229TIP3   OH225321   1.388   4.360   1.651 -0.4657  0.1934  0.5083
 1229TIP3    H125322   1.344   4.341   1.734 -3.5709 -0.5117 -1.1515
 1229TIP3    H225323   1.396   4.455   1.648 -0.6694  0.2439  1.4456
 1230TIP3   OH225324   1.937   3.520   1.910  0.3878  0.1719  0.1885
 1230TIP3    H125325   1.866   3.460   1.933  0.4507  0.3062  0.7456
 1230TIP3    H225326   2.012   3.464   1.894  0.6408  0.1326  1.4259
 1231TIP3   OH225327   5.243   3.562   7.986 -0.3559  0.5158 -0.2628
 1231TIP3    H125328   5.170   3.536   7.929 -0.0760  0.9691 -0.8403
 1231TIP3    H225329   5.300   3.614   7.929 -0.2090  1.2148  0.5101
 1232TIP3   OH225330   5.256   1.187   0.415  0.2159  0.2435  0.0441
 1232TIP3    H125331   5.206   1.268   0.425  0.1764  0.2474 -0.1855
 1232TIP3    H225332   5.296   1.173   0.501  0.2633  0.5332  0.0699
 1233TIP3   OH225333   4.802   0.696   8.843 -0.5339 -0.4909  0.3159
 1233TIP3    H125334   4.870   0.692   8.775 -1.0125 -2.1234 -0.1297
 1233TIP3    H225335   4.804   0.609   8.883 -0.6065  0.2911  2.0865
 1234TIP3   OH225336   0.899   2.683   1.287  0.0305 -0.3643  0.5059
 1234TIP3    H125337   0.805   2.696   1.303 -0.5910  0.8963 -3.1475
 1234TIP3    H225338   0.938   2.769   1.300 -0.2065  0.2562 -2.1925
 1235TIP3   OH225339   3.300   2.235   8.209  0.0265 -0.2043  0.1385
 1235TIP3    H125340   3.360   2.179   8.159  3.2114  2.6677  0.3340
 1235TIP3    H225341   3.305   2.320   8.165 -1.1422  1.0793  2.3239
 1236TIP3   OH225342   2.659   5.491   8.671  0.0690  0.2413 -0.7288
 1236TIP3    H125343   2.700   5.533   8.747 -0.3650 -0.1712 -0.2564
 1236TIP3    H225344   2.589   5.552   8.645  0.1034  0.2994 -0.6871
 1237TIP3   OH225345   4.208   0.212   8.252 -0.2199  0.2239  0.2260
 1237TIP3    H125346   4.119   0.246   8.259 -0.1560  0.5711 -0.5634
 1237TIP3    H225347   4.198   0.125   8.214 -0.0872  1.3325 -2.6225
 1238TIP3   OH225348   3.633   1.208   0.898  0.4334  0.3068  0.5749
 1238TIP3    H125349   3.570   1.169   0.959  1.8513 -1.2165  1.1126
 1238TIP3    H225350   3.711   1.153   0.904  1.8296  2.0958 -0.1176
 1239TIP3   OH225351   4.021   3.043   2.409  0.2407 -0.0477  0.0910
 1239TIP3    H125352   4.101   3.005   2.372  0.7343  0.9732  0.0725
 1239TIP3    H225353   3.954   2.977   2.393  1.1195 -1.0188  0.3091
 1240TIP3   OH225354   4.546   4.567   1.056  0.7428  0.0936 -0.5113
 1240TIP3    H125355   4.572   4.583   0.966  0.5114 -2.2393 -1.0424
 1240TIP3    H225356   4.616   4.513   1.093 -0.6698 -1.7484 -0.3432
 1241TIP3   OH225357   1.933   5.872   0.084  0.4493  0.5123 -0.4202
 1241TIP3    H125358   1.952   5.799   0.025 -0.2171  1.3504 -1.7261
 1241TIP3    H225359   1.891   5.937   0.028  0.4062  1.6217  0.8606
 1242TIP3   OH225360   4.895   3.438   1.351 -1.0830 -0.1242 -0.4394
 1242TIP3    H125361   4.974   3.406   1.306 -0.6543 -0.4741  0.5341
 1242TIP3    H225362   4.900   3.533   1.343 -1.3757 -0.2010 -1.7174
 1243TIP3   OH225363   1.226   2.551   8.095  0.2167 -0.3591 -0.1926
 1243TIP3    H125364   1.207   2.631   8.046  1.0964  2.1233  3.2059
 1243TIP3    H225365   1.142   2.524   8.131  0.3516  0.7425  0.9843
 1244TIP3   OH225366   0.652   0.217   0.960 -0.4721 -0.3556  0.7346
 1244TIP3    H125367   0.692   0.155   1.022  3.5898  2.5432  1.4952
 1244TIP3    H225368   0.695   0.198   0.877  1.0647  1.3936  1.0450
 1245TIP3   OH225369   2.056   4.232   8.740 -0.1259 -0.8301  0.5933
 1245TIP3    H125370   2.149   4.246   8.755 -0.3128 -0.8726  1.9547
 1245TIP3    H225371   2.046   4.232   8.645  1.0035  0.8184  0.4365
 1246TIP3   OH225372   5.277   0.802   2.508 -0.0739  0.2898  0.1193
 1246TIP3    H125373   5.356   0.747   2.508  0.4002  0.8821 -2.0729
 1246TIP3    H225374   5.305   0.885   2.545 -0.3005 -0.2533  1.5767
 1247TIP3   OH225375   0.039   5.428   0.141  0.0200 -0.2689 -0.9753
 1247TIP3    H125376   0.009   5.396   0.226 -1.2851  0.6483 -1.0669
 1247TIP3    H225377   0.046   5.350   0.087 -0.0144 -0.7548 -0.2897
 1248TIP3   OH225378   1.607   4.037   2.222  0.4179  0.8820 -0.3697
 1248TIP3    H125379   1.614   4.080   2.307  0.2072 -0.1395  0.1884
 1248TIP3    H225380   1.514   4.015   2.214  0.8284 -1.4955  0.4420
 1249TIP3   OH225381   2.284   4.987   1.827 -0.7417 -0.1740 -0.2821
 1249TIP3    H125382   2.253   4.903   1.861  0.1024 -0.4109 -0.0752
 1249TIP3    H225383   2.365   4.966   1.782 -1.3600  0.2849 -1.6699
 1250TIP3   OH225384   5.961   1.163   0.648 -0.4784 -0.6782  0.1236
 1250TIP3    H125385   5.943   1.253   0.675  0.0034 -0.3297 -0.6930
 1250TIP3    H225386   5.999   1.121   0.725  1.5632  0.4948 -0.2051
 1251TIP3   OH225387   2.548   5.117   7.573 -0.1388 -0.2188  0.6662
 1251TIP3    H125388   2.535   5.158   7.487 -2.0855  0.7710  1.3709
 1251TIP3    H225389   2.493   5.038   7.571 -2.8025  1.4410  1.9891
 1252TIP3   OH225390   5.546   2.457   2.706 -0.2277  0.1003  0.5531
 1252TIP3    H125391   5.483   2.385   2.698  0.3257 -0.1647 -2.3619
 1252TIP3    H225392   5.631   2.414   2.711  0.1563  0.4607 -1.7801
 1253TIP3   OH225393   4.388   2.014   7.898  0.0399 -0.5776 -0.0892
 1253TIP3    H125394   4.311   2.068   7.916  1.1382  0.8839  0.4359
 1253TIP3    H225395   4.452   2.042   7.963  0.0986 -3.8399  1.4311
 1254TIP3   OH225396   6.623   1.980   0.287 -0.1301 -0.1249 -0.3306
 1254TIP3    H125397   6.706   1.965   0.332  0.4685  0.4778 -1.2096
 1254TIP3    H225398   6.648   2.010   0.199 -1.2752 -0.2225 -0.7049
 1255TIP3   OH225399   0.210   4.464   2.742  0.2456  0.2360 -0.5291
 1255TIP3    H125400   0.204   4.378   2.701  0.5431 -0.8753  1.6130
 1255TIP3    H225401   0.121   4.485   2.769 -0.1063  1.3615 -2.3782
 1256TIP3   OH225402   0.116   3.509   0.141 -0.2984  0.2057  0.2378
 1256TIP3    H125403   0.124   3.471   0.054 -1.1257  0.8976 -0.1576
 1256TIP3    H225404   0.162   3.593   0.135 -0.1516  0.1470  0.5353
 1257TIP3   OH225405   4.882   1.783   0.375  0.5048  0.0668  0.1344
 1257TIP3    H125406   4.943   1.713   0.351 -0.1250  0.3494 -2.5719
 1257TIP3    H225407   4.800   1.759   0.333 -0.6326  0.9179  1.7499
 1258TIP3   OH225408   1.114   5.198   7.312 -0.1937  0.0736 -0.7490
 1258TIP3    H125409   1.204   5.213   7.282  0.2150  0.9010  0.7840
 1258TIP3    H225410   1.076   5.141   7.245  0.7866  1.4180 -2.5566
 1259TIP3   OH225411   6.753   6.469   7.547 -0.1902 -0.3349 -0.0238
 1259TIP3    H125412   6.803   6.510   7.617 -1.2056  0.0389  0.4952
 1259TIP3    H225413   6.747   6.536   7.479 -0.7015 -0.0768  0.2686
 1260TIP3   OH225414   3.793   3.961   2.512 -0.4091  0.4313  0.2456
 1260TIP3    H125415   3.859   4.029   2.497 -1.5184  1.3388 -0.6703
 1260TIP3    H225416   3.709   4.006   2.504 -1.2769 -1.4162 -2.6071
 1261TIP3   OH225417   3.939   4.662   1.484  0.2088 -0.0823  0.3054
 1261TIP3    H125418   3.987   4.583   1.509  1.9805  0.7811 -0.2055
 1261TIP3    H225419   3.866   4.630   1.430  0.1399 -1.4363  1.1490
 1262TIP3   OH225420   3.382   1.246   7.376 -0.4006  0.3612 -0.1815
 1262TIP3    H125421   3.411   1.240   7.285 -1.6514  1.3098 -0.6641
 1262TIP3    H225422   3.287   1.245   7.371 -0.5238 -1.5820  1.2906
 1263TIP3   OH225423   1.734   0.489   2.342  1.1091 -0.2549  0.0028
 1263TIP3    H125424   1.641   0.468   2.334  0.9470 -0.2562  1.5123
 1263TIP3    H225425   1.741   0.579   2.310  0.5710 -0.2359 -0.0676
 1264TIP3   OH225426   4.326   6.443   3.157 -0.1753 -0.0948  0.3502
 1264TIP3    H125427   4.382   6.377   3.117  0.6374  0.1773  1.0143
 1264TIP3    H225428   4.384   6.517   3.173 -1.2112  1.0587 -1.0029
 1265TIP3   OH225429   4.905   5.032   1.092 -0.0947  0.2244  0.0265
 1265TIP3    H125430   4.882   5.007   1.003  0.2448 -0.0159  0.0066
 1265TIP3    H225431   4.875   4.959   1.146  2.0932 -0.8787 -0.1631
 1266TIP3   OH225432   4.022   2.660   2.379 -0.2237  0.3453 -0.3626
 1266TIP3    H125433   4.033   2.710   2.299  0.1821  1.1290  0.1711
 1266TIP3    H225434   4.085   2.589   2.372  0.4758  0.9540 -0.3236
 1267TIP3   OH225435   4.132   0.762   7.354  0.2108  0.2716 -0.3675
 1267TIP3    H125436   4.058   0.719   7.311 -0.1319  0.4534  0.0310
 1267TIP3    H225437   4.208   0.711   7.327 -0.2719 -1.1188  0.7454
 1268TIP3   OH225438   2.507   1.870   2.299 -0.2121  0.3171  0.1845
 1268TIP3    H125439   2.561   1.948   2.305  0.8811 -0.4673  0.9245
 1268TIP3    H225440   2.441   1.881   2.368  1.0047 -0.1922  1.4601
 1269TIP3   OH225441   5.879   2.140   1.355  0.0787  0.6346  0.2035
 1269TIP3    H125442   5.917   2.081   1.421 -0.6159  0.8987  0.8409
 1269TIP3    H225443   5.946   2.207   1.342 -0.2687  1.2902  1.5793
 1270TIP3   OH225444   3.754   2.052   7.609  0.5560 -0.0371  0.1383
 1270TIP3    H125445   3.740   1.990   7.538 -0.2592 -0.9215  1.0340
 1270TIP3    H225446   3.725   2.136   7.574  1.2267 -0.2395 -0.9356
 1271TIP3   OH225447   4.721   4.750   0.595 -0.1690  0.2999  0.5941
 1271TIP3    H125448   4.702   4.692   0.669 -3.9435 -1.2304 -1.3040
 1271TIP3    H225449   4.676   4.831   0.616  0.5184  0.6286  0.8375
 1272TIP3   OH225450   4.340   6.424   7.428 -0.0510 -0.1670  0.1185
 1272TIP3    H125451   4.417   6.373   7.453  0.7711  1.5218  1.2154
 1272TIP3    H225452   4.367   6.473   7.351 -1.2395 -2.2172 -1.7034
 1273TIP3   OH225453   4.745   3.197   3.196 -0.1509  0.5849 -0.5398
 1273TIP3    H125454   4.808   3.241   3.254 -0.1521 -1.3252  1.0263
 1273TIP3    H225455   4.660   3.230   3.223  0.0112  1.8951 -1.5098
 1274TIP3   OH225456   2.946   2.664   7.336 -0.2669  0.2470  0.2926
 1274TIP3    H125457   2.965   2.710   7.254  1.2452 -0.9806 -0.0973
 1274TIP3    H225458   2.882   2.597   7.311  0.8158 -0.6753 -0.1148
 1275TIP3   OH225459   4.462   1.002   0.264  0.1729 -0.6494 -0.2818
 1275TIP3    H125460   4.528   1.070   0.278  0.1378 -0.3395 -1.4765
 1275TIP3    H225461   4.465   0.949   0.343 -0.1032  0.9869  0.8750
 1276TIP3   OH225462   4.610   1.514   2.061  0.0845  0.1541  0.2838
 1276TIP3    H125463   4.637   1.426   2.033  0.1605  0.0739  0.6051
 1276TIP3    H225464   4.537   1.535   2.004  1.7681  1.0212 -1.6623
 1277TIP3   OH225465   5.627   0.931   7.976  0.2337 -0.3907  0.0104
 1277TIP3    H125466   5.638   0.837   7.960 -2.4833 -0.9227  0.7517
 1277TIP3    H225467   5.598   0.965   7.891 -0.4859 -0.5621  0.1839
 1278TIP3   OH225468   6.043   2.707   7.962  0.3326  0.3606  0.3750
 1278TIP3    H125469   6.113   2.654   8.000  0.3196 -0.0874 -0.2146
 1278TIP3    H225470   6.068   2.798   7.982  1.4420  0.2562 -0.4129
 1279TIP3   OH225471   4.366   0.696   7.236  0.2224  0.4391  0.7436
 1279TIP3    H125472   4.385   0.638   7.162 -1.5732  0.7227 -0.0022
 1279TIP3    H225473   4.429   0.768   7.227  0.1893  0.3471 -0.3829
 1280TIP3   OH225474   1.511   0.290   1.619 -0.0584 -0.2279  0.2277
 1280TIP3    H125475   1.456   0.215   1.643  0.5543 -1.7735 -2.7658
 1280TIP3    H225476   1.587   0.283   1.677 -0.2940 -1.5784  0.4128
 1281TIP3   OH225477   4.008   2.781   2.130 -0.0048 -0.0437  0.1407
 1281TIP3    H125478   4.057   2.832   2.065 -1.4628  1.3687  0.0805
 1281TIP3    H225479   3.973   2.707   2.081 -1.0704  0.9962 -0.7297
 1282TIP3   OH225480   3.650   3.537   2.161 -0.1064  0.0280 -0.3835
 1282TIP3    H125481   3.670   3.607   2.223 -2.6076 -0.3403  0.9692
 1282TIP3    H225482   3.626   3.582   2.080  1.0821  0.5838 -0.4523
 1283TIP3   OH225483   4.019   0.305   1.553 -0.4839  0.6113 -0.1415
 1283TIP3    H125484   4.014   0.294   1.648  1.1590 -0.5025 -0.1449
 1283TIP3    H225485   4.033   0.216   1.519  1.9166  1.2764 -1.1420
 1284TIP3   OH225486   3.644   6.704   7.206 -1.0269 -0.3257  0.6507
 1284TIP3    H125487   3.734   6.738   7.210 -0.7675 -0.8754 -0.2075
 1284TIP3    H225488   3.592   6.779   7.178 -0.1569 -0.9916 -3.3397
 1285TIP3   OH225489   3.895   2.618   8.108 -0.2942  0.2123  0.1119
 1285TIP3    H125490   3.955   2.545   8.123  0.1247  0.4342 -0.4440
 1285TIP3    H225491   3.927   2.659   8.028 -0.1263  1.3919  0.7565
 1286TIP3   OH225492   3.092   1.469   1.383 -0.2273 -0.4664  0.0519
 1286TIP3    H125493   3.049   1.516   1.455 -1.0234 -1.3267  0.1552
 1286TIP3    H225494   3.048   1.501   1.304 -1.0347 -1.2876  0.1513
 1287TIP3   OH225495   0.186   2.109   7.953 -0.0460 -0.0030 -0.4937
 1287TIP3    H125496   0.244   2.109   7.877  2.0946 -0.7106  1.0500
 1287TIP3    H225497   0.135   2.029   7.945 -1.1630  0.8062 -2.0598
 1288TIP3   OH225498   3.789   0.375   8.612 -0.4560  0.4330 -1.0699
 1288TIP3    H125499   3.779   0.406   8.522 -0.6470 -1.1068 -1.6181
 1288TIP3    H225500   3.712   0.318   8.626  0.3910 -0.6215 -0.5129
 1289TIP3   OH225501   0.313   3.882   1.343  0.1268  0.2173 -0.4465
 1289TIP3    H125502   0.223   3.901   1.317 -0.3502  0.9576  1.5607
 1289TIP3    H225503   0.309   3.873   1.438  2.2815  0.8858 -0.2435
 1290TIP3   OH225504   1.288   0.396   1.207  0.3907  0.3530 -0.0747
 1290TIP3    H125505   1.209   0.353   1.174 -0.3459  1.1406  0.6322
 1290TIP3    H225506   1.322   0.336   1.274 -1.8092  1.7584  2.4365
 1291TIP3   OH225507   3.705   1.005   0.096  0.5530 -0.5561 -0.3320
 1291TIP3    H125508   3.717   0.969   0.008 -0.8359 -0.4133 -0.6090
 1291TIP3    H225509   3.715   1.099   0.085 -1.3545 -0.3617 -0.7103
 1292TIP3   OH225510   6.155   4.887   0.099  0.5905 -0.4174  0.4501
 1292TIP3    H125511   6.069   4.855   0.070  1.1699 -1.5907 -0.0370
 1292TIP3    H225512   6.156   4.868   0.193 -0.0147  0.4040  0.6333
 1293TIP3   OH225513   5.862   0.864   0.056  0.1781  0.9883  0.2870
 1293TIP3    H125514   5.895   0.919  -0.015 -0.0028 -1.0938 -1.4934
 1293TIP3    H225515   5.767   0.863   0.045  0.1660  0.4484  0.3889
 1294TIP3   OH225516   5.682   3.754   1.996 -0.1793  0.4249  0.5385
 1294TIP3    H125517   5.687   3.746   2.092 -0.9876 -1.2076  0.4609
 1294TIP3    H225518   5.747   3.692   1.963  1.3215  2.1755 -0.0037
 1295TIP3   OH225519   3.546   0.733   8.468 -0.3392 -0.4186  0.4353
 1295TIP3    H125520   3.514   0.738   8.378  3.1789 -1.3594 -1.0301
 1295TIP3    H225521   3.468   0.748   8.522 -2.3661  1.6130 -2.7126
 1296TIP3   OH225522   3.727   2.335   0.381 -0.2707 -0.4068  0.0640
 1296TIP3    H125523   3.796   2.303   0.323 -0.2009 -1.0010  0.4653
 1296TIP3    H225524   3.773   2.387   0.446 -0.3313  0.1238 -0.3075
 1297TIP3   OH225525   4.885   2.003   1.050  0.1683  0.7860 -0.1665
 1297TIP3    H125526   4.958   2.061   1.030  0.7872 -0.1486 -0.7296
 1297TIP3    H225527   4.860   1.966   0.965 -0.3089  0.3559  0.1584
 1298TIP3   OH225528   1.186   0.395   0.024  0.4068  0.2571  0.5430
 1298TIP3    H125529   1.169   0.463   0.089 -1.5955  0.0214  0.3167
 1298TIP3    H225530   1.203   0.444  -0.057 -0.2672  0.5139  0.5484
 1299TIP3   OH225531   4.482   6.428   1.221 -0.0308  0.0443  0.2046
 1299TIP3    H125532   4.458   6.395   1.307 -1.2376 -0.0792 -0.1644
 1299TIP3    H225533   4.519   6.353   1.175  0.7528  0.1463  0.6506
 1300TIP3   OH225534   5.527   6.752   1.786 -0.1247  0.1119  0.3258
 1300TIP3    H125535   5.441   6.758   1.827 -0.1283  2.5508  0.1084
 1300TIP3    H225536   5.588   6.783   1.853  0.6422 -1.7340  0.5299
 1301TIP3   OH225537   5.266   0.476   2.628 -0.1690  0.5869 -0.1586
 1301TIP3    H125538   5.175   0.503   2.632 -0.2081  0.2974  1.4385
 1301TIP3    H225539   5.315   0.557   2.610 -0.6892  0.8221 -0.5296
 1302TIP3   OH225540   1.401   4.771   7.950 -0.4545  0.3834  0.2488
 1302TIP3    H125541   1.369   4.787   8.039 -0.0468  0.2401  0.4274
 1302TIP3    H225542   1.452   4.849   7.929 -0.4389  0.3588  0.1951
 1303TIP3   OH225543   5.956   5.123   7.741 -0.3346  0.1290  0.8655
 1303TIP3    H125544   5.912   5.204   7.714 -0.7378 -0.6832 -1.1679
 1303TIP3    H225545   6.005   5.097   7.663  0.6865 -1.0034  1.8605
 1304TIP3   OH225546   0.092   5.729   7.196  0.1954 -0.4991 -0.7223
 1304TIP3    H125547   0.024   5.711   7.131  0.1194 -0.7344 -0.5777
 1304TIP3    H225548   0.173   5.701   7.154  0.3156  0.4942 -1.1991
 1305TIP3   OH225549   1.967   0.640   0.370 -0.4618 -0.3717  0.5888
 1305TIP3    H125550   2.000   0.558   0.333  0.0046  0.3756 -0.7348
 1305TIP3    H225551   1.911   0.613   0.442 -1.3053 -1.9435 -0.5849
 1306TIP3   OH225552   5.056   6.483   8.559  0.5917  0.8008  0.1023
 1306TIP3    H125553   5.080   6.394   8.583  1.3004  0.1497 -2.5882
 1306TIP3    H225554   5.132   6.516   8.511 -0.8932  1.5742 -1.8535
 1307TIP3   OH225555   3.688   3.914   0.605 -0.2916 -0.2234 -0.2129
 1307TIP3    H125556   3.614   3.923   0.545  0.0353 -2.7535 -1.1417
 1307TIP3    H225557   3.708   4.003   0.632 -0.9840  0.9810 -3.2459
 1308TIP3   OH225558   5.522   0.182   7.462  0.1983 -0.4030 -0.5804
 1308TIP3    H125559   5.471   0.244   7.515  2.6350  1.1450  0.0906
 1308TIP3    H225560   5.503   0.097   7.500 -1.6051  0.1416 -0.1570
 1309TIP3   OH225561   0.688   3.104   2.400  0.2487  0.0376  0.9604
 1309TIP3    H125562   0.753   3.149   2.453  0.6046  1.4808 -0.5919
 1309TIP3    H225563   0.604   3.141   2.428  0.4896  1.2876  0.1081
 1310TIP3   OH225564   4.324   3.250   1.152 -0.3652 -0.7334  0.4328
 1310TIP3    H125565   4.237   3.241   1.192 -0.1919 -1.7590  0.6123
 1310TIP3    H225566   4.318   3.330   1.100 -1.6089 -1.0981 -0.0278
 1311TIP3   OH225567   2.679   1.668   2.385 -0.2616  0.0697 -0.3401
 1311TIP3    H125568   2.624   1.718   2.326 -1.9755  0.0598  1.1430
 1311TIP3    H225569   2.677   1.717   2.467 -0.1242 -1.2327  0.4773
 1312TIP3   OH225570   5.447   5.846   8.146 -0.1437 -0.5669  0.3315
 1312TIP3    H125571   5.487   5.910   8.205 -0.5456 -0.0220  0.0264
 1312TIP3    H225572   5.494   5.764   8.163  0.6118 -0.1107  0.4780
 1313TIP3   OH225573   3.185   0.460   8.711  0.0099 -0.1794 -0.6836
 1313TIP3    H125574   3.188   0.555   8.703 -3.2306 -0.1292 -3.7331
 1313TIP3    H225575   3.128   0.444   8.786 -0.8324  0.3311 -1.2043
 1314TIP3   OH225576   2.105   4.892   1.284  0.1624 -0.1020 -0.3595
 1314TIP3    H125577   2.087   4.865   1.194 -1.6069 -1.4958  0.3414
 1314TIP3    H225578   2.189   4.852   1.306 -0.0984 -0.9803 -0.9309
 1315TIP3   OH225579   0.802   3.437   0.281 -0.2457 -0.9402 -0.2234
 1315TIP3    H125580   0.863   3.510   0.287 -0.5561 -0.8077  2.7217
 1315TIP3    H225581   0.858   3.359   0.282 -0.0440 -0.7991  1.5179
 1316TIP3   OH225582   4.053   2.344   8.506 -0.4336 -0.8551  0.3179
 1316TIP3    H125583   4.064   2.276   8.573  1.9442 -0.4918  0.3759
 1316TIP3    H225584   3.976   2.393   8.534  0.5075 -0.6729  2.8534
 1317TIP3   OH225585   4.782   3.955   6.816  0.1534  0.2074  0.1171
 1317TIP3    H125586   4.791   3.936   6.909 -2.1196 -2.2524 -0.0205
 1317TIP3    H225587   4.870   3.944   6.780  0.3684 -3.4883  1.3399
 1318TIP3   OH225588   6.207   3.669   2.782 -0.5758 -0.1680  0.0553
 1318TIP3    H125589   6.275   3.736   2.788 -0.0587 -0.5953 -0.8752
 1318TIP3    H225590   6.230   3.618   2.704 -0.8680 -1.5236  0.8112
 1319TIP3   OH225591   4.697   1.014   8.328 -0.3400 -0.0550 -0.2734
 1319TIP3    H125592   4.678   1.100   8.292 -0.2409 -0.6668 -1.8650
 1319TIP3    H225593   4.614   0.966   8.323 -0.3870 -0.0814  0.5620
 1320TIP3   OH225594   3.931   2.306   0.174  0.2037  0.4517  0.0413
 1320TIP3    H125595   3.861   2.360   0.138 -0.9280  0.2099  1.7552
 1320TIP3    H225596   4.010   2.359   0.164  0.2743 -0.1154 -3.8530
 1321TIP3   OH225597   1.153   3.800   0.328 -0.3706 -0.0268  0.0970
 1321TIP3    H125598   1.219   3.735   0.305 -0.9032 -0.1897 -0.9856
 1321TIP3    H225599   1.204   3.870   0.371  0.4156 -0.4437 -0.1308
 1322TIP3   OH225600   6.435   0.722   2.029 -0.7555 -0.1908 -0.4532
 1322TIP3    H125601   6.475   0.636   2.020  1.5595  0.7017  0.6913
 1322TIP3    H225602   6.351   0.705   2.072  0.9425 -1.7036  2.5721
 1323TIP3   OH225603   1.905   0.539   6.815 -0.5619 -0.3839 -0.2437
 1323TIP3    H125604   1.875   0.457   6.852 -1.5260  0.7822  1.7380
 1323TIP3    H225605   2.000   0.539   6.828 -0.5461 -1.2099 -0.3575
 1324TIP3   OH225606   3.047   2.059   0.267 -0.0645 -0.0494 -0.4044
 1324TIP3    H125607   3.018   2.119   0.198  1.4379  1.0214 -0.1670
 1324TIP3    H225608   3.100   1.994   0.222  1.6995  1.1836 -0.2188
 1325TIP3   OH225609   5.418   4.119   2.233 -0.4147 -0.3736  0.2261
 1325TIP3    H125610   5.445   4.067   2.309  2.3965  1.6136  0.7393
 1325TIP3    H225611   5.441   4.209   2.257  0.7895  0.3129 -3.0396
 1326TIP3   OH225612   5.948   1.921   8.671 -0.8440 -0.0093 -0.5536
 1326TIP3    H125613   5.894   1.876   8.606  0.0848 -0.1244 -1.2647
 1326TIP3    H225614   6.033   1.933   8.628 -0.0399 -0.5479  0.8188
 1327TIP3   OH225615   2.585   2.326   8.516 -0.4527  0.0446 -0.3527
 1327TIP3    H125616   2.614   2.360   8.432 -0.5229  1.3575  0.1257
 1327TIP3    H225617   2.593   2.400   8.576 -1.5720 -0.5027  0.5268
 1328TIP3   OH225618   4.904   6.149   1.658  0.0066 -0.0450 -0.5556
 1328TIP3    H125619   4.986   6.196   1.640  1.3245 -2.3211 -0.8436
 1328TIP3    H225620   4.903   6.076   1.596 -2.0957 -0.2985 -0.3154
 1329TIP3   OH225621   4.581   1.923   1.496  0.0667 -0.1793  0.1054
 1329TIP3    H125622   4.517   1.874   1.548  0.0819 -0.7977 -0.4304
 1329TIP3    H225623   4.541   1.929   1.409  0.2588  0.3908  0.0555
 1330TIP3   OH225624   6.341   3.990   7.984  0.2740 -0.0738  0.1790
 1330TIP3    H125625   6.388   4.055   8.036 -0.0702  0.4729 -0.1810
 1330TIP3    H225626   6.389   3.908   7.998  0.0163 -0.0153  1.6018
 1331TIP3   OH225627   4.995   2.312   8.784  0.1281 -0.3155 -0.5764
 1331TIP3    H125628   4.935   2.359   8.726 -2.2075  0.3328  2.1217
 1331TIP3    H225629   4.938   2.266   8.846  2.4061 -0.3668  1.6820
 1332TIP3   OH225630   2.168   0.433   0.300  0.0909  0.1869  0.1479
 1332TIP3    H125631   2.149   0.420   0.393  0.6627 -1.5617  0.0612
 1332TIP3    H225632   2.264   0.435   0.296  0.0757  1.9324 -0.2349
 1333TIP3   OH225633   6.808   3.278   8.387  0.3661  0.3665  0.5378
 1333TIP3    H125634   6.713   3.291   8.388  0.1775 -0.6327  3.3496
 1333TIP3    H225635   6.826   3.244   8.299 -2.2120 -1.3968  0.5749
 1334TIP3   OH225636   5.711   4.697   0.338  0.2901  0.4833 -0.6269
 1334TIP3    H125637   5.763   4.620   0.362  0.6349  0.7323 -0.5678
 1334TIP3    H225638   5.763   4.771   0.368 -0.6029  0.7124  0.4339
 1335TIP3   OH225639   5.657   4.735   0.936 -0.1014 -0.1309 -0.1716
 1335TIP3    H125640   5.577   4.772   0.899  0.5941 -0.6754 -2.3573
 1335TIP3    H225641   5.627   4.677   1.006 -1.6994 -0.9410 -1.4648
 1336TIP3   OH225642   2.216   5.314   8.663 -0.2541 -0.0692  0.1728
 1336TIP3    H125643   2.193   5.267   8.743 -3.6610  0.6485 -0.2231
 1336TIP3    H225644   2.264   5.251   8.611 -0.7876 -1.6180  1.4687
 1337TIP3   OH225645   3.141   3.613   0.680 -0.7348 -0.5343  0.1146
 1337TIP3    H125646   3.122   3.602   0.587 -1.9195  0.7913  0.1481
 1337TIP3    H225647   3.128   3.527   0.719 -1.3651 -0.8512 -0.7836
 1338TIP3   OH225648   2.973   5.772   1.423 -0.6054  0.0124 -0.4354
 1338TIP3    H125649   3.050   5.724   1.393  0.1789 -0.3672  1.9569
 1338TIP3    H225650   2.998   5.864   1.415  0.2059 -0.1121  0.5040
 1339TIP3   OH225651   5.271   3.404   7.607  0.3846 -0.7515  0.3562
 1339TIP3    H125652   5.194   3.354   7.634 -0.7228  0.7379  0.0664
 1339TIP3    H225653   5.286   3.377   7.517  0.4893 -1.3872  0.5592
 1340TIP3   OH225654   1.249   2.205   8.608 -0.2778 -0.0014  0.4092
 1340TIP3    H125655   1.314   2.269   8.637  0.5528 -0.3681 -0.5903
 1340TIP3    H225656   1.222   2.235   8.522 -0.6411 -0.4435  0.3671
 1341TIP3   OH225657   6.603   5.268   8.203 -0.2513 -0.2758  0.0010
 1341TIP3    H125658   6.633   5.347   8.248  0.6519 -0.4397 -0.3032
 1341TIP3    H225659   6.628   5.197   8.262 -0.4618 -0.3818 -0.0380
 1342TIP3   OH225660   3.835   0.124   3.146 -0.4179  0.1601  0.7406
 1342TIP3    H125661   3.793   0.177   3.215 -1.2953  3.4087 -2.0179
 1342TIP3    H225662   3.781   0.045   3.142 -2.4347  1.3882  1.5819
 1343TIP3   OH225663   3.168   5.321   2.310  0.0213  0.2410 -0.0020
 1343TIP3    H125664   3.074   5.305   2.314 -0.1181  0.8998 -0.4794
 1343TIP3    H225665   3.199   5.306   2.399 -0.3040 -1.3199 -0.1289
 1344TIP3   OH225666   1.521   5.881   7.810  0.6682  0.3479 -0.3626
 1344TIP3    H125667   1.494   5.794   7.780  2.4918 -0.0573 -0.9698
 1344TIP3    H225668   1.463   5.899   7.884  0.0362 -1.2415 -0.4085
 1345TIP3   OH225669   0.719   2.717   1.993  0.1681  0.6275  0.4232
 1345TIP3    H125670   0.776   2.745   1.921  0.9212 -0.6275  0.4817
 1345TIP3    H225671   0.703   2.796   2.044  1.9557  1.0213  0.4459
 1346TIP3   OH225672   4.517   6.270   3.045  0.2566 -0.3797 -0.1071
 1346TIP3    H125673   4.470   6.187   3.035  0.1457 -0.3365  0.0544
 1346TIP3    H225674   4.567   6.279   2.964  0.8895 -0.9973  0.2045
 1347TIP3   OH225675   0.116   5.776   0.587  0.1201  0.0235 -0.0138
 1347TIP3    H125676   0.108   5.828   0.507  0.7553  2.8061  1.5883
 1347TIP3    H225677   0.210   5.760   0.595  0.1367  0.3218  0.4618
 1348TIP3   OH225678   4.073   6.591   3.125  0.0216  0.2809 -0.2195
 1348TIP3    H125679   4.127   6.526   3.080  1.2910  1.6452 -0.7648
 1348TIP3    H225680   4.059   6.554   3.212 -0.9631 -1.5872 -1.1130
 1349TIP3   OH225681   6.583   1.780   1.511 -0.3992  0.5533 -0.2047
 1349TIP3    H125682   6.536   1.697   1.510 -0.3987  0.5073  1.1795
 1349TIP3    H225683   6.571   1.813   1.600  0.0169  1.8004 -0.5890
 1350TIP3   OH225684   5.694   4.597   8.121  0.3062 -0.7420  0.4696
 1350TIP3    H125685   5.749   4.519   8.128  2.9268  0.5374 -2.9288
 1350TIP3    H225686   5.725   4.655   8.190  1.8041 -0.8984 -0.0343
 1351TIP3   OH225687   3.674   4.988   6.759  0.4929  0.2963 -0.0417
 1351TIP3    H125688   3.669   5.000   6.854  1.6714 -0.8144  0.1919
 1351TIP3    H225689   3.686   5.077   6.725  1.2469  0.5995  0.9554
 1352TIP3   OH225690   5.717   4.860   1.988  0.0347  0.2297  0.2632
 1352TIP3    H125691   5.697   4.836   1.898 -0.0020 -0.2230  0.3905
 1352TIP3    H225692   5.746   4.952   1.983  0.4475  0.0744 -0.2624
 1353TIP3   OH225693   3.590   4.439   8.804 -0.7125  0.5533  0.1103
 1353TIP3    H125694   3.661   4.500   8.825  0.4966 -0.4331 -0.9156
 1353TIP3    H225695   3.635   4.362   8.770 -2.3067 -0.0681 -0.6698
 1354TIP3   OH225696   6.540   5.628   0.347 -0.9737 -0.0538 -0.0513
 1354TIP3    H125697   6.570   5.717   0.327 -1.2454 -0.1782 -1.0299
 1354TIP3    H225698   6.551   5.621   0.442 -1.0780  1.0704  0.0632
 1355TIP3   OH225699   5.724   1.461   1.425  0.2922 -0.5972 -0.6393
 1355TIP3    H125700   5.670   1.460   1.504  0.2453 -0.5632 -0.6704
 1355TIP3    H225701   5.723   1.553   1.398  0.9057 -0.4754 -0.2723
 1356TIP3   OH225702   4.720   4.683   2.276 -0.1379  0.2153 -0.3474
 1356TIP3    H125703   4.739   4.772   2.247 -1.7760  0.8035  0.2879
 1356TIP3    H225704   4.686   4.692   2.365  0.2051 -1.1065 -0.0535
 1357TIP3   OH225705   4.531   2.015   8.161  0.2317  0.2425 -0.2026
 1357TIP3    H125706   4.563   1.932   8.126  0.8610 -0.6704  2.3353
 1357TIP3    H225707   4.448   1.993   8.204  0.5313  0.8506  0.7132
 1358TIP3   OH225708   3.994   1.343   2.371 -0.1254 -0.1677 -0.1118
 1358TIP3    H125709   4.058   1.385   2.428  2.2187 -3.4181 -0.0410
 1358TIP3    H225710   4.021   1.367   2.282 -2.4369  3.0761 -0.1026
 1359TIP3   OH225711   5.206   1.760   0.931 -0.1654  0.0525  0.0466
 1359TIP3    H125712   5.127   1.814   0.930  0.5971  1.2203  0.4904
 1359TIP3    H225713   5.237   1.759   0.841 -1.1000 -1.0671 -0.2792
 1360TIP3   OH225714   1.452   6.056   2.600  0.0754  0.0117  0.1361
 1360TIP3    H125715   1.436   6.101   2.683 -1.9787  2.0098 -1.2256
 1360TIP3    H225716   1.390   5.983   2.600 -0.0073  0.0820  0.2987
 1361TIP3   OH225717   0.759   6.460   0.335  0.2264  0.0753  0.4742
 1361TIP3    H125718   0.794   6.394   0.394 -2.1452 -0.7045  1.1281
 1361TIP3    H225719   0.836   6.508   0.303  1.7664 -1.1382  2.1893
 1362TIP3   OH225720   2.681   4.380   7.051  0.1780 -0.4040 -0.2585
 1362TIP3    H125721   2.646   4.452   7.103  2.5200  1.8369 -1.5776
 1362TIP3    H225722   2.750   4.342   7.105 -1.0003 -1.7337  0.4026
 1363TIP3   OH225723   5.500   5.894   7.861 -0.5006  0.0162 -0.3897
 1363TIP3    H125724   5.462   5.891   7.949  1.4583 -1.8573  0.5154
 1363TIP3    H225725   5.542   5.808   7.851  1.0429  0.9295 -2.3619
 1364TIP3   OH225726   3.214   4.592   1.748  0.0756 -0.3144 -0.4591
 1364TIP3    H125727   3.160   4.583   1.670 -0.4340  0.5275 -0.2075
 1364TIP3    H225728   3.152   4.601   1.820  0.5394 -1.3927  0.0987
 1365TIP3   OH225729   3.695   0.788   0.273 -0.1059 -0.2828 -0.2827
 1365TIP3    H125730   3.612   0.785   0.226  0.1076  2.0171 -0.8964
 1365TIP3    H225731   3.745   0.858   0.230  0.9633  0.4179  1.9669
 1366TIP3   OH225732   3.245   4.959   7.615 -0.6973  0.2976  0.2795
 1366TIP3    H125733   3.185   4.969   7.542  0.1841  0.2472 -0.4650
 1366TIP3    H225734   3.218   5.026   7.678 -0.3346  1.5495 -0.8607
 1367TIP3   OH225735   4.230   5.980   2.160 -0.5961 -0.3055  0.1431
 1367TIP3    H125736   4.266   6.069   2.159  3.0998 -1.6395 -0.9748
 1367TIP3    H225737   4.155   5.984   2.100 -0.8526  2.1157  0.5342
 1368TIP3   OH225738   6.646   3.952   1.118  0.0083  0.3490 -0.1254
 1368TIP3    H125739   6.601   4.030   1.087 -1.8157  0.5730  2.7214
 1368TIP3    H225740   6.576   3.889   1.134  1.1005 -0.6834  0.7983
 1369TIP3   OH225741   0.708   1.022   8.492 -0.6781  0.8468 -0.2518
 1369TIP3    H125742   0.738   0.948   8.440  0.0742  1.5263 -0.8085
 1369TIP3    H225743   0.616   1.032   8.469 -1.1742 -0.7525  0.8550
 1370TIP3   OH225744   2.857   5.299   7.860  0.3644  0.2516 -0.4760
 1370TIP3    H125745   2.785   5.352   7.826 -0.4572 -1.9169 -2.3941
 1370TIP3    H225746   2.888   5.248   7.785  3.2102  0.2771  0.5313
 1371TIP3   OH225747   5.563   6.272   8.375 -0.6868  0.7129  1.0655
 1371TIP3    H125748   5.563   6.365   8.397  2.3146  0.7367  1.4390
 1371TIP3    H225749   5.611   6.230   8.447 -0.1417 -0.8005 -0.1159
 1372TIP3   OH225750   3.695   2.724   8.259 -0.4935 -0.1415  0.5185
 1372TIP3    H125751   3.772   2.685   8.218 -0.6076  0.4948 -0.3234
 1372TIP3    H225752   3.653   2.774   8.189 -1.0986  0.3668  1.2284
 1373TIP3   OH225753   3.109   3.406   1.633  0.0595 -0.2264 -0.4147
 1373TIP3    H125754   3.030   3.446   1.669 -0.5098 -1.0368 -0.7062
 1373TIP3    H225755   3.093   3.403   1.538  0.0881 -1.1057 -0.4007
 1374TIP3   OH225756   5.509   4.997   7.382  0.6194 -0.4161  0.2216
 1374TIP3    H125757   5.446   5.044   7.437  0.6185  0.3920 -0.4492
 1374TIP3    H225758   5.583   4.980   7.440  0.5716  0.3300  0.5135
 1375TIP3   OH225759   1.159   6.470   2.524 -0.2635 -0.1176 -0.1246
 1375TIP3    H125760   1.182   6.423   2.444 -1.4839  1.1035 -1.2661
 1375TIP3    H225761   1.064   6.458   2.531 -0.0967 -0.6752  1.4845
 1376TIP3   OH225762   6.413   1.211   8.867 -0.0398 -0.0998  0.7235
 1376TIP3    H125763   6.494   1.243   8.906  0.1952 -0.9681  0.9571
 1376TIP3    H225764   6.371   1.159   8.936  0.1005 -1.1680  0.0258
 1377TIP3   OH225765   0.405   5.584   0.499 -0.0074 -0.2127  0.1945
 1377TIP3    H125766   0.489   5.541   0.486  0.7629  1.3139  0.0360
 1377TIP3    H225767   0.346   5.542   0.436  0.9671 -0.3635 -0.6248
 1378TIP3   OH225768   3.667   3.013   0.154  0.0274  0.2511 -0.0696
 1378TIP3    H125769   3.607   3.086   0.138  0.8891  1.1537  0.7203
 1378TIP3    H225770   3.630   2.941   0.103 -0.1506  1.5802 -1.9309
 1379TIP3   OH225771   1.647   4.135   2.503  0.5447 -0.1904 -0.1177
 1379TIP3    H125772   1.615   4.223   2.483 -1.6256 -0.5640  1.3388
 1379TIP3    H225773   1.688   4.143   2.589 -1.7950 -0.9370  1.1773
 1380TIP3   OH225774   0.122   5.590   0.827 -0.2846  0.7917 -0.4834
 1380TIP3    H125775   0.133   5.628   0.739  0.3063 -1.6145 -1.5297
 1380TIP3    H225776   0.139   5.496   0.815 -1.0630  0.2507  2.0599
 1381TIP3   OH225777   2.067   0.507   8.374  0.4937  0.4395 -0.2769
 1381TIP3    H125778   2.009   0.455   8.431 -0.0045 -0.6969 -1.7493
 1381TIP3    H225779   2.129   0.548   8.434 -1.9781  1.9729  1.4116
 1382TIP3   OH225780   4.554   6.498   2.316  0.6173 -0.2792  0.4763
 1382TIP3    H125781   4.479   6.442   2.333 -0.0011  0.2567 -0.3912
 1382TIP3    H225782   4.618   6.441   2.275 -0.7476  0.0004 -2.2242
 1383TIP3   OH225783   0.444   4.109   7.727 -0.1792 -0.2791 -0.0367
 1383TIP3    H125784   0.463   4.016   7.740  0.2224 -0.2381 -0.3315
 1383TIP3    H225785   0.493   4.133   7.649  1.6390  0.7531  1.3311
 1384TIP3   OH225786   1.369   4.327   0.263  0.0435 -0.2233  0.2653
 1384TIP3    H125787   1.426   4.392   0.222  0.8455 -0.7958  0.4486
 1384TIP3    H225788   1.323   4.287   0.190  1.3101 -1.0939 -0.0955
 1385TIP3   OH225789   2.529   3.356   2.149  0.0590  0.3479 -0.5990
 1385TIP3    H125790   2.475   3.377   2.226 -2.6164 -2.2388 -1.5420
 1385TIP3    H225791   2.609   3.319   2.185 -0.7423  0.0449  0.9754
 1386TIP3   OH225792   2.322   5.502   0.322 -0.9673 -0.1912  0.2677
 1386TIP3    H125793   2.328   5.492   0.417 -0.2490 -1.3225  0.1254
 1386TIP3    H225794   2.253   5.566   0.309 -0.9241  0.1453  1.5627
 1387TIP3   OH225795   0.849   2.930   0.565  0.4286 -0.1943 -0.2671
 1387TIP3    H125796   0.868   2.840   0.538  0.2306 -0.6461  1.0295
 1387TIP3    H225797   0.754   2.935   0.569  0.4477 -0.2652  0.6679
 1388TIP3   OH225798   3.068   2.470   8.036  0.0328  0.3846  0.1213
 1388TIP3    H125799   3.079   2.438   7.946  0.0681 -2.2702  0.9674
 1388TIP3    H225800   2.974   2.465   8.052  0.1265 -0.2306  0.5477
 1389TIP3   OH225801   5.551   6.728   6.744  0.1575  0.1034 -0.5134
 1389TIP3    H125802   5.529   6.747   6.836  0.0789 -1.1852 -0.2406
 1389TIP3    H225803   5.533   6.634   6.735  1.4829 -0.0807 -1.4732
 1390TIP3   OH225804   0.513   2.069   1.862 -0.3622 -0.1493 -0.1713
 1390TIP3    H125805   0.445   2.136   1.848 -0.2189 -0.3854 -2.2969
 1390TIP3    H225806   0.464   1.988   1.870 -0.3816 -0.2792 -1.4128
 1391TIP3   OH225807   1.757   0.866   8.316  0.3139 -0.5883  0.2616
 1391TIP3    H125808   1.720   0.818   8.242  0.8351  0.4398 -0.6956
 1391TIP3    H225809   1.846   0.888   8.288  0.2131  0.5978  0.8127
 1392TIP3   OH225810   4.494   0.653   1.582  0.5064 -0.3912  0.6672
 1392TIP3    H125811   4.441   0.598   1.640  1.0240 -0.8638  0.7024
 1392TIP3    H225812   4.516   0.596   1.509  0.1735  0.0921  0.1858
 1393TIP3   OH225813   1.880   6.321   1.913  0.8464 -0.5638 -0.5271
 1393TIP3    H125814   1.915   6.401   1.952 -1.7480  0.1314  0.6135
 1393TIP3    H225815   1.877   6.258   1.984  0.3656 -0.7955 -0.7481
 1394TIP3   OH225816   5.631   4.583   0.089  0.4495 -0.3731 -0.2079
 1394TIP3    H125817   5.647   4.617   0.177  0.3795  0.4337 -0.4997
 1394TIP3    H225818   5.538   4.601   0.074  0.2008 -1.4780 -0.0352
 1395TIP3   OH225819   4.268   6.190   1.119 -0.9831 -0.1898  0.6175
 1395TIP3    H125820   4.254   6.096   1.114  1.9473 -0.7025  0.7618
 1395TIP3    H225821   4.279   6.208   1.212 -0.7519  0.1669  0.5247
 1396TIP3   OH225822   0.470   0.326   2.167  0.3152 -0.4546 -0.0283
 1396TIP3    H125823   0.541   0.383   2.137 -0.4360  0.6607  0.2715
 1396TIP3    H225824   0.395   0.384   2.179 -1.2507 -1.8548 -2.1560
 1397TIP3   OH225825   1.452   1.838   1.245 -0.3422 -0.4269 -0.4566
 1397TIP3    H125826   1.506   1.916   1.245  0.8897 -1.2498  0.1219
 1397TIP3    H225827   1.470   1.795   1.161  1.1830 -1.5274  0.3962
 1398TIP3   OH225828   0.012   0.810   0.287 -0.0397 -0.7947  0.0812
 1398TIP3    H125829  -0.022   0.815   0.376  0.0371 -1.2437  0.1368
 1398TIP3    H225830   0.084   0.873   0.285 -1.5396  1.0105 -0.3523
 1399TIP3   OH225831   0.342   4.271   1.553  0.3234 -0.0326  0.1277
 1399TIP3    H125832   0.274   4.302   1.492  1.6766 -2.5186 -2.8886
 1399TIP3    H225833   0.304   4.193   1.594  0.1454  0.5387  1.0937
 1400TIP3   OH225834   0.548   4.543   1.292 -0.1290  0.1775 -0.5217
 1400TIP3    H125835   0.496   4.580   1.363 -0.9247 -0.2529 -0.8564
 1400TIP3    H225836   0.506   4.577   1.212  0.9595  0.9289 -0.7864
 1401TIP3   OH225837   4.988   6.586   1.922  0.4587  0.2227 -0.2102
 1401TIP3    H125838   4.930   6.661   1.930  0.5381  0.2298  0.4168
 1401TIP3    H225839   4.934   6.516   1.887  0.0562  0.2191  0.4017
 1402TIP3   OH225840   6.180   2.827   1.673 -0.2062 -0.0760  0.3546
 1402TIP3    H125841   6.210   2.802   1.761 -0.1504 -1.0845  0.0628
 1402TIP3    H225842   6.087   2.805   1.672 -0.4196  0.7876  0.4524
 1403TIP3   OH225843   4.110   5.695   8.406  0.3287 -0.3045  0.1472
 1403TIP3    H125844   4.076   5.651   8.484 -0.6587 -1.3429 -0.8288
 1403TIP3    H225845   4.070   5.782   8.409 -1.0652 -0.9054 -0.0367
 1404TIP3   OH225846   2.857   0.115   1.562 -0.1428  0.2417  0.3394
 1404TIP3    H125847   2.908   0.097   1.641 -1.2524 -1.5394  0.6986
 1404TIP3    H225848   2.799   0.039   1.553  0.2393  0.1672 -2.4210
 1405TIP3   OH225849   3.144   6.187   7.323 -0.2287  0.3139  0.6474
 1405TIP3    H125850   3.110   6.262   7.372  1.7939  2.1175 -0.5397
 1405TIP3    H225851   3.106   6.197   7.235 -0.1255 -0.2111  0.5387
 1406TIP3   OH225852   1.070   1.238   8.073 -0.1663 -0.2665 -0.7602
 1406TIP3    H125853   1.136   1.192   8.125 -1.1373 -1.9453 -0.9527
 1406TIP3    H225854   1.033   1.303   8.134 -0.7297 -1.6588  0.4456
 1407TIP3   OH225855   4.957   6.204   0.215  0.3864  0.7074 -0.2348
 1407TIP3    H125856   5.008   6.211   0.134 -0.2230 -0.2745 -0.7249
 1407TIP3    H225857   4.879   6.155   0.190  0.4009 -0.0198  1.0463
 1408TIP3   OH225858   6.575   3.339   2.726 -0.7270  0.2280  0.1072
 1408TIP3    H125859   6.540   3.311   2.642  0.5044  0.9906 -0.6822
 1408TIP3    H225860   6.503   3.390   2.765 -1.4854 -0.5501 -0.2358
 1409TIP3   OH225861   1.292   5.339   0.326  0.3126 -0.0596  0.5191
 1409TIP3    H125862   1.362   5.275   0.338  1.4879  1.1154  0.2580
 1409TIP3    H225863   1.277   5.340   0.231  0.4151  0.1661  0.5049
 1410TIP3   OH225864   6.356   2.310   0.555  0.5651  0.1278 -0.6777
 1410TIP3    H125865   6.295   2.371   0.512  1.1471  0.9901 -0.3044
 1410TIP3    H225866   6.399   2.264   0.483 -1.1858 -1.1874 -0.9445
 1411TIP3   OH225867   1.088   4.323   0.538  0.2982  0.1648  0.2602
 1411TIP3    H125868   1.040   4.270   0.602  0.9321 -1.3720 -0.4765
 1411TIP3    H225869   1.028   4.330   0.464  0.2492  0.4229  0.3223
 1412TIP3   OH225870   3.419   2.483   1.467 -0.6898 -0.0898  0.0290
 1412TIP3    H125871   3.449   2.417   1.529 -0.8013  1.2503  1.5887
 1412TIP3    H225872   3.500   2.525   1.437 -0.5096 -1.7002 -1.9648
 1413TIP3   OH225873   0.841   5.026   1.010 -0.6058  0.3040  0.1641
 1413TIP3    H125874   0.888   5.109   1.026 -1.8591  0.8359  1.3247
 1413TIP3    H225875   0.749   5.049   1.018 -0.9653 -1.3560  1.2531
 1414TIP3   OH225876   4.053   4.238   8.369 -0.0731  0.8962  0.2450
 1414TIP3    H125877   4.105   4.167   8.408 -1.9786 -0.4296  0.5771
 1414TIP3    H225878   4.065   4.228   8.275  0.0936  0.4408  0.3095
 1415TIP3   OH225879   4.381   6.272   8.111 -0.0599 -0.2099 -0.2692
 1415TIP3    H125880   4.350   6.264   8.021 -0.3281  1.9953 -0.4437
 1415TIP3    H225881   4.341   6.353   8.142  0.9102 -0.3576  1.4709
 1416TIP3   OH225882   5.894   3.602   0.823 -0.1258  0.6246  0.4397
 1416TIP3    H125883   5.842   3.616   0.902  0.4362 -0.0947  0.9485
 1416TIP3    H225884   5.897   3.507   0.812 -0.6568  0.7333 -0.7667
 1417TIP3   OH225885   6.334   6.110   2.220  0.6132 -0.0785 -0.1344
 1417TIP3    H125886   6.374   6.070   2.143  1.3603 -1.3652  0.8832
 1417TIP3    H225887   6.290   6.038   2.264 -1.9199  1.0740 -0.5863
 1418TIP3   OH225888   5.443   5.037   8.479 -0.6682 -0.0595  0.5667
 1418TIP3    H125889   5.451   5.127   8.448 -0.6237 -0.3987 -0.4553
 1418TIP3    H225890   5.423   5.045   8.572 -1.6346  1.0305  0.2937
 1419TIP3   OH225891   4.217   4.341   0.946  0.5872 -0.0876 -0.1545
 1419TIP3    H125892   4.232   4.433   0.924  0.8740 -0.2154 -0.4859
 1419TIP3    H225893   4.146   4.344   1.010  1.5139  0.4581  0.8810
 1420TIP3   OH225894   0.456   5.868   1.802 -0.6624 -0.4485  0.2628
 1420TIP3    H125895   0.461   5.816   1.883 -1.2492 -1.0594 -0.0890
 1420TIP3    H225896   0.486   5.955   1.828 -1.0687 -0.5781  1.1957
 1421TIP3   OH225897   2.096   1.721   8.112 -0.8706  0.2756  0.6639
 1421TIP3    H125898   2.076   1.807   8.149  2.7197  1.3318  0.4656
 1421TIP3    H225899   2.074   1.728   8.020 -0.0649  1.2008  0.5351
 1422TIP3   OH225900   6.545   0.726   1.055  0.0421  0.2456  0.0541
 1422TIP3    H125901   6.457   0.759   1.038  0.1655  1.1428  1.0992
 1422TIP3    H225902   6.547   0.711   1.149  0.5937 -1.0328 -0.1418
 1423TIP3   OH225903   6.799   6.090   0.603 -0.1269  0.1985  0.0668
 1423TIP3    H125904   6.705   6.073   0.599 -0.4474  1.3572  1.6876
 1423TIP3    H225905   6.834   6.021   0.660 -0.4039  1.1003  1.3780
 1424TIP3   OH225906   2.138   0.488   2.502 -0.1883 -0.4489  0.3714
 1424TIP3    H125907   2.193   0.565   2.520  0.8436 -1.5221  2.1483
 1424TIP3    H225908   2.055   0.509   2.545 -0.1229 -0.0975  0.3366
 1425TIP3   OH225909   4.697   2.413   6.917  0.0527  0.1103 -0.2650
 1425TIP3    H125910   4.773   2.455   6.958  1.2611 -1.2921 -0.9604
 1425TIP3    H225911   4.697   2.324   6.953 -1.5810  0.2304  0.0896
 1426TIP3   OH225912   3.212   6.562   7.430  0.3867 -0.0743  0.5463
 1426TIP3    H125913   3.170   6.485   7.467  0.5851  0.0988  1.1306
 1426TIP3    H225914   3.173   6.571   7.343  0.9155 -1.2840  0.1671
 1427TIP3   OH225915   0.360   3.907   8.322  0.4064 -0.4996  0.2075
 1427TIP3    H125916   0.283   3.952   8.287  1.4103 -0.4208 -2.0468
 1427TIP3    H225917   0.324   3.836   8.376 -1.2012  0.7636  0.9034
 1428TIP3   OH225918   0.249   1.738   2.145 -0.1892  0.5437  0.0603
 1428TIP3    H125919   0.326   1.771   2.191 -0.2875  1.1537 -0.2053
 1428TIP3    H225920   0.192   1.815   2.136  0.7387  1.0197 -3.0185
 1429TIP3   OH225921   5.642   1.268   8.446  0.0799  0.3606  0.0837
 1429TIP3    H125922   5.640   1.173   8.457 -0.6870  0.2662 -0.8335
 1429TIP3    H225923   5.736   1.289   8.444  0.3581  0.0031  3.1507
 1430TIP3   OH225924   4.176   0.713   0.235  0.6074  0.3185 -0.0990
 1430TIP3    H125925   4.234   0.748   0.303 -0.7278 -0.3288  1.4175
 1430TIP3    H225926   4.111   0.782   0.221 -0.3902 -0.4047  0.8774
 1431TIP3   OH225927   5.524   4.483   2.885 -0.0257  0.1863  0.3096
 1431TIP3    H125928   5.507   4.576   2.895  0.6424  0.0499  3.7091
 1431TIP3    H225929   5.439   4.446   2.858 -0.9941  1.4422  1.5257
 1432TIP3   OH225930   5.768   3.835   0.706  0.2547  0.0892  0.3071
 1432TIP3    H125931   5.846   3.879   0.740  0.6781 -0.5206  0.1500
 1432TIP3    H225932   5.777   3.745   0.737 -0.7702  0.1861  0.9199
 1433TIP3   OH225933   2.564   3.159   7.258  0.3051 -0.9315  0.3137
 1433TIP3    H125934   2.649   3.157   7.301  0.1551 -0.5192  0.6361
 1433TIP3    H225935   2.541   3.252   7.254  1.0469 -0.7811 -2.1258
 1434TIP3   OH225936   4.361   6.644   0.189 -0.0348  0.1660 -0.1494
 1434TIP3    H125937   4.419   6.676   0.258  2.0474  1.0938 -2.1847
 1434TIP3    H225938   4.405   6.566   0.155 -0.6995  0.0736 -0.8175
 1435TIP3   OH225939   0.818   0.738   0.084  0.1839 -0.2967 -0.1834
 1435TIP3    H125940   0.740   0.689   0.056  1.7894 -3.6189  0.6216
 1435TIP3    H225941   0.873   0.742   0.006 -0.0794  0.5732 -0.3309
 1436TIP3   OH225942   4.182   4.746   2.191  0.7441 -0.1291 -0.1916
 1436TIP3    H125943   4.167   4.831   2.151  0.6307 -0.5509 -1.0624
 1436TIP3    H225944   4.239   4.700   2.130 -0.3097 -1.1771 -0.4293
 1437TIP3   OH225945   5.539   1.429   0.425  0.7283  0.7033  0.4593
 1437TIP3    H125946   5.549   1.424   0.330  0.0612  0.7174  0.3835
 1437TIP3    H225947   5.470   1.494   0.439 -0.6005 -0.7518  0.8645
 1438TIP3   OH225948   1.480   2.048   2.835  0.3242  0.1705 -0.1499
 1438TIP3    H125949   1.433   2.104   2.773  0.2988 -0.5563 -0.7992
 1438TIP3    H225950   1.427   1.969   2.842  0.7171 -0.0643  0.2242
 1439TIP3   OH225951   0.780   6.154   8.249  0.5543  0.3067  0.1706
 1439TIP3    H125952   0.783   6.197   8.164  0.0257 -0.9020 -0.4885
 1439TIP3    H225953   0.689   6.126   8.259  0.3921  1.2629  1.5749
 1440TIP3   OH225954   4.516   4.664   7.976 -0.0562  0.6111  0.0685
 1440TIP3    H125955   4.429   4.644   8.009  0.0493 -1.5387 -0.7934
 1440TIP3    H225956   4.519   4.760   7.972 -1.6325  0.8054  1.9820
 1441TIP3   OH225957   5.804   2.309   2.691  0.7972  0.1602 -0.2769
 1441TIP3    H125958   5.774   2.225   2.727 -0.5627  1.9321  3.1840
 1441TIP3    H225959   5.899   2.306   2.700  0.6548 -0.3752  1.6205
 1442TIP3   OH225960   6.084   4.690   1.680 -0.5654 -0.2687  0.6094
 1442TIP3    H125961   6.003   4.693   1.731 -2.0114  2.2836 -1.5835
 1442TIP3    H225962   6.057   4.713   1.591  2.4742 -0.1112 -0.3800
 1443TIP3   OH225963   1.677   1.143   1.379 -0.1272  0.0756 -0.0069
 1443TIP3    H125964   1.751   1.187   1.421  0.9620 -0.6362 -1.1310
 1443TIP3    H225965   1.606   1.151   1.442  0.6564  1.5067  0.7570
 1444TIP3   OH225966   4.417   2.710   7.953 -0.1655  0.1394 -0.0063
 1444TIP3    H125967   4.456   2.728   7.868 -0.5199  0.2773 -0.1431
 1444TIP3    H225968   4.323   2.701   7.934 -0.3065  0.6322  0.4371
 1445TIP3   OH225969   3.658   5.071   0.662 -0.1862 -0.2270 -0.3764
 1445TIP3    H125970   3.722   5.035   0.722  0.3453  0.0810 -0.7513
 1445TIP3    H225971   3.621   5.146   0.708  0.3050  0.0794 -0.4690
 1446TIP3   OH225972   1.712   5.902   7.264 -0.5202  0.7597 -0.4871
 1446TIP3    H125973   1.715   5.993   7.292 -1.2535  0.5555  0.3124
 1446TIP3    H225974   1.652   5.860   7.326  0.1956 -0.3673 -0.5283
 1447TIP3   OH225975   2.485   3.107   8.864  0.1311  0.0461 -0.4178
 1447TIP3    H125976   2.452   3.029   8.819  1.5044 -2.2394  2.2148
 1447TIP3    H225977   2.418   3.126   8.930 -0.7021  1.8508 -1.7020
 1448TIP3   OH225978   5.633   0.985   8.467  0.1350  0.2055 -0.0528
 1448TIP3    H125979   5.663   0.919   8.404  0.6102 -0.2152  0.6108
 1448TIP3    H225980   5.636   0.941   8.552  0.9706  1.2269  0.4765
 1449TIP3   OH225981   1.412   5.909   1.628 -0.1343 -0.1704 -0.1412
 1449TIP3    H125982   1.399   5.932   1.536 -0.8266  1.5554  0.3417
 1449TIP3    H225983   1.495   5.949   1.651 -0.8322  0.9918  0.4330
 1450TIP3   OH225984   1.942   6.279   8.131  0.4410  0.0749 -0.4825
 1450TIP3    H125985   1.878   6.349   8.141  1.5960  0.9737  1.1049
 1450TIP3    H225986   1.911   6.210   8.189  1.3864  0.9168  1.0858
 1451TIP3   OH225987   2.516   0.522   6.746 -0.0912  0.5045  0.7554
 1451TIP3    H125988   2.447   0.572   6.789 -0.9625 -1.7505  2.1210
 1451TIP3    H225989   2.485   0.511   6.656 -0.7570  0.8502  0.9337
 1452TIP3   OH225990   2.223   1.667   8.584  0.1911  0.0404 -0.3662
 1452TIP3    H125991   2.271   1.736   8.539 -1.2049  1.3819  0.1092
 1452TIP3    H225992   2.133   1.698   8.586 -0.2212 -1.1208  1.1507
 1453TIP3   OH225993   6.634   1.612   2.139  0.0475  0.3865 -0.3642
 1453TIP3    H125994   6.680   1.560   2.205 -0.7300 -1.2200 -1.0415
 1453TIP3    H225995   6.544   1.582   2.143 -0.3746  1.4910 -1.0043
 1454TIP3   OH225996   3.131   4.206   7.293  0.1839 -0.2815  0.2207
 1454TIP3    H125997   3.174   4.272   7.347 -1.3120  0.8025  0.1688
 1454TIP3    H225998   3.056   4.178   7.345  0.4892 -1.5624  0.0068
 1455TIP3   OH225999   0.136   6.202   0.399 -0.4033 -0.1517 -0.7421
 1455TIP3    H126000   0.098   6.151   0.471  0.4410  0.2401 -0.0071
 1455TIP3    H226001   0.084   6.282   0.397  2.1673  1.8017  2.3038
 1456TIP3   OH226002   0.814   6.265   1.831  0.2428 -0.0004  0.0289
 1456TIP3    H126003   0.729   6.267   1.787  0.2457 -1.5078 -0.0819
 1456TIP3    H226004   0.792   6.271   1.924  0.1776  2.0485 -0.0719
 1457TIP3   OH226005   4.068   0.933   1.061 -0.3538  0.6895  0.3787
 1457TIP3    H126006   4.125   0.863   1.030  0.0508  1.0200  0.3605
 1457TIP3    H226007   4.124   1.011   1.061 -0.2435  0.6419  2.2425
 1458TIP3   OH226008   4.477   4.206   7.393 -0.2432  0.1783  0.1580
 1458TIP3    H126009   4.522   4.145   7.450  0.5806  0.9633  0.3749
 1458TIP3    H226010   4.534   4.215   7.317  0.3113  1.6601  0.7118
 1459TIP3   OH226011   6.672   4.907   1.403 -0.4843  0.5687 -0.3061
 1459TIP3    H126012   6.577   4.918   1.394 -0.6070  0.3015  0.5456
 1459TIP3    H226013   6.682   4.841   1.472  0.3189  0.3967 -0.5777
 1460TIP3   OH226014   4.553   5.969   7.681 -0.1030 -0.5816  0.8130
 1460TIP3    H126015   4.619   5.900   7.684  0.5942  0.0683  0.7496
 1460TIP3    H226016   4.476   5.931   7.724  0.3227 -1.3320  0.9232
 1461TIP3   OH226017   0.503   3.773   8.117  0.1152  0.2413 -0.4146
 1461TIP3    H126018   0.473   3.826   8.191 -0.4768 -1.6817  0.8103
 1461TIP3    H226019   0.565   3.711   8.156  0.1477 -0.5048 -1.6183
 1462TIP3   OH226020   1.251   5.783   0.055 -0.8617 -0.0544 -0.4452
 1462TIP3    H126021   1.281   5.771   0.145 -0.2208  1.8654 -0.3579
 1462TIP3    H226022   1.158   5.805   0.064 -0.7608  0.2942 -0.2389
 1463TIP3   OH226023   3.377   0.603   7.271  0.4277  0.6757  0.6457
 1463TIP3    H126024   3.464   0.640   7.284  0.5318  1.1983 -1.2767
 1463TIP3    H226025   3.317   0.673   7.296  0.5764  0.7914  0.6793
 1464TIP3   OH226026   0.388   3.041   1.625  0.2897 -0.2093  0.2592
 1464TIP3    H126027   0.345   3.102   1.685  0.2079 -0.7718  0.7894
 1464TIP3    H226028   0.323   3.026   1.556  0.0135 -0.2771  0.5266
 1465TIP3   OH226029   4.156   1.878   0.828  0.0797  0.1019  0.5920
 1465TIP3    H126030   4.090   1.840   0.886  0.2097 -1.8995 -0.4763
 1465TIP3    H226031   4.162   1.816   0.755 -0.6331  2.8411 -2.0106
 1466TIP3   OH226032   5.225   3.475   8.710  0.1421  0.4002 -0.4516
 1466TIP3    H126033   5.296   3.509   8.765  0.4507 -1.1783  0.1871
 1466TIP3    H226034   5.268   3.443   8.631  0.0801  0.0116 -0.3336
 1467TIP3   OH226035   5.568   4.422   8.441 -0.7023 -0.3212 -0.4716
 1467TIP3    H126036   5.598   4.509   8.467  0.8538 -0.7316 -0.7829
 1467TIP3    H226037   5.522   4.388   8.518  1.9213 -0.6614  1.0796
 1468TIP3   OH226038   6.766   2.550   1.811 -0.1804  0.1029 -0.4417
 1468TIP3    H126039   6.713   2.573   1.735  0.1762  0.1645 -0.6754
 1468TIP3    H226040   6.833   2.490   1.776 -0.6830 -0.7548  0.0246
 1469TIP3   OH226041   5.027   4.670   2.144  0.0878  0.3061 -0.0847
 1469TIP3    H126042   5.036   4.760   2.114 -0.5996 -0.0314 -1.3874
 1469TIP3    H226043   5.108   4.627   2.115  0.2504  0.4111  0.2083
 1470TIP3   OH226044   3.158   5.433   7.816 -0.1164 -0.6132  0.4144
 1470TIP3    H126045   3.226   5.457   7.753 -0.1231 -0.3059  0.5228
 1470TIP3    H226046   3.106   5.513   7.828 -1.2754 -1.1712 -0.6330
 1471TIP3   OH226047   5.474   4.323   7.198 -0.1036  0.0174  0.5233
 1471TIP3    H126048   5.508   4.233   7.194 -2.2447 -0.8450  0.7742
 1471TIP3    H226049   5.513   4.366   7.122 -0.8055 -1.7940 -0.9490
 1472TIP3   OH226050   0.490   5.432   8.515 -0.7668  0.3739  0.3168
 1472TIP3    H126051   0.563   5.480   8.476 -0.5097  0.2391  0.6358
 1472TIP3    H226052   0.448   5.388   8.441 -0.5305  0.4563  0.1332
 1473TIP3   OH226053   1.342   0.870   1.302  0.4200 -0.3490 -0.5754
 1473TIP3    H126054   1.346   0.964   1.284  1.2341 -0.0001  1.2043
 1473TIP3    H226055   1.271   0.838   1.246  1.2889  0.9713 -2.5469
 1474TIP3   OH226056   6.625   1.095   2.231  0.6804 -0.4856 -0.3891
 1474TIP3    H126057   6.558   1.039   2.271  0.1683 -0.4512 -1.1660
 1474TIP3    H226058   6.674   1.131   2.305 -1.5875  1.2893  0.3847
 1475TIP3   OH226059   1.013   5.020   7.105  0.4243  0.4924 -0.0379
 1475TIP3    H126060   0.963   5.017   7.023  1.5124 -0.8066 -0.6785
 1475TIP3    H226061   1.081   4.954   7.095 -0.5247 -1.0509  2.6641
 1476TIP3   OH226062   3.595   3.038   1.729 -0.5250 -0.1248  0.1921
 1476TIP3    H126063   3.530   3.027   1.659  0.3070 -1.0435 -0.4703
 1476TIP3    H226064   3.637   2.952   1.736  2.4705  1.0628 -1.2849
 1477TIP3   OH226065   5.144   2.592   2.526 -0.4536  0.3655 -0.3063
 1477TIP3    H126066   5.091   2.665   2.559 -0.8420  0.0786 -0.2857
 1477TIP3    H226067   5.088   2.515   2.536  0.0860  0.0035  0.0144
 1478TIP3   OH226068   4.824   4.475   8.787  0.2783  0.5942  0.4061
 1478TIP3    H126069   4.804   4.414   8.716  0.4252  0.1684  0.7227
 1478TIP3    H226070   4.745   4.474   8.842 -0.5941  2.3622 -0.7319
 1479TIP3   OH226071   1.566   6.727   1.663 -0.0447  0.1915 -0.8522
 1479TIP3    H126072   1.612   6.746   1.581  1.2734 -0.0413 -0.2080
 1479TIP3    H226073   1.620   6.659   1.704  0.2652  1.4763  0.9648
 1480TIP3   OH226074   3.190   3.416   6.956  0.5891 -0.2460 -0.1148
 1480TIP3    H126075   3.201   3.324   6.979  0.8942 -0.5820 -1.5491
 1480TIP3    H226076   3.278   3.449   6.940  0.4143  0.0437 -0.5277
 1481TIP3   OH226077   6.202   4.148   7.749  0.2897 -0.4195 -0.2581
 1481TIP3    H126078   6.261   4.220   7.770 -0.7442  0.0024  1.4166
 1481TIP3    H226079   6.138   4.187   7.688 -0.2447  0.0891  0.6112
 1482TIP3   OH226080   2.110   4.898   0.351 -0.1842  0.0441 -0.1175
 1482TIP3    H126081   2.016   4.884   0.340 -0.0471 -1.6064  0.5766
 1482TIP3    H226082   2.151   4.824   0.305  0.7915  0.7441 -0.4149
 1483TIP3   OH226083   2.694   4.170   7.606  0.5104  0.6792 -0.4395
 1483TIP3    H126084   2.608   4.130   7.594  1.4742 -1.4473 -0.6999
 1483TIP3    H226085   2.695   4.194   7.699 -0.3541  0.7340 -0.4308
 1484TIP3   OH226086   6.769   4.609   2.233  0.4122 -0.5865 -0.2184
 1484TIP3    H126087   6.707   4.680   2.216  1.1718 -0.1697 -1.4245
 1484TIP3    H226088   6.717   4.541   2.274 -0.2553  0.8283  1.4158
 1485TIP3   OH226089   5.414   6.086   6.762  0.0152 -0.4051  0.1107
 1485TIP3    H126090   5.502   6.118   6.741 -0.5259  0.9682 -0.2020
 1485TIP3    H226091   5.375   6.067   6.677 -0.3915  0.1586  0.1635
 1486TIP3   OH226092   2.596   4.743   7.734  0.6830 -0.1928  0.2138
 1486TIP3    H126093   2.572   4.725   7.643 -0.0555  0.6030  0.2318
 1486TIP3    H226094   2.683   4.704   7.745 -0.2501 -2.5053 -0.0919
 1487TIP3   OH226095   0.987   3.786   2.119  0.4250 -0.1069 -0.1079
 1487TIP3    H126096   0.893   3.773   2.130  0.4694  0.4568  1.0394
 1487TIP3    H226097   0.994   3.854   2.052 -0.0491  1.1567  1.0857
 1488TIP3   OH226098   2.592   3.036   0.984  0.5211  0.2663  0.5261
 1488TIP3    H126099   2.521   3.026   1.048  0.4396 -2.0393  0.1406
 1488TIP3    H226100   2.621   3.127   0.996 -1.3534  0.7677  1.8559
 1489TIP3   OH226101   2.821   5.647   0.593  0.6503  0.1096 -0.1986
 1489TIP3    H126102   2.773   5.718   0.636 -2.6685 -1.6302 -0.6794
 1489TIP3    H226103   2.858   5.595   0.664 -2.2366 -1.0584  0.5926
 1490TIP3   OH226104   2.193   0.030   2.225  0.2433 -0.6281 -0.4121
 1490TIP3    H126105   2.186   0.042   2.130  0.1664 -1.6575 -0.5497
 1490TIP3    H226106   2.263  -0.033   2.236  0.3389 -0.4173  0.2293
 1491TIP3   OH226107   1.086   2.125   2.270  0.1306 -0.8975 -0.0986
 1491TIP3    H126108   1.061   2.100   2.359 -1.4054  0.3918 -0.1138
 1491TIP3    H226109   1.127   2.211   2.279  2.3084 -1.8317 -0.4042
 1492TIP3   OH226110   3.196   0.982   8.195  0.2052  0.4263  0.0649
 1492TIP3    H126111   3.103   0.988   8.176  0.0490  1.3152  0.9941
 1492TIP3    H226112   3.239   0.985   8.109 -0.6434 -1.3588 -0.4733
 1493TIP3   OH226113   5.428   5.563   7.639  0.3733 -0.2083 -0.2787
 1493TIP3    H126114   5.434   5.597   7.550  1.0454 -0.2193 -0.2431
 1493TIP3    H226115   5.517   5.569   7.673  0.4443 -1.6901 -0.1440
 1494TIP3   OH226116   5.458   4.771   7.239 -0.0044 -0.2270 -0.0115
 1494TIP3    H126117   5.483   4.851   7.285 -0.6990 -0.4029  0.6963
 1494TIP3    H226118   5.535   4.747   7.187 -0.0546  1.3247 -0.8462
 1495TIP3   OH226119   3.177   3.774   2.175 -0.5275 -0.3078 -0.2083
 1495TIP3    H126120   3.191   3.868   2.166 -2.0319 -0.0092  0.2246
 1495TIP3    H226121   3.138   3.748   2.091  0.3510 -0.6583 -0.5190
 1496TIP3   OH226122   4.575   2.779   2.338 -0.4426 -0.4046 -0.2454
 1496TIP3    H126123   4.655   2.727   2.350  0.6117  1.4301  1.2191
 1496TIP3    H226124   4.537   2.785   2.425 -0.1095  1.8727 -0.2064
 1497TIP3   OH226125   0.543   3.667   8.635  0.3168 -0.2685  0.4121
 1497TIP3    H126126   0.524   3.624   8.552  1.6118  0.6476 -0.3929
 1497TIP3    H226127   0.477   3.633   8.695 -1.2963 -0.1991 -1.2346
 1498TIP3   OH226128   0.012   3.231   2.442 -0.9314 -0.1234  0.4685
 1498TIP3    H126129  -0.023   3.179   2.515 -2.4951  0.4438  0.1525
 1498TIP3    H226130  -0.050   3.217   2.371 -0.0532  0.2641 -0.3944
 1499TIP3   OH226131   1.872   0.881   0.460  0.2423  0.2601 -0.2871
 1499TIP3    H126132   1.934   0.922   0.520 -0.5001 -0.7851  1.2778
 1499TIP3    H226133   1.923   0.813   0.416  1.0137  1.6098 -1.5407
 1500TIP3   OH226134   4.663   2.679   0.779  0.0199 -0.3475  0.0900
 1500TIP3    H126135   4.617   2.762   0.790 -0.3842 -0.6528  0.7459
 1500TIP3    H226136   4.651   2.657   0.687  1.4694  1.1012 -0.5114
 1501TIP3   OH226137   5.670   5.723   8.522  0.2570 -0.8657  0.0261
 1501TIP3    H126138   5.645   5.710   8.431 -0.5307 -2.4400  0.4124
 1501TIP3    H226139   5.762   5.697   8.526  0.5447  0.0303 -0.4577
 1502TIP3   OH226140   4.586   3.196   1.024 -0.3229  0.3916 -0.4247
 1502TIP3    H126141   4.497   3.192   1.059 -0.4245  2.3178 -0.3262
 1502TIP3    H226142   4.637   3.139   1.082 -1.0450  1.2174  1.0925
 1503TIP3   OH226143   3.254   3.145   1.187  0.0623  0.4522 -0.1291
 1503TIP3    H126144   3.287   3.176   1.272 -1.8188 -4.5379  2.8675
 1503TIP3    H226145   3.161   3.131   1.201 -0.1682 -1.3161 -2.7260
 1504TIP3   OH226146   0.920   6.291   7.257  0.1221 -0.3576  0.0235
 1504TIP3    H126147   0.998   6.340   7.232  0.6907  1.1902  4.1318
 1504TIP3    H226148   0.854   6.357   7.274  0.5722 -0.7813  4.6194
 1505TIP3   OH226149   5.195   3.404   0.470  0.4021 -0.1710 -0.0726
 1505TIP3    H126150   5.260   3.466   0.502 -0.8467 -0.7140  4.1625
 1505TIP3    H226151   5.128   3.459   0.430  0.6366  1.0239  1.0850
 1506TIP3   OH226152   5.212   4.209   1.520 -0.5864 -0.3653  0.2365
 1506TIP3    H126153   5.161   4.164   1.587 -1.0281 -1.0580 -0.5391
 1506TIP3    H226154   5.156   4.279   1.488 -0.9181 -0.8761 -0.3341
 1507TIP3   OH226155   1.144   5.928   1.174  0.3832 -0.2736 -0.1253
 1507TIP3    H126156   1.080   5.896   1.110  0.0817  0.6373 -0.2985
 1507TIP3    H226157   1.092   5.978   1.237  0.7919 -0.4352  0.3470
 1508TIP3   OH226158   4.910   1.831   2.760  0.3938 -0.1451  0.2101
 1508TIP3    H126159   4.919   1.908   2.815 -0.8176 -0.9774  1.6603
 1508TIP3    H226160   4.815   1.823   2.746  0.6028 -0.5900 -1.0891
 1509TIP3   OH226161   1.433   6.072   2.131  0.2271  0.5055 -0.1408
 1509TIP3    H126162   1.364   6.126   2.092  0.3595  0.7071 -0.1001
 1509TIP3    H226163   1.489   6.048   2.057 -0.2144 -0.1558 -0.2677
 1510TIP3   OH226164   1.841   3.828   2.002 -0.7018 -0.7057 -0.2520
 1510TIP3    H126165   1.841   3.792   2.091 -0.3161 -1.6117 -0.6162
 1510TIP3    H226166   1.934   3.835   1.979 -0.7329  0.9139 -0.0455
 1511TIP3   OH226167   1.222   3.808   8.458 -0.0157  0.2487  0.4319
 1511TIP3    H126168   1.257   3.751   8.526  2.2408  0.6996 -0.2688
 1511TIP3    H226169   1.265   3.778   8.378 -2.5489 -0.2249 -0.8382
 1512TIP3   OH226170   4.743   1.528   0.481 -0.5988  0.2329  0.0778
 1512TIP3    H126171   4.675   1.591   0.457 -1.1993 -0.6994 -0.7115
 1512TIP3    H226172   4.762   1.481   0.400  0.3048 -0.1742  0.5139
 1513TIP3   OH226173   2.992   5.548   0.116 -0.6200  0.0147 -0.7327
 1513TIP3    H126174   3.077   5.507   0.132 -0.6645 -0.4160 -1.5489
 1513TIP3    H226175   2.933   5.505   0.178  0.2848  2.3831  1.9815
 1514TIP3   OH226176   3.025   3.018   7.304  0.3425  0.0726  0.1301
 1514TIP3    H126177   3.117   3.042   7.305  0.7611 -1.4571  0.8527
 1514TIP3    H226178   3.023   2.933   7.261 -0.8691  0.5123 -0.7468
 1515TIP3   OH226179   0.856   6.125   0.319 -0.1093  0.0492 -0.4188
 1515TIP3    H126180   0.926   6.151   0.258  0.0772  0.1333 -0.1701
 1515TIP3    H226181   0.901   6.074   0.386 -0.1721  0.6883  0.1245
 1516TIP3   OH226182   6.712   3.901   3.338  0.1242 -0.1356  0.1749
 1516TIP3    H126183   6.648   3.944   3.281  0.6942 -0.1697 -0.5055
 1516TIP3    H226184   6.783   3.965   3.347  0.0206 -0.1161  0.8825
 1517TIP3   OH226185   3.140   2.521   0.865 -0.0392 -0.0534  0.0340
 1517TIP3    H126186   3.060   2.573   0.871 -0.1781 -0.0200 -1.6072
 1517TIP3    H226187   3.109   2.430   0.863  0.2075 -0.2763  3.0077
 1518TIP3   OH226188   1.953   6.555   2.030  0.7292  0.3348 -0.4143
 1518TIP3    H126189   1.901   6.632   2.008  0.9858  0.7246  0.3371
 1518TIP3    H226190   1.966   6.560   2.124  1.2071 -0.3446 -0.4359
 1519TIP3   OH226191   2.577   0.615   8.857 -0.2323 -0.3772  0.3396
 1519TIP3    H126192   2.597   0.587   8.768 -0.4501  0.5035  0.0023
 1519TIP3    H226193   2.622   0.551   8.913 -0.8692 -1.4798 -0.3854
 1520TIP3   OH226194   4.917   4.516   8.204 -0.1862 -0.2434 -0.7062
 1520TIP3    H126195   4.998   4.507   8.254 -0.1108 -0.9786 -0.9547
 1520TIP3    H226196   4.909   4.611   8.189  0.5424 -0.1478 -0.5417
 1521TIP3   OH226197   2.416   3.599   8.642 -0.0645 -0.1165  0.2356
 1521TIP3    H126198   2.336   3.640   8.610 -0.0798 -0.6634 -0.4283
 1521TIP3    H226199   2.453   3.664   8.703  0.4766  1.3708 -1.5973
 1522TIP3   OH226200   1.192   0.652   0.880 -0.1564  0.0301 -0.3005
 1522TIP3    H126201   1.166   0.624   0.792 -0.1676  0.1272 -0.3280
 1522TIP3    H226202   1.148   0.736   0.892 -0.4296 -0.1444 -0.0722
 1523TIP3   OH226203   5.841   5.788   7.599 -0.0825  0.6397 -0.1856
 1523TIP3    H126204   5.885   5.846   7.537 -1.5478  0.7793 -1.1519
 1523TIP3    H226205   5.759   5.832   7.618 -0.8363 -0.6830 -0.2388
 1524TIP3   OH226206   0.148   4.894   0.868  0.2777 -0.1066  0.7481
 1524TIP3    H126207   0.149   4.944   0.786  1.8907  1.8172  1.8357
 1524TIP3    H226208   0.136   4.803   0.841 -1.1381  0.6697 -1.4576
 1525TIP3   OH226209   5.038   3.098   7.844  0.3923 -0.1539  0.3954
 1525TIP3    H126210   4.990   3.128   7.921  2.7497 -1.8772  2.7094
 1525TIP3    H226211   5.127   3.130   7.857  0.2711  2.4696 -3.4660
 1526TIP3   OH226212   0.877   2.416   8.661  0.4034  0.1470 -0.7427
 1526TIP3    H126213   0.912   2.355   8.597 -0.1893  0.6522 -1.5699
 1526TIP3    H226214   0.888   2.502   8.620 -0.0256  0.4716 -0.1882
 1527TIP3   OH226215   3.261   5.433   0.097  0.3791 -0.5009 -0.4146
 1527TIP3    H126216   3.336   5.393   0.140  1.4966  1.0387 -0.8376
 1527TIP3    H226217   3.245   5.378   0.020  0.8852 -1.0037 -0.1695
 1528TIP3   OH226218   4.609   0.566   1.317 -0.1903 -0.4091 -0.4076
 1528TIP3    H126219   4.691   0.537   1.358  0.3571 -0.1503 -1.2847
 1528TIP3    H226220   4.636   0.598   1.231 -1.0460  0.9305 -0.2000
 1529TIP3   OH226221   0.289   3.802   1.610  0.2521 -0.5368 -0.3111
 1529TIP3    H126222   0.226   3.731   1.625 -1.1340  0.7983  0.4873
 1529TIP3    H226223   0.355   3.790   1.678 -0.3917 -0.6158  0.3064
 1530TIP3   OH226224   4.914   1.521   2.321  0.1024 -0.4012 -0.0350
 1530TIP3    H126225   4.886   1.441   2.275 -0.2807  0.1480 -0.7728
 1530TIP3    H226226   4.835   1.574   2.328  0.7651  0.8229 -1.4315
 1531TIP3   OH226227   4.772   3.135   2.497  0.0796  0.5751 -0.3396
 1531TIP3    H126228   4.849   3.192   2.496 -0.1010  0.9536  1.9224
 1531TIP3    H226229   4.808   3.046   2.495  0.5672  0.7502  0.2427
 1532TIP3   OH226230   6.095   1.178   1.170 -0.2014 -0.3565 -0.0053
 1532TIP3    H126231   6.049   1.250   1.213 -2.9118 -1.1399 -1.3090
 1532TIP3    H226232   6.076   1.101   1.224  3.3014 -0.1334  1.8077
 1533TIP3   OH226233   1.721   4.829   8.082 -0.1893 -0.1165 -0.3081
 1533TIP3    H126234   1.793   4.841   8.020 -1.4903 -1.8639 -2.3064
 1533TIP3    H226235   1.756   4.771   8.149  0.8850  0.8531  0.0198
 1534TIP3   OH226236   0.488   6.510   8.650  0.2503 -0.8285  0.2020
 1534TIP3    H126237   0.510   6.506   8.557  0.7151  0.2036  0.2491
 1534TIP3    H226238   0.512   6.599   8.676 -2.3166 -0.1946  0.7043
 1535TIP3   OH226239   1.324   0.040   7.963  0.3372 -0.3233 -0.0694
 1535TIP3    H126240   1.371   0.124   7.960 -0.2867  0.1145  1.2830
 1535TIP3    H226241   1.387  -0.022   7.998  1.0559 -0.6370 -1.8269
 1536TIP3   OH226242   5.702   1.292   1.222 -0.3409 -0.0650  0.4267
 1536TIP3    H126243   5.727   1.349   1.294  0.1910 -0.2441  0.3851
 1536TIP3    H226244   5.740   1.207   1.243  1.1910  0.2708 -0.8303
 1537TIP3   OH226245   1.330   4.907   7.322 -0.5732  0.1636 -0.4653
 1537TIP3    H126246   1.398   4.963   7.285 -0.9184  0.7011 -0.3092
 1537TIP3    H226247   1.328   4.830   7.266  0.6441 -0.1844 -0.0510
 1538TIP3   OH226248   4.967   3.265   8.421  0.3429  0.2458  0.5724
 1538TIP3    H126249   4.991   3.325   8.351  1.5575 -0.0845  0.6811
 1538TIP3    H226250   5.048   3.217   8.440 -0.5262 -1.2261  0.6806
 1539TIP3   OH226251   5.203   2.777   1.354 -0.0564  0.2944 -0.3744
 1539TIP3    H126252   5.182   2.857   1.306  0.5982  0.5126 -0.3090
 1539TIP3    H226253   5.185   2.707   1.292  2.0052  0.6290 -1.4240
 1540TIP3   OH226254   6.680   2.108   1.697  0.6533  0.7246  0.7177
 1540TIP3    H126255   6.737   2.083   1.625 -0.2765 -0.9504  0.5158
 1540TIP3    H226256   6.739   2.122   1.771  1.3272 -1.3747  0.6302
 1541TIP3   OH226257   0.176   2.856   2.413 -0.2114  0.1961  0.7313
 1541TIP3    H126258   0.111   2.809   2.361 -0.2443 -0.3539  1.2540
 1541TIP3    H226259   0.149   2.842   2.504  0.3752  0.3498  0.9364
 1542TIP3   OH226260   0.035   5.622   8.160 -0.5289  0.2286  0.0310
 1542TIP3    H126261  -0.017   5.585   8.232  0.0720  0.7660  0.7668
 1542TIP3    H226262  -0.029   5.671   8.108 -0.6700  1.6358  1.4223
 1543TIP3   OH226263   1.026   1.749   1.554 -0.4612 -0.6851  0.0626
 1543TIP3    H126264   0.934   1.721   1.557 -1.4650  2.3111  0.6532
 1543TIP3    H226265   1.032   1.804   1.477  0.7377 -0.4662  0.2925
 1544TIP3   OH226266   4.687   3.676   1.503 -0.2494  0.0133  0.3415
 1544TIP3    H126267   4.681   3.690   1.409 -1.0992  0.9572  0.5135
 1544TIP3    H226268   4.597   3.688   1.535 -0.0519 -0.7124  1.2209
 1545TIP3   OH226269   1.440   3.736   0.512 -0.1109 -0.0151  0.1542
 1545TIP3    H126270   1.400   3.790   0.580  0.3943 -0.2770  0.6613
 1545TIP3    H226271   1.372   3.675   0.487 -0.0856 -0.3611  0.9086
 1546TIP3   OH226272   2.205   6.037   0.902 -0.1017  0.1064 -0.1076
 1546TIP3    H126273   2.198   6.069   0.992 -0.8421  0.3085 -0.2290
 1546TIP3    H226274   2.153   5.957   0.901 -2.4465  1.5361 -1.0018
 1547TIP3   OH226275   3.447   6.684   1.192  0.1345  0.3064 -0.3432
 1547TIP3    H126276   3.397   6.717   1.118  0.1423 -0.9532 -0.9406
 1547TIP3    H226277   3.395   6.610   1.225  0.9527 -0.1989 -0.1548
 1548TIP3   OH226278   2.303   2.435   1.596 -0.4963  0.5428 -0.1457
 1548TIP3    H126279   2.389   2.459   1.562  0.1474 -0.7643  0.4975
 1548TIP3    H226280   2.299   2.475   1.683  0.2401 -0.9217  0.5871
 1549TIP3   OH226281   6.072   2.689   1.301 -0.4100 -0.0393 -0.0115
 1549TIP3    H126282   6.141   2.748   1.332  0.4803 -0.5072 -0.9962
 1549TIP3    H226283   6.058   2.716   1.210 -2.3466  0.7655  0.4797
 1550TIP3   OH226284   1.574   6.804   6.435  0.4760 -0.4151  0.1932
 1550TIP3    H126285   1.587   6.724   6.486 -1.9323 -1.8088 -1.2405
 1550TIP3    H226286   1.479   6.815   6.431  0.5395 -0.0392 -3.3943
 1551TIP3   OH226287   4.337   4.652   6.946 -0.2249 -0.4825 -0.3551
 1551TIP3    H126288   4.258   4.634   6.996 -0.9228  0.6658 -0.9968
 1551TIP3    H226289   4.324   4.605   6.863 -0.1823 -0.3735 -0.4235
 1552TIP3   OH226290   0.874   4.916   0.748 -0.0046 -0.2281  0.4023
 1552TIP3    H126291   0.949   4.859   0.769  1.7330  1.9554  0.5442
 1552TIP3    H226292   0.852   4.958   0.832  1.0057  1.7675 -0.2672
 1553TIP3   OH226293   1.464   3.737   7.822  0.1479  0.3584  0.0697
 1553TIP3    H126294   1.387   3.769   7.869  0.8886 -0.6356  2.0503
 1553TIP3    H226295   1.514   3.815   7.801 -0.7679  0.9083 -0.1159
 1554TIP3   OH226296   6.116   1.556   0.051 -0.0269 -0.3977 -0.1458
 1554TIP3    H126297   6.155   1.565   0.137 -0.5703  4.2877 -0.1298
 1554TIP3    H226298   6.189   1.540  -0.008  0.6431 -1.2028  0.8801
 1555TIP3   OH226299   2.850   6.423   8.663  0.1403  0.2151 -0.0050
 1555TIP3    H126300   2.879   6.389   8.747  0.2710 -0.8836 -0.4704
 1555TIP3    H226301   2.926   6.470   8.628  1.7914 -3.1675 -1.5059
 1556TIP3   OH226302   4.829   0.587   8.386  0.2323 -0.0989  0.6196
 1556TIP3    H126303   4.910   0.551   8.421  0.3495  0.4264  0.9037
 1556TIP3    H226304   4.776   0.606   8.463 -0.8553 -1.9728  0.4008
 1557TIP3   OH226305   5.321   5.488   8.778 -0.5835 -0.4677 -0.2431
 1557TIP3    H126306   5.395   5.541   8.808 -0.7682 -0.6826  0.6291
 1557TIP3    H226307   5.337   5.402   8.817 -1.1460 -0.5938 -0.2880
 1558TIP3   OH226308   3.057   6.438   1.992 -0.4929 -0.4528 -0.4000
 1558TIP3    H126309   3.014   6.431   2.077 -3.1060  0.4605 -1.5481
 1558TIP3    H226310   3.072   6.347   1.965  1.4553 -0.7623  1.4673
 1559TIP3   OH226311   3.901   4.224   2.336 -0.0559  0.6795 -0.2226
 1559TIP3    H126312   3.860   4.292   2.389 -0.2580  2.2192 -2.2066
 1559TIP3    H226313   3.970   4.188   2.391 -0.1891  2.2373  1.0331
 1560TIP3   OH226314   4.603   4.452   2.061  0.6166  0.0895  0.5107
 1560TIP3    H126315   4.583   4.369   2.018 -1.6521 -0.0952  1.7685
 1560TIP3    H226316   4.552   4.517   2.013  0.2051  0.2973  1.2133
 1561TIP3   OH226317   0.002   1.145   0.355 -0.1838  0.1746 -0.0478
 1561TIP3    H126318   0.047   1.117   0.275  1.2017 -0.9567  1.0691
 1561TIP3    H226319  -0.030   1.063   0.394  0.3036  0.5568  1.2051
 1562TIP3   OH226320   1.650   3.532   1.759 -0.1897  0.4343  0.2813
 1562TIP3    H126321   1.729   3.582   1.740  1.8154 -2.3178  0.8171
 1562TIP3    H226322   1.673   3.476   1.833 -1.9214 -1.9713 -0.8404
 1563TIP3   OH226323   5.174   6.759   2.883  0.4071  0.0500  0.0301
 1563TIP3    H126324   5.128   6.826   2.832  0.4918  0.4082  0.4206
 1563TIP3    H226325   5.248   6.805   2.922 -0.5265  0.1561  1.7422
 1564TIP3   OH226326   1.440   0.853   3.131  0.7434  1.0085 -0.3602
 1564TIP3    H126327   1.347   0.830   3.131  0.2020  2.9239 -1.8575
 1564TIP3    H226328   1.465   0.849   3.223 -0.8410  0.5756  0.0899
 1565TIP3   OH226329   5.894   0.659   2.074  0.0821 -0.4941 -0.2764
 1565TIP3    H126330   5.859   0.718   2.008  0.1876 -0.2343 -0.1023
 1565TIP3    H226331   5.821   0.642   2.133  0.2436  0.0486  0.0873
 1566TIP3   OH226332   3.063   4.906   2.491 -0.1581  0.1685 -0.0756
 1566TIP3    H126333   2.990   4.966   2.503 -1.5886 -1.3405 -0.7078
 1566TIP3    H226334   3.123   4.925   2.563 -0.7873  1.9720  0.0100
 1567TIP3   OH226335   3.970   1.359   2.048  0.0845  0.0791  0.4585
 1567TIP3    H126336   3.875   1.361   2.062 -0.1729  1.6952 -1.1100
 1567TIP3    H226337   3.991   1.266   2.039 -1.4853 -0.2699  0.0218
 1568TIP3   OH226338   1.204   6.345   8.845  0.7519  0.5522 -0.0742
 1568TIP3    H126339   1.141   6.307   8.784  0.5957 -1.1769  1.0916
 1568TIP3    H226340   1.151   6.380   8.916  1.0427 -0.0636  0.4554
 1569TIP3   OH226341   0.866   5.654   7.726 -0.3676  0.6497 -0.3137
 1569TIP3    H126342   0.898   5.661   7.816 -1.9889  3.7462  0.1392
 1569TIP3    H226343   0.946   5.658   7.672  0.5329 -0.1060  0.9100
 1570TIP3   OH226344   1.809   3.863   8.827 -0.2738 -0.0549  0.5544
 1570TIP3    H126345   1.874   3.861   8.898  0.3285 -0.9000 -0.0041
 1570TIP3    H226346   1.751   3.789   8.846 -0.7898  0.4028  0.7808
 1571TIP3   OH226347   5.553   1.773   2.279  0.0876 -0.3007 -0.1843
 1571TIP3    H126348   5.583   1.685   2.304  2.0838  0.9510  2.2636
 1571TIP3    H226349   5.594   1.831   2.342 -4.3973  2.1320  0.8873
 1572TIP3   OH226350   6.800   2.791   8.575  0.1817 -0.7247  0.1378
 1572TIP3    H126351   6.723   2.841   8.548  0.5393  0.1015  0.6053
 1572TIP3    H226352   6.778   2.700   8.554 -0.4854 -0.3775 -0.7173
 1573TIP3   OH226353   5.066   4.193   1.240 -0.3240  0.3332 -0.1928
 1573TIP3    H126354   5.151   4.151   1.247 -0.8106 -0.5791  0.5467
 1573TIP3    H226355   5.061   4.225   1.150  0.7721  0.3643 -0.2491
 1574TIP3   OH226356   0.760   5.561   0.720  0.3804  0.4799 -0.2599
 1574TIP3    H126357   0.774   5.655   0.736 -0.0882  0.2069  2.0263
 1574TIP3    H226358   0.688   5.537   0.779  0.3603 -1.2959 -0.9542
 1575TIP3   OH226359   5.796   6.607   0.356  0.0362  0.2052 -0.5324
 1575TIP3    H126360   5.879   6.570   0.385 -0.2757 -0.0110  0.1161
 1575TIP3    H226361   5.745   6.531   0.327  0.3080  0.4067 -1.5989
 1576TIP3   OH226362   6.425   3.777   1.129 -0.2150 -0.4460 -0.2751
 1576TIP3    H126363   6.344   3.812   1.166  0.5092  0.5902  0.3948
 1576TIP3    H226364   6.453   3.711   1.192 -0.8256 -1.2092 -0.7960
 1577TIP3   OH226365   2.212   6.432   0.866 -0.1109  0.3841  0.0873
 1577TIP3    H126366   2.286   6.387   0.907 -0.8234 -0.6314  0.3114
 1577TIP3    H226367   2.212   6.401   0.775 -1.8609 -1.8553  0.7427
 1578TIP3   OH226368   4.162   5.473   2.859 -0.0842 -0.4014 -0.8236
 1578TIP3    H126369   4.254   5.476   2.833  0.4643 -0.2429  0.9508
 1578TIP3    H226370   4.155   5.541   2.926 -1.5940 -0.1605 -1.2076
 1579TIP3   OH226371   4.740   2.797   7.349 -0.0658  0.8798  0.7840
 1579TIP3    H126372   4.733   2.883   7.390  1.3012  2.2549 -1.6096
 1579TIP3    H226373   4.733   2.815   7.255 -1.0753 -1.8226  0.2324
 1580TIP3   OH226374   5.244   1.161   8.412  0.6117 -0.4327 -0.5223
 1580TIP3    H126375   5.215   1.091   8.471  0.2847 -0.4518 -0.7060
 1580TIP3    H226376   5.286   1.115   8.339 -0.6622 -0.5068 -1.2370
 1581TIP3   OH226377   3.985   6.168   8.429  0.0893 -0.0710 -0.1937
 1581TIP3    H126378   3.926   6.189   8.356 -0.4670 -1.5922 -0.2327
 1581TIP3    H226379   4.066   6.214   8.408  0.3542 -1.3788 -2.4395
 1582TIP3   OH226380   5.152   4.096   2.470 -0.1926 -0.3609 -0.0779
 1582TIP3    H126381   5.217   4.026   2.486  2.3187  1.6251 -0.9339
 1582TIP3    H226382   5.148   4.144   2.552  0.1350  0.0644 -0.3079
 1583TIP3   OH226383   5.311   0.530   1.144  0.3863 -0.2065 -0.2723
 1583TIP3    H126384   5.316   0.581   1.225  0.1686  0.7166 -0.8240
 1583TIP3    H226385   5.402   0.511   1.121  0.4269 -1.0614  0.5337
 1584TIP3   OH226386   6.275   4.277   2.009  0.1134 -0.1538  0.0213
 1584TIP3    H126387   6.313   4.354   1.967  0.3775  0.7837  1.8809
 1584TIP3    H226388   6.328   4.204   1.977  0.2630  0.4906 -1.2808
 1585TIP3   OH226389   1.711   0.433   2.014 -0.4075  0.4972 -0.0219
 1585TIP3    H126390   1.761   0.506   2.051  2.7016 -0.2183 -2.3933
 1585TIP3    H226391   1.773   0.360   2.012 -2.3000 -1.1855 -1.0279
 1586TIP3   OH226392   5.766   6.785   2.091 -0.0772 -0.0480 -0.7129
 1586TIP3    H126393   5.799   6.699   2.064 -0.0829 -0.1939 -0.2529
 1586TIP3    H226394   5.838   6.845   2.071  0.7443 -0.4496  0.8665
 1587TIP3   OH226395   4.968   6.163   2.162 -0.2787  0.4287 -0.3722
 1587TIP3    H126396   4.946   6.071   2.147 -1.7328  0.9229 -1.5298
 1587TIP3    H226397   4.999   6.194   2.077 -0.0303  1.0789 -0.0521
 1588TIP3   OH226398   4.002   0.904   1.723 -0.2590 -0.2006 -0.4362
 1588TIP3    H126399   3.961   0.877   1.806  1.1927 -0.5161  0.2041
 1588TIP3    H226400   4.085   0.944   1.749 -0.7367  1.6452 -1.6294
 1589TIP3   OH226401   1.115   3.067   2.310 -0.1740  0.1028  0.4750
 1589TIP3    H126402   1.060   2.989   2.315  0.5551 -0.4368  0.1922
 1589TIP3    H226403   1.111   3.105   2.398 -0.3101 -0.4018  0.6894
 1590TIP3   OH226404   6.346   4.817   0.939  0.3575  0.1234  0.6039
 1590TIP3    H126405   6.308   4.729   0.948 -2.5217  0.8813 -2.0856
 1590TIP3    H226406   6.401   4.811   0.861 -0.3575  0.7986  0.0291
 1591TIP3   OH226407   0.774   1.628   1.891  0.3457  0.1952 -0.5682
 1591TIP3    H126408   0.817   1.696   1.943 -2.0818  2.1409 -0.9411
 1591TIP3    H226409   0.698   1.602   1.943 -0.3821 -0.0870 -1.7441
 1592TIP3   OH226410   1.304   5.508   8.663 -0.3309 -0.0289  0.4655
 1592TIP3    H126411   1.388   5.472   8.636  0.4257 -0.1865  2.8366
 1592TIP3    H226412   1.314   5.603   8.653  0.0147 -0.0682  0.4535
 1593TIP3   OH226413   4.902   4.891   8.381 -0.2623  0.1422 -0.3411
 1593TIP3    H126414   4.887   4.825   8.449 -1.8226  0.6328 -0.1865
 1593TIP3    H226415   4.892   4.843   8.299 -1.3573  0.1710 -0.2285
 1594TIP3   OH226416   4.688   0.855   1.437  0.2788  1.0112 -0.4280
 1594TIP3    H126417   4.595   0.874   1.444  0.4969  1.9749  0.1427
 1594TIP3    H226418   4.711   0.816   1.522  0.3248  0.4273 -0.7047
 1595TIP3   OH226419   0.670   5.476   7.275  0.6439 -0.2737  0.0751
 1595TIP3    H126420   0.576   5.463   7.288  0.7514 -1.0532  0.1653
 1595TIP3    H226421   0.677   5.544   7.209  0.0128 -0.2614  0.0217
 1596TIP3   OH226422   3.477   1.504   2.574 -0.0894 -0.4184  0.0511
 1596TIP3    H126423   3.504   1.590   2.543 -1.5193  0.7890  1.9536
 1596TIP3    H226424   3.401   1.481   2.521  0.3732 -0.5909 -0.5462
 1597TIP3   OH226425   4.793   4.813   1.235  0.5171  0.2052  0.6000
 1597TIP3    H126426   4.701   4.793   1.218  0.7180 -0.5944  0.3738
 1597TIP3    H226427   4.833   4.727   1.250  1.4243  0.4384 -0.3403
 1598TIP3   OH226428   0.598   1.659   8.245  0.3625 -0.7503 -0.9151
 1598TIP3    H126429   0.537   1.673   8.317  1.2625  0.5702 -0.3688
 1598TIP3    H226430   0.580   1.569   8.216 -0.5676 -1.0332  0.4125
 1599TIP3   OH226431   3.417   6.159   7.521 -0.3418  0.0505  0.5102
 1599TIP3    H126432   3.340   6.171   7.465 -0.7507  0.0631  1.0667
 1599TIP3    H226433   3.400   6.212   7.599  0.8680  1.1838  0.0417
 1600TIP3   OH226434   2.114   5.238   0.365 -0.2004 -0.0823 -0.0066
 1600TIP3    H126435   2.104   5.320   0.316  1.3927  0.3600  0.3394
 1600TIP3    H226436   2.086   5.170   0.304 -2.2392  0.7416 -0.0600
 1601TIP3   OH226437   2.097   3.477   0.734  1.1609  0.5402  0.2420
 1601TIP3    H126438   2.159   3.433   0.676 -0.6863 -2.1383  0.1224
 1601TIP3    H226439   2.041   3.406   0.767 -0.4849  2.5386  2.0160
 1602TIP3   OH226440   2.715   5.365   0.917 -0.1387 -0.2081 -0.0752
 1602TIP3    H126441   2.711   5.272   0.935 -0.9305  0.0583  1.2064
 1602TIP3    H226442   2.647   5.404   0.972  0.5452  1.1913 -0.1627
 1603TIP3   OH226443   5.344   2.977   2.668  0.2605 -0.1071 -0.7728
 1603TIP3    H126444   5.259   2.983   2.625  0.4715  1.0794 -1.0562
 1603TIP3    H226445   5.384   2.899   2.630  0.3204  0.7414 -2.5698
 1604TIP3   OH226446   1.290   0.076   2.178  0.1014  0.2441 -0.2062
 1604TIP3    H126447   1.358   0.022   2.219 -0.5283 -0.4539 -0.0693
 1604TIP3    H226448   1.337   0.155   2.148  0.6478  0.5994  1.4889
 1605TIP3   OH226449   4.737   4.438   2.856  0.3338 -0.4994 -0.0276
 1605TIP3    H126450   4.676   4.483   2.797  0.9883 -0.6353 -0.8362
 1605TIP3    H226451   4.714   4.345   2.846  1.5888 -0.6924 -1.4596
 1606TIP3   OH226452   3.837   0.548   2.921  0.2383 -0.4280 -1.0244
 1606TIP3    H126453   3.878   0.596   2.993  0.0458  0.2524 -1.3644
 1606TIP3    H226454   3.904   0.486   2.892  0.1166 -1.1339  0.1307
 1607TIP3   OH226455   6.152   2.584   8.831 -0.2338  0.5813 -0.4229
 1607TIP3    H126456   6.164   2.493   8.802  0.0812  1.1152 -2.0715
 1607TIP3    H226457   6.059   2.601   8.817 -0.5200  0.2396  0.8470
 1608TIP3   OH226458   2.413   0.028   0.778  0.0178  0.4339  0.2091
 1608TIP3    H126459   2.420   0.120   0.753  0.6965  0.4812  0.5452
 1608TIP3    H226460   2.319   0.014   0.793 -0.2469  0.7199 -1.1144
 1609TIP3   OH226461   6.054   3.722   0.430  0.3887  0.1441 -0.0685
 1609TIP3    H126462   6.007   3.744   0.349  0.4417 -0.8836 -0.3964
 1609TIP3    H226463   6.143   3.753   0.415  0.0420  1.3183  0.2091
 1610TIP3   OH226464   4.198   5.300   8.699  0.1402  0.0520 -0.1007
 1610TIP3    H126465   4.224   5.354   8.624  1.4449  0.9939  0.9743
 1610TIP3    H226466   4.263   5.230   8.702 -0.2723 -0.3346 -0.2147
 1611TIP3   OH226467   3.095   0.284   7.279  0.5665 -0.2129  0.0302
 1611TIP3    H126468   3.106   0.258   7.371  1.5153 -2.0247 -0.5438
 1611TIP3    H226469   3.027   0.225   7.246  0.6571  0.0202 -0.5789
 1612TIP3   OH226470   4.960   1.016   0.659  0.7576 -1.0763 -0.0960
 1612TIP3    H126471   4.947   1.083   0.592 -1.9625  0.5380  1.8793
 1612TIP3    H226472   4.999   1.063   0.733 -0.7504 -1.7187  1.1567
 1613TIP3   OH226473   4.852   6.495   8.822  0.0087 -0.5293  0.7813
 1613TIP3    H126474   4.895   6.576   8.848 -2.0016  0.1701  2.2686
 1613TIP3    H226475   4.917   6.448   8.770  1.3816  1.8383  0.2034
 1614TIP3   OH226476   2.584   4.190   0.283 -0.5057 -0.3082  0.2013
 1614TIP3    H126477   2.522   4.224   0.347  0.2893  0.2571  0.6838
 1614TIP3    H226478   2.621   4.112   0.324  1.4430  1.1214  1.3237
 1615TIP3   OH226479   6.065   4.119   2.114  0.0602  0.3725  0.0456
 1615TIP3    H126480   6.120   4.195   2.133  0.5067  0.1215 -0.2308
 1615TIP3    H226481   6.120   4.062   2.061  0.5974 -1.2650  2.2216
 1616TIP3   OH226482   1.014   6.645   7.519 -0.3796 -0.2573  0.4898
 1616TIP3    H126483   1.106   6.664   7.503 -0.5648 -0.5717 -1.0375
 1616TIP3    H226484   0.967   6.690   7.449 -1.3200 -0.8865  0.6908
 1617TIP3   OH226485   0.303   3.181   0.100 -0.1481  0.0088 -0.2552
 1617TIP3    H126486   0.214   3.196   0.067  0.5918  0.7481 -2.0057
 1617TIP3    H226487   0.331   3.100   0.058  0.3335  0.2668 -0.4351
 1618TIP3   OH226488   4.610   3.899   8.231 -0.4615 -0.1037 -0.0048
 1618TIP3    H126489   4.587   3.808   8.247 -0.6197 -0.3193 -1.3225
 1618TIP3    H226490   4.705   3.903   8.245 -0.4460 -0.4823 -0.0127
 1619TIP3   OH226491   6.748   0.408   8.811  0.6883 -0.3588 -0.3314
 1619TIP3    H126492   6.756   0.476   8.878 -0.3988 -1.2267  0.7251
 1619TIP3    H226493   6.666   0.429   8.765 -1.1411 -2.3623  1.7666
 1620TIP3   OH226494   5.550   4.819   1.381  0.4632  0.0573  0.4264
 1620TIP3    H126495   5.474   4.861   1.420  0.5812  1.2037 -0.5219
 1620TIP3    H226496   5.576   4.753   1.445 -0.8259  0.1989  1.1327
 1621TIP3   OH226497   4.667   2.420   0.361 -0.0368 -0.6939 -0.1321
 1621TIP3    H126498   4.641   2.371   0.283  0.5462 -0.8821 -0.2160
 1621TIP3    H226499   4.714   2.496   0.326 -0.4003 -0.3987  0.0170
 1622TIP3   OH226500   2.192   3.750   7.121 -0.4390  0.1645 -0.4186
 1622TIP3    H126501   2.128   3.711   7.180 -0.1337 -0.1631 -0.3090
 1622TIP3    H226502   2.149   3.831   7.090 -1.0903 -0.2801 -0.6994
 1623TIP3   OH226503   5.843   0.919   7.660 -0.2481  0.4990  0.3831
 1623TIP3    H126504   5.849   0.833   7.618  2.0950  0.9045 -0.2026
 1623TIP3    H226505   5.918   0.923   7.719 -1.4532  1.3982  1.9570
 1624TIP3   OH226506   3.917   5.755   2.133 -0.4244  0.3794 -0.0179
 1624TIP3    H126507   3.964   5.681   2.093 -1.9068 -0.9662  0.6191
 1624TIP3    H226508   3.972   5.780   2.208  0.5753  0.5758 -0.8039
 1625TIP3   OH226509   1.601   4.847   8.469  0.2874  0.8253 -0.2309
 1625TIP3    H126510   1.508   4.829   8.459  0.0109  1.8575  0.3555
 1625TIP3    H226511   1.622   4.909   8.399  1.0562 -1.0658 -1.7529
 1626TIP3   OH226512   5.245   0.260   1.206 -0.6285 -0.0111 -0.2612
 1626TIP3    H126513   5.277   0.349   1.216 -2.2511  0.5563  0.1553
 1626TIP3    H226514   5.298   0.208   1.267  2.0992  0.1349 -2.2933
 1627TIP3   OH226515   0.604   0.557   8.564 -0.4100 -0.0608  0.2186
 1627TIP3    H126516   0.603   0.482   8.623  1.0008  0.2938  0.7251
 1627TIP3    H226517   0.664   0.532   8.494 -1.1587 -0.0167 -0.4465
 1628TIP3   OH226518   5.963   1.264   7.126 -0.0957 -0.5988 -0.1608
 1628TIP3    H126519   5.875   1.234   7.150 -0.2430 -0.2424 -0.2426
 1628TIP3    H226520   5.984   1.216   7.046 -0.4288 -0.3114 -0.4240
 1629TIP3   OH226521   4.929   4.637   7.036  0.3129  0.0228 -0.4733
 1629TIP3    H126522   4.952   4.729   7.047  0.6647 -0.1153 -0.0377
 1629TIP3    H226523   4.870   4.636   6.960 -0.5207  0.7366  0.1541
 1630TIP3   OH226524   2.871   5.357   1.687  0.0279 -0.0208  0.1231
 1630TIP3    H126525   2.961   5.386   1.673  0.6529 -1.4252  0.9935
 1630TIP3    H226526   2.830   5.361   1.601  2.0887 -3.1426 -1.1692
 1631TIP3   OH226527   6.582   3.232   0.679  0.3376  0.6437 -0.2692
 1631TIP3    H126528   6.606   3.307   0.625 -0.1874  0.3308 -0.9503
 1631TIP3    H226529   6.518   3.184   0.627 -0.3672  0.4622  0.7362
 1632TIP3   OH226530   5.285   3.724   0.552 -0.0782  0.0869 -0.5143
 1632TIP3    H126531   5.205   3.721   0.605 -0.1879  0.4309 -0.6562
 1632TIP3    H226532   5.285   3.812   0.514  1.0564  0.5894  0.5617
 1633TIP3   OH226533   5.872   0.684   6.927 -0.2958  0.7406 -0.0631
 1633TIP3    H126534   5.803   0.733   6.882 -0.1489  0.4481 -0.6263
 1633TIP3    H226535   5.889   0.609   6.870 -0.6060 -0.0405  0.8550
 1634TIP3   OH226536   4.451   4.629   0.185 -0.4428  0.0272  0.0768
 1634TIP3    H126537   4.489   4.566   0.123  0.0988  1.8984 -1.6039
 1634TIP3    H226538   4.364   4.647   0.149 -1.0702 -0.6185  1.2233
 1635TIP3   OH226539   6.362   1.936   0.065 -0.2975  0.4537  0.0005
 1635TIP3    H126540   6.269   1.912   0.065  0.0597 -1.0710 -0.6038
 1635TIP3    H226541   6.403   1.873   0.123  0.2876  1.5225  0.7807
 1636TIP3   OH226542   4.749   4.644   6.836  0.1232 -0.8001 -0.1439
 1636TIP3    H126543   4.682   4.709   6.855 -0.5980 -2.0779  2.1305
 1636TIP3    H226544   4.764   4.651   6.742 -0.5141  2.0299 -0.1134
 1637TIP3   OH226545   0.925   0.847   1.201 -0.1869 -0.3350 -0.3802
 1637TIP3    H126546   0.987   0.774   1.196 -0.4672 -0.4963 -2.1631
 1637TIP3    H226547   0.882   0.836   1.286  0.9889 -1.2207  0.1356
 1638TIP3   OH226548   0.986   1.277   7.811  0.0103 -0.3150 -0.1941
 1638TIP3    H126549   1.002   1.241   7.898  0.5966  0.7511  0.1635
 1638TIP3    H226550   1.074   1.287   7.773  0.1133  2.5921  0.5338
 1639TIP3   OH226551   4.575   1.140   1.679 -0.2272  0.3942  0.2252
 1639TIP3    H126552   4.651   1.199   1.673 -0.9275  1.4368  1.1177
 1639TIP3    H226553   4.612   1.058   1.714  0.7538  0.2985 -0.9742
 1640TIP3   OH226554   5.353   5.610   2.603  0.3241  0.2959  0.1553
 1640TIP3    H126555   5.331   5.663   2.526  2.5726  1.4643  0.2442
 1640TIP3    H226556   5.440   5.574   2.584 -0.3793 -2.0034  0.8656
 1641TIP3   OH226557   5.544   4.331   2.583  0.0976  1.1212  0.6887
 1641TIP3    H126558   5.609   4.276   2.625  1.5204  2.6006  0.5118
 1641TIP3    H226559   5.470   4.331   2.644  0.5134 -0.0285  1.2250
 1642TIP3   OH226560   1.380   0.181   0.354 -0.1729 -0.3979 -0.7865
 1642TIP3    H126561   1.409   0.262   0.396  0.1235 -0.6755 -0.4583
 1642TIP3    H226562   1.344   0.128   0.425  1.7408 -1.5209 -0.5691
 1643TIP3   OH226563   6.471   6.432   1.474  0.3327  1.0793  0.6784
 1643TIP3    H126564   6.387   6.391   1.454  2.1163 -3.2093  0.8068
 1643TIP3    H226565   6.515   6.438   1.389  1.5486 -1.1938  1.0651
 1644TIP3   OH226566   2.113   0.684   1.393  0.5885  0.2401 -0.5235
 1644TIP3    H126567   2.054   0.672   1.467  1.6382 -0.1206  0.2846
 1644TIP3    H226568   2.201   0.677   1.431  1.2083  2.2440 -1.4196
 1645TIP3   OH226569   6.492   1.548   3.253  0.1389 -0.1703 -0.3752
 1645TIP3    H126570   6.506   1.459   3.221  3.1670  0.2002 -0.3415
 1645TIP3    H226571   6.514   1.605   3.180 -1.2062  0.6153 -0.2176
 1646TIP3   OH226572   4.774   0.728   1.971 -0.3401  0.5200  0.0257
 1646TIP3    H126573   4.844   0.689   2.024  0.5669 -0.1266 -1.5692
 1646TIP3    H226574   4.723   0.652   1.942 -0.7436  0.8554 -0.1340
 1647TIP3   OH226575   2.928   3.183   7.094  0.4687 -0.0400  0.5126
 1647TIP3    H126576   2.954   3.145   7.178  0.1281  0.5970  0.9055
 1647TIP3    H226577   2.852   3.131   7.067 -0.0356  0.3895  1.0821
 1648TIP3   OH226578   2.462   2.093   2.078  0.1338 -0.2301 -0.2258
 1648TIP3    H126579   2.547   2.067   2.111  0.5205  0.6087 -0.5382
 1648TIP3    H226580   2.470   2.187   2.059 -0.6760 -0.2559 -0.7957
 1649TIP3   OH226581   5.312   1.971   0.387 -0.3604  0.6615 -0.1464
 1649TIP3    H126582   5.237   2.023   0.359 -1.4924 -0.1858  1.1917
 1649TIP3    H226583   5.277   1.911   0.453  1.4670  0.1403  0.4185
 1650TIP3   OH226584   5.389   6.305   2.647  0.0306 -0.5566 -1.1448
 1650TIP3    H126585   5.463   6.359   2.619 -0.5252  0.0399 -1.5000
 1650TIP3    H226586   5.379   6.325   2.741  0.7289 -1.1428 -0.9414
 1651TIP3   OH226587   2.229   2.640   0.460 -0.1645 -0.0800 -0.5542
 1651TIP3    H126588   2.284   2.562   0.454 -0.5479 -0.3892 -0.0711
 1651TIP3    H226589   2.139   2.608   0.451 -0.3899  0.1718  0.5945
 1652TIP3   OH226590   2.571   2.241   1.157 -0.9597  0.0296 -0.2214
 1652TIP3    H126591   2.594   2.209   1.069 -1.1743  0.3474 -0.3947
 1652TIP3    H226592   2.480   2.267   1.150 -0.6887  1.0190 -0.1810
 1653TIP3   OH226593   6.162   0.219   8.771  0.5399 -0.2559  0.2298
 1653TIP3    H126594   6.230   0.238   8.836  1.2177 -1.3313 -0.1365
 1653TIP3    H226595   6.200   0.149   8.717 -0.8650 -0.8983  0.0319
 1654TIP3   OH226596   1.201   4.528   0.667  0.2226 -0.2129  0.5119
 1654TIP3    H126597   1.250   4.554   0.589 -0.7648  1.5342  0.4347
 1654TIP3    H226598   1.154   4.449   0.639 -1.3214  1.2191 -1.2331
 1655TIP3   OH226599   4.226   6.197   1.785  0.5641  0.3870 -0.0219
 1655TIP3    H126600   4.275   6.275   1.812 -0.7842  1.4081 -0.4691
 1655TIP3    H226601   4.294   6.135   1.758  1.6511  1.4213  0.2513
 1656TIP3   OH226602   6.063   6.452   7.659 -0.0949 -0.2289  0.4500
 1656TIP3    H126603   6.130   6.434   7.724  0.1416  0.5059  0.4094
 1656TIP3    H226604   6.039   6.365   7.625  0.8729 -0.4884  0.4138
 1657TIP3   OH226605   1.684   2.451   0.014  0.2930  0.2385 -0.3163
 1657TIP3    H126606   1.701   2.360   0.038  1.7832  0.7224  0.5995
 1657TIP3    H226607   1.590   2.461   0.024 -0.0564 -1.4633 -1.4336
 1658TIP3   OH226608   1.412   6.225   2.385 -0.0964  0.4589  0.0630
 1658TIP3    H126609   1.443   6.170   2.313  1.0261  0.4152  0.5653
 1658TIP3    H226610   1.430   6.174   2.463 -0.6470  0.8122  0.4269
 1659TIP3   OH226611   4.984   5.799   8.242  0.6577  0.3545  0.8135
 1659TIP3    H126612   4.947   5.764   8.161  0.3795 -0.3061  1.2174
 1659TIP3    H226613   4.909   5.841   8.286  0.1630 -1.5898  1.9639
 1660TIP3   OH226614   6.665   0.622   1.315 -0.1653 -0.1624  0.1852
 1660TIP3    H126615   6.704   0.573   1.243 -0.4825 -1.1031  0.6316
 1660TIP3    H226616   6.700   0.579   1.394 -1.4018 -0.4570  0.5855
 1661TIP3   OH226617   0.843   0.242   1.682 -0.7753 -0.3418 -0.5998
 1661TIP3    H126618   0.920   0.235   1.625 -1.1674 -1.9053 -0.9833
 1661TIP3    H226619   0.776   0.191   1.637 -1.3199 -1.0095  0.9273
 1662TIP3   OH226620   2.968   6.206   1.159  0.6933 -0.0791  0.0636
 1662TIP3    H126621   2.906   6.196   1.087  1.1195  1.1278 -0.5038
 1662TIP3    H226622   2.992   6.299   1.157 -1.5500  0.7529  3.6571
 1663TIP3   OH226623   4.690   0.269   0.552 -0.1410 -0.2558  0.3649
 1663TIP3    H126624   4.745   0.223   0.615 -0.4612 -0.9944  0.1156
 1663TIP3    H226625   4.607   0.221   0.553 -0.0941 -0.3784 -0.7438
 1664TIP3   OH226626   4.757   3.573   2.959  0.5153 -0.1786 -0.0663
 1664TIP3    H126627   4.760   3.478   2.972 -1.5102 -0.2703  0.0727
 1664TIP3    H226628   4.792   3.610   3.040 -1.6199 -0.8200  1.2300
 1665TIP3   OH226629   3.942   0.389   0.225 -0.0361 -0.0594 -0.1047
 1665TIP3    H126630   3.975   0.367   0.312 -0.5327 -1.1764 -0.1815
 1665TIP3    H226631   4.010   0.444   0.187  0.4255  0.0104  0.7907
 1666TIP3   OH226632   5.285   1.438   7.224 -0.5684  0.3818 -0.2892
 1666TIP3    H126633   5.337   1.430   7.144 -0.4212  3.2906 -0.5880
 1666TIP3    H226634   5.279   1.532   7.239 -2.4767 -0.0139  1.9197
 1667TIP3   OH226635   3.957   5.413   2.390  0.0801 -0.3052 -0.9274
 1667TIP3    H126636   4.043   5.373   2.382  1.0685  1.6191 -0.4819
 1667TIP3    H226637   3.933   5.401   2.482  2.1927  3.3431  0.3386
 1668TIP3   OH226638   2.409   4.945   8.167  0.2810  0.1878  0.0582
 1668TIP3    H126639   2.491   4.955   8.215  0.3364  0.2412 -0.0463
 1668TIP3    H226640   2.433   4.964   8.076  0.5922 -1.7672 -0.3059
 1669TIP3   OH226641   2.654   1.237   7.032  0.5459 -0.0228  0.3477
 1669TIP3    H126642   2.581   1.292   7.004  0.3924 -0.5479 -0.2892
 1669TIP3    H226643   2.732   1.281   6.999  0.4868  0.2430  0.5536
 1670TIP3   OH226644   4.568   4.615   8.291  0.0033 -0.7807  0.0001
 1670TIP3    H126645   4.621   4.536   8.298 -0.0509 -0.7763  0.4649
 1670TIP3    H226646   4.483   4.584   8.259  0.0565 -0.8781 -0.0469
 1671TIP3   OH226647   1.749   1.791   8.477 -0.1205 -0.1981 -0.2194
 1671TIP3    H126648   1.691   1.862   8.448 -0.1325 -0.2315 -0.2785
 1671TIP3    H226649   1.702   1.751   8.551 -0.8906 -1.1903 -1.2218
 1672TIP3   OH226650   1.367   3.623   1.691 -0.0868  0.9052  0.5743
 1672TIP3    H126651   1.367   3.639   1.597 -1.2015  1.2825  0.6156
 1672TIP3    H226652   1.457   3.639   1.719  0.3779  0.2627 -0.5048
 1673TIP3   OH226653   4.784   3.083   7.703 -0.0433  0.5505 -0.0174
 1673TIP3    H126654   4.827   2.997   7.708 -0.3564  0.4364  0.8888
 1673TIP3    H226655   4.828   3.136   7.768 -0.5274  0.7675  0.1390
 1674TIP3   OH226656   3.449   1.988   1.697 -0.0188  0.8289 -0.6056
 1674TIP3    H126657   3.379   1.967   1.635  0.2390  3.2094 -1.8241
 1674TIP3    H226658   3.414   1.961   1.782 -1.1023 -0.9145 -1.5549
 1675TIP3   OH226659   5.634   3.884   8.790 -0.7355 -0.0669 -0.4319
 1675TIP3    H126660   5.612   3.932   8.710 -1.0022 -1.8266 -1.4803
 1675TIP3    H226661   5.634   3.792   8.763 -0.0799 -0.6594  1.4387
 1676TIP3   OH226662   1.451   3.858   0.798 -0.0298  0.1709 -0.3021
 1676TIP3    H126663   1.525   3.904   0.758  0.1638  0.8073  0.7498
 1676TIP3    H226664   1.438   3.903   0.882 -0.0160 -1.5031  0.6324
 1677TIP3   OH226665   6.483   0.906   2.449  0.2991 -0.3954  0.5312
 1677TIP3    H126666   6.511   0.831   2.397  0.5491 -1.2405  1.8466
 1677TIP3    H226667   6.485   0.875   2.540 -3.3460 -0.0156  0.8956
 1678TIP3   OH226668   4.665   5.522   1.256  0.7862  0.6237 -0.3061
 1678TIP3    H126669   4.739   5.463   1.238  0.6732 -0.0903  1.3851
 1678TIP3    H226670   4.589   5.476   1.220  0.9714  0.7263 -0.8410
 1679TIP3   OH226671   0.339   0.724   0.337  0.0385 -0.4253 -0.3142
 1679TIP3    H126672   0.408   0.789   0.350 -1.1134  1.2824 -2.1469
 1679TIP3    H226673   0.336   0.709   0.242 -0.2410 -2.6395 -0.0280
 1680TIP3   OH226674   3.352   4.888   1.659  0.2372 -0.3653 -0.0998
 1680TIP3    H126675   3.304   4.934   1.591  0.2730 -1.7215 -1.0923
 1680TIP3    H226676   3.285   4.861   1.722  0.1107  0.2817  0.0499
 1681TIP3   OH226677   1.051   4.474   1.704  0.1927 -0.3285  0.2820
 1681TIP3    H126678   1.063   4.403   1.641  1.1765  1.5810 -1.8411
 1681TIP3    H226679   1.081   4.552   1.658 -1.4923  1.6183  2.2473
 1682TIP3   OH226680   6.008   5.694   0.502  0.0361  0.0822 -0.8568
 1682TIP3    H126681   5.963   5.775   0.477 -0.8692 -0.7259 -1.9671
 1682TIP3    H226682   5.961   5.664   0.580 -0.9928 -0.4316 -1.6496
 1683TIP3   OH226683   5.795   4.168   0.336  0.4436 -0.2523  0.0376
 1683TIP3    H126684   5.779   4.137   0.247 -0.2890  2.0199 -0.7020
 1683TIP3    H226685   5.722   4.132   0.387 -1.5805  1.8149 -1.2214
 1684TIP3   OH226686   3.987   6.470   6.940  0.0381  0.0365  0.6905
 1684TIP3    H126687   4.066   6.511   6.976  0.4423  0.2436 -0.3766
 1684TIP3    H226688   4.012   6.446   6.851 -0.8544 -0.6564  0.6190
 1685TIP3   OH226689   6.249   2.497   8.052  0.0332 -0.2390 -0.7166
 1685TIP3    H126690   6.181   2.439   8.018 -1.0989  1.8178 -2.1925
 1685TIP3    H226691   6.317   2.496   7.984 -0.0956  0.3262 -0.8550
 1686TIP3   OH226692   6.385   5.714   2.199 -0.0816  0.2585 -0.3946
 1686TIP3    H126693   6.387   5.670   2.284  0.0020  0.9124 -0.0551
 1686TIP3    H226694   6.325   5.661   2.146  1.8266 -1.6574 -0.7735
 1687TIP3   OH226695   6.198   2.490   6.955  0.2507 -0.1484  0.0982
 1687TIP3    H126696   6.269   2.440   6.916 -0.6938 -1.5389  0.0905
 1687TIP3    H226697   6.157   2.535   6.880 -0.4534 -1.3871 -0.2755
 1688TIP3   OH226698   0.324   2.591   0.699 -0.4954 -0.8376  0.1834
 1688TIP3    H126699   0.417   2.569   0.693  0.0292  0.5422  2.1862
 1688TIP3    H226700   0.288   2.526   0.760 -0.3485 -0.0940  1.0811
 1689TIP3   OH226701   5.550   3.730   7.431  0.1616  0.3360 -0.0940
 1689TIP3    H126702   5.515   3.769   7.351 -3.2421  0.9644  1.5035
 1689TIP3    H226703   5.556   3.637   7.411 -0.6994  0.4644 -1.0982
 1690TIP3   OH226704   4.009   4.328   0.325  0.1176  0.3046  0.4140
 1690TIP3    H126705   4.004   4.406   0.380 -1.2313 -0.0544  0.8518
 1690TIP3    H226706   4.097   4.330   0.288 -0.1290  2.4527 -0.2148
 1691TIP3   OH226707   2.393   2.730   1.702 -0.1676  0.3273  0.0319
 1691TIP3    H126708   2.434   2.683   1.774  0.2473 -1.3882 -1.2574
 1691TIP3    H226709   2.358   2.810   1.742  0.5735 -0.2697  1.9864
 1692TIP3   OH226710   4.659   3.737   7.092 -0.4254 -0.0507 -0.2871
 1692TIP3    H126711   4.723   3.794   7.050 -1.0381 -0.0526 -1.2390
 1692TIP3    H226712   4.612   3.695   7.020 -0.6522 -1.0157  0.3964
 1693TIP3   OH226713   0.042   5.377   2.380  0.3312  0.4416 -0.3643
 1693TIP3    H126714   0.054   5.470   2.401  0.0193  0.2231  0.8712
 1693TIP3    H226715  -0.036   5.352   2.430  0.4966 -0.5233 -0.5811
 1694TIP3   OH226716   5.035   0.760   0.601  0.4021 -0.6245  0.6159
 1694TIP3    H126717   5.062   0.743   0.511 -0.2121 -1.4529  0.5771
 1694TIP3    H226718   5.026   0.855   0.606 -0.6361 -0.6452 -0.5191
 1695TIP3   OH226719   1.249   5.158   8.511 -0.2664  0.2280 -0.1712
 1695TIP3    H126720   1.174   5.192   8.463 -1.0617 -0.0752  0.8437
 1695TIP3    H226721   1.321   5.160   8.447 -0.8356  1.6216 -0.7996
 1696TIP3   OH226722   1.419   1.831   0.183  0.1374  0.3409 -0.0694
 1696TIP3    H126723   1.360   1.906   0.187 -0.9193 -0.5287  1.2702
 1696TIP3    H226724   1.391   1.782   0.106  0.5784  1.0802 -0.7193
 1697TIP3   OH226725   3.898   1.442   0.317 -0.2452  0.2589 -0.2695
 1697TIP3    H126726   3.977   1.399   0.348  0.3442  1.7464  0.3388
 1697TIP3    H226727   3.826   1.387   0.350  0.4514  0.2876  1.3731
 1698TIP3   OH226728   3.731   1.295   1.820 -0.6213 -0.1500  0.3857
 1698TIP3    H126729   3.807   1.283   1.764 -1.5820 -0.7252 -0.8427
 1698TIP3    H226730   3.706   1.206   1.845 -2.1971 -0.1450 -1.0505
 1699TIP3   OH226731   1.554   2.818   1.912 -0.3803  0.2368  0.5349
 1699TIP3    H126732   1.525   2.906   1.938  2.7258  1.6007 -0.1586
 1699TIP3    H226733   1.590   2.780   1.992 -0.8253 -0.0352  0.6114
 1700TIP3   OH226734   4.151   6.727   2.817 -0.3883  0.1203  0.3451
 1700TIP3    H126735   4.197   6.781   2.752  0.4516 -0.6068  0.3182
 1700TIP3    H226736   4.073   6.778   2.840 -1.6207 -0.3311 -2.4471
 1701TIP3   OH226737   3.830   4.932   7.727  0.5912 -0.2354  0.4643
 1701TIP3    H126738   3.813   5.009   7.782  2.9396  0.4290  0.3969
 1701TIP3    H226739   3.762   4.934   7.661  0.4095  1.6535  0.6493
 1702TIP3   OH226740   2.756   6.150   0.932  0.5996  0.0061 -0.0677
 1702TIP3    H126741   2.677   6.106   0.965 -0.6290  0.5084 -2.1394
 1702TIP3    H226742   2.817   6.078   0.913 -0.5528 -0.6963 -1.3176
 1703TIP3   OH226743   1.554   2.391   1.758  0.1489  0.7993 -0.3531
 1703TIP3    H126744   1.575   2.308   1.717 -3.1525 -0.2851 -0.1474
 1703TIP3    H226745   1.560   2.455   1.687 -0.3832 -0.1746 -1.3163
 1704TIP3   OH226746   0.466   0.784   8.659  0.6455 -0.1080 -0.2431
 1704TIP3    H126747   0.463   0.846   8.585 -0.1342 -0.8523 -0.8498
 1704TIP3    H226748   0.513   0.709   8.625  0.5129 -0.3464  0.1007
 1705TIP3   OH226749   1.123   0.715   0.631  0.6960 -0.4127 -0.1733
 1705TIP3    H126750   1.194   0.752   0.579 -0.5484  0.0026 -1.6491
 1705TIP3    H226751   1.078   0.656   0.571 -1.6131  1.1199 -0.0713
 1706TIP3   OH226752   0.801   1.659   1.185 -0.1310  0.0325 -0.0238
 1706TIP3    H126753   0.820   1.659   1.279 -0.8665 -0.6231  0.1250
 1706TIP3    H226754   0.882   1.692   1.145  0.3904 -0.2233  0.7937
 1707TIP3   OH226755   3.202   4.768   7.184 -0.0919 -0.1261 -0.3832
 1707TIP3    H126756   3.156   4.848   7.159  0.6835  0.2495 -0.6419
 1707TIP3    H226757   3.292   4.782   7.153 -0.2359 -1.6386 -1.6160
 1708TIP3   OH226758   5.386   5.059   8.752  0.2283 -0.1497  0.6707
 1708TIP3    H126759   5.299   5.023   8.766  0.5380 -1.4503 -0.5060
 1708TIP3    H226760   5.386   5.143   8.799 -2.1264  0.5871 -0.5187
 1709TIP3   OH226761   5.695   0.206   7.263 -0.4773  0.2567  0.2961
 1709TIP3    H126762   5.629   0.227   7.329 -1.6706  0.2262 -0.8402
 1709TIP3    H226763   5.772   0.255   7.291 -0.5386 -0.7108  2.3630
 1710TIP3   OH226764   0.175   4.219   0.747 -0.0414  0.2979 -0.0936
 1710TIP3    H126765   0.203   4.289   0.806 -0.7466  0.9389 -0.5079
 1710TIP3    H226766   0.156   4.264   0.665 -1.0554 -0.3032 -0.1961
 1711TIP3   OH226767   0.654   6.045   0.829  0.1154  0.4245  0.2019
 1711TIP3    H126768   0.646   6.094   0.910  0.9057 -1.0171  1.1880
 1711TIP3    H226769   0.725   6.089   0.781  0.5629  0.4794  0.9041
 1712TIP3   OH226770   5.369   5.367   2.100  0.1388 -0.0108 -0.0773
 1712TIP3    H126771   5.422   5.297   2.060 -0.4752 -0.7227  0.3422
 1712TIP3    H226772   5.364   5.343   2.192  1.0323  1.3045  0.3458
 1713TIP3   OH226773   2.929   4.127   7.460 -0.0154  0.0943 -0.2423
 1713TIP3    H126774   2.908   4.051   7.406 -0.8244  0.2503 -0.1489
 1713TIP3    H226775   2.854   4.137   7.518  0.1757  0.8525 -0.1183
 1714TIP3   OH226776   3.774   5.615   2.320  1.0441 -0.0216  0.7751
 1714TIP3    H126777   3.800   5.678   2.253 -1.0934 -0.8901 -0.9859
 1714TIP3    H226778   3.848   5.554   2.326  0.3124 -1.5122 -2.8971
 1715TIP3   OH226779   1.339   3.817   2.340  0.1696 -0.0090  0.5257
 1715TIP3    H126780   1.252   3.789   2.367  0.8395 -1.3608  1.3822
 1715TIP3    H226781   1.381   3.848   2.420  1.9145 -3.3625  1.0826
 1716TIP3   OH226782   3.704   6.278   7.281 -0.3170  0.5943 -0.8846
 1716TIP3    H126783   3.651   6.333   7.338 -0.8482 -0.8067  0.0441
 1716TIP3    H226784   3.699   6.191   7.321  1.0348  0.0071 -1.9107
 1717TIP3   OH226785   6.272   4.993   6.930 -0.5787 -0.8223 -0.6474
 1717TIP3    H126786   6.182   4.999   6.899 -1.8187 -0.3849  2.6271
 1717TIP3    H226787   6.295   5.083   6.954  0.9570 -0.8447 -1.8766
 1718TIP3   OH226788   4.961   3.250   3.371 -0.2615  0.0313  0.4022
 1718TIP3    H126789   5.019   3.273   3.444 -0.9845 -0.5740  1.1884
 1718TIP3    H226790   4.923   3.333   3.343 -1.1974  0.1116  1.7911
 1719TIP3   OH226791   4.029   5.947   7.765 -0.1395 -0.2199 -0.0409
 1719TIP3    H126792   4.003   5.916   7.852  2.0965  2.2995  1.6696
 1719TIP3    H226793   4.015   6.041   7.768 -2.1492 -0.2521 -3.3199
 1720TIP3   OH226794   0.136   3.154   1.071 -0.7051  0.2592 -0.4927
 1720TIP3    H126795   0.159   3.229   1.016  0.6453 -0.4948 -1.0118
 1720TIP3    H226796   0.208   3.146   1.133 -0.9132 -0.4979 -0.3321
 1721TIP3   OH226797   5.543   0.321   7.011 -0.1525 -0.0471  0.1234
 1721TIP3    H126798   5.527   0.408   7.045  1.5348  0.8279 -1.1268
 1721TIP3    H226799   5.550   0.265   7.088 -1.3599  0.8946  0.9315
 1722TIP3   OH226800   1.458   3.318   8.327  0.6202 -0.0367 -0.4643
 1722TIP3    H126801   1.458   3.386   8.394  0.3148 -0.1458 -0.3527
 1722TIP3    H226802   1.509   3.355   8.254  0.6170  0.2325 -0.3273
 1723TIP3   OH226803   5.274   5.786   1.843  0.3711  0.0315  0.0567
 1723TIP3    H126804   5.370   5.792   1.834  0.6548 -0.4481  2.1855
 1723TIP3    H226805   5.258   5.694   1.864 -0.4726  0.2847  0.5644
 1724TIP3   OH226806   6.791   2.567   1.260  0.2057 -0.5961 -0.8146
 1724TIP3    H126807   6.838   2.498   1.307  1.2335  0.8070  0.2682
 1724TIP3    H226808   6.854   2.638   1.251 -1.0437  0.4948 -1.2910
 1725TIP3   OH226809   6.349   3.055   1.095 -0.1221 -0.0307 -0.0704
 1725TIP3    H126810   6.343   3.000   1.017  1.3792 -1.5332  0.7901
 1725TIP3    H226811   6.378   3.140   1.063  0.1558 -0.5324 -1.2027
 1726TIP3   OH226812   2.471   1.044   2.200 -0.7303 -0.1146  0.4894
 1726TIP3    H126813   2.519   1.003   2.128 -1.2596 -1.4376  0.8515
 1726TIP3    H226814   2.527   1.117   2.229  0.3849 -0.7521 -0.0067
 1727TIP3   OH226815   1.689   5.698   1.569  0.0734  0.3619  0.0709
 1727TIP3    H126816   1.754   5.705   1.638 -0.0085 -1.9234  0.4316
 1727TIP3    H226817   1.612   5.660   1.611  0.0084 -1.0336 -1.2410
 1728TIP3   OH226818   1.802   0.611   8.542 -0.0523  0.0772 -0.1095
 1728TIP3    H126819   1.817   0.702   8.567 -1.8687  0.3609  0.1029
 1728TIP3    H226820   1.779   0.615   8.449 -1.4726  0.0497  0.2030
 1729TIP3   OH226821   0.096   6.024   7.533 -0.4773  0.4905 -0.2000
 1729TIP3    H126822   0.056   5.954   7.584 -0.2988  0.7512  0.3031
 1729TIP3    H226823   0.108   6.096   7.595  1.2306  0.2525 -0.2041
 1730TIP3   OH226824   6.756   3.040   1.227 -0.7681  0.0150 -0.5187
 1730TIP3    H126825   6.779   2.951   1.202  0.9365  0.5996 -1.1932
 1730TIP3    H226826   6.807   3.096   1.167 -3.6987  1.4755 -1.8423
 1731TIP3   OH226827   5.335   4.473   0.083 -0.2997 -0.4157  0.4371
 1731TIP3    H126828   5.374   4.410   0.143 -0.4933 -1.0294 -0.0664
 1731TIP3    H226829   5.244   4.446   0.075 -0.1715 -0.6262 -0.4751
 1732TIP3   OH226830   6.036   2.479   7.184 -0.2436 -0.1879 -0.0852
 1732TIP3    H126831   6.101   2.481   7.114 -1.7931  1.5028 -1.5889
 1732TIP3    H226832   5.961   2.433   7.147 -0.5416 -0.6483  1.0310
 1733TIP3   OH226833   0.262   6.791   7.734  0.4338 -0.3021  0.0293
 1733TIP3    H126834   0.308   6.796   7.818 -0.6657 -1.0319  0.7025
 1733TIP3    H226835   0.256   6.697   7.716  0.6819 -0.1550 -0.8957
 1734TIP3   OH226836   4.424   0.897   2.130 -0.2616  0.7183  0.0809
 1734TIP3    H126837   4.340   0.868   2.165 -0.2786  2.2457  1.4364
 1734TIP3    H226838   4.490   0.846   2.178 -0.3553 -2.3622 -2.7656
 1735TIP3   OH226839   4.708   1.719   0.111 -0.4077  0.0936 -0.1217
 1735TIP3    H126840   4.640   1.778   0.080 -0.2836 -0.3548 -1.3170
 1735TIP3    H226841   4.762   1.702   0.033  0.7041 -0.0464  0.6511
 1736TIP3   OH226842   4.102   5.046   7.055 -0.4929 -0.1476 -0.4331
 1736TIP3    H126843   4.142   5.102   6.989 -2.2868 -0.6250 -2.0151
 1736TIP3    H226844   4.074   4.968   7.007 -4.4743  0.7055  0.1307
 1737TIP3   OH226845   3.327   2.730   1.745  0.0404 -0.0401 -0.7408
 1737TIP3    H126846   3.256   2.756   1.686 -0.2409 -0.2490 -0.4979
 1737TIP3    H226847   3.282   2.700   1.824  0.3879 -0.4987 -0.7152
 1738TIP3   OH226848   5.367   6.186   0.313 -0.3834  0.8808 -0.0986
 1738TIP3    H126849   5.389   6.217   0.401 -2.4952  4.9137 -0.7403
 1738TIP3    H226850   5.276   6.156   0.320 -0.2311  0.2342 -0.7200
 1739TIP3   OH226851   5.128   2.380   8.210  0.6751  0.0174  0.5432
 1739TIP3    H126852   5.101   2.290   8.229  2.6634 -0.5969  0.6980
 1739TIP3    H226853   5.104   2.430   8.288  1.3944 -0.8039  1.3004
 1740TIP3   OH226854   3.041   4.376   8.837 -0.3015 -0.1100 -0.1160
 1740TIP3    H126855   2.952   4.344   8.850 -1.6083  3.1808  0.1898
 1740TIP3    H226856   3.049   4.385   8.742  0.0811 -1.2658 -0.2048
 1741TIP3   OH226857   3.715   4.885   1.844  0.2505 -0.8497 -0.2743
 1741TIP3    H126858   3.789   4.825   1.854  1.3973  0.6500  0.6398
 1741TIP3    H226859   3.749   4.956   1.790 -0.3109  0.1641  0.6591
 1742TIP3   OH226860   0.752   6.560   7.285 -0.2197  0.2246  0.2654
 1742TIP3    H126861   0.660   6.585   7.283  0.2455  2.1336  0.7822
 1742TIP3    H226862   0.790   6.599   7.207  0.5209  1.1519  1.0567
 1743TIP3   OH226863   5.268   2.908   8.545 -0.3440  0.3985 -0.1079
 1743TIP3    H126864   5.285   2.935   8.635  0.3273  0.9154 -0.3804
 1743TIP3    H226865   5.309   2.821   8.538  1.7569  1.3643 -0.5776
 1744TIP3   OH226866   1.086   5.999   7.391 -0.1343  1.0936 -0.1911
 1744TIP3    H126867   1.084   6.056   7.314 -0.6792  1.8828  0.3844
 1744TIP3    H226868   1.096   5.910   7.356  0.2340  1.4943 -1.1296
 1745TIP3   OH226869   6.800   3.160   8.167  0.3302 -0.1160 -0.3608
 1745TIP3    H126870   6.773   3.069   8.155 -1.1301  0.3981 -1.1372
 1745TIP3    H226871   6.874   3.171   8.108 -0.1095 -0.5435 -1.0077
 1746TIP3   OH226872   0.479   4.096   8.470 -0.3340  0.3585  0.5882
 1746TIP3    H126873   0.396   4.143   8.475 -0.0931  0.7110  1.4612
 1746TIP3    H226874   0.463   4.024   8.408 -1.3472  0.3042  0.9032
 1747TIP3   OH226875   3.166   5.431   7.431  0.5232 -0.3105 -0.3388
 1747TIP3    H126876   3.146   5.509   7.482  2.9350  0.3447 -0.2666
 1747TIP3    H226877   3.218   5.376   7.490  3.0394  0.2876 -1.8223
 1748TIP3   OH226878   4.617   5.338   1.933  0.1548 -0.5958 -0.4443
 1748TIP3    H126879   4.680   5.348   1.861 -0.6038 -0.5224 -1.1047
 1748TIP3    H226880   4.545   5.396   1.910 -0.8725 -1.8617 -0.4884
 1749TIP3   OH226881   6.140   5.347   0.762  0.1185 -0.0177 -0.0525
 1749TIP3    H126882   6.209   5.315   0.704  0.4725  1.3096 -0.3961
 1749TIP3    H226883   6.187   5.384   0.837 -0.2955 -0.6301  0.5187
 1750TIP3   OH226884   2.708   1.318   1.306 -0.1334  0.1610 -0.2037
 1750TIP3    H126885   2.766   1.361   1.244 -0.5937 -1.3280 -1.7307
 1750TIP3    H226886   2.712   1.226   1.283 -1.7104 -0.2133  0.8404
 1751TIP3   OH226887   0.454   6.187   1.877 -0.5990  0.6550 -0.1827
 1751TIP3    H126888   0.524   6.149   1.930 -0.7111  1.7492  0.8034
 1751TIP3    H226889   0.499   6.226   1.802 -0.4329 -0.8737 -0.9047
 1752TIP3   OH226890   1.229   4.131   2.625  0.1846  0.6490 -0.7400
 1752TIP3    H126891   1.196   4.045   2.651 -0.5381  0.5605 -1.8767
 1752TIP3    H226892   1.199   4.190   2.695 -0.5927  0.2159 -0.6951
 1753TIP3   OH226893   3.447   4.165   0.230  0.4804  0.4231 -0.3644
 1753TIP3    H126894   3.427   4.253   0.262 -0.3604  0.1363 -0.0849
 1753TIP3    H226895   3.423   4.167   0.137  0.4764  0.4884 -0.3620
 1754TIP3   OH226896   5.359   1.898   8.712 -0.0174 -0.2103  0.0256
 1754TIP3    H126897   5.280   1.943   8.741 -0.5958 -0.9856 -0.2953
 1754TIP3    H226898   5.428   1.929   8.771 -0.3666  1.1423 -0.2434
 1755TIP3   OH226899   0.687   6.407   0.053 -0.8245 -0.5620  0.3124
 1755TIP3    H126900   0.687   6.391   0.147  0.5289  1.6092  0.7361
 1755TIP3    H226901   0.651   6.495   0.043  2.3012  0.7304 -0.8076
 1756TIP3   OH226902   6.247   2.943   0.846  0.3080 -0.2476 -0.0263
 1756TIP3    H126903   6.159   2.974   0.824  1.1140  0.7903 -2.0736
 1756TIP3    H226904   6.252   2.856   0.806  0.2213 -0.3228  0.1224
 1757TIP3   OH226905   4.172   5.776   0.090 -0.1757  0.6579 -0.3033
 1757TIP3    H126906   4.221   5.700   0.119 -1.6900  0.0452  0.8101
 1757TIP3    H226907   4.228   5.851   0.111  1.0483 -0.0925 -0.8065
 1758TIP3   OH226908   4.520   4.310   3.053 -0.4749  0.4514  0.3934
 1758TIP3    H126909   4.523   4.405   3.037 -1.9382  0.2771 -1.2052
 1758TIP3    H226910   4.567   4.272   2.978  0.6683 -0.0875  1.3592
 1759TIP3   OH226911   6.249   5.583   7.643  0.0469 -0.0854 -0.1385
 1759TIP3    H126912   6.254   5.679   7.644  2.6872 -0.0467 -2.9445
 1759TIP3    H226913   6.172   5.564   7.589  1.5896  0.6142 -2.7203
 1760TIP3   OH226914   1.650   6.125   7.452 -0.3509 -0.1586 -0.3626
 1760TIP3    H126915   1.668   6.064   7.523  0.7565 -0.2269 -0.6870
 1760TIP3    H226916   1.554   6.133   7.451 -0.3577  1.2053  2.2877
 1761TIP3   OH226917   5.164   5.278   1.913 -0.1461 -0.3801  0.2543
 1761TIP3    H126918   5.246   5.312   1.947 -0.5001 -1.1836  2.0203
 1761TIP3    H226919   5.100   5.296   1.982 -1.4405  0.0679 -1.0072
 1762TIP3   OH226920   0.974   2.719   0.057 -0.0181 -0.3358  0.2239
 1762TIP3    H126921   1.025   2.678   0.127  0.0722 -0.0347  0.3353
 1762TIP3    H226922   0.891   2.673   0.058 -0.1185 -0.1505  0.7145
 1763TIP3   OH226923   4.238   6.775   3.073  0.6900 -0.4631  0.0456
 1763TIP3    H126924   4.183   6.711   3.119  1.1659 -0.6190  0.4019
 1763TIP3    H226925   4.206   6.772   2.982  1.2796 -1.8657 -0.1496
 1764TIP3   OH226926   4.162   3.344   7.650 -0.4834  0.8686  0.0169
 1764TIP3    H126927   4.086   3.285   7.648 -2.1882  2.9547 -1.4555
 1764TIP3    H226928   4.140   3.409   7.717 -1.0957  2.7045 -1.8466
 1765TIP3   OH226929   0.755   4.221   8.355 -0.1536  0.2705  0.8389
 1765TIP3    H126930   0.845   4.226   8.321 -0.2663 -1.3855  0.2151
 1765TIP3    H226931   0.703   4.192   8.281 -0.6955 -1.7057  1.9067
 1766TIP3   OH226932   4.680   5.289   0.713 -0.1496  0.1074 -0.1163
 1766TIP3    H126933   4.766   5.303   0.752  0.3375 -0.8210 -0.8054
 1766TIP3    H226934   4.676   5.352   0.640 -0.1723  0.3338  0.0779
 1767TIP3   OH226935   3.223   1.435   8.352 -0.0832 -0.3070  0.1467
 1767TIP3    H126936   3.315   1.458   8.364 -0.3792  0.8399  0.2654
 1767TIP3    H226937   3.210   1.438   8.257 -0.3037  0.7980  0.1997
 1768TIP3   OH226938   2.417   3.598   1.380 -0.0293 -0.0278  0.3595
 1768TIP3    H126939   2.365   3.595   1.461  0.8357  0.6703  0.9645
 1768TIP3    H226940   2.427   3.507   1.355 -3.8998 -0.1641 -1.3702
 1769TIP3   OH226941   6.804   4.261   1.186  0.1236  0.0123 -0.1433
 1769TIP3    H126942   6.791   4.168   1.202 -0.4846 -0.3225 -2.2947
 1769TIP3    H226943   6.716   4.297   1.175  0.3656  0.8033  0.3975
 1770TIP3   OH226944   1.417   3.637   1.124  0.2846  0.3948  0.1330
 1770TIP3    H126945   1.397   3.725   1.093 -0.6803  0.5726  1.2161
 1770TIP3    H226946   1.417   3.583   1.045 -1.3901  0.9572 -0.2921
 1771TIP3   OH226947   0.201   3.369   8.145  0.3597 -0.0702 -0.3847
 1771TIP3    H126948   0.243   3.453   8.125 -0.6854  1.1028  1.9500
 1771TIP3    H226949   0.114   3.376   8.106  0.3061 -0.0924 -0.2697
 1772TIP3   OH226950   2.850   1.713   1.265  0.3640  0.2187  0.1147
 1772TIP3    H126951   2.869   1.629   1.223 -1.1228 -0.3509  0.5346
 1772TIP3    H226952   2.804   1.763   1.198 -2.9088 -1.0576  1.2498
 1773TIP3   OH226953   2.742   3.267   8.809  0.9730 -0.0786  0.4566
 1773TIP3    H126954   2.763   3.345   8.861  1.2100  0.6649 -0.7085
 1773TIP3    H226955   2.687   3.213   8.867 -0.2809  1.5531  0.8695
 1774TIP3   OH226956   4.081   2.282   7.772 -0.5106  0.1400 -0.5927
 1774TIP3    H126957   4.068   2.340   7.697 -0.9149  0.3274 -0.3828
 1774TIP3    H226958   4.009   2.219   7.766 -0.3728 -0.0231 -0.5283
 1775TIP3   OH226959   5.386   2.839   8.809  0.3169  0.1381  0.2251
 1775TIP3    H126960   5.326   2.766   8.799 -0.2123  0.6616 -0.5619
 1775TIP3    H226961   5.366   2.875   8.896 -0.9439  0.6727 -0.2665
 1776TIP3   OH226962   6.210   4.781   7.310  0.3874 -0.3190 -0.1207
 1776TIP3    H126963   6.205   4.740   7.396  1.6293 -0.1820  0.0411
 1776TIP3    H226964   6.127   4.827   7.300  0.5663  0.3844  1.3788
 1777TIP3   OH226965   1.030   4.062   2.078  0.1482  0.1820  0.3468
 1777TIP3    H126966   1.021   4.108   2.162  1.2452  0.1813  0.4846
 1777TIP3    H226967   1.037   4.132   2.013  0.4282  0.2015  0.3955
 1778TIP3   OH226968   1.790   0.409   0.317  0.7063  0.1624 -0.0440
 1778TIP3    H126969   1.844   0.344   0.273 -0.7399 -0.1809 -1.4041
 1778TIP3    H226970   1.733   0.443   0.249 -0.8976  0.3820  1.3353
 1779TIP3   OH226971   0.744   1.798   0.112 -0.2332 -0.1418 -0.4293
 1779TIP3    H126972   0.742   1.864   0.042 -2.5113 -0.2597 -0.5328
 1779TIP3    H226973   0.705   1.842   0.188  0.3223 -0.6718  0.1783
 1780TIP3   OH226974   4.293   5.820   7.581  0.7784  0.0733  0.3945
 1780TIP3    H126975   4.297   5.726   7.594 -1.2275 -0.6046 -2.8572
 1780TIP3    H226976   4.228   5.850   7.645 -1.4369 -1.4375 -1.0263
 1781TIP3   OH226977   3.251   4.513   0.576  0.2474  0.6612  0.1301
 1781TIP3    H126978   3.332   4.558   0.552  0.7317 -0.5590 -0.6387
 1781TIP3    H226979   3.278   4.446   0.638 -0.0908 -0.0163 -0.4358
 1782TIP3   OH226980   0.425   4.382   7.404 -0.0241  0.4674  0.3694
 1782TIP3    H126981   0.419   4.288   7.386 -1.8292  0.1865  2.0528
 1782TIP3    H226982   0.479   4.417   7.334  0.1802 -1.7402 -0.6451
 1783TIP3   OH226983   4.352   5.785   8.558 -0.0800 -0.3812  0.1317
 1783TIP3    H126984   4.349   5.689   8.556 -0.8542 -0.3467 -1.4872
 1783TIP3    H226985   4.445   5.806   8.549 -0.0637 -0.9806 -1.3804
 1784TIP3   OH226986   5.585   5.518   2.425 -0.6951  0.1730 -0.5387
 1784TIP3    H126987   5.598   5.429   2.392 -0.1069  0.2517 -0.5312
 1784TIP3    H226988   5.568   5.571   2.347 -2.9536 -0.2522 -0.3941
 1785TIP3   OH226989   5.960   5.165   0.665 -0.1484 -0.2872 -0.9647
 1785TIP3    H126990   6.006   5.085   0.689  0.8401  0.6990  0.6540
 1785TIP3    H226991   6.008   5.235   0.710 -1.4552  1.1277 -1.6576
 1786TIP3   OH226992   0.466   1.729   1.268  0.1061  0.3058 -0.7220
 1786TIP3    H126993   0.427   1.660   1.214 -1.8620 -0.1356  1.1046
 1786TIP3    H226994   0.399   1.798   1.271 -0.1549  0.0366  1.5668
 1787TIP3   OH226995   5.929   1.541   8.732 -0.1793 -0.1987  0.1759
 1787TIP3    H126996   5.989   1.575   8.797 -0.0305 -1.3068  0.6303
 1787TIP3    H226997   5.879   1.474   8.777 -0.0793 -0.9868 -0.8446
 1788TIP3   OH226998   0.522   5.752   8.727  0.1861  0.0310 -0.3130
 1788TIP3    H126999   0.517   5.827   8.668  0.5382 -0.4232 -0.9357
 1788TIP3    H227000   0.590   5.696   8.689  1.9751  0.7195  1.6669
 1789TIP3   OH227001   5.126   2.719   8.025 -0.3512 -0.0931  0.0089
 1789TIP3    H127002   5.031   2.716   8.029 -0.5185  1.6826 -1.2650
 1789TIP3    H227003   5.153   2.761   8.106 -0.7104  0.1199  0.0183
 1790TIP3   OH227004   2.830   5.402   0.290 -0.2005 -0.2961  0.4470
 1790TIP3    H127005   2.736   5.400   0.272 -0.1167  0.4293 -0.1141
 1790TIP3    H227006   2.836   5.390   0.385 -1.0064  1.8589  0.8260
 1791TIP3   OH227007   2.327   0.287   1.905  0.1991 -0.3037  0.0521
 1791TIP3    H127008   2.298   0.367   1.949  1.4888  0.4226 -0.3865
 1791TIP3    H227009   2.419   0.302   1.885  0.8344 -2.4516  1.1613
 1792TIP3   OH227010   1.918   3.089   1.944  0.7139  0.5113 -0.0464
 1792TIP3    H127011   1.880   3.064   1.860 -0.0228  1.1306  0.0857
 1792TIP3    H227012   1.919   3.009   1.995  1.0943  0.1473 -0.6176
 1793TIP3   OH227013   1.696   2.036   8.743 -0.5891  0.2250  0.2494
 1793TIP3    H127014   1.681   2.122   8.704 -0.9706  0.8235  1.6920
 1793TIP3    H227015   1.627   1.980   8.706 -0.6109  0.6324 -0.3413
 1794TIP3   OH227016   2.749   2.602   0.361  0.1423  0.2253 -0.2859
 1794TIP3    H127017   2.763   2.510   0.381  1.7912  0.2395 -1.2067
 1794TIP3    H227018   2.730   2.642   0.446  0.1706 -0.8219  0.2332
 1795TIP3   OH227019   3.051   5.094   7.468  0.2202  0.0567 -0.3287
 1795TIP3    H127020   3.017   5.114   7.555  1.2009 -0.1815  0.1246
 1795TIP3    H227021   2.982   5.044   7.425 -0.1366 -0.1133  0.4346
 1796TIP3   OH227022   4.533   1.916   7.344  0.3157  0.0206 -0.5851
 1796TIP3    H127023   4.474   1.852   7.306  1.6944 -1.2262 -0.7168
 1796TIP3    H227024   4.621   1.885   7.321  1.0348  2.2268 -1.0829
 1797TIP3   OH227025   1.303   2.918   2.556 -0.1073  0.2283  0.3495
 1797TIP3    H127026   1.376   2.977   2.573 -1.0077  1.4010  0.2827
 1797TIP3    H227027   1.302   2.907   2.461 -0.4200  0.7642  0.2863
 1798TIP3   OH227028   3.919   3.697   8.644 -0.7097  0.3436  0.0074
 1798TIP3    H127029   4.002   3.651   8.633 -0.6473  0.9086 -2.4394
 1798TIP3    H227030   3.901   3.691   8.738  0.5017 -2.4952  0.1645
 1799TIP3   OH227031   4.996   0.268   8.188  0.5042 -0.6006  0.3329
 1799TIP3    H127032   5.011   0.233   8.100  0.7748 -1.3451  0.6753
 1799TIP3    H227033   4.906   0.301   8.185  0.1203 -1.6402  0.1161
 1800TIP3   OH227034   1.599   0.715   0.427  0.1049  0.2594  0.3580
 1800TIP3    H127035   1.671   0.762   0.385 -0.5368  1.5401  0.6194
 1800TIP3    H227036   1.641   0.645   0.477  0.9113 -1.4463 -2.4529
 1801TIP3   OH227037   2.209   5.817   0.602 -0.7997  0.1530  0.4108
 1801TIP3    H127038   2.228   5.770   0.683 -0.0466  0.2256  0.2878
 1801TIP3    H227039   2.128   5.778   0.569 -0.5609 -0.5750  0.6715
 1802TIP3   OH227040   0.929   6.692   1.740  0.0170 -0.1447 -0.1365
 1802TIP3    H127041   0.905   6.624   1.678 -1.0550 -0.9207  1.0899
 1802TIP3    H227042   1.025   6.696   1.735 -0.0545  0.0161 -2.0080
 1803TIP3   OH227043   0.705   6.276   7.749 -0.3644 -0.7350 -0.6706
 1803TIP3    H127044   0.774   6.280   7.816 -2.0221  0.4171  1.0713
 1803TIP3    H227045   0.714   6.359   7.702  0.4766 -1.3220 -1.5677
 1804TIP3   OH227046   2.510   4.359   0.492  0.7635 -0.0354 -0.6083
 1804TIP3    H127047   2.497   4.451   0.514  0.0946 -0.0593 -0.8875
 1804TIP3    H227048   2.570   4.327   0.559 -0.3639  0.1634  0.5389
 1805TIP3   OH227049   2.316   0.178   0.158 -0.1485 -0.0189  0.3339
 1805TIP3    H127050   2.388   0.149   0.214  0.1592 -1.1968 -0.6421
 1805TIP3    H227051   2.265   0.237   0.213  1.7372  1.1207  0.9526
 1806TIP3   OH227052   2.887   6.714   2.357 -0.1214 -0.1175 -0.6409
 1806TIP3    H127053   2.870   6.621   2.342 -0.1309 -0.2450  0.1210
 1806TIP3    H227054   2.852   6.731   2.445  0.8419  0.3570 -0.3321
 1807TIP3   OH227055   3.348   5.306   0.580 -0.2542 -0.0402 -0.1653
 1807TIP3    H127056   3.400   5.382   0.604  0.1099 -0.0356 -0.9300
 1807TIP3    H227057   3.348   5.306   0.484 -0.7044 -0.6919 -0.1746
 1808TIP3   OH227058   3.808   5.848   1.780 -0.0389  0.0267  0.2980
 1808TIP3    H127059   3.742   5.908   1.746  1.7457  1.8000 -0.2760
 1808TIP3    H227060   3.886   5.903   1.791  1.3840 -1.9865  0.7862
 1809TIP3   OH227061   0.962   2.292   8.430  0.1551 -0.2161  0.4542
 1809TIP3    H127062   0.998   2.218   8.382 -0.3766 -0.0930 -0.1486
 1809TIP3    H227063   0.869   2.294   8.406  0.3078  1.0825 -0.1366
 1810TIP3   OH227064   5.642   5.941   7.334 -0.6614 -0.0565  0.5020
 1810TIP3    H127065   5.625   5.959   7.426  0.6326  0.1375  0.7299
 1810TIP3    H227066   5.561   5.902   7.301 -2.4569  3.0948  0.8040
 1811TIP3   OH227067   0.916   5.734   0.474  0.1506  0.1584  0.2648
 1811TIP3    H127068   0.903   5.691   0.389  0.2261  0.5769  0.0421
 1811TIP3    H227069   0.920   5.661   0.536  0.4936 -0.1717 -0.1364
 1812TIP3   OH227070   6.152   4.762   2.486  0.5460  0.2192 -0.0412
 1812TIP3    H127071   6.138   4.813   2.405  1.8574 -0.1970 -0.5594
 1812TIP3    H227072   6.115   4.817   2.555  2.2740  2.1514 -0.5146
 1813TIP3   OH227073   0.838   0.027   7.455 -0.2074  0.0554  0.1680
 1813TIP3    H127074   0.790   0.100   7.417 -1.1487 -0.3100  0.6322
 1813TIP3    H227075   0.911   0.069   7.501  0.3444  0.5674 -1.1142
 1814TIP3   OH227076   2.870   1.879   1.870  0.4504  0.2313 -0.4444
 1814TIP3    H127077   2.873   1.963   1.915  0.0664 -0.6175  1.2223
 1814TIP3    H227078   2.952   1.875   1.821  0.1084  1.9131 -1.2109
 1815TIP3   OH227079   0.877   5.568   1.937 -0.2569  0.0570 -0.1476
 1815TIP3    H127080   0.837   5.490   1.975 -0.6564  0.6860  0.7454
 1815TIP3    H227081   0.804   5.619   1.903 -0.2409  1.0880  1.2607
 1816TIP3   OH227082   6.300   4.572   6.942 -0.0833  0.4836 -0.0987
 1816TIP3    H127083   6.292   4.539   6.853 -1.3174 -1.0040  0.5128
 1816TIP3    H227084   6.364   4.513   6.984  0.7101  1.3501 -0.0524
 1817TIP3   OH227085   6.691   1.609   1.090  0.0679 -0.6492 -0.5923
 1817TIP3    H127086   6.784   1.590   1.084  0.2901  0.2191 -0.0468
 1817TIP3    H227087   6.685   1.683   1.151 -0.8971 -0.0610 -1.3755
 1818TIP3   OH227088   3.297   4.778   8.253 -0.2057 -0.6198  0.6210
 1818TIP3    H127089   3.361   4.816   8.314  1.2574 -0.3660 -0.9934
 1818TIP3    H227090   3.236   4.849   8.234  1.1803  0.3020 -0.6020
 1819TIP3   OH227091   2.803   6.650   6.915  0.2270  0.1061  0.3844
 1819TIP3    H127092   2.731   6.654   6.978 -0.7557 -1.5047 -0.5679
 1819TIP3    H227093   2.760   6.659   6.830  1.3554  0.6618 -0.1488
 1820TIP3   OH227094   0.870   0.654   0.878 -0.3554 -0.1274  0.2911
 1820TIP3    H127095   0.817   0.582   0.844 -0.0943 -1.1129  1.9083
 1820TIP3    H227096   0.870   0.719   0.807 -0.3858 -1.8032 -1.3108
 1821TIP3   OH227097   1.799   2.649   8.106 -0.4863 -1.0890  0.3601
 1821TIP3    H127098   1.791   2.675   8.198 -1.5167  2.0057 -0.4933
 1821TIP3    H227099   1.863   2.710   8.069 -0.0082 -2.3617 -0.9953
 1822TIP3   OH227100   6.606   5.705   0.634  0.3197  0.0679  0.8031
 1822TIP3    H127101   6.560   5.683   0.715  0.2028  4.0430  2.0294
 1822TIP3    H227102   6.686   5.748   0.663  0.8633  0.5412 -1.2455
 1823TIP3   OH227103   0.569   5.036   1.030 -0.5425  0.3544  0.6018
 1823TIP3    H127104   0.530   5.110   0.983 -0.7792  0.0895  0.3780
 1823TIP3    H227105   0.495   4.977   1.047 -0.4048  0.3026  1.0293
 1824TIP3   OH227106   4.792   5.985   0.168  0.4709 -0.3340 -0.7574
 1824TIP3    H127107   4.819   5.893   0.161  0.6514 -0.4376  0.8188
 1824TIP3    H227108   4.720   5.984   0.230  1.9307  0.7938  1.0790
 1825TIP3   OH227109   6.731   0.334   7.648 -0.4988 -0.3720 -0.1665
 1825TIP3    H127110   6.768   0.344   7.560  0.9069  2.4409  0.6270
 1825TIP3    H227111   6.790   0.272   7.691  2.3117  2.4456  0.4046
 1826TIP3   OH227112   2.981   6.216   8.832 -0.4009 -0.0385 -0.2695
 1826TIP3    H127113   3.030   6.136   8.852 -0.3846  0.0944  0.2493
 1826TIP3    H227114   2.918   6.224   8.903 -0.8327  0.0697 -0.6602
 1827TIP3   OH227115   1.329   0.078   1.692 -0.5545  1.1505  0.5030
 1827TIP3    H127116   1.287   0.042   1.769 -0.5290  1.7714  0.8150
 1827TIP3    H227117   1.398   0.015   1.670 -1.2392  0.4333  0.3434
 1828TIP3   OH227118   2.118   6.420   7.977  0.2034  0.1888 -0.5965
 1828TIP3    H127119   2.130   6.326   7.994 -1.4462 -0.0725 -0.7564
 1828TIP3    H227120   2.164   6.463   8.050  1.3504 -0.7090 -0.7558
 1829TIP3   OH227121   2.213   0.890   7.978  0.3529 -0.4284  0.1462
 1829TIP3    H127122   2.162   0.951   7.926  0.3269 -0.3703  0.2404
 1829TIP3    H227123   2.188   0.804   7.945  0.5657 -0.3795 -0.1497
 1830TIP3   OH227124   1.517   5.288   1.547  0.1037  0.1179  0.4569
 1830TIP3    H127125   1.438   5.246   1.582  0.4927 -1.4944 -0.4652
 1830TIP3    H227126   1.588   5.226   1.569  0.7138  0.2803 -0.9417
 1831TIP3   OH227127   0.445   0.778   2.001 -0.2863  0.5853  0.3424
 1831TIP3    H127128   0.360   0.734   2.014 -0.7680  0.4551 -2.4994
 1831TIP3    H227129   0.423   0.860   1.957  1.0413  0.4815 -0.5827
 1832TIP3   OH227130   5.077   3.388   8.193  0.4623  0.3249  0.0113
 1832TIP3    H127131   5.110   3.466   8.149  1.0187  0.5265  0.7679
 1832TIP3    H227132   5.108   3.315   8.138  1.3545  0.5590  0.1846
 1833TIP3   OH227133   4.152   3.668   1.024  0.0428  0.1139  0.0575
 1833TIP3    H127134   4.205   3.636   0.952  1.7661  1.3599  0.6881
 1833TIP3    H227135   4.156   3.598   1.090  1.3984  0.3786  0.2976
 1834TIP3   OH227136   0.969   5.864   0.204  0.2602 -0.1787 -0.2971
 1834TIP3    H127137   0.897   5.805   0.223 -0.1596  0.2844 -0.4455
 1834TIP3    H227138   1.010   5.880   0.290 -0.3007  0.1828 -0.0888
 1835TIP3   OH227139   1.013   5.173   1.783  0.4427  0.2980 -0.4647
 1835TIP3    H127140   0.973   5.176   1.870  1.2830 -0.2571 -0.0509
 1835TIP3    H227141   0.941   5.192   1.723 -0.2951 -0.0158  0.3051
 1836TIP3   OH227142   0.923   4.933   1.688 -0.3306  0.2807  0.4554
 1836TIP3    H127143   0.948   4.974   1.771 -0.5958 -0.9229  1.1558
 1836TIP3    H227144   0.886   4.848   1.714 -1.8484  0.5380 -0.8000
 1837TIP3   OH227145   1.970   5.681   0.550 -0.3802  0.5880 -0.1526
 1837TIP3    H127146   1.921   5.622   0.608  2.2802  0.3100  2.0174
 1837TIP3    H227147   1.923   5.765   0.556 -1.2784  0.0369  0.9010
 1838TIP3   OH227148   0.834   4.563   1.988  0.2822 -0.2372 -0.0701
 1838TIP3    H127149   0.795   4.493   1.936 -1.2449  0.2260  0.3877
 1838TIP3    H227150   0.898   4.519   2.044 -0.9734 -1.3637  0.5388
 1839TIP3   OH227151   4.340   1.313   2.709  0.0378 -0.1567 -0.1534
 1839TIP3    H127152   4.408   1.281   2.768  0.7355 -0.7070 -1.2180
 1839TIP3    H227153   4.360   1.405   2.696 -0.6825  0.2180  1.1889
 1840TIP3   OH227154   6.080   1.128   2.597 -0.4573 -0.0924  0.1872
 1840TIP3    H127155   6.154   1.117   2.538 -0.0506  0.2645  0.6188
 1840TIP3    H227156   6.079   1.221   2.617  0.0629 -0.3638  1.5640
 1841TIP3   OH227157   3.248   2.220   8.679  0.5539 -0.1720 -0.2558
 1841TIP3    H127158   3.169   2.221   8.626 -0.5312 -1.0232  1.2723
 1841TIP3    H227159   3.270   2.313   8.690  1.7367  0.0390 -3.3931
 1842TIP3   OH227160   2.531   4.502   8.432  0.5367  0.3984  0.1133
 1842TIP3    H127161   2.526   4.422   8.379 -0.0849 -0.4405  1.3948
 1842TIP3    H227162   2.439   4.525   8.448  0.7236  0.8212  0.5726
 1843TIP3   OH227163   3.010   0.420   7.541 -0.0820  0.0731 -0.0063
 1843TIP3    H127164   3.019   0.497   7.597 -1.9634 -0.1578  0.7033
 1843TIP3    H227165   3.060   0.352   7.585  0.1432  0.4280  0.2911
 1844TIP3   OH227166   5.007   4.141   0.400  0.2780  0.0590 -0.3838
 1844TIP3    H127167   4.960   4.167   0.321 -0.2876  0.4722  0.0739
 1844TIP3    H227168   4.978   4.204   0.466 -0.1035 -0.9530  0.4259
 1845TIP3   OH227169   4.773   6.366   2.198 -0.4670  0.0750  0.4479
 1845TIP3    H127170   4.819   6.450   2.205 -0.2021 -0.2291  4.0316
 1845TIP3    H227171   4.843   6.301   2.192 -0.6040 -0.0562  0.2707
 1846TIP3   OH227172   5.934   3.911   8.749 -0.4717 -0.1260 -0.6102
 1846TIP3    H127173   5.921   3.942   8.660  0.7374 -0.7638 -1.0300
 1846TIP3    H227174   5.937   3.815   8.740  1.0612 -0.1404 -0.0970
 1847TIP3   OH227175   4.187   5.593   8.024 -0.0161  0.5040  0.0331
 1847TIP3    H127176   4.147   5.593   7.937  0.7454  0.6986 -0.3311
 1847TIP3    H227177   4.281   5.589   8.007  0.2797  2.5824  0.7686
 1848TIP3   OH227178   5.486   3.174   2.530 -0.1444 -0.5028 -0.5607
 1848TIP3    H127179   5.578   3.190   2.547 -0.8541  1.3374  2.3431
 1848TIP3    H227180   5.460   3.110   2.596 -1.2626  0.2290 -0.2654
 1849TIP3   OH227181   4.736   2.278   0.841 -0.3668  0.4386  0.2682
 1849TIP3    H127182   4.697   2.233   0.765  0.4716 -0.0351  0.1084
 1849TIP3    H227183   4.819   2.313   0.807  0.8823 -1.2875  1.3930
 1850TIP3   OH227184   1.226   3.660   8.710  0.3084 -0.7710 -0.0763
 1850TIP3    H127185   1.148   3.616   8.676 -0.4141  0.9177 -0.7565
 1850TIP3    H227186   1.193   3.742   8.747  1.8917  0.9056 -2.0938
 1851TIP3   OH227187   4.162   1.340   1.725 -0.1509 -0.0456 -0.4298
 1851TIP3    H127188   4.189   1.267   1.780 -1.1981 -0.9186 -1.0381
 1851TIP3    H227189   4.231   1.406   1.736  0.0800 -0.5405  1.2445
 1852TIP3   OH227190   2.604   3.777   0.735 -0.1242  0.3620  0.0062
 1852TIP3    H127191   2.571   3.716   0.669 -1.9246  1.5951 -0.2838
 1852TIP3    H227192   2.690   3.742   0.758  0.3061 -0.4759 -2.5112
 1853TIP3   OH227193   1.084   2.718   8.668 -0.3247 -0.1762 -0.0891
 1853TIP3    H127194   1.057   2.710   8.760 -0.8486  0.0763 -0.2200
 1853TIP3    H227195   1.006   2.698   8.618  0.0000 -0.4546 -0.4853
 1854TIP3   OH227196   6.770   2.148   8.312 -0.0313  0.0246 -0.4373
 1854TIP3    H127197   6.695   2.169   8.368  0.6555 -3.1213  2.0030
 1854TIP3    H227198   6.778   2.222   8.253 -3.4201  1.6943  0.9299
 1855TIP3   OH227199   3.432   0.703   6.996  0.1703 -0.1779  0.4655
 1855TIP3    H127200   3.389   0.762   6.934 -0.9281  0.2408  1.5810
 1855TIP3    H227201   3.452   0.758   7.072  0.1488 -0.9839  1.0785
 1856TIP3   OH227202   2.393   3.599   8.238 -0.1137 -0.7651 -0.0194
 1856TIP3    H127203   2.320   3.655   8.212  1.3728  2.8725  2.7046
 1856TIP3    H227204   2.352   3.527   8.285 -2.0632  0.3778  0.1710
 1857TIP3   OH227205   3.085   2.810   1.623  0.1560  0.1681 -0.5527
 1857TIP3    H127206   3.110   2.825   1.532 -0.7094  0.2984 -0.7788
 1857TIP3    H227207   3.028   2.884   1.645 -2.0557 -1.3532 -0.8570
 1858TIP3   OH227208   1.646   6.121   0.488  0.4821 -0.5896 -0.1888
 1858TIP3    H127209   1.681   6.187   0.548  0.1506 -0.3193 -0.2907
 1858TIP3    H227210   1.565   6.091   0.529 -0.4757  0.5928 -1.1527
 1859TIP3   OH227211   5.997   5.197   1.729 -0.0731  0.1120  0.2508
 1859TIP3    H127212   5.994   5.107   1.696 -0.6688  1.0417 -2.5128
 1859TIP3    H227213   5.963   5.250   1.657 -1.0392  2.4559  2.2674
 1860TIP3   OH227214   2.282   5.254   1.464  0.1049  0.1456  1.1108
 1860TIP3    H127215   2.276   5.347   1.441  1.1677 -0.2461 -1.0522
 1860TIP3    H227216   2.194   5.219   1.446  0.1270  0.4435  0.3722
 1861TIP3   OH227217   4.252   1.688   8.611  0.3052  0.6827 -0.5830
 1861TIP3    H127218   4.292   1.716   8.529 -1.3436  0.9838 -1.3090
 1861TIP3    H227219   4.210   1.605   8.591  1.3121 -0.1062  0.4150
 1862TIP3   OH227220   0.010   1.901   0.935 -0.1912  0.0321 -0.0919
 1862TIP3    H127221   0.003   1.879   1.028  0.0326 -2.4047 -0.5931
 1862TIP3    H227222  -0.077   1.883   0.899 -0.7870  2.5833 -0.1168
 1863TIP3   OH227223   3.001   5.516   8.711  0.7803 -0.1877 -1.1133
 1863TIP3    H127224   2.976   5.555   8.795 -1.9238 -1.5846 -1.1482
 1863TIP3    H227225   3.042   5.433   8.734  0.6437 -0.2659 -1.1484
 1864TIP3   OH227226   6.072   0.963   7.818  0.2965 -0.3900  0.1437
 1864TIP3    H127227   6.097   0.879   7.858  0.0871  0.1893  1.5421
 1864TIP3    H227228   6.008   1.000   7.879  0.3763  0.7819 -0.4667
 1865TIP3   OH227229   4.984   1.946   7.060  0.1126 -0.0165  0.7114
 1865TIP3    H127230   4.949   1.898   7.135  0.0866 -0.5247  0.3786
 1865TIP3    H227231   5.045   1.886   7.019  0.5170  0.4488  0.6181
 1866TIP3   OH227232   1.863   2.911   8.734  0.1083 -0.0394  0.0328
 1866TIP3    H127233   1.917   2.845   8.778  0.0111  0.0246  0.2459
 1866TIP3    H227234   1.815   2.954   8.804 -0.2434 -0.1136 -0.1576
 1867TIP3   OH227235   0.678   0.076   0.310 -0.2654  0.1592 -0.1116
 1867TIP3    H127236   0.710   0.159   0.275 -0.3100  0.2860  0.1494
 1867TIP3    H227237   0.750   0.043   0.364 -0.8899  0.8816  1.2145
 1868TIP3   OH227238   2.086   3.542   2.750  0.6569  0.2831 -0.2905
 1868TIP3    H127239   2.083   3.580   2.663  0.3393  1.5450  0.2464
 1868TIP3    H227240   2.000   3.504   2.763 -0.0457  1.9411  0.2340
 1869TIP3   OH227241   1.411   2.141   7.468  0.3435  0.0166  0.4360
 1869TIP3    H127242   1.394   2.189   7.387 -1.9246  1.4353  1.6585
 1869TIP3    H227243   1.409   2.049   7.441  1.5117  0.4670 -1.4015
 1870TIP3   OH227244   3.788   5.099   1.591 -0.0376  0.3590  0.1633
 1870TIP3    H127245   3.714   5.082   1.533 -0.7103 -2.4842  1.6559
 1870TIP3    H227246   3.755   5.161   1.655 -1.0590 -0.6300  0.6190
 1871TIP3   OH227247   1.973   0.348   2.318 -0.6636  0.4157  0.1349
 1871TIP3    H127248   2.020   0.372   2.399 -0.0652 -1.6730  0.4541
 1871TIP3    H227249   1.895   0.403   2.319 -0.1948  1.1142  1.6501
 1872TIP3   OH227250   5.283   5.294   0.695 -0.2913 -0.5804 -0.3844
 1872TIP3    H127251   5.344   5.221   0.708  2.4745  1.9234  2.0544
 1872TIP3    H227252   5.291   5.316   0.603 -0.6085 -2.7706 -0.9969
 1873TIP3   OH227253   3.709   3.224   7.252  0.7089  0.0098  0.5074
 1873TIP3    H127254   3.719   3.184   7.165  0.2961 -0.2046  0.5550
 1873TIP3    H227255   3.615   3.241   7.260  0.5845 -0.9042  1.3087
 1874TIP3   OH227256   1.691   3.068   8.186  0.0684  0.1854 -0.1342
 1874TIP3    H127257   1.785   3.086   8.180 -0.1968  1.4094 -1.1206
 1874TIP3    H227258   1.654   3.111   8.109 -0.9249 -3.0264 -1.5993
 1875TIP3   OH227259   6.524   2.754   8.842  0.3646 -0.2788  0.0190
 1875TIP3    H127260   6.604   2.805   8.830  1.2219 -1.1653  1.6626
 1875TIP3    H227261   6.554   2.668   8.872 -1.1598 -0.9577 -0.3045
 1876TIP3   OH227262   2.647   6.785   0.669 -0.2584  0.2175  0.1313
 1876TIP3    H127263   2.576   6.821   0.723 -1.0952 -1.9818  0.5792
 1876TIP3    H227264   2.605   6.721   0.613  1.1818 -0.1044 -0.6216
 1877TIP3   OH227265   3.863   6.157   6.955  0.4443  0.0316  0.1293
 1877TIP3    H127266   3.795   6.187   6.894  0.4936  0.3735  0.2410
 1877TIP3    H227267   3.922   6.105   6.900 -0.7557 -1.6329  0.3270
 1878TIP3   OH227268   6.056   6.732   0.974 -0.1499  0.9252 -0.2465
 1878TIP3    H127269   5.993   6.746   1.044 -1.4887 -0.3699 -1.1006
 1878TIP3    H227270   6.123   6.799   0.986 -0.6975  1.1421  1.8345
 1879TIP3   OH227271   1.727   4.874   1.107  0.0323  0.3276  0.7355
 1879TIP3    H127272   1.651   4.923   1.138  0.5805  1.5386  0.2306
 1879TIP3    H227273   1.788   4.941   1.076  1.2988 -0.6105  1.0998
 1880TIP3   OH227274   6.641   1.231   2.757 -0.2245  0.2416  0.2627
 1880TIP3    H127275   6.685   1.195   2.834 -2.0659 -0.7257  0.9342
 1880TIP3    H227276   6.669   1.323   2.754 -2.4556  1.2655  3.9995
 1881TIP3   OH227277   2.028   5.018   8.450 -0.0914 -0.3285  0.1299
 1881TIP3    H127278   1.986   4.935   8.472 -0.0228 -0.4742 -0.2683
 1881TIP3    H227279   1.983   5.047   8.370  0.4266 -0.3905 -0.1915
 1882TIP3   OH227280   1.376   1.772   2.586  0.4109  0.4425  0.1521
 1882TIP3    H127281   1.409   1.682   2.584  2.2154  1.0485  0.7416
 1882TIP3    H227282   1.361   1.790   2.679 -2.2154  0.0170 -0.1244
 1883TIP3   OH227283   2.748   3.025   8.677 -0.3383 -0.2572 -0.1057
 1883TIP3    H127284   2.767   3.096   8.738  0.0608 -1.1606  0.8665
 1883TIP3    H227285   2.665   3.050   8.636 -0.4009  0.5816  0.4976
 1884TIP3   OH227286   1.389   6.549   8.388 -0.1649 -0.0381  0.1998
 1884TIP3    H127287   1.463   6.545   8.328  0.1512  1.1828  0.4885
 1884TIP3    H227288   1.362   6.458   8.399 -0.9198 -0.2550 -2.6052
 1885TIP3   OH227289   1.206   1.694   8.797 -0.4893 -0.1411  0.0140
 1885TIP3    H127290   1.195   1.781   8.759  0.8651  0.4520  0.9080
 1885TIP3    H227291   1.228   1.638   8.723  0.3920  0.6550 -0.3549
 1886TIP3   OH227292   5.810   2.397   2.404 -0.2846 -0.0003  0.4855
 1886TIP3    H127293   5.848   2.318   2.442  0.8400  1.1167  1.7647
 1886TIP3    H227294   5.884   2.445   2.367 -0.7231  1.1575  1.0578
 1887TIP3   OH227295   3.244   1.142   2.224 -0.1329 -0.7511  0.0738
 1887TIP3    H127296   3.176   1.174   2.283 -0.0829  0.9921 -0.7587
 1887TIP3    H227297   3.210   1.158   2.137  0.9016 -0.8402 -0.3593
 1888TIP3   OH227298   6.539   4.555   8.225 -0.4419  0.3509 -0.1722
 1888TIP3    H127299   6.535   4.517   8.313  1.8004  3.1225  1.2717
 1888TIP3    H227300   6.592   4.493   8.175 -1.9290 -1.3808  0.2550
 1889TIP3   OH227301   6.164   2.264   8.595 -0.5294  0.5756 -0.4624
 1889TIP3    H127302   6.206   2.323   8.533 -1.0703  0.8191 -0.6040
 1889TIP3    H227303   6.078   2.246   8.557 -0.2908 -0.4790 -0.5256
 1890TIP3   OH227304   1.449   4.643   1.671  0.1877  0.1979 -0.1727
 1890TIP3    H127305   1.526   4.626   1.617  0.3357 -0.5843  0.2767
 1890TIP3    H227306   1.464   4.730   1.708  0.1269  0.7112 -1.3032
 1891TIP3   OH227307   6.494   4.337   2.952  0.2640 -0.4188 -0.1423
 1891TIP3    H127308   6.548   4.360   3.027 -1.9196 -0.5754  1.5673
 1891TIP3    H227309   6.532   4.255   2.920  0.0914 -1.4037  2.0228
 1892TIP3   OH227310   0.005   0.127   0.876  0.9213  0.1360  0.0002
 1892TIP3    H127311  -0.066   0.149   0.815  1.3710  0.2595 -0.4777
 1892TIP3    H227312   0.025   0.035   0.857  0.3038 -0.1594  0.7309
 1893TIP3   OH227313   4.445   1.743   8.436 -0.7370 -0.0839 -0.4295
 1893TIP3    H127314   4.485   1.763   8.351  0.3444 -0.3766 -0.0080
 1893TIP3    H227315   4.453   1.648   8.445 -1.3509 -0.1201 -0.2421
 1894TIP3   OH227316   3.862   5.362   8.642 -0.6505 -0.4431 -0.3124
 1894TIP3    H127317   3.841   5.290   8.701 -0.2471 -0.1156  0.2442
 1894TIP3    H227318   3.920   5.324   8.576 -0.2306 -0.5727  0.1294
 1895TIP3   OH227319   1.474   3.411   1.997  0.4554 -0.3910  0.4733
 1895TIP3    H127320   1.479   3.499   2.036  0.5624 -0.0549 -0.2864
 1895TIP3    H227321   1.384   3.383   2.013  0.6454 -0.4965  1.4503
 1896TIP3   OH227322   2.967   6.434   0.821 -0.1560  0.5865 -0.2319
 1896TIP3    H127323   3.008   6.518   0.841 -0.9273  0.6509  1.2602
 1896TIP3    H227324   2.915   6.450   0.743  0.8061  1.1181 -0.7760
 1897TIP3   OH227325   5.256   5.954   2.767  0.5209  0.9224  0.3777
 1897TIP3    H127326   5.336   6.003   2.749  0.7994  0.1293 -0.6214
 1897TIP3    H227327   5.189   6.022   2.780  0.4936  1.6529 -2.7572
 1898TIP3   OH227328   4.769   5.561   8.487 -0.6517  0.6636 -0.2676
 1898TIP3    H127329   4.716   5.483   8.501  0.9334 -0.5396 -0.6502
 1898TIP3    H227330   4.710   5.634   8.507 -1.6962 -0.6426  1.8436
 1899TIP3   OH227331   1.335   6.542   7.847  0.5746 -0.1168 -0.3418
 1899TIP3    H127332   1.241   6.548   7.862  0.3138  1.0876 -2.1868
 1899TIP3    H227333   1.346   6.468   7.788  0.7431 -0.0224 -0.4301
 1900TIP3   OH227334   3.556   6.099   1.109 -0.0327  0.2208  0.1680
 1900TIP3    H127335   3.629   6.051   1.069  0.2199 -0.5818  1.5388
 1900TIP3    H227336   3.500   6.030   1.145 -0.1774  0.9228  1.3125
 1901TIP3   OH227337   6.093   5.054   7.514 -0.3069  0.4348  0.2185
 1901TIP3    H127338   6.156   5.098   7.457  0.3584 -1.1072 -0.2866
 1901TIP3    H227339   6.072   4.972   7.468 -0.4916 -0.3993  1.7173
 1902TIP3   OH227340   0.899   5.828   1.804  0.3585 -0.3315  0.0108
 1902TIP3    H127341   0.850   5.898   1.848 -0.9842 -0.7482 -0.7598
 1902TIP3    H227342   0.868   5.830   1.713 -0.8908 -2.8930  0.2902
 1903TIP3   OH227343   0.744   2.259   8.833  0.1371  0.0705  0.5901
 1903TIP3    H127344   0.828   2.213   8.835 -0.1946 -0.5640  0.1008
 1903TIP3    H227345   0.763   2.342   8.788  0.7254  0.4102  1.4334
 1904TIP3   OH227346   0.492   1.464   8.538  0.2488 -0.1358  0.0840
 1904TIP3    H127347   0.512   1.409   8.614 -0.3011 -0.2467  0.1533
 1904TIP3    H227348   0.528   1.550   8.561 -0.8447  0.1149  0.9401
 1905TIP3   OH227349   4.469   4.887   8.314 -0.2573 -0.7662  0.3534
 1905TIP3    H127350   4.509   4.800   8.304  0.0214 -0.4504 -1.4752
 1905TIP3    H227351   4.384   4.879   8.271 -0.0277  0.0067 -0.2505
 1906TIP3   OH227352   3.058   2.701   2.276 -0.2953 -0.4843  0.4343
 1906TIP3    H127353   3.078   2.625   2.330 -1.8931 -0.1598  1.5705
 1906TIP3    H227354   2.963   2.713   2.286 -0.4153  0.4184 -1.3717
 1907TIP3   OH227355   5.164   2.775   0.209 -0.4879  0.3654  0.7413
 1907TIP3    H127356   5.248   2.813   0.235  0.3111 -0.7119 -0.1247
 1907TIP3    H227357   5.160   2.692   0.257 -0.8002  0.1710  0.3859
 1908TIP3   OH227358   4.936   3.969   0.047  0.0218 -0.3877  0.1730
 1908TIP3    H127359   4.965   3.892  -0.001  0.8867  0.3152 -0.4651
 1908TIP3    H227360   4.870   3.936   0.108 -0.4898 -1.4327 -0.9097
 1909TIP3   OH227361   0.884   5.261   7.093  0.2141 -0.2583  0.2091
 1909TIP3    H127362   0.942   5.187   7.079  1.5460  1.1675 -2.8551
 1909TIP3    H227363   0.941   5.338   7.089 -1.5846  1.1087 -1.0066
 1910TIP3   OH227364   3.522   0.637   7.921 -0.0782 -0.2354 -0.6812
 1910TIP3    H127365   3.603   0.663   7.964 -0.5688 -0.3875  0.3741
 1910TIP3    H227366   3.497   0.713   7.868  0.2598  0.1682 -0.2670
 1911TIP3   OH227367   3.228   2.223   1.847 -0.0373  1.0794  0.3152
 1911TIP3    H127368   3.312   2.265   1.863 -0.0272  0.9232  0.7013
 1911TIP3    H227369   3.171   2.292   1.815 -0.0360  1.4039  0.9916
 1912TIP3   OH227370   5.543   5.720   8.762  0.6365  0.2332 -0.1286
 1912TIP3    H127371   5.517   5.809   8.784 -2.8392 -0.6167 -0.1962
 1912TIP3    H227372   5.568   5.725   8.669 -0.5288  0.9950 -0.4248
 1913TIP3   OH227373   2.223   3.139   8.532 -0.3009  0.3287  0.3416
 1913TIP3    H127374   2.161   3.110   8.599  1.7952 -1.7075  1.5289
 1913TIP3    H227375   2.299   3.170   8.582  1.3765 -1.3639 -1.0488
 1914TIP3   OH227376   5.374   3.878   1.195  0.4795  0.6337  0.0976
 1914TIP3    H127377   5.348   3.970   1.201 -1.1977  0.1624  0.6695
 1914TIP3    H227378   5.349   3.852   1.106  0.1455  0.5032  0.2296
 1915TIP3   OH227379   6.500   6.246   0.546 -0.3213 -0.5772 -0.4317
 1915TIP3    H127380   6.532   6.161   0.577 -1.0800 -0.6737  0.0982
 1915TIP3    H227381   6.578   6.289   0.512  0.3088 -0.9843  0.4489
 1916TIP3   OH227382   4.332   4.262   1.813 -0.2901 -0.1581 -0.1777
 1916TIP3    H127383   4.373   4.178   1.791 -0.0995  0.2673 -1.6109
 1916TIP3    H227384   4.405   4.325   1.809 -0.2657 -0.0102  1.7018
 1917TIP3   OH227385   3.676   2.349   1.367 -0.1973  0.2009  0.0558
 1917TIP3    H127386   3.621   2.350   1.289  0.8517 -1.0425 -0.7425
 1917TIP3    H227387   3.676   2.257   1.394 -0.4488  0.5907  1.4743
 1918TIP3   OH227388   0.396   5.489   7.295 -0.1015 -0.0612  0.0640
 1918TIP3    H127389   0.335   5.417   7.310  0.8413 -0.6758  1.0962
 1918TIP3    H227390   0.341   5.562   7.266 -1.2078 -0.8570  0.1129
 1919TIP3   OH227391   6.253   0.842   0.045 -0.7169  0.0343 -0.2953
 1919TIP3    H127392   6.250   0.854  -0.050  1.3153  1.9405 -0.2123
 1919TIP3    H227393   6.347   0.841   0.065 -1.0422  2.4747  1.9290
 1920TIP3   OH227394   3.431   5.270   0.264 -0.1380 -0.1240 -0.0574
 1920TIP3    H127395   3.516   5.312   0.269 -0.0164 -0.3833  0.0588
 1920TIP3    H227396   3.443   5.197   0.205 -0.1865 -0.3794  0.2440
 1921TIP3   OH227397   0.560   4.828   1.756  0.0069  0.0316  0.6947
 1921TIP3    H127398   0.639   4.777   1.740 -0.0956  0.1360 -0.1877
 1921TIP3    H227399   0.569   4.859   1.846  1.3670  0.7666  0.3186
 1922TIP3   OH227400   2.287   5.142   2.054 -0.0223  0.0584 -0.1434
 1922TIP3    H127401   2.294   5.076   1.985 -1.7266 -1.2257  0.8397
 1922TIP3    H227402   2.201   5.181   2.041  0.3749  1.0815  0.1924
 1923TIP3   OH227403   0.242   5.025   7.464 -0.0512  0.4212  0.0985
 1923TIP3    H127404   0.260   4.985   7.379 -0.3588  1.0620 -0.2754
 1923TIP3    H227405   0.230   4.951   7.523  1.3309 -0.0372 -0.1519
 1924TIP3   OH227406   5.087   4.855   1.952  0.1075 -0.9600 -0.5128
 1924TIP3    H127407   5.072   4.882   1.861  3.0331  1.3243 -0.4672
 1924TIP3    H227408   5.079   4.935   2.003  0.4300 -1.8381  0.9969
 1925TIP3   OH227409   3.358   6.306   6.835 -0.0063 -0.3075  0.0536
 1925TIP3    H127410   3.296   6.367   6.796  0.3115  1.0697  1.6231
 1925TIP3    H227411   3.304   6.233   6.867 -0.6784  0.3072  0.3308
 1926TIP3   OH227412   2.106   0.990   2.332 -0.1889 -0.3418  0.5008
 1926TIP3    H127413   2.190   0.944   2.332  0.3776  0.5305  3.4666
 1926TIP3    H227414   2.085   1.003   2.424 -2.3998  1.6339 -0.1815
 1927TIP3   OH227415   3.754   0.492   8.372  0.2912 -0.0175  0.2712
 1927TIP3    H127416   3.689   0.555   8.404 -0.8816 -1.1228  0.1280
 1927TIP3    H227417   3.723   0.469   8.284  1.8271  0.7170 -0.4961
 1928TIP3   OH227418   5.316   4.514   1.447  0.2183  0.6069 -0.5089
 1928TIP3    H127419   5.222   4.515   1.429  0.3838 -0.1136 -1.4524
 1928TIP3    H227420   5.355   4.559   1.373  0.5337  2.2676  0.5998
 1929TIP3   OH227421   6.054   2.774   8.560  0.1411 -0.1605  0.0064
 1929TIP3    H127422   6.108   2.700   8.586  2.8179  1.1184 -1.5119
 1929TIP3    H227423   6.026   2.753   8.471  0.1039  0.2115 -0.0712
 1930TIP3   OH227424   3.285   5.353   2.571 -0.1859 -0.1641 -0.2328
 1930TIP3    H127425   3.265   5.444   2.550 -0.2670  0.0255  0.6403
 1930TIP3    H227426   3.253   5.341   2.660  2.4121 -0.2136  0.7751
 1931TIP3   OH227427   6.796   2.302   7.843  0.3994 -0.4033 -0.0365
 1931TIP3    H127428   6.784   2.367   7.774  0.4794 -1.1534 -0.7767
 1931TIP3    H227429   6.884   2.266   7.827  0.5385 -0.3743  0.6378
 1932TIP3   OH227430   4.920   4.403   2.278  0.0728 -0.1422 -0.2691
 1932TIP3    H127431   5.001   4.441   2.312  0.1317  0.0194 -0.5937
 1932TIP3    H227432   4.940   4.310   2.268  0.6028  0.0934 -1.4847
 1933TIP3   OH227433   4.271   2.117   0.853  0.2136  0.2432 -0.4222
 1933TIP3    H127434   4.240   2.032   0.885 -0.1618  0.8553  0.9095
 1933TIP3    H227435   4.263   2.111   0.758  0.9078 -1.4773 -0.4079
 1934TIP3   OH227436   0.481   4.940   0.047 -0.4352  0.3784 -0.4162
 1934TIP3    H127437   0.561   4.955   0.097 -0.1020 -0.2156 -0.7703
 1934TIP3    H227438   0.411   4.957   0.110 -0.0389  0.8761 -0.0975
 1935TIP3   OH227439   1.692   1.115   1.739 -0.6435  0.1838 -0.3760
 1935TIP3    H127440   1.661   1.063   1.812 -1.3329  0.8717 -0.1627
 1935TIP3    H227441   1.767   1.067   1.705 -1.1912 -0.8740 -0.1219
 1936TIP3   OH227442   1.887   0.024   7.883 -0.2008 -0.2401 -0.0598
 1936TIP3    H127443   1.938   0.024   7.964 -0.4741 -3.0028  0.2121
 1936TIP3    H227444   1.908   0.107   7.841  1.4998  0.3902  1.8919
 1937TIP3   OH227445   5.872   6.182   2.519  0.6300 -0.1264 -0.7841
 1937TIP3    H127446   5.789   6.135   2.521  0.3724  0.3085  1.8296
 1937TIP3    H227447   5.921   6.142   2.447 -1.5881 -0.7659 -2.0172
 1938TIP3   OH227448   2.558   4.327   8.222  0.2479  0.3244  0.4121
 1938TIP3    H127449   2.579   4.238   8.251 -1.2231 -0.0347  0.5029
 1938TIP3    H227450   2.628   4.351   8.162  1.0123 -0.6456  0.8865
 1939TIP3   OH227451   3.096   5.773   8.297 -0.1829 -0.3251 -0.0074
 1939TIP3    H127452   3.103   5.698   8.238 -1.3496 -1.1629  0.8871
 1939TIP3    H227453   3.032   5.746   8.363  0.4309  0.9246  1.1369
 1940TIP3   OH227454   1.997   3.586   0.029  0.3184 -0.2997  0.4058
 1940TIP3    H127455   1.904   3.602   0.044  0.6657 -0.1299  2.6856
 1940TIP3    H227456   2.037   3.673   0.031  0.6445 -0.4453  0.3395
 1941TIP3   OH227457   3.856   0.904   8.746 -0.5368 -0.3600 -0.2609
 1941TIP3    H127458   3.896   0.973   8.693 -1.0334  0.8568  0.8976
 1941TIP3    H227459   3.839   0.833   8.683  1.2820 -0.0237 -1.2056
 1942TIP3   OH227460   6.002   4.944   2.939 -0.2527 -0.4512  0.1334
 1942TIP3    H127461   6.096   4.949   2.921  0.0708 -0.1204  1.7629
 1942TIP3    H227462   5.984   5.023   2.991 -0.8149 -1.9372  2.3426
 1943TIP3   OH227463   4.488   1.931   0.044  0.6531  0.1322  0.0751
 1943TIP3    H127464   4.484   2.021   0.014  0.3431  0.2061  0.3304
 1943TIP3    H227465   4.403   1.915   0.084  0.8891 -0.1093  0.4899
 1944TIP3   OH227466   0.055   3.819   1.253  0.2944  0.8010 -0.1461
 1944TIP3    H127467   0.096   3.735   1.232  0.9744  1.4262 -1.4210
 1944TIP3    H227468  -0.006   3.835   1.181 -0.9453  0.7218  0.8425
 1945TIP3   OH227469   5.697   5.313   1.366  0.3677  0.0816  0.2550
 1945TIP3    H127470   5.672   5.359   1.287 -2.7482  1.1512  1.6788
 1945TIP3    H227471   5.708   5.222   1.339 -2.7744 -0.0030 -1.1579
 1946TIP3   OH227472   5.793   2.814   1.740 -0.0486  0.4223  0.4187
 1946TIP3    H127473   5.861   2.833   1.804 -0.0126 -0.7630  0.7559
 1946TIP3    H227474   5.836   2.824   1.655  1.2169 -2.3561  0.6173
 1947TIP3   OH227475   2.767   4.624   2.330  0.1004  0.4490  0.2105
 1947TIP3    H127476   2.727   4.546   2.368  1.2427 -0.6700 -0.8203
 1947TIP3    H227477   2.768   4.688   2.402  0.4448 -0.9438  1.4766
 1948TIP3   OH227478   2.348   5.478   0.747 -0.3588  0.0076 -0.1878
 1948TIP3    H127479   2.419   5.415   0.731 -0.6713 -0.0416 -1.5434
 1948TIP3    H227480   2.305   5.486   0.662 -1.3068  0.8639  0.3614
 1949TIP3   OH227481   4.370   2.829   1.010 -0.0972  0.1502  0.3201
 1949TIP3    H127482   4.325   2.844   0.927  1.8884 -0.6300 -0.9586
 1949TIP3    H227483   4.349   2.739   1.033 -0.2132  0.1951  0.3915
 1950TIP3   OH227484   0.164   0.147   8.413 -0.0142 -0.4735  0.1265
 1950TIP3    H127485   0.099   0.175   8.477  0.7316 -1.3155  1.2917
 1950TIP3    H227486   0.147   0.054   8.401 -0.1672 -0.3173 -0.9477
 1951TIP3   OH227487   5.582   3.395   1.705 -0.3157 -0.5949 -0.1366
 1951TIP3    H127488   5.555   3.326   1.765  0.9152 -1.0743 -0.1070
 1951TIP3    H227489   5.512   3.460   1.711 -0.0484 -0.4271  2.1509
 1952TIP3   OH227490   2.683   6.132   8.011 -0.0505 -0.0636 -0.3930
 1952TIP3    H127491   2.725   6.057   8.054  3.8122  2.8777  1.5934
 1952TIP3    H227492   2.627   6.169   8.079  0.2070  0.3922 -0.4299
 1953TIP3   OH227493   1.135   1.805   2.415 -0.0605 -0.5099  0.0276
 1953TIP3    H127494   1.179   1.776   2.335  1.2471  1.2244  0.0493
 1953TIP3    H227495   1.205   1.810   2.480 -0.8027 -0.2938  0.8186
 1954TIP3   OH227496   4.402   4.754   8.555  0.0139  0.1321 -0.2832
 1954TIP3    H127497   4.409   4.798   8.470 -0.8174  0.3647 -0.2396
 1954TIP3    H227498   4.472   4.793   8.608  0.3414  0.2052 -0.7645
 1955TIP3   OH227499   2.233   3.864   1.083  0.5368  0.0956  0.0897
 1955TIP3    H127500   2.192   3.778   1.091  0.0818  0.2038 -0.9521
 1955TIP3    H227501   2.165   3.919   1.045  0.8539  0.8962  0.6680
 1956TIP3   OH227502   3.832   6.618   2.925 -0.8555 -0.0384 -0.4180
 1956TIP3    H127503   3.887   6.659   2.991 -1.4065  0.1543 -0.0687
 1956TIP3    H227504   3.744   6.654   2.941 -1.1086 -0.4346 -0.8777
 1957TIP3   OH227505   5.152   3.150   2.307  0.3871 -0.4061 -0.2000
 1957TIP3    H127506   5.145   3.195   2.391 -1.6212 -0.3699 -0.3444
 1957TIP3    H227507   5.178   3.061   2.330  2.7992  0.3111  0.1978
 1958TIP3   OH227508   1.230   0.742   2.347  0.5590  0.3029  0.5026
 1958TIP3    H127509   1.274   0.824   2.367 -1.4108  1.1871  1.4682
 1958TIP3    H227510   1.140   0.754   2.378  0.1994 -2.2178  0.7001
 1959TIP3   OH227511   5.017   6.608   0.970  0.2926 -0.5491  0.8287
 1959TIP3    H127512   4.959   6.533   0.956 -1.6020  0.4547  2.6941
 1959TIP3    H227513   4.986   6.647   1.051 -0.6905  3.8314 -1.3273
 1960TIP3   OH227514   3.572   0.067   0.872  0.4859  0.3934 -0.0343
 1960TIP3    H127515   3.552   0.160   0.870 -1.2581  0.1039 -3.8734
 1960TIP3    H227516   3.615   0.049   0.788  0.9510 -2.2532  0.6613
 1961TIP3   OH227517   0.241   3.240   1.756 -0.0880  0.1444  0.1817
 1961TIP3    H127518   0.236   3.308   1.824 -1.3201  1.2907 -0.9866
 1961TIP3    H227519   0.189   3.168   1.791 -1.3890  1.0332  0.1535
 1962TIP3   OH227520   6.551   3.613   2.220 -0.6680  0.3536 -0.7547
 1962TIP3    H127521   6.617   3.679   2.197  1.5241 -0.5633  2.3375
 1962TIP3    H227522   6.473   3.664   2.240  0.7857  2.0734  0.9725
 1963TIP3   OH227523   2.477   1.475   1.223  0.5242 -0.1940  0.1559
 1963TIP3    H127524   2.404   1.460   1.283 -1.3661 -0.1833 -1.9948
 1963TIP3    H227525   2.552   1.432   1.265 -0.4541  0.5294  2.8709
 1964TIP3   OH227526   5.563   4.514   1.051 -0.3264 -0.4599  0.6128
 1964TIP3    H127527   5.537   4.491   0.962  0.0488  0.1464  0.3444
 1964TIP3    H227528   5.652   4.478   1.060  0.1376  0.5724  0.3019
 1965TIP3   OH227529   4.861   4.281   2.573  0.3193  0.3219  0.0833
 1965TIP3    H127530   4.948   4.290   2.611  0.8321 -0.6935 -0.7982
 1965TIP3    H227531   4.877   4.261   2.481 -0.6908 -3.7102  0.5934
 1966TIP3   OH227532   1.073   0.255   0.792 -0.0009  0.1924 -0.2962
 1966TIP3    H127533   1.060   0.257   0.887 -0.9851  2.7354 -0.4058
 1966TIP3    H227534   1.144   0.317   0.776 -0.0901  0.0667 -1.2502
 1967TIP3   OH227535   3.346   5.990   0.445 -0.0090  0.2650 -0.1195
 1967TIP3    H127536   3.305   6.009   0.530 -0.6276 -0.1350 -0.3222
 1967TIP3    H227537   3.283   5.934   0.400 -0.2956  1.5502 -1.3793
 1968TIP3   OH227538   6.332   1.377   1.321 -0.8394  0.2618  0.0158
 1968TIP3    H127539   6.367   1.288   1.322 -1.0889  0.0892 -2.1737
 1968TIP3    H227540   6.371   1.418   1.244 -1.1448  1.9068  0.6768
 1969TIP3   OH227541   0.864   6.686   7.059 -0.1167 -0.1140  0.2900
 1969TIP3    H127542   0.903   6.771   7.077 -0.7332 -0.0291  1.2957
 1969TIP3    H227543   0.902   6.659   6.976  1.8377  0.1129  1.0527
 1970TIP3   OH227544   5.332   2.470   1.016 -0.5077  0.4619 -0.7788
 1970TIP3    H127545   5.356   2.420   1.094  1.4293  2.9897  0.4087
 1970TIP3    H227546   5.404   2.457   0.955 -1.0340  0.1221 -1.3405
 1971TIP3   OH227547   3.343   3.537   7.800  0.7948 -0.0448  0.2254
 1971TIP3    H127548   3.416   3.597   7.786  1.3944 -0.7799  0.1339
 1971TIP3    H227549   3.290   3.545   7.720  1.2477 -0.1583 -0.0895
 1972TIP3   OH227550   4.769   4.173   8.087  0.3176  0.2003 -0.5614
 1972TIP3    H127551   4.839   4.114   8.060 -0.3252 -1.5230  1.3118
 1972TIP3    H227552   4.748   4.223   8.008  2.0439 -0.8707 -1.7709
 1973TIP3   OH227553   2.911   5.510   0.800 -0.5062 -0.2420 -0.3204
 1973TIP3    H127554   2.827   5.476   0.830 -1.3713 -0.5314 -2.7864
 1973TIP3    H227555   2.974   5.441   0.821 -0.7600  0.1114  1.8439
 1974TIP3   OH227556   1.200   4.230   0.048  0.3305  0.1507 -0.4103
 1974TIP3    H127557   1.270   4.230  -0.017  0.1199 -0.2665 -0.6433
 1974TIP3    H227558   1.120   4.236  -0.004  0.0702 -1.8232 -0.3226
 1975TIP3   OH227559   0.991   6.570   0.245  0.1015 -0.1479  0.3125
 1975TIP3    H127560   0.963   6.638   0.184 -1.3175 -0.0757  1.0151
 1975TIP3    H227561   1.058   6.612   0.299 -0.7711  0.7052  0.7538
 1976TIP3   OH227562   5.860   3.805   7.333 -0.8864 -0.1531 -0.5222
 1976TIP3    H127563   5.782   3.795   7.387  0.2216 -0.9698  1.0034
 1976TIP3    H227564   5.853   3.736   7.267 -0.9296 -0.9258  0.2820
 1977TIP3   OH227565   6.655   5.169   1.315 -0.4382  0.5149 -0.1963
 1977TIP3    H127566   6.706   5.113   1.256 -0.0613 -0.4154  0.9721
 1977TIP3    H227567   6.657   5.123   1.399 -1.7261  1.3557  0.3177
 1978TIP3   OH227568   6.330   3.935   0.714 -0.1031  0.3119  0.2912
 1978TIP3    H127569   6.376   3.870   0.768  1.2046  0.7372 -0.2628
 1978TIP3    H227570   6.239   3.904   0.711  0.2163 -0.7693  1.1152
 1979TIP3   OH227571   1.410   6.243   8.011  0.3891 -0.3664 -0.1655
 1979TIP3    H127572   1.495   6.279   8.037 -0.6610  3.4429 -1.2846
 1979TIP3    H227573   1.406   6.255   7.916 -1.5324  0.0348 -0.0889
 1980TIP3   OH227574   1.023   5.445   2.368  0.2128  0.3216 -0.0193
 1980TIP3    H127575   1.047   5.500   2.294 -1.1489  0.9996  0.0022
 1980TIP3    H227576   0.951   5.492   2.410  0.7717 -0.1887  1.5782
 1981TIP3   OH227577   2.944   3.847   8.635  0.6269  0.1409  0.1391
 1981TIP3    H127578   2.872   3.785   8.650  0.4107  0.4423  0.3638
 1981TIP3    H227579   2.901   3.930   8.616  0.9163  0.1501 -0.5068
 1982TIP3   OH227580   1.234   5.007   0.648  0.1854  0.5512  0.3900
 1982TIP3    H127581   1.279   5.091   0.656  0.6433  0.9941 -4.1714
 1982TIP3    H227582   1.272   4.967   0.569 -1.6431 -2.9083  1.0604
 1983TIP3   OH227583   4.775   5.455   2.122 -0.5029  0.7233 -0.0394
 1983TIP3    H127584   4.697   5.427   2.075 -0.2906  0.3306 -0.1616
 1983TIP3    H227585   4.747   5.530   2.174 -0.8851  0.7676 -0.3170
 1984TIP3   OH227586   2.567   5.014   0.559 -0.3260  0.5899  0.6481
 1984TIP3    H127587   2.590   4.965   0.480 -0.3083  1.0058  0.3855
 1984TIP3    H227588   2.481   4.979   0.584 -0.2378  0.3111  0.5622
 1985TIP3   OH227589   0.444   5.205   0.859  0.0250  0.1662  0.5354
 1985TIP3    H127590   0.351   5.227   0.852  0.2532  0.7054 -0.9766
 1985TIP3    H227591   0.486   5.288   0.885 -0.0323 -0.3619  2.4873
 1986TIP3   OH227592   5.331   3.607   2.575 -0.0227 -0.4439  0.2248
 1986TIP3    H127593   5.405   3.661   2.602 -0.7049  1.4675 -1.4391
 1986TIP3    H227594   5.254   3.660   2.596 -0.8384 -1.6274  0.3073
 1987TIP3   OH227595   3.834   3.652   0.354  0.0413  0.6480 -0.1281
 1987TIP3    H127596   3.788   3.694   0.282 -1.2350 -0.2860  0.0803
 1987TIP3    H227597   3.764   3.625   0.414  1.1294  2.7475  2.2502
 1988TIP3   OH227598   3.522   4.271   1.510  0.0696 -0.4579 -0.0173
 1988TIP3    H127599   3.473   4.352   1.496 -0.4580 -0.6515  0.6580
 1988TIP3    H227600   3.472   4.223   1.576  0.2827 -1.4210 -0.5345
 1989TIP3   OH227601   5.624   0.407   8.409 -0.4160  0.4058 -0.0699
 1989TIP3    H127602   5.603   0.426   8.318 -1.3360  2.1952  0.4561
 1989TIP3    H227603   5.541   0.417   8.456  0.5317  2.4453  1.3312
 1990TIP3   OH227604   2.701   5.670   0.024  0.1168 -0.0957 -0.1646
 1990TIP3    H127605   2.771   5.722   0.066 -1.0204  1.4878 -0.1326
 1990TIP3    H227606   2.668   5.615   0.095 -1.4800  2.2313  1.0302
 1991TIP3   OH227607   2.891   3.289   0.514 -0.7350  0.0937  0.0618
 1991TIP3    H127608   2.935   3.334   0.442 -1.5346 -0.4866 -0.8142
 1991TIP3    H227609   2.954   3.292   0.586  0.4661 -0.1093 -0.9361
 1992TIP3   OH227610   4.430   1.897   1.245 -0.2818  0.5467 -0.3907
 1992TIP3    H127611   4.477   1.828   1.199 -0.7899  0.2781 -0.5201
 1992TIP3    H227612   4.447   1.976   1.193 -2.2683 -0.0594 -2.1061
 1993TIP3   OH227613   0.619   5.183   8.235 -0.2683  0.3415  0.4969
 1993TIP3    H127614   0.632   5.194   8.329  0.5686 -2.0701  0.7299
 1993TIP3    H227615   0.602   5.090   8.224  1.6677  0.1713 -1.9404
 1994TIP3   OH227616   1.931   4.996   0.553 -0.0483 -0.1215  0.1252
 1994TIP3    H127617   1.969   5.016   0.639 -0.4602 -3.1893  1.1815
 1994TIP3    H227618   2.005   4.996   0.493  1.1589 -2.4876  1.4597
 1995TIP3   OH227619   5.233   0.276   8.735  0.6101 -0.7510  0.1931
 1995TIP3    H127620   5.186   0.311   8.810 -2.6910 -1.5555 -1.3438
 1995TIP3    H227621   5.257   0.186   8.760 -0.7586 -1.1228  0.2200
 1996TIP3   OH227622   5.687   2.050   8.649  0.2710  0.5024  0.1836
 1996TIP3    H127623   5.695   2.096   8.565 -1.2061 -0.3825 -0.4877
 1996TIP3    H227624   5.764   1.993   8.653  0.2549  0.4051 -0.6725
 1997TIP3   OH227625   0.705   2.543   3.298 -0.0843  0.8402 -0.2021
 1997TIP3    H127626   0.631   2.541   3.359  0.1981  0.6908  0.1449
 1997TIP3    H227627   0.770   2.598   3.342  0.6951 -0.4398  0.3081
 1998TIP3   OH227628   1.607   2.201   1.519 -0.1312  0.0157 -0.0870
 1998TIP3    H127629   1.701   2.199   1.536  0.2108  0.1207 -1.7495
 1998TIP3    H227630   1.570   2.136   1.578  0.7184  1.2691  1.9490
 1999TIP3   OH227631   2.833   1.412   0.468  0.5769  0.1862  0.1615
 1999TIP3    H127632   2.920   1.451   0.459  0.5576  0.1000 -0.4431
 1999TIP3    H227633   2.839   1.359   0.547  1.6396 -1.2527 -0.8212
 2000TIP3   OH227634   2.447   6.331   0.948  0.0054 -0.3858  0.1288
 2000TIP3    H127635   2.521   6.364   0.897 -0.2262  2.0136  1.2010
 2000TIP3    H227636   2.484   6.308   1.033 -0.5690  2.0219  1.1142
 2001TIP3   OH227637   5.250   6.431   2.085  0.1242  1.0110 -0.1010
 2001TIP3    H127638   5.194   6.374   2.033 -1.0543  0.8935  1.2163
 2001TIP3    H227639   5.339   6.408   2.059 -0.2450 -2.0311  0.8692
 2002TIP3   OH227640   3.748   3.072   2.042  0.0546 -0.0167  0.2250
 2002TIP3    H127641   3.780   3.080   1.952  1.5598  2.3079  0.8869
 2002TIP3    H227642   3.659   3.107   2.039  0.2023  0.3296 -0.3264
 2003TIP3   OH227643   3.434   4.696   0.491  0.4217  0.1437 -0.1033
 2003TIP3    H127644   3.434   4.782   0.449  0.0261 -0.3276 -1.1003
 2003TIP3    H227645   3.521   4.688   0.529  0.4930  0.9437 -0.0742
 2004TIP3   OH227646   6.702   0.135   2.050 -0.2259 -0.1491 -0.1287
 2004TIP3    H127647   6.629   0.086   2.013 -1.0113  0.8544  0.0580
 2004TIP3    H227648   6.682   0.142   2.143 -0.2790  0.7738 -0.2016
 2005TIP3   OH227649   0.277   2.469   8.609 -0.6078 -0.2530 -0.3873
 2005TIP3    H127650   0.208   2.501   8.667  0.1250 -0.8256  0.8629
 2005TIP3    H227651   0.357   2.479   8.660 -0.2067 -3.0694 -0.2744
 2006TIP3   OH227652   5.809   0.596   0.047 -0.3980  0.1340 -0.3719
 2006TIP3    H127653   5.852   0.674   0.012 -0.9194  0.3459 -0.5488
 2006TIP3    H227654   5.870   0.563   0.114 -0.1876  0.7084 -0.2759
 2007TIP3   OH227655   6.457   1.971   2.691 -0.0969 -0.0569  0.0876
 2007TIP3    H127656   6.455   1.877   2.710  0.8528 -0.3515 -1.0805
 2007TIP3    H227657   6.386   1.984   2.628 -0.5640  0.1197  0.6421
 2008TIP3   OH227658   2.970   0.694   0.281  0.3339  0.0700 -0.3003
 2008TIP3    H127659   2.893   0.730   0.325 -0.0563 -1.8301  0.6389
 2008TIP3    H227660   3.040   0.699   0.347  0.5920  0.2440 -0.5836
 2009TIP3   OH227661   3.642   3.584   2.558  0.0916  0.5842  0.0858
 2009TIP3    H127662   3.643   3.610   2.466 -0.6895  0.0138 -0.0924
 2009TIP3    H227663   3.558   3.617   2.591  0.7282  1.5316  0.8286
 2010TIP3   OH227664   4.636   5.725   2.147 -0.2684  0.5016 -0.2019
 2010TIP3    H127665   4.690   5.760   2.218 -1.2662  0.8450  0.4045
 2010TIP3    H227666   4.601   5.802   2.102  0.3111  0.2853 -1.0429
 2011TIP3   OH227667   1.024   1.262   1.834 -0.1481  0.5770 -0.4420
 2011TIP3    H127668   1.045   1.254   1.927 -0.4215 -0.1432 -0.4399
 2011TIP3    H227669   1.002   1.355   1.823  0.0349  0.6993  0.1763
 2012TIP3   OH227670   2.259   2.885   0.653 -0.1359  0.1028 -0.4120
 2012TIP3    H127671   2.185   2.863   0.710  1.6376  0.0761  2.0319
 2012TIP3    H227672   2.269   2.809   0.596 -1.7392 -0.0437 -0.5449
 2013TIP3   OH227673   2.607   1.337   0.904 -0.6259 -0.0962  0.4046
 2013TIP3    H127674   2.641   1.416   0.947  0.6593 -1.1945  1.4857
 2013TIP3    H227675   2.643   1.264   0.955 -1.8535 -1.4015 -0.5084
 2014TIP3   OH227676   4.440   5.035   1.444  0.4627  0.5121 -0.4645
 2014TIP3    H127677   4.415   4.963   1.386  2.5897 -1.0904  0.4777
 2014TIP3    H227678   4.374   5.102   1.429 -0.1087 -0.5617 -3.3467
 2015TIP3   OH227679   5.291   0.170   2.544 -0.1910 -0.1496 -1.0635
 2015TIP3    H127680   5.225   0.180   2.476 -0.8250  1.8239 -0.2387
 2015TIP3    H227681   5.298   0.257   2.584 -0.9883 -1.5251  2.4225
 2016TIP3   OH227682   1.344   0.174   1.334  0.0316  0.2999  0.1170
 2016TIP3    H127683   1.293   0.094   1.322 -2.3886  1.7180  0.3655
 2016TIP3    H227684   1.435   0.144   1.336 -0.7339 -2.3282 -0.5910
 2017TIP3   OH227685   4.820   6.687   7.416  0.2233  0.0949  0.3280
 2017TIP3    H127686   4.767   6.620   7.460  0.2651 -0.5141 -0.5245
 2017TIP3    H227687   4.900   6.641   7.389  2.4357  1.5350  3.7816
 2018TIP3   OH227688   0.206   3.151   0.400 -0.3413  0.2288  0.2039
 2018TIP3    H127689   0.198   3.246   0.404 -0.7197  0.2021  0.0955
 2018TIP3    H227690   0.228   3.132   0.309 -0.7523  0.1775  0.1145
 2019TIP3   OH227691   2.204   1.795   1.846  0.6531 -0.7724  0.3387
 2019TIP3    H127692   2.157   1.825   1.924  1.0898  2.8626 -0.6252
 2019TIP3    H227693   2.293   1.781   1.876  0.5820 -0.4401  0.7126
 2020TIP3   OH227694   4.039   0.373   2.857  0.0765 -0.0844  0.5551
 2020TIP3    H127695   4.114   0.392   2.801 -1.7315  2.0957 -1.3973
 2020TIP3    H227696   4.057   0.421   2.937  0.6085  0.7818 -0.0559
 2021TIP3   OH227697   5.081   5.083   0.644 -0.3748 -0.1905 -0.4527
 2021TIP3    H127698   5.083   4.988   0.631  0.4264 -0.3208  0.4706
 2021TIP3    H227699   5.031   5.116   0.570 -0.5577 -1.3203 -0.8637
 2022TIP3   OH227700   4.878   1.955   0.790 -0.0403  0.0089 -0.1412
 2022TIP3    H127701   4.826   1.996   0.720 -2.3631 -0.0246  1.4478
 2022TIP3    H227702   4.863   1.861   0.779  0.7897 -0.0932 -0.4557
 2023TIP3   OH227703   0.124   5.326   0.778  0.6033  0.4324  0.1460
 2023TIP3    H127704   0.092   5.259   0.839 -1.1462 -0.3105 -1.5086
 2023TIP3    H227705   0.157   5.276   0.703 -1.0180  1.3729 -1.2490
 2024TIP3   OH227706   4.881   0.781   1.705  0.5322 -0.1227 -0.0831
 2024TIP3    H127707   4.813   0.774   1.773  1.3686  0.0363  0.7897
 2024TIP3    H227708   4.962   0.757   1.750  1.1122  0.0427 -1.0235
 2025TIP3   OH227709   6.707   6.514   8.336 -0.0478  0.0368  0.6630
 2025TIP3    H127710   6.635   6.552   8.285 -0.7074 -0.1404  1.4473
 2025TIP3    H227711   6.786   6.543   8.290 -0.6149  0.0146 -0.3729
 2026TIP3   OH227712   3.049   6.047   1.344 -0.4733  0.0555 -0.2318
 2026TIP3    H127713   3.032   6.084   1.430 -1.0460 -0.4056 -0.1401
 2026TIP3    H227714   3.028   6.117   1.282  3.3119  1.6879  0.0527
 2027TIP3   OH227715   1.132   0.879   7.873 -0.1241  0.1138 -0.7044
 2027TIP3    H127716   1.190   0.951   7.851  1.2117 -0.8977 -0.6523
 2027TIP3    H227717   1.071   0.915   7.937  1.8681  0.6949  0.9909
 2028TIP3   OH227718   2.400   6.479   8.045  0.2304  0.0276 -0.0509
 2028TIP3    H127719   2.454   6.518   7.976 -1.4108  0.9123 -0.8993
 2028TIP3    H227720   2.365   6.554   8.094 -0.0521 -0.5224  0.6153
 2029TIP3   OH227721   3.410   6.165   0.867 -0.3225  0.3611  0.2787
 2029TIP3    H127722   3.458   6.184   0.947 -0.5367 -2.2093  1.0951
 2029TIP3    H227723   3.322   6.200   0.883  0.1133  1.4827  0.3684
 2030TIP3   OH227724   4.032   3.037   8.818  0.2311  0.0124  0.0807
 2030TIP3    H127725   4.096   2.984   8.771  0.4702 -1.0824  1.5812
 2030TIP3    H227726   3.954   3.033   8.763  0.3149 -1.7305  0.0283
 2031TIP3   OH227727   1.502   5.793   8.434 -0.3248 -0.4782  0.0906
 2031TIP3    H127728   1.452   5.742   8.371  0.3820  0.8132 -1.5831
 2031TIP3    H227729   1.542   5.863   8.383  0.3050  0.6248  1.9753
 2032TIP3   OH227730   2.783   4.088   8.585  0.3479  0.4215 -0.3434
 2032TIP3    H127731   2.778   4.105   8.491  2.6666  0.8262 -0.4482
 2032TIP3    H227732   2.794   4.175   8.624  1.6250  0.0932  0.0755
 2033TIP3   OH227733   1.680   5.254   7.987 -0.1040  0.2820 -0.6348
 2033TIP3    H127734   1.645   5.314   8.053  0.3123 -0.4462  0.2694
 2033TIP3    H227735   1.644   5.286   7.904 -0.6662  1.1919 -0.0605
 2034TIP3   OH227736   3.157   3.627   8.283  0.0733 -0.3275 -0.6401
 2034TIP3    H127737   3.140   3.676   8.363 -0.7953  1.7379 -1.9944
 2034TIP3    H227738   3.072   3.591   8.258 -0.3399  1.4643 -2.0711
 2035TIP3   OH227739   3.712   5.887   0.997  0.7605 -0.0706 -0.4538
 2035TIP3    H127740   3.673   5.813   0.952 -0.2783  0.7699 -0.9681
 2035TIP3    H227741   3.783   5.916   0.940  0.4797 -0.0104 -0.7751
 2036TIP3   OH227742   5.711   3.998   2.443  0.0538  0.0431 -0.1839
 2036TIP3    H127743   5.752   3.941   2.508 -0.2046  0.4445  0.3415
 2036TIP3    H227744   5.780   4.059   2.417  0.3893 -0.6383 -0.9026
 2037TIP3   OH227745   2.511   4.387   8.714  0.0890 -0.7636  0.1657
 2037TIP3    H127746   2.502   4.372   8.619  3.4238  1.1701 -0.6225
 2037TIP3    H227747   2.461   4.466   8.731  1.5761  0.3998 -0.6184
 2038TIP3   OH227748   0.346   0.455   8.832 -0.5925  0.3328  0.8289
 2038TIP3    H127749   0.321   0.394   8.902 -0.1532 -1.9350 -0.8783
 2038TIP3    H227750   0.442   0.453   8.833 -0.3833 -3.2988 -2.5161
 2039TIP3   OH227751   5.929   4.646   0.593 -0.3865  0.0254 -0.2229
 2039TIP3    H127752   5.975   4.566   0.571 -1.0048 -0.3475 -0.1691
 2039TIP3    H227753   5.953   4.663   0.685 -1.3062 -0.8340  0.1919
 2040TIP3   OH227754   2.045   2.064   1.694  0.0476 -0.0643 -0.4004
 2040TIP3    H127755   2.132   2.102   1.693 -0.3710  1.1749  1.8817
 2040TIP3    H227756   2.054   1.980   1.648  2.2803  0.3089 -0.7385
 2041TIP3   OH227757   2.116   5.889   2.119  0.6188 -0.1558 -0.0696
 2041TIP3    H127758   2.096   5.799   2.092  1.4873 -0.4886  0.3648
 2041TIP3    H227759   2.210   5.889   2.135  1.0325  1.3900 -2.1289
 2042TIP3   OH227760   6.700   6.171   1.560  0.1104  0.3330 -0.0025
 2042TIP3    H127761   6.606   6.189   1.553  0.1958  0.7499 -0.1284
 2042TIP3    H227762   6.705   6.089   1.608 -0.2852  0.8026  0.8693
 2043TIP3   OH227763   0.346   1.296   1.474  0.1627  0.2177 -0.8317
 2043TIP3    H127764   0.413   1.324   1.537  1.5124 -0.8055 -1.7525
 2043TIP3    H227765   0.283   1.368   1.471 -0.5430 -0.0969  2.4419
 2044TIP3   OH227766   0.487   3.470   8.016  0.1968  0.5478  0.0948
 2044TIP3    H127767   0.457   3.386   7.981  0.5424  0.8280 -0.9289
 2044TIP3    H227768   0.558   3.446   8.076 -1.0643 -0.0128  1.4231
 2045TIP3   OH227769   4.404   5.329   1.138  0.6430 -0.0273  0.8019
 2045TIP3    H127770   4.434   5.281   1.215  1.2088  0.3940  0.8478
 2045TIP3    H227771   4.444   5.284   1.064  2.2501  1.1262  0.9192
 2046TIP3   OH227772   1.989   3.498   7.084  0.1271  0.2804 -0.6093
 2046TIP3    H127773   1.958   3.513   6.995 -0.5179 -0.8287 -0.5952
 2046TIP3    H227774   1.960   3.576   7.132 -1.9134 -0.2816 -0.8106
 2047TIP3   OH227775   1.212   5.642   2.508 -0.1105 -0.5790 -0.0048
 2047TIP3    H127776   1.128   5.632   2.553  0.1191 -0.9573  0.3457
 2047TIP3    H227777   1.254   5.716   2.553 -0.3887 -0.1721 -0.3977
 2048TIP3   OH227778   4.934   6.748   0.700 -0.3700 -0.3378  0.2835
 2048TIP3    H127779   4.935   6.684   0.771  0.6109 -1.5483 -0.7724
 2048TIP3    H227780   4.867   6.717   0.640 -0.7729  0.3509  0.3604
 2049TIP3   OH227781   0.083   0.947   8.201  0.0757 -0.6862 -0.7323
 2049TIP3    H127782   0.029   1.023   8.224  0.2163 -1.1546  1.3445
 2049TIP3    H227783   0.021   0.879   8.178 -0.1614 -0.6485 -0.2222
 2050TIP3   OH227784   0.688   0.057   1.540 -0.4388  0.0820  0.4274
 2050TIP3    H127785   0.616   0.052   1.476 -0.1647 -1.2595  0.1946
 2050TIP3    H227786   0.664  -0.007   1.607  0.4144 -0.2048  0.4690
 2051TIP3   OH227787   6.487   4.690   1.802  0.1485  0.2458 -0.6305
 2051TIP3    H127788   6.494   4.774   1.847 -2.2506  0.9549 -1.4295
 2051TIP3    H227789   6.573   4.650   1.811  0.4867  1.4391  2.3930
 2052TIP3   OH227790   0.203   6.110   1.953  0.0781 -0.6638  0.9492
 2052TIP3    H127791   0.292   6.123   1.922 -1.1138  0.7225 -2.2365
 2052TIP3    H227792   0.207   6.026   2.000  2.6030 -1.8056 -1.0403
 2053TIP3   OH227793   4.438   1.098   8.395 -0.1321 -0.4471  0.4851
 2053TIP3    H127794   4.400   1.148   8.322 -0.6846 -2.0842 -0.3924
 2053TIP3    H227795   4.364   1.053   8.435  0.7250 -3.6071 -1.1876
 2054TIP3   OH227796   4.570   2.947   8.422 -0.4784  0.6604  0.1731
 2054TIP3    H127797   4.566   2.879   8.489 -0.5133  0.3620 -0.1265
 2054TIP3    H227798   4.663   2.965   8.411 -0.4152  0.0464 -0.3528
 2055TIP3   OH227799   5.300   4.926   2.266  0.0487 -0.2881 -0.1734
 2055TIP3    H127800   5.345   4.969   2.338 -0.4157 -0.9250  0.5063
 2055TIP3    H227801   5.228   4.985   2.244  0.2166 -0.0723 -0.1485
 2056TIP3   OH227802   6.223   6.543   1.868 -0.0173 -0.8286  0.3275
 2056TIP3    H127803   6.219   6.469   1.929 -1.0407 -0.2349  1.0048
 2056TIP3    H227804   6.265   6.507   1.790  2.5123 -1.2976  1.8002
 2057TIP3   OH227805   2.136   4.232   1.368 -0.3085 -0.0278 -0.3902
 2057TIP3    H127806   2.066   4.294   1.348 -1.3175 -0.5922  1.2071
 2057TIP3    H227807   2.102   4.147   1.339 -1.1824 -0.6194  2.0952
 2058TIP3   OH227808   1.562   3.444   8.564  0.1808  0.2940 -0.0248
 2058TIP3    H127809   1.520   3.463   8.648  1.9967  2.2393  0.5359
 2058TIP3    H227810   1.656   3.452   8.582  0.8352 -2.5652 -1.5228
 2059TIP3   OH227811   2.589   6.442   7.457  0.5381 -0.0640  0.3648
 2059TIP3    H127812   2.516   6.395   7.497  0.7530 -0.3298  0.4483
 2059TIP3    H227813   2.553   6.527   7.431 -0.0124 -0.5107 -0.3660
 2060TIP3   OH227814   4.243   1.623   0.735  0.2001  0.1813  1.0836
 2060TIP3    H127815   4.184   1.557   0.699 -1.1210  0.4555  2.6416
 2060TIP3    H227816   4.327   1.578   0.745  0.0853 -0.4257 -0.4932
 2061TIP3   OH227817   5.866   6.175   1.740  0.4683  0.0262 -0.3098
 2061TIP3    H127818   5.808   6.182   1.816  0.2463 -0.1217 -0.4652
 2061TIP3    H227819   5.955   6.177   1.777  0.5023  3.4500 -0.2510
 2062TIP3   OH227820   4.367   5.815   1.132  0.6586  0.1549 -0.2492
 2062TIP3    H127821   4.367   5.774   1.219 -0.2237  0.3322 -0.1517
 2062TIP3    H227822   4.415   5.754   1.077  0.2274 -0.5350  0.1127
 2063TIP3   OH227823   0.833   0.351   8.140 -0.1108  0.2686 -0.4812
 2063TIP3    H127824   0.900   0.364   8.073  0.2855  1.0176  0.0440
 2063TIP3    H227825   0.851   0.264   8.176 -0.1853 -0.0433 -1.1724
 2064TIP3   OH227826   5.352   4.635   7.995  0.3299  0.4570 -0.3916
 2064TIP3    H127827   5.363   4.693   7.920 -0.0528  0.9129 -0.0941
 2064TIP3    H227828   5.257   4.621   8.001  0.4897 -1.8414 -1.7061
 2065TIP3   OH227829   0.378   5.332   2.633  0.1570 -0.5404 -0.0636
 2065TIP3    H127830   0.368   5.425   2.655  0.3744 -0.4454 -0.3563
 2065TIP3    H227831   0.302   5.311   2.578 -0.1326 -0.6545  0.3744
 2066TIP3   OH227832   4.274   6.069   8.598 -0.0842  0.0531  0.0452
 2066TIP3    H127833   4.293   5.977   8.580  0.0032 -0.2384  1.5051
 2066TIP3    H227834   4.360   6.107   8.618 -0.2895  0.1184  0.8196
 2067TIP3   OH227835   0.028   6.622   8.724 -0.5431  0.0379 -0.0065
 2067TIP3    H127836   0.003   6.530   8.719 -0.6284 -0.0015  1.0295
 2067TIP3    H227837   0.015   6.655   8.635  1.5411 -1.4545 -0.9377
 2068TIP3   OH227838   6.469   4.046   2.385 -0.5010 -0.1630 -0.7399
 2068TIP3    H127839   6.441   4.121   2.332  3.0269  0.8038 -1.5106
 2068TIP3    H227840   6.414   4.050   2.463 -2.6329  1.2217 -2.2016
 2069TIP3   OH227841   5.538   1.667   7.512  0.1744  0.1182  0.4166
 2069TIP3    H127842   5.529   1.590   7.455  1.2919 -0.9113  1.5711
 2069TIP3    H227843   5.632   1.687   7.510  0.4173 -0.5411  2.5931
 2070TIP3   OH227844   6.194   3.860   1.270 -0.3758 -0.5268  0.3700
 2070TIP3    H127845   6.120   3.808   1.303 -0.2560 -1.1385 -0.3029
 2070TIP3    H227846   6.251   3.870   1.346 -0.9100 -0.4663  0.7753
 2071TIP3   OH227847   6.699   4.990   1.010  0.3588 -0.1580  0.0282
 2071TIP3    H127848   6.678   4.897   0.999 -0.4955  0.1439 -1.1222
 2071TIP3    H227849   6.752   4.993   1.089 -0.9819 -1.4232  1.0427
 2072TIP3   OH227850   0.878   1.553   0.868 -0.9358 -0.2224 -0.4604
 2072TIP3    H127851   0.879   1.616   0.796 -0.5322  1.1331  0.6984
 2072TIP3    H227852   0.788   1.557   0.902 -0.8764 -0.1777 -0.3077
 2073TIP3   OH227853   0.981   6.777   0.047 -0.4941 -0.5557 -0.1216
 2073TIP3    H127854   1.071   6.794   0.074 -0.7638  0.8305 -0.0509
 2073TIP3    H227855   0.984   6.775  -0.048 -0.5153  0.3223 -0.1487
 2074TIP3   OH227856   5.501   3.460   7.367  0.0759  0.5440  0.5238
 2074TIP3    H127857   5.567   3.409   7.320 -0.4608 -0.1567  0.5189
 2074TIP3    H227858   5.418   3.421   7.341 -0.2482  0.2982  1.8612
 2075TIP3   OH227859   4.736   4.993   7.566 -0.1637  0.4461 -0.1170
 2075TIP3    H127860   4.682   4.950   7.632  0.2332  0.7945  0.4373
 2075TIP3    H227861   4.746   4.927   7.497  1.8737 -1.0376  1.4887
 2076TIP3   OH227862   6.375   3.835   2.918 -0.3508  0.4331 -0.3088
 2076TIP3    H127863   6.336   3.915   2.954  0.0214  0.5308 -0.1106
 2076TIP3    H227864   6.468   3.843   2.939 -0.0800  0.6082 -1.5194
 2077TIP3   OH227865   0.184   4.349   7.513 -0.2343  0.5455 -0.0338
 2077TIP3    H127866   0.269   4.359   7.470 -0.3737 -2.5170 -1.3401
 2077TIP3    H227867   0.122   4.339   7.441 -1.3593  0.6963  0.8954
 2078TIP3   OH227868   3.549   1.480   0.443 -0.2601 -0.1470 -0.1854
 2078TIP3    H127869   3.551   1.462   0.537 -0.0791  0.8307  0.0187
 2078TIP3    H227870   3.592   1.405   0.402 -0.2175 -0.5139  0.5259
 2079TIP3   OH227871   0.193   6.230   8.110  0.0624 -0.3797 -0.2332
 2079TIP3    H127872   0.163   6.294   8.046  0.6465  0.6029  0.4398
 2079TIP3    H227873   0.114   6.203   8.156 -0.0350  1.0999  0.5516
 2080TIP3   OH227874   6.615   2.743   0.995  0.2532  0.0696  0.8738
 2080TIP3    H127875   6.691   2.796   0.972 -0.4088  0.7247  0.1545
 2080TIP3    H227876   6.586   2.706   0.912  1.8255 -3.0309  1.5504
 2081TIP3   OH227877   0.567   0.705   8.235  0.3748  0.1339 -0.2815
 2081TIP3    H127878   0.492   0.764   8.228 -0.5780 -0.5174  2.8953
 2081TIP3    H227879   0.550   0.636   8.171 -1.3776  0.3857 -0.1320
 2082TIP3   OH227880   6.111   3.164   7.255 -0.6663 -0.1759  0.2554
 2082TIP3    H127881   6.073   3.077   7.245  1.4133 -1.2251  0.7998
 2082TIP3    H227882   6.193   3.161   7.206  0.9082  0.4336  2.6251
 2083TIP3   OH227883   4.112   2.472   8.829  0.5558  0.3799 -0.0299
 2083TIP3    H127884   4.190   2.480   8.774 -0.1282  0.6902 -0.9682
 2083TIP3    H227885   4.110   2.553   8.879  2.0268 -0.5296  1.6406
 2084TIP3   OH227886   0.578   6.613   2.087  0.0957  0.2516  0.4691
 2084TIP3    H127887   0.589   6.705   2.112 -0.4348  0.4263  0.0690
 2084TIP3    H227888   0.666   6.585   2.063  0.3478  0.5175  1.0432
 2085TIP3   OH227889   0.792   3.347   1.915  0.0901 -0.0781 -0.3494
 2085TIP3    H127890   0.740   3.289   1.971  0.2091 -1.3244 -1.4669
 2085TIP3    H227891   0.862   3.380   1.971 -1.1720  0.6353  0.8531
 2086TIP3   OH227892   3.628   5.369   1.119  0.5764 -0.0328 -0.9645
 2086TIP3    H127893   3.561   5.318   1.164  2.1734 -1.7189 -0.4299
 2086TIP3    H227894   3.635   5.329   1.032  1.0372  0.0014 -0.9466
 2087TIP3   OH227895   1.738   4.795   1.961 -0.7913 -0.4097  0.7454
 2087TIP3    H127896   1.791   4.782   2.040  0.2851 -1.5679 -0.1314
 2087TIP3    H227897   1.798   4.775   1.889 -2.2376 -1.1011 -0.3045
 2088TIP3   OH227898   3.260   6.319   7.805 -0.1756  0.0796 -0.3189
 2088TIP3    H127899   3.205   6.283   7.875  1.3475 -0.7062  0.5178
 2088TIP3    H227900   3.282   6.407   7.834  1.0600 -0.4972  0.6155
 2089TIP3   OH227901   6.669   4.654   0.446 -0.0607 -0.0718  0.1786
 2089TIP3    H127902   6.616   4.718   0.493  0.5168 -0.2199  1.0403
 2089TIP3    H227903   6.638   4.660   0.356 -1.4768 -0.0693  0.6361
 2090TIP3   OH227904   6.202   5.156   8.338  0.7244 -0.1679 -0.9198
 2090TIP3    H127905   6.234   5.158   8.248  0.2678  0.2085 -1.0754
 2090TIP3    H227906   6.252   5.224   8.383  0.3066  0.2691 -1.1091
 2091TIP3   OH227907   4.912   0.444   7.568  0.4750 -0.0183 -0.1675
 2091TIP3    H127908   4.984   0.381   7.564  1.8177  1.1024  3.2732
 2091TIP3    H227909   4.844   0.400   7.619  1.2400  1.0450  1.8592
 2092TIP3   OH227910   3.481   1.454   2.127 -0.5885 -0.3642  0.5687
 2092TIP3    H127911   3.483   1.547   2.149 -1.2462 -0.0483 -0.5841
 2092TIP3    H227912   3.402   1.421   2.169 -1.6498  0.1578 -0.9187
 2093TIP3   OH227913   5.903   0.851   0.973 -0.1637  0.5679 -0.3470
 2093TIP3    H127914   5.971   0.914   0.951 -0.5916  0.7738 -1.0786
 2093TIP3    H227915   5.840   0.857   0.902 -0.3883 -0.4338 -0.2484
 2094TIP3   OH227916   1.847   0.924   2.001 -0.1317 -0.2656  0.1215
 2094TIP3    H127917   1.886   1.004   2.038 -0.9311 -0.3520  1.2203
 2094TIP3    H227918   1.915   0.888   1.945 -0.2796  1.9776 -1.6291
 2095TIP3   OH227919   1.918   1.276   0.873  0.0900  0.2165 -0.0951
 2095TIP3    H127920   1.965   1.357   0.853 -2.1470  1.1430 -2.0369
 2095TIP3    H227921   1.880   1.291   0.960 -0.3375  1.2959 -0.4559
 2096TIP3   OH227922   6.262   4.125   2.976  0.1284 -0.1349 -0.1722
 2096TIP3    H127923   6.211   4.141   3.055 -1.5890  1.3066 -1.4831
 2096TIP3    H227924   6.322   4.199   2.970  0.6039 -0.5009  0.0353
 2097TIP3   OH227925   4.713   2.877   7.067 -0.3697  0.0694  0.0025
 2097TIP3    H127926   4.790   2.888   7.011  1.3309  1.5356  2.4684
 2097TIP3    H227927   4.658   2.815   7.019  0.9078  1.2516 -3.2800
 2098TIP3   OH227928   0.698   2.015   7.743 -0.4115 -0.1866  0.1612
 2098TIP3    H127929   0.603   2.019   7.732 -0.2468 -0.1598 -1.4075
 2098TIP3    H227930   0.712   2.026   7.838 -1.8651  1.3654  0.2301
 2099TIP3   OH227931   3.566   4.181   0.983  0.4231 -0.1329  0.3365
 2099TIP3    H127932   3.622   4.207   1.056  0.5869  0.1840  0.1029
 2099TIP3    H227933   3.597   4.234   0.910  0.0217 -0.1843  0.1274
 2100TIP3   OH227934   6.521   4.373   0.789 -0.1958  0.2004 -0.2275
 2100TIP3    H127935   6.537   4.290   0.834  0.1986  0.6833  0.5437
 2100TIP3    H227936   6.569   4.365   0.707 -0.9653 -0.7167 -0.6097
 2101TIP3   OH227937   2.900   2.006   1.494 -0.6106 -0.3961  0.2338
 2101TIP3    H127938   2.865   2.016   1.405 -1.7298 -0.1530  0.6851
 2101TIP3    H227939   2.890   1.913   1.513  0.6165 -0.6524 -0.2718
 2102TIP3   OH227940   2.400   6.436   0.595 -0.0342  0.1291  0.8437
 2102TIP3    H127941   2.480   6.440   0.648  0.3804 -1.5504  0.4152
 2102TIP3    H227942   2.353   6.360   0.630 -0.6525  0.1296  0.0329
 2103TIP3   OH227943   0.194   6.067   1.036  0.1600 -0.3127  0.2329
 2103TIP3    H127944   0.160   5.990   1.082  0.7375 -0.6957  0.0310
 2103TIP3    H227945   0.238   6.031   0.959 -1.0231  0.3343 -0.7790
 2104TIP3   OH227946   3.217   4.799   0.641  0.2387 -0.0671  0.0809
 2104TIP3    H127947   3.290   4.743   0.614 -0.7676 -1.2076 -0.3939
 2104TIP3    H227948   3.257   4.883   0.662  1.5927 -0.4468 -0.8530
 2105TIP3   OH227949   5.493   2.251   8.528  0.3370  0.4633 -0.8528
 2105TIP3    H127950   5.517   2.164   8.560  2.0637  1.3194  0.3123
 2105TIP3    H227951   5.416   2.276   8.579  1.1500  0.4963  0.3818
 2106TIP3   OH227952   1.051   6.291   1.692 -0.2382  0.2179  0.2548
 2106TIP3    H127953   0.963   6.256   1.686 -0.0837  0.0024 -1.3503
 2106TIP3    H227954   1.104   6.219   1.727 -0.7489  0.4882  1.6249
 2107TIP3   OH227955   1.145   2.734   2.114 -0.4838  0.1809 -0.1594
 2107TIP3    H127956   1.095   2.749   2.194 -1.2270  0.9968 -0.7567
 2107TIP3    H227957   1.096   2.780   2.046 -0.0872 -0.8189 -1.1646
 2108TIP3   OH227958   1.960   1.832   1.563 -0.5298 -0.2927  0.2641
 2108TIP3    H127959   1.895   1.865   1.501  1.1348  1.4144 -0.6814
 2108TIP3    H227960   2.016   1.775   1.512 -0.9478 -1.3795  0.9701
 2109TIP3   OH227961   4.181   2.160   7.993 -0.4103  0.0388  0.1693
 2109TIP3    H127962   4.224   2.245   8.003 -0.5541  0.2565 -0.9072
 2109TIP3    H227963   4.096   2.181   7.955 -0.0076 -0.6485 -1.1943
 2110TIP3   OH227964   0.358   2.843   0.854 -0.4940  0.1219 -0.2623
 2110TIP3    H127965   0.371   2.756   0.892  0.9066  0.1094 -0.7018
 2110TIP3    H227966   0.277   2.835   0.803 -0.2015 -1.0235 -0.5750
 2111TIP3   OH227967   0.533   3.899   1.940 -0.2029 -0.3415  0.1983
 2111TIP3    H127968   0.612   3.951   1.957 -0.5284  0.8793 -1.6652
 2111TIP3    H227969   0.560   3.833   1.877 -0.6096  0.0162 -0.3694
 2112TIP3   OH227970   1.787   0.225   7.579  0.1688  0.4133 -0.7735
 2112TIP3    H127971   1.831   0.253   7.660  0.9724 -2.6997 -0.0099
 2112TIP3    H227972   1.840   0.263   7.509  0.6806  1.4518  0.1451
 2113TIP3   OH227973   1.757   0.222   1.729 -0.5452  0.5779 -0.2924
 2113TIP3    H127974   1.842   0.261   1.748 -0.4963  1.1760 -1.6216
 2113TIP3    H227975   1.776   0.151   1.667 -1.0342  0.9923 -0.9389
 2114TIP3   OH227976   0.531   5.771   7.783  0.3289 -0.0573 -0.6531
 2114TIP3    H127977   0.449   5.817   7.764  0.4051  0.4444  0.1734
 2114TIP3    H227978   0.505   5.697   7.837  0.3674 -0.2155 -0.8471
 2115TIP3   OH227979   2.528   5.568   0.937  0.2012 -0.0985  0.1967
 2115TIP3    H127980   2.469   5.593   1.009 -0.1092  0.0016 -0.0882
 2115TIP3    H227981   2.470   5.527   0.873  0.5618 -0.6626  0.2362
 2116TIP3   OH227982   0.514   6.717   2.776 -0.1580 -0.4384 -0.1435
 2116TIP3    H127983   0.597   6.723   2.824  0.0600 -1.5420 -0.3623
 2116TIP3    H227984   0.480   6.806   2.777  1.3715  0.1917 -0.6349
 2117TIP3   OH227985   0.004   3.626   8.248 -0.0356 -0.2281 -0.1347
 2117TIP3    H127986  -0.039   3.570   8.184  0.7884 -0.2083 -0.7254
 2117TIP3    H227987   0.082   3.658   8.203 -0.5067  1.4401  0.1722
 2118TIP3   OH227988   3.548   2.385   2.555  0.2825 -0.9839  0.8409
 2118TIP3    H127989   3.539   2.350   2.466 -1.7476 -1.8976  1.3614
 2118TIP3    H227990   3.613   2.328   2.596  2.7919  0.6660 -0.5760
 2119TIP3   OH227991   5.347   5.463   2.889 -0.6450 -0.2795 -0.0953
 2119TIP3    H127992   5.438   5.433   2.890 -0.2058  0.9885 -0.0021
 2119TIP3    H227993   5.347   5.535   2.826 -1.3562  0.3768  0.6286
 2120TIP3   OH227994   6.354   0.516   1.151  0.5183 -0.2535 -0.5122
 2120TIP3    H127995   6.292   0.571   1.198  0.6732 -1.8959  1.7927
 2120TIP3    H227996   6.346   0.542   1.059  1.1790  4.1340  0.4635
 2121TIP3   OH227997   0.235   6.200   2.254 -0.6373 -0.2460 -0.5720
 2121TIP3    H127998   0.331   6.204   2.252 -0.4562 -2.3965  0.6927
 2121TIP3    H227999   0.211   6.252   2.331 -0.3753 -0.8899 -0.0495
 2122TIP3   OH228000   2.643   6.272   2.657  0.1639 -0.8588 -0.0740
 2122TIP3    H128001   2.607   6.360   2.669  0.0962 -0.6948 -1.3108
 2122TIP3    H228002   2.676   6.247   2.743 -0.6829 -0.0128  0.5115
 2123TIP3   OH228003   5.495   6.808   7.015 -0.3758 -0.9843 -0.0472
 2123TIP3    H128004   5.568   6.784   7.073 -0.7928 -0.1329  0.8695
 2123TIP3    H228005   5.430   6.846   7.074 -1.3881 -1.3334 -0.9124
 2124TIP3   OH228006   3.591   3.899   6.703 -0.6253 -0.0369  0.7213
 2124TIP3    H128007   3.614   3.813   6.667 -0.0627  0.9134 -1.3112
 2124TIP3    H228008   3.666   3.954   6.684 -1.8583  1.4660 -0.0198
 2125TIP3   OH228009   2.034   0.795   1.821  0.4119  0.0328  0.4680
 2125TIP3    H128010   2.061   0.732   1.888 -0.0022 -0.6092  0.0369
 2125TIP3    H228011   2.110   0.804   1.764 -0.4703 -2.4442 -1.2562
 2126TIP3   OH228012   2.288   4.395   8.221  0.2295  0.0172 -0.0483
 2126TIP3    H128013   2.378   4.367   8.204 -0.9645 -3.1442 -1.9069
 2126TIP3    H228014   2.243   4.384   8.137 -2.5701 -1.5253  1.5182
 2127TIP3   OH228015   3.094   1.298   0.623  0.2298  0.2308  0.0966
 2127TIP3    H128016   3.146   1.335   0.695  1.9810 -0.2608 -0.8838
 2127TIP3    H228017   3.117   1.205   0.622 -1.3328 -0.1970  0.1500
 2128TIP3   OH228018   5.053   6.500   7.360  0.4347  1.1699 -0.3433
 2128TIP3    H128019   5.046   6.413   7.400 -0.6533  0.0365 -2.7988
 2128TIP3    H228020   5.051   6.484   7.266  1.0605  3.8293 -0.9063
 2129TIP3   OH228021   6.510   2.369   2.177 -0.5087  0.3618  0.1225
 2129TIP3    H128022   6.574   2.434   2.207 -1.3379  1.3252 -0.1537
 2129TIP3    H228023   6.520   2.368   2.082  0.1605 -0.6339  0.1866
 2130TIP3   OH228024   4.400   5.188   2.036 -0.3897  0.4227 -0.1289
 2130TIP3    H128025   4.353   5.264   2.069  0.8195  0.3158  2.0073
 2130TIP3    H228026   4.483   5.223   2.003  0.4516  0.0091  1.4637
 2131TIP3   OH228027   4.432   0.155   0.575  0.2167 -0.1093  0.1420
 2131TIP3    H128028   4.399   0.227   0.629 -3.1311 -0.6117 -0.9988
 2131TIP3    H228029   4.409   0.076   0.624  0.9895 -0.5015 -0.1011
 2132TIP3   OH228030   3.489   1.402   7.147  0.5860 -0.1717 -0.1419
 2132TIP3    H128031   3.514   1.490   7.175  0.7102  0.3707 -1.8761
 2132TIP3    H228032   3.396   1.410   7.124  0.8454 -0.2392 -1.2459
 2133TIP3   OH228033   6.563   3.597   8.374 -0.3664  0.3456  0.3006
 2133TIP3    H128034   6.507   3.671   8.351  0.0249  1.7977  3.4798
 2133TIP3    H228035   6.647   3.616   8.333  0.0884  2.3920  2.0039
 2134TIP3   OH228036   4.165   2.928   0.308 -0.2039  0.0132 -0.1346
 2134TIP3    H128037   4.239   2.972   0.266 -0.4192  0.7252  0.2259
 2134TIP3    H228038   4.114   2.998   0.349 -1.4728 -0.3807 -0.9754
 2135TIP3   OH228039   4.816   0.568   2.391  0.1277 -0.2504 -0.3798
 2135TIP3    H128040   4.766   0.647   2.412  1.4995  0.0496  2.1647
 2135TIP3    H228041   4.895   0.601   2.347  0.6037 -0.1733  0.5006
 2136TIP3   OH228042   4.434   4.024   0.090  0.7411 -0.2512  0.2447
 2136TIP3    H128043   4.383   3.949   0.121  1.8538 -1.6138 -1.0440
 2136TIP3    H228044   4.390   4.052   0.010 -0.6903  1.6684  1.6192
 2137TIP3   OH228045   4.706   3.933   0.676 -0.3900  0.4660 -0.7719
 2137TIP3    H128046   4.650   3.930   0.598  0.9895  2.0301 -1.8880
 2137TIP3    H228047   4.679   4.013   0.722 -0.9437 -0.2542  0.2124
 2138TIP3   OH228048   4.919   4.420   1.010  0.3179 -0.0632  0.1823
 2138TIP3    H128049   4.846   4.416   0.949  0.5741  0.0407 -0.1310
 2138TIP3    H228050   4.878   4.438   1.095 -0.0767 -0.6734  0.1278
 2139TIP3   OH228051   2.404   5.880   7.694  0.0001  0.2707  0.3468
 2139TIP3    H128052   2.419   5.966   7.734  1.5003 -0.5146  1.6005
 2139TIP3    H228053   2.453   5.883   7.612 -2.8531  1.7881 -1.4961
 2140TIP3   OH228054   6.366   6.171   7.964 -0.2583 -0.0487 -0.3141
 2140TIP3    H128055   6.282   6.150   8.005  0.4865 -0.3841  1.1286
 2140TIP3    H228056   6.416   6.089   7.967 -0.3094 -0.1932 -2.3254
 2141TIP3   OH228057   5.147   2.550   8.852 -0.2453  0.1482 -0.3362
 2141TIP3    H128058   5.136   2.605   8.930 -0.7139  0.6705 -0.7563
 2141TIP3    H228059   5.081   2.481   8.863  0.6022 -0.5676  0.3786
 2142TIP3   OH228060   0.905   6.014   8.481  0.2910 -0.2719  0.3664
 2142TIP3    H128061   0.834   6.044   8.423 -0.3052 -0.1421  1.1505
 2142TIP3    H228062   0.869   6.020   8.569  1.8909  1.6605  0.9841
 2143TIP3   OH228063   4.536   3.115   2.360  0.2650  0.0961 -0.0608
 2143TIP3    H128064   4.594   3.121   2.436 -0.2274  0.9021  0.2578
 2143TIP3    H228065   4.481   3.039   2.377  0.0742  0.3484  0.4381
 2144TIP3   OH228066   2.090   1.800   0.413 -0.6656  0.2789  0.3275
 2144TIP3    H128067   2.112   1.778   0.322 -1.0782  0.0716  0.2745
 2144TIP3    H228068   2.145   1.876   0.434 -0.5350  0.2978 -0.0800
 2145TIP3   OH228069   0.650   4.292   2.605  0.0775  0.4713  0.8155
 2145TIP3    H128070   0.594   4.216   2.587  0.7006  0.0738  0.4805
 2145TIP3    H228071   0.601   4.344   2.669 -0.5810  0.0412  0.6761
 2146TIP3   OH228072   4.857   4.766   0.928 -0.0047  0.0232  0.5765
 2146TIP3    H128073   4.950   4.767   0.947 -0.2149  1.0664  1.7009
 2146TIP3    H228074   4.837   4.675   0.906  0.3956 -1.4495  5.1397
 2147TIP3   OH228075   2.641   3.918   2.399 -0.6403 -0.1504 -0.4059
 2147TIP3    H128076   2.736   3.906   2.399 -0.2869  1.0678  3.9272
 2147TIP3    H228077   2.607   3.839   2.440 -1.1778  0.6148  0.6650
 2148TIP3   OH228078   1.669   1.188   8.672 -0.4937 -0.2076  0.2143
 2148TIP3    H128079   1.727   1.212   8.600 -0.2535 -1.9102 -0.1874
 2148TIP3    H228080   1.717   1.123   8.722 -1.2336 -0.1070  1.0852
 2149TIP3   OH228081   0.157   6.159   1.504  0.1892 -0.5541  0.2143
 2149TIP3    H128082   0.061   6.159   1.502  0.1921 -0.8448 -0.5813
 2149TIP3    H228083   0.182   6.185   1.415  0.8447 -0.7161  0.3516
 2150TIP3   OH228084   5.715   5.578   2.681 -0.0689  0.3082 -0.2869
 2150TIP3    H128085   5.669   5.563   2.598 -0.6692  1.9121 -0.2786
 2150TIP3    H228086   5.797   5.621   2.655  1.1549 -1.8382 -0.2379
 2151TIP3   OH228087   5.567   2.449   0.645 -0.0893 -0.3247 -0.1003
 2151TIP3    H128088   5.545   2.523   0.587  0.7647  0.3772  0.4502
 2151TIP3    H228089   5.537   2.372   0.597  0.8727  0.2072 -1.6318
 2152TIP3   OH228090   4.722   1.408   0.234 -0.7862 -0.2887  0.1879
 2152TIP3    H128091   4.797   1.416   0.175 -0.9159  2.2958  0.2464
 2152TIP3    H228092   4.649   1.449   0.186 -1.3961  0.0073  1.3259
 2153TIP3   OH228093   0.944   4.943   2.811  0.3009  0.0330 -0.1621
 2153TIP3    H128094   0.991   4.921   2.731  1.0946 -0.2920  0.3795
 2153TIP3    H228095   0.895   5.022   2.789  0.7707  0.1401 -0.8638
 2154TIP3   OH228096   4.749   2.649   8.845  0.2273 -0.6564  0.0594
 2154TIP3    H128097   4.760   2.738   8.809  2.3516 -0.4938  0.9906
 2154TIP3    H228098   4.803   2.594   8.788 -1.6725 -1.5430 -0.9762
 2155TIP3   OH228099   0.831   0.034   2.210 -0.0279  0.1139 -0.4390
 2155TIP3    H128100   0.746   0.077   2.203  1.2707  3.0050 -0.1736
 2155TIP3    H228101   0.890   0.092   2.162  2.0913 -0.8584  0.8475
 2156TIP3   OH228102   5.260   5.336   2.373  0.0614 -0.1288  0.5660
 2156TIP3    H128103   5.167   5.317   2.385  0.4243 -1.6222  1.2099
 2156TIP3    H228104   5.296   5.338   2.462  1.0753 -2.1073  0.2685
 2157TIP3   OH228105   1.309   2.365   8.312  0.0669 -0.1661  0.0159
 2157TIP3    H128106   1.398   2.333   8.327  0.1746  0.6184  1.2003
 2157TIP3    H228107   1.263   2.290   8.274  1.1671 -0.6541 -0.3950
 2158TIP3   OH228108   0.379   3.227   7.944  0.1143 -0.2705  0.0685
 2158TIP3    H128109   0.285   3.215   7.935  0.0848  0.2463 -0.3597
 2158TIP3    H228110   0.409   3.149   7.990 -0.5266 -0.4234  0.2338
 2159TIP3   OH228111   4.541   2.191   7.369 -0.3594  0.2814  0.4729
 2159TIP3    H128112   4.538   2.210   7.462 -1.6212  2.3590  0.0631
 2159TIP3    H228113   4.553   2.096   7.364 -1.7064 -0.0643  2.7412
 2160TIP3   OH228114   0.903   6.565   6.793  0.3747  0.6229 -0.3487
 2160TIP3    H128115   0.998   6.554   6.805  0.4032  0.7713 -0.4378
 2160TIP3    H228116   0.868   6.476   6.797  0.6816  0.4164 -1.6881
 2161TIP3   OH228117   2.587   5.569   0.488 -0.1614 -0.0276 -0.3555
 2161TIP3    H128118   2.591   5.482   0.526  0.3861 -0.1492 -0.6862
 2161TIP3    H228119   2.678   5.597   0.482 -0.3564  0.7594  0.1823
 2162TIP3   OH228120   0.294   4.824   7.649  0.0573 -0.2408 -0.1464
 2162TIP3    H128121   0.260   4.762   7.584  0.2127 -0.9517  0.4332
 2162TIP3    H228122   0.366   4.777   7.692 -0.1080  0.1662  0.6013
 2163TIP3   OH228123   5.190   0.397   7.448 -0.0791 -0.6221 -0.5527
 2163TIP3    H128124   5.218   0.308   7.469 -0.4197 -0.4093  0.9043
 2163TIP3    H228125   5.174   0.395   7.354  2.2334 -1.4424 -0.9948
 2164TIP3   OH228126   1.727   0.983   7.044 -0.3323 -0.1637 -0.5538
 2164TIP3    H128127   1.802   1.004   6.988  0.5112 -1.5975 -0.0340
 2164TIP3    H228128   1.714   1.062   7.097  1.5043 -0.2103  0.0598
 2165TIP3   OH228129   2.091   5.277   7.515  0.0097  0.4063 -0.4180
 2165TIP3    H128130   2.017   5.225   7.545 -0.4871  0.1344 -2.0323
 2165TIP3    H228131   2.136   5.221   7.452  1.6266  0.5540  0.5494
 2166TIP3   OH228132   4.768   0.057   1.915  0.4626 -0.8889 -0.2176
 2166TIP3    H128133   4.683   0.042   1.874 -0.0587  0.8907  0.1249
 2166TIP3    H228134   4.827   0.080   1.843 -0.2542  1.4327 -0.1213
 2167TIP3   OH228135   0.020   4.553   8.575  0.6549 -0.2860 -0.8850
 2167TIP3    H128136   0.080   4.606   8.627  0.0798 -1.1238  0.6723
 2167TIP3    H228137  -0.061   4.603   8.572  1.3158  0.7858 -2.8836
 2168TIP3   OH228138   5.748   0.387   7.860  0.5082 -0.3999 -0.1885
 2168TIP3    H128139   5.778   0.377   7.770 -0.5230  0.1427 -0.6127
 2168TIP3    H228140   5.682   0.457   7.855  1.2690  0.4606  1.1754
 2169TIP3   OH228141   1.848   6.503   6.957  0.3947 -0.3250 -0.0982
 2169TIP3    H128142   1.773   6.528   6.903  0.6857 -0.3528 -0.5259
 2169TIP3    H228143   1.813   6.441   7.021  0.4471 -2.0601 -1.6746
 2170TIP3   OH228144   6.752   3.928   8.464 -0.6074  0.1916  0.1071
 2170TIP3    H128145   6.740   4.022   8.474 -2.6460 -0.0596  0.5080
 2170TIP3    H228146   6.692   3.903   8.394  1.3773 -0.5751 -1.4499
 2171TIP3   OH228147   1.656   0.382   1.392  0.2307 -0.2690  0.4246
 2171TIP3    H128148   1.721   0.434   1.439  2.2559 -1.5786 -0.8013
 2171TIP3    H228149   1.606   0.338   1.461  0.9627  0.3593  1.3832
 2172TIP3   OH228150   4.955   4.906   1.716  0.0954  0.3932  0.3736
 2172TIP3    H128151   4.932   4.992   1.749  0.5502  0.3923  0.7022
 2172TIP3    H228152   4.941   4.911   1.622  2.1997  1.5167  0.0682
 2173TIP3   OH228153   5.287   1.604   8.125 -0.4843 -0.3083  0.1059
 2173TIP3    H128154   5.246   1.630   8.043  0.8010  0.3876 -0.3399
 2173TIP3    H228155   5.213   1.594   8.186 -1.2785  1.9704 -0.3625
 2174TIP3   OH228156   3.058   3.529   8.576 -0.2483 -0.5871 -0.5058
 2174TIP3    H128157   3.067   3.458   8.640 -0.3355  0.9309  1.2686
 2174TIP3    H228158   3.138   3.580   8.584 -1.5133  1.3436  0.6369
 2175TIP3   OH228159   5.150   6.584   2.288 -0.0271 -0.4518  0.6130
 2175TIP3    H128160   5.190   6.517   2.233  0.8161  0.4873  0.0529
 2175TIP3    H228161   5.088   6.629   2.230  1.1461  0.7949  0.2872
 2176TIP3   OH228162   3.433   4.890   7.363  0.8878 -0.1132 -0.0335
 2176TIP3    H128163   3.409   4.975   7.327 -0.1998 -1.1072 -1.8213
 2176TIP3    H228164   3.471   4.842   7.289  0.4325 -1.5699  0.6316
 2177TIP3   OH228165   0.979   5.423   7.964  0.2767 -0.0764  0.0470
 2177TIP3    H128166   1.019   5.509   7.973 -0.5962  0.2791  0.7442
 2177TIP3    H228167   0.986   5.401   7.872 -0.1694  1.0872 -0.2759
 2178TIP3   OH228168   3.150   6.603   8.248 -0.3445 -0.3736  0.2012
 2178TIP3    H128169   3.185   6.661   8.316 -0.5395  1.1891 -0.9801
 2178TIP3    H228170   3.198   6.627   8.169  0.5892 -2.8350 -0.0876
 2179TIP3   OH228171   2.648   4.706   6.865 -0.2160 -0.2476  0.2274
 2179TIP3    H128172   2.567   4.657   6.880 -0.8341  0.5273 -0.5152
 2179TIP3    H228173   2.625   4.797   6.882  1.0654 -0.2228  2.1965
 2180TIP3   OH228174   6.463   0.808   8.258 -0.0636 -0.0167  0.3733
 2180TIP3    H128175   6.398   0.872   8.230  0.0706  0.4879  1.1710
 2180TIP3    H228176   6.528   0.807   8.188 -0.1063  0.6778  0.3167
 2181TIP3   OH228177   3.470   4.088   8.603  0.3144 -0.3789 -0.0860
 2181TIP3    H128178   3.445   3.997   8.589  1.3447 -0.5050 -1.2315
 2181TIP3    H228179   3.441   4.134   8.525  0.1796  0.2084  0.2983
 2182TIP3   OH228180   4.821   2.354   7.583  0.3137 -0.0822 -0.3003
 2182TIP3    H128181   4.741   2.304   7.568  0.2300 -0.5915  1.6259
 2182TIP3    H228182   4.799   2.444   7.559 -1.2759  0.0336  1.3738
 2183TIP3   OH228183   1.857   0.978   8.746  0.4303  0.0455  0.2508
 2183TIP3    H128184   1.948   0.950   8.739 -0.1626 -1.9711  0.0755
 2183TIP3    H228185   1.810   0.902   8.781 -1.0399  1.3620  1.3156
 2184TIP3   OH228186   0.826   3.651   1.013  0.9466 -0.5246 -0.1057
 2184TIP3    H128187   0.769   3.621   0.942  1.1437 -3.5512  0.8724
 2184TIP3    H228188   0.908   3.602   1.001  1.5174  0.0246  1.3308
 2185TIP3   OH228189   1.809   3.341   8.616  0.3867  0.1341  0.0041
 2185TIP3    H128190   1.725   3.304   8.588  1.0313  0.0414 -1.9720
 2185TIP3    H228191   1.873   3.273   8.595  0.8463 -0.4823  3.0167
 2186TIP3   OH228192   0.866   2.784   7.763 -0.3508 -0.3456  0.2464
 2186TIP3    H128193   0.847   2.794   7.669  0.3896  0.3865  0.1709
 2186TIP3    H228194   0.888   2.872   7.793  1.5273 -0.9074  0.6282
 2187TIP3   OH228195   4.386   0.461   1.134  0.0756 -0.0209 -0.1882
 2187TIP3    H128196   4.402   0.492   1.222  0.0638  2.5298 -1.0188
 2187TIP3    H228197   4.300   0.495   1.111  0.4417  0.0922 -1.4921
 2188TIP3   OH228198   2.807   4.441   2.069  0.3958  0.6776  0.1513
 2188TIP3    H128199   2.882   4.497   2.048  2.1330 -1.4286  0.4139
 2188TIP3    H228200   2.819   4.418   2.161 -1.1000  1.0102  0.4559
 2189TIP3   OH228201   2.132   4.363   8.472 -0.4261 -0.2447  0.0905
 2189TIP3    H128202   2.181   4.444   8.478  1.1088 -1.1126 -0.1709
 2189TIP3    H228203   2.158   4.325   8.388 -0.9464 -1.1084  0.3028
 2190TIP3   OH228204   5.900   1.613   7.865 -0.1864 -0.2768  0.1247
 2190TIP3    H128205   5.838   1.683   7.845 -0.4523 -0.4430  0.3628
 2190TIP3    H228206   5.852   1.554   7.924 -0.1978 -1.0194 -0.6032
 2191TIP3   OH228207   5.984   3.341   0.171 -0.2089  0.0228  0.5627
 2191TIP3    H128208   5.920   3.330   0.241  0.6521  1.1605  1.5760
 2191TIP3    H228209   6.021   3.254   0.158 -0.6264 -0.2757  1.2851
 2192TIP3   OH228210   3.634   3.281   1.024  0.6325  0.3974 -0.8874
 2192TIP3    H128211   3.719   3.249   0.993  1.3965  1.3770  0.1507
 2192TIP3    H228212   3.574   3.260   0.953  1.3099 -2.2175 -0.7882
 2193TIP3   OH228213   0.137   4.022   0.952 -0.0533  0.4467  0.1002
 2193TIP3    H128214   0.142   4.105   0.904  1.7581  0.2242 -0.1452
 2193TIP3    H228215   0.164   4.044   1.041  0.1191  0.1712  0.1153
 2194TIP3   OH228216   6.555   5.437   6.950  0.2383 -0.1420  0.4297
 2194TIP3    H128217   6.562   5.342   6.959  1.9616 -0.3436 -1.8898
 2194TIP3    H228218   6.558   5.452   6.856 -1.2721  2.1755  0.6791
 2195TIP3   OH228219   5.021   4.696   7.415  0.0464  0.4470  0.2691
 2195TIP3    H128220   5.038   4.604   7.433  0.1666  0.5082  0.4855
 2195TIP3    H228221   4.949   4.719   7.474 -1.5164 -0.0688 -1.3559
 2196TIP3   OH228222   5.206   1.552   1.734  0.5922 -0.5335 -0.0768
 2196TIP3    H128223   5.239   1.575   1.821  0.4429  1.2479 -0.4513
 2196TIP3    H228224   5.112   1.567   1.739  0.5344 -0.7435 -0.4559
 2197TIP3   OH228225   0.609   0.505   1.913 -0.3177  0.3947 -0.0387
 2197TIP3    H128226   0.610   0.538   2.003 -2.5646  1.2204 -0.2656
 2197TIP3    H228227   0.612   0.584   1.859 -1.5591  0.0307 -0.6555
 2198TIP3   OH228228   3.552   5.313   8.365  0.1593  0.2283 -0.1763
 2198TIP3    H128229   3.542   5.358   8.449  1.2602  1.0021 -0.4343
 2198TIP3    H228230   3.486   5.354   8.309  0.2051  0.5368 -0.0120
 2199TIP3   OH228231   4.388   2.479   8.533 -0.3238  0.0434  0.0535
 2199TIP3    H128232   4.449   2.424   8.484  0.3644  1.6054 -0.9287
 2199TIP3    H228233   4.305   2.473   8.485  0.1030  0.8526 -0.8103
 2200TIP3   OH228234   1.780   2.641   7.793  0.5949  0.2222  0.6808
 2200TIP3    H128235   1.738   2.715   7.838  2.4327  1.7287  0.0354
 2200TIP3    H228236   1.807   2.583   7.864 -0.3379  0.4371  1.2350
 2201TIP3   OH228237   1.295   2.046   1.343 -0.4343  0.1650 -0.0745
 2201TIP3    H128238   1.318   1.958   1.316 -0.9068 -0.0927  0.3473
 2201TIP3    H228239   1.378   2.086   1.369 -0.0994  0.1251 -1.0342
 2202TIP3   OH228240   1.997   5.164   7.869 -0.4215  0.3353  0.3793
 2202TIP3    H128241   1.916   5.120   7.893 -0.4588  0.2913  0.1751
 2202TIP3    H228242   2.063   5.094   7.867 -1.0857 -0.3802 -3.1383
 2203TIP3   OH228243   2.717   5.720   1.410 -1.1331  0.4524  0.1311
 2203TIP3    H128244   2.810   5.728   1.432 -0.6580  0.9240 -1.8320
 2203TIP3    H228245   2.676   5.797   1.449 -1.1238 -0.7392  2.6977
 2204TIP3   OH228246   3.709   4.852   8.421  0.8313 -0.0223  0.2553
 2204TIP3    H128247   3.709   4.942   8.453 -0.1256 -0.0825  0.4710
 2204TIP3    H228248   3.739   4.859   8.330  0.8675  0.5015  0.3030
 2205TIP3   OH228249   6.669   1.858   1.251  0.4788  0.1806 -0.1544
 2205TIP3    H128250   6.671   1.841   1.346 -0.1228 -1.4406 -0.3860
 2205TIP3    H228251   6.708   1.945   1.241  0.8963  0.2336  1.5459
 2206TIP3   OH228252   6.360   0.276   0.066  0.4539 -0.4757  0.2446
 2206TIP3    H128253   6.382   0.351   0.121 -0.4643 -0.1096  0.1363
 2206TIP3    H228254   6.436   0.219   0.071  1.3730  0.6858 -0.0511
 2207TIP3   OH228255   6.537   2.657   0.275 -0.1747  0.2038 -0.5333
 2207TIP3    H128256   6.552   2.721   0.344 -1.0980  1.4584 -1.4379
 2207TIP3    H228257   6.600   2.680   0.207  0.6945 -0.9908 -0.1665
 2208TIP3   OH228258   3.106   5.936   1.108 -0.1823 -0.5081 -0.1966
 2208TIP3    H128259   3.185   5.931   1.163 -0.2168 -2.8277 -0.2579
 2208TIP3    H228260   3.040   5.977   1.165  0.6276 -0.0152  0.4106
 2209TIP3   OH228261   1.600   2.957   2.315 -0.5040  0.2175  0.2467
 2209TIP3    H128262   1.601   2.996   2.403 -1.3445  1.9610 -0.4561
 2209TIP3    H228263   1.525   2.897   2.316 -0.6436  0.3958  0.6569
 2210TIP3   OH228264   6.251   3.453   8.215  0.0236  0.0686 -0.3714
 2210TIP3    H128265   6.230   3.530   8.267  0.1405  0.5169 -0.9775
 2210TIP3    H228266   6.213   3.380   8.264 -0.4115  0.5491  0.0208
 2211TIP3   OH228267   4.141   0.598   2.973 -0.0319  0.4020  0.7152
 2211TIP3    H128268   4.100   0.679   3.004  0.1784  0.6528  0.3492
 2211TIP3    H228269   4.232   0.604   3.001 -0.2391 -0.1768  1.5671
 2212TIP3   OH228270   3.691   0.257   7.439 -0.3469 -0.3669  0.1069
 2212TIP3    H128271   3.786   0.274   7.441 -0.3441 -0.4148  0.3817
 2212TIP3    H228272   3.660   0.304   7.362 -0.2940  0.6832  0.7121
 2213TIP3   OH228273   5.288   3.307   3.140  0.4195  0.2514 -0.0470
 2213TIP3    H128274   5.329   3.223   3.164  2.1567  0.6434 -1.4110
 2213TIP3    H228275   5.286   3.357   3.222  0.8188 -0.5509  0.4686
 2214TIP3   OH228276   6.355   4.347   2.280 -0.7733  0.0877 -0.5480
 2214TIP3    H128277   6.296   4.330   2.207 -0.7559  3.1922 -1.4115
 2214TIP3    H228278   6.300   4.388   2.347 -0.1766  0.2158 -0.1272
 2215TIP3   OH228279   5.173   4.076   7.490 -0.3687 -0.5994 -0.1869
 2215TIP3    H128280   5.240   4.013   7.464 -0.0370 -0.2879 -0.0958
 2215TIP3    H228281   5.177   4.144   7.422 -0.3518 -0.4052  0.0104
 2216TIP3   OH228282   1.824   2.440   1.306  0.2461  0.7054  0.1584
 2216TIP3    H128283   1.886   2.447   1.233  0.2904  2.3486  0.3187
 2216TIP3    H228284   1.845   2.356   1.347  1.7309  0.7875 -0.3594
 2217TIP3   OH228285   4.370   0.671   8.768 -0.0355  0.3300 -0.1779
 2217TIP3    H128286   4.411   0.678   8.854 -0.2323 -2.3188  0.2323
 2217TIP3    H228287   4.372   0.760   8.732 -0.9832  1.7796  3.0056
 2218TIP3   OH228288   0.805   4.645   1.009  0.2084 -0.2928  0.5192
 2218TIP3    H128289   0.716   4.667   0.982  0.7269  1.5280  0.1888
 2218TIP3    H228290   0.850   4.620   0.929  0.5172  0.7087  0.3712
 2219TIP3   OH228291   6.198   5.955   0.447 -0.4407  0.2837 -0.1503
 2219TIP3    H128292   6.207   5.992   0.359 -0.1647 -0.7538 -0.5732
 2219TIP3    H228293   6.199   5.861   0.433 -0.3843  0.1084  0.9778
 2220TIP3   OH228294   3.786   6.085   8.652 -0.6912  0.1445 -0.5714
 2220TIP3    H128295   3.768   5.991   8.648 -0.3528  0.0935 -0.9726
 2220TIP3    H228296   3.775   6.115   8.561  0.6544  0.2159 -0.7178
 2221TIP3   OH228297   5.054   6.370   7.709  0.7402  0.4829  0.2908
 2221TIP3    H128298   5.026   6.283   7.739 -0.0665  0.0014 -1.7098
 2221TIP3    H228299   5.146   6.359   7.685  0.6111  0.1385 -0.0568
 2222TIP3   OH228300   3.774   4.212   7.568 -0.3605 -1.4457 -0.5212
 2222TIP3    H128301   3.785   4.189   7.476  0.4573 -0.6131 -0.6487
 2222TIP3    H228302   3.835   4.155   7.615  0.7078 -0.4927 -0.7087
 2223TIP3   OH228303   5.027   2.462   7.956  0.4120 -0.5541  0.6316
 2223TIP3    H128304   4.985   2.538   7.997 -0.3330 -0.0629 -0.9551
 2223TIP3    H228305   5.064   2.413   8.029 -2.3192 -0.6611  2.0859
 2224TIP3   OH228306   1.628   4.203   7.952 -0.2557  0.1542 -0.4248
 2224TIP3    H128307   1.612   4.210   8.046 -0.6140  0.1965 -0.4846
 2224TIP3    H228308   1.705   4.257   7.937 -1.9004  2.6545 -0.5787
 2225TIP3   OH228309   6.135   2.777   2.106 -0.4258  0.2801  0.3847
 2225TIP3    H128310   6.132   2.798   2.199 -0.9056  0.3153  0.3643
 2225TIP3    H228311   6.228   2.783   2.083 -0.3483  0.6267  0.7757
 2226TIP3   OH228312   6.065   5.918   1.819 -0.0974  0.3183 -0.0594
 2226TIP3    H128313   6.120   5.935   1.742 -0.1884  3.5718  0.4260
 2226TIP3    H228314   5.976   5.928   1.787 -0.2828 -1.3430 -0.1079
 2227TIP3   OH228315   2.652   3.322   0.670  0.3832  0.2898 -0.1680
 2227TIP3    H128316   2.722   3.318   0.605  1.1864 -0.3526  0.7021
 2227TIP3    H228317   2.590   3.254   0.643 -0.1463  1.1543 -1.1849
 2228TIP3   OH228318   3.666   0.762   0.788  0.1558  0.8394 -0.1032
 2228TIP3    H128319   3.608   0.687   0.772  0.1102  0.6495  0.9064
 2228TIP3    H228320   3.624   0.810   0.860  0.1550  1.8766 -0.7618
 2229TIP3   OH228321   4.982   4.186   7.640  0.3069 -0.5791  0.2866
 2229TIP3    H128322   4.908   4.126   7.651 -0.3292 -0.0728 -1.0516
 2229TIP3    H228323   5.052   4.131   7.604  0.0500 -0.7285  0.0141
 2230TIP3   OH228324   0.118   5.803   0.304 -0.3007 -0.1718 -0.1194
 2230TIP3    H128325   0.171   5.723   0.311  0.2975  0.2352  0.1191
 2230TIP3    H228326   0.057   5.785   0.233 -0.0498 -0.7733 -0.1927
 2231TIP3   OH228327   1.958   2.259   1.847 -0.5711  0.0955  0.4124
 2231TIP3    H128328   1.869   2.226   1.833 -0.2216 -0.2194 -1.3635
 2231TIP3    H228329   2.014   2.185   1.822  0.1945  0.9317 -0.4065
 2232TIP3   OH228330   2.919   1.138   0.379 -0.0254  0.0022 -0.1580
 2232TIP3    H128331   2.854   1.091   0.327  0.9549 -0.7279 -0.7487
 2232TIP3    H228332   2.928   1.223   0.336  0.4581 -0.4342 -0.9466
 2233TIP3   OH228333   4.438   5.463   2.746  0.1462  0.0479  0.4360
 2233TIP3    H128334   4.526   5.483   2.713  0.2768 -0.5345  0.4150
 2233TIP3    H228335   4.379   5.493   2.676  0.3392  0.2581  0.3618
 2234TIP3   OH228336   6.711   0.939   1.768 -0.0098  0.3580 -0.1800
 2234TIP3    H128337   6.786   0.898   1.726 -1.1437 -0.6482 -1.3297
 2234TIP3    H228338   6.677   1.000   1.702  0.1017  1.2026  0.5288
 2235TIP3   OH228339   4.045   4.820   6.935 -0.0514 -0.1604 -0.3802
 2235TIP3    H128340   4.015   4.808   6.845  0.1122 -0.4694 -0.3938
 2235TIP3    H228341   4.083   4.736   6.960  1.8274  0.5432 -0.7447
 2236TIP3   OH228342   4.548   5.781   6.958  0.5484 -0.1126 -0.0782
 2236TIP3    H128343   4.571   5.763   7.049  1.1175 -0.5895 -0.3121
 2236TIP3    H228344   4.464   5.827   6.964 -0.4863 -1.9548  0.6018
 2237TIP3   OH228345   3.992   3.024   6.845  0.3911 -0.1924 -0.5309
 2237TIP3    H128346   4.020   2.935   6.827  0.6171 -0.4557  0.9469
 2237TIP3    H228347   4.062   3.061   6.899 -0.1035  0.5863 -0.4026
 2238TIP3   OH228348   3.025   4.968   0.865  0.0235 -1.0491  0.6017
 2238TIP3    H128349   3.037   4.917   0.944  3.0215  0.7347  1.4668
 2238TIP3    H228350   3.101   4.946   0.810  0.8900  1.6079  0.5969
 2239TIP3   OH228351   1.246   3.027   0.093  0.1156  0.1418  0.0580
 2239TIP3    H128352   1.151   3.014   0.098  0.2611 -1.8144 -0.9245
 2239TIP3    H228353   1.276   2.955   0.037  1.9902  1.7026 -1.0395
 2240TIP3   OH228354   2.432   5.714   8.366  0.8002 -0.2591  0.3571
 2240TIP3    H128355   2.395   5.653   8.429 -0.6861  0.0986 -0.1309
 2240TIP3    H228356   2.378   5.704   8.288  2.4507 -0.5199 -0.8165
 2241TIP3   OH228357   2.098   5.118   0.808  0.5388  0.4800 -0.2373
 2241TIP3    H128358   2.143   5.141   0.889 -0.1021  0.6468  0.0769
 2241TIP3    H228359   2.156   5.151   0.738  1.0685  0.3733  0.1454
 2242TIP3   OH228360   2.370   3.533   7.006 -0.3423 -0.1999  0.2516
 2242TIP3    H128361   2.320   3.593   7.061 -1.6523 -0.3823 -0.7048
 2242TIP3    H228362   2.461   3.558   7.020 -0.7138  0.4156  1.7085
 2243TIP3   OH228363   2.165   1.725   1.418  0.3038 -0.1175 -0.3453
 2243TIP3    H128364   2.161   1.800   1.358  1.5517 -0.6870 -1.1696
 2243TIP3    H228365   2.247   1.738   1.466 -0.1199 -0.2861  0.4461
 2244TIP3   OH228366   5.890   1.509   7.205  0.0797  0.2724 -0.7265
 2244TIP3    H128367   5.843   1.477   7.282 -0.3896  0.4641 -0.9285
 2244TIP3    H228368   5.937   1.433   7.171  1.6195  0.5327  0.6911
 2245TIP3   OH228369   4.813   3.288   7.880  0.1002  0.1503  0.2588
 2245TIP3    H128370   4.835   3.352   7.812 -0.0351 -0.2654 -0.1867
 2245TIP3    H228371   4.819   3.336   7.962 -0.4309  0.8382 -0.1017
 2246TIP3   OH228372   1.441   5.420   1.271 -0.0720 -0.2217  0.1591
 2246TIP3    H128373   1.431   5.514   1.285  2.0212  0.0946 -0.0544
 2246TIP3    H228374   1.433   5.382   1.359 -1.1806  0.1087  0.2126
 2247TIP3   OH228375   1.471   6.340   3.008 -0.3579  0.2787  0.0071
 2247TIP3    H128376   1.473   6.247   3.028 -1.2832 -0.0096 -1.0975
 2247TIP3    H228377   1.562   6.366   2.999 -0.0913 -0.4772  0.4789
 2248TIP3   OH228378   3.499   5.861   8.725 -0.0254  0.4125  0.0064
 2248TIP3    H128379   3.506   5.886   8.817  0.3631  2.4254 -0.5126
 2248TIP3    H228380   3.588   5.835   8.700 -0.2442 -0.6939  0.3099
 2249TIP3   OH228381   4.190   3.585   1.771 -0.4499 -0.3154  0.1241
 2249TIP3    H128382   4.167   3.527   1.843 -0.6649 -0.8279 -0.3498
 2249TIP3    H228383   4.276   3.620   1.794  0.3872 -2.0073 -0.2940
 2250TIP3   OH228384   2.528   1.801   7.698  0.3849 -0.4982  0.0272
 2250TIP3    H128385   2.577   1.880   7.724  1.9868 -1.6830  0.8066
 2250TIP3    H228386   2.525   1.805   7.603 -1.2712  1.4602  0.1086
 2251TIP3   OH228387   3.191   4.323   8.573  0.2739  0.1596 -0.2542
 2251TIP3    H128388   3.228   4.321   8.661  1.0449 -1.0135 -0.5751
 2251TIP3    H228389   3.264   4.351   8.517 -0.1591  0.7241 -0.5507
 2252TIP3   OH228390   3.860   3.452   7.683  0.1317  0.3887 -0.1788
 2252TIP3    H128391   3.769   3.423   7.692 -0.2554  0.9702 -1.7373
 2252TIP3    H228392   3.901   3.430   7.766 -1.3180 -0.3108  0.3915
 2253TIP3   OH228393   4.053   0.711   2.333  0.7224 -0.0340 -0.3790
 2253TIP3    H128394   3.965   0.699   2.369  0.9346 -0.9301 -0.1420
 2253TIP3    H228395   4.111   0.669   2.396  1.3108  0.3506 -0.6476
 2254TIP3   OH228396   2.346   0.932   2.695 -0.3219 -0.3781  0.3442
 2254TIP3    H128397   2.408   0.983   2.644  1.3942 -1.1886  1.5433
 2254TIP3    H228398   2.270   0.991   2.706 -0.0231  0.4284 -1.5908
 2255TIP3   OH228399   3.879   4.444   8.833  0.6457  0.0684 -0.2160
 2255TIP3    H128400   3.881   4.471   8.741  0.4124 -0.4235 -0.3647
 2255TIP3    H228401   3.940   4.371   8.838  2.0357  1.2091  0.3898
 2256TIP3   OH228402   3.924   3.746   2.620 -0.9039  0.3049  0.3747
 2256TIP3    H128403   3.857   3.808   2.593 -0.7381  1.5202  2.5551
 2256TIP3    H228404   3.999   3.800   2.645  0.3825 -0.9539 -0.5509
 2257TIP3   OH228405   1.446   2.992   8.275 -0.4745 -0.7122 -0.0801
 2257TIP3    H128406   1.417   3.001   8.185  1.5967 -1.1432 -0.8519
 2257TIP3    H228407   1.539   3.014   8.272 -0.5421  0.1295  2.1236
 2258TIP3   OH228408   2.662   3.076   0.471  0.0618 -0.6816  0.0051
 2258TIP3    H128409   2.618   3.133   0.409 -0.4870 -2.0682 -0.9304
 2258TIP3    H228410   2.755   3.094   0.458 -0.1193  1.2187  0.9698
 2259TIP3   OH228411   1.018   4.883   2.130 -0.0779 -0.2467 -0.1187
 2259TIP3    H128412   0.985   4.832   2.204  0.1270  0.2463  0.3182
 2259TIP3    H228413   1.100   4.920   2.161 -0.3315  0.5321 -0.3489
 2260TIP3   OH228414   2.217   0.814   2.027  0.6605 -0.4290  0.1408
 2260TIP3    H128415   2.312   0.801   2.034  0.7485  0.6957  1.4603
 2260TIP3    H228416   2.190   0.838   2.115 -1.2173 -2.7422  0.2747
 2261TIP3   OH228417   4.767   4.470   7.939 -0.0901  0.2475  0.5337
 2261TIP3    H128418   4.675   4.489   7.923 -0.7675 -2.6877  0.3134
 2261TIP3    H228419   4.777   4.480   8.034 -0.5963  0.6520  0.5493
 2262TIP3   OH228420   5.541   1.184   8.164  0.3976 -0.5370 -0.4164
 2262TIP3    H128421   5.465   1.126   8.167  1.2386 -1.6648 -0.4077
 2262TIP3    H228422   5.564   1.198   8.256  2.6594 -3.5681 -0.3955
 2263TIP3   OH228423   6.072   1.414   1.331 -0.4648 -0.1985 -0.2147
 2263TIP3    H128424   6.167   1.406   1.326 -0.5026 -0.9539  0.0421
 2263TIP3    H228425   6.055   1.507   1.345  0.3370 -0.3196  1.8610
 2264TIP3   OH228426   3.718   1.008   7.405 -0.3791 -0.9931  0.1123
 2264TIP3    H128427   3.706   0.914   7.403 -1.8194 -0.8928  1.5154
 2264TIP3    H228428   3.671   1.036   7.484 -1.3309  1.0701 -1.1108
 2265TIP3   OH228429   6.026   5.411   6.860  0.4178 -0.4954  0.1629
 2265TIP3    H128430   6.044   5.505   6.857 -0.1760 -0.4063 -1.2435
 2265TIP3    H228431   6.113   5.371   6.864  0.6634  0.1106  1.2007
 2266TIP3   OH228432   0.228   0.278   1.550  0.3047 -0.0728 -0.0004
 2266TIP3    H128433   0.310   0.319   1.521 -1.1816  2.0125 -1.6423
 2266TIP3    H228434   0.243   0.256   1.642  2.1001  1.9474  0.2803
 2267TIP3   OH228435   2.591   1.973   2.917 -0.0884 -0.4103  0.0467
 2267TIP3    H128436   2.685   1.975   2.900 -0.4634  0.1854 -2.2507
 2267TIP3    H228437   2.557   2.054   2.879 -1.5390 -0.5645  0.9156
 2268TIP3   OH228438   1.206   6.105   0.347  0.1189 -0.3985 -0.4740
 2268TIP3    H128439   1.206   6.010   0.364  1.7659  0.0540  2.7296
 2268TIP3    H228440   1.278   6.117   0.284  1.1086 -1.1235  0.4753
 2269TIP3   OH228441   4.227   6.528   1.141 -0.4489  0.8789  0.5593
 2269TIP3    H128442   4.193   6.505   1.228  0.1904  1.4164  0.9581
 2269TIP3    H228443   4.293   6.462   1.123 -0.8934  0.5080  0.2872
 2270TIP3   OH228444   4.017   1.297   7.826  0.2969 -0.3355  0.3457
 2270TIP3    H128445   4.082   1.246   7.875  1.6598  0.5561 -0.4876
 2270TIP3    H228446   4.047   1.293   7.735 -1.8288 -1.3980 -0.3821
 2271TIP3   OH228447   0.643   0.712   1.115  0.5569  0.0829 -0.2530
 2271TIP3    H128448   0.715   0.772   1.094  1.4909 -1.5458 -2.0284
 2271TIP3    H228449   0.572   0.738   1.056  1.0267 -0.6264 -1.1566
 2272TIP3   OH228450   2.541   0.170   8.630 -0.4332  0.2477 -0.0279
 2272TIP3    H128451   2.477   0.150   8.699 -0.8610  0.9291 -0.2170
 2272TIP3    H228452   2.488   0.187   8.552  0.0994 -1.7846 -0.8754
 2273TIP3   OH228453   4.547   2.775   7.722 -0.4876 -0.0805 -0.1659
 2273TIP3    H128454   4.556   2.739   7.633 -2.1627 -0.1604 -0.3422
 2273TIP3    H228455   4.636   2.800   7.747  0.2696 -1.5351 -1.2315
 2274TIP3   OH228456   5.790   1.741   7.415  0.4419 -0.6771 -0.6108
 2274TIP3    H128457   5.814   1.819   7.364  0.9763 -0.7489 -0.4649
 2274TIP3    H228458   5.857   1.676   7.394  0.4334 -0.8444 -0.1302
 2275TIP3   OH228459   6.409   0.467   8.055 -0.2167  0.1553 -0.3437
 2275TIP3    H128460   6.468   0.468   7.980  0.6880  0.8195  0.3570
 2275TIP3    H228461   6.322   0.480   8.017  0.0858 -0.6362 -1.3707
 2276TIP3   OH228462   2.584   5.188   2.282 -0.8330 -0.6679 -0.2303
 2276TIP3    H128463   2.496   5.226   2.282 -0.9406 -0.9188 -0.0481
 2276TIP3    H228464   2.590   5.141   2.364 -0.5124 -0.6221 -0.2270
 2277TIP3   OH228465   0.895   2.922   2.554  0.1552 -0.3965  0.2365
 2277TIP3    H128466   0.829   2.893   2.616  0.2526 -1.0696  0.0395
 2277TIP3    H228467   0.894   3.018   2.559 -2.2923 -0.2610 -1.2515
 2278TIP3   OH228468   3.108   6.579   3.307  0.2516 -0.3194  0.2235
 2278TIP3    H128469   3.031   6.557   3.255  0.9131 -0.4102 -0.7289
 2278TIP3    H228470   3.073   6.595   3.395 -0.6963 -1.5252  0.0839
 2279TIP3   OH228471   2.651   3.522   1.078  0.1645 -0.1881 -0.0070
 2279TIP3    H128472   2.685   3.569   1.154 -1.5050  0.7301  0.2288
 2279TIP3    H228473   2.614   3.591   1.022  0.9868 -0.8898 -1.4655
 2280TIP3   OH228474   6.529   2.415   1.909 -0.5174 -0.1773  0.0633
 2280TIP3    H128475   6.465   2.449   1.847 -1.5506 -0.5345  0.9015
 2280TIP3    H228476   6.612   2.457   1.884 -1.1213  0.4801 -0.8890
 2281TIP3   OH228477   2.550   2.332   1.781 -0.7469  0.2972 -0.1013
 2281TIP3    H128478   2.556   2.392   1.854 -0.8483  1.1007 -0.7413
 2281TIP3    H228479   2.638   2.293   1.775 -0.5297  0.7628 -0.0003
 2282TIP3   OH228480   0.914   1.010   1.597 -0.8084  0.4821 -0.0552
 2282TIP3    H128481   0.924   0.988   1.690  0.6203  1.5021  0.0691
 2282TIP3    H228482   1.002   1.031   1.568 -1.5004  2.1212 -1.1364
 2283TIP3   OH228483   4.322   3.516   6.987  0.3735 -0.9323  0.0978
 2283TIP3    H128484   4.273   3.445   6.945  0.2587 -0.0506 -1.3202
 2283TIP3    H228485   4.255   3.577   7.017  0.4873 -1.2370  0.9968
 2284TIP3   OH228486   0.786   3.046   7.496 -0.5789 -0.5416 -0.0361
 2284TIP3    H128487   0.801   2.953   7.516 -0.0926  0.1343  3.3923
 2284TIP3    H228488   0.848   3.066   7.426  0.0288 -2.5507 -0.1395
 2285TIP3   OH228489   4.354   2.677   2.009  0.3170 -0.8072 -0.3455
 2285TIP3    H128490   4.319   2.613   2.071  1.6484  0.8809  2.3009
 2285TIP3    H228491   4.279   2.733   1.987 -0.0189 -0.9944  0.3077
 2286TIP3   OH228492   2.773   3.873   2.773  0.4938 -0.5053 -0.3749
 2286TIP3    H128493   2.800   3.964   2.786 -0.4011 -0.4437  1.3778
 2286TIP3    H228494   2.682   3.879   2.744  0.5215 -0.8401 -0.5374
 2287TIP3   OH228495   6.407   3.405   1.865 -0.0609  0.4029  0.1241
 2287TIP3    H128496   6.437   3.329   1.815  0.3401  1.6708 -1.6601
 2287TIP3    H228497   6.453   3.398   1.949  0.6590 -0.8332 -0.3356
 2288TIP3   OH228498   0.150   0.517   8.658 -0.2843 -0.2728  0.2532
 2288TIP3    H128499   0.225   0.498   8.714  1.6203 -2.7707 -2.7942
 2288TIP3    H228500   0.077   0.472   8.700  1.3525 -3.2340  0.2454
 2289TIP3   OH228501   2.627   2.584   8.603  0.2388  0.2120 -0.4329
 2289TIP3    H128502   2.578   2.645   8.547  2.0559  0.6181 -1.6573
 2289TIP3    H228503   2.691   2.639   8.648  1.2214 -0.6436 -0.7567
 2290TIP3   OH228504   3.257   5.670   1.769  0.2186 -0.2795  0.3019
 2290TIP3    H128505   3.238   5.760   1.744 -0.6249 -0.0671  1.6181
 2290TIP3    H228506   3.183   5.643   1.824  0.7355 -1.5736  0.4187
 2291TIP3   OH228507   5.196   5.834   7.191 -0.1108 -0.2262  0.2325
 2291TIP3    H128508   5.286   5.804   7.200 -0.1273 -0.6842 -0.9139
 2291TIP3    H228509   5.185   5.850   7.097 -1.5898 -1.4273  0.1563
 2292TIP3   OH228510   1.762   2.929   7.891  0.2358  0.0374 -0.0752
 2292TIP3    H128511   1.825   2.925   7.819 -0.0546  0.7406 -0.3774
 2292TIP3    H228512   1.708   3.005   7.871 -0.6288 -0.4794  0.2485
 2293TIP3   OH228513   0.869   2.450   1.465 -0.2138 -0.0388  0.1981
 2293TIP3    H128514   0.846   2.523   1.408 -2.4976 -1.3377 -0.6524
 2293TIP3    H228515   0.792   2.437   1.520  0.0329 -1.9161  0.1742
 2294TIP3   OH228516   0.218   1.566   8.162 -0.2062 -0.9245  0.0278
 2294TIP3    H128517   0.125   1.554   8.145  0.1242 -1.7306 -1.3418
 2294TIP3    H228518   0.223   1.578   8.257 -1.8166  0.4137 -0.0041
 2295TIP3   OH228519   5.088   4.270   7.883 -0.2145 -0.1763 -0.2227
 2295TIP3    H128520   5.122   4.187   7.916  1.2400  0.1813 -0.7436
 2295TIP3    H228521   5.056   4.249   7.795  1.0516 -0.0194 -0.7446
 2296TIP3   OH228522   0.591   6.116   0.273  0.5501 -0.0746 -0.3276
 2296TIP3    H128523   0.598   6.053   0.201  1.6409  0.8086 -1.0099
 2296TIP3    H228524   0.681   6.130   0.302  0.1062 -0.7145  1.5025
 2297TIP3   OH228525   6.055   6.544   7.142  0.2371  0.0854 -0.2410
 2297TIP3    H128526   5.960   6.535   7.138  0.1083  1.0902  0.2928
 2297TIP3    H228527   6.085   6.518   7.055 -0.5985  0.4578 -0.6512
 2298TIP3   OH228528   6.144   1.491   7.455  0.0469 -0.2795 -0.2417
 2298TIP3    H128529   6.178   1.429   7.391  0.7392  0.1062 -0.2626
 2298TIP3    H228530   6.165   1.577   7.419 -0.1604 -0.0482  0.1770
 2299TIP3   OH228531   3.006   5.591   1.918  0.6594  0.1915 -0.2605
 2299TIP3    H128532   3.056   5.540   1.982  0.9015  0.4723 -0.2222
 2299TIP3    H228533   2.915   5.568   1.934  0.7939 -0.5025 -0.4861
 2300TIP3   OH228534   2.885   1.498   2.433 -0.1867  0.0045 -0.2330
 2300TIP3    H128535   2.851   1.467   2.517  0.2392  0.3395  0.0651
 2300TIP3    H228536   2.824   1.566   2.406 -0.0079  0.3028  0.0933
 2301TIP3   OH228537   3.722   2.640   0.780  0.0493  0.0062  0.0470
 2301TIP3    H128538   3.638   2.627   0.735  0.1528 -0.3276 -0.0499
 2301TIP3    H228539   3.709   2.604   0.867 -0.6824  2.1119  0.8780
 2302TIP3   OH228540   4.093   4.529   0.595 -0.1480 -0.0442  0.3846
 2302TIP3    H128541   4.109   4.448   0.642 -0.1234 -0.7850 -0.8438
 2302TIP3    H228542   4.128   4.598   0.652 -1.5399 -0.7236  2.1309
 2303TIP3   OH228543   6.539   5.144   1.877  0.1402  0.3020  0.0532
 2303TIP3    H128544   6.515   5.085   1.948  1.5758  1.2332  1.3680
 2303TIP3    H228545   6.588   5.090   1.815  0.3330 -0.1499  0.5962
 2304TIP3   OH228546   4.011   1.831   1.719 -0.0567 -0.0628 -0.7318
 2304TIP3    H128547   4.001   1.736   1.722  1.6638 -0.2494  0.6522
 2304TIP3    H228548   3.951   1.864   1.786 -1.1850 -0.0927 -1.7054
 2305TIP3   OH228549   3.744   6.676   1.537 -0.1482 -0.0843 -0.5065
 2305TIP3    H128550   3.708   6.588   1.526  0.3170 -0.6135  1.6793
 2305TIP3    H228551   3.808   6.666   1.607 -1.4533  2.3537  1.1648
 2306TIP3   OH228552   6.281   4.409   2.575 -0.0830  0.3919 -0.0298
 2306TIP3    H128553   6.231   4.327   2.567  1.5077 -0.5223 -1.3010
 2306TIP3    H228554   6.264   4.439   2.664 -2.1435 -0.3420 -0.1342
 2307TIP3   OH228555   6.111   3.855   7.490  0.3019 -0.1595  0.4515
 2307TIP3    H128556   6.100   3.950   7.492  1.1411 -0.0618  2.7222
 2307TIP3    H228557   6.068   3.828   7.408 -1.8630  1.9100  0.7971
 2308TIP3   OH228558   3.474   6.569   0.288  0.0706  0.0537 -0.4152
 2308TIP3    H128559   3.500   6.558   0.197  1.7611  2.3722 -0.3185
 2308TIP3    H228560   3.425   6.651   0.290 -1.2351 -0.7002  0.5773
 2309TIP3   OH228561   6.376   6.301   0.156 -0.0106  0.2707  0.0436
 2309TIP3    H128562   6.468   6.322   0.170 -0.6258  4.2403 -0.7198
 2309TIP3    H228563   6.370   6.283   0.062  0.0278 -0.4038  0.1662
 2310TIP3   OH228564   4.706   5.877   6.756  0.4489  0.1991  0.1225
 2310TIP3    H128565   4.630   5.903   6.705  1.6689 -0.6240 -2.2341
 2310TIP3    H228566   4.675   5.805   6.811 -0.7301  0.6795  0.1178
 2311TIP3   OH228567   4.380   4.324   0.310  0.3568 -0.2074 -0.2904
 2311TIP3    H128568   4.414   4.411   0.333 -0.9917  0.1577  0.4194
 2311TIP3    H228569   4.324   4.340   0.234 -1.6562 -0.0169  1.1307
 2312TIP3   OH228570   3.096   1.966   1.779 -0.2532 -0.0028  0.0832
 2312TIP3    H128571   3.115   2.051   1.819 -1.0979  0.5182 -0.5669
 2312TIP3    H228572   3.138   1.971   1.693 -0.8801  0.0474 -0.2303
 2313TIP3   OH228573   3.265   1.848   0.847  0.3197  0.0511 -0.4793
 2313TIP3    H128574   3.278   1.772   0.791  0.8093  0.1835 -0.5526
 2313TIP3    H228575   3.230   1.813   0.929  0.2173 -0.2123 -0.6350
 2314TIP3   OH228576   3.150   1.599   8.672  0.7506 -0.2741  0.1200
 2314TIP3    H128577   3.113   1.526   8.722  1.0757 -1.1418 -0.8697
 2314TIP3    H228578   3.151   1.568   8.582 -1.0901  1.7542 -0.6897
 2315TIP3   OH228579   6.284   5.739   0.213 -0.4341  0.1876  0.1260
 2315TIP3    H128580   6.295   5.813   0.153 -0.4176 -0.3852 -0.6026
 2315TIP3    H228581   6.192   5.714   0.203 -0.8132  0.9929  1.4410
 2316TIP3   OH228582   0.193   6.187   7.727  0.1217  1.1631  0.1602
 2316TIP3    H128583   0.149   6.250   7.784  0.6214 -0.8516  2.9746
 2316TIP3    H228584   0.276   6.169   7.771  0.6988 -0.2757 -1.4254
 2317TIP3   OH228585   3.365   5.364   2.016 -0.5733 -0.7025 -0.1649
 2317TIP3    H128586   3.400   5.412   1.941 -1.3354  0.3064  0.1141
 2317TIP3    H228587   3.354   5.275   1.984  2.5073 -1.1933 -0.1975
 2318TIP3   OH228588   2.562   2.480   1.515 -0.0655 -0.2586 -0.0428
 2318TIP3    H128589   2.595   2.454   1.601 -1.2742 -0.5303  0.3560
 2318TIP3    H228590   2.639   2.479   1.458  0.8745  0.5806  1.1782
 2319TIP3   OH228591   4.884   2.265   7.857  0.3153  0.2737  0.1977
 2319TIP3    H128592   4.862   2.301   7.770  1.9849  0.6344 -0.1051
 2319TIP3    H228593   4.929   2.336   7.902  1.1206 -0.5166  0.6654
 2320TIP3   OH228594   4.636   6.209   0.969 -0.2609  0.2046  0.2572
 2320TIP3    H128595   4.543   6.202   0.946 -0.9203  1.7441  2.0911
 2320TIP3    H228596   4.661   6.121   0.996 -1.7241  0.0931  1.3905
 2321TIP3   OH228597   1.458   2.563   0.417  0.1164 -0.0701  0.3034
 2321TIP3    H128598   1.448   2.472   0.444 -0.3843  0.5213  2.2256
 2321TIP3    H228599   1.393   2.574   0.347  0.0401 -1.1125  0.1912
 2322TIP3   OH228600   0.770   3.632   8.192 -0.5982  0.2464  0.3335
 2322TIP3    H128601   0.842   3.644   8.253  1.4138 -0.3660 -1.7738
 2322TIP3    H228602   0.728   3.550   8.220 -0.4305  0.5408  1.4977
 2323TIP3   OH228603   1.018   6.455   1.938  0.5346 -0.5955 -0.0111
 2323TIP3    H128604   0.962   6.526   1.970 -0.3170 -1.0280 -0.4993
 2323TIP3    H228605   0.963   6.408   1.875  1.1916 -1.4885  0.0616
 2324TIP3   OH228606   1.164   5.538   0.440 -0.3660  0.5400 -0.2649
 2324TIP3    H128607   1.104   5.473   0.478  1.5808 -0.5621  1.0841
 2324TIP3    H228608   1.234   5.485   0.401  1.1238  1.7985  0.6203
 2325TIP3   OH228609   1.984   0.253   8.830  0.1439 -0.5955  0.2776
 2325TIP3    H128610   1.937   0.212   8.903  0.5703 -3.6221 -1.0137
 2325TIP3    H228611   2.017   0.179   8.778  2.4080  1.4261 -1.3694
 2326TIP3   OH228612   2.878   5.076   0.652 -0.2816 -0.6854 -0.0715
 2326TIP3    H128613   2.783   5.062   0.655 -0.1245 -1.7211  0.4935
 2326TIP3    H228614   2.913   5.019   0.721  0.8996 -1.6304 -1.4073
 2327TIP3   OH228615   5.062   5.825   1.341  0.3113  0.0281 -0.4300
 2327TIP3    H128616   5.138   5.769   1.326 -0.5336 -1.2973  0.1031
 2327TIP3    H228617   5.040   5.859   1.254  0.6673 -0.6799 -0.8057
 2328TIP3   OH228618   1.751   0.765   1.429  0.1691  0.1539  0.1996
 2328TIP3    H128619   1.784   0.682   1.465 -0.6939 -0.3345 -0.0943
 2328TIP3    H228620   1.678   0.739   1.373 -0.3023  1.1388  0.3345
 2329TIP3   OH228621   5.837   6.711   8.332  0.4329  0.2817  0.1526
 2329TIP3    H128622   5.865   6.801   8.315  1.2140  0.0314  0.0623
 2329TIP3    H228623   5.802   6.713   8.421  2.0905  0.3326  0.8450
 2330TIP3   OH228624   4.204   0.057   1.256 -0.3861  0.4421  0.0940
 2330TIP3    H128625   4.159   0.120   1.200 -0.4637 -0.8803 -1.4174
 2330TIP3    H228626   4.156  -0.025   1.241  1.8823 -0.7923 -0.8198
 2331TIP3   OH228627   2.762   1.598   8.817 -0.3767 -0.0097 -0.2630
 2331TIP3    H128628   2.775   1.601   8.912 -0.3010 -0.2367 -0.2655
 2331TIP3    H228629   2.677   1.556   8.806  0.0275 -0.8186 -0.3246
 2332TIP3   OH228630   4.391   5.432   1.787 -0.1937 -0.0616 -0.7377
 2332TIP3    H128631   4.378   5.516   1.831 -1.4019 -0.0615 -1.0601
 2332TIP3    H228632   4.313   5.381   1.810 -0.3483 -0.4299 -2.0142
 2333TIP3   OH228633   6.376   0.197   7.656  0.2834 -0.0285  0.1080
 2333TIP3    H128634   6.292   0.171   7.618  1.1303  0.7631 -2.4898
 2333TIP3    H228635   6.386   0.289   7.632  1.6311  0.0587  0.9172
 2334TIP3   OH228636   1.925   5.078   8.226 -0.0878  0.1672  0.1222
 2334TIP3    H128637   1.968   5.006   8.180  0.6874  0.6085  0.1411
 2334TIP3    H228638   1.833   5.070   8.201  0.3798  0.7181 -2.0041
 2335TIP3   OH228639   1.324   4.004   1.912  0.0159 -0.1227 -0.3266
 2335TIP3    H128640   1.415   3.977   1.897 -0.2383 -0.8786 -0.5391
 2335TIP3    H228641   1.312   3.995   2.007 -0.3300 -1.6743 -0.4847
 2336TIP3   OH228642   0.986   0.670   8.756 -0.0912  0.8497  0.1126
 2336TIP3    H128643   1.081   0.664   8.744 -0.3031 -0.4213 -1.1342
 2336TIP3    H228644   0.952   0.682   8.668 -1.2543 -1.3030  0.2225
 2337TIP3   OH228645   3.779   4.215   2.081 -0.6900 -0.1426  0.2717
 2337TIP3    H128646   3.824   4.230   2.164 -0.4066 -0.5899  0.1977
 2337TIP3    H228647   3.686   4.225   2.103 -0.6695 -1.0397  0.8130
 2338TIP3   OH228648   1.469   0.356   7.585  0.0779  0.1028 -0.2715
 2338TIP3    H128649   1.480   0.345   7.490  2.3071  2.5597 -0.4043
 2338TIP3    H228650   1.382   0.395   7.594 -0.2340 -0.3071 -1.2699
 2339TIP3   OH228651   4.336   4.562   2.006  0.1740 -0.4392 -0.0958
 2339TIP3    H128652   4.376   4.634   1.958  1.4997  1.1608  3.0910
 2339TIP3    H228653   4.281   4.517   1.942  0.1661  2.7169 -2.5226
 2340TIP3   OH228654   1.064   0.278   1.099 -0.2952  0.0838 -0.6221
 2340TIP3    H128655   1.092   0.186   1.104  0.9533  0.5082  1.4492
 2340TIP3    H228656   0.997   0.286   1.167  1.4956  1.2520  1.1068
 2341TIP3   OH228657   3.702   3.158   0.398  0.0009 -0.2323 -0.2178
 2341TIP3    H128658   3.690   3.205   0.481  0.1499  1.2809 -1.0209
 2341TIP3    H228659   3.614   3.157   0.359  0.0835 -0.2367 -0.4024
 2342TIP3   OH228660   3.395   0.105   7.900 -0.3600 -0.1127 -0.0566
 2342TIP3    H128661   3.451   0.128   7.826  0.4130 -0.0461  0.5404
 2342TIP3    H228662   3.428   0.021   7.931 -1.0485 -0.4251 -0.1375
 2343TIP3   OH228663   4.584   3.741   2.770 -0.2667  0.0739  0.2905
 2343TIP3    H128664   4.629   3.824   2.785  1.0605 -0.5728  0.0292
 2343TIP3    H228665   4.625   3.680   2.831 -0.8293 -0.5330  0.0715
 2344TIP3   OH228666   6.153   0.278   2.713 -0.2695 -0.1386 -0.2250
 2344TIP3    H128667   6.079   0.324   2.672 -0.0059 -0.3304 -0.9403
 2344TIP3    H228668   6.226   0.339   2.704 -0.0104 -0.5220 -0.8266
 2345TIP3   OH228669   1.353   0.872   0.782 -0.3157  0.0288  0.5108
 2345TIP3    H128670   1.304   0.795   0.811 -0.1758 -0.6202 -0.8716
 2345TIP3    H228671   1.443   0.840   0.770 -0.5724 -0.0473 -1.6158
 2346TIP3   OH228672   3.440   0.802   0.486 -0.2487  0.0392  0.1497
 2346TIP3    H128673   3.448   0.710   0.462 -1.0685 -0.2798  1.0568
 2346TIP3    H228674   3.406   0.844   0.407 -2.1499 -0.8581  0.4272
 2347TIP3   OH228675   3.065   4.562   1.980 -0.3095  0.1537  0.7408
 2347TIP3    H128676   3.090   4.473   1.953  0.1374  0.3878  0.3699
 2347TIP3    H228677   3.118   4.579   2.058 -1.1521 -0.2925  1.4175
 2348TIP3   OH228678   0.675   4.758   6.716 -0.3174  0.2005 -0.2888
 2348TIP3    H128679   0.751   4.764   6.774  1.1823  1.8119 -2.2774
 2348TIP3    H228680   0.631   4.842   6.725 -1.1395 -0.2346 -0.1392
 2349TIP3   OH228681   6.298   2.302   7.768 -0.1869 -0.4553  0.3401
 2349TIP3    H128682   6.245   2.312   7.688  0.2400  0.3447  0.1449
 2349TIP3    H228683   6.234   2.297   7.839 -0.5451  1.9283  0.2624
 2350TIP3   OH228684   1.306   2.985   8.505  0.0698  0.3465 -0.3053
 2350TIP3    H128685   1.372   3.005   8.571 -1.0481  0.8828  0.6877
 2350TIP3    H228686   1.353   2.992   8.421  1.9111 -1.8644  0.4244
 2351TIP3   OH228687   5.325   4.440   7.613 -0.0744  0.3582  0.0145
 2351TIP3    H128688   5.348   4.508   7.548 -1.9157  1.1285  0.1262
 2351TIP3    H228689   5.393   4.448   7.680 -1.4592  3.8207  1.2672
 2352TIP3   OH228690   4.779   4.236   1.743  0.1103  0.7468 -0.4896
 2352TIP3    H128691   4.701   4.284   1.717  0.2433  0.4679 -1.4634
 2352TIP3    H228692   4.766   4.217   1.836 -0.9266  0.7955 -0.6119
 2353TIP3   OH228693   2.935   3.291   2.895  0.2465 -0.1839 -0.5155
 2353TIP3    H128694   2.964   3.350   2.964  1.5883 -1.5917  0.1986
 2353TIP3    H228695   3.003   3.295   2.828 -0.7236  0.6765 -1.4752
 2354TIP3   OH228696   2.327   4.767   1.037 -0.0942  0.6461  0.4043
 2354TIP3    H128697   2.334   4.704   1.109  0.3483  0.4260  0.1724
 2354TIP3    H228698   2.367   4.846   1.071  0.2988  0.4799  0.3283
 2355TIP3   OH228699   5.150   5.696   2.780  0.6466 -0.0631 -0.2135
 2355TIP3    H128700   5.182   5.786   2.776  0.0387  0.1267 -3.7109
 2355TIP3    H228701   5.207   5.647   2.720 -1.1939 -1.1974 -1.1410
 2356TIP3   OH228702   0.863   0.300   1.300  0.4386 -0.1910 -0.3085
 2356TIP3    H128703   0.775   0.338   1.303  0.0009 -1.0354 -1.9005
 2356TIP3    H228704   0.906   0.335   1.379 -1.3694  0.0627  0.6259
 2357TIP3   OH228705   5.679   0.038   7.870  0.0895 -0.1856 -0.1048
 2357TIP3    H128706   5.663  -0.041   7.921  0.1700 -1.9137 -2.6241
 2357TIP3    H228707   5.592   0.078   7.860 -0.0023 -0.1097  0.8573
 2358TIP3   OH228708   4.634   0.916   0.054 -0.2808 -0.2276  0.0613
 2358TIP3    H128709   4.561   0.911   0.116  0.1348  0.0062  0.5709
 2358TIP3    H228710   4.670   0.827   0.052 -0.2360 -0.2125  0.2227
 2359TIP3   OH228711   0.798   4.379   8.576  0.2714 -0.3175 -0.0894
 2359TIP3    H128712   0.788   4.305   8.515  0.7168 -0.5316  0.0883
 2359TIP3    H228713   0.712   4.420   8.579 -0.1958 -1.3040  0.4086
 2360TIP3   OH228714   4.782   0.045   1.538  0.2890  0.2156  0.2154
 2360TIP3    H128715   4.851  -0.011   1.502  0.0053  1.1727 -1.9792
 2360TIP3    H228716   4.800   0.132   1.501 -1.4458  0.7333  0.4892
 2361TIP3   OH228717   4.343   2.457   7.720 -0.5633  0.5739 -0.0071
 2361TIP3    H128718   4.361   2.454   7.814 -2.7156  1.5083  0.4952
 2361TIP3    H228719   4.249   2.441   7.713 -0.1658 -1.4572 -2.1931
 2362TIP3   OH228720   3.076   2.245   0.087 -0.1984  0.7391 -0.3554
 2362TIP3    H128721   3.143   2.298   0.044  0.6201  1.7416  2.0154
 2362TIP3    H228722   3.007   2.236   0.021  2.1631 -0.2926 -2.8881
 2363TIP3   OH228723   3.368   5.133   1.796 -0.1022  0.6365 -0.1042
 2363TIP3    H128724   3.285   5.151   1.751  1.0033  0.4671 -2.3246
 2363TIP3    H228725   3.376   5.037   1.793  0.8714  0.7272 -1.3263
 2364TIP3   OH228726   2.986   0.983   0.836  0.1323  0.0414 -0.3822
 2364TIP3    H128727   2.934   0.962   0.759  1.3035  3.0409 -2.1696
 2364TIP3    H228728   2.941   1.057   0.877  1.2402  0.6115 -0.1231
 2365TIP3   OH228729   2.022   0.863   7.729  0.6414  0.1887 -0.2349
 2365TIP3    H128730   2.016   0.922   7.655  0.3179 -0.3551 -0.6504
 2365TIP3    H228731   1.986   0.780   7.697 -1.6818  0.5508  1.1709
 2366TIP3   OH228732   3.453   5.070   0.885 -0.2724  0.0946  0.4089
 2366TIP3    H128733   3.448   5.115   0.969 -1.2066  0.6280  0.0842
 2366TIP3    H228734   3.476   4.980   0.907  0.4480  0.4504  1.1530
 2367TIP3   OH228735   4.729   1.581   7.892 -0.0006 -0.2225 -0.4862
 2367TIP3    H128736   4.659   1.522   7.864  0.6015 -1.0285 -0.3340
 2367TIP3    H228737   4.714   1.591   7.986 -1.0041  1.1107 -0.7563
 2368TIP3   OH228738   6.663   0.423   1.584  0.1275 -0.4454  0.6071
 2368TIP3    H128739   6.595   0.357   1.573 -0.2903  0.0965 -0.1524
 2368TIP3    H228740   6.625   0.486   1.646  0.7621 -1.2121  1.8099
 2369TIP3   OH228741   4.509   0.665   0.150 -0.1396 -0.2443  0.0773
 2369TIP3    H128742   4.526   0.575   0.180 -0.8647 -0.5911 -0.5162
 2369TIP3    H228743   4.480   0.711   0.229  0.6629 -0.4035  0.4815
 2370TIP3   OH228744   5.759   6.103   0.009  0.5256  0.2235  0.1069
 2370TIP3    H128745   5.839   6.155  -0.001  0.7456 -0.4089 -2.2036
 2370TIP3    H228746   5.788   6.013  -0.006 -0.9004  0.2011 -3.6560
 2371TIP3   OH228747   5.222   1.079   0.010  0.3421 -0.8457  0.2828
 2371TIP3    H128748   5.191   1.077  -0.081 -0.4826  1.9031  0.4228
 2371TIP3    H228749   5.314   1.053   0.004  0.4990 -0.0553 -1.4605
 2372TIP3   OH228750   6.020   5.580   1.709  0.3273 -0.4977  0.0997
 2372TIP3    H128751   6.113   5.595   1.728  0.3380 -0.6953  0.2015
 2372TIP3    H228752   5.988   5.530   1.783  0.0617 -0.1617  0.2141
 2373TIP3   OH228753   1.657   5.765   8.104  0.2334 -0.5075  0.0046
 2373TIP3    H128754   1.680   5.721   8.186  2.7471  0.8173  0.1144
 2373TIP3    H228755   1.738   5.764   8.053 -0.4293  1.3531 -1.1945
 2374TIP3   OH228756   6.796   4.025   0.699  0.2756  0.4103 -0.3613
 2374TIP3    H128757   6.862   4.093   0.717 -0.3947  1.1746 -0.7595
 2374TIP3    H228758   6.836   3.970   0.632  1.0196  0.1111  0.3083
 2375TIP3   OH228759   5.649   0.455   1.333 -0.2251 -0.3876 -0.5711
 2375TIP3    H128760   5.647   0.488   1.243  1.1134 -0.4223 -0.6367
 2375TIP3    H228761   5.706   0.378   1.329  0.4020  0.0083  0.4254
 2376TIP3   OH228762   4.768   1.820   7.244  0.0873 -0.1417 -0.0463
 2376TIP3    H128763   4.755   1.767   7.165 -1.6379  1.5244 -0.9583
 2376TIP3    H228764   4.858   1.801   7.271  0.3534 -1.6113 -1.7474
 2377TIP3   OH228765   3.431   3.287   7.281 -0.3595  0.4688 -0.3325
 2377TIP3    H128766   3.403   3.378   7.282  0.3235  0.7453  2.2640
 2377TIP3    H228767   3.360   3.239   7.324 -0.4609 -0.1376 -1.1524
 2378TIP3   OH228768   5.306   0.830   2.862  0.1688 -0.6610  0.1445
 2378TIP3    H128769   5.302   0.918   2.900 -1.6170 -0.7444  0.2313
 2378TIP3    H228770   5.391   0.826   2.818  0.4502  0.9518  0.5003
 2379TIP3   OH228771   2.197   4.781   2.624  0.5256  0.6522  0.1444
 2379TIP3    H128772   2.131   4.744   2.682  2.1667 -0.7419  1.1942
 2379TIP3    H228773   2.206   4.872   2.652 -0.3928  0.6483  0.4687
 2380TIP3   OH228774   4.851   3.511   1.902  0.2459 -0.0140  0.2035
 2380TIP3    H128775   4.914   3.458   1.854 -0.5494  1.1691 -2.3522
 2380TIP3    H228776   4.771   3.507   1.850 -1.7133 -1.0408  3.0612
 2381TIP3   OH228777   6.360   3.895   7.171  0.4075  0.0646 -0.3097
 2381TIP3    H128778   6.309   3.876   7.093 -0.8141  2.1794 -0.1089
 2381TIP3    H228779   6.356   3.991   7.179  1.2408 -0.0328  1.8465
 2382TIP3   OH228780   6.279   0.599   2.447  0.0367  0.0370 -0.4321
 2382TIP3    H128781   6.264   0.591   2.541 -1.8005  1.3737 -0.5638
 2382TIP3    H228782   6.364   0.643   2.440  0.0639  0.1760  0.6200
 2383TIP3   OH228783   1.624   0.002   0.259 -0.0971 -0.2386 -0.5625
 2383TIP3    H128784   1.584  -0.084   0.270 -0.1398 -0.1516  0.0094
 2383TIP3    H228785   1.570   0.060   0.312  2.4374 -0.6033  2.7663
 2384TIP3   OH228786   3.052   5.618   0.429  0.2440 -0.0767 -0.1011
 2384TIP3    H128787   3.033   5.525   0.415  0.0146  0.0645 -0.7634
 2384TIP3    H228788   2.976   5.652   0.477 -0.3381  0.0766 -1.1101
 2385TIP3   OH228789   6.129   2.097   0.515 -0.2039  0.0570 -0.1253
 2385TIP3    H128790   6.091   2.038   0.450  0.3208  0.7677 -1.0935
 2385TIP3    H228791   6.222   2.073   0.516 -0.1301  0.3575  0.0350
 2386TIP3   OH228792   6.329   3.775   0.392  0.0595 -0.0355 -0.5492
 2386TIP3    H128793   6.410   3.820   0.419  0.7810 -1.2399 -0.6483
 2386TIP3    H228794   6.306   3.816   0.309 -1.1474  2.4251  0.8576
 2387TIP3   OH228795   5.777   6.488   0.734 -0.1324  0.1646  0.1366
 2387TIP3    H128796   5.788   6.496   0.829  2.4473  1.4419 -0.1919
 2387TIP3    H228797   5.853   6.533   0.697 -0.0368 -1.9768 -2.5340
 2388TIP3   OH228798   5.754   3.698   7.781  0.4600 -0.0189 -0.0585
 2388TIP3    H128799   5.764   3.648   7.862 -0.1821  0.1004  0.0993
 2388TIP3    H228800   5.706   3.777   7.807  2.0022  1.0055 -0.1838
 2389TIP3   OH228801   3.420   5.917   1.579  0.2330  0.3993 -0.7207
 2389TIP3    H128802   3.450   5.936   1.668 -0.3266  0.5927 -0.5682
 2389TIP3    H228803   3.346   5.857   1.591 -0.5205  1.2503 -0.9876
 2390TIP3   OH228804   5.402   3.965   8.075 -0.5342  0.1593 -0.0425
 2390TIP3    H128805   5.408   3.956   8.170 -1.1343  0.6799  0.0514
 2390TIP3    H228806   5.321   4.013   8.061 -1.1245 -1.0367 -0.8906
 2391TIP3   OH228807   3.700   0.583   1.039  0.0557 -0.1013 -0.1357
 2391TIP3    H128808   3.781   0.622   1.006  0.3824 -1.2927 -0.7854
 2391TIP3    H228809   3.728   0.526   1.111 -0.4731  1.2020  1.1584
 2392TIP3   OH228810   2.562   1.411   2.378  0.6822  0.1763  0.1535
 2392TIP3    H128811   2.576   1.503   2.357  1.1230  0.1859  0.4743
 2392TIP3    H228812   2.557   1.409   2.474 -0.5005  0.0258  0.0931
 2393TIP3   OH228813   1.065   4.708   8.575 -0.1645 -0.6698  0.4953
 2393TIP3    H128814   1.148   4.715   8.623 -1.5354  1.0555  2.8387
 2393TIP3    H228815   1.084   4.748   8.490  1.8842 -2.1744  0.1543
 2394TIP3   OH228816   6.199   0.018   8.579  0.1373  0.0743  0.6514
 2394TIP3    H128817   6.225   0.003   8.488  0.3256 -0.2920  0.7618
 2394TIP3    H228818   6.136   0.090   8.575  0.4150  0.3026  0.2670
 2395TIP3   OH228819   0.352   1.008   0.622 -1.0293  0.3810  0.4292
 2395TIP3    H128820   0.286   0.940   0.636 -0.9702  0.6562  2.3319
 2395TIP3    H228821   0.304   1.090   0.631 -0.4764  0.5828  1.6975
 2396TIP3   OH228822   2.314   4.446   2.113  0.3846  0.3420  0.0783
 2396TIP3    H128823   2.324   4.424   2.206  2.1480 -0.6571 -0.3017
 2396TIP3    H228824   2.388   4.503   2.093 -0.1445  0.7922 -0.6604
 2397TIP3   OH228825   1.752   6.118   1.324  0.1928  0.1815 -0.1363
 2397TIP3    H128826   1.764   6.029   1.357 -0.0270  0.6028  1.1321
 2397TIP3    H228827   1.658   6.133   1.330  0.3350  0.8296  0.5610
 2398TIP3   OH228828   5.450   0.753   8.409 -0.1044 -0.1564 -0.3970
 2398TIP3    H128829   5.424   0.681   8.353  0.1750 -0.8896  0.3928
 2398TIP3    H228830   5.543   0.737   8.428 -0.5033 -0.6566  1.3095
 2399TIP3   OH228831   1.466   6.641   3.103  0.1148  0.1445  0.3224
 2399TIP3    H128832   1.523   6.695   3.048 -1.4144  0.1574 -1.3494
 2399TIP3    H228833   1.479   6.552   3.071 -0.4949  0.0976  0.1817
 2400TIP3   OH228834   1.097   6.042   1.527 -0.4716 -0.1529 -0.1400
 2400TIP3    H128835   1.076   6.117   1.472 -1.0837 -1.3047 -1.5342
 2400TIP3    H228836   1.137   6.080   1.605 -0.1644  1.5676 -1.0907
 2401TIP3   OH228837   1.897   3.470   2.321 -0.6061 -0.1233 -0.0342
 2401TIP3    H128838   1.804   3.451   2.309 -0.7556 -0.1383  1.0469
 2401TIP3    H228839   1.942   3.408   2.263 -1.1663 -2.1904  1.6401
 2402TIP3   OH228840   2.863   6.503   3.171 -0.3053 -0.0632  0.1034
 2402TIP3    H128841   2.776   6.463   3.169  0.0400 -1.0515  1.9974
 2402TIP3    H228842   2.871   6.550   3.088 -2.7725  0.3480  0.0369
 2403TIP3   OH228843   3.339   1.898   1.944 -0.5656  0.4871  0.0843
 2403TIP3    H128844   3.331   1.803   1.938  0.6823  0.3626  0.0501
 2403TIP3    H228845   3.254   1.932   1.915 -1.3408 -0.6283  0.9709
 2404TIP3   OH228846   5.761   0.740   8.405  0.4472  0.2372 -0.2033
 2404TIP3    H128847   5.809   0.670   8.362  1.6184  1.4110 -0.8501
 2404TIP3    H228848   5.798   0.744   8.494  0.2968 -0.0208 -0.1261
 2405TIP3   OH228849   1.393   2.788   2.274  0.2375  0.0425  0.5754
 2405TIP3    H128850   1.409   2.705   2.320 -0.0887  0.2704  1.1055
 2405TIP3    H228851   1.322   2.769   2.213 -0.2739  0.0918  1.1482
 2406TIP3   OH228852   3.122   4.710   8.766  0.1309 -0.2486  0.2463
 2406TIP3    H128853   3.129   4.680   8.675  1.6048 -0.5042  0.4197
 2406TIP3    H228854   3.120   4.805   8.760 -0.1400 -0.2716 -0.0700
 2407TIP3   OH228855   4.389   4.504   0.742  0.2230  0.4489 -0.1664
 2407TIP3    H128856   4.386   4.411   0.720 -0.2895  0.0922  1.3154
 2407TIP3    H228857   4.482   4.524   0.752  0.2507 -0.6350  2.3249
 2408TIP3   OH228858   5.491   0.733   1.373  0.4390 -0.0522 -0.8451
 2408TIP3    H128859   5.548   0.731   1.450  2.0187  3.2166 -1.7129
 2408TIP3    H228860   5.549   0.764   1.303 -2.0246  1.7903 -2.1883
 2409TIP3   OH228861   3.208   1.359   7.084  1.0230  0.0657 -0.4549
 2409TIP3    H128862   3.195   1.264   7.074 -0.7402  0.2055  0.2220
 2409TIP3    H228863   3.188   1.395   6.998  0.7912 -0.0903 -0.4660
 2410TIP3   OH228864   3.808   2.904   0.435  0.1533  0.1480 -0.5139
 2410TIP3    H128865   3.813   2.974   0.370  0.3456 -0.2214 -0.9110
 2410TIP3    H228866   3.726   2.918   0.481 -0.5400 -0.2281 -1.5996
 2411TIP3   OH228867   2.944   5.864   8.637 -0.3338  0.1139  0.4723
 2411TIP3    H128868   2.968   5.957   8.633  1.9510 -0.4420 -0.1032
 2411TIP3    H228869   3.028   5.818   8.643 -1.4840 -1.8300  3.7794
 2412TIP3   OH228870   2.973   1.458   1.815  0.5676  0.5827 -0.2452
 2412TIP3    H128871   2.933   1.524   1.872 -1.0721 -0.2642 -0.3497
 2412TIP3    H228872   2.965   1.376   1.864  0.3569  0.0707 -1.1199
 2413TIP3   OH228873   1.631   2.217   2.984 -0.4554 -0.2545  0.2873
 2413TIP3    H128874   1.626   2.282   2.915 -3.5465 -1.3831 -0.7528
 2413TIP3    H228875   1.589   2.139   2.947 -1.2272 -1.2864  3.0181
 2414TIP3   OH228876   1.939   1.126   0.646 -0.3377 -0.6056  0.0348
 2414TIP3    H128877   1.934   1.182   0.723 -0.0739  0.4856 -0.7156
 2414TIP3    H228878   1.879   1.167   0.583 -0.1772 -1.1987 -0.5092
 2415TIP3   OH228879   1.107   1.290   1.138  0.3385  0.4022  0.0099
 2415TIP3    H128880   1.100   1.353   1.210  0.2440  0.5344 -0.1140
 2415TIP3    H228881   1.016   1.265   1.119  0.4438 -0.7438  0.9077
 2416TIP3   OH228882   5.555   2.476   1.662  0.3261  0.2578  0.1011
 2416TIP3    H128883   5.472   2.430   1.651  0.4858 -0.0601  0.1900
 2416TIP3    H228884   5.621   2.414   1.630  0.7742 -0.6014  2.4757
 2417TIP3   OH228885   4.006   2.301   2.120  0.0873  0.4278 -0.5897
 2417TIP3    H128886   3.936   2.303   2.185 -0.1100 -1.3752 -0.6950
 2417TIP3    H228887   4.042   2.213   2.127  2.5715  1.3856 -0.3201
 2418TIP3   OH228888   1.874   4.702   7.699 -0.1348  0.0483  0.3935
 2418TIP3    H128889   1.823   4.639   7.648  1.1434  0.7934 -1.9542
 2418TIP3    H228890   1.915   4.649   7.768  1.1817 -1.8708 -1.6886
 2419TIP3   OH228891   0.003   2.234   0.693  0.3628 -0.4051 -0.1555
 2419TIP3    H128892   0.060   2.176   0.644  0.8078  1.0898 -1.4989
 2419TIP3    H228893  -0.073   2.181   0.715  2.0610 -2.3799  1.4190
 2420TIP3   OH228894   6.710   6.502   2.316 -0.4923  0.1408  0.1798
 2420TIP3    H128895   6.674   6.590   2.331 -0.7574 -0.2750  2.3352
 2420TIP3    H228896   6.641   6.456   2.268 -0.7926  0.8003 -0.0318
 2421TIP3   OH228897   5.293   6.073   1.469 -0.5192 -0.3126 -0.3763
 2421TIP3    H128898   5.243   6.010   1.417 -1.0964  0.7792 -1.1826
 2421TIP3    H228899   5.235   6.148   1.479  0.8208  0.8759 -1.0846
 2422TIP3   OH228900   3.971   3.630   6.678  0.3565  0.1029 -0.2289
 2422TIP3    H128901   3.917   3.695   6.633  0.0429 -2.0049 -3.1516
 2422TIP3    H228902   3.913   3.556   6.694  1.5358 -0.8555 -0.2439
 2423TIP3   OH228903   1.293   4.721   8.257 -0.1174  0.4116  0.0108
 2423TIP3    H128904   1.300   4.762   8.343 -0.7098 -1.0718  0.8054
 2423TIP3    H228905   1.199   4.712   8.243 -0.0195 -1.0440  0.0849
 2424TIP3   OH228906   3.492   2.098   0.030 -0.5680  0.0701 -0.0106
 2424TIP3    H128907   3.579   2.101   0.070 -0.5440  1.7043 -0.1290
 2424TIP3    H228908   3.438   2.155   0.086 -1.4425 -0.5421 -0.2154
 2425TIP3   OH228909   0.838   4.585   8.334 -0.2468 -0.5364 -0.6478
 2425TIP3    H128910   0.804   4.524   8.269  1.2085 -1.5963 -0.4721
 2425TIP3    H228911   0.840   4.534   8.416 -1.3020  0.5265  0.0809
 2426TIP3   OH228912   5.107   5.379   1.631  0.6781 -0.0448  1.1188
 2426TIP3    H128913   5.176   5.321   1.664  1.1393  0.3866  0.9376
 2426TIP3    H228914   5.153   5.439   1.572  0.0173 -0.2292  0.3946
 2427TIP3   OH228915   3.709   1.248   1.247 -0.0860  0.4133 -0.3828
 2427TIP3    H128916   3.721   1.188   1.321 -0.7920  1.0878  0.3046
 2427TIP3    H228917   3.754   1.206   1.174  0.2874 -0.4635  0.3318
 2428TIP3   OH228918   0.815   0.968   1.876  0.1547 -0.0791 -0.1052
 2428TIP3    H128919   0.768   0.951   1.957 -1.9366 -0.3259 -1.2831
 2428TIP3    H228920   0.878   1.037   1.898  0.6609 -1.1668  2.0212
 2429TIP3   OH228921   3.820   0.681   8.567  0.1934 -0.2066  0.1804
 2429TIP3    H128922   3.818   0.704   8.474  0.4699 -1.2137 -0.0927
 2429TIP3    H228923   3.857   0.592   8.568 -2.3820 -1.3617  1.0083
 2430TIP3   OH228924   5.518   0.922   2.702 -0.2854 -0.4625 -0.1324
 2430TIP3    H128925   5.560   1.008   2.713 -1.9297  0.1301  2.2838
 2430TIP3    H228926   5.590   0.859   2.710  0.9296  0.6215 -1.7907
 2431TIP3   OH228927   3.478   0.859   7.756 -0.2678 -0.1243  0.4545
 2431TIP3    H128928   3.514   0.946   7.741  1.3485 -0.7978  0.2404
 2431TIP3    H228929   3.504   0.809   7.678 -3.1627 -0.2537 -0.5637
 2432TIP3   OH228930   3.613   3.046   8.708  0.1392  0.1394 -0.2010
 2432TIP3    H128931   3.563   2.970   8.675 -0.4704  0.1206  0.7334
 2432TIP3    H228932   3.702   3.030   8.678 -0.0158 -0.8614 -0.1802
 2433TIP3   OH228933   5.249   5.704   7.793  0.3381  0.1499  0.2310
 2433TIP3    H128934   5.318   5.668   7.737 -0.3009  0.8871 -1.0699
 2433TIP3    H228935   5.245   5.644   7.867  0.2812 -1.6486 -1.1561
 2434TIP3   OH228936   4.497   0.926   7.021  0.0706  0.2875 -0.4675
 2434TIP3    H128937   4.488   0.843   6.974  1.0457  0.3649 -0.8110
 2434TIP3    H228938   4.419   0.976   6.997 -0.3349 -0.3755 -0.5563
 2435TIP3   OH228939   6.411   0.697   0.470  0.2764 -1.0221 -0.3997
 2435TIP3    H128940   6.460   0.766   0.515  0.9137 -1.5535 -0.2497
 2435TIP3    H228941   6.405   0.626   0.535 -3.1581  0.0265  0.5964
 2436TIP3   OH228942   4.007   5.352   2.656 -0.0760 -0.1904 -0.0731
 2436TIP3    H128943   4.049   5.366   2.741 -0.8993  0.7963  0.1986
 2436TIP3    H228944   3.976   5.262   2.659  2.2468 -1.0460 -0.4034
 2437TIP3   OH228945   5.268   2.768   7.810 -0.1468 -0.2385 -0.1064
 2437TIP3    H128946   5.286   2.862   7.810 -0.1321 -0.2411 -0.3048
 2437TIP3    H228947   5.221   2.753   7.892 -0.2235 -0.0440 -0.1137
 2438TIP3   OH228948   1.932   3.679   7.686  0.3521 -0.4545  0.3438
 2438TIP3    H128949   1.892   3.755   7.728 -0.9535 -0.6524 -0.4704
 2438TIP3    H228950   2.002   3.651   7.746  0.8093  1.3275  0.6874
 2439TIP3   OH228951   1.200   5.951   0.724 -0.7450 -0.4677 -0.3173
 2439TIP3    H128952   1.200   5.856   0.734  2.3498 -0.4709  0.4787
 2439TIP3    H228953   1.182   5.985   0.812 -0.4354 -0.3240 -0.3086
 2440TIP3   OH228954   0.599   0.900   2.762  0.1917  0.2983  0.2387
 2440TIP3    H128955   0.601   0.816   2.809  1.9830 -0.1535 -0.5666
 2440TIP3    H228956   0.666   0.953   2.804  0.0578  0.8135 -0.1839
 2441TIP3   OH228957   0.497   4.185   2.225 -0.1096  0.0256  0.0699
 2441TIP3    H128958   0.458   4.099   2.243  2.2422 -0.8837  1.3510
 2441TIP3    H228959   0.447   4.246   2.278 -1.5285 -0.6069 -0.4946
 2442TIP3   OH228960   6.119   6.025   8.019  0.3389 -0.2500  0.1054
 2442TIP3    H128961   6.141   5.943   8.063 -0.4905 -0.6363 -0.1744
 2442TIP3    H228962   6.070   5.998   7.941  2.0564  0.3872 -1.2685
 2443TIP3   OH228963   6.081   3.584   8.391  0.4255 -0.1897 -0.4520
 2443TIP3    H128964   5.986   3.590   8.403  0.2134 -1.5070 -1.2732
 2443TIP3    H228965   6.116   3.657   8.441 -1.0191  0.2679 -0.0616
 2444TIP3   OH228966   0.920   1.290   1.481 -0.3156  0.1151 -0.3541
 2444TIP3    H128967   0.887   1.356   1.542 -2.1438 -0.2545 -0.8699
 2444TIP3    H228968   0.880   1.208   1.510  0.8659 -0.5412 -0.5165
 2445TIP3   OH228969   0.759   2.098   0.940  0.6146 -0.1644  0.2982
 2445TIP3    H128970   0.691   2.046   0.982 -0.9090  1.0084 -0.6077
 2445TIP3    H228971   0.813   2.035   0.892 -2.1295 -0.8567 -2.1325
 2446TIP3   OH228972   6.005   1.564   1.708 -0.2279  0.0619 -0.6874
 2446TIP3    H128973   6.090   1.540   1.745 -0.7706  0.2556  0.7503
 2446TIP3    H228974   5.970   1.483   1.672 -0.8031 -0.7714  1.5883
 2447TIP3   OH228975   5.360   1.082   2.355  0.4514 -1.3177 -0.3571
 2447TIP3    H128976   5.310   1.109   2.432  1.5375 -1.0363  0.2762
 2447TIP3    H228977   5.450   1.108   2.375  0.8137 -1.5831 -1.5689
 2448TIP3   OH228978   2.594   5.628   7.484  0.2183 -0.1320  0.0490
 2448TIP3    H128979   2.658   5.696   7.463  0.3974 -0.5803 -0.9288
 2448TIP3    H228980   2.552   5.608   7.400  0.6804 -1.7431  0.1673
 2449TIP3   OH228981   0.902   6.596   8.534 -0.1169 -0.2461 -0.2799
 2449TIP3    H128982   0.880   6.525   8.594 -2.3963  0.6794  0.1254
 2449TIP3    H228983   0.964   6.651   8.583 -0.8063 -0.2966  0.6800
 2450TIP3   OH228984   5.049   5.501   8.740  0.0434  0.4716 -0.4190
 2450TIP3    H128985   5.144   5.515   8.741  0.1662 -0.3157 -0.2636
 2450TIP3    H228986   5.014   5.568   8.799  0.6610 -0.2509  0.8159
 2451TIP3   OH228987   5.505   3.021   7.570  0.5058  0.4510  0.5602
 2451TIP3    H128988   5.514   2.926   7.572  0.8221  0.4533 -0.4489
 2451TIP3    H228989   5.560   3.049   7.497 -1.7655  1.1463 -1.0084
 2452TIP3   OH228990   5.265   3.322   7.317  0.1143 -0.3927  1.0175
 2452TIP3    H128991   5.269   3.229   7.339  1.1735 -0.4707  0.5687
 2452TIP3    H228992   5.227   3.324   7.229  1.0539 -0.4865  0.5998
 2453TIP3   OH228993   6.769   2.392   0.208  0.1353  0.1271  0.2059
 2453TIP3    H128994   6.863   2.393   0.229 -0.0196 -1.2806  1.1295
 2453TIP3    H228995   6.727   2.424   0.288 -0.2589 -1.2797  0.5879
 2454TIP3   OH228996   3.934   2.014   7.832  0.1329 -0.2070  0.3766
 2454TIP3    H128997   3.938   1.925   7.869 -0.4419 -0.5939 -0.4660
 2454TIP3    H228998   3.864   2.010   7.767  0.7298  0.6289 -0.3355
 2455TIP3   OH228999   5.544   1.389   7.750 -0.3867 -0.2014 -0.1763
 2455TIP3    H129000   5.625   1.341   7.768 -1.2481 -2.2979 -1.5194
 2455TIP3    H229001   5.499   1.393   7.834 -0.3465 -1.9071 -0.0490
 2456TIP3   OH229002   3.420   3.394   8.722  0.3761 -0.2650 -0.2409
 2456TIP3    H129003   3.328   3.422   8.717  0.5948  0.8522  1.0705
 2456TIP3    H229004   3.459   3.427   8.642 -0.2013 -0.0520 -0.4443
 2457TIP3   OH229005   5.322   2.039   1.039  0.6924  0.1981 -0.4765
 2457TIP3    H129006   5.292   1.949   1.054  2.7042 -0.6444 -1.0978
 2457TIP3    H229007   5.244   2.093   1.049 -0.7159 -1.6971 -0.7587
 2458TIP3   OH229008   4.030   6.543   2.586  0.2826  0.0778 -0.4054
 2458TIP3    H129009   4.041   6.521   2.678  1.7725  0.4450 -0.4805
 2458TIP3    H229010   4.074   6.472   2.539 -0.6310 -0.2100 -0.8689
 2459TIP3   OH229011   6.031   4.136   0.509  0.2356 -0.5182  0.2376
 2459TIP3    H129012   6.006   4.084   0.585 -1.4843  0.6926  0.5602
 2459TIP3    H229013   5.972   4.108   0.440  0.0778  0.1454  0.0895
 2460TIP3   OH229014   2.877   1.772   7.866 -0.3804  0.3673 -0.9043
 2460TIP3    H129015   2.797   1.722   7.884 -0.4518  0.3395 -1.3086
 2460TIP3    H229016   2.859   1.820   7.786  0.3453 -0.3565 -1.5145
 2461TIP3   OH229017   1.120   0.454   7.185 -0.1444 -0.3264  0.5728
 2461TIP3    H129018   1.194   0.474   7.243 -0.8561  2.0650  0.7587
 2461TIP3    H229019   1.047   0.435   7.245 -0.3636  0.0721  0.4332
 2462TIP3   OH229020   2.091   6.770   8.849 -0.0390  0.1498  0.2247
 2462TIP3    H129021   2.033   6.746   8.921  0.8459  0.8769  1.2125
 2462TIP3    H229022   2.098   6.690   8.796  2.0695 -1.5897  2.8905
 2463TIP3   OH229023   3.513   5.129   7.594  0.3982 -0.2540 -0.1850
 2463TIP3    H129024   3.492   5.135   7.688 -0.0044  2.0454 -0.3651
 2463TIP3    H229025   3.452   5.063   7.560 -0.6973  0.2001  0.8417
 2464TIP3   OH229026   5.061   0.875   2.021  0.0342 -0.2991  0.3712
 2464TIP3    H129027   5.105   0.928   1.955 -1.6640  0.5767 -0.0964
 2464TIP3    H229028   5.097   0.907   2.104 -0.0778  0.7610  0.0298
 2465TIP3   OH229029   4.182   3.291   2.416 -0.0440  0.2506  0.0706
 2465TIP3    H129030   4.199   3.314   2.507  0.2743  0.0449  0.0663
 2465TIP3    H229031   4.129   3.212   2.420  0.8606 -0.3715  0.0799
 2466TIP3   OH229032   5.152   5.518   0.781  0.4562  0.5245 -0.0773
 2466TIP3    H129033   5.164   5.576   0.705  1.5241  0.5307  0.0824
 2466TIP3    H229034   5.184   5.433   0.751 -1.7212 -0.2131 -0.5352
 2467TIP3   OH229035   5.456   4.824   6.844  0.1040 -0.0482 -0.0845
 2467TIP3    H129036   5.529   4.886   6.840  0.8558 -0.9846 -1.9673
 2467TIP3    H229037   5.497   4.738   6.851 -0.7491 -0.6349 -1.7592
 2468TIP3   OH229038   0.387   5.310   0.099  0.3890 -0.3613  0.3125
 2468TIP3    H129039   0.482   5.313   0.084  0.5800 -1.8392  1.0238
 2468TIP3    H229040   0.351   5.372   0.036  1.9857  2.0210  1.5605
 2469TIP3   OH229041   3.947   1.896   1.455 -0.0420 -0.0760  0.2712
 2469TIP3    H129042   4.025   1.872   1.405  1.5623  1.9185  1.6838
 2469TIP3    H229043   3.971   1.880   1.547 -1.6402 -0.2990  0.6823
 2470TIP3   OH229044   3.912   0.165   8.766 -0.2633  0.2818 -0.9083
 2470TIP3    H129045   3.855   0.168   8.843  0.4945  0.0565 -0.3170
 2470TIP3    H229046   3.872   0.224   8.703 -0.6359  0.8491 -0.1491
 2471TIP3   OH229047   2.705   1.023   1.230  0.2140 -0.1132  0.4454
 2471TIP3    H129048   2.620   1.037   1.188  1.2064 -0.7485 -1.9877
 2471TIP3    H229049   2.684   0.978   1.312 -1.8362  0.6935  0.4271
 2472TIP3   OH229050   2.326   2.158   0.150  0.0231 -0.2177  0.4151
 2472TIP3    H129051   2.394   2.116   0.097  0.3260  0.2651  0.4206
 2472TIP3    H229052   2.250   2.162   0.091  0.2718  0.0601  0.1084
 2473TIP3   OH229053   6.040   3.130   1.791 -0.1575 -0.3444  0.2227
 2473TIP3    H129054   5.979   3.195   1.828  1.0308  0.4335  0.8917
 2473TIP3    H229055   6.027   3.136   1.697 -0.7696  0.1664  0.3350
 2474TIP3   OH229056   0.911   0.011   0.424  0.5239 -0.0856  0.0004
 2474TIP3    H129057   0.974   0.081   0.440  1.1853 -0.7929  0.5840
 2474TIP3    H229058   0.936  -0.059   0.485 -1.2016 -0.1570  0.7086
 2475TIP3   OH229059   2.448   1.551   7.461  0.2265 -0.0147 -0.2037
 2475TIP3    H129060   2.365   1.525   7.420 -0.7915  0.4363  1.4816
 2475TIP3    H229061   2.494   1.469   7.477 -0.3974 -0.3559 -0.1321
 2476TIP3   OH229062   2.582   1.657   8.470 -0.4124  0.0743 -0.3184
 2476TIP3    H129063   2.590   1.705   8.553  2.5615  2.6431 -1.8810
 2476TIP3    H229064   2.670   1.624   8.453 -1.6124 -2.9993 -1.1237
 2477TIP3   OH229065   1.370   2.079   1.951 -0.6808  0.3125 -0.0633
 2477TIP3    H129066   1.361   1.993   1.911 -0.8115  0.7809 -1.0659
 2477TIP3    H229067   1.280   2.108   1.967 -0.8255  1.6262 -2.7633
 2478TIP3   OH229068   3.272   6.480   8.532  0.2920  0.2586  0.5681
 2478TIP3    H129069   3.259   6.422   8.606 -0.2687 -0.5624 -0.1545
 2478TIP3    H229070   3.186   6.517   8.515  0.4730  0.6529  0.4951
 2479TIP3   OH229071   5.303   0.627   1.528 -0.2324 -0.2901  0.2082
 2479TIP3    H129072   5.343   0.682   1.460 -0.5070 -1.3595 -0.8462
 2479TIP3    H229073   5.341   0.659   1.609 -0.4930  1.5630 -0.3418
 2480TIP3   OH229074   5.252   5.539   7.047  0.1398 -0.1382  0.8473
 2480TIP3    H129075   5.318   5.595   7.007 -0.7876  1.4640  1.4748
 2480TIP3    H229076   5.289   5.451   7.042  0.5745  0.1339 -2.4065
 2481TIP3   OH229077   6.118   2.283   8.868  0.4721  0.7800 -0.0110
 2481TIP3    H129078   6.025   2.275   8.887  0.4905 -2.4581 -0.6959
 2481TIP3    H229079   6.126   2.257   8.776  2.1965 -1.0438  0.5832
 2482TIP3   OH229080   1.506   3.666   2.182  0.2539  0.0746 -0.1031
 2482TIP3    H129081   1.591   3.706   2.200 -0.5731  2.5493 -1.1466
 2482TIP3    H229082   1.442   3.730   2.215 -1.2564 -2.0231  1.2933
 2483TIP3   OH229083   2.519   3.947   2.734  0.7806  0.4767 -0.1336
 2483TIP3    H129084   2.474   4.024   2.699  0.7566  0.4001 -0.2716
 2483TIP3    H229085   2.495   3.945   2.826 -0.5518 -0.3040 -0.4719
 2484TIP3   OH229086   3.667   0.477   0.121 -0.1578 -0.4405 -0.2266
 2484TIP3    H129087   3.740   0.512   0.170 -0.7369 -0.3782  0.6168
 2484TIP3    H229088   3.628   0.411   0.179  0.3077 -1.7767 -1.3751
 2485TIP3   OH229089   0.512   1.804   2.223 -0.1775  0.0498 -0.3723
 2485TIP3    H129090   0.531   1.894   2.197  1.7590 -0.1100  0.3266
 2485TIP3    H229091   0.542   1.798   2.314 -1.8398 -0.8536  0.1567
 2486TIP3   OH229092   3.034   4.067   0.011  0.2808  0.0554  0.1334
 2486TIP3    H129093   2.972   4.108  -0.048 -0.2623 -0.6695  0.1891
 2486TIP3    H229094   2.990   4.066   0.096 -0.6927 -2.6594 -0.3053
 2487TIP3   OH229095   0.164   3.420   1.558 -0.0032  0.5021  0.1103
 2487TIP3    H129096   0.096   3.370   1.513  1.8584 -1.4632 -0.6408
 2487TIP3    H229097   0.202   3.359   1.621  1.8554  1.1596 -0.3084
 2488TIP3   OH229098   3.763   5.564   1.778 -0.3281 -0.2431 -0.1778
 2488TIP3    H129099   3.782   5.655   1.801  1.6949 -0.8149  0.6191
 2488TIP3    H229100   3.697   5.536   1.841  1.5124 -0.2876  1.8329
 2489TIP3   OH229101   4.130   1.398   0.654 -0.5048 -0.2905 -0.2999
 2489TIP3    H129102   4.154   1.354   0.735 -0.1664  1.6610  0.7333
 2489TIP3    H229103   4.047   1.358   0.628 -1.7603  0.4742  2.2117
 2490TIP3   OH229104   4.308   1.756   0.497  0.2115 -0.2486  0.3746
 2490TIP3    H129105   4.293   1.712   0.581  1.1548 -0.7626  0.2859
 2490TIP3    H229106   4.225   1.799   0.477 -0.4087 -1.1464  0.9713
 2491TIP3   OH229107   5.052   6.490   2.968  0.3996  0.4190  0.0516
 2491TIP3    H129108   5.110   6.434   3.019  0.4863 -0.7705 -1.2780
 2491TIP3    H229109   5.108   6.561   2.937  1.0975 -0.5483 -0.9609
 2492TIP3   OH229110   6.213   6.649   2.852 -0.7317  0.0043  0.6648
 2492TIP3    H129111   6.294   6.607   2.879 -0.9302 -0.5645  0.3961
 2492TIP3    H229112   6.144   6.586   2.875 -0.9694 -0.1505 -0.3966
 2493TIP3   OH229113   2.441   1.389   2.109  0.4456  0.6500 -0.3257
 2493TIP3    H129114   2.452   1.483   2.097  1.7684  0.6331  0.5420
 2493TIP3    H229115   2.460   1.374   2.202  0.5730 -0.5074 -0.5160
 2494TIP3   OH229116   4.354   3.300   0.236 -0.0438  0.0604 -0.1105
 2494TIP3    H129117   4.340   3.229   0.174  0.2054  0.2590 -0.3951
 2494TIP3    H229118   4.289   3.284   0.305 -0.6762  0.1401 -0.6783
 2495TIP3   OH229119   5.732   5.196   7.325  0.2308 -0.2536 -0.1939
 2495TIP3    H129120   5.684   5.213   7.406 -0.5680  1.3018 -0.9315
 2495TIP3    H229121   5.678   5.134   7.277 -0.2660  0.2688 -0.3262
 2496TIP3   OH229122   2.751   6.390   7.966 -0.5087  0.0528 -0.0137
 2496TIP3    H129123   2.728   6.425   8.053 -0.4961  0.9070 -0.3441
 2496TIP3    H229124   2.749   6.295   7.977 -1.1926  0.1465  0.7465
 2497TIP3   OH229125   2.150   5.439   0.576 -0.2338 -0.5015  0.0213
 2497TIP3    H129126   2.101   5.519   0.556 -1.1972 -0.5851  1.8705
 2497TIP3    H229127   2.126   5.379   0.506 -0.4417  0.4240 -0.7248
 2498TIP3   OH229128   5.909   1.071   8.720  0.1560  0.0258 -0.0983
 2498TIP3    H129129   5.995   1.111   8.730 -0.2652  1.3225 -1.2119
 2498TIP3    H229130   5.895   1.069   8.625 -1.2065  0.2783  0.0664
 2499TIP3   OH229131   2.046   6.340   2.746 -0.0794  0.0249  0.2671
 2499TIP3    H129132   2.134   6.362   2.776 -0.0647 -2.1036  2.0633
 2499TIP3    H229133   2.058   6.310   2.656  0.9909  0.0922  0.3797
 2500TIP3   OH229134   3.136   3.049   1.996 -0.2377  0.0804  0.2959
 2500TIP3    H129135   3.105   2.961   2.021 -1.2008 -0.1839 -1.6615
 2500TIP3    H229136   3.095   3.066   1.911  3.0981  0.7296 -1.3615
 2501TIP3   OH229137   3.903   3.947   8.545 -0.4563 -0.3469  0.4267
 2501TIP3    H129138   3.907   3.997   8.627  0.0872 -0.8854  0.7378
 2501TIP3    H229139   3.921   3.857   8.571 -2.1122 -0.8439 -0.0330
 2502TIP3   OH229140   1.063   2.011   0.906  0.4086 -0.8030 -0.0978
 2502TIP3    H129141   1.076   2.096   0.950 -1.4604  0.1170 -1.1817
 2502TIP3    H229142   1.127   2.012   0.834  0.1463 -0.1251 -0.3358
 2503TIP3   OH229143   0.960   4.803   7.902 -0.0306  0.1477 -0.4807
 2503TIP3    H129144   0.880   4.785   7.852 -1.4964  2.5337  0.8217
 2503TIP3    H229145   1.028   4.812   7.835 -1.1007 -0.6108 -1.7388
 2504TIP3   OH229146   5.155   0.890   2.273  0.5512  0.1454  0.2011
 2504TIP3    H129147   5.144   0.850   2.360 -1.6158  0.4562  0.1334
 2504TIP3    H229148   5.236   0.941   2.280  0.3922  0.2206  2.0769
 2505TIP3   OH229149   1.585   0.768   7.434 -0.0763 -0.1197  0.5867
 2505TIP3    H129150   1.628   0.683   7.422  0.9841  0.6921 -2.1019
 2505TIP3    H229151   1.551   0.790   7.347 -0.6188  2.0706  1.2876
 2506TIP3   OH229152   6.393   3.677   0.077 -0.3030  0.3552  0.0161
 2506TIP3    H129153   6.340   3.739   0.027  0.5174 -0.0839 -1.4619
 2506TIP3    H229154   6.329   3.620   0.120 -1.0625  0.4976 -0.8823
 2507TIP3   OH229155   1.486   0.794   2.515 -0.6427  0.2178 -0.0966
 2507TIP3    H129156   1.566   0.831   2.553 -0.9416  1.6637 -0.8052
 2507TIP3    H229157   1.438   0.870   2.483 -0.7055 -0.8735 -2.8045
 2508TIP3   OH229158   6.121   6.377   6.906  0.7719  0.3489 -0.1487
 2508TIP3    H129159   6.160   6.358   6.821 -1.9412 -0.1346 -1.4079
 2508TIP3    H229160   6.118   6.292   6.950  0.1156  0.1541 -0.5493
 2509TIP3   OH229161   3.362   6.193   8.726 -0.3454  0.1891  0.0183
 2509TIP3    H129162   3.306   6.248   8.781 -1.4675 -1.5222  0.6521
 2509TIP3    H229163   3.324   6.200   8.639  0.5914  1.7719 -0.3191
 2510TIP3   OH229164   3.035   0.420   1.883  0.2343 -0.5079 -0.0302
 2510TIP3    H129165   2.948   0.442   1.849  0.4457  0.1033 -0.1879
 2510TIP3    H229166   3.064   0.499   1.927  0.5098 -0.8726  0.4527
 2511TIP3   OH229167   2.860   3.064   0.772  0.1672  0.0109  0.1140
 2511TIP3    H129168   2.911   3.042   0.850 -0.4289 -0.6807  0.3190
 2511TIP3    H229169   2.811   3.142   0.796  0.9571  0.5631 -0.0167
 2512TIP3   OH229170   0.076   1.533   2.035  0.7870  0.1897  0.2930
 2512TIP3    H129171   0.136   1.601   2.066  0.7172  0.3026  0.1820
 2512TIP3    H229172  -0.011   1.566   2.056  0.6590  0.9246 -1.2866
 2513TIP3   OH229173   4.394   5.525   0.531 -0.3097  0.1184 -0.1492
 2513TIP3    H129174   4.368   5.498   0.619 -0.5061 -0.1013 -0.2733
 2513TIP3    H229175   4.472   5.580   0.544  0.3269 -0.8184  0.0838
 2514TIP3   OH229176   0.453   5.739   1.531 -0.0450 -0.3845  0.4342
 2514TIP3    H129177   0.450   5.813   1.593 -1.5718  0.9858 -1.1597
 2514TIP3    H229178   0.381   5.682   1.559  1.4104 -1.5855  1.9376
 2515TIP3   OH229179   1.949   6.704   0.712  0.2031  0.1532 -0.5301
 2515TIP3    H129180   1.925   6.654   0.789  0.8528  0.3069 -0.2168
 2515TIP3    H229181   2.012   6.648   0.666  1.1575  0.7817 -0.0267
 2516TIP3   OH229182   2.737   2.438   1.290  0.0227  0.3998 -0.3568
 2516TIP3    H129183   2.824   2.445   1.251  0.1276 -0.9215 -0.4166
 2516TIP3    H229184   2.703   2.354   1.258 -0.7460  0.2793  0.7109
 2517TIP3   OH229185   0.256   3.698   8.493 -0.2129  0.1502  0.0200
 2517TIP3    H129186   0.297   3.613   8.477 -1.4964 -0.4898 -0.0008
 2517TIP3    H229187   0.169   3.691   8.454 -0.3554  1.4697  0.0481
 2518TIP3   OH229188   2.917   3.776   1.475 -0.0297 -0.3285  0.6383
 2518TIP3    H129189   2.880   3.852   1.519  2.4778  0.9475  0.7085
 2518TIP3    H229190   3.012   3.791   1.475  0.4642 -2.8195 -0.5374
 2519TIP3   OH229191   4.334   4.525   8.709 -0.1454  0.3350  0.2489
 2519TIP3    H129192   4.248   4.501   8.675 -0.4539 -0.9129  1.7777
 2519TIP3    H229193   4.354   4.608   8.667 -1.9228  0.4637 -0.4423
 2520TIP3   OH229194   3.674   3.714   8.519  0.4545 -0.9732  0.3777
 2520TIP3    H129195   3.752   3.728   8.573  0.5010  0.0338  0.0737
 2520TIP3    H229196   3.602   3.744   8.574  0.6883  2.2172 -0.8250
 2521TIP3   OH229197   4.448   2.569   8.782 -0.0480  0.1189  0.4670
 2521TIP3    H129198   4.439   2.530   8.695 -1.2962 -0.8433  0.9988
 2521TIP3    H229199   4.539   2.598   8.785  1.0569 -2.8528  0.0458
 2522TIP3   OH229200   0.968   5.460   8.376  0.4373 -0.2523 -0.4677
 2522TIP3    H129201   0.922   5.407   8.310  1.8207 -0.0935 -1.6137
 2522TIP3    H229202   0.951   5.416   8.459  2.6822 -3.4187 -1.5092
 2523TIP3   OH229203   0.893   1.817   2.050 -0.4355 -0.0355 -0.4169
 2523TIP3    H129204   0.978   1.854   2.076 -0.7814 -1.4724  3.3301
 2523TIP3    H229205   0.851   1.888   2.001  2.1159  1.4081 -0.7361
 2524TIP3   OH229206   5.860   5.601   7.820  0.4552 -0.0970 -0.4126
 2524TIP3    H129207   5.888   5.658   7.748  0.6482 -0.0756 -0.3227
 2524TIP3    H229208   5.867   5.512   7.783  0.5578 -0.0864 -0.4182
 2525TIP3   OH229209   0.404   0.922   8.421  0.0139  0.0337  0.1120
 2525TIP3    H129210   0.319   0.961   8.443 -1.0053 -0.5109 -2.5147
 2525TIP3    H229211   0.393   0.887   8.333  3.3353  1.0374 -0.8811
 2526TIP3   OH229212   3.798   3.950   1.297  0.0662 -0.0750 -0.0761
 2526TIP3    H129213   3.831   3.884   1.358 -1.7975  0.2812  1.3986
 2526TIP3    H229214   3.862   4.021   1.301  0.2877 -0.3169  1.0250
 2527TIP3   OH229215   2.550   4.578   2.072  0.3624  0.2118  0.2755
 2527TIP3    H129216   2.629   4.525   2.064 -0.4782 -1.2090  0.8915
 2527TIP3    H229217   2.518   4.588   1.982  1.5405  1.3271 -0.0465
 2528TIP3   OH229218   5.587   0.545   7.157  0.6502 -0.0607  0.6036
 2528TIP3    H129219   5.513   0.566   7.215  1.1240  0.1514  1.1360
 2528TIP3    H229220   5.657   0.603   7.186  1.3164 -0.9057  0.6946
 2529TIP3   OH229221   6.350   5.377   8.436 -0.2019  0.0566 -0.7097
 2529TIP3    H129222   6.425   5.433   8.417  0.4542  0.0819  1.6758
 2529TIP3    H229223   6.383   5.313   8.498 -2.0555 -0.1265  0.1526
 2530TIP3   OH229224   0.593   1.250   2.545 -0.0282  0.4447 -0.3451
 2530TIP3    H129225   0.678   1.227   2.584  0.2585  1.9296 -0.0270
 2530TIP3    H229226   0.601   1.221   2.454 -0.1891 -1.8009  0.3075
 2531TIP3   OH229227   4.802   1.990   0.534 -0.4501  0.0264 -0.4362
 2531TIP3    H129228   4.708   1.972   0.529 -0.5105  0.1055  0.2770
 2531TIP3    H229229   4.843   1.914   0.494 -0.7751 -0.7622  0.6622
 2532TIP3   OH229230   1.709   4.160   0.198  0.3709 -0.0781 -1.0759
 2532TIP3    H129231   1.780   4.139   0.259 -0.6516  0.0098  0.1781
 2532TIP3    H229232   1.747   4.145   0.111  1.4314 -1.5366 -0.3982
 2533TIP3   OH229233   3.214   3.244   0.908  0.3904 -0.3047  0.0454
 2533TIP3    H129234   3.267   3.188   0.851 -0.4152 -2.2784  1.1545
 2533TIP3    H229235   3.214   3.199   0.992  1.4947  2.4855  1.6821
 2534TIP3   OH229236   5.029   5.947   7.954 -0.6917  0.0067  0.0156
 2534TIP3    H129237   5.077   5.959   7.872 -0.3620  1.3815  0.3753
 2534TIP3    H229238   5.091   5.974   8.022 -1.5257  0.5196  0.5842
 2535TIP3   OH229239   2.274   3.009   7.808  0.1593 -0.5187  0.1423
 2535TIP3    H129240   2.181   2.991   7.802  0.0963 -1.5447  2.8662
 2535TIP3    H229241   2.316   2.923   7.812  1.0148 -0.0864  0.9761
 2536TIP3   OH229242   6.595   1.732   7.228 -0.4674  0.0706 -0.6286
 2536TIP3    H129243   6.668   1.693   7.276 -1.5137 -0.6214  0.4508
 2536TIP3    H229244   6.611   1.826   7.232 -1.1664  0.1421  2.2207
 2537TIP3   OH229245   6.542   4.153   0.304 -0.3507 -0.5952  0.3607
 2537TIP3    H129246   6.524   4.108   0.387  1.2482 -0.5187  0.7897
 2537TIP3    H229247   6.486   4.109   0.240 -4.2786  1.5793  1.9878
 2538TIP3   OH229248   4.350   5.171   0.216  0.1135  0.5609  0.1826
 2538TIP3    H129249   4.410   5.244   0.229 -0.2857  0.6698  1.5910
 2538TIP3    H229250   4.274   5.193   0.270 -0.5501 -0.3021 -0.3743
 2539TIP3   OH229251   2.270   3.216   0.274 -0.3979  0.4446  0.4629
 2539TIP3    H129252   2.271   3.120   0.274  0.6080  0.4460  0.6652
 2539TIP3    H229253   2.178   3.239   0.261 -0.4633 -0.5501 -1.0793
 2540TIP3   OH229254   4.433   4.188   1.008 -0.3964 -0.4064 -0.5543
 2540TIP3    H129255   4.499   4.233   0.957 -0.3289 -0.4111 -0.4714
 2540TIP3    H229256   4.360   4.250   1.013  0.3058  0.3729  0.9303
 2541TIP3   OH229257   6.581   6.751   7.528 -0.3028  0.0681  0.0984
 2541TIP3    H129258   6.507   6.741   7.468  0.2662  0.9181 -0.7618
 2541TIP3    H229259   6.646   6.801   7.479  0.4931  0.1146  1.1571
 2542TIP3   OH229260   3.722   5.825   8.323 -0.1976 -0.5059 -0.1290
 2542TIP3    H129261   3.701   5.871   8.242  1.3217 -1.2084 -0.9809
 2542TIP3    H229262   3.648   5.766   8.337 -0.0774 -1.0507 -1.5668
 2543TIP3   OH229263   4.889   3.424   0.118  0.7859 -0.4023 -0.3810
 2543TIP3    H129264   4.933   3.396   0.037  1.4151  0.1582 -0.2418
 2543TIP3    H229265   4.909   3.355   0.181  2.0313  0.1577 -0.1395
 2544TIP3   OH229266   2.151   6.590   1.850  0.1905  0.3148 -0.5786
 2544TIP3    H129267   2.096   6.563   1.924  1.0763 -0.8394 -0.3122
 2544TIP3    H229268   2.151   6.686   1.854 -2.2390  0.3993 -0.9309
 2545TIP3   OH229269   4.527   1.212   0.969 -0.1761  0.2461 -0.0599
 2545TIP3    H129270   4.521   1.197   1.064 -2.8756  0.5177 -0.1131
 2545TIP3    H229271   4.621   1.225   0.953  0.3973 -0.0792  2.5126
 2546TIP3   OH229272   6.210   6.352   2.076  0.3297 -0.1404 -0.2138
 2546TIP3    H129273   6.190   6.326   2.165 -1.6274 -0.8493 -0.8150
 2546TIP3    H229274   6.250   6.275   2.036 -1.2003 -0.7402 -0.6603
 2547TIP3   OH229275   3.781   6.441   2.557  0.3787 -0.4984 -0.3998
 2547TIP3    H129276   3.779   6.378   2.629 -0.5785  1.5766  1.5090
 2547TIP3    H229277   3.873   6.468   2.551  0.1985  0.7119  1.4271
 2548TIP3   OH229278   2.705   3.910   1.011 -0.8983  0.0957 -0.1969
 2548TIP3    H129279   2.720   3.991   0.962 -0.9008  0.0799 -0.2240
 2548TIP3    H229280   2.638   3.864   0.960  0.3686 -0.7482 -1.1652
 2549TIP3   OH229281   5.835   2.947   0.022  0.5380 -0.0153  0.2890
 2549TIP3    H129282   5.773   3.020   0.025  0.1124 -0.3727  0.2752
 2549TIP3    H229283   5.913   2.984  -0.018  0.4088  0.4950  0.5004
 2550TIP3   OH229284   0.622   2.804   8.830 -0.0180 -0.4714  0.3878
 2550TIP3    H129285   0.630   2.843   8.917 -0.4215 -0.2788  0.3421
 2550TIP3    H229286   0.683   2.853   8.776  2.2984 -2.3602  1.1291
 2551TIP3   OH229287   2.092   3.623   7.908 -0.5566  0.5264  0.2597
 2551TIP3    H129288   2.182   3.611   7.939 -1.1500 -0.5978  1.6631
 2551TIP3    H229289   2.044   3.652   7.985 -1.7830 -0.7935  0.0237
 2552TIP3   OH229290   2.688   2.775   7.452 -0.0389  0.2128 -0.3363
 2552TIP3    H129291   2.697   2.709   7.520  1.5082  0.8050  0.0722
 2552TIP3    H229292   2.753   2.751   7.386 -0.8303  0.2143 -1.1386
 2553TIP3   OH229293   4.010   4.885   7.936  0.1729 -0.3435  0.6088
 2553TIP3    H129294   3.993   4.795   7.964  0.6308 -0.5702  0.1679
 2553TIP3    H229295   3.938   4.906   7.876  0.2195 -0.5148  0.4930
 2554TIP3   OH229296   3.427   0.863   0.213  0.0575 -0.3406  0.2505
 2554TIP3    H129297   3.459   0.951   0.194  1.6809 -1.0517 -0.4093
 2554TIP3    H229298   3.333   0.868   0.193  0.4699  0.7289 -1.6620
 2555TIP3   OH229299   5.859   5.761   0.959  0.0660 -0.6955 -0.0649
 2555TIP3    H129300   5.950   5.781   0.981  0.0649 -2.7856  2.3932
 2555TIP3    H229301   5.821   5.845   0.933  2.2357  0.5701  0.5976
 2556TIP3   OH229302   6.130   2.008   6.852  0.1107  0.1095 -0.3050
 2556TIP3    H129303   6.221   1.998   6.881 -0.0987  1.8478  1.0705
 2556TIP3    H229304   6.099   1.918   6.843  2.1804 -0.5604 -1.6058
 2557TIP3   OH229305   1.209   3.337   1.996  0.2153  0.2552 -0.5964
 2557TIP3    H129306   1.144   3.406   2.000 -0.1288 -0.0433 -0.9907
 2557TIP3    H229307   1.161   3.257   2.019  0.7991  0.2624  0.7541
 2558TIP3   OH229308   4.894   5.422   7.619 -0.2061  0.0348  0.4175
 2558TIP3    H129309   4.938   5.400   7.538 -0.4146 -1.1396  0.6078
 2558TIP3    H229310   4.888   5.339   7.667  0.7845  0.8729  2.0723
 2559TIP3   OH229311   3.971   6.051   0.298 -0.0351  0.2550  0.5494
 2559TIP3    H129312   3.898   6.009   0.253  0.0250  0.8593 -0.1285
 2559TIP3    H229313   3.991   5.993   0.371 -1.2830  0.1461  0.8338
 2560TIP3   OH229314   0.946   0.259   8.820 -0.1355 -0.1151 -0.1554
 2560TIP3    H129315   1.017   0.319   8.845 -0.1210 -0.2104  0.0304
 2560TIP3    H229316   0.959   0.182   8.875  0.3304 -0.6272 -0.9788
 2561TIP3   OH229317   1.305   0.001   8.390  0.1421  0.5073 -0.2412
 2561TIP3    H129318   1.327  -0.009   8.483 -0.0528 -0.9434 -0.3336
 2561TIP3    H229319   1.349  -0.072   8.347 -1.3305  0.0516 -1.0260
 2562TIP3   OH229320   4.031   4.410   1.535  0.0578 -0.1869 -0.1002
 2562TIP3    H129321   3.950   4.373   1.499 -0.6812 -0.5895  1.8735
 2562TIP3    H229322   4.101   4.361   1.493 -0.7171 -0.2926 -1.3392
 2563TIP3   OH229323   5.907   2.474   1.377  0.1391 -0.5478  0.0802
 2563TIP3    H129324   5.868   2.485   1.290 -0.7995  1.0613  0.6499
 2563TIP3    H229325   5.967   2.548   1.385  0.7833 -1.1079  0.5288
 2564TIP3   OH229326   3.834   0.299   1.181 -0.0983 -0.0253  0.2439
 2564TIP3    H129327   3.787   0.228   1.225  2.4470 -1.5093  0.7828
 2564TIP3    H229328   3.864   0.260   1.098  1.0478  0.4861  0.3948
 2565TIP3   OH229329   1.306   0.744   7.574 -0.1366  0.5017 -0.4318
 2565TIP3    H129330   1.357   0.789   7.507  0.1682 -0.0470 -0.5739
 2565TIP3    H229331   1.217   0.778   7.564  0.3717  2.2581  0.4958
 2566TIP3   OH229332   2.093   6.635   2.588 -0.2838 -0.2044  0.1177
 2566TIP3    H129333   2.046   6.704   2.636 -0.8471 -0.1577 -0.4865
 2566TIP3    H229334   2.171   6.618   2.641 -0.7864 -0.0076  0.9429
 2567TIP3   OH229335   1.018   3.658   8.376  0.1303  0.4178  0.1811
 2567TIP3    H129336   1.103   3.693   8.402  1.0768 -3.2283  2.8083
 2567TIP3    H229337   0.966   3.658   8.456 -0.8828 -1.0734 -0.4158
 2568TIP3   OH229338   3.800   1.516   0.021 -0.4107 -0.0456  0.0943
 2568TIP3    H129339   3.844   1.501   0.105 -0.7422 -2.0386 -0.0453
 2568TIP3    H229340   3.712   1.545   0.046 -0.2160  0.2683  0.4252
 2569TIP3   OH229341   0.664   5.454   0.480 -0.1725 -0.1634  0.5282
 2569TIP3    H129342   0.682   5.489   0.567  0.4495 -0.9843  0.7342
 2569TIP3    H229343   0.706   5.516   0.421 -1.3846  0.9111  0.7441
 2570TIP3   OH229344   4.039   6.197   2.214  0.3684 -0.0082  0.3797
 2570TIP3    H129345   4.099   6.263   2.249  1.0860 -0.6067  0.3069
 2570TIP3    H229346   3.981   6.176   2.287  0.7067  0.0587  0.6708
 2571TIP3   OH229347   0.256   0.034   8.735 -0.1425  0.0911  0.7927
 2571TIP3    H129348   0.178   0.088   8.724 -0.9813 -0.8437  2.0112
 2571TIP3    H229349   0.224  -0.056   8.738  1.0751 -0.3795  0.4224
 2572TIP3   OH229350   5.513   2.706   8.283  0.1243 -1.0797 -0.1036
 2572TIP3    H129351   5.436   2.650   8.274  0.2390 -1.2451 -0.0580
 2572TIP3    H229352   5.561   2.695   8.201 -0.3545 -0.2922 -0.4902
 2573TIP3   OH229353   0.331   2.676   3.431  0.8140 -0.7562  0.0206
 2573TIP3    H129354   0.290   2.652   3.348 -0.7665  1.2382  0.1706
 2573TIP3    H229355   0.380   2.756   3.411  0.6745 -0.4377  0.9288
 2574TIP3   OH229356   2.172   3.143   0.807  0.1652  0.7082 -0.1154
 2574TIP3    H129357   2.236   3.083   0.768 -0.0237 -0.1084  0.8047
 2574TIP3    H229358   2.225   3.201   0.862  0.2753  1.0055 -0.5263
 2575TIP3   OH229359   6.192   4.661   8.342 -0.0673  0.1992  0.0985
 2575TIP3    H129360   6.276   4.707   8.333 -0.1123  0.3859  0.6295
 2575TIP3    H229361   6.198   4.614   8.425 -0.1428 -0.5189 -0.2904
 2576TIP3   OH229362   5.802   2.794   1.245  0.1167  0.0776  0.8523
 2576TIP3    H129363   5.765   2.717   1.202  0.8668  0.3991 -0.4323
 2576TIP3    H229364   5.726   2.845   1.272 -0.4430  0.4664 -1.2424
 2577TIP3   OH229365   0.013   3.179   2.158 -0.1594  0.1133  0.0283
 2577TIP3    H129366  -0.058   3.126   2.196  0.4306 -0.3718  0.4638
 2577TIP3    H229367   0.092   3.149   2.203  0.2786  0.8926 -0.2139
 2578TIP3   OH229368   0.401   3.568   1.146 -0.1606 -0.0432  0.6942
 2578TIP3    H129369   0.441   3.540   1.063 -1.4028 -1.2850  0.4820
 2578TIP3    H229370   0.467   3.624   1.186 -0.0373  1.7370 -1.7628
 2579TIP3   OH229371   3.360   3.785   1.150 -0.3442 -0.5005  0.3027
 2579TIP3    H129372   3.395   3.874   1.152 -2.2613  0.3622 -1.1400
 2579TIP3    H229373   3.426   3.734   1.104  0.0271  0.5737 -0.3950
 2580TIP3   OH229374   5.716   5.552   7.448  0.0594 -0.6749 -0.2584
 2580TIP3    H129375   5.777   5.626   7.449 -0.3137 -0.3616 -0.4658
 2580TIP3    H229376   5.630   5.591   7.466  0.2220 -1.4130  2.4573
 2581TIP3   OH229377   3.540   1.975   1.217 -0.0450  0.0336 -0.1074
 2581TIP3    H129378   3.486   2.052   1.231  0.2458  0.3891 -0.8569
 2581TIP3    H229379   3.482   1.900   1.232 -0.6865  0.4071 -0.6887
 2582TIP3   OH229380   4.836   4.533   0.380  0.3324  0.0596  0.2014
 2582TIP3    H129381   4.740   4.534   0.380  0.0439 -4.4288  0.6328
 2582TIP3    H229382   4.860   4.565   0.467 -0.6778  1.9061 -0.1616
 2583TIP3   OH229383   3.159   1.778   1.335  0.0651 -0.1578  0.1087
 2583TIP3    H129384   3.140   1.808   1.246 -1.0245 -0.7370  0.1240
 2583TIP3    H229385   3.094   1.710   1.351 -0.1360  0.3505  1.5652
 2584TIP3   OH229386   1.575   2.708   8.702 -0.5552  0.0952  0.4581
 2584TIP3    H129387   1.614   2.621   8.713 -0.1733  0.2521  0.3328
 2584TIP3    H229388   1.648   2.765   8.679 -0.7341  0.5362  0.9655
 2585TIP3   OH229389   1.261   2.761   1.106  0.3732 -0.4152 -0.4681
 2585TIP3    H129390   1.170   2.779   1.084  0.2561 -1.4599 -0.9176
 2585TIP3    H229391   1.310   2.782   1.026  0.3390 -1.2211 -0.7093
 2586TIP3   OH229392   4.688   6.723   2.311 -0.1389 -0.1255 -0.2287
 2586TIP3    H129393   4.640   6.795   2.352 -0.6086 -0.4222 -0.2483
 2586TIP3    H229394   4.626   6.651   2.309  0.9556 -1.2203  1.7512
 2587TIP3   OH229395   0.664   3.668   0.502  0.2107  0.2957  0.0642
 2587TIP3    H129396   0.579   3.699   0.533 -0.3172 -1.8317  0.9555
 2587TIP3    H229397   0.725   3.739   0.524 -1.4519  2.4216 -1.7390
 2588TIP3   OH229398   2.598   4.659   2.651  0.7256  0.1548 -0.7266
 2588TIP3    H129399   2.656   4.727   2.617 -0.1109  0.2161 -2.1162
 2588TIP3    H229400   2.604   4.588   2.587  0.6920 -0.6161  0.1020
 2589TIP3   OH229401   3.434   2.596   7.097  0.2277  0.0674  0.1586
 2589TIP3    H129402   3.522   2.601   7.135  0.9236 -1.1575 -1.1740
 2589TIP3    H229403   3.438   2.654   7.020  0.8734 -2.1742 -1.6177
 2590TIP3   OH229404   2.309   3.287   1.004  0.8996 -0.2533  0.0174
 2590TIP3    H129405   2.248   3.316   1.072  1.6157  1.7913 -0.1497
 2590TIP3    H229406   2.386   3.257   1.052  1.5852  1.6062  0.1894
 2591TIP3   OH229407   5.338   3.545   1.722 -0.2199 -0.1742  0.1416
 2591TIP3    H129408   5.270   3.504   1.776  0.0677  2.0242  2.4258
 2591TIP3    H229409   5.294   3.569   1.641 -1.1331 -2.1573  0.0072
 2592TIP3   OH229410   2.357   5.049   0.298  0.2056  0.5137  0.1756
 2592TIP3    H129411   2.365   4.954   0.293 -1.3224  0.0980  3.4252
 2592TIP3    H229412   2.314   5.073   0.216  2.2162 -1.2834 -1.5313
 2593TIP3   OH229413   0.645   3.064   8.459  0.4897  0.2362 -0.0075
 2593TIP3    H129414   0.691   3.139   8.422 -0.2578  0.5994 -0.2278
 2593TIP3    H229415   0.646   2.998   8.389 -2.8255  1.6927 -1.6398
 2594TIP3   OH229416   0.635   0.820   2.368  0.2878  0.0000 -0.0270
 2594TIP3    H129417   0.570   0.857   2.427 -0.8855 -0.9452 -0.6907
 2594TIP3    H229418   0.668   0.743   2.415  0.2320 -0.0734 -0.1099
 2595TIP3   OH229419   2.404   2.433   0.362 -0.2353 -0.4953 -0.2683
 2595TIP3    H129420   2.454   2.440   0.444  0.3325  0.3439 -0.6729
 2595TIP3    H229421   2.456   2.373   0.308  0.8922  1.1549 -1.0661
 2596TIP3   OH229422   5.713   0.545   2.265  0.0008 -0.1847 -0.0635
 2596TIP3    H129423   5.621   0.569   2.261 -0.7369 -2.7904 -0.8724
 2596TIP3    H229424   5.739   0.564   2.355 -1.0097  1.5139 -0.0918
 2597TIP3   OH229425   5.899   3.583   1.975 -0.6089  0.1690  0.3510
 2597TIP3    H129426   5.925   3.512   1.916  0.2446  1.7326 -1.2566
 2597TIP3    H229427   5.925   3.553   2.062  0.1977 -1.2658 -0.3520
 2598TIP3   OH229428   4.757   0.101   8.148 -0.3970 -0.0324 -0.3089
 2598TIP3    H129429   4.745   0.194   8.131  0.0525  0.0756 -0.0623
 2598TIP3    H229430   4.689   0.078   8.211 -0.6379  0.0794 -0.5272
 2599TIP3   OH229431   0.475   3.868   1.115 -0.1237  0.4795 -0.7799
 2599TIP3    H129432   0.550   3.913   1.153 -1.2428  1.5150  0.3231
 2599TIP3    H229433   0.412   3.862   1.187  0.1545 -3.4724 -0.6797
 2600TIP3   OH229434   2.687   4.623   8.787 -0.1634  0.1461 -0.2300
 2600TIP3    H129435   2.699   4.632   8.693  0.0294 -0.3771 -0.2596
 2600TIP3    H229436   2.717   4.706   8.823  0.5732  0.0283 -0.5627
 2601TIP3   OH229437   5.457   5.930   0.808  0.3446  0.1932  0.0485
 2601TIP3    H129438   5.399   5.910   0.733  0.6302  0.5302 -0.2629
 2601TIP3    H229439   5.545   5.916   0.774  0.4305 -1.2444  0.7917
 2602TIP3   OH229440   3.989   6.713   0.699  0.3647 -0.5824  0.2930
 2602TIP3    H129441   4.007   6.679   0.787  1.6673  0.7749  0.5806
 2602TIP3    H229442   3.940   6.643   0.656  0.8384 -1.7947  1.6625
 2603TIP3   OH229443   4.997   1.518   1.302 -0.8109  0.3847  0.5878
 2603TIP3    H129444   5.043   1.514   1.218  0.2295 -1.9850  1.2023
 2603TIP3    H229445   5.066   1.520   1.368 -1.5655 -0.6715  1.4587
 2604TIP3   OH229446   5.624   1.166   8.786  0.3295  0.0336 -0.0870
 2604TIP3    H129447   5.680   1.103   8.740  0.0563  0.4397 -1.0138
 2604TIP3    H229448   5.576   1.114   8.850  0.2111 -0.6741 -0.7374
 2605TIP3   OH229449   0.826   2.693   0.407 -0.3960 -0.3758  0.5792
 2605TIP3    H129450   0.876   2.659   0.332  0.6133 -0.1860  1.1512
 2605TIP3    H229451   0.763   2.624   0.427 -1.0201 -0.2284 -0.7468
 2606TIP3   OH229452   2.727   4.637   8.520  0.2535 -0.4881  0.2564
 2606TIP3    H129453   2.657   4.583   8.483  0.8149 -0.3995 -0.9823
 2606TIP3    H229454   2.807   4.603   8.481  0.6686  0.9284 -0.1904
 2607TIP3   OH229455   1.830   5.926   0.559 -0.7773  0.1230  0.0445
 2607TIP3    H129456   1.753   5.970   0.522  0.7557  1.8360 -1.3056
 2607TIP3    H229457   1.825   5.946   0.653 -1.2278  1.4505 -0.2357
 2608TIP3   OH229458   3.013   4.368   1.433  0.0512 -0.7355 -0.3412
 2608TIP3    H129459   3.069   4.320   1.494  1.2123 -0.3303 -1.0406
 2608TIP3    H229460   2.998   4.306   1.361 -0.3081 -0.8054 -0.2054
 2609TIP3   OH229461   4.910   0.429   0.522 -0.2127 -0.2685 -0.2537
 2609TIP3    H129462   4.874   0.517   0.505 -1.0913 -0.1961  1.7698
 2609TIP3    H229463   4.834   0.371   0.518 -0.4604 -0.2836  2.8704
 2610TIP3   OH229464   3.054   2.240   0.867 -0.0220  0.2965  0.0003
 2610TIP3    H129465   3.094   2.168   0.817  1.7558  1.0206  0.3123
 2610TIP3    H229466   3.103   2.243   0.949 -1.1536  0.8386  0.6804
 2611TIP3   OH229467   2.800   6.483   0.096 -0.4037 -0.0974  0.1018
 2611TIP3    H129468   2.768   6.393   0.087 -0.8711  0.2427 -2.1276
 2611TIP3    H229469   2.739   6.536   0.045  0.4119  1.3691  0.5812
 2612TIP3   OH229470   3.640   5.651   0.031 -0.4260 -0.0334  0.2271
 2612TIP3    H129471   3.624   5.637  -0.062 -0.3732 -0.3818  0.2677
 2612TIP3    H229472   3.734   5.665   0.039 -0.6131  1.5494  0.0428
 2613TIP3   OH229473   4.007   1.600   8.730 -0.2800 -0.9507  0.0235
 2613TIP3    H129474   4.066   1.610   8.805 -1.0681  2.2569  0.3320
 2613TIP3    H229475   3.920   1.594   8.768 -0.6721  0.5346 -0.5925
 2614TIP3   OH229476   6.525   6.008   8.343 -0.3190  0.2733 -0.5709
 2614TIP3    H129477   6.573   6.086   8.316 -0.8919  0.5617 -0.7638
 2614TIP3    H229478   6.445   6.042   8.383 -0.4356 -0.2086 -0.3928
 2615TIP3   OH229479   4.327   6.249   0.841 -0.3857 -0.0209 -0.3309
 2615TIP3    H129480   4.318   6.161   0.804  0.8491 -0.4323  0.2941
 2615TIP3    H229481   4.284   6.244   0.927 -0.2643 -0.0321 -0.2706
 2616TIP3   OH229482   0.165   5.984   7.278 -0.6263 -0.2592  0.0149
 2616TIP3    H129483   0.153   6.000   7.371  0.2636 -0.6554  0.2070
 2616TIP3    H229484   0.214   5.902   7.274  1.7158  1.0932 -0.6934
 2617TIP3   OH229485   0.803   0.197   3.063  0.1670 -0.0658 -0.4818
 2617TIP3    H129486   0.713   0.228   3.066 -0.0649 -0.7372 -0.2902
 2617TIP3    H229487   0.841   0.227   3.146  0.2750  0.6555 -0.7846
 2618TIP3   OH229488   6.315   6.201   7.656 -0.4751  0.2129  0.1224
 2618TIP3    H129489   6.394   6.195   7.710 -0.6544  2.2913  0.7007
 2618TIP3    H229490   6.243   6.205   7.719 -0.9113 -0.0461 -0.3541
 2619TIP3   OH229491   1.608   6.288   1.610 -0.3911 -0.1342 -0.5332
 2619TIP3    H129492   1.667   6.360   1.589 -0.0728 -0.5232 -0.9832
 2619TIP3    H229493   1.527   6.331   1.639  0.3744  0.4031  0.8936
 2620TIP3   OH229494   1.402   6.473   1.533 -0.0759  0.4442 -0.6850
 2620TIP3    H129495   1.392   6.523   1.452 -0.8564  0.6097 -0.4918
 2620TIP3    H229496   1.332   6.504   1.589  1.3458  1.4351  0.6402
 2621TIP3   OH229497   3.946   4.617   8.020  0.3632  0.2212  0.6558
 2621TIP3    H129498   3.859   4.655   8.015  1.4260  2.8456  0.7866
 2621TIP3    H229499   3.932   4.524   8.002 -2.5466  0.3919  1.5132
 2622TIP3   OH229500   6.255   2.441   8.343 -0.1137  0.1126 -0.3723
 2622TIP3    H129501   6.328   2.491   8.378  0.8309 -1.0969 -0.5784
 2622TIP3    H229502   6.254   2.462   8.249 -1.4950  1.8994 -0.0313
 2623TIP3   OH229503   0.568   4.653   0.028  0.4373  0.3449  0.4425
 2623TIP3    H129504   0.590   4.724   0.088 -2.7750  5.1746 -3.3059
 2623TIP3    H229505   0.491   4.612   0.067 -0.7570  2.4485  0.4407
 2624TIP3   OH229506   1.897   5.662   8.006 -0.0971  0.3435  0.6369
 2624TIP3    H129507   1.992   5.650   8.011  0.0836  0.7043 -1.1366
 2624TIP3    H229508   1.870   5.604   7.935 -1.4794 -0.9780  2.1556
 2625TIP3   OH229509   0.762   5.136   2.272  0.9245 -1.3616  0.2160
 2625TIP3    H129510   0.789   5.097   2.356 -1.7858 -1.5466  1.1121
 2625TIP3    H229511   0.697   5.201   2.297  1.7016  0.2082 -1.6564
 2626TIP3   OH229512   0.376   4.225   0.492 -0.7796 -0.4713  0.1050
 2626TIP3    H129513   0.436   4.264   0.556  0.6410  0.8791 -1.9522
 2626TIP3    H229514   0.386   4.131   0.506  2.9899 -0.4052 -1.0267
 2627TIP3   OH229515   4.621   6.205   0.317 -0.4227 -0.1740 -0.1321
 2627TIP3    H129516   4.685   6.274   0.297 -1.3592  1.3600  1.8753
 2627TIP3    H229517   4.550   6.250   0.363 -1.7538 -2.2671 -0.0170
 2628TIP3   OH229518   0.402   2.718   0.185 -0.0121 -0.0974 -0.5923
 2628TIP3    H129519   0.467   2.788   0.195 -1.9090  2.1381 -2.6416
 2628TIP3    H229520   0.323   2.763   0.155 -1.4867 -3.1066 -1.6313
 2629TIP3   OH229521   0.917   0.940   8.006  0.1614 -0.2604  0.1873
 2629TIP3    H129522   0.889   0.916   8.095 -0.3224  1.3207  0.4994
 2629TIP3    H229523   0.841   0.984   7.969  0.4959 -0.5635 -0.9008
 2630TIP3   OH229524   6.321   3.224   0.019  0.1425  0.5216  0.0740
 2630TIP3    H129525   6.376   3.263   0.087  0.1042  0.7836 -0.0435
 2630TIP3    H229526   6.255   3.174   0.068  0.6882 -0.0744  0.2052
 2631TIP3   OH229527   3.138   6.635   2.778 -0.4439  0.6498 -0.3580
 2631TIP3    H129528   3.091   6.577   2.718 -0.4576 -0.5534  0.7957
 2631TIP3    H229529   3.226   6.642   2.741 -0.7560  0.8092 -1.0962
 2632TIP3   OH229530   6.517   3.171   8.075 -0.2138 -0.2173 -0.5897
 2632TIP3    H129531   6.563   3.200   7.996 -0.2235  1.6709  0.0438
 2632TIP3    H229532   6.567   3.210   8.147 -2.0992  0.9374  0.1714
 2633TIP3   OH229533   0.171   3.039   1.450  0.1661 -0.3584  0.5903
 2633TIP3    H129534   0.232   3.098   1.405  0.7550  0.9384  2.9103
 2633TIP3    H229535   0.091   3.090   1.459  0.3158 -0.2805  1.6476
 2634TIP3   OH229536   0.600   3.878   2.764 -0.3332  0.4291 -0.1782
 2634TIP3    H129537   0.677   3.825   2.784 -0.0833  0.7211 -0.3542
 2634TIP3    H229538   0.533   3.849   2.826  0.3753  1.2261  0.9991
 2635TIP3   OH229539   4.080   0.162   0.609 -0.3316  0.1222  0.5546
 2635TIP3    H129540   4.068   0.150   0.515  2.3579 -0.3787  0.1776
 2635TIP3    H229541   4.049   0.080   0.647  0.2185 -0.4142 -0.1093
 2636TIP3   OH229542   1.213   0.538   2.151  0.3848  0.5261  0.2808
 2636TIP3    H129543   1.213   0.613   2.211 -0.9026  1.7406 -1.1216
 2636TIP3    H229544   1.120   0.513   2.146  0.4152  0.6269 -1.3322
 2637TIP3   OH229545   4.585   5.553   7.539 -0.0284  0.3175  0.4351
 2637TIP3    H129546   4.653   5.497   7.576  1.4610  1.0948 -1.0315
 2637TIP3    H229547   4.623   5.641   7.542 -1.5737  1.0007  0.9367
 2638TIP3   OH229548   1.853   4.992   2.813 -0.4883 -0.0144  0.6553
 2638TIP3    H129549   1.882   4.937   2.886  1.7803  0.7300  0.3906
 2638TIP3    H229550   1.813   5.068   2.854  0.1294  0.0659  1.1144
 2639TIP3   OH229551   5.120   5.110   1.507 -0.6008 -0.3339 -0.5776
 2639TIP3    H129552   5.094   5.185   1.454 -3.6755  0.6246  1.9754
 2639TIP3    H229553   5.048   5.047   1.497 -0.9642 -0.3776  1.8520
 2640TIP3   OH229554   0.216   0.736   2.721  0.2850  0.0747  0.3055
 2640TIP3    H129555   0.248   0.652   2.691  0.7613  0.2762  0.2477
 2640TIP3    H229556   0.143   0.756   2.662  1.1367  0.4104 -0.6482
 2641TIP3   OH229557   2.877   3.953   1.793 -0.4940 -0.0676  0.2305
 2641TIP3    H129558   2.849   3.913   1.876  0.3917 -0.5796  0.2909
 2641TIP3    H229559   2.954   4.005   1.816 -0.1403 -0.3498 -0.2956
 2642TIP3   OH229560   2.751   5.597   2.238  0.1139  0.4744 -1.2069
 2642TIP3    H129561   2.711   5.679   2.209 -0.3377  0.1115 -1.6209
 2642TIP3    H229562   2.821   5.624   2.298 -1.6805  1.1034  0.7381
 2643TIP3   OH229563   2.220   1.246   8.523  0.1356  0.0440  0.5730
 2643TIP3    H129564   2.230   1.323   8.579  1.5184 -0.6487  1.3427
 2643TIP3    H229565   2.296   1.191   8.544  0.5977 -0.3438 -1.8668
 2644TIP3   OH229566   6.581   4.114   8.054 -0.5345  0.2865  0.3077
 2644TIP3    H129567   6.593   4.206   8.079  0.6511 -0.0148  0.9355
 2644TIP3    H229568   6.631   4.104   7.973 -0.6253  0.1883  0.2640
 2645TIP3   OH229569   5.812   3.216   1.318 -0.1010 -0.3762  0.0694
 2645TIP3    H129570   5.779   3.305   1.327  0.3091 -0.1732 -0.4081
 2645TIP3    H229571   5.867   3.218   1.240  1.0459 -0.7059  0.8409
 2646TIP3   OH229572   4.316   6.567   2.130 -0.6490  0.8091  0.0009
 2646TIP3    H129573   4.295   6.507   2.202  1.1500  0.0704 -0.0249
 2646TIP3    H229574   4.382   6.626   2.166 -0.2439  0.8788 -0.8186
 2647TIP3   OH229575   1.118   1.866   8.036  0.0955  0.7306  0.2613
 2647TIP3    H129576   1.061   1.926   7.989  0.4216  1.5430  0.8789
 2647TIP3    H229577   1.142   1.800   7.972 -0.7852  0.8992 -0.2588
 2648TIP3   OH229578   0.450   1.056   8.035  0.9392 -0.6321  0.0145
 2648TIP3    H129579   0.541   1.078   8.053  0.8707  0.5831 -0.9797
 2648TIP3    H229580   0.402   1.137   8.051  0.3937 -0.5311 -1.8192
 2649TIP3   OH229581   3.723   0.475   1.348  0.0987  0.1541 -0.2468
 2649TIP3    H129582   3.765   0.402   1.303  0.0281  0.9457 -1.6423
 2649TIP3    H229583   3.632   0.471   1.320 -0.3436 -0.3580  1.1947
 2650TIP3   OH229584   6.808   5.393   1.397  0.0243  0.6564 -0.1747
 2650TIP3    H129585   6.856   5.427   1.322 -0.6648  2.4925  0.1590
 2650TIP3    H229586   6.735   5.344   1.359  0.7472 -0.0782 -0.6683
 2651TIP3   OH229587   3.977   3.934   0.447  0.2921  0.2336  0.0225
 2651TIP3    H129588   4.015   3.900   0.528  2.2077  0.3520 -0.7847
 2651TIP3    H229589   3.917   3.865   0.418  0.6431 -0.4143  0.8087
 2652TIP3   OH229590   4.642   1.177   0.376 -0.1180 -0.1773  0.0874
 2652TIP3    H129591   4.724   1.178   0.427 -0.2067  1.5001  0.2611
 2652TIP3    H229592   4.639   1.263   0.334 -1.0558 -0.7842 -1.1599
 2653TIP3   OH229593   3.481   0.329   1.177 -0.6727 -0.0760 -0.1266
 2653TIP3    H129594   3.454   0.334   1.085 -1.3729 -3.0501 -0.1920
 2653TIP3    H229595   3.545   0.258   1.179  2.5719  2.6543  1.1101
 2654TIP3   OH229596   4.702   5.525   0.567  0.8260 -0.0580 -0.9880
 2654TIP3    H129597   4.765   5.568   0.510  1.5923 -0.3960 -0.4244
 2654TIP3    H229598   4.678   5.592   0.631  1.9365 -0.4114 -0.1744
 2655TIP3   OH229599   2.634   2.540   1.008 -0.4234  0.8115 -0.0362
 2655TIP3    H129600   2.626   2.558   1.101  0.6183 -0.9934  0.4478
 2655TIP3    H229601   2.628   2.626   0.966 -0.2147  1.7239  1.7344
 2656TIP3   OH229602   2.464   6.178   7.372  0.4473  0.3864 -0.1230
 2656TIP3    H129603   2.515   6.108   7.413  1.0842  0.2246 -1.1649
 2656TIP3    H229604   2.398   6.201   7.438  0.6762 -0.6966  0.5106
 2657TIP3   OH229605   5.328   2.351   1.584 -0.2629 -0.0481  0.6208
 2657TIP3    H129606   5.364   2.262   1.585  0.4225  0.1995 -0.3402
 2657TIP3    H229607   5.277   2.356   1.503  1.6745  1.1345 -0.6279
 2658TIP3   OH229608   4.842   5.946   1.457  0.8204 -0.2135 -0.1738
 2658TIP3    H129609   4.921   5.896   1.437  0.0546 -0.9778 -1.4708
 2658TIP3    H229610   4.770   5.890   1.427 -0.1262  1.2728 -0.7983
 2659TIP3   OH229611   5.742   4.017   8.184  0.0290 -0.5730  0.0029
 2659TIP3    H129612   5.676   4.069   8.229  0.9825  1.0668 -0.4463
 2659TIP3    H229613   5.693   3.944   8.146 -0.9486 -1.6596  2.9996
 2660TIP3   OH229614   6.447   5.846   1.407  0.6393 -0.0709  0.8114
 2660TIP3    H129615   6.468   5.773   1.348 -0.7346  0.3147 -0.2144
 2660TIP3    H229616   6.372   5.814   1.458 -1.8298  1.4730 -1.5573
 2661TIP3   OH229617   2.334   0.673   2.611 -0.2615 -0.6597 -0.4050
 2661TIP3    H129618   2.397   0.608   2.641 -0.3478 -0.4649  0.2056
 2661TIP3    H229619   2.373   0.757   2.634 -0.6693 -0.5324 -0.1671
 2662TIP3   OH229620   1.938   1.470   2.829 -0.6540 -0.3464  0.0084
 2662TIP3    H129621   2.012   1.517   2.868  0.0788 -1.8595  0.5400
 2662TIP3    H229622   1.976   1.389   2.796 -1.8075 -0.4200 -1.2302
 2663TIP3   OH229623   4.606   5.292   7.636 -0.5453 -0.0168  0.0115
 2663TIP3    H129624   4.635   5.202   7.622 -1.7060 -0.3093 -0.5607
 2663TIP3    H229625   4.512   5.289   7.624 -0.4847  1.4758 -1.0271
 2664TIP3   OH229626   5.762   4.015   1.281 -0.3591  0.6107  0.8262
 2664TIP3    H129627   5.752   3.959   1.203 -0.1234 -0.5103  1.5682
 2664TIP3    H229628   5.761   3.953   1.354 -0.6397  1.6559  1.7216
 2665TIP3   OH229629   5.778   1.756   1.366 -0.0397 -0.8240 -0.0425
 2665TIP3    H129630   5.832   1.771   1.288 -0.2113 -2.4434 -0.5187
 2665TIP3    H229631   5.706   1.818   1.357  0.4714 -0.3062 -0.6701
 2666TIP3   OH229632   6.542   2.367   8.629 -0.8338  0.3979 -0.0498
 2666TIP3    H129633   6.495   2.325   8.558 -2.1947  2.4751 -0.4549
 2666TIP3    H229634   6.515   2.319   8.707 -2.1224  0.3064 -0.5220
 2667TIP3   OH229635   4.964   5.799   0.596  0.3466  0.2678  0.0927
 2667TIP3    H129636   5.043   5.766   0.553  0.5851 -2.2034  2.2252
 2667TIP3    H229637   4.893   5.772   0.538  0.8939  1.2155 -1.0908
 2668TIP3   OH229638   4.960   5.174   8.301  0.1424 -0.3509 -0.3050
 2668TIP3    H129639   4.959   5.080   8.317 -2.1845 -0.3754 -0.3012
 2668TIP3    H229640   4.945   5.182   8.207  1.7426  0.0262 -0.5554
 2669TIP3   OH229641   6.420   4.755   2.411  0.4940  0.5588  0.0703
 2669TIP3    H129642   6.469   4.736   2.491  0.6637  3.3093  0.7298
 2669TIP3    H229643   6.329   4.737   2.433  0.3139  2.8665  1.5605
 2670TIP3   OH229644   0.455   1.947   8.192 -0.2699  0.0907 -0.6530
 2670TIP3    H129645   0.426   1.928   8.103 -1.7503  1.9261 -0.6152
 2670TIP3    H229646   0.429   1.870   8.242 -2.9701  0.5825 -1.1297
 2671TIP3   OH229647   6.313   6.429   0.390 -0.0030 -0.2720  0.3381
 2671TIP3    H129648   6.346   6.361   0.448  2.9607 -0.0240 -0.8610
 2671TIP3    H229649   6.324   6.393   0.302 -1.7987  0.4193 -0.2169
 2672TIP3   OH229650   4.199   2.744   1.618  0.2673  0.0281 -0.0054
 2672TIP3    H129651   4.292   2.732   1.637  0.3732  1.1672  0.2419
 2672TIP3    H229652   4.195   2.824   1.566 -0.8733  2.2073  3.1388
 2673TIP3   OH229653   0.810   4.986   7.697 -0.0663  0.3260  0.1271
 2673TIP3    H129654   0.885   4.978   7.638 -1.3622  0.2521 -1.5767
 2673TIP3    H229655   0.769   4.899   7.696  0.7644 -0.1709  2.4531
 2674TIP3   OH229656   0.119   2.278   1.028 -0.0528  0.4052 -0.0333
 2674TIP3    H129657   0.179   2.207   1.003  0.2561  0.4894  0.4510
 2674TIP3    H229658   0.095   2.319   0.946  0.0094 -0.0703 -0.2941
 2675TIP3   OH229659   2.195   4.592   0.814  0.2185 -0.3786 -0.4829
 2675TIP3    H129660   2.264   4.616   0.752 -0.2302  0.5924 -0.6338
 2675TIP3    H229661   2.239   4.595   0.900  1.6521 -4.7141 -0.8444
 2676TIP3   OH229662   4.213   2.131   0.581  0.5168  0.1166  0.6345
 2676TIP3    H129663   4.214   2.221   0.547 -2.0332 -0.1391 -0.3322
 2676TIP3    H229664   4.197   2.077   0.503  0.3556 -1.0361  1.4487
 2677TIP3   OH229665   3.429   1.101   1.067  0.4212  0.4173  0.1342
 2677TIP3    H129666   3.494   1.055   1.120  0.6267  0.2131 -0.2956
 2677TIP3    H229667   3.360   1.124   1.129  1.2317  1.2865  0.7551
 2678TIP3   OH229668   3.214   1.156   8.406  0.0480  0.9038 -0.1549
 2678TIP3    H129669   3.226   1.116   8.319  0.2217  0.3808  0.1023
 2678TIP3    H229670   3.227   1.249   8.392 -1.5731  1.0282 -1.0021
 2679TIP3   OH229671   5.988   6.643   7.460 -0.3950  0.2596  0.3080
 2679TIP3    H129672   5.943   6.605   7.385  0.8511  0.8120 -0.7713
 2679TIP3    H229673   5.984   6.575   7.527 -3.2231  0.4789  0.4788
 2680TIP3   OH229674   3.154   2.107   2.114  0.2051  0.2470  0.2582
 2680TIP3    H129675   3.183   2.165   2.043  0.8938  0.5232  0.7513
 2680TIP3    H229676   3.206   2.028   2.103  1.2803  0.7884  1.2142
 2681TIP3   OH229677   3.188   5.585   2.507  0.3834 -0.0947 -0.0951
 2681TIP3    H129678   3.251   5.655   2.523  0.2927  0.0887 -0.5169
 2681TIP3    H229679   3.114   5.628   2.463 -0.5202 -0.0988  1.3457
 2682TIP3   OH229680   1.455   6.186   1.369 -0.1287  0.0312 -0.4433
 2682TIP3    H129681   1.389   6.239   1.324  1.4013  1.6007 -0.9640
 2682TIP3    H229682   1.472   6.234   1.450 -0.4853 -1.0262  0.2753
 2683TIP3   OH229683   2.537   2.549   7.836  0.4609 -0.3439 -0.6478
 2683TIP3    H129684   2.504   2.639   7.830 -0.2278 -0.5072  0.4100
 2683TIP3    H229685   2.605   2.544   7.769  1.1155  1.2328 -0.1474
 2684TIP3   OH229686   2.622   0.002   8.149 -0.2431  0.4062 -0.2560
 2684TIP3    H129687   2.577   0.085   8.134 -0.4491  0.9183  2.5879
 2684TIP3    H229688   2.559  -0.052   8.197  0.2782 -0.9891 -1.0851
 2685TIP3   OH229689   6.082   2.965   8.000  0.5929 -0.1538  0.1384
 2685TIP3    H129690   6.061   3.025   7.929 -1.1539 -0.6189  0.2130
 2685TIP3    H229691   6.131   3.018   8.063 -0.3753  1.0419 -0.0757
 2686TIP3   OH229692   5.617   4.463   1.557  0.0038 -0.5985  0.3101
 2686TIP3    H129693   5.666   4.441   1.478  0.6301 -0.0434  0.5398
 2686TIP3    H229694   5.639   4.554   1.575 -1.9322  0.0253 -0.1835
 2687TIP3   OH229695   6.123   6.275   8.240 -0.0292  0.3665  0.1854
 2687TIP3    H129696   6.028   6.286   8.243 -0.2205 -1.0344 -0.0234
 2687TIP3    H229697   6.135   6.184   8.213  1.3665  1.7101 -4.6397
 2688TIP3   OH229698   0.267   6.246   1.279  0.0240  0.0749 -0.7113
 2688TIP3    H129699   0.211   6.245   1.201 -1.3124  1.7898  0.1512
 2688TIP3    H229700   0.305   6.158   1.282 -2.1710 -0.9857 -1.6817
 2689TIP3   OH229701   2.169   1.333   2.086 -0.5326  0.1758 -0.0886
 2689TIP3    H129702   2.156   1.426   2.106  0.0916  0.4015 -0.6815
 2689TIP3    H229703   2.264   1.325   2.076 -0.5367 -0.6404  0.5015
 2690TIP3   OH229704   5.600   4.245   6.846 -0.1583 -0.1308 -0.0051
 2690TIP3    H129705   5.581   4.266   6.755 -2.0058 -0.0231  0.3609
 2690TIP3    H229706   5.603   4.330   6.890 -0.5192 -0.2465  0.2454
 2691TIP3   OH229707   1.776   1.214   2.496  0.4448 -0.5238 -0.2417
 2691TIP3    H129708   1.712   1.280   2.522 -0.4717 -1.1634 -0.8439
 2691TIP3    H229709   1.807   1.177   2.579 -0.7152 -0.9202  0.0242
 2692TIP3   OH229710   3.015   1.133   0.029 -0.1637 -0.2449 -0.5048
 2692TIP3    H129711   3.070   1.102  -0.043  0.5333 -0.8630  0.2684
 2692TIP3    H229712   3.010   1.228   0.016  2.3094  0.0522  0.1979
 2693TIP3   OH229713   4.139   5.458   1.374  0.0181  0.1154 -0.2792
 2693TIP3    H129714   4.166   5.367   1.383  1.0139  0.3301 -0.9599
 2693TIP3    H229715   4.045   5.453   1.355 -0.2404 -0.6904  1.0608
 2694TIP3   OH229716   4.069   5.695   0.530  0.0375 -0.3507 -0.1067
 2694TIP3    H129717   4.012   5.670   0.458  1.2856 -0.5761 -1.0452
 2694TIP3    H229718   4.115   5.615   0.553  0.5800  0.0114  0.0864
 2695TIP3   OH229719   3.484   5.297   8.630  0.2641  0.1830 -0.0794
 2695TIP3    H129720   3.409   5.342   8.669 -1.2001 -0.9508 -1.4711
 2695TIP3    H229721   3.495   5.218   8.683  0.8178  0.5973  0.4342
 2696TIP3   OH229722   3.561   2.808   0.023  0.4394  0.2185 -0.0625
 2696TIP3    H129723   3.507   2.729   0.009 -0.8632  1.3944 -2.4524
 2696TIP3    H229724   3.637   2.794  -0.033  0.8807  0.0775  0.5743
 2697TIP3   OH229725   1.182   6.157   7.145  0.2575  0.0049  0.2600
 2697TIP3    H129726   1.185   6.245   7.182 -3.0723  0.1292  0.5872
 2697TIP3    H229727   1.271   6.140   7.114  2.1770  1.6641  4.2294
 2698TIP3   OH229728   1.357   2.807   8.854 -0.4758 -0.3280 -0.0818
 2698TIP3    H129729   1.304   2.733   8.882 -1.3047 -0.7378 -2.5428
 2698TIP3    H229730   1.418   2.771   8.790  0.2954  0.8287 -0.0371
 2699TIP3   OH229731   0.419   2.332   1.159 -0.3039  0.1560 -0.2201
 2699TIP3    H129732   0.352   2.267   1.142  1.2647 -1.6377  0.0616
 2699TIP3    H229733   0.408   2.354   1.252 -0.1555 -0.5526 -0.0322
 2700TIP3   OH229734   6.683   6.677   0.377  0.5069 -0.0278 -0.0586
 2700TIP3    H129735   6.726   6.738   0.437 -0.9559  1.7380 -0.7365
 2700TIP3    H229736   6.733   6.684   0.296  0.3726  0.2062 -0.1193
 2701TIP3   OH229737   2.453   1.301   7.591  0.3203  0.1254 -0.0128
 2701TIP3    H129738   2.379   1.245   7.570 -0.7517  1.2346  0.6321
 2701TIP3    H229739   2.515   1.244   7.636 -0.3062 -0.7377 -0.2183
 2702TIP3   OH229740   0.899   2.555   2.515  0.4930 -0.2818 -0.1431
 2702TIP3    H129741   0.902   2.530   2.423 -1.2972 -0.7180 -0.1278
 2702TIP3    H229742   0.893   2.473   2.563  3.0780 -0.1580  0.5327
 2703TIP3   OH229743   0.789   5.530   2.516  0.4034 -0.0291  0.0235
 2703TIP3    H129744   0.721   5.586   2.477  0.3285  0.1776  0.4452
 2703TIP3    H229745   0.746   5.445   2.527  0.2323  0.0849  0.2347
 2704TIP3   OH229746   4.240   1.673   1.051  0.1207 -0.0230  0.4242
 2704TIP3    H129747   4.154   1.716   1.051 -0.1527 -0.5633  0.4673
 2704TIP3    H229748   4.271   1.680   0.961 -0.3075 -0.4857  0.2331
 2705TIP3   OH229749   3.401   5.636   6.996 -0.6419 -0.0840 -0.0166
 2705TIP3    H129750   3.487   5.634   7.038  0.3972 -1.7532 -2.0033
 2705TIP3    H229751   3.341   5.599   7.060  0.6141 -1.2701  0.5122
 2706TIP3   OH229752   5.568   4.985   7.703  0.0047  0.9172 -0.8405
 2706TIP3    H129753   5.589   4.912   7.761 -2.6598 -0.1323 -1.0235
 2706TIP3    H229754   5.569   5.062   7.759 -1.2351  0.1051  0.3638
 2707TIP3   OH229755   2.327   2.023   7.032 -0.1065  0.1333  0.5395
 2707TIP3    H129756   2.413   2.019   7.073  0.5196 -0.3096 -0.7589
 2707TIP3    H229757   2.304   2.116   7.035 -0.0932  0.1142  1.8653
 2708TIP3   OH229758   1.217   0.897   0.225  0.5117  0.2706  0.0300
 2708TIP3    H129759   1.282   0.966   0.239  1.2811 -0.3742 -0.2528
 2708TIP3    H229760   1.142   0.942   0.188  1.2949  0.8589 -0.9027
 2709TIP3   OH229761   6.239   1.764   0.875 -0.5776 -0.1726 -0.3973
 2709TIP3    H129762   6.295   1.765   0.952 -0.1151 -2.0316 -0.6541
 2709TIP3    H229763   6.179   1.691   0.889 -2.0111  0.8580 -0.8070
 2710TIP3   OH229764   0.797   5.396   7.689 -0.1311 -0.6195 -0.2713
 2710TIP3    H129765   0.749   5.470   7.726  0.9832 -0.5905  1.2336
 2710TIP3    H229766   0.794   5.410   7.594 -1.9771  0.0399 -0.1440
 2711TIP3   OH229767   0.935   0.955   6.965 -0.2954  0.4118  0.0350
 2711TIP3    H129768   0.896   1.008   6.895  0.3359  1.8192  0.7164
 2711TIP3    H229769   1.019   0.926   6.929 -0.6915 -0.2720 -0.3804
 2712TIP3   OH229770   2.782   2.535   1.950 -0.2760  0.0288  0.2410
 2712TIP3    H129771   2.858   2.503   1.998 -2.5257 -5.4149  0.9219
 2712TIP3    H229772   2.814   2.551   1.862  1.7579 -1.8252  0.5587
 2713TIP3   OH229773   0.689   3.836   8.810  0.3402 -0.9624 -0.1884
 2713TIP3    H129774   0.613   3.791   8.773  0.4446 -2.9050  1.7591
 2713TIP3    H229775   0.720   3.892   8.739 -3.0287  0.1457 -0.9918
 2714TIP3   OH229776   1.803   0.296   0.967 -0.1502 -0.4114  0.3536
 2714TIP3    H129777   1.801   0.379   1.016  0.9268  0.0875 -0.4156
 2714TIP3    H229778   1.720   0.253   0.990 -0.3773  0.5185  1.3777
 2715TIP3   OH229779   3.324   5.564   0.875  0.1924 -0.2303  0.5121
 2715TIP3    H129780   3.289   5.553   0.786 -1.5426 -1.1035  1.2608
 2715TIP3    H229781   3.249   5.594   0.926  1.1002 -0.0238  1.7551
 2716TIP3   OH229782   4.410   0.270   7.948 -0.0213 -0.0745 -0.1704
 2716TIP3    H129783   4.492   0.285   7.900 -0.2479  0.0385 -0.5233
 2716TIP3    H229784   4.422   0.183   7.987  0.9242  0.6176  1.1306
 2717TIP3   OH229785   4.197   3.906   0.213  0.0838 -0.2001  0.2319
 2717TIP3    H129786   4.163   3.823   0.181  0.9376 -0.1066 -0.9717
 2717TIP3    H229787   4.145   3.924   0.292 -1.2382 -1.0553 -0.4041
 2718TIP3   OH229788   4.368   4.886   0.909  0.3763 -0.0612  0.2232
 2718TIP3    H129789   4.342   4.978   0.924  0.8475  0.0457  0.4129
 2718TIP3    H229790   4.460   4.891   0.885  0.3305 -0.4687 -0.0446
 2719TIP3   OH229791   1.813   0.285   0.690  0.5067  0.1656  0.2634
 2719TIP3    H129792   1.761   0.215   0.651  1.0873  0.4092 -0.9824
 2719TIP3    H229793   1.797   0.277   0.784 -1.3289 -0.1027 -0.0440
 2720TIP3   OH229794   3.894   1.012   0.393 -0.0409  0.0144 -0.0941
 2720TIP3    H129795   3.867   0.957   0.467 -2.4708  0.7850 -0.3073
 2720TIP3    H229796   3.812   1.034   0.348  1.1925  1.0111 -2.0102
 2721TIP3   OH229797   3.436   2.870   8.577 -0.2220  0.1205  0.0049
 2721TIP3    H129798   3.402   2.877   8.488  1.2526  1.9725 -0.4501
 2721TIP3    H229799   3.486   2.788   8.578  0.5448  0.5720 -1.1424
 2722TIP3   OH229800   2.409   4.580   6.881 -0.0110  0.1457 -0.3564
 2722TIP3    H129801   2.357   4.659   6.868 -0.6257 -0.2957 -0.6097
 2722TIP3    H229802   2.347   4.515   6.916  0.4203 -0.3132 -0.4263
 2723TIP3   OH229803   5.500   5.659   2.196 -0.2074 -0.5956  0.3523
 2723TIP3    H129804   5.593   5.667   2.176 -0.4414 -1.1369 -1.1221
 2723TIP3    H229805   5.472   5.749   2.215  0.4719 -0.3159  0.0836
 2724TIP3   OH229806   3.144   5.850   0.871 -0.0813  0.2545 -0.0797
 2724TIP3    H129807   3.146   5.902   0.952  0.0727  0.0155  0.0726
 2724TIP3    H229808   3.137   5.759   0.902 -2.2648  0.2685 -0.3559
 2725TIP3   OH229809   3.970   6.618   1.749 -0.0537  0.4189  0.3861
 2725TIP3    H129810   3.933   6.534   1.777  0.0740  0.4673  0.6976
 2725TIP3    H229811   3.985   6.666   1.830  1.3106  0.1330  0.3285
 2726TIP3   OH229812   1.655   4.700   8.788 -0.0670 -0.2769  0.2705
 2726TIP3    H129813   1.611   4.731   8.868  2.4965 -1.5643  2.3276
 2726TIP3    H229814   1.650   4.605   8.793  1.9658 -0.4402  0.0632
 2727TIP3   OH229815   4.316   0.128   0.151  0.0859  0.2654  0.0206
 2727TIP3    H129816   4.355   0.041   0.161 -0.8224 -0.2065 -0.3904
 2727TIP3    H229817   4.311   0.163   0.240  0.3723 -0.1383  0.1986
 2728TIP3   OH229818   2.791   0.383   0.296 -0.1035  1.0370  0.6042
 2728TIP3    H129819   2.789   0.459   0.353 -0.3020  0.0231  1.9982
 2728TIP3    H229820   2.883   0.376   0.268  0.0956  1.2813  1.1813
 2729TIP3   OH229821   1.186   6.297   0.533  0.0307  0.4747 -0.3645
 2729TIP3    H129822   1.196   6.212   0.488  0.4282  0.7084 -0.7231
 2729TIP3    H229823   1.272   6.338   0.526  0.1655  0.4305  0.8075
 2730TIP3   OH229824   1.186   4.671   0.140 -0.5135 -0.5568 -0.0122
 2730TIP3    H129825   1.132   4.745   0.168  0.0178 -0.0289 -0.3685
 2730TIP3    H229826   1.201   4.621   0.220  1.5339  1.2851  0.8795
 2731TIP3   OH229827   4.930   5.153   8.042  0.3490 -0.2696 -0.2560
 2731TIP3    H129828   5.023   5.142   8.023  0.5347 -1.6321  1.1992
 2731TIP3    H229829   4.887   5.151   7.956  1.6245  0.2749 -0.9379
 2732TIP3   OH229830   3.962   0.105   2.907  0.6338 -0.1491  0.4463
 2732TIP3    H129831   3.999   0.190   2.884  2.6447 -1.3840 -1.2322
 2732TIP3    H229832   3.914   0.121   2.988  1.5427  2.4159  0.5643
 2733TIP3   OH229833   0.530   0.949   7.618  0.2026  0.1292  0.4577
 2733TIP3    H129834   0.618   0.914   7.605  0.2818 -1.3286  3.9195
 2733TIP3    H229835   0.515   1.004   7.541  3.8719 -0.0291 -0.5680
 2734TIP3   OH229836   1.625   0.487   3.204 -0.6137 -0.4577 -0.3810
 2734TIP3    H129837   1.610   0.423   3.134  0.2640 -1.3761  0.2530
 2734TIP3    H229838   1.681   0.553   3.164 -1.7894  0.1315 -1.1401
 2735TIP3   OH229839   3.975   1.649   7.672  0.6072 -0.1449  0.2920
 2735TIP3    H129840   3.983   1.628   7.579  1.5700  0.7202  0.1584
 2735TIP3    H229841   3.894   1.607   7.699  1.4327 -2.3178 -0.3910
 2736TIP3   OH229842   1.849   0.698   0.976  0.8003  0.3946  0.2212
 2736TIP3    H129843   1.812   0.647   1.048  0.8015 -1.4758 -1.0407
 2736TIP3    H229844   1.914   0.755   1.019  1.9711 -1.7955  1.5815
 2737TIP3   OH229845   3.573   6.172   8.057  0.3126  0.1921 -0.1675
 2737TIP3    H129846   3.541   6.228   8.127 -0.4443  1.9602 -1.8406
 2737TIP3    H229847   3.618   6.232   7.997 -0.4384 -0.9755 -1.9916
 2738TIP3   OH229848   5.221   4.273   7.308 -0.0751 -0.0085 -0.1808
 2738TIP3    H129849   5.309   4.286   7.273  0.8320 -0.6401  1.6870
 2738TIP3    H229850   5.197   4.357   7.346  0.2026 -0.1371  0.2848
 2739TIP3   OH229851   2.837   3.187   1.758 -0.3067 -0.0354  0.7775
 2739TIP3    H129852   2.857   3.269   1.802 -0.4178  0.4929 -0.1299
 2739TIP3    H229853   2.830   3.210   1.665  1.1729 -1.3264  0.3024
 2740TIP3   OH229854   5.400   2.659   2.593  0.8141  0.1854  0.2524
 2740TIP3    H129855   5.308   2.640   2.576  1.0227 -0.1577 -0.5549
 2740TIP3    H229856   5.424   2.599   2.664 -0.3800  2.4641  2.7780
 2741TIP3   OH229857   0.562   1.401   8.270  0.0032 -0.4253  0.3664
 2741TIP3    H129858   0.569   1.394   8.365 -0.1603 -0.1163  0.4046
 2741TIP3    H229859   0.624   1.337   8.236  1.0794  0.4224  0.6912
 2742TIP3   OH229860   6.214   0.921   8.116 -0.8589  0.3913  0.0156
 2742TIP3    H129861   6.155   0.850   8.142  0.5943 -0.5351  0.9031
 2742TIP3    H229862   6.252   0.892   8.034  2.4108 -1.6689  2.0354
 2743TIP3   OH229863   2.783   0.377   0.028 -0.7681  0.2567  0.0966
 2743TIP3    H129864   2.801   0.387   0.121 -2.3160  0.6634  0.3917
 2743TIP3    H229865   2.858   0.329  -0.006  0.1824  0.7583  1.3963
 2744TIP3   OH229866   6.722   5.370   1.889  0.7729  0.3165  0.2344
 2744TIP3    H129867   6.800   5.375   1.833 -0.6629  1.2432 -1.8298
 2744TIP3    H229868   6.685   5.284   1.870  0.9380  0.1360  0.7230
 2745TIP3   OH229869   6.087   5.856   0.788 -0.0823  0.1327 -0.0046
 2745TIP3    H129870   6.160   5.918   0.779 -0.0959  0.2655  0.7865
 2745TIP3    H229871   6.122   5.774   0.755 -0.0532  0.5428 -1.0455
 2746TIP3   OH229872   6.809   1.782   8.224  0.0975 -0.0546 -0.2078
 2746TIP3    H129873   6.780   1.699   8.186 -0.4847  0.0332  0.0497
 2746TIP3    H229874   6.894   1.761   8.264  1.1576  0.0244 -2.2391
 2747TIP3   OH229875   0.219   2.083   2.822  0.0608 -0.5518 -0.4578
 2747TIP3    H129876   0.174   2.121   2.898  0.5981  1.5150 -1.0990
 2747TIP3    H229877   0.250   1.998   2.853 -0.9568 -0.3800  1.1854
 2748TIP3   OH229878   4.548   6.157   8.656  0.1639 -0.5002  0.0768
 2748TIP3    H129879   4.610   6.227   8.639 -0.3845 -0.1212 -0.4004
 2748TIP3    H229880   4.601   6.084   8.689  0.5920  0.5560  1.8585
 2749TIP3   OH229881   6.080   4.321   0.883  0.5581 -0.7960 -0.0944
 2749TIP3    H129882   6.006   4.352   0.831 -0.4285 -1.9199  0.5970
 2749TIP3    H229883   6.138   4.280   0.819  2.5033  3.2249 -1.2584
 2750TIP3   OH229884   3.292   5.692   0.581 -0.4472 -0.8775 -0.0686
 2750TIP3    H129885   3.217   5.679   0.523  0.1518  2.6784 -1.9108
 2750TIP3    H229886   3.276   5.776   0.623  1.4123 -1.1705  1.3728
 2751TIP3   OH229887   4.540   6.331   1.492  0.2641  0.5145 -0.0038
 2751TIP3    H129888   4.616   6.297   1.445  1.4411  1.3977  1.1604
 2751TIP3    H229889   4.576   6.397   1.551 -1.5464  1.6018 -0.0441
 2752TIP3   OH229890   2.440   2.856   0.304 -0.2360 -0.4101  0.4693
 2752TIP3    H129891   2.493   2.789   0.261 -2.4443 -1.2629 -1.0917
 2752TIP3    H229892   2.372   2.806   0.350 -1.0611  0.7271  0.5140
 2753TIP3   OH229893   5.491   2.646   0.383 -0.0400  0.1211 -0.8748
 2753TIP3    H129894   5.532   2.587   0.320  1.3761  1.0591 -0.8825
 2753TIP3    H229895   5.518   2.733   0.354  0.4795  0.5880  0.8879
 2754TIP3   OH229896   5.153   1.437   2.957  0.0959 -0.3803 -0.1611
 2754TIP3    H129897   5.114   1.386   2.886 -1.0964 -2.3604  1.8061
 2754TIP3    H229898   5.078   1.473   3.004  0.7817 -0.6343  1.1563
 2755TIP3   OH229899   1.840   2.516   8.690  0.5808 -0.0737  0.3318
 2755TIP3    H129900   1.789   2.470   8.756  1.0618 -1.6468 -0.3321
 2755TIP3    H229901   1.882   2.446   8.639 -0.9554  0.9521 -2.6285
 2756TIP3   OH229902   2.682   4.481   0.150  0.2836 -0.4826 -0.0178
 2756TIP3    H129903   2.686   4.514   0.060  1.5641 -0.9269 -0.1341
 2756TIP3    H229904   2.757   4.520   0.194 -0.3838 -0.1905  0.9034
 2757TIP3   OH229905   0.498   2.017   1.274  0.2547 -0.5690  0.4451
 2757TIP3    H129906   0.517   2.041   1.365  0.0237 -0.5067  0.4778
 2757TIP3    H229907   0.569   2.056   1.223 -0.8927  1.4794  0.3221
 2758TIP3   OH229908   0.703   1.191   8.189 -0.2943 -0.2069  0.4165
 2758TIP3    H129909   0.713   1.172   8.096  0.5566  0.0519  0.4425
 2758TIP3    H229910   0.776   1.145   8.231 -1.0837 -0.9088  1.0432
 2759TIP3   OH229911   3.285   0.687   3.042  0.1215  0.0317 -0.0722
 2759TIP3    H129912   3.375   0.669   3.017 -0.5521 -0.8145 -2.1426
 2759TIP3    H229913   3.234   0.666   2.963 -2.1816 -2.2718  1.8507
 2760TIP3   OH229914   4.587   2.678   6.903 -0.2332  0.1200  0.4134
 2760TIP3    H129915   4.510   2.688   6.847 -0.2979  0.6921  0.6010
 2760TIP3    H229916   4.613   2.587   6.891  0.1777  0.4164 -1.1060
 2761TIP3   OH229917   6.634   0.711   8.869 -0.0827 -0.0643  0.5499
 2761TIP3    H129918   6.563   0.705   8.933 -1.2801  0.2066 -0.7076
 2761TIP3    H229919   6.713   0.697   8.920 -0.8379  1.9018  2.4196
 2762TIP3   OH229920   2.995   0.455   2.262 -0.2271 -0.2276  0.2598
 2762TIP3    H129921   2.942   0.490   2.334 -0.1967 -0.9031  0.6128
 2762TIP3    H229922   2.932   0.434   2.193 -0.2431  0.5513  0.0199
 2763TIP3   OH229923   3.185   6.388   8.807 -0.4178 -0.2467 -0.2575
 2763TIP3    H129924   3.118   6.320   8.807 -0.2128 -0.4515 -0.3923
 2763TIP3    H229925   3.158   6.449   8.876 -2.0114  0.9545 -1.8670
 2764TIP3   OH229926   1.099   5.959   2.508 -0.2346 -0.0732  0.0972
 2764TIP3    H129927   1.023   5.916   2.545  0.6922 -0.4124  1.6865
 2764TIP3    H229928   1.142   5.892   2.455 -0.7270 -0.0440 -0.3389
 2765TIP3   OH229929   4.809   1.441   8.366  0.2733 -0.4899 -0.2555
 2765TIP3    H129930   4.756   1.481   8.436 -0.3428 -1.1820 -0.3168
 2765TIP3    H229931   4.850   1.365   8.408  0.6789 -0.3454 -0.3909
 2766TIP3   OH229932   6.285   0.797   1.580 -0.2021 -0.0154  0.1858
 2766TIP3    H129933   6.252   0.882   1.609 -1.0526 -0.2863  0.0343
 2766TIP3    H229934   6.380   0.808   1.575 -0.3212  0.9684  0.0218
 2767TIP3   OH229935   2.921   5.809   0.192  0.3896  0.2743 -0.4053
 2767TIP3    H129936   2.919   5.720   0.156  1.4280  0.1732 -0.2625
 2767TIP3    H229937   3.015   5.828   0.202  0.2158  0.1428  2.5420
 2768TIP3   OH229938   6.434   0.287   1.850 -0.2931 -0.2900 -0.2058
 2768TIP3    H129939   6.487   0.295   1.770  0.1292 -0.2854  0.0726
 2768TIP3    H229940   6.440   0.194   1.873  0.9452 -0.0072  0.7338
 2769TIP3   OH229941   4.506   4.227   0.547  0.3576 -0.3599 -0.4504
 2769TIP3    H129942   4.490   4.297   0.484 -0.6704  1.4136  1.6322
 2769TIP3    H229943   4.535   4.152   0.494  2.8041  1.9697 -2.6911
 2770TIP3   OH229944   6.444   6.794   1.676  0.2913  0.3946 -0.3565
 2770TIP3    H129945   6.438   6.843   1.595 -0.0301 -0.2541 -0.7396
 2770TIP3    H229946   6.505   6.723   1.657  1.1591  0.9286  0.3487
 2771TIP3   OH229947   4.882   5.732   2.725 -0.3381 -0.1835  0.1717
 2771TIP3    H129948   4.891   5.693   2.637 -0.3704 -3.4247  1.4469
 2771TIP3    H229949   4.969   5.722   2.764 -0.4454  0.8218  0.6654
 2772TIP3   OH229950   5.821   3.069   8.575  0.0143 -0.5970 -0.0074
 2772TIP3    H129951   5.765   3.002   8.536 -0.7600 -0.8080  1.4055
 2772TIP3    H229952   5.778   3.152   8.555  0.5520 -0.5662 -1.0773
 2773TIP3   OH229953   2.976   4.199   2.301  0.1450  0.1040  0.0380
 2773TIP3    H129954   2.980   4.153   2.385  1.1363 -1.4525 -0.8132
 2773TIP3    H229955   2.887   4.181   2.269 -0.3298  0.9203  0.8292
 2774TIP3   OH229956   0.910   0.683   8.142 -0.0478 -0.3341  0.2685
 2774TIP3    H129957   0.927   0.591   8.163  1.8796  0.1647  1.0785
 2774TIP3    H229958   0.959   0.699   8.061 -1.6539 -0.3855 -0.7648
 2775TIP3   OH229959   6.529   2.654   1.254 -0.1286  0.7762  0.6421
 2775TIP3    H129960   6.611   2.625   1.295  0.3925  1.4075  0.0555
 2775TIP3    H229961   6.554   2.686   1.168 -0.9482  1.2982  0.5809
 2776TIP3   OH229962   3.809   1.720   0.391 -0.1882  0.2943 -0.0493
 2776TIP3    H129963   3.795   1.625   0.390  2.6058 -0.2273  0.3047
 2776TIP3    H229964   3.838   1.739   0.480  3.6867  0.5670 -1.1645
 2777TIP3   OH229965   4.917   2.384   1.445 -0.5859  0.3143  0.4814
 2777TIP3    H129966   4.834   2.356   1.408 -0.8017  1.0229  0.4226
 2777TIP3    H229967   4.905   2.375   1.540 -1.2596  1.8324  0.5580
 2778TIP3   OH229968   4.371   3.457   0.981 -0.0538 -0.3695 -0.8014
 2778TIP3    H129969   4.439   3.523   0.993  0.4122 -0.8991 -0.4880
 2778TIP3    H229970   4.410   3.393   0.922 -0.4888 -0.3884 -1.0682
 2779TIP3   OH229971   0.681   3.184   0.216  0.8168 -0.2215  0.3861
 2779TIP3    H129972   0.763   3.201   0.170  0.7378  0.3588  0.4611
 2779TIP3    H229973   0.654   3.269   0.250  1.1326 -0.6930  1.9343
 2780TIP3   OH229974   5.031   6.572   8.004 -0.0604 -0.4836  0.2432
 2780TIP3    H129975   5.057   6.493   8.052 -2.7521 -1.6538 -0.0653
 2780TIP3    H229976   5.008   6.635   8.072  1.6462 -0.0761  0.4856
 2781TIP3   OH229977   6.095   1.538   0.983  0.2879  0.0621  0.4219
 2781TIP3    H129978   6.000   1.525   0.985  0.3512 -0.5158 -0.1318
 2781TIP3    H229979   6.116   1.576   1.069 -0.4739  0.4365  0.4543
 2782TIP3   OH229980   5.332   0.941   0.784 -0.1835  0.2581  0.0342
 2782TIP3    H129981   5.332   0.859   0.833 -0.5840  0.9728  1.2826
 2782TIP3    H229982   5.283   1.002   0.839  1.4740  1.7944 -0.0991
 2783TIP3   OH229983   0.722   4.836   0.221 -0.1448  0.2862 -0.3071
 2783TIP3    H129984   0.708   4.839   0.316 -0.5244  0.1337 -0.3601
 2783TIP3    H229985   0.816   4.821   0.212 -0.1428  0.0754  0.0463
 2784TIP3   OH229986   2.329   5.255   2.312  0.5574 -0.0286 -0.2425
 2784TIP3    H129987   2.299   5.215   2.231 -0.2080  0.7540 -0.3660
 2784TIP3    H229988   2.252   5.300   2.347  1.5997  2.2290 -0.6690
 2785TIP3   OH229989   0.052   4.633   0.734  0.2159 -0.0456  0.1937
 2785TIP3    H129990  -0.010   4.638   0.661  0.9797 -0.4928 -0.4992
 2785TIP3    H229991   0.138   4.628   0.692  0.6915  0.0360  1.1354
 2786TIP3   OH229992   1.062   3.494   0.527 -0.7468 -0.4328  0.7661
 2786TIP3    H129993   1.017   3.431   0.583  0.7100 -3.3191 -1.0793
 2786TIP3    H229994   1.033   3.473   0.438  1.5155 -0.0375 -0.1317
 2787TIP3   OH229995   4.135   0.513   7.654 -0.0053 -0.1670 -0.2763
 2787TIP3    H129996   4.162   0.597   7.690 -1.5964  0.3991 -0.3648
 2787TIP3    H229997   4.135   0.526   7.560 -2.1806  0.3884 -0.2415
 2788TIP3   OH229998   1.879   2.029   0.261 -0.1894  0.0176 -0.1625
 2788TIP3    H129999   1.824   1.979   0.322 -0.2989 -0.0773 -0.3407
 2788TIP3    H230000   1.915   1.964   0.202  0.8833 -0.0456  0.5374
 2789TIP3   OH230001   4.590   5.995   1.213 -0.0766  0.0028  0.4820
 2789TIP3    H130002   4.534   5.997   1.136 -0.5070  0.4757  0.8060
 2789TIP3    H230003   4.574   5.909   1.252 -0.6797  0.1883  0.6499
 2790TIP3   OH230004   4.068   0.024   1.538  0.5070 -0.2062  0.0149
 2790TIP3    H130005   4.153   0.019   1.495  0.1113 -0.7416 -0.7354
 2790TIP3    H230006   4.067  -0.050   1.599  0.7500  0.0583  0.3362
 2791TIP3   OH230007   3.769   5.927   2.345  0.0029  0.4447 -0.0939
 2791TIP3    H130008   3.780   6.021   2.360 -0.5617  0.4656  0.2414
 2791TIP3    H230009   3.746   5.920   2.252 -2.5183  0.8974  0.4279
 2792TIP3   OH230010   1.819   0.974   1.209  0.0629 -0.0198 -0.3416
 2792TIP3    H130011   1.799   1.009   1.296  0.9715 -0.3655  0.0211
 2792TIP3    H230012   1.733   0.960   1.169 -0.3613  0.5472  0.3303
 2793TIP3   OH230013   0.899   1.580   0.176 -0.7771  0.3751 -0.0571
 2793TIP3    H130014   0.864   1.542   0.257 -0.9044  0.4565 -0.0732
 2793TIP3    H230015   0.828   1.636   0.143 -1.0662 -0.3544 -0.6989
 2794TIP3   OH230016   2.654   1.940   8.052 -1.1148  0.1624 -0.4465
 2794TIP3    H130017   2.697   1.978   8.128  0.0209 -0.3231 -0.8275
 2794TIP3    H230018   2.565   1.975   8.055 -0.5433  1.6623  0.0406
 2795TIP3   OH230019   4.691   1.627   1.719 -0.4876 -0.6854 -0.1895
 2795TIP3    H130020   4.710   1.691   1.651  0.9858  0.1180  0.9339
 2795TIP3    H230021   4.653   1.678   1.790 -0.7348 -1.3041  0.1331
 2796TIP3   OH230022   4.160   2.745   7.888 -0.5639  0.1637  0.0972
 2796TIP3    H130023   4.085   2.698   7.851 -0.0474  0.6157 -1.6158
 2796TIP3    H230024   4.169   2.822   7.833  1.9750 -0.5701 -0.6275
 2797TIP3   OH230025   5.345   4.187   0.267 -0.1876  0.2762  0.7115
 2797TIP3    H130026   5.250   4.171   0.269  0.0375 -1.3354  0.0439
 2797TIP3    H230027   5.357   4.262   0.325 -1.9298  0.8378  0.4211
 2798TIP3   OH230028   6.184   5.389   8.093  0.1146  0.9819 -0.1571
 2798TIP3    H130029   6.248   5.318   8.103  0.5478  1.6467  2.4912
 2798TIP3    H230030   6.226   5.452   8.036  0.5014  0.0090 -0.9853
 2799TIP3   OH230031   0.658   3.583   7.811  0.2231 -0.7426  0.5567
 2799TIP3    H130032   0.634   3.570   7.903 -1.4932  1.6873  0.5531
 2799TIP3    H230033   0.575   3.579   7.764  0.8619 -0.1938 -0.6454
 2800TIP3   OH230034   0.669   3.856   1.483  0.2437 -0.0410 -0.8557
 2800TIP3    H130035   0.737   3.808   1.436  0.1317 -0.5073 -0.5414
 2800TIP3    H230036   0.627   3.910   1.416  1.1240  0.4803 -0.9942
 2801TIP3   OH230037   6.153   6.081   1.281  0.5560  0.4335 -0.0765
 2801TIP3    H130038   6.203   6.143   1.228  1.2327  0.4099  0.5266
 2801TIP3    H230039   6.066   6.079   1.240  0.8012  1.0879 -0.6423
 2802TIP3   OH230040   2.627   2.371   8.218 -0.1187  0.1814  0.6059
 2802TIP3    H130041   2.570   2.295   8.206  1.0786 -0.7990  0.9077
 2802TIP3    H230042   2.635   2.409   8.131  1.1564 -1.4718 -0.0708
 2803TIP3   OH230043   0.079   1.457   0.418 -0.0510  0.1997  0.3293
 2803TIP3    H130044   0.051   1.409   0.341 -1.9159  0.8721  0.5366
 2803TIP3    H230045   0.084   1.391   0.487 -2.3911  0.2220  0.5675
 2804TIP3   OH230046   2.214   6.341   7.316 -0.0963 -0.2162 -0.1314
 2804TIP3    H130047   2.247   6.428   7.338 -0.3484 -0.1065 -0.1879
 2804TIP3    H230048   2.171   6.351   7.231  0.4017 -0.5266 -0.4276
 2805TIP3   OH230049   1.830   6.196   7.880 -0.3771 -0.0928 -0.0790
 2805TIP3    H130050   1.848   6.217   7.972  1.4057  1.9211 -0.8058
 2805TIP3    H230051   1.915   6.172   7.843 -0.4394  2.1789 -1.8926
 2806TIP3   OH230052   1.122   0.747   7.222 -0.0711 -0.7037 -0.0354
 2806TIP3    H130053   1.102   0.654   7.225  0.9785 -0.9171  0.8976
 2806TIP3    H230054   1.202   0.753   7.169 -0.5095 -0.2588 -0.6587
 2807TIP3   OH230055   0.407   3.190   8.556  0.6124  0.0096  0.2646
 2807TIP3    H130056   0.446   3.143   8.482  2.8203  0.8351  0.8180
 2807TIP3    H230057   0.480   3.202   8.617 -0.7446  0.9477  1.7669
 2808TIP3   OH230058   5.107   0.549   8.384 -0.0361 -0.0646  0.3850
 2808TIP3    H130059   5.200   0.539   8.361  0.4199 -0.6705  2.2796
 2808TIP3    H230060   5.060   0.500   8.316  0.9979  0.3735 -0.6954
 2809TIP3   OH230061   1.757   4.784   0.796  0.1573 -1.2124  0.2576
 2809TIP3    H130062   1.849   4.809   0.785 -0.0714 -0.7375 -0.7473
 2809TIP3    H230063   1.715   4.862   0.833 -0.2398 -0.6337 -1.3318
 2810TIP3   OH230064   4.963   1.343   8.637 -0.4656 -0.4016  0.2331
 2810TIP3    H130065   4.890   1.336   8.697  0.2621  0.2240  1.2154
 2810TIP3    H230066   4.946   1.276   8.570 -1.6162 -0.6545  0.7659
 2811TIP3   OH230067   2.242   1.144   1.379 -0.2390  0.1182  0.3373
 2811TIP3    H130068   2.299   1.067   1.380  1.2784  1.2014  0.6936
 2811TIP3    H230069   2.161   1.114   1.420 -0.5565 -1.8813 -1.5373
 2812TIP3   OH230070   4.094   3.209   0.394 -0.3453 -0.1719  0.6370
 2812TIP3    H130071   4.034   3.197   0.321  0.4441 -1.7360  0.1929
 2812TIP3    H230072   4.072   3.295   0.430 -1.6562  0.0363 -0.5818
 2813TIP3   OH230073   6.009   5.256   1.218  0.0829 -0.1760 -0.3624
 2813TIP3    H130074   5.954   5.327   1.185  1.7524  0.9025 -0.9438
 2813TIP3    H230075   5.980   5.179   1.169 -0.1763  0.5975 -1.4692
 2814TIP3   OH230076   4.756   2.862   7.913 -0.2142  0.0246 -0.2178
 2814TIP3    H130077   4.707   2.904   7.984 -1.2102  0.2545 -1.0200
 2814TIP3    H230078   4.846   2.857   7.946 -0.4116  1.2242  0.5847
 2815TIP3   OH230079   4.241   6.273   2.845  0.3603  0.4762 -0.2456
 2815TIP3    H130080   4.151   6.289   2.874  0.2406 -0.1056 -0.2912
 2815TIP3    H230081   4.273   6.204   2.903  1.2994  1.7024  0.7721
 2816TIP3   OH230082   2.719   5.970   8.773  0.2937 -0.0501  0.2310
 2816TIP3    H130083   2.777   5.939   8.703 -2.7513 -0.8660 -2.1362
 2816TIP3    H230084   2.723   5.901   8.840  1.7075 -0.2538 -0.0241
 2817TIP3   OH230085   3.266   6.765   0.320  0.0797 -0.2514 -0.4279
 2817TIP3    H130086   3.264   6.839   0.381  0.8418 -1.3544  1.0156
 2817TIP3    H230087   3.191   6.711   0.346 -0.6559  0.1508 -1.6736
 2818TIP3   OH230088   3.296   6.153   0.232 -0.3492 -0.2944  0.2280
 2818TIP3    H130089   3.328   6.112   0.313  1.2162  1.1934  0.4228
 2818TIP3    H230090   3.248   6.230   0.262 -1.4251 -0.7727 -0.2141
 2819TIP3   OH230091   3.440   2.222   1.282 -0.1893  0.0616  0.3741
 2819TIP3    H130092   3.390   2.256   1.356  0.1422  0.6745  0.3192
 2819TIP3    H230093   3.392   2.251   1.205  0.1369  0.4812  0.3258
 2820TIP3   OH230094   0.721   0.597   7.350 -0.0198 -0.7047  0.3315
 2820TIP3    H130095   0.658   0.531   7.321  2.0126 -1.5307 -2.5893
 2820TIP3    H230096   0.723   0.661   7.280  1.3302  0.0910  1.0482
 2821TIP3   OH230097   3.846   2.106   2.304 -0.2892  0.0751 -0.0710
 2821TIP3    H130098   3.903   2.070   2.373 -1.7565  0.3606  1.3441
 2821TIP3    H230099   3.806   2.029   2.264  2.4774 -0.2927 -2.4633
 2822TIP3   OH230100   0.588   6.659   7.980  0.1817  0.2807 -0.1160
 2822TIP3    H130101   0.615   6.732   8.036 -0.6981 -0.5504  1.4563
 2822TIP3    H230102   0.663   6.600   7.978  0.1743  0.2560  0.3068
 2823TIP3   OH230103   0.743   1.027   1.085 -0.1222  0.1810  0.2253
 2823TIP3    H130104   0.791   0.976   1.150  0.4524 -1.1316 -1.1643
 2823TIP3    H230105   0.720   0.964   1.017 -1.3071  1.3658 -0.5321
 2824TIP3   OH230106   1.164   5.563   1.590  0.4317  0.4092 -0.2166
 2824TIP3    H130107   1.089   5.522   1.548 -0.6129  2.0256 -0.0172
 2824TIP3    H230108   1.230   5.569   1.520 -0.4177  0.9047 -0.9922
 2825TIP3   OH230109   0.821   0.085   1.141  0.0447  0.0668 -0.2606
 2825TIP3    H130110   0.906   0.046   1.123  0.6073  1.4282 -0.6775
 2825TIP3    H230111   0.839   0.152   1.208 -1.0053 -0.8124  0.9497
 2826TIP3   OH230112   5.187   3.971   2.994 -0.0798  0.2873  0.3823
 2826TIP3    H130113   5.126   3.974   3.067 -0.2504  1.2589  0.2159
 2826TIP3    H230114   5.135   3.997   2.918  0.4414  0.7474  0.1730
 2827TIP3   OH230115   3.972   5.263   8.415 -0.3626 -0.6030  0.1632
 2827TIP3    H130116   4.028   5.332   8.379  1.1467 -0.1918  2.9988
 2827TIP3    H230117   4.006   5.182   8.378 -1.1767 -0.0276 -2.0141
 2828TIP3   OH230118   2.899   4.858   7.611 -0.3376 -0.1760 -0.1892
 2828TIP3    H130119   2.892   4.804   7.689 -2.4253 -0.7584 -0.7354
 2828TIP3    H230120   2.889   4.797   7.538  2.0156  0.2831 -0.9954
 2829TIP3   OH230121   5.507   1.827   1.219 -0.1801  0.1197 -0.2587
 2829TIP3    H130122   5.553   1.908   1.196 -0.1503 -0.0768 -0.8998
 2829TIP3    H230123   5.484   1.788   1.135 -0.9020 -0.1413  0.0539
 2830TIP3   OH230124   2.519   5.598   7.995  0.1065  0.2924  0.5725
 2830TIP3    H130125   2.572   5.658   8.047 -0.9415  0.5012  1.4242
 2830TIP3    H230126   2.436   5.644   7.981  0.3898  0.2793 -1.3863
 2831TIP3   OH230127   0.350   1.909   7.250 -0.5873  0.3096 -0.7547
 2831TIP3    H130128   0.298   1.830   7.237 -0.5086 -0.5835  3.1775
 2831TIP3    H230129   0.286   1.980   7.248 -1.1721 -0.2145 -1.0282
 2832TIP3   OH230130   3.201   0.721   2.421 -0.0572  0.2761  0.7914
 2832TIP3    H130131   3.129   0.778   2.392 -1.4037 -1.7061  0.0567
 2832TIP3    H230132   3.160   0.661   2.484  0.9257 -0.9634  0.2803
 2833TIP3   OH230133   3.646   6.345   8.731  0.5652 -0.5001 -0.0107
 2833TIP3    H130134   3.556   6.314   8.740  0.1805  0.0814 -1.5888
 2833TIP3    H230135   3.698   6.267   8.713  0.2293 -0.7248 -0.0003
 2834TIP3   OH230136   4.332   1.752   7.266  0.1151  0.1656  0.2129
 2834TIP3    H130137   4.247   1.708   7.266  0.3017 -0.2504 -1.5118
 2834TIP3    H230138   4.389   1.696   7.215  0.2881  2.4612 -2.3393
 2835TIP3   OH230139   3.680   0.982   7.985 -0.1139  0.4639  0.3511
 2835TIP3    H130140   3.764   0.980   7.939 -0.5143 -0.4091 -0.3803
 2835TIP3    H230141   3.669   1.073   8.011  1.0029  0.6084  0.3534
 2836TIP3   OH230142   6.503   5.787   8.733 -0.0916  0.0659  0.1289
 2836TIP3    H130143   6.574   5.723   8.744  0.9114  1.0107 -0.5560
 2836TIP3    H230144   6.443   5.745   8.670  0.5539 -0.2116 -0.3168
 2837TIP3   OH230145   0.389   0.150   0.960 -0.1274  0.2700  0.2196
 2837TIP3    H130146   0.378   0.079   1.023 -1.0825 -0.5221 -0.7986
 2837TIP3    H230147   0.473   0.190   0.984  0.2413 -0.9390  1.0675
 2838TIP3   OH230148   5.705   6.174   7.918  1.0566 -0.1372  0.0893
 2838TIP3    H130149   5.637   6.191   7.982  1.5767 -1.9016  1.1770
 2838TIP3    H230150   5.707   6.253   7.863  0.4513  1.3512  2.0893
 2839TIP3   OH230151   5.374   0.769   1.778 -0.1437  0.5711 -0.7719
 2839TIP3    H130152   5.426   0.731   1.848  2.1930  1.0235 -2.1721
 2839TIP3    H230153   5.316   0.832   1.822 -1.3084 -1.6679  1.1010
 2840TIP3   OH230154   6.697   6.407   0.452  0.4627 -0.3227  0.3312
 2840TIP3    H130155   6.686   6.371   0.364 -2.1919 -1.2237  0.9526
 2840TIP3    H230156   6.666   6.497   0.446  1.0114 -0.1379  0.1981
 2841TIP3   OH230157   3.179   5.750   8.754 -0.1593  0.5062  0.1690
 2841TIP3    H130158   3.146   5.660   8.758 -0.9317  0.7468 -0.3902
 2841TIP3    H230159   3.269   5.744   8.784 -0.7461 -0.1676  1.9378
 2842TIP3   OH230160   1.225   4.544   7.989 -0.0732  0.0280 -0.6047
 2842TIP3    H130161   1.224   4.639   8.004  0.0735 -0.2754  1.6516
 2842TIP3    H230162   1.137   4.524   7.957 -0.7866  0.6827  0.8546
 2843TIP3   OH230163   0.344   0.742   0.051  0.2720 -0.3645  0.7491
 2843TIP3    H130164   0.280   0.674   0.035 -0.4978  0.2544  1.1324
 2843TIP3    H230165   0.392   0.751  -0.032  1.4282 -2.4064  1.1357
 2844TIP3   OH230166   2.153   4.815   7.185  0.1235 -0.7738 -0.1482
 2844TIP3    H130167   2.121   4.905   7.192  3.3536  0.3783  1.6455
 2844TIP3    H230168   2.204   4.814   7.104  1.8586 -0.2726  0.8832
 2845TIP3   OH230169   5.223   3.639   1.495  0.3648 -0.0819 -0.1002
 2845TIP3    H130170   5.132   3.639   1.522 -0.4725 -1.2153 -2.6023
 2845TIP3    H230171   5.251   3.730   1.503  0.1160 -0.1699  3.7265
 2846TIP3   OH230172   4.694   2.116   0.309 -0.3817 -0.2982 -0.3128
 2846TIP3    H130173   4.676   2.171   0.385  0.7407 -1.1989  0.6233
 2846TIP3    H230174   4.747   2.044   0.342 -0.2241 -0.9469 -1.8690
 2847TIP3   OH230175   6.425   4.913   1.999  0.5454 -0.6468 -0.0560
 2847TIP3    H130176   6.412   4.997   2.043  0.9591 -0.2896 -0.5932
 2847TIP3    H230177   6.337   4.885   1.975  0.4146 -0.2845 -0.0146
 2848TIP3   OH230178   3.109   2.861   0.943  0.0368  0.4889 -0.2931
 2848TIP3    H130179   3.176   2.835   0.880 -0.8227  0.2580 -1.1314
 2848TIP3    H230180   3.036   2.801   0.927 -1.0687  1.8717 -0.6440
 2849TIP3   OH230181   1.951   1.195   1.200  0.5383  0.4227  0.3312
 2849TIP3    H130182   1.898   1.116   1.187 -1.5953  1.9342 -0.6028
 2849TIP3    H230183   1.899   1.251   1.257  1.4110  1.6905 -0.0648
 2850TIP3   OH230184   3.552   5.057   1.474  0.6065 -0.8620 -0.7023
 2850TIP3    H130185   3.500   5.048   1.394  1.6608  0.7838 -1.6221
 2850TIP3    H230186   3.544   4.972   1.518 -2.9784 -0.6375 -0.6716
 2851TIP3   OH230187   1.048   2.319   0.330  0.2052  0.5034  0.3345
 2851TIP3    H130188   0.955   2.304   0.346 -0.0835  0.2899 -1.3582
 2851TIP3    H230189   1.070   2.258   0.260  1.1546  1.8810 -0.6072
 2852TIP3   OH230190   0.243   4.231   8.386 -0.3441  0.5215 -0.5075
 2852TIP3    H130191   0.190   4.163   8.344 -1.1393  1.5297 -1.1903
 2852TIP3    H230192   0.187   4.264   8.457  0.6813 -0.6314  0.8742
 2853TIP3   OH230193   0.726   4.941   8.086 -0.1238  0.8350 -0.2491
 2853TIP3    H130194   0.761   5.030   8.093 -1.9838  1.5192  1.1954
 2853TIP3    H230195   0.734   4.904   8.173 -0.2779 -0.0579 -0.6007
 2854TIP3   OH230196   4.558   5.060   0.081 -0.3897 -0.3480 -0.1440
 2854TIP3    H130197   4.573   5.004   0.158 -0.0280  0.8622  0.6837
 2854TIP3    H230198   4.475   5.104   0.100  0.0469  0.4779 -0.1160
 2855TIP3   OH230199   2.877   2.113   2.018 -0.5827 -0.0339  0.7651
 2855TIP3    H130200   2.972   2.120   2.027 -0.4801  1.6920 -1.0423
 2855TIP3    H230201   2.848   2.202   1.996 -2.0578 -1.2785 -3.0473
 2856TIP3   OH230202   4.012   1.562   1.698 -0.9807 -0.3737 -0.1278
 2856TIP3    H130203   4.046   1.482   1.738 -2.1731 -0.2239  1.2563
 2856TIP3    H230204   4.031   1.553   1.605  1.8341 -0.7917  0.3947
 2857TIP3   OH230205   5.212   3.591   3.374  0.0147  0.1281  0.1865
 2857TIP3    H130206   5.136   3.633   3.334  0.2064 -1.0179 -1.4772
 2857TIP3    H230207   5.286   3.616   3.317  0.4660 -0.7373  0.3726
 2858TIP3   OH230208   6.530   1.016   8.038  0.1228 -0.3919  0.0078
 2858TIP3    H130209   6.474   0.964   7.979 -1.2864 -0.4454  1.3339
 2858TIP3    H230210   6.603   0.959   8.059 -1.0156 -1.6003  0.8325
 2859TIP3   OH230211   2.245   2.856   1.941 -0.0583 -1.1232 -0.4149
 2859TIP3    H130212   2.227   2.907   2.020  0.6124 -2.3105  0.5432
 2859TIP3    H230213   2.169   2.799   1.930 -0.9748  0.2938 -1.6960
 2860TIP3   OH230214   6.551   1.263   0.521  0.1972  0.3724 -0.0097
 2860TIP3    H130215   6.467   1.282   0.563 -1.1141  0.1596 -2.3559
 2860TIP3    H230216   6.570   1.342   0.471  1.8572  0.7232  1.0960
 2861TIP3   OH230217   6.624   3.827   2.509  0.4480 -0.1458  0.0761
 2861TIP3    H130218   6.667   3.864   2.587 -0.6629 -1.3619  1.3277
 2861TIP3    H230219   6.558   3.893   2.486 -0.9484 -0.8618  1.7735
 2862TIP3   OH230220   3.557   2.040   7.814  0.2959  0.5586  0.3113
 2862TIP3    H130221   3.594   1.980   7.749 -0.0393  0.7368 -0.0539
 2862TIP3    H230222   3.618   2.038   7.887  0.3151 -0.1861  0.2781
 2863TIP3   OH230223   5.651   5.995   7.624 -0.3648 -0.6328 -0.6387
 2863TIP3    H130224   5.666   6.090   7.631  1.3334 -0.8619 -0.6140
 2863TIP3    H230225   5.593   5.974   7.696 -0.2551  0.3126 -0.2647
 2864TIP3   OH230226   3.067   5.618   0.983  0.2600  0.2828  0.0205
 2864TIP3    H130227   3.009   5.643   1.055 -0.5458  0.4952 -0.6871
 2864TIP3    H230228   3.010   5.575   0.920  0.8878  0.4201 -0.6560
 2865TIP3   OH230229   1.339   5.357   2.044 -0.6069 -0.8104  0.1321
 2865TIP3    H130230   1.291   5.389   1.967 -0.6022 -0.5448  0.2388
 2865TIP3    H230231   1.271   5.321   2.101 -0.5668 -1.4058 -0.1845
 2866TIP3   OH230232   2.963   3.699   0.034  0.1711 -0.3194 -0.8749
 2866TIP3    H130233   2.999   3.743  -0.043  0.4933 -0.5945 -0.8813
 2866TIP3    H230234   3.039   3.667   0.082  0.0824  1.2636  0.4302
 2867TIP3   OH230235   0.551   4.798   2.303 -0.2652  0.2918  0.5516
 2867TIP3    H130236   0.605   4.746   2.363 -2.2698 -3.1741 -0.3825
 2867TIP3    H230237   0.594   4.789   2.218 -1.6127 -1.5899  0.0133
 2868TIP3   OH230238   6.436   5.865   7.947 -0.1332 -0.4791 -0.1959
 2868TIP3    H130239   6.456   5.831   8.035  1.1544 -0.4710 -0.4625
 2868TIP3    H230240   6.520   5.901   7.916 -1.0706  1.5425 -0.5467
 2869TIP3   OH230241   0.904   3.198   1.226 -0.3228  0.4468  0.0218
 2869TIP3    H130242   0.810   3.188   1.214 -0.1910 -0.4724 -0.3447
 2869TIP3    H230243   0.913   3.271   1.288 -1.3428 -0.6254  1.4974
 2870TIP3   OH230244   3.756   3.337   7.966  0.1044  0.2067  0.1606
 2870TIP3    H130245   3.720   3.263   7.918 -0.1105  0.9368 -0.8310
 2870TIP3    H230246   3.698   3.348   8.041  0.0679 -0.5416  0.2515
 2871TIP3   OH230247   6.422   1.734   2.363  0.1321 -0.8780  0.4965
 2871TIP3    H130248   6.404   1.642   2.383  0.3608 -1.2770 -0.9907
 2871TIP3    H230249   6.509   1.750   2.398  0.5962 -1.5965 -0.2951
 2872TIP3   OH230250   0.559   4.570   8.000  0.6573  0.3103  0.2639
 2872TIP3    H130251   0.649   4.560   8.031  1.7113  2.5703 -1.7340
 2872TIP3    H230252   0.533   4.482   7.973  2.3938 -0.3417  0.5478
 2873TIP3   OH230253   0.183   0.764   1.260 -0.2383 -0.3289 -0.2396
 2873TIP3    H130254   0.274   0.760   1.290  0.7020 -2.0521 -2.9308
 2873TIP3    H230255   0.134   0.715   1.325  1.0161 -0.6860  0.4816
 2874TIP3   OH230256   6.050   3.208   0.537 -0.7365  0.5099 -0.5497
 2874TIP3    H130257   5.989   3.273   0.503 -1.1737  1.7774  2.3565
 2874TIP3    H230258   6.136   3.239   0.511 -1.1137  0.5458 -1.7968
 2875TIP3   OH230259   1.877   4.480   2.601 -0.4448  0.3714  0.1352
 2875TIP3    H130260   1.957   4.475   2.549 -0.3934 -0.2885  0.2656
 2875TIP3    H230261   1.807   4.486   2.536 -0.3878 -0.5719 -0.0217
 2876TIP3   OH230262   4.767   1.350   0.669  0.0583 -0.0860  0.5748
 2876TIP3    H130263   4.767   1.432   0.621  0.0630 -0.4938 -0.1275
 2876TIP3    H230264   4.789   1.375   0.759  1.4064  0.5269  0.0959
 2877TIP3   OH230265   2.568   6.184   1.787  0.8734  0.0622  0.7059
 2877TIP3    H130266   2.504   6.246   1.821  0.0270 -0.3674 -0.0715
 2877TIP3    H230267   2.595   6.220   1.703 -1.4256 -1.7133 -0.9506
 2878TIP3   OH230268   2.585   4.416   6.726  0.4248  0.0582  0.1631
 2878TIP3    H130269   2.521   4.466   6.778  0.0066 -0.2771 -0.0284
 2878TIP3    H230270   2.607   4.341   6.782  0.1243 -0.1969 -0.0584
 2879TIP3   OH230271   6.784   5.090   8.371  0.0601  0.0563  0.2184
 2879TIP3    H130272   6.832   5.165   8.404  1.0276  0.2987 -1.6183
 2879TIP3    H230273   6.848   5.040   8.320 -1.3512 -0.1681 -1.4454
 2880TIP3   OH230274   3.788   6.014   0.102  0.7299  0.0327 -0.4786
 2880TIP3    H130275   3.697   6.034   0.078  0.8381  2.4021  0.7806
 2880TIP3    H230276   3.831   5.996   0.019 -0.7499 -0.4923 -1.1674
 2881TIP3   OH230277   1.416   2.280   0.107 -0.5094  0.2096  0.5282
 2881TIP3    H130278   1.506   2.249   0.102 -0.0143  1.7739 -1.7740
 2881TIP3    H230279   1.365   2.201   0.126  1.1305 -1.1182 -0.2831
 2882TIP3   OH230280   2.011   0.126   0.442 -0.5659 -0.4278  0.2727
 2882TIP3    H130281   1.919   0.105   0.462 -0.8378  0.5251  0.0916
 2882TIP3    H230282   2.024   0.212   0.481 -0.2152  0.1412 -1.0498
 2883TIP3   OH230283   1.045   2.533   8.348 -0.2028 -0.7810  0.3677
 2883TIP3    H130284   0.983   2.541   8.275  1.4431 -0.9077 -1.1058
 2883TIP3    H230285   1.012   2.459   8.400 -0.6002 -1.6617 -1.0873
 2884TIP3   OH230286   2.483   3.793   8.822  0.2295 -0.5404 -0.3207
 2884TIP3    H130287   2.512   3.810   8.911 -1.9126 -0.1114  0.3366
 2884TIP3    H230288   2.494   3.876   8.776  0.8468 -0.6299 -0.3565
 2885TIP3   OH230289   5.852   2.002   0.517  0.5361 -0.3237 -0.1193
 2885TIP3    H130290   5.892   1.943   0.453 -0.3468  0.6172 -1.5893
 2885TIP3    H230291   5.758   1.991   0.505  0.3568  0.7092  0.2050
 2886TIP3   OH230292   3.534   5.493   0.581  0.5939 -0.0762  0.0477
 2886TIP3    H130293   3.480   5.573   0.583  0.0329 -0.4032 -1.1660
 2886TIP3    H230294   3.621   5.524   0.558  0.2977  0.1661 -0.7926
 2887TIP3   OH230295   1.938   3.194   7.804  0.7370 -0.6919 -0.5797
 2887TIP3    H130296   1.876   3.239   7.747  1.2754 -0.3825 -0.9187
 2887TIP3    H230297   1.940   3.104   7.772  0.7777 -0.6015 -0.8296
 2888TIP3   OH230298   1.663   5.325   0.847  0.1088  0.3889 -0.4184
 2888TIP3    H130299   1.754   5.353   0.850 -0.4767  2.3117  1.4286
 2888TIP3    H230300   1.637   5.338   0.755  1.4221  0.6032 -0.7841
 2889TIP3   OH230301   0.623   5.305   7.033 -0.6415 -0.3453  0.1747
 2889TIP3    H130302   0.658   5.381   7.078 -1.1184 -1.5586  2.7816
 2889TIP3    H230303   0.697   5.245   7.025 -0.1615  0.4440 -2.2507
 2890TIP3   OH230304   2.079   6.550   0.167  0.5941 -0.0637 -0.4177
 2890TIP3    H130305   2.158   6.571   0.216  0.7598 -0.1296 -0.6540
 2890TIP3    H230306   2.109   6.498   0.093  0.3474  0.0268 -0.5873
 2891TIP3   OH230307   2.992   6.484   1.139 -0.3596 -0.4330  0.0221
 2891TIP3    H130308   2.955   6.535   1.067  1.6662  1.5765  0.3182
 2891TIP3    H230309   2.975   6.537   1.217 -1.1936 -1.8754  0.8733
 2892TIP3   OH230310   1.592   3.787   1.844  0.0184 -0.7002  0.5203
 2892TIP3    H130311   1.675   3.799   1.892  0.7094  0.8038 -0.9441
 2892TIP3    H230312   1.593   3.695   1.818  0.9079 -0.8678  1.0860
 2893TIP3   OH230313   3.774   4.384   1.427 -0.0992  0.4632  0.0542
 2893TIP3    H130314   3.697   4.334   1.456 -0.3941  0.6122 -0.4582
 2893TIP3    H230315   3.741   4.472   1.411  0.0902  0.4353 -0.5376
 2894TIP3   OH230316   5.423   1.158   1.045 -0.3192  0.5866  0.0933
 2894TIP3    H130317   5.460   1.094   0.983 -1.5189  0.1043 -0.1681
 2894TIP3    H230318   5.498   1.210   1.074  0.3168  0.7436 -1.6739
 2895TIP3   OH230319   2.685   4.866   0.333  0.5241 -0.1671 -0.3587
 2895TIP3    H130320   2.729   4.783   0.355  0.5894 -0.2661 -0.8534
 2895TIP3    H230321   2.751   4.933   0.349 -0.1878  0.0310  2.1770
 2896TIP3   OH230322   0.886   1.240   0.922 -0.0521  0.4324 -0.0894
 2896TIP3    H130323   0.825   1.311   0.902 -0.8268 -0.1848  0.0259
 2896TIP3    H230324   0.830   1.165   0.940  0.7616 -0.4346 -1.0363
 2897TIP3   OH230325   0.817   1.442   1.697 -0.5348 -0.3370  1.2084
 2897TIP3    H130326   0.784   1.497   1.768 -0.7295 -1.1329  1.7486
 2897TIP3    H230327   0.775   1.357   1.710 -0.7439 -0.4446  0.0086
 2898TIP3   OH230328   5.684   2.122   0.217  0.8707 -0.5153  0.4707
 2898TIP3    H130329   5.766   2.075   0.227  0.6365 -1.0104  0.0972
 2898TIP3    H230330   5.637   2.075   0.147 -0.1525 -0.8537  1.3499
 2899TIP3   OH230331   1.352   0.091   7.295 -0.2070 -0.2056  0.1106
 2899TIP3    H130332   1.375   0.178   7.327 -1.8770  0.5973 -0.7654
 2899TIP3    H230333   1.412   0.076   7.222  2.0466 -1.0711  2.0268
 2900TIP3   OH230334   6.701   3.458   1.179  0.1270  0.1232  0.1079
 2900TIP3    H130335   6.791   3.486   1.195  0.0521 -0.3924  1.5341
 2900TIP3    H230336   6.649   3.505   1.244 -1.1164  2.7672 -2.5720
 2901TIP3   OH230337   1.077   1.817   8.416  0.6731 -0.1261 -0.2708
 2901TIP3    H130338   1.009   1.767   8.372 -0.4694  2.1290 -1.2313
 2901TIP3    H230339   1.154   1.809   8.358  0.4459 -0.5500 -0.5204
 2902TIP3   OH230340   3.222   3.661   2.949 -0.1212 -0.2931 -0.6897
 2902TIP3    H130341   3.148   3.656   2.889  0.1495 -0.0697 -1.0446
 2902TIP3    H230342   3.216   3.581   3.002 -1.7324  0.6184  0.5949
 2903TIP3   OH230343   2.074   2.175   0.017 -0.3753 -0.3636  0.6490
 2903TIP3    H130344   2.019   2.097   0.014  2.4718 -2.4850  0.0213
 2903TIP3    H230345   2.048   2.225  -0.061 -0.2932 -2.1509 -0.5776
 2904TIP3   OH230346   5.134   1.879   2.425 -0.0666 -0.0696  0.2438
 2904TIP3    H130347   5.135   1.813   2.356  0.8921 -1.0193  1.1356
 2904TIP3    H230348   5.048   1.867   2.468  0.1679 -0.8777  0.5117
 2905TIP3   OH230349   3.554   5.758   0.783  0.1539 -0.6304  0.1535
 2905TIP3    H130350   3.595   5.784   0.700  1.0127  0.3569  0.8644
 2905TIP3    H230351   3.516   5.672   0.765 -1.2707  0.3353 -1.7957
 2906TIP3   OH230352   6.674   0.813   2.657 -0.1745 -0.1278 -0.5745
 2906TIP3    H130353   6.678   0.718   2.663  1.3656 -0.0133  0.7195
 2906TIP3    H230354   6.646   0.842   2.744 -0.6540  0.6065 -0.9593
 2907TIP3   OH230355   2.544   4.937   1.532 -0.1126 -0.0786 -0.0143
 2907TIP3    H130356   2.611   4.869   1.534 -1.4358 -1.4222  0.7654
 2907TIP3    H230357   2.462   4.890   1.520 -0.9149  1.5487 -1.4730
 2908TIP3   OH230358   1.234   6.116   8.152 -1.1421  0.2052  0.1133
 2908TIP3    H130359   1.258   6.189   8.094  0.8576 -1.4898 -1.3418
 2908TIP3    H230360   1.237   6.039   8.095 -1.2434 -1.2599  2.0169
 2909TIP3   OH230361   5.651   0.419   6.759 -0.5504  0.4044 -0.7031
 2909TIP3    H130362   5.665   0.348   6.696 -1.9202 -0.2381 -0.3151
 2909TIP3    H230363   5.604   0.378   6.832 -2.9371  2.0334 -1.2146
 2910TIP3   OH230364   6.106   4.197   2.601 -0.1617 -0.1184 -0.5424
 2910TIP3    H130365   6.041   4.179   2.669  0.6572 -0.2393  0.2205
 2910TIP3    H230366   6.094   4.126   2.538 -1.8693  0.7485 -1.2733
 2911TIP3   OH230367   4.578   1.731   8.182  0.6251  0.0605  0.5303
 2911TIP3    H130368   4.627   1.650   8.192 -0.0464 -0.5996 -1.0742
 2911TIP3    H230369   4.511   1.711   8.116 -1.5320  1.0316  2.2591
 2912TIP3   OH230370   5.491   3.789   2.712  0.0053  0.2371 -0.0820
 2912TIP3    H130371   5.585   3.778   2.724  0.2689  0.8118 -1.4118
 2912TIP3    H230372   5.454   3.778   2.800  1.1673 -1.2159  0.2609
 2913TIP3   OH230373   1.245   1.845   1.861 -1.3902  0.0392  0.4046
 2913TIP3    H130374   1.300   1.810   1.791 -0.2786 -1.0430  1.7660
 2913TIP3    H230375   1.188   1.773   1.887 -1.6113  0.3456  0.8022
 2914TIP3   OH230376   6.437   0.083   7.914  0.1561  0.4433  0.3560
 2914TIP3    H130377   6.394   0.114   7.835 -0.9478  1.4116  1.2986
 2914TIP3    H230378   6.459  -0.008   7.896  0.0359  0.6886 -1.0900
 2915TIP3   OH230379   3.469   5.651   1.103  0.2121  0.2372 -0.1659
 2915TIP3    H130380   3.527   5.578   1.128  0.7615 -0.0850 -2.1733
 2915TIP3    H230381   3.435   5.626   1.017 -0.5959  1.7739 -0.3272
 2916TIP3   OH230382   6.497   1.543   0.917  0.1038 -1.0965 -0.3004
 2916TIP3    H130383   6.446   1.469   0.951  1.0689 -1.1903  1.0244
 2916TIP3    H230384   6.559   1.563   0.987 -2.3896  3.3376  1.0056
 2917TIP3   OH230385   5.656   0.608   0.318  0.1133  0.0100 -0.4071
 2917TIP3    H130386   5.599   0.554   0.373 -1.7178  0.3411 -1.8881
 2917TIP3    H230387   5.726   0.549   0.290 -0.5847 -0.9541 -0.1427
 2918TIP3   OH230388   2.492   2.296   0.663 -0.2737  0.2304 -0.0614
 2918TIP3    H130389   2.576   2.341   0.655 -0.5908  0.8105 -0.1695
 2918TIP3    H230390   2.427   2.364   0.646 -0.7931  0.0003  0.9532
 2919TIP3   OH230391   2.374   1.836   8.430 -0.2380  0.0342  0.6661
 2919TIP3    H130392   2.446   1.773   8.435  0.7098  0.6741 -2.4208
 2919TIP3    H230393   2.416   1.921   8.441 -1.0721  0.3062  1.9751
 2920TIP3   OH230394   5.718   3.752   2.267 -0.9912  1.0159 -0.0889
 2920TIP3    H130395   5.689   3.794   2.348 -0.7818  0.0243  0.5197
 2920TIP3    H230396   5.707   3.658   2.284  0.6592  0.7137 -0.5845
 2921TIP3   OH230397   3.842   6.248   0.443 -0.5322  0.0822  0.8039
 2921TIP3    H130398   3.892   6.189   0.386 -0.4870  0.2626  0.6578
 2921TIP3    H230399   3.769   6.194   0.474 -0.2290 -0.1919  1.0446
 2922TIP3   OH230400   6.250   1.523   0.293  0.9726 -0.1054  0.0529
 2922TIP3    H130401   6.345   1.522   0.307  0.9456  1.1394  0.4574
 2922TIP3    H230402   6.213   1.505   0.379  0.8035 -2.2634 -0.4005
 2923TIP3   OH230403   1.760   0.535   0.561  0.6369 -0.5066  0.0975
 2923TIP3    H130404   1.758   0.477   0.486  1.7674 -0.7984  0.2774
 2923TIP3    H230405   1.804   0.485   0.630  0.4381  0.0859  0.6759
 2924TIP3   OH230406   2.336   2.227   8.386  0.2136 -0.3307 -0.1534
 2924TIP3    H130407   2.396   2.261   8.452 -0.7174  1.4128 -0.1418
 2924TIP3    H230408   2.393   2.193   8.317  1.1925 -0.7108  0.8162
 2925TIP3   OH230409   4.488   0.650   7.494  0.5670  0.0696 -0.4850
 2925TIP3    H130410   4.454   0.633   7.406 -0.2537  0.4014 -0.2331
 2925TIP3    H230411   4.524   0.565   7.521 -0.0614 -0.2948 -0.7530
 2926TIP3   OH230412   3.902   4.170   0.584  0.1945  0.1934  0.1254
 2926TIP3    H130413   3.941   4.096   0.537  2.1354  1.6177 -0.6245
 2926TIP3    H230414   3.919   4.246   0.529 -4.0292  0.9862 -0.4383
 2927TIP3   OH230415   0.083   1.292   2.188 -0.5914  0.2161 -0.7549
 2927TIP3    H130416   0.073   1.387   2.194  1.5404  0.4162  0.7573
 2927TIP3    H230417   0.035   1.258   2.263  1.2032  0.4144  0.5672
 2928TIP3   OH230418   3.038   4.520   7.941 -0.0319  0.1714  0.0947
 2928TIP3    H130419   3.000   4.475   8.016  1.0275 -1.9181 -0.5358
 2928TIP3    H230420   3.064   4.450   7.881 -0.6549  1.7462 -2.1663
 2929TIP3   OH230421   3.563   3.712   7.753 -0.3705  0.3975 -0.4943
 2929TIP3    H130422   3.618   3.709   7.831 -1.7127 -1.6570  0.4706
 2929TIP3    H230423   3.624   3.705   7.680  0.9196  2.3377  0.3014
 2930TIP3   OH230424   1.914   4.335   1.894  0.5168  0.1967  0.3167
 2930TIP3    H130425   1.877   4.274   1.958 -2.6921  2.9840  1.4439
 2930TIP3    H230426   1.864   4.320   1.814  1.0064  0.1251  0.0196
 2931TIP3   OH230427   3.735   2.495   1.621 -0.7826  0.4936 -0.1396
 2931TIP3    H130428   3.825   2.526   1.622 -0.1473 -1.2242  0.6449
 2931TIP3    H230429   3.722   2.459   1.533 -0.9686  1.3766 -0.4883
 2932TIP3   OH230430   2.211   4.411   0.372 -0.1040  0.1672  0.1249
 2932TIP3    H130431   2.225   4.375   0.460 -0.1554 -0.4221 -0.1045
 2932TIP3    H230432   2.215   4.335   0.314  1.9523  0.7609 -0.6165
 2933TIP3   OH230433   5.881   0.730   8.079 -0.1438  0.1054  0.3884
 2933TIP3    H130434   5.888   0.821   8.106  2.4850  0.5235 -1.3528
 2933TIP3    H230435   5.966   0.691   8.104  0.1156 -0.9329 -1.9131
 2934TIP3   OH230436   6.192   6.134   7.007  0.3844 -0.0052  0.5192
 2934TIP3    H130437   6.281   6.134   7.042  1.5270  0.6167 -2.1599
 2934TIP3    H230438   6.174   6.042   6.989  1.5890  0.0863 -1.3852
 2935TIP3   OH230439   2.508   0.486   7.656  0.0452  0.4668 -0.1770
 2935TIP3    H130440   2.449   0.541   7.605  0.7859  2.2500  0.7723
 2935TIP3    H230441   2.586   0.540   7.668  0.2276 -0.1847  2.0700
 2936TIP3   OH230442   3.017   2.816   1.928 -0.3492 -0.0625 -0.0605
 2936TIP3    H130443   3.024   2.759   1.851 -1.5754  0.1443 -0.3378
 2936TIP3    H230444   2.930   2.855   1.921 -0.1324  0.6303  0.9749
 2937TIP3   OH230445   5.130   1.796   0.546  0.1261  0.1741 -0.6973
 2937TIP3    H130446   5.149   1.862   0.613 -0.8747  0.3976 -0.6182
 2937TIP3    H230447   5.037   1.808   0.525  0.5260  0.4337 -2.4890
 2938TIP3   OH230448   1.456   5.668   1.000  0.3991 -0.2814 -0.4542
 2938TIP3    H130449   1.371   5.669   1.045  0.5890 -1.4332 -0.0165
 2938TIP3    H230450   1.462   5.753   0.958 -0.9025 -0.1059 -0.3450
 2939TIP3   OH230451   1.533   0.489   2.596 -0.2991 -0.0662  0.3264
 2939TIP3    H130452   1.538   0.413   2.655  1.4166  0.2105  0.5897
 2939TIP3    H230453   1.552   0.563   2.653  3.1084  0.0679 -0.7940
 2940TIP3   OH230454   6.640   1.479   2.548 -0.4662  0.1366  0.1071
 2940TIP3    H130455   6.679   1.492   2.634 -0.4845 -1.6245  0.4212
 2940TIP3    H230456   6.546   1.475   2.564 -0.5095  0.3403 -0.0836
 2941TIP3   OH230457   6.088   2.297   7.936 -0.0615  0.1896 -0.1229
 2941TIP3    H130458   6.004   2.281   7.893 -0.3137  1.5046 -0.1689
 2941TIP3    H230459   6.099   2.223   7.995 -0.2868 -1.0117 -1.5514
 2942TIP3   OH230460   4.158   2.442   0.224  0.0806  0.0686 -0.2999
 2942TIP3    H130461   4.231   2.426   0.285 -0.4817  2.2258  1.0339
 2942TIP3    H230462   4.163   2.535   0.204 -0.4481 -0.3598 -2.7380
 2943TIP3   OH230463   2.590   5.348   8.023 -0.5168  0.3319 -0.0085
 2943TIP3    H130464   2.519   5.323   7.963 -2.0436 -0.2266  1.9455
 2943TIP3    H230465   2.585   5.444   8.027 -0.3582  0.3851 -0.7665
 2944TIP3   OH230466   6.583   2.424   1.035 -0.2885 -0.3867  0.3657
 2944TIP3    H130467   6.608   2.412   0.944  0.7425 -0.6353  0.6710
 2944TIP3    H230468   6.631   2.502   1.064 -2.2900  1.0241  0.1039
 2945TIP3   OH230469   3.073   1.294   2.397 -0.5383  0.0778  0.2304
 2945TIP3    H130470   3.022   1.373   2.413 -0.7167 -0.0343  0.2245
 2945TIP3    H230471   3.013   1.222   2.418 -0.4873 -0.0598 -0.0862
 2946TIP3   OH230472   2.713   3.626   1.367 -0.2035  0.0690  0.5075
 2946TIP3    H130473   2.639   3.682   1.343  0.5217  1.0606  0.5294
 2946TIP3    H230474   2.776   3.685   1.407  0.0326 -0.9884  1.7845
 2947TIP3   OH230475   6.210   3.107   8.402 -0.4870  0.3498 -0.2771
 2947TIP3    H130476   6.125   3.149   8.410 -0.5533 -0.0138  1.1777
 2947TIP3    H230477   6.212   3.042   8.473  1.0572  0.4751 -0.1651
 2948TIP3   OH230478   6.593   4.996   8.781 -0.4778 -0.3028 -0.1361
 2948TIP3    H130479   6.563   4.966   8.695 -0.7571  1.0629 -0.5358
 2948TIP3    H230480   6.530   5.063   8.807  0.9922  1.1290 -0.0331
 2949TIP3   OH230481   2.529   1.658   2.087  0.3872  0.2397 -0.0013
 2949TIP3    H130482   2.508   1.706   2.007 -0.9412 -0.1958  0.0663
 2949TIP3    H230483   2.506   1.719   2.158  0.9724  0.3869  0.0730
 2950TIP3   OH230484   4.728   0.314   2.368 -0.5447  0.0368  1.0949
 2950TIP3    H130485   4.728   0.308   2.272  1.0821  0.0932  1.0579
 2950TIP3    H230486   4.744   0.406   2.386 -0.3391 -0.0623  1.4180
 2951TIP3   OH230487   3.511   1.061   2.259 -0.1816 -0.1147 -0.0773
 2951TIP3    H130488   3.513   0.968   2.280 -0.6816 -0.8065 -2.7014
 2951TIP3    H230489   3.424   1.076   2.223 -0.7432  1.8162  1.8585
 2952TIP3   OH230490   0.988   0.971   0.101 -0.1454  0.0814 -0.4753
 2952TIP3    H130491   0.933   0.910   0.151  0.4319  0.7752  1.0925
 2952TIP3    H230492   0.932   1.002   0.030 -1.3356 -0.2381  0.2931
 2953TIP3   OH230493   2.854   2.373   1.026  0.0129  0.3188 -0.0245
 2953TIP3    H130494   2.875   2.323   0.947  0.2875  0.0513  0.2147
 2953TIP3    H230495   2.805   2.449   0.995  1.0458  0.7779 -0.5588
 2954TIP3   OH230496   0.779   5.093   8.833 -0.1578  0.5982  0.4350
 2954TIP3    H130497   0.706   5.067   8.777 -1.1978  0.9056  1.5933
 2954TIP3    H230498   0.826   5.012   8.851 -0.7215  0.2512  0.3663
 2955TIP3   OH230499   0.299   4.686   7.410  0.0812  0.4895 -0.2273
 2955TIP3    H130500   0.366   4.626   7.442 -0.1782 -0.4927 -1.4515
 2955TIP3    H230501   0.336   4.721   7.329 -0.4403  0.7621 -0.3496
 2956TIP3   OH230502   2.509   1.854   8.708 -0.3399  0.7823 -0.3435
 2956TIP3    H130503   2.414   1.841   8.707 -0.5727  2.2830 -0.0282
 2956TIP3    H230504   2.524   1.926   8.646  0.5099  1.0097  0.1095
 2957TIP3   OH230505   3.550   2.040   2.079 -0.2713  0.2714 -0.0147
 2957TIP3    H130506   3.622   2.054   2.017 -1.2336 -0.0848 -1.2415
 2957TIP3    H230507   3.496   1.972   2.039 -1.9165  1.3273  0.3283
 2958TIP3   OH230508   1.255   5.291   0.643  0.3830 -0.6936  0.4136
 2958TIP3    H130509   1.252   5.337   0.727  0.1999  0.1286 -0.0298
 2958TIP3    H230510   1.164   5.284   0.616  0.3649 -1.7971  0.7164
 2959TIP3   OH230511   1.985   2.429   1.092 -0.3891  0.0734  0.4570
 2959TIP3    H130512   1.978   2.405   1.000 -1.6597 -3.8685  1.3562
 2959TIP3    H230513   2.073   2.465   1.102  0.2282 -0.5630 -2.0893
 2960TIP3   OH230514   1.373   3.135   0.846  0.0179  0.0973 -0.3753
 2960TIP3    H130515   1.344   3.103   0.931 -1.0522  0.6586 -0.5180
 2960TIP3    H230516   1.433   3.207   0.867  1.8256 -1.4012 -0.0726
 2961TIP3   OH230517   2.248   5.973   8.773 -0.7578  0.2221 -0.2325
 2961TIP3    H130518   2.326   6.019   8.744  0.8370 -3.0289 -1.6757
 2961TIP3    H230519   2.279   5.918   8.845 -1.1897 -2.2916 -1.8417
 2962TIP3   OH230520   3.592   5.417   7.816  0.6783  0.0002 -0.2410
 2962TIP3    H130521   3.569   5.325   7.828 -0.2133 -0.0521 -2.1215
 2962TIP3    H230522   3.582   5.456   7.903  1.6025 -1.7703  0.7031
 2963TIP3   OH230523   2.063   6.116   8.626  0.4207 -0.1466 -0.2156
 2963TIP3    H130524   2.117   6.070   8.690  0.6820  1.8861  1.1287
 2963TIP3    H230525   2.090   6.080   8.542  2.3240 -0.7299  0.5819
 2964TIP3   OH230526   3.435   4.445   0.313 -0.0824 -0.1303  0.7377
 2964TIP3    H130527   3.406   4.525   0.357 -0.2121  1.7958 -2.5200
 2964TIP3    H230528   3.354   4.405   0.282  0.1242 -0.3776  0.5194
 2965TIP3   OH230529   4.505   2.421   0.136  0.2784  1.3095  0.2048
 2965TIP3    H130530   4.577   2.398   0.077 -1.8888  0.1446 -2.1745
 2965TIP3    H230531   4.451   2.483   0.086 -0.7840  1.5622  1.6050
 2966TIP3   OH230532   6.272   4.415   7.604 -0.3893  0.7357 -0.2598
 2966TIP3    H130533   6.298   4.507   7.609 -0.6114  0.7594  0.7925
 2966TIP3    H230534   6.189   4.416   7.557  0.1142  0.9531 -1.1717
 2967TIP3   OH230535   2.496   1.811   7.413  0.1420 -0.1752  0.4354
 2967TIP3    H130536   2.573   1.840   7.365  0.6544 -1.5187  0.3953
 2967TIP3    H230537   2.502   1.715   7.413 -1.7473 -0.3353  0.0571
 2968TIP3   OH230538   5.582   4.941   0.034 -0.5658  0.1524  0.3874
 2968TIP3    H130539   5.528   5.012  -0.002 -0.0745  0.6359  0.5915
 2968TIP3    H230540   5.638   4.914  -0.038 -0.2258  0.4906  0.5227
 2969TIP3   OH230541   2.796   3.504   0.070 -0.1008 -0.2601 -0.0587
 2969TIP3    H130542   2.857   3.575   0.053  0.2921 -0.4762  0.4209
 2969TIP3    H230543   2.740   3.536   0.141 -1.1289  0.2787 -1.0883
 2970TIP3   OH230544   2.250   2.966   8.242  0.7881 -0.4253 -0.3316
 2970TIP3    H130545   2.286   3.034   8.299  1.2923 -0.9881  0.0311
 2970TIP3    H230546   2.156   2.968   8.258  0.8715 -0.2465  0.1505
 2971TIP3   OH230547   0.082   4.795   8.257  0.1654  0.3306 -0.0499
 2971TIP3    H130548   0.107   4.813   8.167  1.5212 -0.9642  0.0366
 2971TIP3    H230549   0.160   4.756   8.297 -0.7624 -0.1659  1.3642
 2972TIP3   OH230550   4.723   4.497   7.383 -0.0911 -0.6574 -0.4391
 2972TIP3    H130551   4.791   4.439   7.349 -0.4479 -0.7831 -0.9391
 2972TIP3    H230552   4.714   4.565   7.317 -1.8209 -1.6916 -1.3417
 2973TIP3   OH230553   0.884   2.273   2.098  0.1609  0.2661 -0.6470
 2973TIP3    H130554   0.888   2.342   2.032 -0.3742  0.7392 -0.1933
 2973TIP3    H230555   0.833   2.203   2.057  1.9346 -0.5081 -1.6684
 2974TIP3   OH230556   2.168   1.508   7.264  0.2623 -0.5831 -0.0859
 2974TIP3    H130557   2.189   1.602   7.264 -0.4123 -0.4186 -0.7613
 2974TIP3    H230558   2.091   1.501   7.207  1.7361 -1.8778 -2.0249
 2975TIP3   OH230559   2.438   5.926   8.049  0.5286  0.2415  0.2183
 2975TIP3    H130560   2.347   5.902   8.027  0.5768  0.0356  0.2450
 2975TIP3    H230561   2.464   5.985   7.978 -0.5221  2.4850  1.5594
 2976TIP3   OH230562   4.996   6.656   7.753  0.0564 -0.2073 -0.0838
 2976TIP3    H130563   5.028   6.579   7.706  0.2007 -0.9113  1.1299
 2976TIP3    H230564   4.994   6.629   7.845  0.8624  1.4853  0.4769
 2977TIP3   OH230565   0.717   4.335   1.849 -0.1847  0.4183  0.1625
 2977TIP3    H130566   0.713   4.248   1.810 -1.7219 -0.4919  2.1773
 2977TIP3    H230567   0.632   4.374   1.830  0.4598  1.4995 -0.6485
 2978TIP3   OH230568   3.751   1.099   1.454 -0.4207 -0.0164 -0.4117
 2978TIP3    H130569   3.688   1.046   1.503 -0.5053 -0.1146 -0.6257
 2978TIP3    H230570   3.789   1.158   1.519 -0.3547 -0.3146 -0.1790
 2979TIP3   OH230571   6.462   0.923   7.133  0.0367  0.2537 -0.5076
 2979TIP3    H130572   6.542   0.904   7.182  0.8734  4.0822 -0.1163
 2979TIP3    H230573   6.491   0.936   7.043 -0.1989  1.2015 -0.4505
 2980TIP3   OH230574   0.996   2.045   2.514 -0.0041  0.4364 -0.0628
 2980TIP3    H130575   1.046   1.966   2.496 -0.8814  0.0738 -0.9978
 2980TIP3    H230576   0.966   2.034   2.605  0.8738  0.2660  0.2107
 2981TIP3   OH230577   5.737   5.041   1.310 -0.1056  0.3909 -0.1035
 2981TIP3    H130578   5.749   5.056   1.217  1.1596  0.9254  0.1188
 2981TIP3    H230579   5.679   4.965   1.316  1.3324 -0.8637 -1.3469
 2982TIP3   OH230580   5.189   1.506   1.112 -0.3924 -0.4040 -0.5220
 2982TIP3    H130581   5.215   1.591   1.077 -1.5349  0.6216  0.9990
 2982TIP3    H230582   5.257   1.445   1.080 -0.3454  0.7519 -2.8455
 2983TIP3   OH230583   1.089   3.038   0.986 -0.4239 -0.0294  0.3436
 2983TIP3    H130584   1.162   3.021   1.045 -0.6979 -2.8843  0.0046
 2983TIP3    H230585   1.022   3.079   1.041  0.6101  0.5853  1.1691
 2984TIP3   OH230586   2.245   3.243   1.650  0.3160 -0.3218  0.4813
 2984TIP3    H130587   2.337   3.268   1.647  0.3582 -0.4256  0.8303
 2984TIP3    H230588   2.246   3.148   1.660  0.1598 -0.4192 -0.3806
 2985TIP3   OH230589   5.670   0.939   7.082  0.0025 -0.0540  0.0289
 2985TIP3    H130590   5.683   1.033   7.075  1.7263 -0.1427  1.3837
 2985TIP3    H230591   5.600   0.929   7.146  0.9987  0.3173  1.2165
 2986TIP3   OH230592   6.752   6.109   0.030 -0.6530 -0.0073  0.2247
 2986TIP3    H130593   6.812   6.055   0.081 -0.9775  0.5210  1.1949
 2986TIP3    H230594   6.757   6.073  -0.059 -2.8121 -3.4096  1.2698
 2987TIP3   OH230595   0.286   1.254   8.680  0.2127  0.5277 -0.6501
 2987TIP3    H130596   0.378   1.265   8.705 -0.3406 -0.3892  2.2136
 2987TIP3    H230597   0.265   1.164   8.705 -1.9426  1.3202  0.6861
 2988TIP3   OH230598   0.914   4.190   0.705  0.4144  0.0599  0.4312
 2988TIP3    H130599   0.867   4.216   0.785 -0.1692  0.5882 -0.0758
 2988TIP3    H230600   0.925   4.095   0.714  0.7217  0.1736  1.3320
 2989TIP3   OH230601   2.470   6.220   8.144 -0.0425  0.0293 -0.6889
 2989TIP3    H130602   2.387   6.173   8.146  0.4491 -1.0083 -2.6237
 2989TIP3    H230603   2.447   6.308   8.113 -0.7025  0.5360  1.1149
 2990TIP3   OH230604   1.310   6.254   2.792 -0.1994 -0.6382  0.1535
 2990TIP3    H130605   1.365   6.285   2.864  3.6636 -0.4768 -2.5598
 2990TIP3    H230606   1.261   6.332   2.765  0.5684  0.0644  0.7160
 2991TIP3   OH230607   5.634   4.312   2.051 -0.6610 -0.6144  0.1662
 2991TIP3    H130608   5.550   4.305   2.005  1.1241  0.3573 -3.6302
 2991TIP3    H230609   5.679   4.229   2.030  0.3274 -0.0065 -0.1896
 2992TIP3   OH230610   1.890   0.227   1.253 -0.2933  0.4053  0.1099
 2992TIP3    H130611   1.952   0.298   1.239  1.2331  0.1537  4.1228
 2992TIP3    H230612   1.830   0.260   1.320  0.2054 -1.7944  1.7885
 2993TIP3   OH230613   3.644   3.163   7.789  0.1048 -0.5103  0.5028
 2993TIP3    H130614   3.585   3.088   7.779  0.2966 -0.6404  0.3309
 2993TIP3    H230615   3.628   3.216   7.711  0.0615 -0.4363  0.5616
 2994TIP3   OH230616   0.373   4.694   2.731 -0.0990  0.5232  0.1802
 2994TIP3    H130617   0.457   4.655   2.757 -0.5512 -0.3581  0.3641
 2994TIP3    H230618   0.308   4.632   2.763 -0.9207  1.9471  1.4083
 2995TIP3   OH230619   3.291   2.212   0.230 -0.2249 -0.2040  0.4784
 2995TIP3    H130620   3.262   2.224   0.320 -1.4470 -0.9554  0.2120
 2995TIP3    H230621   3.213   2.180   0.184  0.2007  0.7469 -0.9833
 2996TIP3   OH230622   3.045   3.266   2.161 -0.4615  0.1363  0.9487
 2996TIP3    H130623   3.096   3.261   2.242 -0.4712 -0.0775  0.9413
 2996TIP3    H230624   3.073   3.190   2.110  2.0478  2.0061 -0.7168
 2997TIP3   OH230625   0.300   4.667   0.375 -0.0139 -0.0729  1.0276
 2997TIP3    H130626   0.394   4.684   0.370 -0.4031  2.1330  0.2096
 2997TIP3    H230627   0.272   4.714   0.454 -0.8285  1.6580 -0.2355
 2998TIP3   OH230628   1.349   3.043   1.117 -0.1804  0.2318  0.2473
 2998TIP3    H130629   1.333   2.964   1.170 -1.1478 -0.2567 -0.7290
 2998TIP3    H230630   1.390   3.105   1.178  0.5319 -0.9898  1.0504
 2999TIP3   OH230631   1.607   5.299   1.967 -0.1552 -0.4207 -0.1883
 2999TIP3    H130632   1.520   5.331   1.992 -0.2279 -0.4401 -0.4189
 2999TIP3    H230633   1.663   5.322   2.041 -0.1995  0.2771 -0.3676
 3000TIP3   OH230634   3.771   0.170   2.132 -0.0937 -0.5123  0.4211
 3000TIP3    H130635   3.696   0.189   2.075  0.2180 -0.3503  0.0632
 3000TIP3    H230636   3.801   0.084   2.104 -0.0746 -0.5275  0.4890
 3001TIP3   OH230637   5.675   4.343   6.460  0.0008 -0.4600 -0.2069
 3001TIP3    H130638   5.633   4.420   6.499  0.3061 -0.1419 -0.4950
 3001TIP3    H230639   5.618   4.270   6.483 -0.2518 -0.1565  0.1376
 3002TIP3   OH230640   0.501   4.308   0.952  0.4649 -0.3456 -0.0557
 3002TIP3    H130641   0.461   4.393   0.967  0.3823 -0.0493 -1.7771
 3002TIP3    H230642   0.456   4.249   1.012 -0.4573  0.5514  0.1540
 3003TIP3   OH230643   4.919   0.138   6.772  0.1486  0.5507  0.8907
 3003TIP3    H130644   4.980   0.185   6.715 -0.9273  2.0613  0.9145
 3003TIP3    H230645   4.879   0.072   6.716  1.2151  0.0663  0.6777
 3004TIP3   OH230646   1.278   3.213   1.519 -0.1657 -0.1074  0.3433
 3004TIP3    H130647   1.337   3.264   1.574 -0.2247  0.2125  0.1120
 3004TIP3    H230648   1.300   3.239   1.429 -0.9631  0.3509  0.2742
 3005TIP3   OH230649   5.809   3.162   8.261  0.2482 -0.3597 -0.6879
 3005TIP3    H130650   5.765   3.222   8.321  0.7897 -0.3306 -0.3066
 3005TIP3    H230651   5.873   3.217   8.215 -0.2903 -0.3420 -1.4417
 3006TIP3   OH230652   4.548   0.907   7.292  0.1650  0.0097  0.2496
 3006TIP3    H130653   4.548   0.935   7.200  0.4239  1.2112  0.5975
 3006TIP3    H230654   4.478   0.957   7.333  0.3472 -0.1826  0.8050
 3007TIP3   OH230655   3.089   4.951   1.439  0.0338 -0.7289 -0.3323
 3007TIP3    H130656   3.043   5.034   1.424  1.5749  0.0965 -0.7356
 3007TIP3    H230657   3.062   4.924   1.527 -2.0907 -0.9067 -0.9840
 3008TIP3   OH230658   0.513   5.994   8.607  0.2678 -0.0174  0.1452
 3008TIP3    H130659   0.506   6.027   8.517  0.3989  0.9431  0.4836
 3008TIP3    H230660   0.480   6.065   8.662 -0.5826 -0.9035  0.8211
 3009TIP3   OH230661   1.879   4.907   7.869 -0.4444 -0.6514 -0.2008
 3009TIP3    H130662   1.815   4.868   7.810  0.2130 -0.5609 -0.9925
 3009TIP3    H230663   1.964   4.881   7.834  0.0685  2.0837 -1.2576
 3010TIP3   OH230664   4.829   1.236   1.019  0.3722  0.3077  0.5291
 3010TIP3    H130665   4.921   1.227   0.994  0.4192 -1.2042  1.1414
 3010TIP3    H230666   4.830   1.243   1.114 -0.1482  0.2583  0.5439
 3011TIP3   OH230667   5.684   1.191   7.141  0.0065 -0.8004 -0.2464
 3011TIP3    H130668   5.634   1.251   7.086 -0.5993 -2.3132 -1.4023
 3011TIP3    H230669   5.656   1.211   7.230  0.7752  1.4795 -0.4522
 3012TIP3   OH230670   1.409   0.113   0.843  0.0716 -0.3217  0.9214
 3012TIP3    H130671   1.352   0.188   0.860 -0.1382 -0.2595  0.0121
 3012TIP3    H230672   1.480   0.121   0.907  0.9675  1.6057 -0.2109
 3013TIP3   OH230673   0.254   1.083   1.628 -1.1393 -0.0522  0.3715
 3013TIP3    H130674   0.305   1.149   1.582  2.5580 -1.8193  1.5449
 3013TIP3    H230675   0.173   1.128   1.652  1.1587  4.1931  1.2533
 3014TIP3   OH230676   2.411   2.322   7.949  0.2099 -0.1039 -0.3279
 3014TIP3    H130677   2.404   2.295   7.858 -0.1996 -1.3388  0.0518
 3014TIP3    H230678   2.457   2.406   7.946  2.3328 -1.2339 -1.5114
 3015TIP3   OH230679   0.740   4.464   7.382 -0.1126  0.3184 -0.2432
 3015TIP3    H130680   0.670   4.511   7.338  0.2971  1.7547  0.5686
 3015TIP3    H230681   0.818   4.484   7.330  0.1370  0.8955  0.3467
 3016TIP3   OH230682   4.298   1.608   7.547  0.2523  0.2417  0.6516
 3016TIP3    H130683   4.283   1.514   7.563  2.0140  0.1756  2.2803
 3016TIP3    H230684   4.311   1.615   7.453  0.2745 -1.1752  0.5316
 3017TIP3   OH230685   1.630   5.814   0.761 -0.3782 -0.2413 -0.0014
 3017TIP3    H130686   1.699   5.752   0.782  0.3790  0.2759 -0.9132
 3017TIP3    H230687   1.653   5.893   0.809 -1.0846 -0.4843  0.7740
 3018TIP3   OH230688   6.012   1.720   7.083  0.0392 -0.4951 -0.6357
 3018TIP3    H130689   6.098   1.692   7.051  1.1392  1.0994  0.7482
 3018TIP3    H230690   5.969   1.639   7.108  1.4395 -1.2917 -0.6684
 3019TIP3   OH230691   4.055   5.431   0.032  0.5898 -0.2725  0.1792
 3019TIP3    H130692   4.091   5.373  -0.035 -0.6114 -1.3345  0.4131
 3019TIP3    H230693   4.127   5.489   0.054  0.9424  0.2763 -2.1954
 3020TIP3   OH230694   4.486   0.029   8.044  0.1071  0.4092  0.1377
 3020TIP3    H130695   4.525  -0.052   8.010 -0.2474  0.5153 -0.5404
 3020TIP3    H230696   4.399   0.003   8.074 -0.8564  0.9037 -2.0283
 3021TIP3   OH230697   5.970   0.125   1.993 -0.0996  0.1491  0.0525
 3021TIP3    H130698   6.029   0.108   1.920 -1.0162  0.7582 -0.8564
 3021TIP3    H230699   6.002   0.206   2.033  0.8429 -0.5747  0.8120
 3022TIP3   OH230700   3.802   3.303   2.600 -0.2755 -0.4564  0.4810
 3022TIP3    H130701   3.850   3.238   2.652 -1.3210 -1.0069  0.7955
 3022TIP3    H230702   3.710   3.279   2.612 -0.7171  1.3404  0.9439
 3023TIP3   OH230703   3.826   5.130   7.917  0.6469 -0.1023 -0.1500
 3023TIP3    H130704   3.829   5.160   8.008  1.3473  2.2401 -0.8716
 3023TIP3    H230705   3.850   5.207   7.866 -1.3059 -0.8966 -2.4353
 3024TIP3   OH230706   0.980   5.734   7.986 -0.0157  0.1672 -0.5118
 3024TIP3    H130707   1.071   5.739   7.957 -0.0371  0.8629 -0.4845
 3024TIP3    H230708   0.971   5.806   8.050 -1.1793  1.6124 -2.1933
 3025TIP3   OH230709   4.906   3.222   0.302 -0.0384  0.3523 -0.3167
 3025TIP3    H130710   4.950   3.172   0.371  1.2793 -0.2092 -1.5196
 3025TIP3    H230711   4.819   3.241   0.338 -0.0284 -1.4648  0.8058
 3026TIP3   OH230712   5.316   2.362   1.942 -0.4262 -0.6387  0.9491
 3026TIP3    H130713   5.332   2.431   1.877  1.2851 -0.4205  1.5552
 3026TIP3    H230714   5.250   2.306   1.901  0.6116 -0.5265 -1.0188
 3027TIP3   OH230715   2.092   5.658   8.828 -0.0183  0.2080  0.4034
 3027TIP3    H130716   2.111   5.712   8.751 -2.8660  0.1924 -0.4203
 3027TIP3    H230717   2.074   5.571   8.793 -0.3747 -0.0455  1.1888
 3028TIP3   OH230718   6.814   1.532   2.327  0.1815 -0.4975  0.6972
 3028TIP3    H130719   6.855   1.618   2.337  1.5313 -0.9471 -0.6174
 3028TIP3    H230720   6.757   1.523   2.403 -0.6220  1.8993  0.4589
 3029TIP3   OH230721   6.226   5.321   1.616  0.5280  0.4956  0.0065
 3029TIP3    H130722   6.140   5.278   1.609  0.3386  0.9640 -0.6176
 3029TIP3    H230723   6.248   5.315   1.709 -0.8967  1.7142  0.4657
 3030TIP3   OH230724   0.111   0.503   1.397  0.3022 -0.2589  0.0068
 3030TIP3    H130725   0.073   0.459   1.321 -0.2128 -0.2101  0.2342
 3030TIP3    H230726   0.130   0.433   1.459  1.0722 -0.3413 -0.3081
 3031TIP3   OH230727   5.504   2.213   7.609 -0.0615 -0.9083  0.3971
 3031TIP3    H130728   5.464   2.126   7.603 -0.6170 -0.5621 -2.7929
 3031TIP3    H230729   5.597   2.198   7.592 -0.3361 -0.8347 -1.3770
 3032TIP3   OH230730   2.782   6.721   7.949 -0.1745 -0.0910  0.1751
 3032TIP3    H130731   2.857   6.774   7.977 -0.0874 -0.2504  0.2486
 3032TIP3    H230732   2.711   6.747   8.008 -0.2732  0.3105 -0.1183
 3033TIP3   OH230733   0.870   4.840   1.213 -0.4646  0.2207  0.0165
 3033TIP3    H130734   0.880   4.776   1.143  1.7149  1.8285 -1.2840
 3033TIP3    H230735   0.853   4.923   1.168 -1.2772  0.9327  1.5356
 3034TIP3   OH230736   0.966   3.011   0.073  0.5613 -0.4413  0.1206
 3034TIP3    H130737   0.932   2.949   0.138 -0.1251  1.2314  1.4600
 3034TIP3    H230738   0.963   2.964  -0.010  2.5076 -3.0878  1.3980
 3035TIP3   OH230739   4.425   6.184   2.259  0.4916  0.0838 -0.2796
 3035TIP3    H130740   4.419   6.101   2.305 -0.0343  0.3682  0.1809
 3035TIP3    H230741   4.354   6.237   2.295  1.9082  1.3860  0.7255
 3036TIP3   OH230742   2.596   6.385   3.124 -0.4851  0.3763  0.0147
 3036TIP3    H130743   2.521   6.389   3.183  0.0336 -0.7706  0.7945
 3036TIP3    H230744   2.559   6.392   3.036 -1.3184  1.5683  0.4518
 3037TIP3   OH230745   4.957   2.659   0.885  0.2787  0.5000  0.0941
 3037TIP3    H130746   4.867   2.690   0.900  0.1122  0.4992 -0.8280
 3037TIP3    H230747   4.976   2.684   0.795  1.2864  0.6711  0.3432
 3038TIP3   OH230748   2.954   1.388   7.706  0.1078  0.0378  0.2532
 3038TIP3    H130749   3.000   1.470   7.723  1.2191  0.5936 -4.0711
 3038TIP3    H230750   2.887   1.411   7.641 -0.3586 -2.2782 -0.1957
 3039TIP3   OH230751   2.420   1.444   1.686 -0.0881  0.7605 -0.0428
 3039TIP3    H130752   2.432   1.401   1.601  1.3073  1.5457 -0.2746
 3039TIP3    H230753   2.493   1.413   1.739 -0.1538  1.3570  0.4060
 3040TIP3   OH230754   3.813   3.140   1.510 -0.8119 -0.0116  0.5597
 3040TIP3    H130755   3.826   3.046   1.524 -0.1726  0.2485  1.8412
 3040TIP3    H230756   3.861   3.182   1.581 -1.5075  1.2818  0.2977
 3041TIP3   OH230757   1.436   3.309   1.718 -0.5573  0.5997  0.6715
 3041TIP3    H130758   1.430   3.396   1.678  0.1875 -0.2481 -1.4177
 3041TIP3    H230759   1.437   3.326   1.813 -1.3259  2.7769  0.3487
 3042TIP3   OH230760   3.179   0.055   2.909  0.4409  0.4630 -0.0974
 3042TIP3    H130761   3.270   0.083   2.918  0.4289  1.1587 -1.7826
 3042TIP3    H230762   3.185  -0.030   2.865  0.2984  0.4340 -0.0597
 3043TIP3   OH230763   1.837   5.743   8.570 -0.5526  0.2271  0.3703
 3043TIP3    H130764   1.921   5.789   8.567 -0.4893  0.0931 -2.3203
 3043TIP3    H230765   1.860   5.656   8.603  0.3812  0.1959 -0.3115
 3044TIP3   OH230766   1.158   2.585   0.833  0.2072 -0.7175  0.4510
 3044TIP3    H130767   1.133   2.649   0.899  3.9951  3.1105 -1.3708
 3044TIP3    H230768   1.203   2.516   0.883 -1.2988 -0.4985  2.2096
 3045TIP3   OH230769   6.751   4.870   7.475  0.2886  0.2306  0.3417
 3045TIP3    H130770   6.750   4.774   7.472  0.5849  0.2214  0.5007
 3045TIP3    H230771   6.683   4.892   7.539  0.8036  0.0948  0.9431
 3046TIP3   OH230772   3.170   0.051   1.278 -0.7232 -0.6029 -0.3504
 3046TIP3    H130773   3.120   0.122   1.318  1.1197  0.8179 -0.4473
 3046TIP3    H230774   3.189  -0.009   1.351  0.8275  0.9175  0.5844
 3047TIP3   OH230775   1.964   6.482   0.957  0.3489  1.0255 -0.0649
 3047TIP3    H130776   2.055   6.472   0.929  0.6286  1.6734  0.5762
 3047TIP3    H230777   1.923   6.399   0.933  1.4857  0.0880  1.0706
 3048TIP3   OH230778   3.547   1.911   6.980  0.2743 -0.1741  0.4057
 3048TIP3    H130779   3.589   1.836   7.021 -1.2027 -0.1723  2.0247
 3048TIP3    H230780   3.463   1.920   7.025 -0.4801  1.2018 -1.1514
 3049TIP3   OH230781   2.189   4.378   7.951 -0.8689  0.1929  0.3900
 3049TIP3    H130782   2.157   4.428   7.876  1.6773 -1.2032 -1.8188
 3049TIP3    H230783   2.141   4.296   7.948 -1.5053  0.5304  0.9797
 3050TIP3   OH230784   3.917   3.215   7.475  0.3110 -0.0409  0.2876
 3050TIP3    H130785   3.885   3.224   7.385  1.0585  1.6075  0.1467
 3050TIP3    H230786   3.882   3.292   7.520  1.3937  0.0857  0.9390
 3051TIP3   OH230787   2.049   0.326   1.551 -0.4747  0.1387 -0.2187
 3051TIP3    H130788   2.118   0.300   1.612 -0.7821 -0.3537 -0.0705
 3051TIP3    H230789   2.081   0.300   1.465 -0.2173  0.4631 -0.2244
 3052TIP3   OH230790   1.815   3.100   1.552 -0.0665  0.6411 -0.7549
 3052TIP3    H130791   1.848   3.186   1.580 -1.8551  1.7252 -1.7783
 3052TIP3    H230792   1.776   3.063   1.632 -0.7189  1.5182 -0.6458
 3053TIP3   OH230793   0.638   1.167   0.306 -0.9174  0.2625  0.8509
 3053TIP3    H130794   0.607   1.240   0.254 -2.2488  0.5037  1.9195
 3053TIP3    H230795   0.733   1.180   0.312 -0.7771  0.4076 -1.1684
 3054TIP3   OH230796   2.650   3.986   0.448 -0.0736 -0.1266  0.5382
 3054TIP3    H130797   2.579   3.996   0.511  0.2211  1.7523  0.6163
 3054TIP3    H230798   2.691   3.903   0.471 -0.5222  0.0947  2.2542
 3055TIP3   OH230799   2.442   5.913   0.923 -0.0729 -0.1152  0.0189
 3055TIP3    H130800   2.446   5.872   0.837 -1.1297 -0.5263  0.1441
 3055TIP3    H230801   2.363   5.968   0.919  1.2690  1.8947 -0.1348
 3056TIP3   OH230802   5.576   2.423   7.468 -0.4869 -0.4421  0.5205
 3056TIP3    H130803   5.499   2.476   7.448 -1.7993 -2.4277  0.0155
 3056TIP3    H230804   5.540   2.341   7.502  1.0113 -3.5143 -4.2911
 3057TIP3   OH230805   2.270   6.213   0.694 -0.5747  0.1491  0.3839
 3057TIP3    H130806   2.243   6.171   0.776 -1.6356 -1.1095 -0.5627
 3057TIP3    H230807   2.333   6.152   0.655  1.1442  1.4779  0.9522
 3058TIP3   OH230808   2.524   4.971   1.158  0.4051  0.3922  0.2436
 3058TIP3    H130809   2.592   4.993   1.221 -0.1781  1.9643  0.3632
 3058TIP3    H230810   2.568   4.917   1.093  1.0788 -1.0364  1.8094
 3059TIP3   OH230811   5.447   4.182   6.529  0.3432 -0.7631 -0.4382
 3059TIP3    H130812   5.424   4.102   6.576 -0.4701  0.1996  0.8776
 3059TIP3    H230813   5.377   4.244   6.551  1.4911  0.6360 -0.5469
 3060TIP3   OH230814   2.445   5.623   7.231 -0.1986 -0.0857  0.2221
 3060TIP3    H130815   2.438   5.701   7.176  0.7419  0.7810  1.2896
 3060TIP3    H230816   2.457   5.551   7.169 -0.4777  0.6872 -0.7503
 3061TIP3   OH230817   6.585   0.129   0.158 -0.0052 -0.0952 -0.6544
 3061TIP3    H130818   6.667   0.178   0.159  0.8051 -1.2604  2.7070
 3061TIP3    H230819   6.611   0.037   0.154 -1.3129 -0.4444 -2.3243
 3062TIP3   OH230820   2.175   0.842   0.915 -0.1313 -0.6008 -0.2988
 3062TIP3    H130821   2.216   0.771   0.964  2.5092 -0.5014 -2.1916
 3062TIP3    H230822   2.131   0.895   0.982  0.0224 -2.5638  1.4478
 3063TIP3   OH230823   4.937   5.342   0.174 -0.1639  0.0351  0.0038
 3063TIP3    H130824   4.916   5.275   0.110  1.0981  1.0199 -1.4998
 3063TIP3    H230825   4.906   5.424   0.136  1.0008  0.6993  0.4075
 3064TIP3   OH230826   0.897   3.256   8.857  0.1774 -0.1764  0.3220
 3064TIP3    H130827   0.924   3.167   8.882  0.8783 -0.1127 -0.1794
 3064TIP3    H230828   0.963   3.284   8.793  1.5401  1.7119  2.3999
 3065TIP3   OH230829   1.690   6.280   0.736 -0.0214 -0.2020 -0.0148
 3065TIP3    H130830   1.712   6.350   0.674 -2.5748 -0.2560 -1.0675
 3065TIP3    H230831   1.630   6.321   0.798  1.0000 -0.6684  1.3465
 3066TIP3   OH230832   2.535   2.832   7.787  0.1556  0.1820 -0.4321
 3066TIP3    H130833   2.551   2.925   7.777  0.7775  0.3857  1.8460
 3066TIP3    H230834   2.476   2.809   7.716 -0.3684  2.4063 -0.7627
 3067TIP3   OH230835   4.663   1.415   1.212  0.3151  0.3987 -0.3770
 3067TIP3    H130836   4.604   1.449   1.280 -0.9247 -1.9159 -0.2033
 3067TIP3    H230837   4.725   1.360   1.260  0.6913  0.3355 -0.9277
 3068TIP3   OH230838   3.985   0.418   0.499  0.4683  0.2629 -0.9724
 3068TIP3    H130839   3.991   0.501   0.545 -0.0109  0.2795 -0.9376
 3068TIP3    H230840   3.956   0.355   0.565 -1.4167  0.5237 -1.4921
 3069TIP3   OH230841   5.023   6.019   8.519 -0.5079 -0.1600  0.3465
 3069TIP3    H130842   5.067   5.936   8.500 -0.3151  0.0466 -0.1181
 3069TIP3    H230843   5.000   6.013   8.612 -1.3294 -1.1133  0.0945
 3070TIP3   OH230844   4.594   6.248   2.013  0.0799  0.1420 -0.1180
 3070TIP3    H130845   4.672   6.293   2.044 -0.1920  1.8064 -1.6551
 3070TIP3    H230846   4.534   6.249   2.088  0.5377  1.3019  0.2565
 3071TIP3   OH230847   4.866   0.988   1.308 -1.0113 -0.3032 -0.3349
 3071TIP3    H130848   4.793   0.937   1.344 -2.6569 -0.2269 -3.2272
 3071TIP3    H230849   4.852   0.985   1.213  1.8815  1.1015 -0.8994
 3072TIP3   OH230850   0.641   1.572   2.760  0.2543 -0.1915  0.0689
 3072TIP3    H130851   0.680   1.497   2.805 -0.3765 -0.0728  0.8397
 3072TIP3    H230852   0.603   1.625   2.831  2.0882  1.7058 -0.2671
 3073TIP3   OH230853   5.350   3.619   8.234 -0.0010 -0.5409 -0.5615
 3073TIP3    H130854   5.324   3.603   8.143  0.6051 -1.4354 -0.5914
 3073TIP3    H230855   5.268   3.629   8.282 -0.3448 -1.1210 -1.0290
 3074TIP3   OH230856   6.456   4.298   8.812 -0.5772 -0.6495 -0.3832
 3074TIP3    H130857   6.435   4.312   8.719  0.3453 -0.0082 -0.5082
 3074TIP3    H230858   6.378   4.327   8.859  0.1209  2.1681 -0.8003
 3075TIP3   OH230859   5.595   0.532   0.799  0.1854 -0.2121  0.1080
 3075TIP3    H130860   5.618   0.592   0.728  0.2624 -0.7313 -0.3078
 3075TIP3    H230861   5.500   0.526   0.796  0.2857 -1.5078 -1.0092
 3076TIP3   OH230862   4.715   1.686   2.249  0.2944  0.7733  0.2296
 3076TIP3    H130863   4.677   1.631   2.181  1.1496  0.7428 -0.2486
 3076TIP3    H230864   4.642   1.737   2.283 -0.1688  0.7528 -0.6865
 3077TIP3   OH230865   1.137   5.126   1.149 -0.4838  0.3720  0.1150
 3077TIP3    H130866   1.182   5.090   1.226 -1.9896 -0.9965  0.4154
 3077TIP3    H230867   1.186   5.092   1.075  0.3848  0.8688  0.4519
 3078TIP3   OH230868   1.130   4.650   1.102 -0.5365 -0.3854  0.2066
 3078TIP3    H130869   1.099   4.670   1.014 -0.6373  1.0235  0.5508
 3078TIP3    H230870   1.085   4.712   1.159  2.4536  1.4135  0.8197
 3079TIP3   OH230871   4.293   0.888   1.868 -0.6227  0.3885 -0.7458
 3079TIP3    H130872   4.299   0.800   1.831  0.9578  0.2549 -0.2247
 3079TIP3    H230873   4.316   0.877   1.960  1.0016  1.5255 -0.9783
 3080TIP3   OH230874   3.173   6.637   7.732  0.3408 -0.0159 -0.1737
 3080TIP3    H130875   3.216   6.655   7.648 -0.1434  0.6793 -0.2805
 3080TIP3    H230876   3.124   6.556   7.716  1.6772 -0.8939 -0.0114
 3081TIP3   OH230877   1.643   4.514   1.515  0.2734 -0.3355  0.9587
 3081TIP3    H130878   1.635   4.426   1.481  1.9133 -0.3354  0.4871
 3081TIP3    H230879   1.640   4.571   1.438  1.4748 -0.1633  1.0130
 3082TIP3   OH230880   3.167   0.327   1.664 -0.2029 -0.4578  0.8050
 3082TIP3    H130881   3.242   0.385   1.679  0.2328 -0.3158 -1.6370
 3082TIP3    H230882   3.102   0.357   1.728  1.3093  0.2715  2.1092
 3083TIP3   OH230883   4.031   0.052   7.813  0.1067  0.0686 -0.0700
 3083TIP3    H130884   4.064   0.050   7.723  0.3280 -0.8354  0.0267
 3083TIP3    H230885   3.943   0.015   7.807 -0.4420  1.3088 -0.1229
 3084TIP3   OH230886   3.774   6.322   2.109  0.5623  0.0873  0.8524
 3084TIP3    H130887   3.808   6.309   2.020 -1.4394 -1.9893  0.2902
 3084TIP3    H230888   3.837   6.276   2.165 -0.4232 -2.4688 -0.0165
 3085TIP3   OH230889   3.400   4.206   8.373 -0.4869 -0.3192 -0.6154
 3085TIP3    H130890   3.481   4.218   8.323 -0.4478  2.6705  0.0002
 3085TIP3    H230891   3.330   4.229   8.313 -0.6313  0.2809 -0.2346
 3086TIP3   OH230892   4.576   3.921   0.944  0.0671  0.2073 -0.4741
 3086TIP3    H130893   4.659   3.916   0.990 -0.7908  0.2762  1.1726
 3086TIP3    H230894   4.548   4.012   0.955 -0.4408  0.0691 -0.5903
 3087TIP3   OH230895   5.631   1.396   0.802 -0.3713  0.4630 -0.2359
 3087TIP3    H130896   5.661   1.365   0.717 -0.1376  0.1759 -0.0499
 3087TIP3    H230897   5.557   1.453   0.782 -0.7810 -0.1792 -0.5834
 3088TIP3   OH230898   4.652   3.253   0.050 -0.1463 -0.4305  0.1306
 3088TIP3    H130899   4.623   3.286  -0.035 -1.8334  1.1272  1.2428
 3088TIP3    H230900   4.726   3.309   0.074 -0.7078  0.2028  0.4004
 3089TIP3   OH230901   3.712   1.465   2.880  0.2524  0.4870  0.0496
 3089TIP3    H130902   3.757   1.485   2.798  0.0371  0.3025 -0.1157
 3089TIP3    H230903   3.706   1.369   2.881 -0.7153  0.5353 -0.2518
 3090TIP3   OH230904   4.539   4.530   0.458 -0.1034 -0.5562  0.3425
 3090TIP3    H130905   4.569   4.584   0.532 -0.3739 -1.5176  1.1810
 3090TIP3    H230906   4.507   4.593   0.394  1.5630  0.3914  0.3831
 3091TIP3   OH230907   2.991   4.606   0.607 -0.2704 -0.0462  0.5818
 3091TIP3    H130908   3.038   4.529   0.574  0.5238  1.5745 -2.4548
 3091TIP3    H230909   3.060   4.663   0.642 -0.7014 -0.0710  1.5162
 3092TIP3   OH230910   0.700   2.011   3.196 -0.3754 -0.7122 -0.1914
 3092TIP3    H130911   0.756   1.965   3.259 -0.4891 -2.0467 -1.0108
 3092TIP3    H230912   0.744   1.998   3.112 -0.5990  0.4219 -0.4923
 3093TIP3   OH230913   3.953   0.677   0.961 -0.0774 -0.2156  0.1829
 3093TIP3    H130914   3.938   0.696   0.868 -0.8335  0.7312  0.4851
 3093TIP3    H230915   3.958   0.763   1.003 -0.0157 -0.6395  1.0693
 3094TIP3   OH230916   2.836   5.883   7.174 -0.0491  0.1132  0.3419
 3094TIP3    H130917   2.775   5.882   7.100  1.0354  1.1812 -0.6208
 3094TIP3    H230918   2.902   5.948   7.149  0.9819 -0.3487  1.7510
 3095TIP3   OH230919   6.513   6.026   2.014  0.2455 -0.2288 -0.3419
 3095TIP3    H130920   6.569   6.027   1.936  0.8062  1.3173  0.0520
 3095TIP3    H230921   6.540   5.947   2.061  0.8437 -0.4623 -1.0541
 3096TIP3   OH230922   5.635   2.725   0.092  0.2948  0.1246  0.0322
 3096TIP3    H130923   5.602   2.640   0.064  1.1911  0.4000 -2.1183
 3096TIP3    H230924   5.558   2.780   0.100 -0.0544  0.2277 -2.9305
 3097TIP3   OH230925   5.867   0.082   6.909 -0.0149 -0.3738  0.1232
 3097TIP3    H130926   5.817   0.163   6.916 -0.3806  0.1400 -4.6853
 3097TIP3    H230927   5.802   0.013   6.911  0.0121 -0.3796  1.5741
 3098TIP3   OH230928   3.238   1.364   0.845  1.1716  0.5147  0.0308
 3098TIP3    H130929   3.331   1.358   0.862  1.5352 -3.1744 -2.0846
 3098TIP3    H230930   3.197   1.307   0.910  1.1114 -2.0667 -2.0657
 3099TIP3   OH230931   5.642   2.388   8.089 -0.4556  0.3685  0.3222
 3099TIP3    H130932   5.642   2.482   8.070 -0.5378  0.5915  1.3776
 3099TIP3    H230933   5.557   2.358   8.058 -0.1472  0.4872 -0.6900
 3100TIP3   OH230934   3.720   2.480   0.065 -0.0643  0.6018  0.0830
 3100TIP3    H130935   3.659   2.412   0.091 -1.0127  0.4873 -2.2036
 3100TIP3    H230936   3.696   2.556   0.118 -0.1027 -0.3413  1.4424
 3101TIP3   OH230937   4.984   3.173   1.052  0.1638 -0.0913 -0.5331
 3101TIP3    H130938   4.955   3.098   1.000  0.7044  0.7668 -2.1242
 3101TIP3    H230939   4.941   3.248   1.012 -0.0109  0.5106  0.7573
 3102TIP3   OH230940   3.953   0.994   7.951 -0.0926 -0.1378  0.5575
 3102TIP3    H130941   4.003   1.065   7.992 -2.1500  1.7717 -0.0645
 3102TIP3    H230942   3.996   0.980   7.867  0.2998  0.4339  0.6544
 3103TIP3   OH230943   6.414   6.642   2.431 -0.1112  0.6025  0.3319
 3103TIP3    H130944   6.345   6.636   2.365 -1.3948  0.5666  1.6200
 3103TIP3    H230945   6.481   6.696   2.391 -0.3004 -0.4117 -1.4471
 3104TIP3   OH230946   0.599   6.694   7.540 -0.0537 -0.0720 -0.3626
 3104TIP3    H130947   0.677   6.742   7.512  1.1131 -1.3357  0.5980
 3104TIP3    H230948   0.558   6.665   7.458  0.2773  0.9125 -0.8884
 3105TIP3   OH230949   4.210   2.507   2.152  0.2407 -0.2960  0.2362
 3105TIP3    H130950   4.268   2.467   2.218  0.8938  0.0073 -0.1436
 3105TIP3    H230951   4.134   2.449   2.148 -0.7542  0.6879  2.6813
 3106TIP3   OH230952   5.225   0.149   1.918  0.1536 -0.0552 -0.0141
 3106TIP3    H130953   5.189   0.077   1.970  1.4917 -0.3069  0.5988
 3106TIP3    H230954   5.314   0.160   1.950  0.4529  0.9207 -1.1028
 3107TIP3   OH230955   1.568   0.067   1.895  0.3732 -0.6095  0.2149
 3107TIP3    H130956   1.515   0.034   1.823 -0.5820  0.1816  0.5415
 3107TIP3    H230957   1.651   0.092   1.855 -0.9926  2.1639 -1.1014
 3108TIP3   OH230958   3.342   3.277   1.399 -0.2914  0.0981 -0.4008
 3108TIP3    H130959   3.436   3.263   1.391 -0.6297 -2.2778 -1.0599
 3108TIP3    H230960   3.316   3.223   1.474 -1.3400 -0.6855 -1.2851
 3109TIP3   OH230961   1.394   5.120   1.030 -0.1277  0.4736  0.3441
 3109TIP3    H130962   1.440   5.081   1.105 -1.9910  0.4254  1.5114
 3109TIP3    H230963   1.423   5.211   1.029 -1.1341  0.8549  2.0354
 3110TIP3   OH230964   1.834   5.061   0.252 -0.4710  0.1548  0.0355
 3110TIP3    H130965   1.777   5.047   0.328 -1.3012  0.7727 -0.4554
 3110TIP3    H230966   1.852   4.973   0.220  0.1529 -0.1373  1.1227
 3111TIP3   OH230967   5.094   4.785   0.586  0.0717  0.2383 -0.1875
 3111TIP3    H130968   5.176   4.813   0.546  0.6789 -1.1101  0.0386
 3111TIP3    H230969   5.058   4.721   0.524 -0.7761  0.7491 -0.2410
 3112TIP3   OH230970   5.162   5.102   0.908 -0.5477 -0.8913 -0.0746
 3112TIP3    H130971   5.132   5.098   0.817  2.3810 -1.7171 -1.1232
 3112TIP3    H230972   5.161   5.011   0.937  1.1936 -0.9987 -0.2829
 3113TIP3   OH230973   1.272   4.884   1.701 -0.2673  0.3925 -0.0950
 3113TIP3    H130974   1.364   4.870   1.722 -0.0666  0.6824 -0.7549
 3113TIP3    H230975   1.235   4.926   1.779  0.5884  1.9659 -0.5112
 3114TIP3   OH230976   0.156   4.139   2.202  0.2590 -0.0524  0.2824
 3114TIP3    H130977   0.211   4.098   2.268  1.0404  0.2751 -0.1422
 3114TIP3    H230978   0.090   4.187   2.252 -0.9060 -2.0610  0.7912
 3115TIP3   OH230979   0.558   1.228   1.107  0.0990 -0.3391  0.4090
 3115TIP3    H130980   0.617   1.153   1.100 -1.2729 -1.4143 -0.1065
 3115TIP3    H230981   0.486   1.197   1.162  1.2287  1.8033  3.3837
 3116TIP3   OH230982   4.784   3.952   7.709 -0.0462 -0.0746  0.4061
 3116TIP3    H130983   4.717   3.896   7.747  0.2900  0.2982  1.5738
 3116TIP3    H230984   4.736   4.007   7.646 -0.4973 -1.1101 -0.1823
 3117TIP3   OH230985   2.208   4.772   6.896 -0.2895  0.3355  0.0465
 3117TIP3    H130986   2.234   4.838   6.833 -2.8478 -0.5847 -2.1557
 3117TIP3    H230987   2.117   4.752   6.874 -1.0392 -0.7459  3.4650
 3118TIP3   OH230988   2.226   2.421   0.672 -0.3035 -0.6925 -0.3479
 3118TIP3    H130989   2.153   2.422   0.611 -1.0731  1.9088  0.4814
 3118TIP3    H230990   2.200   2.358   0.740 -1.2566 -0.6208 -0.6368
 3119TIP3   OH230991   6.514   5.507   0.064 -0.0511 -0.9230  0.2671
 3119TIP3    H130992   6.491   5.414   0.055  0.1032 -0.8211 -1.6957
 3119TIP3    H230993   6.553   5.530  -0.021  0.1299  0.8798  0.7993
 3120TIP3   OH230994   3.843   5.342   7.681  0.6465 -0.3051 -0.2626
 3120TIP3    H130995   3.822   5.284   7.607  0.0841  2.1792 -2.2036
 3120TIP3    H230996   3.757   5.373   7.712  0.9467  1.7791 -1.3103
 3121TIP3   OH230997   0.548   4.268   1.304 -0.1184 -0.1558  0.1517
 3121TIP3    H130998   0.558   4.278   1.399  0.5324 -0.6723  0.1429
 3121TIP3    H230999   0.554   4.356   1.269  0.8820 -0.0873  0.4817
 3122TIP3   OH231000   1.854   6.481   2.511 -0.2555  0.1613  0.2861
 3122TIP3    H131001   1.843   6.388   2.531 -0.8973  0.5129  1.6711
 3122TIP3    H231002   1.943   6.502   2.537  0.2577 -0.2916 -1.0361
 3123TIP3   OH231003   2.200   4.048   2.082 -0.4524 -0.1880  0.4604
 3123TIP3    H131004   2.151   4.099   2.146 -0.1169 -0.6303  1.0963
 3123TIP3    H231005   2.213   4.106   2.008  0.6911  0.9634  1.5171
 3124TIP3   OH231006   4.029   5.796   2.384  0.1121 -0.1643  0.3249
 3124TIP3    H131007   3.945   5.835   2.409  0.2916  0.0206  0.6527
 3124TIP3    H231008   4.040   5.724   2.447 -0.9848 -1.8130 -1.2541
 3125TIP3   OH231009   2.836   0.819   7.944 -0.0726 -0.0477  0.5386
 3125TIP3    H131010   2.874   0.903   7.969  1.6187 -0.3083 -0.9325
 3125TIP3    H231011   2.865   0.806   7.853  1.7036 -3.2520  1.4246
 3126TIP3   OH231012   0.346   0.083   0.707  1.0326 -0.4375  0.8005
 3126TIP3    H131013   0.373   0.128   0.787  1.1136 -1.3509  1.2943
 3126TIP3    H231014   0.388  -0.002   0.711  1.2649 -0.4057 -0.3588
 3127TIP3   OH231015   0.628   5.149   8.528 -0.2932 -0.0468  0.0629
 3127TIP3    H131016   0.642   5.056   8.544  0.3510  0.1786  0.8817
 3127TIP3    H231017   0.552   5.172   8.580  1.0251  0.4022  1.8782
 3128TIP3   OH231018   4.461   6.430   8.484  0.2782 -0.7029  0.3783
 3128TIP3    H131019   4.532   6.396   8.538  0.9432  1.5189  0.9758
 3128TIP3    H231020   4.400   6.470   8.546 -0.5546 -0.8984 -0.2867
 3129TIP3   OH231021   5.569   4.198   0.922 -0.0361 -0.1326  0.2837
 3129TIP3    H131022   5.555   4.198   0.828 -0.1920 -2.8823  0.2000
 3129TIP3    H231023   5.664   4.191   0.932 -0.1424 -2.6432  0.1666
 3130TIP3   OH231024   6.276   5.078   0.348  0.1515 -0.2140 -0.3926
 3130TIP3    H131025   6.220   5.004   0.326 -0.3826 -0.2187  0.9318
 3130TIP3    H231026   6.349   5.039   0.396 -1.2174  0.2866  2.2676
 3131TIP3   OH231027   5.637   3.086   0.694 -0.0627 -0.5026 -0.6676
 3131TIP3    H131028   5.667   3.142   0.622 -0.2492 -0.9882 -1.1263
 3131TIP3    H231029   5.551   3.055   0.666 -0.1188 -0.7291 -0.2522
 3132TIP3   OH231030   0.777   4.022   1.969 -0.6515 -0.4808 -0.4185
 3132TIP3    H131031   0.840   4.021   2.041 -1.0761 -1.8169 -0.0232
 3132TIP3    H231032   0.822   3.976   1.898 -0.3301  0.6077 -0.9323
 3133TIP3   OH231033   2.557   5.907   1.905  0.3940  0.2825 -0.5843
 3133TIP3    H131034   2.601   5.845   1.846  1.0006 -0.1624  0.3182
 3133TIP3    H231035   2.545   5.986   1.852 -0.8618 -0.7449 -1.9314
 3134TIP3   OH231036   4.080   1.239   0.349  0.1987  0.4962  0.3309
 3134TIP3    H131037   4.165   1.246   0.392  0.5931 -1.6351 -0.0046
 3134TIP3    H231038   4.049   1.152   0.372 -1.3280  0.7507 -0.6218
 3135TIP3   OH231039   2.189   2.365   2.327 -0.3100  0.4393 -0.1642
 3135TIP3    H131040   2.220   2.419   2.255  0.5052  0.1860 -0.0190
 3135TIP3    H231041   2.182   2.426   2.401  0.4298  0.3841 -0.0467
 3136TIP3   OH231042   3.760   2.158   8.542  0.5357  0.0596 -0.3242
 3136TIP3    H131043   3.834   2.147   8.601  1.6386  1.1066 -1.4506
 3136TIP3    H231044   3.761   2.080   8.487 -0.5365 -0.9506  1.0430
 3137TIP3   OH231045   2.534   0.924   3.186 -0.0122 -0.0814  0.2391
 3137TIP3    H131046   2.535   0.889   3.097 -0.4828 -1.5866  0.8049
 3137TIP3    H231047   2.443   0.945   3.203 -0.3675 -2.1286  1.2020
 3138TIP3   OH231048   5.636   4.919   8.162 -0.5873 -0.3545 -0.0334
 3138TIP3    H131049   5.620   4.928   8.068 -2.4370  2.7525  0.4273
 3138TIP3    H231050   5.552   4.892   8.199 -0.0277 -1.0126  0.8012
 3139TIP3   OH231051   4.164   2.305   1.870 -0.0918 -0.3090 -0.0381
 3139TIP3    H131052   4.143   2.375   1.931 -1.0329 -0.1521 -0.5245
 3139TIP3    H231053   4.218   2.244   1.921  0.0171  0.3350  0.6344
 3140TIP3   OH231054   4.440   1.736   2.362 -0.3537 -0.2999  0.4455
 3140TIP3    H131055   4.360   1.783   2.384 -1.7680 -2.6084  0.5391
 3140TIP3    H231056   4.462   1.687   2.442  1.7022  0.9229  0.7203
 3141TIP3   OH231057   2.816   2.210   0.676 -0.6346  0.5917  0.5727
 3141TIP3    H131058   2.770   2.135   0.639 -0.1944  1.5937 -2.1901
 3141TIP3    H231059   2.901   2.175   0.703 -0.4276  0.0557 -0.7033
 3142TIP3   OH231060   3.901   6.421   0.875 -0.4341 -0.0747 -0.4906
 3142TIP3    H131061   3.935   6.382   0.955 -1.5188 -1.1276 -0.5228
 3142TIP3    H231062   3.836   6.484   0.905 -0.1604  0.2345 -0.5275
 3143TIP3   OH231063   2.205   3.188   2.885 -0.1202 -0.1183 -0.2105
 3143TIP3    H131064   2.127   3.222   2.929 -0.5647 -1.5905  0.1901
 3143TIP3    H231065   2.236   3.261   2.831  0.6775  1.8979  2.7568
 3144TIP3   OH231066   6.006   0.365   1.331  0.4946 -0.1289 -0.6042
 3144TIP3    H131067   5.997   0.458   1.314  1.8422 -0.1146 -1.3794
 3144TIP3    H231068   6.053   0.360   1.415 -0.4445 -0.1407 -0.0625
 3145TIP3   OH231069   1.469   1.850   8.731 -0.4907 -0.1281  0.6778
 3145TIP3    H131070   1.385   1.890   8.709  0.4450  1.5373 -0.0770
 3145TIP3    H231071   1.491   1.797   8.654 -0.9972 -0.8470  1.0210
 3146TIP3   OH231072   2.057   1.854   7.834 -0.2791 -0.4544 -0.5553
 3146TIP3    H131073   2.144   1.818   7.820 -0.3324 -0.3016 -1.3239
 3146TIP3    H231074   2.027   1.880   7.747 -1.9308 -2.3699 -0.6368
 3147TIP3   OH231075   2.471   2.158   8.146  0.2917 -0.2673  0.4892
 3147TIP3    H131076   2.406   2.090   8.131 -1.2952  0.2481  3.9175
 3147TIP3    H231077   2.460   2.220   8.074 -2.6499 -0.5301  0.5935
 3148TIP3   OH231078   2.221   1.772   0.179  0.6502 -0.2937  0.2678
 3148TIP3    H131079   2.306   1.807   0.204 -0.1781  0.8004  1.6623
 3148TIP3    H231080   2.179   1.843   0.130  0.8188 -1.1189 -1.1534
 3149TIP3   OH231081   6.560   4.062   8.797  0.6281  0.3618  0.5843
 3149TIP3    H131082   6.579   4.072   8.704  1.2671  1.4727  0.8145
 3149TIP3    H231083   6.508   4.138   8.820 -1.2266 -0.8860  0.7448
 3150TIP3   OH231084   4.013   3.445   7.912 -0.0138  0.0227 -0.1016
 3150TIP3    H131085   3.937   3.403   7.953  0.3597 -2.2521 -1.5741
 3150TIP3    H231086   4.086   3.423   7.969 -0.4549  2.7611  1.6719
 3151TIP3   OH231087   3.468   3.114   8.096 -0.0147  0.0354 -0.0173
 3151TIP3    H131088   3.471   3.022   8.070  0.6528 -0.2408  0.9711
 3151TIP3    H231089   3.428   3.159   8.021  0.6593 -0.8888 -0.9671
 3152TIP3   OH231090   5.221   2.125   1.796 -0.2457  0.0680  0.4507
 3152TIP3    H131091   5.236   2.033   1.772 -0.0595  0.8517 -2.9277
 3152TIP3    H231092   5.306   2.156   1.828 -0.4422 -0.9958  2.1519
 3153TIP3   OH231093   4.096   6.345   8.676 -0.5377 -0.3825 -0.2826
 3153TIP3    H131094   4.174   6.397   8.694 -0.6828  0.1362 -1.0956
 3153TIP3    H231095   4.027   6.387   8.727 -0.7068  0.3848 -1.1279
 3154TIP3   OH231096   4.228   5.751   1.813  0.3379  0.0742 -0.1366
 3154TIP3    H131097   4.188   5.833   1.843  0.2451  0.5548 -1.5010
 3154TIP3    H231098   4.250   5.768   1.721  0.1205 -1.5144 -0.4951
 3155TIP3   OH231099   0.021   0.937   7.845  0.4560  0.5203 -0.2564
 3155TIP3    H131100   0.115   0.923   7.861  0.1632 -1.2912  0.1011
 3155TIP3    H231101   0.014   0.942   7.750  0.7079 -1.3633 -0.4068
 3156TIP3   OH231102   0.522   1.270   7.727 -0.4592  0.5638 -0.5315
 3156TIP3    H131103   0.540   1.323   7.649  0.6482 -0.8941 -1.3072
 3156TIP3    H231104   0.444   1.219   7.703  0.4626 -0.6128 -1.0902
 3157TIP3   OH231105   1.931   5.492   8.655  0.0026  0.4542 -0.0045
 3157TIP3    H131106   1.978   5.446   8.586 -0.8863  0.3404 -0.5547
 3157TIP3    H231107   1.857   5.435   8.676  1.0128 -0.1711  2.0473
 3158TIP3   OH231108   5.403   5.263   0.054 -0.3847 -0.1627 -0.1911
 3158TIP3    H131109   5.334   5.231   0.112 -0.3296 -1.0696 -0.6190
 3158TIP3    H231110   5.473   5.291   0.113 -2.1253  3.4792  0.4665
 3159TIP3   OH231111   3.685   3.511   1.422 -0.4959 -0.4265 -0.1417
 3159TIP3    H131112   3.662   3.526   1.330  0.2543  1.1538 -0.1029
 3159TIP3    H231113   3.661   3.420   1.438  2.2095 -1.7740 -2.7825
 3160TIP3   OH231114   6.358   3.166   7.112 -0.2914 -0.2613  0.5936
 3160TIP3    H131115   6.428   3.230   7.096 -0.1519 -0.6338 -0.3733
 3160TIP3    H231116   6.314   3.157   7.028 -0.2243 -1.5386  0.6688
 3161TIP3   OH231117   2.918   6.702   1.997  0.7896  0.6116 -0.5915
 3161TIP3    H131118   2.943   6.610   1.994  0.4330  0.4834  0.2139
 3161TIP3    H231119   2.824   6.703   1.984  0.6743  0.7930  0.2049
 3162TIP3   OH231120   4.477   4.867   0.487  0.5261  0.2824  0.4298
 3162TIP3    H131121   4.395   4.833   0.452  0.5587  0.8723 -0.2480
 3162TIP3    H231122   4.450   4.928   0.556  0.3233  1.3367 -0.5425
 3163TIP3   OH231123   4.630   6.102   7.958  0.3950  0.6320  0.2048
 3163TIP3    H131124   4.614   6.081   7.866 -0.8236  0.3892  0.4638
 3163TIP3    H231125   4.544   6.123   7.994  0.7888  0.2599  1.4103
 3164TIP3   OH231126   5.998   5.044   1.992  0.0313  0.0353  0.4128
 3164TIP3    H131127   5.975   5.109   1.926 -2.6387 -0.4581  0.7450
 3164TIP3    H231128   6.067   5.085   2.044  2.4398  0.3208 -2.7553
 3165TIP3   OH231129   5.636   3.399   0.640  0.7390 -0.8219 -0.0781
 3165TIP3    H131130   5.560   3.354   0.601  0.4682 -0.9475  0.5855
 3165TIP3    H231131   5.604   3.487   0.660  1.1369 -0.4645 -0.9485
 3166TIP3   OH231132   3.254   5.448   7.172 -0.5025 -0.0200 -0.0808
 3166TIP3    H131133   3.218   5.424   7.257 -1.5344 -0.6667 -0.6801
 3166TIP3    H231134   3.257   5.366   7.123 -0.6800  0.4704 -0.9373
 3167TIP3   OH231135   4.191   1.507   8.255  0.0030  0.6609 -0.2941
 3167TIP3    H131136   4.209   1.597   8.225 -2.0525  0.1861 -3.4557
 3167TIP3    H231137   4.257   1.454   8.211  0.4674  0.4485  0.6293
 3168TIP3   OH231138   3.561   1.753   2.508  0.0572 -0.1828  0.3099
 3168TIP3    H131139   3.547   1.841   2.473 -2.0438 -0.4347  0.3893
 3168TIP3    H231140   3.653   1.751   2.531  1.2683  0.5465 -3.6797
 3169TIP3   OH231141   0.475   6.668   1.733 -0.4674 -0.2282  0.0426
 3169TIP3    H131142   0.548   6.715   1.772  0.6865  0.5972 -2.8354
 3169TIP3    H231143   0.466   6.589   1.786  3.0947 -0.7729  0.0932
 3170TIP3   OH231144   0.602   4.375   1.565  0.1507 -0.3593 -0.3447
 3170TIP3    H131145   0.669   4.310   1.587  0.6811 -0.1828 -1.3732
 3170TIP3    H231146   0.520   4.326   1.568  0.2515 -0.4991  1.2881
 3171TIP3   OH231147   1.309   0.382   0.853  0.5393  0.5600  0.0605
 3171TIP3    H131148   1.309   0.459   0.911  0.6838  0.6277 -0.0306
 3171TIP3    H231149   1.302   0.419   0.765  0.3924  0.4595  0.0298
 3172TIP3   OH231150   3.145   6.717   2.142  0.8747  0.0551  0.1818
 3172TIP3    H131151   3.063   6.699   2.096  1.6439 -0.3418 -1.0768
 3172TIP3    H231152   3.137   6.809   2.169  0.5233  0.3998 -1.0171
 3173TIP3   OH231153   2.122   3.742   0.798 -0.8144  0.4478  0.4145
 3173TIP3    H131154   2.051   3.746   0.862  0.8294  1.4163  2.2719
 3173TIP3    H231155   2.118   3.653   0.763 -1.2874 -0.4132  2.4890
 3174TIP3   OH231156   0.340   0.991   1.881 -0.2386 -0.7797 -0.3071
 3174TIP3    H131157   0.320   1.022   1.793 -2.1565  0.3783  0.4811
 3174TIP3    H231158   0.329   1.068   1.937  4.0241 -0.6096  0.6758
 3175TIP3   OH231159   1.854   3.560   0.905 -0.3581  0.4515 -0.6609
 3175TIP3    H131160   1.839   3.481   0.957 -1.8905  0.1833 -1.4647
 3175TIP3    H231161   1.938   3.594   0.937  0.0283 -1.1448  0.1302
 3176TIP3   OH231162   1.804   2.556   2.656 -0.6987 -0.1009  0.3294
 3176TIP3    H131163   1.840   2.516   2.577 -0.6330 -0.3915  0.5060
 3176TIP3    H231164   1.765   2.638   2.626  0.7278  0.5808  0.2385
 3177TIP3   OH231165   5.057   1.244   2.778 -0.1478 -0.2721 -0.2553
 3177TIP3    H131166   5.116   1.202   2.841 -2.1496  0.6423  2.4335
 3177TIP3    H231167   5.005   1.172   2.742  0.2402 -0.7013  0.0231
 3178TIP3   OH231168   4.462   2.257   0.714 -0.2974 -0.3178 -0.1572
 3178TIP3    H131169   4.415   2.280   0.794 -0.1901  0.9397 -0.4325
 3178TIP3    H231170   4.460   2.337   0.661  2.0099 -0.2443 -0.2359
 3179TIP3   OH231171   0.260   5.575   0.227  0.0119 -0.2924  0.2047
 3179TIP3    H131172   0.294   5.623   0.151  0.3671  0.3092  0.7428
 3179TIP3    H231173   0.202   5.509   0.188 -1.4761  1.3380 -0.5058
 3180TIP3   OH231174   0.160   6.056   2.859 -0.2999  0.2568 -0.4117
 3180TIP3    H131175   0.091   6.117   2.885 -1.0880 -1.0904  0.7614
 3180TIP3    H231176   0.231   6.071   2.921 -0.0774  0.6454 -0.7466
 3181TIP3   OH231177   0.229   2.607   0.979  0.4465  0.6660 -0.1768
 3181TIP3    H131178   0.262   2.517   0.984 -1.3345 -0.0738 -0.7313
 3181TIP3    H231179   0.144   2.598   0.935  0.6501  2.7445 -1.1017
 3182TIP3   OH231180   2.472   6.048   6.468  0.4486  0.0643 -0.4296
 3182TIP3    H131181   2.439   6.074   6.554 -0.8618 -0.8951 -0.6065
 3182TIP3    H231182   2.544   6.108   6.450  0.2518  0.7598  1.0068
 3183TIP3   OH231183   6.107   2.310   7.554 -0.4931  0.0010 -0.1174
 3183TIP3    H131184   6.023   2.320   7.508 -0.0856  0.3273 -0.7992
 3183TIP3    H231185   6.138   2.399   7.567 -1.2320 -0.0025  2.0053
 3184TIP3   OH231186   5.859   0.658   7.204  0.3251 -0.8504  0.3734
 3184TIP3    H131187   5.865   0.747   7.238 -2.2573 -0.6383  0.4995
 3184TIP3    H231188   5.881   0.666   7.111 -0.1107 -0.0235  0.3331
 3185TIP3   OH231189   2.815   0.279   0.546  0.0124  0.2280  0.0211
 3185TIP3    H131190   2.796   0.282   0.452  1.8462  0.7285 -0.3555
 3185TIP3    H231191   2.827   0.186   0.566 -0.7648  0.0858 -0.1328
 3186TIP3   OH231192   2.169   2.317   2.665 -0.3372  0.1228 -0.6663
 3186TIP3    H131193   2.227   2.249   2.632 -0.2975 -0.5077  0.6591
 3186TIP3    H231194   2.179   2.389   2.602 -0.1659 -0.9554 -1.9310
 3187TIP3   OH231195   1.175   4.108   0.303 -0.3203 -0.5574 -0.3247
 3187TIP3    H131196   1.090   4.078   0.335 -0.6376 -1.3822 -1.8334
 3187TIP3    H231197   1.158   4.136   0.213  1.5269 -3.8827 -1.9033
 3188TIP3   OH231198   1.236   1.314   7.671 -0.6702  0.3070  0.8122
 3188TIP3    H131199   1.302   1.381   7.687 -1.1590  1.3321 -1.1462
 3188TIP3    H231200   1.180   1.351   7.603  0.2029 -2.8196 -1.8709
 3189TIP3   OH231201   0.711   4.256   0.509  0.3036  0.2731  0.0735
 3189TIP3    H131202   0.692   4.324   0.573  0.5406  2.3105 -1.8884
 3189TIP3    H231203   0.782   4.205   0.548 -0.5577  0.5042  2.0129
 3190TIP3   OH231204   5.723   5.716   1.445 -0.3322 -0.5576 -0.4303
 3190TIP3    H131205   5.752   5.684   1.360  0.1939 -1.0297 -0.0748
 3190TIP3    H231206   5.653   5.656   1.471 -0.6928 -0.2442 -0.6480
 3191TIP3   OH231207   0.587   5.540   7.552  0.4753  0.3935  0.4044
 3191TIP3    H131208   0.548   5.558   7.466  0.2871 -0.0099  0.4007
 3191TIP3    H231209   0.541   5.461   7.582  1.6388 -0.3938  0.1766
 3192TIP3   OH231210   4.221   3.517   0.697  0.2298  0.2714 -0.8909
 3192TIP3    H131211   4.271   3.438   0.714  1.0026  0.9497  0.1057
 3192TIP3    H231212   4.164   3.494   0.623 -0.4943 -1.6013  0.1756
 3193TIP3   OH231213   2.293   6.646   1.032 -0.0122 -0.2385 -0.0633
 3193TIP3    H131214   2.264   6.726   0.987  0.5967 -0.0030 -0.0340
 3193TIP3    H231215   2.255   6.575   0.979  0.8699  0.0230 -1.0856
 3194TIP3   OH231216   4.635   4.929   0.880 -0.2719  0.7019 -0.0431
 3194TIP3    H131217   4.668   4.960   0.795  0.5221 -1.0878 -0.4403
 3194TIP3    H231218   4.703   4.869   0.911 -1.3533 -0.0041  1.0325
 3195TIP3   OH231219   2.708   0.033   1.293  0.2815 -0.4579  0.3502
 3195TIP3    H131220   2.684   0.002   1.381  0.5990 -0.7309  0.3435
 3195TIP3    H231221   2.718  -0.048   1.242 -1.5355 -0.2706 -0.3826
 3196TIP3   OH231222   6.803   6.236   1.251 -0.1690 -0.4864 -0.2069
 3196TIP3    H131223   6.762   6.150   1.256 -0.3999 -0.3516  0.4316
 3196TIP3    H231224   6.795   6.262   1.159 -0.9930 -0.7238 -0.2136
 3197TIP3   OH231225   2.715   0.598   1.544  0.4855 -0.2304 -0.8864
 3197TIP3    H131226   2.800   0.636   1.521  1.5127 -2.3926 -0.8540
 3197TIP3    H231227   2.673   0.578   1.460 -0.1875  1.1152 -0.9105
 3198TIP3   OH231228   4.282   0.476   1.520 -0.2400 -0.1226 -0.0792
 3198TIP3    H131229   4.292   0.392   1.475  0.3099 -0.2764  0.3204
 3198TIP3    H231230   4.195   0.507   1.494 -0.7111 -1.1159  0.2641
 3199TIP3   OH231231   1.654   4.334   1.300  0.3040 -0.1643 -0.3983
 3199TIP3    H131232   1.559   4.345   1.307  0.2359  1.6175 -3.0297
 3199TIP3    H231233   1.665   4.264   1.235  0.7810 -0.1973 -0.2858
 3200TIP3   OH231234   6.791   4.302   1.646  0.0445  0.1042 -0.2645
 3200TIP3    H131235   6.735   4.345   1.710 -1.1466 -1.5420 -0.1231
 3200TIP3    H231236   6.793   4.210   1.675 -0.1163 -0.5755 -2.2865
 3201TIP3   OH231237   4.881   0.288   1.422 -0.3444 -0.0674  0.4678
 3201TIP3    H131238   4.873   0.380   1.445  0.7315  0.1879 -0.1177
 3201TIP3    H231239   4.970   0.279   1.386 -0.3393 -1.3742  0.7390
 3202TIP3   OH231240   2.498   4.308   1.782 -0.2530  0.1094  1.1514
 3202TIP3    H131241   2.517   4.402   1.781  0.6271 -0.0499 -0.2658
 3202TIP3    H231242   2.445   4.294   1.704  0.0284 -0.6486  1.0955
 3203TIP3   OH231243   3.878   6.493   8.798  0.1511 -0.3428 -0.3298
 3203TIP3    H131244   3.793   6.453   8.782 -0.1094  0.6527 -1.6055
 3203TIP3    H231245   3.879   6.570   8.742  2.4618 -1.1286 -1.5203
 3204TIP3   OH231246   1.682   1.880   1.028  0.3927  0.4580 -0.1779
 3204TIP3    H131247   1.612   1.821   1.000  0.9024 -0.4426  0.4226
 3204TIP3    H231248   1.757   1.824   1.044  0.8793  1.2599  0.4575
 3205TIP3   OH231249   0.443   2.132   0.767  0.6732 -0.0222  0.3240
 3205TIP3    H131250   0.394   2.092   0.695 -0.0896 -2.0221  1.8701
 3205TIP3    H231251   0.529   2.091   0.764  1.7516  2.1010 -1.2005
 3206TIP3   OH231252   6.269   0.503   0.201 -0.4216  0.4711 -0.1507
 3206TIP3    H131253   6.230   0.481   0.286 -0.9018  1.9480  0.0333
 3206TIP3    H231254   6.291   0.596   0.208  2.8801 -0.1490 -0.3440
 3207TIP3   OH231255   2.837   4.619   7.746  0.5661  0.5801 -0.0384
 3207TIP3    H131256   2.911   4.580   7.792  0.0730 -0.0644  0.2164
 3207TIP3    H231257   2.837   4.577   7.660  1.2701  1.5234 -0.5166
 3208TIP3   OH231258   1.133   4.700   1.530 -0.2779  0.0575 -0.1126
 3208TIP3    H131259   1.198   4.745   1.585  0.0809  0.1280 -0.5876
 3208TIP3    H231260   1.064   4.765   1.516  0.1121  0.3742 -0.5767
 3209TIP3   OH231261   4.812   3.072   0.839  0.1794  0.4536 -1.1156
 3209TIP3    H131262   4.795   3.165   0.852 -1.8307 -0.1182  0.8799
 3209TIP3    H231263   4.730   3.036   0.807  0.3561 -0.8933 -0.1808
 3210TIP3   OH231264   4.011   0.601   7.968  0.4768 -0.1316 -0.5474
 3210TIP3    H131265   4.046   0.644   7.890 -0.5371 -1.9764 -2.1351
 3210TIP3    H231266   4.025   0.507   7.951 -1.3729 -0.6732  0.6641
 3211TIP3   OH231267   2.444   0.934   1.530 -0.0042  0.1956 -0.2817
 3211TIP3    H131268   2.436   0.999   1.599 -0.1365 -0.4769  0.3452
 3211TIP3    H231269   2.537   0.935   1.507 -0.2768  1.7478 -1.4172
 3212TIP3   OH231270   2.314   0.286   8.463 -0.8514 -0.4299  0.1809
 3212TIP3    H131271   2.341   0.373   8.435  0.0686 -0.0933  1.9898
 3212TIP3    H231272   2.258   0.301   8.540 -1.3221 -1.4089  0.0546
 3213TIP3   OH231273   3.407   1.803   7.602  0.0923 -0.1380  0.6287
 3213TIP3    H131274   3.489   1.768   7.637  1.8235  2.8498 -0.0795
 3213TIP3    H231275   3.430   1.834   7.514 -1.7839  0.8033  0.4276
 3214TIP3   OH231276   1.263   1.484   1.577 -0.4995 -0.0265 -0.0287
 3214TIP3    H131277   1.244   1.393   1.601 -0.8560  0.1074  0.2124
 3214TIP3    H231278   1.258   1.532   1.659  0.0200  0.1602 -0.1070
 3215TIP3   OH231279   5.632   3.499   2.372 -0.4384  0.0831  0.1334
 3215TIP3    H131280   5.651   3.423   2.316 -2.4740 -0.5037  0.1509
 3215TIP3    H231281   5.645   3.467   2.461 -1.2224 -0.2529  0.1374
 3216TIP3   OH231282   2.740   4.156   2.135 -0.1362  0.4118 -0.3005
 3216TIP3    H131283   2.650   4.129   2.153  0.2057 -0.6785 -0.1038
 3216TIP3    H231284   2.733   4.244   2.098 -1.3542 -0.0750 -1.2808
 3217TIP3   OH231285   5.562   0.214   1.012 -0.6233  0.2239  0.7490
 3217TIP3    H131286   5.652   0.206   0.981  0.2001 -1.9640  3.2979
 3217TIP3    H231287   5.565   0.287   1.075 -0.8618  0.7016  0.2167
 3218TIP3   OH231288   5.127   0.999   8.634  0.0573 -0.6813  0.0681
 3218TIP3    H131289   5.164   0.914   8.610 -0.0442 -0.6095 -0.3418
 3218TIP3    H231290   5.038   0.997   8.600  0.1341 -0.3159 -0.1576
 3219TIP3   OH231291   6.297   5.304   1.890  0.0444 -0.7607  0.2960
 3219TIP3    H131292   6.255   5.263   1.966 -0.2204 -1.9177 -0.4637
 3219TIP3    H231293   6.376   5.253   1.876  0.3399 -0.2497  0.0622
 3220TIP3   OH231294   5.215   2.361   7.359 -0.5893  0.2807 -0.0136
 3220TIP3    H131295   5.160   2.309   7.301 -1.8483  2.7947 -1.2162
 3220TIP3    H231296   5.304   2.332   7.339 -1.2566 -2.7807  0.8745
 3221TIP3   OH231297   3.376   6.631   2.438  0.0057 -0.4066 -0.5371
 3221TIP3    H131298   3.343   6.721   2.427  0.5838 -0.1678 -0.3515
 3221TIP3    H231299   3.413   6.609   2.353 -0.3487 -0.5608 -0.6535
 3222TIP3   OH231300   2.363   2.777   7.585 -0.1795  0.7182  0.4478
 3222TIP3    H131301   2.278   2.740   7.610 -0.1190  0.6254  0.5184
 3222TIP3    H231302   2.355   2.796   7.492 -0.2282  0.5696  0.4210
 3223TIP3   OH231303   4.129   0.560   1.167 -0.2739  0.0808  0.4637
 3223TIP3    H131304   4.086   0.505   1.232 -1.0021 -0.7466 -0.6660
 3223TIP3    H231305   4.057   0.604   1.121  0.1101 -0.5183 -0.7693
 3224TIP3   OH231306   4.017   4.353   1.145 -0.3787  0.0426  0.3911
 3224TIP3    H131307   4.020   4.419   1.214  2.1868  1.5353 -1.0068
 3224TIP3    H231308   4.030   4.270   1.190 -0.5596  0.7932  1.8771
 3225TIP3   OH231309   3.278   4.730   0.149 -0.3565  0.3950  0.2856
 3225TIP3    H131310   3.264   4.823   0.129  1.4109  1.3822  3.0808
 3225TIP3    H231311   3.373   4.721   0.155 -0.5640 -1.1491  1.8667
 3226TIP3   OH231312   5.140   4.200   8.621  0.4722 -0.0584  0.5324
 3226TIP3    H131313   5.060   4.161   8.585  0.7382 -0.9293  0.8450
 3226TIP3    H231314   5.197   4.212   8.545 -0.3986  1.7649  0.1060
 3227TIP3   OH231315   3.892   1.941   1.153 -0.1295 -0.2991 -0.1501
 3227TIP3    H131316   3.943   1.916   1.230  1.5308  1.1522 -0.7104
 3227TIP3    H231317   3.855   2.026   1.176  0.6040  0.2743 -1.0082
 3228TIP3   OH231318   0.783   3.408   8.592 -0.0786 -0.3331 -0.1668
 3228TIP3    H131319   0.717   3.345   8.619 -1.2799  1.8021  2.3199
 3228TIP3    H231320   0.751   3.442   8.509 -0.9894 -0.8597 -0.0473
 3229TIP3   OH231321   5.026   5.870   2.452  0.3081 -0.9360 -0.1924
 3229TIP3    H131322   4.993   5.867   2.362  1.3124 -1.4394 -0.5582
 3229TIP3    H231323   5.081   5.792   2.460  0.3408 -0.8139  0.8151
 3230TIP3   OH231324   0.831   0.672   6.883 -0.2323  0.1845  0.5453
 3230TIP3    H131325   0.740   0.650   6.905 -0.8776  0.8004 -1.3219
 3230TIP3    H231326   0.849   0.752   6.932  0.0207 -0.9537  2.4516
 3231TIP3   OH231327   1.030   1.263   8.652  0.7500  0.2748 -0.7773
 3231TIP3    H131328   1.033   1.318   8.730  2.9469 -0.0474 -0.5758
 3231TIP3    H231329   1.037   1.173   8.686 -1.1581 -0.0809 -1.2072
 3232TIP3   OH231330   0.369   3.029   0.577  0.8137  0.0021  0.8435
 3232TIP3    H131331   0.317   2.994   0.649 -0.9806 -0.5939 -0.6483
 3232TIP3    H231332   0.309   3.086   0.530  2.5557  2.0780  0.9762
 3233TIP3   OH231333   1.567   0.802   7.165  0.0441  0.7252 -0.2234
 3233TIP3    H131334   1.602   0.717   7.136  0.3338  0.7052  0.1830
 3233TIP3    H231335   1.619   0.867   7.118 -0.6826  0.6735 -1.1184
 3234TIP3   OH231336   6.741   4.391   0.535 -0.7782  0.4670  0.3552
 3234TIP3    H131337   6.715   4.480   0.510  0.4418  0.8294  0.3140
 3234TIP3    H231338   6.836   4.396   0.546  0.2086 -1.9077 -4.4833
 3235TIP3   OH231339   6.099   6.765   0.340  0.5458 -0.3507 -0.2290
 3235TIP3    H131340   6.109   6.711   0.418  0.4662  0.1458  0.1302
 3235TIP3    H231341   6.032   6.830   0.364 -1.0785 -1.4962 -1.4192
 3236TIP3   OH231342   5.478   3.776   1.792 -0.8176 -0.3143  0.1810
 3236TIP3    H131343   5.436   3.690   1.787 -0.3302 -0.5348 -0.0977
 3236TIP3    H231344   5.547   3.765   1.857 -1.8809  0.3513  1.4845
 3237TIP3   OH231345   3.547   4.752   0.157 -0.4979 -0.1211 -0.8070
 3237TIP3    H131346   3.615   4.727   0.095  0.9651 -1.0118  1.0406
 3237TIP3    H231347   3.572   4.840   0.186  0.2197 -0.6609  0.2725
 3238TIP3   OH231348   4.340   0.796   0.441  0.5293  0.2347 -0.2784
 3238TIP3    H131349   4.285   0.817   0.516 -0.1865  0.8495 -0.9503
 3238TIP3    H231350   4.415   0.750   0.478 -0.0335  0.1151  0.7525
 3239TIP3   OH231351   6.289   6.473   8.125  0.1677  0.1146 -0.4457
 3239TIP3    H131352   6.257   6.476   8.035 -0.6369 -0.1781 -0.1830
 3239TIP3    H231353   6.227   6.415   8.170 -0.3930  1.5201  0.6665
 3240TIP3   OH231354   0.951   6.075   7.619  0.0864  0.1958 -0.5630
 3240TIP3    H131355   0.971   6.164   7.648  1.9928 -0.4470  0.2602
 3240TIP3    H231356   1.012   6.058   7.547  1.2611 -1.1347  0.6706
 3241TIP3   OH231357   2.268   1.414   1.403 -0.2421  0.0864  0.2724
 3241TIP3    H131358   2.193   1.442   1.455 -1.4974  0.8130 -1.7812
 3241TIP3    H231359   2.258   1.319   1.395 -0.4337  0.0644  0.7601
 3242TIP3   OH231360   5.130   6.075   0.402 -0.7270  0.3540  0.1776
 3242TIP3    H131361   5.059   6.062   0.338 -0.4881 -0.1126  0.0019
 3242TIP3    H231362   5.085   6.108   0.480 -1.3827 -1.3641  0.5927
 3243TIP3   OH231363   3.542   4.177   8.125  0.0190  0.1601 -0.5428
 3243TIP3    H131364   3.605   4.121   8.171 -0.4792 -2.1806 -2.5342
 3243TIP3    H231365   3.596   4.238   8.076  0.6755 -0.4202 -0.5624
 3244TIP3   OH231366   1.624   1.674   2.373  0.0665 -0.4829 -0.1119
 3244TIP3    H131367   1.554   1.621   2.411  0.0869 -2.1331 -2.2026
 3244TIP3    H231368   1.678   1.699   2.448 -1.4161 -1.1831  1.2551
 3245TIP3   OH231369   4.390   3.069   7.716 -0.1740  0.2224 -0.4045
 3245TIP3    H131370   4.425   2.981   7.710  1.7965  0.9302 -0.0658
 3245TIP3    H231371   4.326   3.066   7.787 -0.6089 -1.0414 -0.8282
 3246TIP3   OH231372   4.641   6.473   7.598 -0.6118  0.2328 -0.2625
 3246TIP3    H131373   4.616   6.387   7.566 -0.8603  0.2438 -0.1067
 3246TIP3    H231374   4.650   6.462   7.693 -1.2957  0.5216 -0.1516
 3247TIP3   OH231375   3.118   3.274   8.149 -0.1406 -0.4896 -0.1716
 3247TIP3    H131376   3.181   3.223   8.199 -0.4111 -0.1031  0.5865
 3247TIP3    H231377   3.162   3.292   8.066  0.9753  0.2564  0.5529
 3248TIP3   OH231378   3.667   0.437   8.126  0.1376 -0.0164  0.6683
 3248TIP3    H131379   3.675   0.374   8.055  0.0153 -1.0354  1.5370
 3248TIP3    H231380   3.687   0.522   8.085 -0.3676 -0.5159 -0.6649
 3249TIP3   OH231381   5.349   3.030   7.785 -0.1878 -0.6586 -0.3418
 3249TIP3    H131382   5.379   3.048   7.696 -0.7522 -1.1674 -0.6353
 3249TIP3    H231383   5.430   3.029   7.837  0.1097  0.0054 -0.7742
 3250TIP3   OH231384   4.012   2.382   8.170  0.3337 -0.6804  0.2170
 3250TIP3    H131385   3.966   2.302   8.144  0.0829 -0.2995 -0.5336
 3250TIP3    H231386   3.970   2.408   8.251 -0.2330 -0.7816 -0.0386
 3251TIP3   OH231387   0.442   0.728   1.325  0.6691  0.4895  0.5435
 3251TIP3    H131388   0.494   0.709   1.402 -0.3117  0.6416  1.2610
 3251TIP3    H231389   0.505   0.729   1.253  1.4090 -0.9598  1.1323
 3252TIP3   OH231390   0.838   6.590   2.106 -0.5947  0.0650  0.3315
 3252TIP3    H131391   0.910   6.563   2.163  1.1625  0.7874 -1.4276
 3252TIP3    H231392   0.827   6.684   2.124 -0.5405  0.1333  0.0182
 3253TIP3   OH231393   4.728   1.480   0.927 -0.9877  0.2251 -0.3582
 3253TIP3    H131394   4.799   1.536   0.956  1.1647 -1.8226 -1.3233
 3253TIP3    H231395   4.713   1.419   1.000 -0.2808 -0.6319 -0.9038
 3254TIP3   OH231396   1.255   0.203   8.679  0.2066 -0.0692  0.2492
 3254TIP3    H131397   1.350   0.206   8.679  0.2291  3.4947 -0.2722
 3254TIP3    H231398   1.229   0.255   8.756 -1.2618  0.6259 -0.6643
 3255TIP3   OH231399   4.086   0.310   7.950  0.3565 -0.2235  0.4490
 3255TIP3    H131400   4.062   0.227   7.910  0.7460 -0.5672  0.9145
 3255TIP3    H231401   4.178   0.299   7.974  0.5199  0.4789  0.1714
 3256TIP3   OH231402   1.834   6.556   0.292 -0.1957 -0.7220 -0.2949
 3256TIP3    H131403   1.800   6.612   0.222  0.6757  1.4788  0.9418
 3256TIP3    H231404   1.928   6.550   0.274 -0.2180 -1.5087 -0.1964
 3257TIP3   OH231405   5.746   4.894   8.699 -0.2237 -0.0835 -0.2175
 3257TIP3    H131406   5.768   4.965   8.639  1.2771  0.3521  0.7898
 3257TIP3    H231407   5.700   4.830   8.645 -1.0269  1.3463 -1.2812
 3258TIP3   OH231408   3.689   6.552   8.162 -0.9077 -0.4964  0.6745
 3258TIP3    H131409   3.711   6.530   8.252 -4.1207  1.0973  2.0109
 3258TIP3    H231410   3.671   6.468   8.120 -0.7697 -1.1720  1.9307
 3259TIP3   OH231411   1.060   0.884   0.958  0.8246 -0.1002 -0.2008
 3259TIP3    H131412   0.987   0.824   0.941 -0.8025  1.9425 -0.8091
 3259TIP3    H231413   1.043   0.917   1.047 -0.0850  1.7411 -1.0083
 3260TIP3   OH231414   4.024   1.080   2.061 -0.6821  0.3040  0.1844
 3260TIP3    H131415   4.018   0.988   2.036  0.9497  0.8933 -2.9948
 3260TIP3    H231416   4.084   1.082   2.135  0.2261 -1.1223 -0.4819
 3261TIP3   OH231417   4.867   6.144   0.605 -0.2668 -0.2890 -0.0725
 3261TIP3    H131418   4.935   6.099   0.655  1.3273  1.0193 -0.9521
 3261TIP3    H231419   4.856   6.229   0.649 -0.7377 -0.1621 -0.4253
 3262TIP3   OH231420   6.371   3.054   8.692  0.2739  0.3012 -0.6559
 3262TIP3    H131421   6.337   2.973   8.731  2.3676  0.0350  0.7612
 3262TIP3    H231422   6.362   3.120   8.761 -0.0935  0.9522 -1.3065
 3263TIP3   OH231423   0.312   5.742   0.009 -0.6163 -0.1316  0.2123
 3263TIP3    H131424   0.260   5.813  -0.027 -0.4263  0.5972  1.3217
 3263TIP3    H231425   0.381   5.728  -0.055 -0.7750  0.5362 -0.1151
 3264TIP3   OH231426   1.825   4.500   1.070 -0.3837  0.4527  0.2796
 3264TIP3    H131427   1.783   4.454   0.998  1.8074  0.1162 -0.8637
 3264TIP3    H231428   1.900   4.544   1.030  0.8943  0.2792  2.3426
 3265TIP3   OH231429   1.866   5.413   8.190  0.1493 -0.1825  0.2541
 3265TIP3    H131430   1.865   5.489   8.133 -3.4973  0.7191  1.3139
 3265TIP3    H231431   1.873   5.338   8.130 -0.9082  0.8272 -1.1846
 3266TIP3   OH231432   6.746   0.415   2.468  0.2045  0.4458 -0.3906
 3266TIP3    H131433   6.837   0.446   2.471  1.4340 -2.8022 -0.0441
 3266TIP3    H231434   6.741   0.362   2.389 -0.6709 -1.2920  0.7712
 3267TIP3   OH231435   1.999   1.858   1.134  0.5407 -0.5905  0.4594
 3267TIP3    H131436   2.046   1.941   1.136  1.1078 -0.8721 -0.5466
 3267TIP3    H231437   2.064   1.794   1.105  0.0157 -1.3264  0.8707
 3268TIP3   OH231438   3.378   5.480   7.621  0.3006 -0.0660  0.5715
 3268TIP3    H131439   3.428   5.447   7.546 -0.5894  1.0562 -0.5500
 3268TIP3    H231440   3.445   5.505   7.684  1.1295  0.2096 -0.3790
 3269TIP3   OH231441   5.989   5.811   2.057  0.1796 -0.0657  0.0357
 3269TIP3    H131442   6.025   5.858   1.982  0.7927 -0.5854 -0.0064
 3269TIP3    H231443   6.043   5.732   2.064  1.4851  0.9341  2.2831
 3270TIP3   OH231444   1.075   0.435   8.026 -0.3051 -0.2494  0.4170
 3270TIP3    H131445   1.169   0.438   8.041 -0.0014 -0.7624 -1.1747
 3270TIP3    H231446   1.060   0.501   7.958 -1.1091 -0.1115  0.7185
 3271TIP3   OH231447   5.560   6.543   8.469  0.3149  0.1972 -0.4426
 3271TIP3    H131448   5.635   6.559   8.527  0.6755  1.1185 -1.1493
 3271TIP3    H231449   5.484   6.557   8.525  0.6574  1.0013 -0.1637
 3272TIP3   OH231450   2.584   0.737   2.351 -0.3405  0.1536 -0.0857
 3272TIP3    H131451   2.646   0.754   2.422  2.2751  0.3082 -2.2294
 3272TIP3    H231452   2.577   0.641   2.347  0.2185  0.1156 -0.1845
 3273TIP3   OH231453   3.202   2.040   8.386 -0.4183 -0.0660  0.0812
 3273TIP3    H131454   3.136   2.005   8.326 -0.9087  1.9045 -0.6096
 3273TIP3    H231455   3.249   2.105   8.334 -0.8198  1.6659  1.7992
 3274TIP3   OH231456   3.211   3.822   8.609 -0.1659  0.4199  0.1580
 3274TIP3    H131457   3.200   3.856   8.520 -0.3890  0.8379  0.3417
 3274TIP3    H231458   3.122   3.806   8.640 -0.1452  1.1423  0.6299
 3275TIP3   OH231459   4.204   6.454   7.926 -0.4906  0.4432  0.6746
 3275TIP3    H131460   4.182   6.481   8.015 -0.5686  1.9657  0.2220
 3275TIP3    H231461   4.124   6.414   7.893 -1.7532  3.1950  0.0756
 3276TIP3   OH231462   0.009   5.901   0.832 -0.6489 -0.0708 -0.7052
 3276TIP3    H131463   0.058   5.841   0.775 -0.0268 -0.2038 -0.0505
 3276TIP3    H231464  -0.037   5.845   0.893  0.0256  0.1031 -0.0166
 3277TIP3   OH231465   2.708   1.618   0.882 -0.1776 -0.2482 -0.6365
 3277TIP3    H131466   2.751   1.570   0.811 -0.2544 -0.4770 -0.5285
 3277TIP3    H231467   2.770   1.612   0.955 -0.8875 -1.5613 -0.1180
 3278TIP3   OH231468   5.432   2.345   7.900 -0.2476 -0.9920 -0.0138
 3278TIP3    H131469   5.458   2.382   7.816  1.5803  0.1591  1.0007
 3278TIP3    H231470   5.461   2.254   7.896 -0.2441 -0.9690 -0.6373
 3279TIP3   OH231471   6.112   0.623   8.187  0.0989 -0.7964  0.3231
 3279TIP3    H131472   6.172   0.629   8.112  1.4495  0.7194  1.4815
 3279TIP3    H231473   6.149   0.553   8.241  0.5115 -0.2429  0.7609
 3280TIP3   OH231474   6.508   3.597   1.345 -0.0533 -0.4875  0.0565
 3280TIP3    H131475   6.419   3.599   1.379 -0.5428  1.0320 -1.1757
 3280TIP3    H231476   6.562   3.629   1.417 -0.8298  0.9235  0.0388
 3281TIP3   OH231477   5.391   4.488   8.232 -0.4678 -0.0423  0.1286
 3281TIP3    H131478   5.427   4.530   8.154  0.0903 -1.0289 -0.1617
 3281TIP3    H231479   5.468   4.464   8.284 -0.8341  1.5797  1.5511
 3282TIP3   OH231480   6.733   2.223   1.982 -0.1339 -0.3673  0.0199
 3282TIP3    H131481   6.677   2.147   1.997  0.7901 -1.1192 -0.2328
 3282TIP3    H231482   6.678   2.284   1.932 -1.1086 -0.5628  0.8275
 3283TIP3   OH231483   5.711   0.131   8.556 -0.7183 -0.3529 -0.1234
 3283TIP3    H131484   5.696   0.222   8.531  1.4541  0.0335 -0.2188
 3283TIP3    H231485   5.689   0.128   8.649 -2.0179 -0.0516 -0.4138
 3284TIP3   OH231486   5.085   0.024   7.213  0.2987 -0.2066 -0.4445
 3284TIP3    H131487   5.119   0.066   7.133 -0.2454  1.5744  0.2106
 3284TIP3    H231488   4.992   0.014   7.197  0.4517 -1.4096 -0.6689
 3285TIP3   OH231489   0.285   5.486   1.918  0.1823 -0.1323  1.0297
 3285TIP3    H131490   0.207   5.537   1.941 -0.6050 -1.0443  0.4701
 3285TIP3    H231491   0.272   5.402   1.961 -0.3043 -1.1266 -0.9534
 3286TIP3   OH231492   1.420   4.092   1.325 -0.4906  0.2744  0.2825
 3286TIP3    H131493   1.324   4.090   1.324 -0.4877 -0.1219 -0.4811
 3286TIP3    H231494   1.442   4.185   1.335 -0.9376  0.2405  1.6960
 3287TIP3   OH231495   1.514   4.228   8.200  0.5400  0.2151  0.2653
 3287TIP3    H131496   1.462   4.153   8.229  1.0937 -0.3742 -0.2324
 3287TIP3    H231497   1.543   4.270   8.280 -1.5204  1.1496  0.5830
 3288TIP3   OH231498   6.285   6.539   0.982 -0.4413  0.3866  0.2673
 3288TIP3    H131499   6.205   6.590   0.975  0.4331  1.6710 -0.8553
 3288TIP3    H231500   6.303   6.510   0.893 -0.1789 -0.7249  0.6738
 3289TIP3   OH231501   6.562   2.203   2.559 -0.1720  0.6471 -0.1272
 3289TIP3    H131502   6.578   2.126   2.613  3.8922 -1.1870 -3.3666
 3289TIP3    H231503   6.587   2.277   2.614 -0.6930 -0.6131  1.9082
 3290TIP3   OH231504   1.587   5.537   8.661 -0.3584  0.0040  0.2928
 3290TIP3    H131505   1.618   5.471   8.599 -1.0575 -0.2889  0.2381
 3290TIP3    H231506   1.613   5.505   8.747 -1.5231 -0.8553  0.3551
 3291TIP3   OH231507   2.491   0.425   2.358 -0.3999  0.2412  0.3376
 3291TIP3    H131508   2.535   0.395   2.278 -0.6367 -1.2496  0.7399
 3291TIP3    H231509   2.429   0.355   2.379 -2.5460  1.9884  0.1651
 3292TIP3   OH231510   5.150   4.561   0.970 -0.3896 -0.5754  0.2198
 3292TIP3    H131511   5.207   4.552   1.047 -1.0476 -0.1947  0.7618
 3292TIP3    H231512   5.071   4.513   0.994 -0.5268 -0.6057 -0.2999
 3293TIP3   OH231513   2.206   2.503   0.173 -0.5163 -0.1119  0.5819
 3293TIP3    H131514   2.145   2.430   0.169 -0.2714 -0.2746 -0.7809
 3293TIP3    H231515   2.266   2.480   0.245  1.1437 -2.5837 -1.3913
 3294TIP3   OH231516   4.760   5.775   7.639  0.4978 -0.2559 -0.1412
 3294TIP3    H131517   4.837   5.757   7.693  0.6494  1.6555  0.3373
 3294TIP3    H231518   4.786   5.748   7.550  1.1759 -1.0011  0.2692
 3295TIP3   OH231519   1.619   2.573   2.938 -0.2198  0.1609 -0.6100
 3295TIP3    H131520   1.560   2.595   2.866 -0.9838  0.1892  0.0008
 3295TIP3    H231521   1.567   2.515   2.994  0.7742 -0.8432 -0.6960
 3296TIP3   OH231522   3.463   0.664   2.595  0.2351  0.0272  0.1002
 3296TIP3    H131523   3.438   0.581   2.635 -0.2584  0.0355 -0.1860
 3296TIP3    H231524   3.549   0.685   2.633  0.3982 -0.6513  0.1100
 3297TIP3   OH231525   2.883   6.210   8.255 -0.0872 -0.0841  0.1240
 3297TIP3    H131526   2.802   6.197   8.304  0.4364  0.8971  1.2942
 3297TIP3    H231527   2.952   6.186   8.317  0.5629  0.6401 -0.3051
 3298TIP3   OH231528   5.318   4.901   0.460  0.6907 -0.1527 -0.3787
 3298TIP3    H131529   5.344   4.891   0.368  0.6052  0.1146 -0.4323
 3298TIP3    H231530   5.375   4.971   0.493  1.1625 -0.6801 -0.0538
 3299TIP3   OH231531   0.777   4.556   0.541 -0.5315 -0.1526 -0.1607
 3299TIP3    H131532   0.850   4.617   0.551 -2.2927  2.0351  0.2396
 3299TIP3    H231533   0.800   4.503   0.464  1.5661  0.2579  0.1306
 3300TIP3   OH231534   0.739   2.560   0.148  0.0637 -0.5593  0.0126
 3300TIP3    H131535   0.645   2.577   0.157 -0.2644 -1.3979 -1.4600
 3300TIP3    H231536   0.754   2.479   0.196 -0.5598 -1.9227 -1.9250
 3301TIP3   OH231537   4.731   3.413   6.892 -0.2424  0.4041 -0.2633
 3301TIP3    H131538   4.826   3.401   6.887 -0.3928 -1.2498  0.3796
 3301TIP3    H231539   4.701   3.403   6.802 -0.0306 -1.3854 -0.1593
 3302TIP3   OH231540   0.567   2.065   2.148  0.6933  0.4660  0.4367
 3302TIP3    H131541   0.630   2.065   2.076  0.6168  0.4705  0.3712
 3302TIP3    H231542   0.524   2.151   2.143 -1.3154 -0.5640 -1.2340
 3303TIP3   OH231543   2.400   6.709   0.191  0.0088 -0.6483 -0.1352
 3303TIP3    H131544   2.332   6.776   0.189  0.7002  0.1981  2.0588
 3303TIP3    H231545   2.482   6.758   0.184  0.4675 -1.4914 -0.9041
 3304TIP3   OH231546   2.513   0.430   0.261 -0.0162  0.4206 -0.4651
 3304TIP3    H131547   2.604   0.415   0.233  0.0048 -0.8986  0.2389
 3304TIP3    H231548   2.480   0.343   0.281 -0.8853  1.0608  0.9864
 3305TIP3   OH231549   4.232   2.488   6.957  0.0338 -0.4971  0.1329
 3305TIP3    H131550   4.312   2.439   6.977  0.1024 -0.4304  0.0238
 3305TIP3    H231551   4.253   2.537   6.878  0.9253  1.9047  1.7351
 3306TIP3   OH231552   0.772   0.079   7.809  0.2401 -0.3847 -0.1159
 3306TIP3    H131553   0.852   0.097   7.760  0.0577  1.0735  0.0666
 3306TIP3    H231554   0.742  -0.007   7.777  0.2190  0.4091 -2.4416
 3307TIP3   OH231555   5.689   0.713   0.582 -0.0769  0.6206 -0.6180
 3307TIP3    H131556   5.703   0.796   0.628  2.5232  0.3286 -0.7610
 3307TIP3    H231557   5.759   0.710   0.517  0.4966 -2.1070  0.0183
 3308TIP3   OH231558   3.154   4.240   2.800 -0.2039  0.0359 -0.4143
 3308TIP3    H131559   3.146   4.158   2.848  1.3806 -0.3907 -0.8131
 3308TIP3    H231560   3.079   4.240   2.740 -1.1832 -0.2734  0.7585
 3309TIP3   OH231561   0.629   3.954   0.864  0.3702  0.0730  0.1704
 3309TIP3    H131562   0.643   3.883   0.801 -0.5116  0.0438 -0.0035
 3309TIP3    H231563   0.573   3.915   0.932  1.0040  0.2102  0.7815
 3310TIP3   OH231564   5.823   2.860   2.250  0.3186 -0.0485  0.4741
 3310TIP3    H131565   5.805   2.942   2.205  0.8322 -0.1271  0.1173
 3310TIP3    H231566   5.898   2.879   2.307  1.0368 -0.5007 -0.2980
 3311TIP3   OH231567   3.805   0.478   7.820  0.2300  0.4506 -0.3168
 3311TIP3    H131568   3.721   0.507   7.784 -0.0121  0.9822  0.6317
 3311TIP3    H231569   3.870   0.520   7.765 -0.1327  1.0448 -0.3064
 3312TIP3   OH231570   3.613   5.484   0.230 -0.3688 -0.2346 -0.0138
 3312TIP3    H131571   3.671   5.419   0.190  0.1494  0.2390 -0.0486
 3312TIP3    H231572   3.617   5.559   0.171  0.0938  0.3292  0.7257
 3313TIP3   OH231573   4.062   6.563   0.388  0.1717 -0.1689 -0.3602
 3313TIP3    H131574   4.040   6.607   0.470 -2.8963 -2.8697  0.4938
 3313TIP3    H231575   4.092   6.476   0.414 -0.7749 -1.0614 -2.0157
 3314TIP3   OH231576   4.454   5.473   8.276 -0.1082  0.0723  0.2789
 3314TIP3    H131577   4.442   5.404   8.210 -0.2898  1.8144 -1.6117
 3314TIP3    H231578   4.467   5.553   8.225  0.0979  1.4655  2.3885
 3315TIP3   OH231579   6.795   2.738   0.128  0.3262  0.0914  0.7758
 3315TIP3    H131580   6.873   2.712   0.079 -0.0930  0.4382 -0.0858
 3315TIP3    H231581   6.793   2.833   0.123  0.1998  0.1227  1.3466
 3316TIP3   OH231582   1.742   0.721   8.037 -0.3633  0.6536 -0.0650
 3316TIP3    H131583   1.732   0.751   7.946 -0.0643  2.0172  0.3204
 3316TIP3    H231584   1.656   0.685   8.059 -0.7153  1.1236 -0.6160
 3317TIP3   OH231585   2.092   5.035   1.631 -0.0921  0.8510  0.0428
 3317TIP3    H131586   2.091   4.940   1.614 -1.4753  0.7742  0.4380
 3317TIP3    H231587   2.159   5.046   1.698  1.7370  0.4858 -1.6019
 3318TIP3   OH231588   5.428   4.870   0.859  0.1157  0.1240  0.2800
 3318TIP3    H131589   5.395   4.864   0.948 -0.3361  0.0180  0.1078
 3318TIP3    H231590   5.351   4.891   0.806  0.8592  3.5878  0.3132
 3319TIP3   OH231591   5.710   5.125   1.044  0.5655 -0.1038 -0.1681
 3319TIP3    H131592   5.694   5.181   0.968  2.0419 -1.1465 -1.2936
 3319TIP3    H231593   5.790   5.077   1.023  0.7827 -0.7391  1.8743
 3320TIP3   OH231594   6.222   4.447   1.583  0.1487  0.2675 -0.6305
 3320TIP3    H131595   6.232   4.411   1.495 -0.6174  0.3228 -0.7488
 3320TIP3    H231596   6.136   4.489   1.581  0.0528  0.1157  0.1972
 3321TIP3   OH231597   3.186   2.247   1.499 -0.5843  0.6234 -0.4529
 3321TIP3    H131598   3.256   2.279   1.557 -0.7670 -0.0095  0.1264
 3321TIP3    H231599   3.138   2.326   1.475  0.0937  1.0188 -0.5418
 3322TIP3   OH231600   1.061   3.841   0.044  0.6186 -0.0193 -0.6315
 3322TIP3    H131601   1.068   3.756   0.087 -1.4028  0.3043  0.4542
 3322TIP3    H231602   1.081   3.905   0.112  1.2984  0.4189 -1.2233
 3323TIP3   OH231603   2.019   3.937   8.076  0.1493 -0.7748 -0.3674
 3323TIP3    H131604   2.031   3.960   8.168 -0.1637 -2.5567  0.1570
 3323TIP3    H231605   2.027   4.021   8.029  0.0386  0.2078  1.2844
 3324TIP3   OH231606   3.437   5.419   6.844  0.1372  0.2284  0.0599
 3324TIP3    H131607   3.374   5.378   6.903 -1.1740  0.4068 -1.1730
 3324TIP3    H231608   3.432   5.512   6.865 -0.2637  0.2811 -0.2483
 3325TIP3   OH231609   0.449   6.205   7.848  0.2454 -0.5466  0.3318
 3325TIP3    H131610   0.526   6.214   7.791 -1.0386  0.2999 -1.3538
 3325TIP3    H231611   0.484   6.214   7.937  2.0457  0.1669 -0.3940
 3326TIP3   OH231612   6.261   6.657   7.540  0.1660  0.1724  0.0816
 3326TIP3    H131613   6.171   6.672   7.509  0.0251  0.6400  0.6905
 3326TIP3    H231614   6.314   6.654   7.460 -0.4785 -0.7908 -0.3316
 3327TIP3   OH231615   3.099   4.788   1.038  0.4528 -0.5386 -0.6843
 3327TIP3    H131616   3.065   4.752   1.121 -1.1783 -2.0101 -1.9141
 3327TIP3    H231617   3.193   4.775   1.043  0.1657 -2.7427  0.0209
 3328TIP3   OH231618   5.451   4.395   2.342  0.5121 -0.2808  0.3759
 3328TIP3    H131619   5.467   4.379   2.435  0.3365 -2.0961  0.1210
 3328TIP3    H231620   5.532   4.433   2.310  1.2259 -1.3037  0.9113
 3329TIP3   OH231621   2.199   6.409   8.276 -0.1563  0.3542  0.2058
 3329TIP3    H131622   2.216   6.329   8.226 -2.1799 -0.5791  0.9417
 3329TIP3    H231623   2.240   6.393   8.361 -0.2788  0.2200  0.2406
 3330TIP3   OH231624   0.906   4.038   0.341  0.3205 -0.1110  0.0921
 3330TIP3    H131625   0.856   4.098   0.285  0.1601  2.3275  2.6339
 3330TIP3    H231626   0.840   3.997   0.397  0.7571 -0.3224  0.4615
 3331TIP3   OH231627   5.298   2.005   2.611  0.3375 -0.0429 -0.1794
 3331TIP3    H131628   5.236   2.027   2.680  0.7818  0.6624  0.0100
 3331TIP3    H231629   5.245   1.963   2.543 -0.1514 -0.4639  0.4510
 3332TIP3   OH231630   1.133   0.705   1.510 -0.0427  0.3680  0.2745
 3332TIP3    H131631   1.087   0.680   1.430  0.4140  1.6664 -0.4055
 3332TIP3    H231632   1.201   0.638   1.521 -1.3496 -0.9643  0.7062
 3333TIP3   OH231633   2.273   2.518   2.130  0.8439  0.7508 -0.1687
 3333TIP3    H131634   2.322   2.601   2.131  0.2579  1.1102  0.6295
 3333TIP3    H231635   2.229   2.517   2.045 -1.2873  2.6094  0.7730
 3334TIP3   OH231636   5.631   6.096   0.477 -0.0068 -0.0441  0.0827
 3334TIP3    H131637   5.671   6.037   0.541 -1.2405 -1.3195 -0.2670
 3334TIP3    H231638   5.593   6.038   0.411 -2.2146  1.0612  0.2927
 3335TIP3   OH231639   5.980   6.233   7.499  0.2014  0.0175  0.5833
 3335TIP3    H131640   5.978   6.143   7.531  0.1230  0.3132  1.4586
 3335TIP3    H231641   5.935   6.231   7.415  0.2694 -0.7712  0.5625
 3336TIP3   OH231642   6.570   2.953   8.494 -0.1397  0.1727  0.2631
 3336TIP3    H131643   6.499   2.977   8.554 -1.5297 -1.3185 -0.6797
 3336TIP3    H231644   6.529   2.893   8.432  1.3588  1.3078 -1.9268
 3337TIP3   OH231645   0.598   1.595   1.019  0.2044  0.2489 -0.0777
 3337TIP3    H131646   0.532   1.578   1.086  0.7678 -2.0924 -0.0446
 3337TIP3    H231647   0.674   1.627   1.067  0.1147  0.0051  0.2308
 3338TIP3   OH231648   1.779   1.748   0.211  0.3858  0.6879 -0.6807
 3338TIP3    H131649   1.841   1.679   0.234  1.8557  1.4840 -2.0444
 3338TIP3    H231650   1.725   1.759   0.289  3.2984  1.3516  1.4070
 3339TIP3   OH231651   3.432   6.036   7.820 -0.0464  0.0141  0.2573
 3339TIP3    H131652   3.481   6.079   7.891  0.9561  0.7415 -0.8435
 3339TIP3    H231653   3.491   6.039   7.745 -1.5665  0.4165 -0.9767
 3340TIP3   OH231654   4.491   5.395   0.301 -0.5915  0.0272  0.1171
 3340TIP3    H131655   4.576   5.375   0.342 -0.4699 -0.7438 -0.4956
 3340TIP3    H231656   4.443   5.442   0.369  0.2996  0.4091  0.5030
 3341TIP3   OH231657   6.524   1.353   8.505  0.0084 -0.4136 -0.2086
 3341TIP3    H131658   6.509   1.328   8.414 -0.2769  0.6486 -0.4645
 3341TIP3    H231659   6.511   1.272   8.554 -0.2696 -0.9036 -1.0634
 3342TIP3   OH231660   4.876   4.703   8.614 -0.0113 -0.1784 -0.8337
 3342TIP3    H131661   4.857   4.774   8.675 -0.8285 -0.5595 -0.6357
 3342TIP3    H231662   4.844   4.624   8.658  1.5655 -0.7909 -0.7168
 3343TIP3   OH231663   5.217   3.802   2.272 -0.0123  0.1634 -0.5965
 3343TIP3    H131664   5.224   3.850   2.189 -1.4801  1.1156 -0.2179
 3343TIP3    H231665   5.276   3.848   2.331 -0.7764  1.0182 -0.4707
 3344TIP3   OH231666   3.730   6.627   0.979  0.5101 -0.0581 -0.6266
 3344TIP3    H131667   3.643   6.644   0.942  1.1147  1.9554 -1.2511
 3344TIP3    H231668   3.714   6.573   1.056 -1.3567  0.7120 -0.4321
 3345TIP3   OH231669   2.621   6.471   8.522  0.3096  0.4723  0.5946
 3345TIP3    H131670   2.592   6.552   8.563  0.5949  1.1368 -0.4858
 3345TIP3    H231671   2.706   6.453   8.562  2.0902  2.8031 -1.8190
 3346TIP3   OH231672   6.508   1.110   1.709  0.0296 -0.7295 -0.1422
 3346TIP3    H131673   6.420   1.146   1.717  1.8303  4.1989  1.6856
 3346TIP3    H231674   6.522   1.060   1.789 -0.0069  1.8579  1.6150
 3347TIP3   OH231675   2.935   6.430   1.642 -0.4649  0.6413  0.0167
 3347TIP3    H131676   2.963   6.433   1.551  0.2969 -0.2427  0.2179
 3347TIP3    H231677   2.867   6.498   1.648 -0.7632  0.4777 -1.2768
 3348TIP3   OH231678   2.526   0.811   2.938  0.9683  0.0974 -0.1958
 3348TIP3    H131679   2.489   0.856   2.862  2.3006 -0.1006 -0.9834
 3348TIP3    H231680   2.556   0.727   2.904 -0.2318 -0.8478  0.9791
 3349TIP3   OH231681   5.920   2.218   2.163  0.4716 -0.2004 -0.4008
 3349TIP3    H131682   5.926   2.211   2.259  0.2073 -0.7565 -0.4198
 3349TIP3    H231683   6.005   2.252   2.136  0.3406  0.5274  0.0837
 3350TIP3   OH231684   6.568   1.221   1.140 -0.0672 -0.1371 -0.0725
 3350TIP3    H131685   6.593   1.130   1.124  2.1702  0.5128 -0.6641
 3350TIP3    H231686   6.489   1.234   1.088  0.1905 -1.4665 -0.8280
 3351TIP3   OH231687   2.948   2.474   1.499 -0.8841 -0.2495  0.2480
 3351TIP3    H131688   3.035   2.492   1.463 -1.0489  0.7521  0.3151
 3351TIP3    H231689   2.905   2.419   1.434  0.6623 -2.9613  1.3216
 3352TIP3   OH231690   4.330   5.852   1.557  0.0138  0.2982  0.3209
 3352TIP3    H131691   4.340   5.792   1.483 -1.3749  0.2964  0.1062
 3352TIP3    H231692   4.418   5.883   1.575  0.7618 -1.7604  0.3920
 3353TIP3   OH231693   6.522   3.376   2.104  0.2294 -0.4203  0.2473
 3353TIP3    H131694   6.566   3.317   2.164  0.7158 -0.3813 -0.0664
 3353TIP3    H231695   6.537   3.463   2.140 -0.0398 -0.4445  0.4228
 3354TIP3   OH231696   3.101   3.140   1.711 -0.3024 -0.2459  0.4909
 3354TIP3    H131697   3.128   3.229   1.688  0.5541 -0.2687  1.3461
 3354TIP3    H231698   3.007   3.137   1.690  0.0335  0.2527 -1.3111
 3355TIP3   OH231699   2.026   4.711   2.403  0.0289  0.5817 -0.1390
 3355TIP3    H131700   2.035   4.621   2.435 -1.2960 -0.1534 -1.7046
 3355TIP3    H231701   2.062   4.765   2.473  0.0379 -1.1103  1.2216
 3356TIP3   OH231702   2.769   4.961   0.062  0.3512 -0.1784  0.0836
 3356TIP3    H131703   2.757   4.976   0.156  1.8041  0.5411  0.1871
 3356TIP3    H231704   2.782   5.048   0.025  1.4581 -0.5790 -0.5118
 3357TIP3   OH231705   4.629   0.467   3.163  0.5087  0.1823 -0.4717
 3357TIP3    H131706   4.537   0.442   3.152  0.0186  0.9977  1.3399
 3357TIP3    H231707   4.678   0.399   3.117 -1.0039 -0.0210 -1.8651
 3358TIP3   OH231708   2.171   1.650   2.863  0.5362  0.0537  0.3710
 3358TIP3    H131709   2.210   1.710   2.927 -1.2008 -0.6714  2.2452
 3358TIP3    H231710   2.110   1.705   2.814  0.1217  0.1561  0.9888
 3359TIP3   OH231711   5.869   0.295   2.266  0.1697  0.3520 -0.6577
 3359TIP3    H131712   5.798   0.359   2.269 -1.2439 -1.1369 -1.1283
 3359TIP3    H231713   5.905   0.302   2.178 -1.4308 -0.9472 -1.4706
 3360TIP3   OH231714   3.178   1.486   6.830 -0.0541 -0.0149  0.1404
 3360TIP3    H131715   3.256   1.541   6.823 -0.9799  1.5217  1.3477
 3360TIP3    H231716   3.104   1.547   6.823 -1.1715 -1.3661 -0.4996
 3361TIP3   OH231717   3.748   4.726   8.861  0.1549  0.5747 -0.4574
 3361TIP3    H131718   3.737   4.697   8.771 -0.7705 -0.3105 -0.0806
 3361TIP3    H231719   3.798   4.807   8.855 -0.2168  0.7187 -1.7881
 3362TIP3   OH231720   1.335   4.039   2.178 -0.1345 -0.2463  0.2312
 3362TIP3    H131721   1.308   4.117   2.226  1.0916  0.7678 -0.6384
 3362TIP3    H231722   1.318   3.966   2.237  0.7062  0.8786  1.9352
 3363TIP3   OH231723   3.077   4.913   0.386  0.0534  0.3567 -0.1888
 3363TIP3    H131724   3.114   4.876   0.466  0.2649 -1.1202 -0.9501
 3363TIP3    H231725   3.014   4.979   0.418 -0.8547 -1.1183  1.2311
 3364TIP3   OH231726   2.515   0.581   0.911  0.1608 -0.0316  0.1674
 3364TIP3    H131727   2.588   0.643   0.919 -0.3483  0.3859  2.1590
 3364TIP3    H231728   2.555   0.500   0.880  1.3890  0.3634  0.6513
 3365TIP3   OH231729   1.359   4.445   0.911  0.5785 -0.1331  0.0895
 3365TIP3    H131730   1.444   4.473   0.945  2.1769 -2.1213 -1.9408
 3365TIP3    H231731   1.314   4.526   0.887  2.0423  0.9574  0.9077
 3366TIP3   OH231732   1.553   5.223   2.786  0.6262 -0.8703 -0.2433
 3366TIP3    H131733   1.601   5.235   2.869  2.3432  1.0832 -1.4169
 3366TIP3    H231734   1.612   5.257   2.719 -1.4429 -0.6975 -2.0996
 3367TIP3   OH231735   3.410   1.701   3.063  0.3972  0.0064 -0.3251
 3367TIP3    H131736   3.348   1.643   3.107  0.6274 -0.2527 -0.3392
 3367TIP3    H231737   3.411   1.781   3.116 -0.1292  0.1043 -0.4600
 3368TIP3   OH231738   4.660   0.168   0.279  0.2597  0.1607  0.7146
 3368TIP3    H131739   4.756   0.159   0.280  0.3636  1.0623  0.0116
 3368TIP3    H231740   4.645   0.262   0.278 -0.6417  0.0219  0.4955
 3369TIP3   OH231741   6.185   5.800   8.154  0.3527  0.2919 -0.1208
 3369TIP3    H131742   6.181   5.721   8.207 -0.1426 -0.5560 -1.3554
 3369TIP3    H231743   6.231   5.772   8.074  1.0674  1.5140 -0.1589
 3370TIP3   OH231744   2.850   2.636   1.688 -0.0038 -0.7292 -0.2792
 3370TIP3    H131745   2.770   2.678   1.655 -0.0309  0.8259  1.6136
 3370TIP3    H231746   2.914   2.648   1.618 -0.0925  2.3156  0.0254
 3371TIP3   OH231747   0.539   6.229   8.746 -0.1358 -0.2745  0.4929
 3371TIP3    H131748   0.556   6.322   8.727 -1.2877 -0.4690 -1.8544
 3371TIP3    H231749   0.625   6.189   8.747  0.2902  0.5945  0.1601
 3372TIP3   OH231750   2.218   3.384   1.234 -0.2822 -0.9533  0.5695
 3372TIP3    H131751   2.270   3.338   1.300  1.5218  1.6211  1.0724
 3372TIP3    H231752   2.127   3.366   1.258  0.3405 -1.9108  2.4018
 3373TIP3   OH231753   3.032   4.716   1.313  0.1911  0.6189  0.0643
 3373TIP3    H131754   3.062   4.664   1.388 -1.1107 -0.4177 -0.0787
 3373TIP3    H231755   3.054   4.806   1.335  1.6719  0.1180  0.7550
 3374TIP3   OH231756   2.691   3.333   3.128 -0.0112  0.4685 -0.1725
 3374TIP3    H131757   2.703   3.255   3.074 -0.1624 -0.8943  1.6936
 3374TIP3    H231758   2.611   3.374   3.093  0.6273  0.3959 -1.8250
 3375TIP3   OH231759   5.914   6.473   0.956 -0.1932  0.5796 -0.1731
 3375TIP3    H131760   5.879   6.453   1.043  2.5396  0.8071  1.0617
 3375TIP3    H231761   5.980   6.539   0.971  0.4859  0.4889 -2.4303
 3376TIP3   OH231762   2.826   1.186   2.034 -0.0803  0.5738 -0.0573
 3376TIP3    H131763   2.774   1.174   2.114  0.9233  1.3604  0.7474
 3376TIP3    H231764   2.886   1.257   2.055  0.9952  0.0179 -1.1172
 3377TIP3   OH231765   2.889   1.888   8.498 -0.2034  0.3889  0.1968
 3377TIP3    H131766   2.905   1.849   8.584 -0.5932  1.7368  0.9175
 3377TIP3    H231767   2.954   1.849   8.440 -0.3442 -1.0149  0.9509
 3378TIP3   OH231768   1.037   0.009   8.625 -0.1575 -0.4607  0.5415
 3378TIP3    H131769   1.111   0.060   8.659 -1.6004  1.6919  0.6485
 3378TIP3    H231770   1.032   0.035   8.533  0.2680 -1.9666  0.0670
 3379TIP3   OH231771   6.609   2.412   8.270 -0.3378  0.4151  0.2928
 3379TIP3    H131772   6.646   2.397   8.183 -0.4622 -1.4795  0.5181
 3379TIP3    H231773   6.657   2.488   8.303  0.2748  0.6828 -1.1126
 3380TIP3   OH231774   2.592   1.022   0.633  0.2016 -0.0167 -0.5591
 3380TIP3    H131775   2.536   1.049   0.561  2.1517  1.0936 -1.7452
 3380TIP3    H231776   2.538   0.962   0.685 -1.6697  0.1413 -2.2246
 3381TIP3   OH231777   6.183   1.738   7.325  0.1015  0.1430 -0.1093
 3381TIP3    H131778   6.164   1.832   7.318  0.5971  0.1583 -2.1324
 3381TIP3    H231779   6.170   1.705   7.236  1.0610 -1.4878  0.3121
 3382TIP3   OH231780   1.978   0.999   7.477  0.0691 -0.4675  0.3959
 3382TIP3    H131781   1.924   1.064   7.432  1.5299 -0.9435 -2.2992
 3382TIP3    H231782   1.969   0.920   7.425  2.0467 -1.0117  0.7701
 3383TIP3   OH231783   6.660   0.389   8.490  0.3316  0.3134  0.5156
 3383TIP3    H131784   6.666   0.407   8.397  2.9264 -1.5048  0.2357
 3383TIP3    H231785   6.732   0.438   8.529  1.2612 -1.4283  1.0832
 3384TIP3   OH231786   6.526   5.624   1.241  0.3414  0.4174 -0.3650
 3384TIP3    H131787   6.455   5.560   1.237  0.9398 -0.4147  1.4055
 3384TIP3    H231788   6.537   5.653   1.150 -2.1787  0.5274 -0.6898
 3385TIP3   OH231789   4.214   1.146   1.174 -0.1053  0.2818 -0.0170
 3385TIP3    H131790   4.239   1.237   1.163 -0.5124  0.4869  0.6306
 3385TIP3    H231791   4.143   1.149   1.240  0.8919 -0.6272  1.1480
 3386TIP3   OH231792   1.621   2.373   2.740 -0.2190 -0.1155 -0.3427
 3386TIP3    H131793   1.534   2.393   2.706 -0.4790  0.6492  0.7290
 3386TIP3    H231794   1.667   2.456   2.740  0.4239 -0.4658 -0.6377
 3387TIP3   OH231795   3.783   5.579   0.507  0.4028  0.0450 -0.0549
 3387TIP3    H131796   3.804   5.570   0.414 -0.2642  2.3917 -0.5018
 3387TIP3    H231797   3.796   5.672   0.526  2.0789 -0.6304  2.6404
 3388TIP3   OH231798   0.384   4.979   0.416  0.4082  0.4370 -0.5669
 3388TIP3    H131799   0.430   4.944   0.492  0.9924 -0.3088 -1.2514
 3388TIP3    H231800   0.437   5.052   0.387  2.2852 -1.5720 -2.5047
 3389TIP3   OH231801   6.731   3.207   0.349  0.6008 -0.4848 -1.2212
 3389TIP3    H131802   6.788   3.281   0.370  1.3969 -0.8777 -1.9717
 3389TIP3    H231803   6.767   3.133   0.398 -1.4665  0.0121  1.3297
 3390TIP3   OH231804   2.310   6.138   2.417  0.2880  0.1367 -0.0230
 3390TIP3    H131805   2.229   6.089   2.403 -0.0782  0.1931  1.6293
 3390TIP3    H231806   2.365   6.079   2.469  0.4578  0.8902  0.6735
 3391TIP3   OH231807   4.357   3.057   8.254 -0.5970 -0.1315 -0.5348
 3391TIP3    H131808   4.399   3.021   8.175 -0.9715 -0.1727 -0.7201
 3391TIP3    H231809   4.408   3.021   8.327 -0.4475 -0.3550 -0.7471
 3392TIP3   OH231810   2.146   5.764   7.692  0.5809  0.2435  0.5766
 3392TIP3    H131811   2.144   5.669   7.679 -0.5678  0.4139 -0.7066
 3392TIP3    H231812   2.239   5.786   7.696  0.8666 -0.8641  0.4048
 3393TIP3   OH231813   2.416   4.780   7.211 -0.4817  0.4971 -0.1843
 3393TIP3    H131814   2.443   4.783   7.302  0.8081  0.8565 -0.5608
 3393TIP3    H231815   2.320   4.776   7.214 -0.4496  0.5140  1.1713
 3394TIP3   OH231816   6.759   1.480   8.506  0.1406 -0.2564  0.4399
 3394TIP3    H131817   6.672   1.442   8.513  0.6823 -1.4078  1.3127
 3394TIP3    H231818   6.744   1.572   8.485 -1.2649 -0.5263  0.1843
 3395TIP3   OH231819   1.930   3.583   8.635 -0.3101  0.3826  0.8099
 3395TIP3    H131820   1.876   3.506   8.619  0.5806  0.0001 -0.5259
 3395TIP3    H231821   1.963   3.571   8.724  0.3244 -1.1381  0.4026
 3396TIP3   OH231822   6.762   5.662   1.967  0.0298 -0.1578  0.1709
 3396TIP3    H131823   6.711   5.718   2.025  0.9111  1.0213 -0.1611
 3396TIP3    H231824   6.722   5.576   1.976 -2.0993  0.7317 -0.1673
 3397TIP3   OH231825   6.518   3.185   1.722  0.1406 -0.1938  0.2935
 3397TIP3    H131826   6.529   3.148   1.634  0.5202 -0.4342  0.4403
 3397TIP3    H231827   6.552   3.118   1.781 -2.0073 -0.9425  0.7862
 3398TIP3   OH231828   2.376   6.319   8.457  0.0550 -0.1002  0.4931
 3398TIP3    H131829   2.391   6.250   8.522  1.7889  0.7153  1.0208
 3398TIP3    H231830   2.452   6.376   8.464  0.5293 -0.1559 -2.5142
 3399TIP3   OH231831   2.121   1.825   7.028  0.1112  0.1110  0.2858
 3399TIP3    H131832   2.178   1.893   6.994  2.1687 -2.0897 -0.9821
 3399TIP3    H231833   2.154   1.806   7.116  0.9054 -0.6146 -0.1488
 3400TIP3   OH231834   4.808   0.052   2.560 -0.2337 -0.8846 -0.0573
 3400TIP3    H131835   4.782   0.136   2.522  2.4037 -0.2213 -0.5506
 3400TIP3    H231836   4.835   0.074   2.650  0.3029 -1.2335 -0.1329
 3401TIP3   OH231837   5.075   5.987   8.800 -0.2536  0.8622  0.0516
 3401TIP3    H131838   5.165   5.954   8.806 -0.6562 -0.3541 -0.1825
 3401TIP3    H231839   5.026   5.929   8.859 -0.7419  2.0739  0.8638
 3402TIP3   OH231840   5.692   5.263   0.063 -0.1167  0.6433  0.3348
 3402TIP3    H131841   5.762   5.319   0.096 -1.2432  2.6514 -0.5619
 3402TIP3    H231842   5.697   5.273  -0.032 -1.2492  0.3453  0.2387
 3403TIP3   OH231843   5.971   3.159   1.526 -0.3430 -0.5154  0.2111
 3403TIP3    H131844   5.885   3.193   1.503  0.4048  2.3753  1.2441
 3403TIP3    H231845   6.010   3.135   1.442 -2.0301 -1.7568 -0.2816
 3404TIP3   OH231846   4.010   3.131   1.328  0.4861 -0.2299  0.2928
 3404TIP3    H131847   4.001   3.137   1.233  1.6145  0.4095  0.2144
 3404TIP3    H231848   3.921   3.146   1.362 -0.0846 -1.2765 -0.6772
 3405TIP3   OH231849   0.564   2.731   2.517 -0.5842 -0.4337  0.4228
 3405TIP3    H131850   0.633   2.797   2.523 -0.8256 -0.0413 -0.7408
 3405TIP3    H231851   0.552   2.700   2.607 -1.0096  1.6683  1.1620
 3406TIP3   OH231852   2.073   6.415   7.083  0.3099  0.2488  0.5280
 3406TIP3    H131853   2.125   6.486   7.045  0.2794 -0.6338 -1.2836
 3406TIP3    H231854   1.991   6.417   7.033  0.5834 -1.4772 -0.0575
 3407TIP3   OH231855   3.004   0.561   7.257 -0.2625 -0.5105 -0.2161
 3407TIP3    H131856   2.999   0.631   7.322  0.1702 -0.1826 -0.5334
 3407TIP3    H231857   3.040   0.486   7.306  0.4780 -0.1376 -0.1789
 3408TIP3   OH231858   4.873   4.952   1.445  0.3215  0.5327 -0.6342
 3408TIP3    H131859   4.796   5.001   1.472  0.1469  1.1362 -2.1147
 3408TIP3    H231860   4.849   4.915   1.360  1.2887 -0.1674 -0.6170
 3409TIP3   OH231861   4.076   5.076   0.575  0.2861  0.3258  0.2475
 3409TIP3    H131862   4.020   5.010   0.618  0.4524  0.7659  1.1546
 3409TIP3    H231863   4.014   5.139   0.538  0.1426 -0.0373 -0.1411
 3410TIP3   OH231864   1.947   5.828   1.696  0.2850  0.1423 -0.3915
 3410TIP3    H131865   2.009   5.826   1.623 -1.1471 -0.0854 -1.6361
 3410TIP3    H231866   1.922   5.921   1.704 -2.1316 -0.2278 -2.5022
 3411TIP3   OH231867   5.315   3.945   3.266  0.4837  0.7413  0.3982
 3411TIP3    H131868   5.222   3.955   3.246  0.3230  2.0865  1.5978
 3411TIP3    H231869   5.333   3.852   3.251 -1.3842  0.1559  1.4221
 3412TIP3   OH231870   1.382   6.809   0.577 -0.4535 -0.3070  0.3959
 3412TIP3    H131871   1.476   6.790   0.577 -0.2363  0.6403 -1.2764
 3412TIP3    H231872   1.366   6.846   0.664  0.6638 -0.7203  0.7965
 3413TIP3   OH231873   0.902   3.939   2.464  0.6853 -0.3666 -0.4263
 3413TIP3    H131874   0.863   3.998   2.528  0.7227  1.3439 -1.9143
 3413TIP3    H231875   0.880   3.978   2.379  0.1481 -2.8556 -1.5205
 3414TIP3   OH231876   0.933   2.348   2.689  0.4398 -0.1974 -0.3626
 3414TIP3    H131877   0.910   2.431   2.730  1.0173  1.0406 -2.3699
 3414TIP3    H231878   0.858   2.290   2.707 -0.1257  0.8640  0.7791
 3415TIP3   OH231879   4.315   4.203   8.375  0.4841 -0.5754 -0.0649
 3415TIP3    H131880   4.303   4.126   8.319 -1.4825 -1.0914  1.0008
 3415TIP3    H231881   4.345   4.167   8.458  0.8208 -0.0446  0.0490
 3416TIP3   OH231882   0.570   3.299   1.258  0.4478  0.2510 -0.3466
 3416TIP3    H131883   0.579   3.393   1.240 -1.0934  0.6354  0.7052
 3416TIP3    H231884   0.578   3.258   1.172 -1.7881  1.6147 -1.2850
 3417TIP3   OH231885   5.012   5.847   1.779  0.1498  0.4011 -0.4867
 3417TIP3    H131886   4.999   5.797   1.698 -0.6635 -1.5339  0.7711
 3417TIP3    H231887   5.104   5.835   1.801 -0.1018 -0.8382 -0.0442
 3418TIP3   OH231888   2.909   5.080   1.954 -0.6794  0.1985  0.1449
 3418TIP3    H131889   2.914   4.985   1.970 -0.1365  0.2388  0.2274
 3418TIP3    H231890   2.984   5.116   2.000 -0.2407  0.5443 -0.8220
 3419TIP3   OH231891   5.707   5.946   2.528 -0.1951  0.0630 -0.1153
 3419TIP3    H131892   5.613   5.946   2.547 -0.1271  2.0063  0.4597
 3419TIP3    H231893   5.713   5.964   2.434 -0.4013  0.1491 -0.1122
 3420TIP3   OH231894   6.439   1.761   0.256 -0.2916  0.6012  0.0138
 3420TIP3    H131895   6.532   1.780   0.270 -0.2931  0.4310  0.2714
 3420TIP3    H231896   6.409   1.728   0.341  0.1189 -2.1718 -0.8104
 3421TIP3   OH231897   1.148   2.223   7.580 -0.0125  0.2768  0.1030
 3421TIP3    H131898   1.125   2.130   7.573  0.0541  0.3222 -0.7696
 3421TIP3    H231899   1.241   2.226   7.559 -0.5718  0.8553 -2.6814
 3422TIP3   OH231900   2.798   2.444   8.802  0.3801  0.0531  0.8479
 3422TIP3    H131901   2.729   2.504   8.776  0.8418  0.1627 -0.1954
 3422TIP3    H231902   2.879   2.492   8.784  0.7739 -1.0727 -0.6023
 3423TIP3   OH231903   0.421   1.383   1.762 -0.5279 -0.2756 -0.1037
 3423TIP3    H131904   0.471   1.343   1.833 -0.9136 -0.3343  0.1382
 3423TIP3    H231905   0.329   1.372   1.788 -0.6754 -0.3332 -0.6276
 3424TIP3   OH231906   3.998   0.246   7.605  0.0023  0.4406 -0.7642
 3424TIP3    H131907   3.995   0.258   7.510  0.3922  0.6834 -0.7474
 3424TIP3    H231908   4.037   0.327   7.638  1.0502 -0.1595 -0.5009
 3425TIP3   OH231909   0.206   0.492   0.322 -0.1028  0.1574 -0.1353
 3425TIP3    H131910   0.238   0.579   0.343 -0.4871  0.2265  0.1959
 3425TIP3    H231911   0.243   0.436   0.390 -0.8814  0.2831  0.4096
 3426TIP3   OH231912   3.058   4.910   1.717  0.2985  0.0647 -0.2312
 3426TIP3    H131913   2.962   4.910   1.718  0.2717  1.4316  0.2860
 3426TIP3    H231914   3.082   4.878   1.804  0.2824  0.6074 -0.0220
 3427TIP3   OH231915   0.174   0.541   1.722  0.0647  0.0104  0.1499
 3427TIP3    H131916   0.206   0.452   1.711 -2.2485 -0.8148 -0.4611
 3427TIP3    H231917   0.213   0.590   1.650 -0.0690 -0.9515 -0.5952
 3428TIP3   OH231918   5.227   0.467   7.173  0.4139 -0.4006  0.0764
 3428TIP3    H131919   5.297   0.405   7.155  1.0707 -0.0821  1.4272
 3428TIP3    H231920   5.197   0.495   7.086  1.1603 -1.4059 -0.5300
 3429TIP3   OH231921   0.524   4.378   0.687  0.0962 -0.7042 -0.6340
 3429TIP3    H131922   0.486   4.459   0.720  3.8499  1.8242 -1.8655
 3429TIP3    H231923   0.558   4.334   0.764 -0.6090 -0.3486 -0.1079
 3430TIP3   OH231924   2.430   6.348   7.678  0.0089 -0.0399  0.1937
 3430TIP3    H131925   2.344   6.389   7.685 -0.3676 -0.9351  1.1232
 3430TIP3    H231926   2.490   6.413   7.714 -0.3438  0.3868  0.0162
 3431TIP3   OH231927   6.816   1.960   0.518 -0.3328 -0.0188  0.2951
 3431TIP3    H131928   6.845   1.886   0.571  2.6329  1.5497  1.1083
 3431TIP3    H231929   6.730   1.983   0.554  0.1394 -1.0561  2.2225
 3432TIP3   OH231930   2.333   0.841   2.286 -0.2422 -0.3507  0.6813
 3432TIP3    H131931   2.380   0.925   2.280 -0.5990 -0.1459  0.7383
 3432TIP3    H231932   2.402   0.778   2.308  0.2319 -0.2878 -0.5676
 3433TIP3   OH231933   3.466   3.894   8.170  0.9626  0.2207  0.6792
 3433TIP3    H131934   3.540   3.910   8.228  1.7259  3.1767 -0.8899
 3433TIP3    H231935   3.404   3.965   8.190 -0.3033 -0.6957  0.1876
 3434TIP3   OH231936   5.266   6.597   7.168  0.2505 -0.3827  0.0920
 3434TIP3    H131937   5.227   6.510   7.174  1.4746 -0.9058  0.9121
 3434TIP3    H231938   5.193   6.658   7.185 -0.2817 -1.3086  1.2942
 3435TIP3   OH231939   4.224   0.944   8.445  0.6370  0.2438  0.2206
 3435TIP3    H131940   4.259   0.923   8.532  1.1014  2.2933  0.5687
 3435TIP3    H231941   4.130   0.960   8.461  0.5900 -0.0292  0.2228
 3436TIP3   OH231942   2.913   2.682   7.719 -0.2868 -0.2237 -0.5290
 3436TIP3    H131943   2.922   2.736   7.641  1.1043 -0.2309 -0.4115
 3436TIP3    H231944   3.001   2.680   7.757 -0.8239 -0.6210  0.7720
 3437TIP3   OH231945   5.467   5.452   7.987  0.2967  0.3233  0.3057
 3437TIP3    H131946   5.489   5.396   7.912 -0.4742  1.1667 -0.5847
 3437TIP3    H231947   5.375   5.435   8.004 -0.0460  1.5286 -0.1983
 3438TIP3   OH231948   0.316   2.198   8.172 -0.1745  0.2682 -0.3480
 3438TIP3    H131949   0.260   2.162   8.102  0.1693 -1.0073  0.0128
 3438TIP3    H231950   0.369   2.124   8.201  0.3761  1.0189  0.6152
 3439TIP3   OH231951   0.823   4.209   0.125  0.0042 -0.1009 -0.0019
 3439TIP3    H131952   0.863   4.211   0.038  0.6212 -1.7169  0.2040
 3439TIP3    H231953   0.729   4.210   0.108  0.1060  1.1121 -0.6035
 3440TIP3   OH231954   0.840   4.509   1.251  0.2085  0.1396 -0.2892
 3440TIP3    H131955   0.749   4.505   1.280 -0.3469  0.1612 -1.9317
 3440TIP3    H231956   0.835   4.538   1.159  1.6131 -3.0650 -1.5277
 3441TIP3   OH231957   3.058   1.973   0.702  0.1182  0.0546  0.3055
 3441TIP3    H131958   3.147   1.950   0.729 -0.5874  0.1902  3.0091
 3441TIP3    H231959   3.016   1.889   0.685  0.0601 -0.1671  1.4989
 3442TIP3   OH231960   6.504   4.434   1.604  0.5900 -0.0764  0.2287
 3442TIP3    H131961   6.532   4.432   1.696 -0.6014 -1.3592  0.6052
 3442TIP3    H231962   6.428   4.493   1.604 -0.4580 -1.3749  0.4314
 3443TIP3   OH231963   0.758   0.721   0.363  0.5201 -0.3172 -0.2743
 3443TIP3    H131964   0.677   0.767   0.383  0.5930 -0.1058 -0.4631
 3443TIP3    H231965   0.765   0.725   0.267  0.6801 -0.4605 -0.2693
 3444TIP3   OH231966   0.350   4.413   8.215  0.3944  0.6802  0.1763
 3444TIP3    H131967   0.312   4.363   8.288 -0.5506  1.3978  0.1800
 3444TIP3    H231968   0.431   4.366   8.195  0.3300  0.0741  1.2414
 3445TIP3   OH231969   1.721   0.498   1.162  0.4709 -0.3468  0.1246
 3445TIP3    H131970   1.737   0.437   1.233  1.0134 -0.8605 -0.4208
 3445TIP3    H231971   1.639   0.542   1.185 -0.5973 -2.1699 -0.0715
 3446TIP3   OH231972   3.096   6.588   0.441  0.5702  0.4010 -0.4696
 3446TIP3    H131973   3.016   6.614   0.485 -0.6711 -1.6492 -1.3292
 3446TIP3    H231974   3.157   6.564   0.511 -1.0381 -1.9095  0.2701
 3447TIP3   OH231975   5.709   1.550   8.374  0.1744  0.5423  0.4308
 3447TIP3    H131976   5.689   1.481   8.437  0.6851 -0.1663 -0.1623
 3447TIP3    H231977   5.624   1.587   8.351 -0.2099 -0.5634  0.0120
 3448TIP3   OH231978   1.020   3.283   0.327 -0.1790  0.0294  0.1280
 3448TIP3    H131979   1.082   3.289   0.255  0.9139  0.5124  1.0849
 3448TIP3    H231980   1.069   3.244   0.399 -0.3665  2.1678  1.5086
 3449TIP3   OH231981   3.330   2.486   8.602  0.4075  0.0937  0.1862
 3449TIP3    H131982   3.411   2.436   8.605  0.6516  0.4437 -0.4935
 3449TIP3    H231983   3.309   2.493   8.509 -0.5502 -0.2358  0.3686
 3450TIP3   OH231984   3.594   3.985   7.223  0.3518  0.5380 -0.1003
 3450TIP3    H131985   3.624   4.014   7.137  1.2646 -0.1145 -0.0187
 3450TIP3    H231986   3.545   3.905   7.206 -0.4570  1.0270 -0.1210
 3451TIP3   OH231987   3.279   0.723   1.472  0.3939  0.0157  0.5035
 3451TIP3    H131988   3.189   0.736   1.444 -0.0630 -0.9168  1.4642
 3451TIP3    H231989   3.310   0.649   1.419  0.7637  0.6181 -0.1467
 3452TIP3   OH231990   4.555   2.743   8.179  0.1440 -0.1956  0.1671
 3452TIP3    H131991   4.513   2.714   8.098  0.0235 -0.0618  0.1833
 3452TIP3    H231992   4.578   2.834   8.162  2.2098 -0.7932 -0.5916
 3453TIP3   OH231993   4.851   0.197   0.817 -0.2906  0.2991  0.3260
 3453TIP3    H131994   4.858   0.106   0.787  0.9175  0.6618 -0.5824
 3453TIP3    H231995   4.906   0.200   0.896 -0.9478  0.0783  0.8027
 3454TIP3   OH231996   4.872   2.185   6.968  0.2279 -0.3692  0.6184
 3454TIP3    H131997   4.936   2.215   6.903  0.0408 -0.3035  0.4645
 3454TIP3    H231998   4.902   2.097   6.992  0.7760 -0.0733  1.0667
 3455TIP3   OH231999   3.592   0.130   7.023  0.0452  0.5870 -0.1748
 3455TIP3    H132000   3.635   0.085   6.951 -1.6590  1.1170 -1.5884
 3455TIP3    H232001   3.517   0.076   7.044  1.6469 -0.7352  2.7937
 3456TIP3   OH232002   2.241   0.210   6.616  0.7944  0.5722 -0.1293
 3456TIP3    H132003   2.152   0.177   6.630  1.0781 -0.4138 -0.5492
 3456TIP3    H232004   2.230   0.305   6.605 -0.0652  0.6153  0.9411
 3457TIP3   OH232005   5.176   1.637   7.877 -0.1854 -0.4475  0.3641
 3457TIP3    H132006   5.204   1.572   7.813  2.1790  0.5424  0.3080
 3457TIP3    H232007   5.107   1.686   7.832  2.1202  0.9257 -1.9705
 3458TIP3   OH232008   1.060   3.053   1.552 -0.1964 -0.0624 -0.3711
 3458TIP3    H132009   1.132   3.114   1.562 -1.2143  1.2899 -0.9243
 3458TIP3    H232010   0.988   3.092   1.602 -0.6232 -1.2426 -0.0379
 3459TIP3   OH232011   0.586   4.077   0.335 -0.1053 -0.0734 -0.2595
 3459TIP3    H132012   0.545   4.143   0.280 -0.4253  0.3081  0.4149
 3459TIP3    H232013   0.644   4.127   0.393  1.9055 -0.6564 -1.6551
 3460TIP3   OH232014   1.879   1.459   2.051  0.2208 -0.6133 -0.3412
 3460TIP3    H132015   1.850   1.440   2.140 -0.8630 -0.6448 -0.6909
 3460TIP3    H232016   1.908   1.374   2.017  0.8189 -0.5648  0.0443
 3461TIP3   OH232017   3.401   1.660   1.134  0.0668  0.0892 -0.3483
 3461TIP3    H132018   3.462   1.687   1.066  1.4882  0.1092  0.8940
 3461TIP3    H232019   3.445   1.680   1.216 -0.1712 -2.9158  0.6441
 3462TIP3   OH232020   2.325   6.322   1.279  0.2361 -0.2683  0.2115
 3462TIP3    H132021   2.240   6.364   1.262  1.1741  0.9530 -1.8212
 3462TIP3    H232022   2.388   6.393   1.273  1.6263 -1.5239 -0.5975
 3463TIP3   OH232023   5.942   4.798   7.991 -0.2639  1.0814 -0.2604
 3463TIP3    H132024   5.957   4.706   8.010  0.4005  0.9040 -1.5953
 3463TIP3    H232025   5.993   4.845   8.058  1.8245  0.4739 -1.3677
 3464TIP3   OH232026   1.503   5.591   1.996 -0.2373  0.2250  0.8151
 3464TIP3    H132027   1.453   5.514   2.022  0.1377 -0.2388  0.1787
 3464TIP3    H232028   1.593   5.561   1.990 -0.0913  0.7038  0.5443
 3465TIP3   OH232029   0.960   2.497   1.936 -0.0559 -0.0497  0.5412
 3465TIP3    H132030   0.895   2.567   1.930  0.3837  0.2274 -2.3383
 3465TIP3    H232031   0.982   2.477   1.845  2.2052 -1.7302  1.3664
 3466TIP3   OH232032   1.444   0.981   1.593  0.1728  0.5311 -0.0112
 3466TIP3    H132033   1.487   0.916   1.538  0.8185 -0.7827  1.9550
 3466TIP3    H232034   1.514   1.016   1.649 -0.7644  0.4354  1.2702
 3467TIP3   OH232035   5.028   5.432   1.317  0.0824  0.0070 -0.0102
 3467TIP3    H132036   5.039   5.356   1.260  0.6838  1.1077 -1.4429
 3467TIP3    H232037   5.014   5.505   1.257  0.5937  1.2111  1.2657
 3468TIP3   OH232038   0.979   3.084   7.773  0.2906 -0.1832  0.7367
 3468TIP3    H132039   0.994   3.049   7.685 -1.2993 -0.8547  0.6907
 3468TIP3    H232040   0.965   3.177   7.759  1.5526 -0.0134  0.4847
 3469TIP3   OH232041   0.327   4.660   2.471  0.1611 -0.1351 -0.4836
 3469TIP3    H132042   0.340   4.665   2.566  1.1576  0.5148 -0.6408
 3469TIP3    H232043   0.408   4.693   2.434 -0.5383  0.4290 -1.5705
 3470TIP3   OH232044   1.608   4.577   7.630 -0.1409  0.3004 -0.5000
 3470TIP3    H132045   1.591   4.669   7.608  1.7946  0.5988 -0.9832
 3470TIP3    H232046   1.528   4.547   7.673  0.0099  2.8724  1.7979
 3471TIP3   OH232047   0.329   1.892   0.314  0.4511  0.3976 -0.0443
 3471TIP3    H132048   0.265   1.910   0.245 -0.4930 -0.8521  0.4859
 3471TIP3    H232049   0.318   1.800   0.335  0.1995  0.9008  2.3009
 3472TIP3   OH232050   1.698   1.119   2.196  0.4112  0.0907 -0.2181
 3472TIP3    H132051   1.676   1.032   2.229  0.7707  0.0205 -0.1523
 3472TIP3    H232052   1.792   1.114   2.175  0.3375  0.3334 -0.6237
 3473TIP3   OH232053   3.644   6.074   0.740  0.0492 -0.1160 -0.3485
 3473TIP3    H132054   3.714   6.077   0.805 -0.1308 -3.8512  0.2198
 3473TIP3    H232055   3.564   6.090   0.789  0.1409 -0.2826 -0.1438
 3474TIP3   OH232056   0.791   0.940   7.519  0.0490  1.2430 -0.4184
 3474TIP3    H132057   0.785   0.947   7.424 -0.1578  1.8061 -0.3661
 3474TIP3    H232058   0.794   1.030   7.550  1.0802  1.0659  0.0525
 3475TIP3   OH232059   1.695   3.147   8.821 -0.3843  0.0478 -1.0277
 3475TIP3    H132060   1.743   3.230   8.813  2.9146 -1.4654  0.7810
 3475TIP3    H232061   1.673   3.141   8.914 -0.9970 -0.8724 -1.2226
 3476TIP3   OH232062   0.559   0.914   0.425 -0.1188  0.6817  0.8635
 3476TIP3    H132063   0.507   0.945   0.499 -0.8780  2.5064 -0.3817
 3476TIP3    H232064   0.609   0.991   0.396  1.8094 -0.5192  0.7743
 3477TIP3   OH232065   1.708   6.640   1.035 -0.9101  0.0952 -0.2756
 3477TIP3    H132066   1.786   6.586   1.043 -0.6507  0.2430 -1.5212
 3477TIP3    H232067   1.712   6.701   1.109  1.2951  1.5045 -1.4540
 3478TIP3   OH232068   6.126   3.135   1.278 -0.2315 -0.4094  0.0741
 3478TIP3    H132069   6.151   3.202   1.214  1.2615 -1.3801 -0.4190
 3478TIP3    H232070   6.210   3.097   1.306 -0.8853 -0.4127  2.1849
 3479TIP3   OH232071   1.298   2.387   1.839 -0.1890  0.1422 -0.7171
 3479TIP3    H132072   1.246   2.312   1.811  0.8045 -0.8963  0.1016
 3479TIP3    H232073   1.389   2.360   1.825  0.1775  1.5287 -1.2085
 3480TIP3   OH232074   6.304   4.499   1.853 -0.3425  0.7439  0.6879
 3480TIP3    H132075   6.246   4.525   1.781  0.0045  1.1621  0.5489
 3480TIP3    H232076   6.355   4.578   1.871 -0.7802  0.8036  1.7474
 3481TIP3   OH232077   6.305   6.118   8.455 -0.3949 -0.2886  0.2539
 3481TIP3    H132078   6.267   6.122   8.543  0.7612  1.1486  0.7221
 3481TIP3    H232079   6.315   6.210   8.429 -0.5967 -0.6855 -1.3469
 3482TIP3   OH232080   6.261   1.921   2.486  0.2568 -0.1070 -0.3234
 3482TIP3    H132081   6.273   1.828   2.465  0.1192 -0.3392  0.5887
 3482TIP3    H232082   6.283   1.967   2.405  2.5055 -0.8030 -0.1711
 3483TIP3   OH232083   0.485   4.584   1.006 -0.3821  0.3105  0.0436
 3483TIP3    H132084   0.402   4.627   1.027 -2.6878 -3.3037 -0.8491
 3483TIP3    H232085   0.516   4.629   0.927 -1.6496  1.5251  0.2028
 3484TIP3   OH232086   1.649   2.414   1.084  0.0072 -0.2375  0.2538
 3484TIP3    H132087   1.699   2.430   1.164 -0.2685 -0.2712  0.4323
 3484TIP3    H232088   1.576   2.358   1.111 -2.6547  3.2044  0.9322
 3485TIP3   OH232089   4.643   4.169   0.007  0.1323 -0.0911  0.2439
 3485TIP3    H132090   4.611   4.143  -0.079  3.0356 -3.1469 -0.0818
 3485TIP3    H232091   4.596   4.112   0.068  1.2325 -1.0772  0.2067
 3486TIP3   OH232092   4.698   1.243   2.020  0.2029  0.4783  0.1106
 3486TIP3    H132093   4.779   1.249   1.969 -1.1805 -0.3466 -2.3513
 3486TIP3    H232094   4.667   1.154   2.005 -0.3993  0.2699  2.3168
 3487TIP3   OH232095   5.212   2.823   8.272  0.7603  0.2700 -0.7828
 3487TIP3    H132096   5.165   2.743   8.296 -0.7246  0.7561 -1.8825
 3487TIP3    H232097   5.244   2.858   8.356 -2.8574  1.0958  0.4632
 3488TIP3   OH232098   6.530   0.318   1.202 -0.1134  0.6841  0.6084
 3488TIP3    H132099   6.620   0.344   1.223 -0.0555  1.7201 -0.7573
 3488TIP3    H232100   6.478   0.398   1.214 -0.8113  0.1671  1.1160
 3489TIP3   OH232101   2.142   1.401   0.357 -0.1661 -0.2990  0.7605
 3489TIP3    H132102   2.223   1.429   0.313 -0.6269 -0.0825  0.0287
 3489TIP3    H232103   2.126   1.313   0.323 -0.7244  0.0121  0.1996
 3490TIP3   OH232104   5.075   3.705   8.832 -0.0241 -0.1447 -0.2684
 3490TIP3    H132105   5.103   3.740   8.916  1.2058  0.1153 -0.7656
 3490TIP3    H232106   5.110   3.616   8.830  0.1352 -0.0792 -0.5804
 3491TIP3   OH232107   3.200   2.482   0.040 -0.3274  0.3547 -0.0305
 3491TIP3    H132108   3.156   2.507  -0.041 -1.4359  0.6106  0.6250
 3491TIP3    H232109   3.282   2.531   0.038 -0.5886  0.7873 -0.7488
 3492TIP3   OH232110   0.114   3.921   8.740  0.3029  0.6794 -0.7236
 3492TIP3    H132111   0.071   3.930   8.655  0.3716  2.4862 -0.5970
 3492TIP3    H232112   0.112   4.009   8.778  0.5174 -0.0314  1.0398
 3493TIP3   OH232113   0.419   6.510   2.438  0.4977  0.6116 -0.4200
 3493TIP3    H132114   0.353   6.453   2.399  1.2918 -0.5499 -0.1344
 3493TIP3    H232115   0.501   6.481   2.400  0.8510  2.0980 -0.8403
 3494TIP3   OH232116   6.791   2.484   2.146  0.2074 -0.7135  0.1039
 3494TIP3    H132117   6.821   2.433   2.071  0.5229 -1.2927  0.6215
 3494TIP3    H232118   6.836   2.568   2.137  1.9275 -1.5153  0.7902
 3495TIP3   OH232119   6.546   2.034   1.986 -0.0859  0.4111  0.1587
 3495TIP3    H132120   6.578   1.974   2.054 -1.0153  0.8576  1.0196
 3495TIP3    H232121   6.544   1.980   1.906  1.2876 -0.0415  0.3972
 3496TIP3   OH232122   6.091   3.763   0.721  0.6616  0.0728 -0.0988
 3496TIP3    H132123   6.018   3.723   0.770 -0.6169  2.7109  0.3672
 3496TIP3    H232124   6.082   3.730   0.632 -1.9325  1.2055 -0.3472
 3497TIP3   OH232125   4.470   0.670   6.950 -0.4159 -0.1044 -0.2911
 3497TIP3    H132126   4.399   0.606   6.954  0.5870 -1.5851 -3.3352
 3497TIP3    H232127   4.550   0.618   6.952  0.5373  1.3165  0.1993
 3498TIP3   OH232128   5.209   3.202   8.037 -0.3626 -0.3938  0.3847
 3498TIP3    H132129   5.280   3.266   8.026  0.2073 -1.2726 -1.3200
 3498TIP3    H232130   5.252   3.125   8.075 -0.8427 -0.1937  1.3776
 3499TIP3   OH232131   6.262   3.656   1.673  0.3145 -0.4179  0.1996
 3499TIP3    H132132   6.356   3.654   1.691  0.5853  0.8306 -0.9631
 3499TIP3    H232133   6.221   3.645   1.759  1.5140 -0.6500  0.7583
 3500TIP3   OH232134   3.170   4.185   1.592 -0.0209 -0.2765 -0.5218
 3500TIP3    H132135   3.143   4.093   1.595  1.3334 -0.7523 -1.7991
 3500TIP3    H232136   3.259   4.185   1.627  0.6394  0.2486 -2.1088
 3501TIP3   OH232137   5.901   0.439   0.247  0.1116 -0.4422 -0.0483
 3501TIP3    H132138   5.864   0.351   0.249  0.6913 -0.6870  0.1552
 3501TIP3    H232139   5.975   0.435   0.307  0.4064  0.0633 -0.3715
 3502TIP3   OH232140   2.008   0.541   0.790  0.6017 -0.0771  0.5419
 3502TIP3    H132141   2.057   0.623   0.786 -2.2813  1.7260 -1.3722
 3502TIP3    H232142   1.932   0.561   0.844 -1.3809 -0.6319 -1.8641
 3503TIP3   OH232143   0.335   1.631   0.864 -0.7453 -0.5227  0.3515
 3503TIP3    H132144   0.301   1.595   0.782 -0.4114  0.2875 -0.1544
 3503TIP3    H232145   0.421   1.591   0.874 -0.1068  0.5506 -0.5327
 3504TIP3   OH232146   3.496   6.054   0.071 -0.0176  0.4960 -0.1969
 3504TIP3    H132147   3.447   6.091  -0.003 -3.1459 -0.1987  1.3239
 3504TIP3    H232148   3.433   6.055   0.143  2.2429 -0.7282  1.9349
 3505TIP3   OH232149   4.673   4.119   8.370  0.0299  0.5495 -0.3103
 3505TIP3    H132150   4.654   4.208   8.342  0.0631  0.1169 -1.7770
 3505TIP3    H232151   4.623   4.064   8.310  1.2231 -0.4585 -0.4233
 3506TIP3   OH232152   0.746   2.387   1.718  0.5750  0.1519  0.5460
 3506TIP3    H132153   0.717   2.370   1.807 -0.5504 -0.0775  0.1518
 3506TIP3    H232154   0.701   2.468   1.693  0.6807  0.0800  0.1015
 3507TIP3   OH232155   3.393   4.571   1.522  0.8965 -0.1839  0.1937
 3507TIP3    H132156   3.360   4.580   1.611  1.3279  1.6658  0.2052
 3507TIP3    H232157   3.458   4.641   1.513  0.1094  0.3509 -1.9097
 3508TIP3   OH232158   3.215   3.680   7.985 -0.3075  0.0648  0.3091
 3508TIP3    H132159   3.290   3.668   8.044 -0.0443  1.0331  0.1921
 3508TIP3    H232160   3.233   3.621   7.912 -0.5707 -1.0478  1.1258
 3509TIP3   OH232161   6.308   4.840   1.611  0.2433 -0.2849  0.5903
 3509TIP3    H132162   6.221   4.809   1.636  0.6108  0.5662  3.2546
 3509TIP3    H232163   6.366   4.804   1.678  1.3106  2.4336  1.2674
 3510TIP3   OH232164   3.565   4.893   1.114  0.0105 -0.6314  0.7226
 3510TIP3    H132165   3.599   4.805   1.097 -1.4648 -1.0567 -0.2912
 3510TIP3    H232166   3.572   4.938   1.030 -0.8356 -0.3792  0.7716
 3511TIP3   OH232167   4.191   3.275   8.067  0.1168 -0.2144 -0.4721
 3511TIP3    H132168   4.236   3.359   8.062  0.3690 -0.2258  1.0447
 3511TIP3    H232169   4.132   3.284   8.142  0.4138 -1.4953 -0.0493
 3512TIP3   OH232170   0.820   0.780   1.442 -0.0976 -0.1512 -0.2108
 3512TIP3    H132171   0.848   0.849   1.503 -0.4543 -0.2948  0.1195
 3512TIP3    H232172   0.849   0.699   1.483  0.7954 -0.1698 -0.8615
 3513TIP3   OH232173   6.210   4.614   0.380 -0.4319 -0.0100  0.4362
 3513TIP3    H132174   6.256   4.572   0.307 -0.1312  1.1460 -0.0472
 3513TIP3    H232175   6.251   4.575   0.458  1.2203  0.7925  0.0173
 3514TIP3   OH232176   3.544   4.070   2.465  0.4655 -0.0861  0.1327
 3514TIP3    H132177   3.530   4.022   2.383  1.3797  0.1255 -0.1661
 3514TIP3    H232178   3.556   4.161   2.437  1.2500 -0.0892  0.4516
 3515TIP3   OH232179   5.260   6.520   8.387  0.4637  0.3882  0.0133
 3515TIP3    H132180   5.322   6.537   8.317  0.7150 -0.5526 -0.0131
 3515TIP3    H232181   5.206   6.447   8.354 -1.2885  1.7853 -0.3615
 3516TIP3   OH232182   0.008   2.482   0.816 -0.7053  0.1563  0.1516
 3516TIP3    H132183  -0.065   2.540   0.796 -0.2234  0.1642 -1.8049
 3516TIP3    H232184   0.012   2.422   0.742  2.9423  1.8761 -1.2741
 3517TIP3   OH232185   3.656   3.788   1.111  0.7983 -0.1646 -0.2782
 3517TIP3    H132186   3.678   3.864   1.165  0.1618 -0.9297  1.1081
 3517TIP3    H232187   3.716   3.719   1.141 -1.2040 -1.3336  1.3063
 3518TIP3   OH232188   1.973   0.915   8.155  0.4120  0.1977 -0.8182
 3518TIP3    H132189   2.064   0.906   8.128  1.6020  0.0694  2.7607
 3518TIP3    H232190   1.925   0.854   8.098  2.7050 -0.6115 -2.0079
 3519TIP3   OH232191   4.106   1.577   1.988  0.0859  0.0584 -0.8748
 3519TIP3    H132192   4.072   1.496   2.026  0.9130 -0.4294 -1.1494
 3519TIP3    H232193   4.053   1.589   1.909 -1.5590  1.0183  0.3181
 3520TIP3   OH232194   1.281   2.044   0.726  0.3487 -0.0588 -0.3617
 3520TIP3    H132195   1.326   2.016   0.647 -0.2079  1.0811 -1.1088
 3520TIP3    H232196   1.346   2.098   0.772  0.1274  0.6783 -0.8950
 3521TIP3   OH232197   0.530   5.842   0.199 -0.0363 -0.5935 -0.6097
 3521TIP3    H132198   0.434   5.841   0.195 -0.1957  0.9190  1.3881
 3521TIP3    H232199   0.558   5.844   0.107 -1.8781 -1.8042 -1.2394
 3522TIP3   OH232200   4.831   4.874   0.371 -0.0458  0.2371 -0.1001
 3522TIP3    H132201   4.803   4.832   0.453  0.3665 -2.0538 -1.0417
 3522TIP3    H232202   4.756   4.862   0.312  0.1794  0.6280 -0.4676
 3523TIP3   OH232203   6.371   0.782   2.716 -0.0497  0.0874 -0.1304
 3523TIP3    H132204   6.290   0.826   2.742 -0.8445  0.4568 -2.9515
 3523TIP3    H232205   6.440   0.831   2.761 -1.3017 -0.1443  2.2211
 3524TIP3   OH232206   6.191   3.535   2.033 -0.3853 -0.0091 -0.2218
 3524TIP3    H132207   6.268   3.488   2.001  0.3913  0.7519  0.4817
 3524TIP3    H232208   6.211   3.627   2.016 -0.1332  0.3914  1.9872
 3525TIP3   OH232209   1.990   6.142   0.208  0.5203 -0.0375  0.1374
 3525TIP3    H132210   2.058   6.129   0.275 -2.9796 -1.1074  3.8610
 3525TIP3    H232211   1.981   6.057   0.166  0.7445 -0.1680  0.3482
 3526TIP3   OH232212   2.070   2.564   7.403 -0.0139 -0.1565  0.6274
 3526TIP3    H132213   2.091   2.641   7.455  0.9890  0.2045 -0.2801
 3526TIP3    H232214   1.990   2.529   7.443 -0.8057  1.6482  0.7200
 3527TIP3   OH232215   5.562   4.600   1.828  0.4877 -0.3714  0.5613
 3527TIP3    H132216   5.474   4.622   1.859  0.1059 -0.5108 -0.3962
 3527TIP3    H232217   5.559   4.505   1.815  0.6204 -0.3083  0.0500
 3528TIP3   OH232218   5.313   6.231   7.646  0.2438  0.6662 -0.0524
 3528TIP3    H132219   5.395   6.226   7.597 -1.4249 -2.6189 -2.9202
 3528TIP3    H232220   5.249   6.266   7.584 -1.0191  1.1211  1.4278
 3529TIP3   OH232221   6.018   4.410   0.505  0.5592  0.5370  0.4716
 3529TIP3    H132222   6.102   4.439   0.468 -0.6379  2.0525 -1.2129
 3529TIP3    H232223   6.030   4.316   0.521  2.0798  0.3971 -1.1902
 3530TIP3   OH232224   4.315   1.199   2.165 -0.2795 -0.6746  0.4424
 3530TIP3    H132225   4.308   1.107   2.189 -1.0545 -0.9704 -0.7964
 3530TIP3    H232226   4.309   1.199   2.069 -0.6796  0.6927  0.4472
 3531TIP3   OH232227   5.991   0.433   2.553 -0.2943 -0.0972  0.2179
 3531TIP3    H132228   6.047   0.506   2.575 -0.6281  0.5985 -1.1353
 3531TIP3    H232229   5.902   0.470   2.551 -0.8820 -1.1830  2.3816
 3532TIP3   OH232230   5.431   0.366   2.827  0.1516  0.2345 -0.4716
 3532TIP3    H132231   5.492   0.436   2.849 -1.2710  1.5357 -0.4491
 3532TIP3    H232232   5.420   0.372   2.732  0.1606 -0.0635 -0.4907
 3533TIP3   OH232233   2.145   1.114   0.998 -0.6530  0.0013 -0.5645
 3533TIP3    H132234   2.104   1.119   0.912 -2.7240 -2.6149  0.1608
 3533TIP3    H232235   2.081   1.152   1.058  0.3777  0.9384 -0.0130
 3534TIP3   OH232236   1.343   4.631   1.304  0.2404 -0.3102 -0.2627
 3534TIP3    H132237   1.299   4.649   1.388  1.7263  1.2063  0.2560
 3534TIP3    H232238   1.275   4.642   1.238 -0.6936 -0.3744  0.6613
 3535TIP3   OH232239   0.879   3.126   8.299  0.0111  0.0319 -0.3341
 3535TIP3    H132240   0.823   3.202   8.286 -2.9101 -2.1014 -1.1185
 3535TIP3    H232241   0.842   3.058   8.243  1.9336 -2.2590  0.9736
 3536TIP3   OH232242   3.855   2.886   1.597  0.2839  0.5577  0.0135
 3536TIP3    H132243   3.854   2.845   1.511 -2.3823  0.3436  0.0582
 3536TIP3    H232244   3.898   2.822   1.654 -1.8589 -1.3233 -0.3437
 3537TIP3   OH232245   5.872   4.362   8.139  0.1673 -0.4244 -0.7782
 3537TIP3    H132246   5.911   4.385   8.224  0.1713 -1.0805 -0.6001
 3537TIP3    H232247   5.881   4.267   8.133  0.9700 -0.3020 -1.9139
 3538TIP3   OH232248   3.053   6.286   8.027  0.2159 -0.8212  0.9985
 3538TIP3    H132249   3.015   6.283   7.939 -0.0704 -0.5695  1.1107
 3538TIP3    H232250   2.992   6.235   8.081  0.4835 -1.1235  1.0206
 3539TIP3   OH232251   1.639   3.804   8.390 -0.1389  0.2657 -0.1795
 3539TIP3    H132252   1.586   3.874   8.428 -2.2472 -0.1172 -2.1724
 3539TIP3    H232253   1.721   3.806   8.439 -0.6141  3.2527  0.6894
 3540TIP3   OH232254   3.409   0.385   7.488  0.6531 -0.0654  0.3191
 3540TIP3    H132255   3.391   0.420   7.401  0.0018 -3.1706 -0.9399
 3540TIP3    H232256   3.496   0.419   7.510  1.3038 -0.0213 -2.0229
 3541TIP3   OH232257   6.101   0.855   6.937 -0.1364  0.1015 -0.1835
 3541TIP3    H132258   6.031   0.795   6.910  1.4121 -1.7293 -0.3194
 3541TIP3    H232259   6.176   0.799   6.954  0.4309  1.6444  3.2016
 3542TIP3   OH232260   2.825   4.631   0.396  0.2367 -0.3337  0.3079
 3542TIP3    H132261   2.892   4.652   0.461  1.4729  2.0627 -1.5787
 3542TIP3    H232262   2.779   4.555   0.433  2.7467 -0.9264  2.5393
 3543TIP3   OH232263   5.094   5.968   1.059 -0.2328  0.5484  0.2527
 3543TIP3    H132264   5.050   5.986   0.976 -1.1473  2.3327  1.0637
 3543TIP3    H232265   5.157   5.899   1.038 -0.6452  0.7280 -1.8401
 3544TIP3   OH232266   6.579   4.678   8.605  0.7463  0.0346  0.0447
 3544TIP3    H132267   6.514   4.712   8.667 -1.3835 -1.5627 -1.1666
 3544TIP3    H232268   6.597   4.752   8.547  0.2241  0.5985  0.5818
 3545TIP3   OH232269   3.769   5.186   0.899  0.3036 -0.3141  0.2769
 3545TIP3    H132270   3.832   5.257   0.889 -1.1790  1.1537  0.9851
 3545TIP3    H232271   3.813   5.123   0.956  1.3439  0.4028  0.2955
 3546TIP3   OH232272   4.605   3.591   8.792  0.3294 -1.2364  0.2189
 3546TIP3    H132273   4.655   3.594   8.873  0.4869 -1.6018  0.1376
 3546TIP3    H232274   4.663   3.548   8.729  0.5635 -0.1423 -0.3363
 3547TIP3   OH232275   3.894   2.141   8.104  0.1610  0.1779  0.0167
 3547TIP3    H132276   3.913   2.090   8.026  2.5835  0.8711  0.0530
 3547TIP3    H232277   3.875   2.076   8.172 -0.7522 -0.4780 -0.8545
 3548TIP3   OH232278   0.508   3.397   0.909  0.0737 -0.3780  0.4167
 3548TIP3    H132279   0.435   3.336   0.926 -0.8319  0.6415  0.2548
 3548TIP3    H232280   0.586   3.344   0.925 -0.6947 -1.3653  1.0943
 3549TIP3   OH232281   0.687   0.373   7.805 -0.0012 -0.1019 -0.2991
 3549TIP3    H132282   0.697   0.363   7.900 -1.4134 -0.2070 -0.1426
 3549TIP3    H232283   0.710   0.287   7.769  0.1185 -0.1881 -0.0211
 3550TIP3   OH232284   5.479   0.107   0.546  0.5937  0.7311 -0.5809
 3550TIP3    H132285   5.437   0.130   0.629 -2.7616 -1.9400 -1.2912
 3550TIP3    H232286   5.560   0.063   0.571 -0.2013  0.2291  1.2926
 3551TIP3   OH232287   4.859   2.363   1.957  0.6014 -0.0769 -0.3694
 3551TIP3    H132288   4.775   2.384   1.999  0.4405 -1.5477  0.1005
 3551TIP3    H232289   4.906   2.446   1.954  0.5043  0.1904  2.4786
 3552TIP3   OH232290   5.446   2.096   1.611  0.1216 -0.4515 -0.0373
 3552TIP3    H132291   5.393   2.017   1.602 -0.1704 -0.0371 -2.5427
 3552TIP3    H232292   5.536   2.066   1.602  0.0199 -0.5518 -0.7976
 3553TIP3   OH232293   0.549   0.704   7.818 -0.8858 -0.3627  0.2098
 3553TIP3    H132294   0.525   0.769   7.883  1.3667 -0.9335  1.7424
 3553TIP3    H232295   0.620   0.745   7.768  1.0816 -1.7670  1.6763
 3554TIP3   OH232296   3.344   4.726   1.133 -0.0995 -0.0244 -0.2679
 3554TIP3    H132297   3.426   4.758   1.096  0.0870 -1.3008 -1.0287
 3554TIP3    H232298   3.368   4.644   1.177 -0.7098  0.3647  0.8383
 3555TIP3   OH232299   0.463   2.389   2.148 -0.2055  0.5677  0.4801
 3555TIP3    H132300   0.412   2.315   2.178  0.0706  0.5680  0.9603
 3555TIP3    H232301   0.503   2.425   2.227 -0.9187  1.6766  0.3631
 3556TIP3   OH232302   3.692   4.676   7.892 -0.1432 -0.0913  0.1119
 3556TIP3    H132303   3.605   4.647   7.922 -0.4508  0.0214 -0.6508
 3556TIP3    H232304   3.717   4.612   7.826 -0.6782  1.1392 -1.3464
 3557TIP3   OH232305   3.169   1.595   1.965 -0.5207  0.4188  0.6555
 3557TIP3    H132306   3.231   1.618   1.897  1.8161 -0.5546  2.3162
 3557TIP3    H232307   3.101   1.545   1.920 -0.1818  1.5726 -1.2376
 3558TIP3   OH232308   4.270   0.623   1.822 -0.0734 -0.5549  0.1182
 3558TIP3    H132309   4.199   0.630   1.758 -1.0917  2.7684  1.4015
 3558TIP3    H232310   4.225   0.613   1.906  1.1083 -1.3198  0.6831
 3559TIP3   OH232311   0.826   0.362   6.906  0.0523  0.4500  0.8079
 3559TIP3    H132312   0.762   0.425   6.940 -1.1001 -0.1735 -0.1207
 3559TIP3    H232313   0.842   0.390   6.816  1.0114  0.5276  0.9986
 3560TIP3   OH232314   5.594   2.115   0.982 -0.2678  0.0514 -0.1097
 3560TIP3    H132315   5.503   2.099   1.007 -0.9170  1.1238 -1.6381
 3560TIP3    H232316   5.644   2.096   1.061 -2.1621  3.0774  2.0511
 3561TIP3   OH232317   1.399   5.725   8.164 -0.1336  0.3480  0.1730
 3561TIP3    H132318   1.484   5.743   8.123  0.2865  0.1279  0.9287
 3561TIP3    H232319   1.342   5.795   8.133  0.5249  0.9279  0.2415
 3562TIP3   OH232320   6.600   4.883   0.166  0.6507  0.3804  0.8051
 3562TIP3    H132321   6.603   4.909   0.074  1.9204  0.4021  0.8415
 3562TIP3    H232322   6.576   4.791   0.164  1.8930  0.0467  0.3709
 3563TIP3   OH232323   5.060   0.508   1.582  0.7966 -0.1413 -0.4328
 3563TIP3    H132324   5.087   0.484   1.670  2.7342  2.8769 -0.0443
 3563TIP3    H232325   5.134   0.559   1.547 -1.3641  1.9349 -2.3551
 3564TIP3   OH232326   0.363   2.661   8.397  0.5557 -0.0548  0.0216
 3564TIP3    H132327   0.355   2.612   8.479  0.3407  0.0651  0.0709
 3564TIP3    H232328   0.314   2.741   8.411 -0.1163 -0.3673 -0.4896
 3565TIP3   OH232329   1.969   0.096   8.451  0.1203  0.8938 -0.0171
 3565TIP3    H132330   1.889   0.066   8.409  0.1806 -1.3618  1.3091
 3565TIP3    H232331   1.952   0.186   8.476 -1.9786  0.4817  0.1617
 3566TIP3   OH232332   6.055   4.702   0.826 -0.0122  0.0028  0.1260
 3566TIP3    H132333   6.061   4.795   0.804 -0.2973 -0.3515 -1.6123
 3566TIP3    H232334   6.145   4.670   0.816 -0.0277 -0.0316  0.0960
 3567TIP3   OH232335   1.012   2.204   1.187 -0.0416  0.6497 -0.1878
 3567TIP3    H132336   0.938   2.246   1.144 -0.9262  1.4456  1.9465
 3567TIP3    H232337   1.084   2.265   1.177 -0.6261  1.5086  0.6342
 3568TIP3   OH232338   3.336   4.388   8.848 -0.1208  0.0192  0.0666
 3568TIP3    H132339   3.345   4.292   8.844 -0.6253  0.0203 -2.5543
 3568TIP3    H232340   3.416   4.421   8.808 -1.2382  0.5789 -1.8099
 3569TIP3   OH232341   3.328   4.165   6.885  0.2684 -0.2462 -0.1013
 3569TIP3    H132342   3.413   4.154   6.928  0.2148  0.3787  0.1820
 3569TIP3    H232343   3.271   4.198   6.954 -0.5396 -1.8225  0.0238
 3570TIP3   OH232344   5.179   4.774   6.899  0.5468  0.4845  0.3523
 3570TIP3    H132345   5.269   4.807   6.898  0.5472  0.4815 -0.7915
 3570TIP3    H232346   5.188   4.680   6.887  0.5710 -0.1372  3.9855
 3571TIP3   OH232347   0.250   5.063   8.465  0.1547  0.5502 -0.5458
 3571TIP3    H132348   0.304   5.109   8.529  0.4884  0.4003 -0.7181
 3571TIP3    H232349   0.304   4.990   8.436 -0.8983 -0.8266  0.7942
 3572TIP3   OH232350   2.577   4.450   2.454  0.2093  0.4898 -0.1690
 3572TIP3    H132351   2.488   4.425   2.427  1.2371 -1.9686 -1.5548
 3572TIP3    H232352   2.614   4.371   2.493  2.1827  1.1092 -0.6658
 3573TIP3   OH232353   3.110   5.315   0.857 -0.1582 -0.7828 -0.2397
 3573TIP3    H132354   3.188   5.357   0.893 -0.4666  0.5485 -1.0657
 3573TIP3    H232355   3.131   5.222   0.856  1.0841 -0.5229  0.3523
 3574TIP3   OH232356   1.877   4.793   8.515  0.4233 -0.4978  0.8544
 3574TIP3    H132357   1.781   4.801   8.515  0.2836 -1.8799  0.6159
 3574TIP3    H232358   1.893   4.705   8.550  1.5915 -0.4274  0.5154
 3575TIP3   OH232359   2.060   0.513   0.064 -0.2837  0.6029 -0.2395
 3575TIP3    H132360   2.121   0.503   0.137  0.8685 -0.9671 -1.3207
 3575TIP3    H232361   2.082   0.440   0.005 -0.8679  2.0228 -2.3375
 3576TIP3   OH232362   5.786   4.012   1.711 -0.7228 -0.0526 -0.6115
 3576TIP3    H132363   5.809   4.020   1.803 -1.4743 -1.9652 -0.2079
 3576TIP3    H232364   5.796   4.100   1.676 -1.6976  1.0071  1.5971
 3577TIP3   OH232365   3.377   5.702   0.092  0.1052  0.4745 -0.4330
 3577TIP3    H132366   3.337   5.615   0.097 -1.5282  1.1417 -1.0600
 3577TIP3    H232367   3.469   5.685   0.074  0.1106 -1.1486  0.8554
 3578TIP3   OH232368   2.744   0.325   1.260  0.6219  0.2705  0.9764
 3578TIP3    H132369   2.741   0.230   1.272  0.4368  0.2297  0.5893
 3578TIP3    H232370   2.823   0.340   1.209  1.1518  0.4071  1.8138
 3579TIP3   OH232371   3.002   3.666   2.336 -0.6769 -0.2811  0.2515
 3579TIP3    H132372   3.082   3.694   2.292  0.3605 -0.9439  1.6794
 3579TIP3    H232373   2.994   3.724   2.411 -1.3455 -0.4724  0.3355
 3580TIP3   OH232374   1.699   3.615   0.020  0.0352 -0.6292 -0.9878
 3580TIP3    H132375   1.687   3.617   0.115 -1.1395  3.1870 -1.0376
 3580TIP3    H232376   1.616   3.580  -0.013 -0.6258  0.4646 -0.5807
 3581TIP3   OH232377   2.585   5.307   0.606  0.2933  0.3221 -0.2841
 3581TIP3    H132378   2.525   5.234   0.620  0.7955 -0.2754 -1.1559
 3581TIP3    H232379   2.666   5.281   0.650 -0.2010  1.3107  1.2531
 3582TIP3   OH232380   5.889   4.439   1.977  0.0786 -0.2126  0.1520
 3582TIP3    H132381   5.815   4.383   1.997  1.2384 -1.8342  0.0887
 3582TIP3    H232382   5.956   4.414   2.041 -0.0591  2.6488  1.5626
 3583TIP3   OH232383   1.238   2.534   1.545 -0.2218  0.6038 -0.2466
 3583TIP3    H132384   1.297   2.520   1.619  0.9082 -2.9491 -1.5844
 3583TIP3    H232385   1.169   2.468   1.557 -2.1502  2.4821 -0.4624
 3584TIP3   OH232386   1.947   3.250   0.721 -0.2143 -0.8758 -0.6217
 3584TIP3    H132387   2.032   3.211   0.739 -0.1954 -0.2595  0.7147
 3584TIP3    H232388   1.890   3.175   0.704 -0.1927 -1.5609  1.9515
 3585TIP3   OH232389   0.910   2.256   0.749  0.0420 -0.4187 -0.0803
 3585TIP3    H132390   0.838   2.226   0.694 -0.0073  0.5940 -0.6092
 3585TIP3    H232391   0.884   2.233   0.838 -1.1445  0.2927 -0.2221
 3586TIP3   OH232392   3.322   1.809   8.468  0.2284 -0.1823  0.2971
 3586TIP3    H132393   3.354   1.842   8.552 -0.0604 -1.3938  0.8965
 3586TIP3    H232394   3.290   1.887   8.422 -0.9765  0.3234  1.9063
 3587TIP3   OH232395   6.741   4.116   7.819 -0.3021 -0.3522  0.2042
 3587TIP3    H132396   6.757   4.027   7.786 -1.3302 -0.7954  0.8500
 3587TIP3    H232397   6.820   4.165   7.795 -0.1389 -1.1792 -1.0462
 3588TIP3   OH232398   1.339   5.186   2.632  0.1507  0.4728 -0.0212
 3588TIP3    H132399   1.396   5.170   2.707 -0.7572 -1.0594  0.3915
 3588TIP3    H232400   1.371   5.268   2.594  1.1829  0.8111  1.5040
 3589TIP3   OH232401   1.126   4.047   1.105 -0.1787  0.4551  0.5645
 3589TIP3    H132402   1.096   4.129   1.145 -0.1131  1.0691 -0.5936
 3589TIP3    H232403   1.046   4.001   1.080 -0.2467  1.6792 -1.7089
 3590TIP3   OH232404   5.305   1.567   7.653 -0.3219 -0.7383 -0.0263
 3590TIP3    H132405   5.262   1.625   7.590  0.2729  1.0287  1.1187
 3590TIP3    H232406   5.394   1.558   7.619 -0.8267 -2.2850 -1.0194
 3591TIP3   OH232407   4.964   3.669   1.525  0.1854 -0.1454 -0.5622
 3591TIP3    H132408   4.871   3.657   1.539 -0.0788  1.1852 -1.0310
 3591TIP3    H232409   4.971   3.751   1.477  1.5581 -0.5285 -1.0872
 3592TIP3   OH232410   3.574   0.365   0.901 -0.4455 -0.4745 -0.3125
 3592TIP3    H132411   3.594   0.430   0.968  2.1796  1.2279 -2.4918
 3592TIP3    H232412   3.536   0.415   0.829 -1.0085 -1.8336 -1.0100
 3593TIP3   OH232413   2.463   4.110   0.991 -0.6179 -0.1803 -0.3916
 3593TIP3    H132414   2.451   4.091   1.084  0.1315 -1.4705 -0.5317
 3593TIP3    H232415   2.476   4.205   0.987  0.6674 -0.2546  0.9926
 3594TIP3   OH232416   0.092   2.855   1.058 -0.4919  0.1884  0.0292
 3594TIP3    H132417   0.162   2.807   1.014 -0.4019  0.3751 -0.0355
 3594TIP3    H232418   0.070   2.925   0.997 -0.0083  0.7651  0.4940
 3595TIP3   OH232419   6.642   1.214   0.133  0.2527 -0.0967 -0.3233
 3595TIP3    H132420   6.683   1.216   0.219  0.2079 -1.0044 -0.2740
 3595TIP3    H232421   6.652   1.124   0.103 -4.0995 -1.2807  0.9152
 3596TIP3   OH232422   3.548   2.824   2.033 -0.3629 -0.2869  0.1318
 3596TIP3    H132423   3.534   2.843   1.940  0.1048  2.0888  0.4889
 3596TIP3    H232424   3.531   2.907   2.078  0.5504 -1.0668  2.0566
 3597TIP3   OH232425   6.197   5.171   1.365 -0.3198 -0.0027  0.1779
 3597TIP3    H132426   6.181   5.228   1.441 -1.9566  1.4871 -1.2119
 3597TIP3    H232427   6.120   5.182   1.310 -0.1452 -2.7099 -0.7386
 3598TIP3   OH232428   2.831   6.283   7.525  0.3806 -0.3504 -0.4561
 3598TIP3    H132429   2.759   6.343   7.504  0.7267 -0.3206 -1.6550
 3598TIP3    H232430   2.790   6.214   7.577 -0.8138 -0.9711 -2.0950
 3599TIP3   OH232431   4.101   2.949   8.226 -0.1310  1.1086 -0.4912
 3599TIP3    H132432   4.138   2.862   8.242 -1.2749  0.2423 -2.2485
 3599TIP3    H232433   4.177   3.005   8.210  0.6124  0.4078  0.4334
 3600TIP3   OH232434   5.297   5.315   0.990 -0.1792 -0.4345  0.0106
 3600TIP3    H132435   5.258   5.381   0.933  1.4998  0.1069 -0.5675
 3600TIP3    H232436   5.267   5.232   0.954 -1.5929 -0.0427  0.2077
 3601TIP3   OH232437   0.067   1.151   1.313  0.6326  0.0598 -0.1767
 3601TIP3    H132438   0.042   1.120   1.399 -0.4488  0.7008 -0.2357
 3601TIP3    H232439   0.118   1.231   1.330  2.6914 -1.2183 -0.0588
 3602TIP3   OH232440   3.986   6.419   2.823 -0.0529  0.1640  1.1341
 3602TIP3    H132441   3.924   6.351   2.795  1.0955 -0.2986 -0.4932
 3602TIP3    H232442   3.932   6.485   2.865 -1.5116 -0.7099  0.7206
 3603TIP3   OH232443   6.254   1.654   1.206 -0.4119  0.2761 -0.5325
 3603TIP3    H132444   6.315   1.725   1.188 -0.7940  0.8839  0.4727
 3603TIP3    H232445   6.207   1.682   1.285 -1.4344 -0.5285 -0.8253
 3604TIP3   OH232446   0.691   2.441   7.844  0.1295 -0.3166 -0.1088
 3604TIP3    H132447   0.597   2.427   7.841  0.1213 -0.1375 -1.3922
 3604TIP3    H232448   0.714   2.468   7.755  1.4048 -0.4516  0.1566
 3605TIP3   OH232449   1.734   5.993   7.666 -0.3016  0.1942 -0.0536
 3605TIP3    H132450   1.803   6.001   7.731  0.2755 -2.3963 -0.2061
 3605TIP3    H232451   1.670   5.934   7.705  0.0474 -1.4134 -1.7255
 3606TIP3   OH232452   2.692   5.534   7.762 -0.6105 -0.1568  0.1605
 3606TIP3    H132453   2.621   5.566   7.818 -1.1921 -1.0431 -0.0532
 3606TIP3    H232454   2.665   5.557   7.673  0.2483  1.1286  0.2077
 3607TIP3   OH232455   4.352   0.428   7.374  0.1669 -0.6233  0.5539
 3607TIP3    H132456   4.291   0.486   7.330  1.9316 -0.6573 -2.1985
 3607TIP3    H232457   4.386   0.372   7.304  2.5526 -1.2808  2.1166
 3608TIP3   OH232458   5.443   6.260   0.579 -0.2450  0.2199 -0.2363
 3608TIP3    H132459   5.394   6.243   0.659 -0.8669  1.3428 -0.3510
 3608TIP3    H232460   5.515   6.198   0.581  0.0257  0.5450  1.4174
 3609TIP3   OH232461   3.438   2.254   3.098 -0.0489  0.1070 -0.1323
 3609TIP3    H132462   3.512   2.295   3.053 -0.1774 -0.3738 -0.7943
 3609TIP3    H232463   3.378   2.327   3.117  0.0303  0.3268 -0.6959
 3610TIP3   OH232464   2.796   6.643   7.529 -0.3559  0.4836 -0.2061
 3610TIP3    H132465   2.716   6.593   7.517 -1.8514  1.9810  2.4071
 3610TIP3    H232466   2.841   6.600   7.601  0.5995  0.3520 -0.8688
 3611TIP3   OH232467   0.992   4.295   1.904  0.3683  0.0031  0.2554
 3611TIP3    H132468   1.008   4.369   1.844  0.9601 -2.4473 -2.8972
 3611TIP3    H232469   0.897   4.296   1.918  0.1031  0.3689 -1.2861
 3612TIP3   OH232470   0.568   3.200   0.653 -0.0995  0.3409 -0.2638
 3612TIP3    H132471   0.520   3.154   0.584  0.3332  0.5708 -0.7253
 3612TIP3    H232472   0.536   3.162   0.735 -0.8971  0.3280 -0.5735
 3613TIP3   OH232473   1.623   2.836   0.750 -0.0777 -0.0823  0.0314
 3613TIP3    H132474   1.606   2.810   0.659  0.7074  0.4312 -0.2759
 3613TIP3    H232475   1.538   2.829   0.793 -0.7242  0.8237 -1.0358
 3614TIP3   OH232476   6.601   1.567   0.645  0.8402  0.1358  0.1374
 3614TIP3    H132477   6.555   1.554   0.728  0.1567 -0.4512 -0.3133
 3614TIP3    H232478   6.678   1.511   0.651  0.3872 -0.5017  0.0778
 3615TIP3   OH232479   1.327   6.690   0.920 -0.8786 -0.0770 -0.4103
 3615TIP3    H132480   1.360   6.778   0.901  0.2891 -0.5388 -0.6159
 3615TIP3    H232481   1.335   6.682   1.015 -1.3220  0.1597 -0.3501
 3616TIP3   OH232482   5.409   3.911   0.132 -0.3286 -0.2860 -0.0661
 3616TIP3    H132483   5.427   4.000   0.165  0.1837 -0.1294 -0.7393
 3616TIP3    H232484   5.486   3.889   0.080 -1.1848 -0.4569 -1.2878
 3617TIP3   OH232485   5.167   2.421   1.325  0.0704 -0.7385 -0.1665
 3617TIP3    H132486   5.080   2.427   1.364  0.4071 -1.3122  0.6968
 3617TIP3    H232487   5.167   2.489   1.257 -0.6964 -0.0466  0.4976
 3618TIP3   OH232488   3.623   4.052   6.963 -0.0461  0.1927 -0.0567
 3618TIP3    H132489   3.621   3.993   6.888  0.1162 -0.6072  0.5609
 3618TIP3    H232490   3.696   4.112   6.945  0.0391 -0.0378 -0.4925
 3619TIP3   OH232491   4.833   6.417   1.771 -0.3962  0.3424 -0.3481
 3619TIP3    H132492   4.825   6.341   1.713 -2.3043  0.1871  0.0562
 3619TIP3    H232493   4.761   6.475   1.746 -0.1820  1.0894  0.6779
 3620TIP3   OH232494   4.932   6.758   2.186  1.0721 -0.3240 -0.4280
 3620TIP3    H132495   4.872   6.759   2.261  0.6856 -0.2190 -0.7364
 3620TIP3    H232496   4.874   6.760   2.109  1.4696 -0.2895 -0.7270
 3621TIP3   OH232497   5.944   1.319   1.545  0.1515 -0.0555  0.5455
 3621TIP3    H132498   5.979   1.338   1.458 -0.2030 -0.2815  0.3475
 3621TIP3    H232499   5.853   1.351   1.541  0.7737  1.9745  1.5553
 3622TIP3   OH232500   2.125   3.374   8.135 -0.3037 -0.5457 -0.5328
 3622TIP3    H132501   2.175   3.405   8.060 -2.0491 -0.0187 -1.5402
 3622TIP3    H232502   2.121   3.449   8.194  0.3374 -0.6870 -0.3064
 3623TIP3   OH232503   1.380   2.434   8.678 -0.5504 -0.2113 -0.1472
 3623TIP3    H132504   1.335   2.433   8.762 -1.8415 -0.6760 -0.8156
 3623TIP3    H232505   1.356   2.519   8.640  0.9962  0.5220  0.4222
 3624TIP3   OH232506   4.381   6.756   8.316  0.3355  0.2179 -0.5192
 3624TIP3    H132507   4.416   6.844   8.327  1.5969 -0.4001  0.7455
 3624TIP3    H232508   4.298   6.757   8.365  0.3981  0.6719 -0.4191
 3625TIP3   OH232509   5.196   5.131   7.980  0.5281 -0.2940  0.0924
 3625TIP3    H132510   5.279   5.103   8.018  0.2517 -1.5697 -0.1985
 3625TIP3    H232511   5.169   5.058   7.924 -0.6082  0.2505 -0.1035
 3626TIP3   OH232512   6.150   1.990   1.152 -0.1816  0.4004 -0.4267
 3626TIP3    H132513   6.240   1.957   1.150 -0.1170  0.2757  1.7516
 3626TIP3    H232514   6.158   2.076   1.194 -1.0509  0.5798 -0.6145
 3627TIP3   OH232515   4.814   2.303   1.687 -0.1658  0.3526  0.1179
 3627TIP3    H132516   4.842   2.362   1.757  0.0267 -0.8355  1.0778
 3627TIP3    H232517   4.747   2.248   1.728  0.0630 -0.4642 -0.5814
 3628TIP3   OH232518   1.808   3.717   0.548  0.0743 -0.1346 -0.4505
 3628TIP3    H132519   1.746   3.704   0.476 -0.1453 -0.5721 -0.1873
 3628TIP3    H232520   1.766   3.676   0.624 -0.4658  1.7589  0.3406
 3629TIP3   OH232521   5.892   5.590   8.475  0.1143 -0.1407 -0.8633
 3629TIP3    H132522   5.853   5.503   8.471 -0.0529 -0.1768  0.8621
 3629TIP3    H232523   5.967   5.586   8.415 -2.4053 -0.0707 -4.3381
 3630TIP3   OH232524   3.141   5.156   0.242 -0.0514  0.1380 -0.4285
 3630TIP3    H132525   3.207   5.203   0.293 -0.4514  0.5240 -0.2553
 3630TIP3    H232526   3.154   5.064   0.265 -0.1968  0.3003  0.3607
 3631TIP3   OH232527   6.801   0.196   1.449  0.3117 -0.2194 -0.8845
 3631TIP3    H132528   6.745   0.234   1.516  0.9367  0.1851 -0.5781
 3631TIP3    H232529   6.890   0.216   1.478  0.5930  0.1050 -1.9030
 3632TIP3   OH232530   2.021   6.665   7.662 -0.2364 -0.1588  0.1870
 3632TIP3    H132531   2.038   6.755   7.633 -0.4779 -0.1575  0.0476
 3632TIP3    H232532   1.934   6.669   7.702 -1.5135 -0.8766 -2.2836
 3633TIP3   OH232533   0.517   4.183   8.752  0.1588  0.2523 -0.5373
 3633TIP3    H132534   0.537   4.117   8.686  1.9974  0.6216 -0.4228
 3633TIP3    H232535   0.519   4.266   8.705 -1.8809  0.2831 -0.6303
 3634TIP3   OH232536   1.485   6.350   0.449 -0.7897  0.1499  0.0896
 3634TIP3    H132537   1.497   6.357   0.354  1.2827  0.2731  0.3295
 3634TIP3    H232538   1.555   6.293   0.479 -0.2124  1.6266  1.7651
 3635TIP3   OH232539   6.382   3.260   8.533 -0.9102 -0.2168 -0.3678
 3635TIP3    H132540   6.311   3.237   8.474 -1.0728  0.3784 -0.4079
 3635TIP3    H232541   6.383   3.190   8.599 -0.4895 -1.0755 -1.2696
 3636TIP3   OH232542   5.212   6.783   0.997 -0.0957 -0.2776 -0.1363
 3636TIP3    H132543   5.269   6.769   0.921  0.1657 -0.0210  0.0101
 3636TIP3    H232544   5.155   6.707   0.998 -0.0993 -0.2863 -0.5904
 3637TIP3   OH232545   1.476   5.538   7.896 -0.0032 -0.7819  0.4402
 3637TIP3    H132546   1.527   5.473   7.848  2.9760  2.6296 -1.5941
 3637TIP3    H232547   1.525   5.551   7.977 -0.1289 -0.5947  0.4864
 3638TIP3   OH232548   6.471   6.047   1.587  0.3832 -0.0554 -0.2586
 3638TIP3    H132549   6.456   6.017   1.677  1.6371 -0.5942 -0.2154
 3638TIP3    H232550   6.483   5.967   1.536 -1.7762  0.1639 -1.2321
 3639TIP3   OH232551   5.308   5.565   1.553 -0.3044  0.6035 -0.2486
 3639TIP3    H132552   5.304   5.648   1.506  0.3020  0.6572 -0.2053
 3639TIP3    H232553   5.401   5.549   1.568 -0.0389 -1.8417 -3.4182
 3640TIP3   OH232554   3.134   6.178   1.948  0.4029  0.0316 -0.1839
 3640TIP3    H132555   3.208   6.186   1.887 -1.1263  0.1690 -2.1145
 3640TIP3    H232556   3.114   6.085   1.949  1.7324 -0.3123  1.8630
 3641TIP3   OH232557   3.596   1.984   0.928  0.6417 -0.2166  0.4863
 3641TIP3    H132558   3.584   1.894   0.899 -0.2960 -0.3772  1.2902
 3641TIP3    H232559   3.612   1.977   1.022 -1.2802  0.5231  0.9269
 3642TIP3   OH232560   4.935   2.012   8.620  0.1952 -0.4933 -0.2344
 3642TIP3    H132561   4.943   2.061   8.539 -0.4394 -1.2291 -0.7557
 3642TIP3    H232562   4.947   2.077   8.689  3.6356 -0.2612 -0.8329
 3643TIP3   OH232563   0.148   6.698   0.860 -0.1653  0.1161  0.5828
 3643TIP3    H132564   0.237   6.720   0.833 -1.3236  0.6255 -3.5349
 3643TIP3    H232565   0.126   6.621   0.808 -2.4513  0.6246  0.7019
 3644TIP3   OH232566   4.542   4.418   6.669 -0.3525 -0.2753  0.3919
 3644TIP3    H132567   4.572   4.334   6.705 -1.5969 -1.0833 -0.3866
 3644TIP3    H232568   4.539   4.476   6.745  2.4579 -0.3109  0.6360
 3645TIP3   OH232569   2.277   5.727   7.425  0.1726  0.0702 -0.0027
 3645TIP3    H132570   2.335   5.680   7.365 -1.2150 -1.2618 -0.3658
 3645TIP3    H232571   2.332   5.748   7.500  1.5709  0.4847 -1.0868
 3646TIP3   OH232572   3.300   3.267   1.912  0.2374  0.0551  0.5345
 3646TIP3    H132573   3.219   3.307   1.942 -0.5155 -0.7434 -0.3777
 3646TIP3    H232574   3.302   3.181   1.954 -0.7127 -0.9819 -1.3971
 3647TIP3   OH232575   3.860   6.484   0.615  0.2441 -0.4350  0.5290
 3647TIP3    H132576   3.866   6.447   0.703  0.7588  1.5404  1.3959
 3647TIP3    H232577   3.883   6.412   0.556  0.0125 -1.7741  2.0038
 3648TIP3   OH232578   1.485   6.318   7.090 -0.1237 -0.1516 -0.2405
 3648TIP3    H132579   1.451   6.328   7.179 -2.3992 -0.0852 -1.0386
 3648TIP3    H232580   1.478   6.406   7.052  0.2971 -0.2912 -0.6464
 3649TIP3   OH232581   5.320   0.376   7.709 -0.6200 -0.3732  0.2528
 3649TIP3    H132582   5.244   0.318   7.713 -0.2178 -0.8581  1.2512
 3649TIP3    H232583   5.302   0.434   7.635 -0.7772 -2.1539 -1.1796
 3650TIP3   OH232584   4.866   2.773   8.455  0.7536  0.3773 -0.6140
 3650TIP3    H132585   4.945   2.737   8.415  1.2164  0.3208  0.3182
 3650TIP3    H232586   4.822   2.697   8.494  1.9113  0.8144  1.6634
 3651TIP3   OH232587   0.911   5.466   1.498 -0.4021 -0.5724  0.1576
 3651TIP3    H132588   0.863   5.535   1.452 -0.0519 -0.5987 -0.2543
 3651TIP3    H232589   0.872   5.463   1.585 -1.3324 -0.7864 -0.2613
 3652TIP3   OH232590   4.760   2.643   1.459  0.5690 -0.4437 -0.0058
 3652TIP3    H132591   4.776   2.695   1.538 -0.4794 -1.4823  0.9278
 3652TIP3    H232592   4.842   2.595   1.445 -0.4654 -3.4510  2.9734
 3653TIP3   OH232593   3.694   6.544   1.253 -0.1027 -0.1341  0.1944
 3653TIP3    H132594   3.628   6.611   1.269 -0.6720 -0.4024 -1.0061
 3653TIP3    H232595   3.645   6.462   1.247  0.5846 -0.6933  1.6120
 3654TIP3   OH232596   5.150   2.645   2.216  0.1561 -0.1573 -0.0451
 3654TIP3    H132597   5.141   2.641   2.311 -1.2286 -0.3085 -0.1631
 3654TIP3    H232598   5.235   2.603   2.199  0.7135  0.4189  1.1455
 3655TIP3   OH232599   2.711   3.026   0.159  0.0203 -0.1280  0.2009
 3655TIP3    H132600   2.666   2.984   0.233  1.0056 -0.7518  0.4635
 3655TIP3    H232601   2.640   3.055   0.102 -0.7332 -2.2549 -0.0595
 3656TIP3   OH232602   0.552   1.806   2.487 -0.7446 -0.3459  0.1176
 3656TIP3    H132603   0.613   1.878   2.470  0.5541 -1.2880  0.6214
 3656TIP3    H232604   0.525   1.818   2.578 -0.7820 -0.3018  0.1002
 3657TIP3   OH232605   5.490   2.807   2.393 -0.0205  0.5615  0.2283
 3657TIP3    H132606   5.576   2.780   2.363 -0.2931 -0.4286  0.2921
 3657TIP3    H232607   5.472   2.751   2.468 -0.5403  1.0526  0.4775
 3658TIP3   OH232608   3.490   3.885   1.481  0.1757 -0.2097  0.2922
 3658TIP3    H132609   3.583   3.866   1.468  0.4390  0.6736  0.8478
 3658TIP3    H232610   3.465   3.933   1.402  0.1775 -0.4835  0.1234
 3659TIP3   OH232611   2.482   0.265   0.624 -0.1267 -0.0913  0.4046
 3659TIP3    H132612   2.419   0.336   0.638  0.5142  0.6225 -0.2721
 3659TIP3    H232613   2.565   0.300   0.656  0.1239 -0.6665  0.3881
 3660TIP3   OH232614   4.627   1.292   7.722  0.1347 -0.7151  0.2592
 3660TIP3    H132615   4.605   1.268   7.631 -1.5335  0.2485  0.3748
 3660TIP3    H232616   4.554   1.347   7.751  2.2204  1.8330  1.0841
 3661TIP3   OH232617   1.892   2.193   1.421  0.4930 -0.2425 -0.8550
 3661TIP3    H132618   1.974   2.242   1.415 -0.0742  0.6274 -1.7022
 3661TIP3    H232619   1.918   2.107   1.455  1.4536  0.7200  0.9815
 3662TIP3   OH232620   0.841   2.666   8.557 -0.2502  0.5181  0.0743
 3662TIP3    H132621   0.817   2.749   8.597 -2.2533 -0.8923  2.0477
 3662TIP3    H232622   0.777   2.653   8.487 -0.6183  0.1737  0.4673
 3663TIP3   OH232623   5.572   1.268   2.213  0.0391 -0.0076  0.2524
 3663TIP3    H132624   5.646   1.257   2.153  0.1339  1.8785 -0.0138
 3663TIP3    H232625   5.605   1.236   2.297 -0.0385 -2.5116 -0.5727
 3664TIP3   OH232626   1.091   2.570   0.269 -0.8213 -0.2924  0.3305
 3664TIP3    H132627   1.122   2.614   0.348  0.3953  0.2388 -0.4111
 3664TIP3    H232628   1.083   2.478   0.294  1.4307 -0.4803  0.5845
 3665TIP3   OH232629   2.389   2.967   2.386  0.4110  0.4152  0.5319
 3665TIP3    H132630   2.362   2.885   2.426  3.1607 -0.1437  1.4831
 3665TIP3    H232631   2.355   3.035   2.444 -0.9157 -0.0738  0.3531
 3666TIP3   OH232632   0.366   1.696   2.902 -0.1425  0.3603 -0.7608
 3666TIP3    H132633   0.338   1.768   2.959  1.6346  0.3310  0.2294
 3666TIP3    H232634   0.306   1.624   2.923  1.3448 -0.1488  2.3037
 3667TIP3   OH232635   1.077   1.380   0.021 -0.1864 -0.4404  0.0534
 3667TIP3    H132636   1.048   1.457   0.069 -1.6147 -0.6800 -0.3828
 3667TIP3    H232637   1.165   1.403  -0.010 -0.2039  0.6263  0.7523
 3668TIP3   OH232638   2.229   3.525   1.611  0.0756  0.0848 -0.0048
 3668TIP3    H132639   2.234   3.431   1.630  0.1335  0.4834  2.2463
 3668TIP3    H232640   2.136   3.545   1.613  0.0102 -0.0309 -1.2267
 3669TIP3   OH232641   5.512   5.478   0.819 -0.5224 -0.1940  0.1039
 3669TIP3    H132642   5.437   5.420   0.804 -0.3840 -0.1844 -0.6599
 3669TIP3    H232643   5.588   5.426   0.793 -0.1954 -0.4014  1.3913
 3670TIP3   OH232644   2.128   0.103   7.541  0.6626 -0.4798 -0.0941
 3670TIP3    H132645   2.221   0.095   7.521  0.5587  1.3901 -1.7405
 3670TIP3    H232646   2.119   0.191   7.579 -0.6413  0.2261 -1.8798
 3671TIP3   OH232647   0.387   1.590   0.069  0.7797  0.8667  0.1465
 3671TIP3    H132648   0.429   1.629  -0.007 -0.3493 -0.7121 -1.3680
 3671TIP3    H232649   0.304   1.554   0.036  0.8906 -1.1290  1.7947
 3672TIP3   OH232650   0.142   6.393   2.408 -0.3391 -0.1744  0.4843
 3672TIP3    H132651   0.074   6.442   2.363 -0.2591  0.1444  0.7094
 3672TIP3    H232652   0.112   6.387   2.498  0.5068  1.0339  0.8651
 3673TIP3   OH232653   1.809   6.565   1.497 -0.3419 -0.4599  0.3642
 3673TIP3    H132654   1.880   6.507   1.468  1.2054  1.5731 -0.1692
 3673TIP3    H232655   1.815   6.641   1.439 -1.7739  0.5859  1.5133
 3674TIP3   OH232656   5.324   1.608   0.466  0.8773  0.0322  0.0489
 3674TIP3    H132657   5.256   1.658   0.511 -0.0798 -1.4358  0.3234
 3674TIP3    H232658   5.324   1.642   0.377  1.1322  1.3588  0.5404
 3675TIP3   OH232659   6.502   6.624   8.208 -0.4718 -1.5529 -0.5587
 3675TIP3    H132660   6.430   6.568   8.180 -0.4973 -0.7319 -2.3243
 3675TIP3    H232661   6.460   6.707   8.231 -0.0590 -0.2553 -3.8278
 3676TIP3   OH232662   4.162   3.038   7.451 -0.3265  0.1123  0.4801
 3676TIP3    H132663   4.203   3.056   7.366  0.2137  1.7888  1.0475
 3676TIP3    H232664   4.083   3.091   7.451 -1.2748 -1.2504  0.3578
 3677TIP3   OH232665   0.469   3.486   7.618 -0.2116 -0.0987  0.2321
 3677TIP3    H132666   0.443   3.428   7.547  1.0519  0.0076 -0.3333
 3677TIP3    H232667   0.392   3.541   7.633 -0.9994 -1.0985 -0.0428
 3678TIP3   OH232668   3.327   3.579   1.731  0.2763 -0.3663 -0.0321
 3678TIP3    H132669   3.367   3.598   1.647 -0.3381  0.1440 -0.2235
 3678TIP3    H232670   3.260   3.513   1.712 -1.7714  1.7024 -0.4903
 3679TIP3   OH232671   2.366   4.923   6.757  0.5256  0.4722  0.3891
 3679TIP3    H132672   2.383   4.861   6.687 -0.8978 -1.1477  1.4036
 3679TIP3    H232673   2.368   5.009   6.715 -0.7690 -0.4826 -1.7307
 3680TIP3   OH232674   0.186   2.545   7.752 -0.5344  0.3694 -0.2630
 3680TIP3    H132675   0.170   2.568   7.660 -1.0675 -1.4676 -0.6708
 3680TIP3    H232676   0.107   2.497   7.778 -0.7289  1.5056  1.4140
 3681TIP3   OH232677   3.524   6.553   8.456 -0.3280  0.0268  0.6363
 3681TIP3    H132678   3.526   6.642   8.491  0.1850  1.0516 -1.8155
 3681TIP3    H232679   3.447   6.513   8.497 -0.2899  1.4199  2.1612
 3682TIP3   OH232680   0.125   5.581   8.664 -0.0851  0.5792 -0.0296
 3682TIP3    H132681   0.144   5.634   8.586 -1.1597  1.0586  0.0143
 3682TIP3    H232682   0.149   5.637   8.738  0.5469  0.2790  0.0017
 3683TIP3   OH232683   6.186   2.388   2.157 -0.5530 -0.0380 -0.0174
 3683TIP3    H132684   6.233   2.384   2.241  1.0901 -2.3916 -0.9269
 3683TIP3    H232685   6.256   2.383   2.091 -1.9358 -2.8058 -1.4582
 3684TIP3   OH232686   3.601   6.257   1.721 -0.2765  0.2506 -0.3080
 3684TIP3    H132687   3.661   6.216   1.657 -1.7442 -0.9678 -0.9831
 3684TIP3    H232688   3.581   6.342   1.683  0.2960  0.2804 -0.5568
 3685TIP3   OH232689   3.941   3.064   7.823 -0.5680  0.1370 -0.6466
 3685TIP3    H132690   3.939   3.064   7.919  0.7989  0.9248 -0.6025
 3685TIP3    H232691   3.887   3.139   7.798 -0.4925  0.2443 -0.4881
 3686TIP3   OH232692   6.593   2.472   0.024 -0.1132 -0.7694  0.5430
 3686TIP3    H132693   6.670   2.447   0.076  1.7017  0.0922 -1.5837
 3686TIP3    H232694   6.537   2.394   0.027  0.2791 -1.0509  3.0187
 3687TIP3   OH232695   5.089   4.534   7.968 -0.2617  0.0282  0.2733
 3687TIP3    H132696   5.091   4.457   7.911 -1.3904  0.3494 -0.2274
 3687TIP3    H232697   5.035   4.507   8.042 -1.4979  0.6506 -0.3895
 3688TIP3   OH232698   6.697   6.473   1.011 -0.0570 -0.2525 -0.6540
 3688TIP3    H132699   6.703   6.454   0.917  2.3905 -1.0593 -0.4248
 3688TIP3    H232700   6.779   6.519   1.031 -0.8487  0.5220  0.9779
 3689TIP3   OH232701   6.148   5.586   2.136 -0.1012  0.6126  0.3176
 3689TIP3    H132702   6.152   5.491   2.149 -0.2719  0.5751  0.1028
 3689TIP3    H232703   6.104   5.619   2.214 -2.5357  0.2321 -0.8127
 3690TIP3   OH232704   4.532   5.789   0.303 -0.0122 -0.3226 -0.7009
 3690TIP3    H132705   4.553   5.861   0.363  0.6255 -0.7934 -0.3440
 3690TIP3    H232706   4.442   5.765   0.325  0.1293 -0.3306 -0.0868
 3691TIP3   OH232707   1.402   5.831   1.968  0.3976 -0.0914  0.2718
 3691TIP3    H132708   1.482   5.880   1.948  1.1985 -1.8475 -1.0637
 3691TIP3    H232709   1.429   5.740   1.969 -1.4439 -0.6768  0.6746
 3692TIP3   OH232710   3.060   3.939   0.378 -0.1068 -0.0450 -0.1180
 3692TIP3    H132711   3.142   3.987   0.392 -0.2276 -0.1577  1.0515
 3692TIP3    H232712   3.085   3.847   0.379 -0.2136 -0.0728 -0.0109
 3693TIP3   OH232713   1.543   0.797   8.460  0.2977  0.3329 -0.7010
 3693TIP3    H132714   1.477   0.861   8.487  1.1768  0.7475  0.5858
 3693TIP3    H232715   1.611   0.849   8.418  1.1935  0.3390  0.6884
 3694TIP3   OH232716   6.784   4.494   2.877  0.7154  0.2030  0.3571
 3694TIP3    H132717   6.778   4.505   2.972 -0.2527 -0.9570  0.4504
 3694TIP3    H232718   6.706   4.538   2.842  0.8062  0.1937  0.1383
 3695TIP3   OH232719   3.532   0.017   8.276 -0.3639 -0.2175 -0.2389
 3695TIP3    H132720   3.580  -0.065   8.270  0.6390  0.2213  1.2814
 3695TIP3    H232721   3.569   0.071   8.206  0.3445 -0.3904 -0.0051
 3696TIP3   OH232722   4.044   2.300   1.605  0.0504 -0.4656 -0.6944
 3696TIP3    H132723   3.969   2.251   1.639  0.4077 -0.1214  0.6329
 3696TIP3    H232724   4.098   2.318   1.681  1.7437 -1.0969 -1.6877
 3697TIP3   OH232725   1.915   4.440   0.252  0.0954  0.0446 -0.3172
 3697TIP3    H132726   1.972   4.373   0.289 -0.6395 -0.4117  0.0159
 3697TIP3    H232727   1.962   4.472   0.175  0.1145 -1.3984 -0.9362
 3698TIP3   OH232728   2.825   0.848   8.761 -0.1923 -0.0077 -1.0753
 3698TIP3    H132729   2.789   0.861   8.849  1.4632 -1.0394 -0.2004
 3698TIP3    H232730   2.800   0.759   8.737 -0.8036  0.3348 -1.7583
 3699TIP3   OH232731   5.634   3.954   7.810  0.2760 -0.0781 -0.1531
 3699TIP3    H132732   5.580   3.992   7.879 -0.6428  0.5751 -1.2037
 3699TIP3    H232733   5.721   3.991   7.824  0.0248  0.2813  0.4778
 3700TIP3   OH232734   0.393   5.643   1.215 -0.5902  0.2324  0.2350
 3700TIP3    H132735   0.401   5.683   1.128 -1.8174  0.2494  0.1138
 3700TIP3    H232736   0.329   5.573   1.203  0.7980 -1.1881  0.6596
 3701TIP3   OH232737   4.761   3.685   6.727 -0.6281 -0.5133 -0.1683
 3701TIP3    H132738   4.741   3.779   6.721  0.3120 -0.3038 -0.1343
 3701TIP3    H232739   4.679   3.645   6.755 -0.7824  0.4251  0.7659
 3702TIP3   OH232740   3.742   1.663   8.439  0.0218  0.9149  0.0290
 3702TIP3    H132741   3.795   1.696   8.366  0.2471  2.6127  0.9103
 3702TIP3    H232742   3.795   1.592   8.476 -0.2749 -0.2479 -1.6624
 3703TIP3   OH232743   6.752   3.118   2.672  0.3117  0.9249 -0.1802
 3703TIP3    H132744   6.701   3.173   2.732  1.0102 -1.4940  2.9025
 3703TIP3    H232745   6.708   3.032   2.675  1.5922  0.1703 -1.5560
 3704TIP3   OH232746   3.327   1.672   7.891  0.2877  0.0422  0.9660
 3704TIP3    H132747   3.288   1.755   7.918  1.4263  1.0233 -0.3316
 3704TIP3    H232748   3.417   1.675   7.923  0.6680 -0.1964 -0.0300
 3705TIP3   OH232749   1.868   3.838   8.559 -0.0828 -0.5972 -0.2697
 3705TIP3    H132750   1.883   3.883   8.642  0.8304 -1.0371 -0.1833
 3705TIP3    H232751   1.879   3.745   8.579 -0.0871 -0.7280 -0.8317
 3706TIP3   OH232752   4.317   6.001   2.439  0.0964 -0.5549 -0.5456
 3706TIP3    H132753   4.269   5.990   2.357  0.0948  1.3599 -0.8527
 3706TIP3    H232754   4.250   6.001   2.507  0.1246 -2.4710 -0.4628
 3707TIP3   OH232755   6.094   3.096   7.768 -0.1139 -0.0943 -0.3714
 3707TIP3    H132756   6.119   3.187   7.782  0.9132 -0.4239  0.0792
 3707TIP3    H232757   6.082   3.088   7.673  0.9326  0.2484 -0.5520
 3708TIP3   OH232758   5.241   2.896   2.350  0.2177 -0.2173  0.3793
 3708TIP3    H132759   5.333   2.887   2.372  0.0047 -0.2029  1.3267
 3708TIP3    H232760   5.218   2.814   2.307  0.6696 -0.2281  0.1624
 3709TIP3   OH232761   0.228   6.057   0.172  0.3759  0.2195 -0.2388
 3709TIP3    H132762   0.219   6.141   0.219  0.3027 -0.4295  0.9448
 3709TIP3    H232763   0.210   5.991   0.239  1.6907 -0.7846 -0.8565
 3710TIP3   OH232764   6.221   4.838   7.601 -0.4290 -0.4057  0.0019
 3710TIP3    H132765   6.184   4.926   7.586  2.4131  0.6420 -1.6087
 3710TIP3    H232766   6.228   4.831   7.696  0.2952  1.6277  0.1503
 3711TIP3   OH232767   6.439   3.710   0.845  0.0017  0.3671 -0.4638
 3711TIP3    H132768   6.512   3.650   0.835  1.2349  1.7514 -0.1022
 3711TIP3    H232769   6.453   3.752   0.930 -2.2510 -0.6379  0.5021
 3712TIP3   OH232770   5.590   2.393   0.915 -0.1222 -0.1084 -0.0200
 3712TIP3    H132771   5.581   2.423   0.825 -1.6265  1.0186  0.4491
 3712TIP3    H232772   5.562   2.302   0.914  1.0020 -0.4645 -0.8688
 3713TIP3   OH232773   1.031   5.251   0.083  0.0846 -0.0033 -0.6892
 3713TIP3    H132774   0.955   5.254   0.025 -2.1677  1.1397  2.0671
 3713TIP3    H232775   1.053   5.342   0.099  0.2215 -0.2672  0.7354
 3714TIP3   OH232776   2.116   1.096   1.819 -0.7431  0.2984  0.5490
 3714TIP3    H132777   2.126   1.152   1.896  1.3191 -0.2346  0.7313
 3714TIP3    H232778   2.091   1.011   1.854 -0.7552  0.3078  0.5628
 3715TIP3   OH232779   3.428   0.178   2.172  0.1219  0.1681 -0.5606
 3715TIP3    H132780   3.389   0.260   2.201 -1.1989 -0.6669  0.0862
 3715TIP3    H232781   3.431   0.186   2.076 -0.5364  0.7198 -0.5422
 3716TIP3   OH232782   6.658   2.967   1.774 -0.4827  0.3752  0.0900
 3716TIP3    H132783   6.629   2.909   1.703 -0.6460 -0.2107  0.6306
 3716TIP3    H232784   6.660   2.911   1.851 -0.8354  1.1356  0.6623
 3717TIP3   OH232785   4.419   0.823   7.909 -1.2514 -0.1927  0.3972
 3717TIP3    H132786   4.368   0.852   7.984 -1.0113  0.0001  0.4845
 3717TIP3    H232787   4.490   0.886   7.901 -0.6982 -0.7751  0.6159
 3718TIP3   OH232788   6.819   6.353   8.743  0.2080 -0.1759  0.8137
 3718TIP3    H132789   6.823   6.268   8.786  0.3590  0.3529  1.9004
 3718TIP3    H232790   6.742   6.348   8.687 -0.6670 -0.5378  1.9976
 3719TIP3   OH232791   4.410   3.804   1.483 -0.7426 -0.4563 -0.4595
 3719TIP3    H132792   4.423   3.749   1.406  0.6504  2.2062 -2.2596
 3719TIP3    H232793   4.320   3.788   1.510 -0.9608 -2.1399 -2.0616
 3720TIP3   OH232794   5.942   2.995   1.115  0.1240  0.7872  0.3417
 3720TIP3    H132795   5.994   3.053   1.170  0.6216 -1.8193  2.8706
 3720TIP3    H232796   5.907   2.929   1.176 -1.9382 -0.4916 -2.0458
 3721TIP3   OH232797   4.794   3.923   2.382  0.0586 -0.2132  0.2900
 3721TIP3    H132798   4.852   3.873   2.440  2.5785  1.5291 -0.5879
 3721TIP3    H232799   4.764   3.860   2.318  2.8176 -0.8212 -0.5409
 3722TIP3   OH232800   4.723   2.487   2.214 -0.3143  0.3650  0.2624
 3722TIP3    H132801   4.669   2.504   2.138 -0.0119  1.1702  0.2138
 3722TIP3    H232802   4.771   2.569   2.229 -0.3543  0.2203  1.3022
 3723TIP3   OH232803   3.497   3.488   8.480 -0.2082  0.3121 -0.3414
 3723TIP3    H132804   3.575   3.540   8.462 -0.4389  0.8699  0.2118
 3723TIP3    H232805   3.491   3.427   8.406  1.2827 -0.4109  0.1033
 3724TIP3   OH232806   4.727   6.193   1.357  0.1891 -0.0281  0.1655
 3724TIP3    H132807   4.773   6.127   1.409  1.9924 -0.4383 -1.8220
 3724TIP3    H232808   4.674   6.142   1.295 -1.8058  0.4579  1.3600
 3725TIP3   OH232809   3.879   5.788   1.526  0.2517 -0.3544 -0.1409
 3725TIP3    H132810   3.911   5.876   1.512 -1.4750  0.1994 -0.8644
 3725TIP3    H232811   3.871   5.780   1.622  1.6407 -0.2309  0.0108
 3726TIP3   OH232812   4.399   2.995   1.228 -0.3144 -0.7143  0.0001
 3726TIP3    H132813   4.365   3.077   1.192 -1.3314 -0.4185  1.5476
 3726TIP3    H232814   4.387   2.932   1.157  2.5175  0.8377 -2.0536
 3727TIP3   OH232815   0.967   6.666   0.664 -0.1776 -0.3414  0.2324
 3727TIP3    H132816   0.946   6.581   0.625 -1.2808  1.2042 -2.8219
 3727TIP3    H232817   1.062   6.665   0.672  0.3286 -0.3962 -3.8049
 3728TIP3   OH232818   1.323   4.258   7.930 -0.0108  0.0767  0.3728
 3728TIP3    H132819   1.264   4.194   7.890 -0.2303  1.0400 -0.8704
 3728TIP3    H232820   1.409   4.237   7.895 -0.0898  0.4919 -0.0674
 3729TIP3   OH232821   1.963   1.176   7.212 -0.2641 -0.2152  0.0037
 3729TIP3    H132822   1.931   1.177   7.122  1.2403  1.1799 -0.5628
 3729TIP3    H232823   1.884   1.166   7.265 -1.5196  1.7434 -1.3731
 3730TIP3   OH232824   1.724   5.841   1.337  0.7066  0.1424  0.0836
 3730TIP3    H132825   1.715   5.797   1.422 -0.4989 -0.1259 -0.1733
 3730TIP3    H232826   1.777   5.782   1.284 -0.8643 -1.0215 -0.2481
 3731TIP3   OH232827   2.005   1.754   0.708  0.1203  0.4172  0.2214
 3731TIP3    H132828   2.032   1.743   0.617 -0.3388 -0.4434  0.1792
 3731TIP3    H232829   2.056   1.829   0.740  1.6507 -0.4301 -0.1812
 3732TIP3   OH232830   1.367   3.573   0.839  0.4673 -0.3037 -0.1400
 3732TIP3    H132831   1.404   3.652   0.800 -1.4301 -0.1207 -1.7213
 3732TIP3    H232832   1.380   3.505   0.773 -0.7039 -0.5512 -0.1331
 3733TIP3   OH232833   6.334   1.539   8.717  0.4275 -0.2354 -0.0677
 3733TIP3    H132834   6.388   1.465   8.687  1.0125  0.3015 -0.3519
 3733TIP3    H232835   6.332   1.599   8.643 -0.2604 -0.0766  0.0769
 3734TIP3   OH232836   1.449   2.786   1.647  0.0236 -0.3334 -0.0662
 3734TIP3    H132837   1.516   2.802   1.713 -0.5516  0.1289  0.4123
 3734TIP3    H232838   1.490   2.724   1.586  1.3145  0.8654 -0.4621
 3735TIP3   OH232839   3.917   6.256   1.595  0.5831  0.0763  0.1699
 3735TIP3    H132840   3.894   6.260   1.502  0.0640  0.7019  0.3103
 3735TIP3    H232841   3.946   6.166   1.610 -1.7424 -0.7743 -0.0644
 3736TIP3   OH232842   5.880   4.897   0.070  0.1322  0.1358 -0.3648
 3736TIP3    H132843   5.845   4.978   0.106  1.3665  0.0233  1.1940
 3736TIP3    H232844   5.836   4.887  -0.014 -0.9302  1.7840 -0.0442
 3737TIP3   OH232845   3.851   6.386   1.824  0.0901  0.5976  0.4473
 3737TIP3    H132846   3.764   6.410   1.790  0.2147  0.1864 -0.1730
 3737TIP3    H232847   3.890   6.334   1.754 -0.1552 -1.4122  1.7426
 3738TIP3   OH232848   5.008   2.147   8.088  0.2514 -0.3991 -0.6954
 3738TIP3    H132849   4.940   2.101   8.137 -0.2773  0.4536 -0.6101
 3738TIP3    H232850   4.962   2.184   8.013  0.6600  0.0564 -0.7256
 3739TIP3   OH232851   1.567   6.537   0.798 -0.3134 -0.3661 -0.4464
 3739TIP3    H132852   1.481   6.544   0.840 -0.2890 -0.9733 -0.2877
 3739TIP3    H232853   1.629   6.562   0.867 -0.3251 -0.4990 -0.3886
 3740TIP3   OH232854   3.209   6.173   2.546 -0.3238  0.0989  0.7601
 3740TIP3    H132855   3.187   6.128   2.464  1.2761  0.0142  0.3389
 3740TIP3    H232856   3.218   6.102   2.610 -2.4216  0.2231  1.2720
 3741TIP3   OH232857   0.482   2.783   0.454 -0.0806 -0.4346 -0.3298
 3741TIP3    H132858   0.427   2.856   0.483  1.3195  1.0515 -1.2115
 3741TIP3    H232859   0.436   2.747   0.379 -0.0347  0.5983 -0.8729
 3742TIP3   OH232860   3.004   3.978   0.836 -0.2398  0.1357 -0.0564
 3742TIP3    H132861   2.969   4.032   0.765 -1.3940 -1.1774 -0.5343
 3742TIP3    H232862   3.089   3.949   0.804  0.7491  2.1959  0.5142
 3743TIP3   OH232863   2.737   5.334   1.445 -0.7537 -0.3908  0.1809
 3743TIP3    H132864   2.670   5.270   1.423 -0.9063  0.1593 -1.0195
 3743TIP3    H232865   2.710   5.414   1.400  0.2648  0.0784  0.3641
 3744TIP3   OH232866   3.114   3.005   8.005 -0.6725  0.9222 -0.2074
 3744TIP3    H132867   3.086   3.069   7.940  0.2656  1.0644 -0.4949
 3744TIP3    H232868   3.132   3.056   8.084  0.2817  1.0632 -0.5000
 3745TIP3   OH232869   6.113   0.001   8.009  0.0327  0.0802 -0.7594
 3745TIP3    H132870   6.044   0.067   8.021 -1.0581 -0.7266 -2.2686
 3745TIP3    H232871   6.076  -0.079   8.046  1.2431  0.1902  0.8087
 3746TIP3   OH232872   0.634   0.921   2.132  0.1821 -0.7058 -0.0367
 3746TIP3    H132873   0.571   0.862   2.090  1.1546 -1.7361 -0.1022
 3746TIP3    H232874   0.625   0.904   2.225 -0.4538  0.0085  0.0402
 3747TIP3   OH232875   2.321   3.353   0.561  0.4084  0.4420 -0.5405
 3747TIP3    H132876   2.329   3.327   0.469 -0.4019  1.6518 -0.9853
 3747TIP3    H232877   2.328   3.272   0.610 -0.8839 -0.4589 -1.7871
 3748TIP3   OH232878   3.595   1.617   7.266 -0.0268  0.9070  0.1100
 3748TIP3    H132879   3.562   1.702   7.297 -0.0970  1.4514 -1.3761
 3748TIP3    H232880   3.684   1.636   7.237 -0.2928  0.6423 -0.9017
 3749TIP3   OH232881   5.845   2.468   1.744  0.1196 -0.2912  0.3459
 3749TIP3    H132882   5.791   2.439   1.817 -0.6259  0.7287  0.2274
 3749TIP3    H232883   5.821   2.560   1.732  1.2675 -0.0508 -0.2679
 3750TIP3   OH232884   3.646   6.742   3.164 -0.0315 -0.7057  0.4202
 3750TIP3    H132885   3.568   6.738   3.220 -0.6691  1.4891 -0.2402
 3750TIP3    H232886   3.614   6.777   3.081  1.6748  0.3661  0.1744
 3751TIP3   OH232887   1.952   4.927   7.395 -0.0282 -0.2384  0.0569
 3751TIP3    H132888   1.967   4.999   7.333 -0.0656 -1.5180 -1.5151
 3751TIP3    H232889   1.857   4.924   7.405 -0.0013  0.2167  0.5108
 3752TIP3   OH232890   4.312   0.461   6.994 -0.3147  0.3093  0.1397
 3752TIP3    H132891   4.351   0.390   7.046 -1.3750  0.4384  1.1312
 3752TIP3    H232892   4.249   0.417   6.937  0.7245  0.1892 -0.9827
 3753TIP3   OH232893   2.974   1.618   1.588 -0.3179  0.1727 -0.2334
 3753TIP3    H132894   2.908   1.687   1.574  1.0554  1.3359 -1.2155
 3753TIP3    H232895   2.970   1.601   1.682  0.1062  2.4987  0.2760
 3754TIP3   OH232896   3.182   2.269   1.120 -0.5640  0.4413  0.0599
 3754TIP3    H132897   3.196   2.363   1.135  1.8037  0.0038  1.0064
 3754TIP3    H232898   3.114   2.245   1.183  1.6870  0.7944  2.8551
 3755TIP3   OH232899   5.032   0.408   0.771  0.1536 -0.0584  0.0114
 3755TIP3    H132900   5.005   0.419   0.680 -1.3433 -0.4088  0.3860
 3755TIP3    H232901   4.976   0.338   0.804  1.6289 -0.9026  0.8281
 3756TIP3   OH232902   0.650   5.311   0.056  0.0115  0.4916 -0.2778
 3756TIP3    H132903   0.714   5.381   0.051  0.0384  0.5713  0.9259
 3756TIP3    H232904   0.702   5.231   0.064 -0.0274  0.3681 -1.1382
 3757TIP3   OH232905   6.645   0.880   8.653 -0.2965 -1.1468  0.3239
 3757TIP3    H132906   6.636   0.821   8.728  2.6771  0.4609  2.1776
 3757TIP3    H232907   6.736   0.869   8.625  0.6033  2.7150  1.0972
 3758TIP3   OH232908   2.053   2.193   8.410 -0.1626 -0.4355  0.3273
 3758TIP3    H132909   2.146   2.199   8.434 -0.3315 -3.7405  2.3772
 3758TIP3    H232910   2.053   2.189   8.315  1.8645 -1.0577  0.3147
 3759TIP3   OH232911   0.549   1.795   1.543  0.3621  0.7183  0.3206
 3759TIP3    H132912   0.610   1.868   1.553  0.2876  0.8823 -0.3628
 3759TIP3    H232913   0.520   1.800   1.452 -0.8282  0.7584  0.6897
 3760TIP3   OH232914   5.094   2.936   0.784  0.3264 -0.2665  0.5997
 3760TIP3    H132915   5.153   2.897   0.848  1.0625  0.6210  0.4802
 3760TIP3    H232916   5.097   3.030   0.802  0.1999 -0.0455 -0.4472
 3761TIP3   OH232917   6.265   2.621   1.852 -0.2367  0.7441  0.4778
 3761TIP3    H132918   6.269   2.622   1.756 -0.1899  0.1623  0.4684
 3761TIP3    H232919   6.202   2.552   1.873 -0.5051  1.1002  0.8641
 3762TIP3   OH232920   6.679   4.851   8.414  0.0868 -0.4778 -0.1936
 3762TIP3    H132921   6.691   4.945   8.403 -0.7353  0.0274  2.5650
 3762TIP3    H232922   6.749   4.812   8.362  2.7801  1.7829  1.4319
 3763TIP3   OH232923   4.638   3.443   1.769 -0.0211 -0.3723 -0.2575
 3763TIP3    H132924   4.608   3.353   1.785 -0.2683 -0.0971  0.8965
 3763TIP3    H232925   4.614   3.460   1.678  0.1425 -1.5168 -0.5275
 3764TIP3   OH232926   3.690   1.058   8.468  0.4295  0.9404 -0.3985
 3764TIP3    H132927   3.675   0.987   8.406  3.4309  0.4902 -0.7734
 3764TIP3    H232928   3.677   1.138   8.417 -1.3863  0.6889 -0.3896
 3765TIP3   OH232929   5.714   0.756   1.170 -0.1049  0.4548  0.1136
 3765TIP3    H132930   5.795   0.766   1.121  0.3346  1.3685  0.9723
 3765TIP3    H232931   5.739   0.775   1.261 -1.3409  1.0553  0.3451
 3766TIP3   OH232932   0.590   0.077   2.118 -1.0075 -0.1149  0.6903
 3766TIP3    H132933   0.618   0.066   2.027 -0.6117 -1.6293  0.9605
 3766TIP3    H232934   0.554   0.165   2.122  3.2339  1.8815  0.1708
 3767TIP3   OH232935   6.267   1.955   1.490 -0.3118 -0.6055  0.1214
 3767TIP3    H132936   6.352   1.918   1.514  0.3811  0.8119 -0.0335
 3767TIP3    H232937   6.288   2.042   1.454 -1.7909 -0.3916 -0.2912
 3768TIP3   OH232938   2.729   6.797   2.583 -0.3329  0.4072  0.1384
 3768TIP3    H132939   2.655   6.847   2.618  0.5059  1.8328 -0.0209
 3768TIP3    H232940   2.723   6.711   2.624 -0.6654  1.3047  2.0419
 3769TIP3   OH232941   0.015   3.778   0.520 -0.3731  0.4111 -0.1911
 3769TIP3    H132942   0.070   3.801   0.445  3.0304 -3.0877  0.8490
 3769TIP3    H232943  -0.056   3.726   0.482 -0.1625  0.8361 -1.2100
 3770TIP3   OH232944   3.939   6.759   1.145  0.4309  0.3383 -0.4239
 3770TIP3    H132945   3.868   6.738   1.084  1.1410 -0.6983 -0.9311
 3770TIP3    H232946   3.896   6.801   1.219 -0.7479 -0.5052 -0.6014
 3771TIP3   OH232947   1.472   2.509   8.007 -0.1081  0.6424  0.2050
 3771TIP3    H132948   1.504   2.599   7.996 -0.4825  0.7532  0.0357
 3771TIP3    H232949   1.394   2.518   8.061 -0.9604  0.5630 -0.9823
 3772TIP3   OH232950   3.003   5.243   1.093  0.0826 -0.2429 -0.1939
 3772TIP3    H132951   2.934   5.186   1.059 -1.0450  1.1755 -0.3624
 3772TIP3    H232952   3.030   5.296   1.018 -0.2041  0.7264  0.3672
 3773TIP3   OH232953   4.372   3.922   0.763 -0.2174  0.3919  0.0472
 3773TIP3    H132954   4.432   3.925   0.837  0.9341 -1.5817 -0.7158
 3773TIP3    H232955   4.286   3.942   0.800  0.6020  1.3026  1.5421
 3774TIP3   OH232956   1.149   1.499   0.855 -0.8626  0.0605  0.3740
 3774TIP3    H132957   1.056   1.516   0.870 -1.0696  0.3013 -1.0816
 3774TIP3    H232958   1.178   1.571   0.799  0.2740  0.1260  1.0140
 3775TIP3   OH232959   5.724   3.408   2.638  0.0514 -0.2866  0.5836
 3775TIP3    H132960   5.647   3.409   2.694  0.5708  0.0295  1.3173
 3775TIP3    H232961   5.747   3.315   2.631  0.3964 -0.2802  1.5030
 3776TIP3   OH232962   5.069   3.240   2.896 -0.3242  0.9830 -0.2562
 3776TIP3    H132963   5.151   3.201   2.926 -0.4028  0.6404 -0.4816
 3776TIP3    H232964   5.033   3.176   2.834 -1.1883  0.7243  0.4815
 3777TIP3   OH232965   2.018   2.730   1.822  0.3811  0.2513  0.1511
 3777TIP3    H132966   1.956   2.802   1.833 -0.6809 -0.8484  1.7326
 3777TIP3    H232967   1.983   2.679   1.749 -0.7205 -0.4719  1.1580
 3778TIP3   OH232968   4.214   4.800   0.432  0.2462 -0.2012  0.6122
 3778TIP3    H132969   4.207   4.774   0.523 -2.1380  2.5648  1.4060
 3778TIP3    H232970   4.126   4.786   0.397  0.9125 -0.4438 -1.0477
 3779TIP3   OH232971   2.148   5.545   0.971  0.8277 -0.0301  0.6937
 3779TIP3    H132972   2.152   5.458   1.011 -0.2497 -0.8802 -0.9054
 3779TIP3    H232973   2.231   5.554   0.926  0.6611 -0.5643  0.2630
 3780TIP3   OH232974   5.710   6.760   0.592 -0.2201 -0.0679 -0.4040
 3780TIP3    H132975   5.758   6.722   0.666  0.0795  0.5960 -0.2500
 3780TIP3    H232976   5.721   6.696   0.521 -2.3929 -1.8248  0.7285
 3781TIP3   OH232977   0.434   2.362   1.802  0.2195 -0.2005  0.1244
 3781TIP3    H132978   0.381   2.395   1.875 -0.7697 -2.3459  0.4536
 3781TIP3    H232979   0.523   2.390   1.823 -0.4218  1.5882  0.6911
 3782TIP3   OH232980   5.534   5.160   7.934 -0.2398  0.7286 -0.3197
 3782TIP3    H132981   5.480   5.132   8.007 -1.3360  0.4122 -1.2190
 3782TIP3    H232982   5.623   5.138   7.960 -0.7871 -1.1219  0.1481
 3783TIP3   OH232983   3.826   4.054   7.352  0.2377 -0.0915  0.6291
 3783TIP3    H132984   3.886   4.046   7.278  1.8093  2.6502  1.4786
 3783TIP3    H232985   3.745   4.012   7.321  0.7513  1.0665 -2.7486
 3784TIP3   OH232986   1.459   5.055   2.095 -0.0216 -0.3421  0.0939
 3784TIP3    H132987   1.374   5.031   2.131 -0.5255  1.1570 -0.0292
 3784TIP3    H232988   1.462   5.151   2.101  1.3024 -0.3017 -0.6916
 3785TIP3   OH232989   2.284   3.375   2.708  0.0011  0.0502  0.2024
 3785TIP3    H132990   2.215   3.442   2.716  0.5752  0.6331  0.4000
 3785TIP3    H232991   2.359   3.423   2.672  0.1482 -0.6908 -0.4982
 3786TIP3   OH232992   3.255   4.596   2.150 -0.0014  0.0775  0.1171
 3786TIP3    H132993   3.237   4.522   2.207 -2.7413  0.3564 -0.2776
 3786TIP3    H232994   3.280   4.667   2.210  0.2414 -0.4841  0.6871
 3787TIP3   OH232995   3.407   3.583   1.481  0.3382 -0.0055 -0.1389
 3787TIP3    H132996   3.403   3.500   1.433 -0.9083  0.6618 -1.2680
 3787TIP3    H232997   3.471   3.636   1.434  0.3403  0.0587 -0.0655
 3788TIP3   OH232998   6.078   0.718   1.416  0.1540 -0.0020  0.5656
 3788TIP3    H132999   6.009   0.680   1.470  1.6412 -1.0431  1.8417
 3788TIP3    H233000   6.150   0.734   1.477  1.3356  0.2798 -0.8366
 3789TIP3   OH233001   5.642   0.916   1.719  0.5569  0.2280 -0.2626
 3789TIP3    H133002   5.621   0.834   1.675 -1.1406 -0.2376  1.2997
 3789TIP3    H233003   5.564   0.970   1.708 -0.0905 -0.0282  2.3188
 3790TIP3   OH233004   0.562   5.471   0.866  0.3477 -0.0345 -0.6622
 3790TIP3    H133005   0.486   5.522   0.892 -0.9782 -1.3477 -1.7635
 3790TIP3    H233006   0.602   5.443   0.948 -1.5406 -0.9751 -0.0081
 3791TIP3   OH233007   0.418   1.289   0.856  0.4268 -0.1201 -0.3599
 3791TIP3    H133008   0.348   1.242   0.902  0.6799 -0.3065 -0.1630
 3791TIP3    H233009   0.480   1.312   0.924  1.7849 -2.1039 -0.8251
 3792TIP3   OH233010   1.549   4.130   0.444  0.7362 -0.2186 -0.4280
 3792TIP3    H133011   1.535   4.056   0.386  0.0171  0.0910 -0.6551
 3792TIP3    H233012   1.605   4.190   0.394  0.9986 -0.4333 -0.3911
 3793TIP3   OH233013   3.341   5.536   8.353 -0.0049 -0.8778 -0.4248
 3793TIP3    H133014   3.370   5.617   8.310  1.9441 -1.2135  0.1370
 3793TIP3    H233015   3.269   5.504   8.298  1.3784 -0.4907 -2.6048
 3794TIP3   OH233016   6.043   4.143   8.834  0.0169  0.0936 -0.7814
 3794TIP3    H133017   6.123   4.126   8.785  0.9950  1.2320  0.3380
 3794TIP3    H233018   5.993   4.062   8.830  0.9959 -0.4649 -1.9345
 3795TIP3   OH233019   1.774   3.037   0.997  0.0787 -0.1860 -0.4488
 3795TIP3    H133020   1.730   3.096   0.936  1.9082 -0.2803 -1.9389
 3795TIP3    H233021   1.743   2.950   0.971 -0.3038 -0.1160 -0.2363
 3796TIP3   OH233022   5.864   6.270   2.099  0.2250 -0.8739  0.2577
 3796TIP3    H133023   5.946   6.234   2.134 -0.0933 -1.8923  0.0022
 3796TIP3    H233024   5.833   6.330   2.167  0.9192 -0.8839  0.5874
 3797TIP3   OH233025   5.650   4.726   7.895  0.4002  0.0167 -0.3061
 3797TIP3    H133026   5.658   4.679   7.978  0.1406  2.5260  1.2494
 3797TIP3    H233027   5.740   4.747   7.870  0.4084  0.8677  0.3798
 3798TIP3   OH233028   4.994   6.633   6.912 -0.2025 -0.2585 -0.3161
 3798TIP3    H133029   4.979   6.725   6.933  1.2475 -0.2171  0.7213
 3798TIP3    H233030   4.953   6.620   6.827  0.7652  1.7187 -1.1348
 3799TIP3   OH233031   2.593   5.159   1.708 -0.0701  0.0228 -0.0335
 3799TIP3    H133032   2.586   5.093   1.639 -0.0618 -1.4566  1.2997
 3799TIP3    H233033   2.503   5.178   1.733 -0.1829  2.1640 -1.8287
 3800TIP3   OH233034   0.389   2.226   0.008 -0.1536 -0.1228  0.0257
 3800TIP3    H133035   0.419   2.234  -0.083  1.6138 -0.6571  0.5239
 3800TIP3    H233036   0.294   2.220   0.001 -0.2057  1.6219 -1.6532
 3801TIP3   OH233037   4.539   4.400   1.713  0.1326  0.0876  0.6539
 3801TIP3    H133038   4.544   4.399   1.618  1.2653 -0.4192  0.7045
 3801TIP3    H233039   4.524   4.491   1.736 -1.5728  0.0232 -0.0556
 3802TIP3   OH233040   4.621   4.229   2.280 -0.3179  0.1969  0.3777
 3802TIP3    H133041   4.694   4.264   2.229  0.9243 -2.6485 -0.0424
 3802TIP3    H233042   4.551   4.216   2.215 -0.0423 -0.0255  0.1203
 3803TIP3   OH233043   4.809   2.088   8.245  0.0798 -0.4835 -0.0132
 3803TIP3    H133044   4.722   2.056   8.220  0.5078 -1.0040 -0.8449
 3803TIP3    H233045   4.850   2.014   8.290  0.1877 -0.3205  0.1584
 3804TIP3   OH233046   1.129   5.636   2.172 -0.0326  0.1494  0.5866
 3804TIP3    H133047   1.174   5.705   2.222 -0.2649  0.1111  0.8528
 3804TIP3    H233048   1.200   5.581   2.140  0.2948  1.5263 -1.1951
 3805TIP3   OH233049   6.042   1.388   8.148 -0.5436  0.2879  0.2646
 3805TIP3    H133050   5.969   1.349   8.100  0.2420 -0.6164 -0.2204
 3805TIP3    H233051   6.003   1.463   8.194 -1.9691 -0.6776  0.7089
 3806TIP3   OH233052   4.985   3.334   6.823  0.4939 -0.3733 -0.2237
 3806TIP3    H133053   5.056   3.275   6.849 -0.0590 -0.7110  0.5126
 3806TIP3    H233054   5.030   3.405   6.776  1.5028  0.1591  1.4730
 3807TIP3   OH233055   3.620   5.235   1.770 -0.3819 -0.0616 -0.5011
 3807TIP3    H133056   3.627   5.325   1.802  0.9907 -0.3542  0.0946
 3807TIP3    H233057   3.535   5.205   1.803 -0.8356  0.9949 -0.6776
 3808TIP3   OH233058   6.016   0.202   1.122  0.1525  0.2615  0.1289
 3808TIP3    H133059   6.076   0.154   1.179 -0.6317 -0.6231  0.2465
 3808TIP3    H233060   6.008   0.288   1.162  1.1428  0.3015  0.2448
 3809TIP3   OH233061   3.211   4.385   2.337 -0.2149  0.3211 -0.1052
 3809TIP3    H133062   3.131   4.333   2.329  0.0622 -0.3493  1.1533
 3809TIP3    H233063   3.239   4.371   2.428  1.0699  0.9348 -0.3886
 3810TIP3   OH233064   2.276   1.444   0.608 -0.0451  0.0656 -0.6141
 3810TIP3    H133065   2.215   1.413   0.541 -1.0460 -2.6969  1.3843
 3810TIP3    H233066   2.220   1.475   0.679  0.8526 -0.9156  0.5711
 3811TIP3   OH233067   3.578   6.712   7.931  0.2096  0.6837 -0.2915
 3811TIP3    H133068   3.604   6.668   8.011  0.2703  0.7922 -0.2509
 3811TIP3    H233069   3.660   6.728   7.884  0.0652 -0.6533 -1.0467
 3812TIP3   OH233070   0.328   2.710   2.941 -0.2339 -0.8339 -0.3130
 3812TIP3    H133071   0.396   2.765   2.981 -0.6277  0.6603 -1.6018
 3812TIP3    H233072   0.284   2.668   3.016  0.5397  0.0625  0.6756
 3813TIP3   OH233073   1.412   2.546   2.406 -0.2193  0.0646  0.0991
 3813TIP3    H133074   1.378   2.545   2.495 -2.5165  0.4595 -0.7029
 3813TIP3    H233075   1.366   2.475   2.361 -0.6782  1.1901 -1.2882
 3814TIP3   OH233076   6.799   0.098   7.225 -0.3371 -0.3263  0.2060
 3814TIP3    H133077   6.729   0.033   7.226 -0.0092 -0.7169 -0.6908
 3814TIP3    H233078   6.757   0.179   7.196 -0.3598 -0.6664 -0.7786
 3815TIP3   OH233079   1.149   6.303   8.383 -0.0955 -0.1483 -0.0689
 3815TIP3    H133080   1.142   6.226   8.328 -1.0876  1.3127 -2.1073
 3815TIP3    H233081   1.108   6.373   8.333 -2.2521  1.0707  3.0474
 3816TIP3   OH233082   1.356   6.054   7.474  0.1365  0.1679  0.2354
 3816TIP3    H133083   1.267   6.031   7.448 -0.3125  1.2435  0.7629
 3816TIP3    H233084   1.395   5.971   7.501  0.0140 -0.6833 -1.9960
 3817TIP3   OH233085   5.359   6.287   7.324 -0.1716 -0.5904 -0.3013
 3817TIP3    H133086   5.374   6.225   7.253 -0.1421  0.3409 -1.1409
 3817TIP3    H233087   5.447   6.321   7.344 -0.2566 -0.3963 -0.2593
 3818TIP3   OH233088   5.431   3.866   2.106 -0.4489  0.8369 -0.8628
 3818TIP3    H133089   5.520   3.832   2.114 -0.2655  1.6151  0.5596
 3818TIP3    H233090   5.439   3.960   2.121 -1.6457  0.7563  0.4960
 3819TIP3   OH233091   4.490   2.484   0.573 -0.0197  0.0588 -0.3767
 3819TIP3    H133092   4.515   2.576   0.574 -1.3467  0.4425  0.8699
 3819TIP3    H233093   4.535   2.448   0.496  1.7980  1.3551  0.0002
 3820TIP3   OH233094   3.703   5.587   7.404 -0.3169  0.1023 -0.3734
 3820TIP3    H133095   3.657   5.503   7.406  0.0114 -0.0800 -0.3443
 3820TIP3    H233096   3.687   5.625   7.491  0.7098 -0.5787  0.1331
 3821TIP3   OH233097   2.134   2.027   2.848 -0.1683 -0.7132  0.5715
 3821TIP3    H133098   2.198   1.989   2.908  1.3510 -0.3529 -0.7315
 3821TIP3    H233099   2.092   1.952   2.806  0.3572 -0.9688  0.4919
 3822TIP3   OH233100   5.368   1.886   8.020 -0.4511 -0.2263 -0.3834
 3822TIP3    H133101   5.345   1.796   7.997  2.3748 -1.0759 -0.3722
 3822TIP3    H233102   5.362   1.888   8.116 -0.9484 -0.2727 -0.4133
 3823TIP3   OH233103   3.567   3.495   1.180 -0.0672 -0.1644  0.0496
 3823TIP3    H133104   3.581   3.409   1.142  0.1159 -1.3310  2.5397
 3823TIP3    H233105   3.472   3.507   1.177 -0.4344 -1.8325  2.2583
 3824TIP3   OH233106   0.329   5.246   7.018 -0.3821 -0.2287 -0.0809
 3824TIP3    H133107   0.283   5.330   7.012 -1.0123 -0.5346  0.4829
 3824TIP3    H233108   0.407   5.258   6.962 -0.9006  0.4398 -0.6789
 3825TIP3   OH233109   6.465   5.825   1.778 -0.2359 -0.4760 -0.3400
 3825TIP3    H133110   6.507   5.754   1.729 -0.7571 -1.9939  1.3180
 3825TIP3    H233111   6.397   5.782   1.830 -0.1177  1.1245  1.2352
 3826TIP3   OH233112   2.325   6.507   0.345  0.4708 -0.2809 -0.1128
 3826TIP3    H133113   2.354   6.574   0.283  0.5466  0.2278  0.4637
 3826TIP3    H233114   2.396   6.501   0.409  0.8790 -1.5822 -0.6652
 3827TIP3   OH233115   1.965   0.719   2.327  0.0049 -0.2011  0.1231
 3827TIP3    H133116   2.001   0.691   2.411  0.8183 -1.0525 -0.4931
 3827TIP3    H233117   2.006   0.803   2.309  2.5888 -1.6090 -1.0555
 3828TIP3   OH233118   3.306   4.378   2.626 -0.2345 -0.0079  0.0995
 3828TIP3    H133119   3.396   4.372   2.659 -0.2000  0.1240  0.0324
 3828TIP3    H233120   3.259   4.309   2.672 -0.3430  0.6041  0.9390
 3829TIP3   OH233121   1.887   0.009   1.595  0.0462  0.3318 -0.4811
 3829TIP3    H133122   1.873  -0.076   1.553  1.0199  1.4183 -3.1949
 3829TIP3    H233123   1.982   0.016   1.603 -0.0733  0.6367  1.0354
 3830TIP3   OH233124   6.052   6.236   0.904 -0.2256 -0.2188 -0.0789
 3830TIP3    H133125   6.060   6.230   0.808  0.9041  1.2453 -0.1207
 3830TIP3    H233126   6.010   6.320   0.919 -2.1835 -1.2690  0.7091
 3831TIP3   OH233127   1.008   2.034   0.105 -0.4002 -0.0424 -0.3588
 3831TIP3    H133128   0.975   1.945   0.116 -0.3163 -0.4332 -2.7506
 3831TIP3    H233129   0.993   2.055   0.013  2.6658  1.1217 -0.7303
 3832TIP3   OH233130   0.875   5.292   2.019 -0.4988 -0.1811 -0.1328
 3832TIP3    H133131   0.849   5.203   1.997  0.4283 -0.6886  0.7315
 3832TIP3    H233132   0.857   5.301   2.112 -1.6242  0.9323 -0.4285
 3833TIP3   OH233133   2.935   3.575   7.959  0.3505  0.0250  0.3625
 3833TIP3    H133134   3.026   3.602   7.945  0.9964 -0.6914  2.7507
 3833TIP3    H233135   2.908   3.537   7.875  2.8200 -1.2715  0.0764
 3834TIP3   OH233136   6.474   2.281   3.151 -0.0390 -0.2721  0.3868
 3834TIP3    H133137   6.538   2.233   3.098 -0.0690 -0.9225  0.9260
 3834TIP3    H233138   6.468   2.231   3.232  0.8392  1.3094  1.4830
 3835TIP3   OH233139   0.471   4.593   7.690 -0.4300  0.1991 -0.2822
 3835TIP3    H133140   0.409   4.538   7.737 -1.4917  1.4898 -0.1049
 3835TIP3    H233141   0.514   4.534   7.628 -0.1913 -1.1764  1.1455
 3836TIP3   OH233142   4.883   1.352   7.822 -0.1571  0.0801  0.9702
 3836TIP3    H133143   4.841   1.432   7.855 -1.5281 -1.1684  2.4026
 3836TIP3    H233144   4.812   1.304   7.778  0.7198 -0.2218 -0.1621
 3837TIP3   OH233145   1.440   6.603   0.214  0.4361  0.3919 -0.2918
 3837TIP3    H133146   1.475   6.521   0.180  0.6513 -0.1474  1.1626
 3837TIP3    H233147   1.406   6.649   0.137  1.0508 -0.6920 -1.2314
 3838TIP3   OH233148   2.800   3.886   2.052  0.1835 -0.2683  0.5159
 3838TIP3    H133149   2.779   3.979   2.059  2.7885  0.3073  2.2598
 3838TIP3    H233150   2.795   3.854   2.142 -0.9745 -1.9416 -0.1017
 3839TIP3   OH233151   1.308   1.437   7.916  0.2652  0.3215  0.8166
 3839TIP3    H133152   1.298   1.352   7.958  0.2494  0.4874  1.1583
 3839TIP3    H233153   1.389   1.473   7.954 -0.3829  0.9858  1.6193
 3840TIP3   OH233154   4.469   5.640   1.950  0.3462  0.0268  0.0766
 3840TIP3    H133155   4.506   5.679   2.030  2.0028  3.0288 -1.9633
 3840TIP3    H233156   4.382   5.678   1.942  0.2500 -0.1370  0.3197
 3841TIP3   OH233157   0.276   1.157   7.628  0.0292 -0.4372 -0.3612
 3841TIP3    H133158   0.206   1.092   7.628  0.1593 -0.6366 -2.1916
 3841TIP3    H233159   0.281   1.188   7.538  2.4162 -0.5806 -0.3607
 3842TIP3   OH233160   3.528   1.337   0.684 -0.6565  0.4039  0.2961
 3842TIP3    H133161   3.476   1.265   0.649 -0.6072  0.3661  0.3002
 3842TIP3    H233162   3.542   1.314   0.776  0.0888 -0.0110  0.0934
 3843TIP3   OH233163   2.556   2.047   1.689  0.1917  0.2875 -0.1508
 3843TIP3    H133164   2.485   2.107   1.712 -1.2370 -1.0329 -0.9168
 3843TIP3    H233165   2.563   2.053   1.594 -0.0755 -0.8303 -0.2570
 3844TIP3   OH233166   0.581   5.716   2.006 -0.0041  0.0107 -0.2607
 3844TIP3    H133167   0.617   5.691   2.091 -0.4157  0.9953  0.2174
 3844TIP3    H233168   0.555   5.633   1.966 -1.1926 -0.3792  1.2074
 3845TIP3   OH233169   1.171   5.279   8.216 -0.5334  0.1127  0.4931
 3845TIP3    H133170   1.203   5.365   8.241 -0.6657  0.3048  0.0179
 3845TIP3    H233171   1.095   5.297   8.160  0.9547 -0.2252 -1.7975
 3846TIP3   OH233172   1.269   4.243   2.373  0.2323  0.2737  0.1991
 3846TIP3    H133173   1.244   4.201   2.455  0.5228 -0.6327 -0.1611
 3846TIP3    H233174   1.351   4.288   2.393  0.2590  0.1237  0.4318
 3847TIP3   OH233175   2.881   1.885   2.569  0.3874 -0.1298  0.0116
 3847TIP3    H133176   2.873   1.837   2.651 -2.1410 -2.2469 -1.3007
 3847TIP3    H233177   2.969   1.865   2.538  0.7890 -0.6447  1.4140
 3848TIP3   OH233178   2.972   2.289   1.277  0.3102 -0.4501 -0.4271
 3848TIP3    H133179   2.940   2.219   1.333 -0.6116 -0.1278 -0.5315
 3848TIP3    H233180   2.929   2.274   1.193  2.1402 -1.2903 -1.2792
 3849TIP3   OH233181   6.153   3.443   7.189 -0.0003 -0.2047 -0.0545
 3849TIP3    H133182   6.234   3.402   7.158 -0.6810 -2.5715  0.9963
 3849TIP3    H233183   6.178   3.533   7.209  2.0446 -0.4879 -0.9982
 3850TIP3   OH233184   0.511   6.431   8.384 -0.1545  0.0943 -0.2160
 3850TIP3    H133185   0.449   6.478   8.329  0.2433  0.6863 -0.1717
 3850TIP3    H233186   0.597   6.459   8.353  0.0759  0.2826  0.5660
 3851TIP3   OH233187   1.327   1.471   2.315 -0.4487 -0.0613  0.1993
 3851TIP3    H133188   1.350   1.492   2.405 -0.7386  0.7016  0.1031
 3851TIP3    H233189   1.407   1.436   2.276 -0.2140 -0.0016  0.6298
 3852TIP3   OH233190   6.529   4.489   2.073  0.0986 -0.1160  0.1031
 3852TIP3    H133191   6.544   4.581   2.093 -0.9629 -0.0014  0.4351
 3852TIP3    H233192   6.523   4.446   2.158  0.2742 -0.4431 -0.0457
 3853TIP3   OH233193   1.371   4.936   0.400  0.1023  0.1868 -0.3186
 3853TIP3    H133194   1.463   4.958   0.411 -0.1911  0.7965  1.1331
 3853TIP3    H233195   1.346   4.978   0.317  0.6869  1.5965  0.1844
 3854TIP3   OH233196   6.015   2.590   2.366 -0.0998  0.1151 -0.3740
 3854TIP3    H133197   6.017   2.685   2.367  0.3067  0.1452  1.7342
 3854TIP3    H233198   6.053   2.565   2.282  1.4876  1.7924 -0.1922
 3855TIP3   OH233199   1.958   5.905   1.216 -0.6690 -0.5121  0.0298
 3855TIP3    H133200   1.947   6.000   1.202  0.9640 -0.5294 -1.7923
 3855TIP3    H233201   1.961   5.869   1.128  1.0906 -1.9696  0.6401
 3856TIP3   OH233202   3.106   4.277   1.949 -0.0457 -0.0645  0.4579
 3856TIP3    H133203   3.024   4.260   1.995 -0.1428  0.8212  0.6156
 3856TIP3    H233204   3.098   4.227   1.867 -0.9026  0.3218  0.2997
 3857TIP3   OH233205   2.764   1.147   1.711  0.3153  0.2729  0.1194
 3857TIP3    H133206   2.770   1.234   1.670  0.6083  0.8058  1.2288
 3857TIP3    H233207   2.737   1.166   1.801 -1.2591 -0.9314 -0.0785
 3858TIP3   OH233208   6.804   2.998   0.174  0.5842 -0.3112  0.1778
 3858TIP3    H133209   6.831   3.046   0.096  0.4885  0.8341  0.8212
 3858TIP3    H233210   6.760   3.063   0.228 -0.6897 -1.4196  0.5349
 3859TIP3   OH233211   4.813   0.348   1.780 -0.3746 -0.2872  0.3522
 3859TIP3    H133212   4.876   0.279   1.800 -0.5212 -0.1144  1.4725
 3859TIP3    H233213   4.810   0.350   1.684  0.6021 -0.9429  0.2862
 3860TIP3   OH233214   3.038   3.532   0.994 -0.3050  0.5913  0.6452
 3860TIP3    H133215   3.131   3.530   1.016  0.3888  2.1402 -1.8265
 3860TIP3    H233216   3.017   3.625   0.989 -1.2349  0.3055 -1.6305
 3861TIP3   OH233217   1.070   6.617   7.828 -0.3103 -0.4481  0.2185
 3861TIP3    H133218   1.055   6.672   7.905  1.4450 -0.6080  0.6970
 3861TIP3    H233219   1.077   6.679   7.755  4.1741  0.3576  1.0856
 3862TIP3   OH233220   4.377   3.975   1.193  0.4425  0.1813  0.0135
 3862TIP3    H133221   4.364   4.042   1.126 -0.4400  0.2045  0.1884
 3862TIP3    H233222   4.291   3.933   1.202  0.4341  0.4580  1.4204
 3863TIP3   OH233223   2.415   3.309   1.432 -0.3782 -0.0509 -0.7932
 3863TIP3    H133224   2.406   3.226   1.384 -0.3885 -2.0961  2.4903
 3863TIP3    H233225   2.508   3.313   1.456 -0.8058 -0.3539  1.0337
 3864TIP3   OH233226   2.202   2.735   7.908 -0.2554  0.2942 -0.2729
 3864TIP3    H133227   2.139   2.800   7.939 -0.0208  1.0968 -1.4129
 3864TIP3    H233228   2.148   2.662   7.876 -0.5759  0.5985 -0.4298
 3865TIP3   OH233229   5.494   5.926   0.334 -0.1052 -0.0690 -0.2882
 3865TIP3    H133230   5.441   5.846   0.335 -1.2866  0.6196 -2.3516
 3865TIP3    H233231   5.448   5.984   0.273  2.1253  1.2154 -0.8458
 3866TIP3   OH233232   4.354   2.435   7.991  0.2052 -0.1729  0.8141
 3866TIP3    H133233   4.416   2.380   8.040 -0.9550 -1.5328  0.8326
 3866TIP3    H233234   4.387   2.524   8.002  2.5685 -0.8947  0.1846
 3867TIP3   OH233235   5.601   3.443   0.273 -0.2411 -0.7849  0.7312
 3867TIP3    H133236   5.579   3.350   0.266 -1.5258 -0.5136  1.0315
 3867TIP3    H233237   5.518   3.486   0.292  0.2097  0.5199 -0.1630
 3868TIP3   OH233238   3.028   5.697   7.003 -0.0052 -0.5059 -0.1936
 3868TIP3    H133239   2.999   5.760   6.937  2.2849  1.9719  0.9756
 3868TIP3    H233240   3.079   5.749   7.065  0.7965 -3.3107  1.6797
 3869TIP3   OH233241   5.753   1.233   7.807  0.0771 -0.6349  0.3051
 3869TIP3    H133242   5.825   1.212   7.748  0.4117 -0.5751  0.6916
 3869TIP3    H233243   5.792   1.233   7.894 -0.5741 -1.5012  0.6135
 3870TIP3   OH233244   0.099   4.839   8.574 -0.3291  0.0500 -0.0935
 3870TIP3    H133245   0.013   4.835   8.532 -1.1006 -1.3440  1.5032
 3870TIP3    H233246   0.138   4.920   8.541 -1.8701  0.2572 -1.5509
 3871TIP3   OH233247   5.416   0.462   7.962  0.2325 -0.0913  0.5326
 3871TIP3    H133248   5.329   0.451   7.998  0.3327  1.8830  1.5135
 3871TIP3    H233249   5.405   0.450   7.868 -1.6430  2.4730  0.3174
 3872TIP3   OH233250   6.658   2.723   7.943  0.0484 -0.2810  0.7347
 3872TIP3    H133251   6.657   2.663   7.869  0.5496  1.8197 -1.0532
 3872TIP3    H233252   6.748   2.719   7.977  0.4083  0.3123 -0.1274
 3873TIP3   OH233253   6.700   2.908   0.710  0.1367 -0.5763  0.3439
 3873TIP3    H133254   6.701   2.959   0.791  0.9460  0.3213 -0.2064
 3873TIP3    H233255   6.785   2.925   0.670 -1.5499  2.0846 -2.5407
 3874TIP3   OH233256   5.395   2.572   2.169  0.6503  0.3702 -0.7187
 3874TIP3    H133257   5.405   2.507   2.099  0.5932  0.3995 -0.7543
 3874TIP3    H233258   5.477   2.622   2.167  1.5396 -0.9488  0.5967
 3875TIP3   OH233259   0.700   6.566   1.333  0.7067 -0.1652 -0.2112
 3875TIP3    H133260   0.719   6.560   1.240  0.6013  0.8481 -0.3067
 3875TIP3    H233261   0.607   6.541   1.341  1.0709 -1.6126 -0.1851
 3876TIP3   OH233262   2.338   0.804   7.667 -0.1119  0.1173  0.1048
 3876TIP3    H133263   2.331   0.765   7.754 -0.2753 -0.3184 -0.1013
 3876TIP3    H233264   2.331   0.730   7.607  0.3735  0.3715 -0.2703
 3877TIP3   OH233265   5.210   2.292   8.596 -0.2286  0.3485  0.2530
 3877TIP3    H133266   5.146   2.362   8.587  0.4422  1.1080  1.1832
 3877TIP3    H233267   5.187   2.229   8.528 -2.3310  0.3173  0.9372
 3878TIP3   OH233268   5.742   3.816   1.068 -0.3731  0.0217 -0.2358
 3878TIP3    H133269   5.666   3.820   1.010  0.4088 -2.8136 -1.6476
 3878TIP3    H233270   5.726   3.740   1.124  1.1882 -0.3754 -0.2730
 3879TIP3   OH233271   2.577   1.981   7.154 -0.4280 -0.7056 -0.0530
 3879TIP3    H133272   2.653   1.997   7.210 -0.6589 -2.4877  0.8237
 3879TIP3    H233273   2.600   1.904   7.103 -0.9937 -0.2478 -1.0397
 3880TIP3   OH233274   5.658   2.687   8.042 -0.3183 -0.1481  0.4253
 3880TIP3    H133275   5.749   2.714   8.039 -0.7274  1.4207  0.9806
 3880TIP3    H233276   5.611   2.757   7.996 -1.3708 -0.2623  1.2982
 3881TIP3   OH233277   0.720   1.142   7.927  0.5171 -0.0224  0.4674
 3881TIP3    H133278   0.785   1.165   7.861  0.4163  2.6872  1.1776
 3881TIP3    H233279   0.635   1.158   7.885  0.3366 -1.6463  0.1720
 3882TIP3   OH233280   4.676   2.909   1.901  0.3121 -0.4838 -0.3773
 3882TIP3    H133281   4.761   2.901   1.945  0.1602 -0.6476 -0.1152
 3882TIP3    H233282   4.614   2.867   1.960  0.3546 -2.2897 -1.5414
 3883TIP3   OH233283   4.208   0.500   8.544 -0.3598 -0.2205 -0.4006
 3883TIP3    H133284   4.289   0.544   8.519 -0.3468 -1.6141 -3.1915
 3883TIP3    H233285   4.139   0.550   8.502 -1.3227  2.0046  3.3563
 3884TIP3   OH233286   6.705   1.652   0.381  0.2982  0.1105  0.1514
 3884TIP3    H133287   6.785   1.604   0.400 -0.8856 -1.8658  0.3441
 3884TIP3    H233288   6.666   1.669   0.466  0.7404  1.5507  0.0923
 3885TIP3   OH233289   6.467   1.224   2.558 -0.2028  0.1197  0.5038
 3885TIP3    H133290   6.481   1.130   2.543 -0.6191  0.0370  0.6324
 3885TIP3    H233291   6.514   1.241   2.640  0.1947  0.1060  0.2820
 3886TIP3   OH233292   1.726   0.774   2.192  0.2522  0.2516  0.3148
 3886TIP3    H133293   1.785   0.819   2.132  1.7906 -0.5877  1.1269
 3886TIP3    H233294   1.739   0.818   2.276  0.0881 -0.2403  0.6018
 3887TIP3   OH233295   2.439   2.360   0.930  0.2267  0.4894 -0.0571
 3887TIP3    H133296   2.475   2.333   0.845 -0.5668  0.0069 -0.2449
 3887TIP3    H233297   2.506   2.419   0.966  0.8984  0.1319 -0.6909
 3888TIP3   OH233298   2.958   4.750   8.261 -0.4034 -0.5186 -0.1629
 3888TIP3    H133299   3.026   4.725   8.199 -0.4489  0.9563 -0.8430
 3888TIP3    H233300   2.878   4.709   8.226 -0.7617  1.6478 -2.0818
 3889TIP3   OH233301   2.836   2.158   8.793  0.1362 -1.0302  0.8410
 3889TIP3    H133302   2.816   2.250   8.776 -0.4306 -0.8644  2.2758
 3889TIP3    H233303   2.858   2.122   8.707 -1.0702  0.0920  0.0221
 3890TIP3   OH233304   2.954   5.309   2.620  0.5025 -0.1338 -0.0533
 3890TIP3    H133305   2.911   5.225   2.603 -0.0471 -0.1865  1.4285
 3890TIP3    H233306   3.037   5.285   2.661  0.7964  0.0291 -0.5497
 3891TIP3   OH233307   5.102   1.117   2.498 -0.3419  0.1707 -0.0141
 3891TIP3    H133308   5.083   1.208   2.522 -1.4774 -0.2444  0.7595
 3891TIP3    H233309   5.066   1.066   2.571  0.7967 -0.8784 -0.1597
 3892TIP3   OH233310   4.900   5.174   0.395 -0.1195  0.5122 -0.4743
 3892TIP3    H133311   4.853   5.098   0.361  1.7496 -0.5602 -0.8079
 3892TIP3    H233312   4.908   5.233   0.320  2.5622 -1.1345 -1.6623
 3893TIP3   OH233313   6.577   3.113   7.393  0.3059  0.2116 -1.2968
 3893TIP3    H133314   6.654   3.069   7.429 -0.8238 -1.0126 -0.2519
 3893TIP3    H233315   6.535   3.047   7.337  0.4050  1.1175 -2.4727
 3894TIP3   OH233316   2.545   1.463   8.758  0.3886  0.3011  0.7124
 3894TIP3    H133317   2.455   1.444   8.736  0.6522 -1.9064  1.3350
 3894TIP3    H233318   2.596   1.429   8.685  0.7963  0.4701  0.9117
 3895TIP3   OH233319   2.797   1.847   0.330  0.4004 -0.5940 -0.1334
 3895TIP3    H133320   2.732   1.885   0.271 -0.1506  0.3846  1.0704
 3895TIP3    H233321   2.881   1.869   0.290  0.0735 -2.8712 -2.3361
 3896TIP3   OH233322   1.836   0.169   0.184  0.0124  0.2215 -0.5412
 3896TIP3    H133323   1.742   0.152   0.182  0.3595 -2.0160 -0.4669
 3896TIP3    H233324   1.866   0.132   0.267  1.1914 -0.6092 -1.3102
 3897TIP3   OH233325   3.465   3.220   0.758  0.5499 -0.3016 -0.2685
 3897TIP3    H133326   3.394   3.200   0.696  0.3016 -1.9620  0.4933
 3897TIP3    H233327   3.535   3.159   0.735  1.5670  0.9787 -0.6829
 3898TIP3   OH233328   4.728   4.131   7.490 -0.5053  0.3168  0.1433
 3898TIP3    H133329   4.781   4.099   7.417  0.4663  2.9417 -0.3896
 3898TIP3    H233330   4.744   4.225   7.492 -4.6537  1.1733  0.3967
 3899TIP3   OH233331   1.721   0.679   6.640 -0.7840 -0.8473  0.4516
 3899TIP3    H133332   1.765   0.639   6.714 -2.0011 -0.8094  1.2218
 3899TIP3    H233333   1.659   0.613   6.609 -0.9406 -0.5276  0.0660
 3900TIP3   OH233334   3.271   6.811   8.368 -0.7001 -0.3994 -0.3352
 3900TIP3    H133335   3.359   6.806   8.331 -0.3349 -0.9218  0.5633
 3900TIP3    H233336   3.230   6.886   8.325  1.0548  1.4333  1.0125
 3901TIP3   OH233337   4.218   1.153   2.520 -0.1515 -0.1873 -0.0218
 3901TIP3    H133338   4.273   1.086   2.560  0.3581  0.3756  0.2368
 3901TIP3    H233339   4.243   1.235   2.564  0.7938  0.5476 -1.8031
 3902TIP3   OH233340   2.279   4.223   1.622 -0.1583 -0.2079  0.1725
 3902TIP3    H133341   2.313   4.135   1.605  1.7769  0.2219  1.4485
 3902TIP3    H233342   2.235   4.248   1.541 -1.4600 -2.6313  0.0445
 3903TIP3   OH233343   2.462   5.309   8.869  0.4680  0.0315  0.2015
 3903TIP3    H133344   2.474   5.311   8.774  2.3525 -0.6200  0.3721
 3903TIP3    H233345   2.378   5.266   8.883  0.7356 -0.9789 -1.1632
 3904TIP3   OH233346   5.139   1.193   2.208  0.2508 -0.5986 -0.0586
 3904TIP3    H133347   5.092   1.168   2.287 -0.1730  2.4029  0.7902
 3904TIP3    H233348   5.228   1.161   2.221  0.4437  0.6583  2.1891
 3905TIP3   OH233349   2.106   0.376   0.587  0.3624  0.1450 -0.5559
 3905TIP3    H133350   2.191   0.397   0.626  0.4562 -1.0057 -0.1079
 3905TIP3    H233351   2.043   0.394   0.657  0.4164 -0.7282 -0.2706
 3906TIP3   OH233352   3.714   4.194   8.623  0.0479  0.1441  0.0088
 3906TIP3    H133353   3.749   4.114   8.585 -1.2230 -0.5300  0.1838
 3906TIP3    H233354   3.621   4.175   8.636 -0.0741  1.2890  0.9950
 3907TIP3   OH233355   3.994   0.356   2.185  0.1461  0.1141 -0.2010
 3907TIP3    H133356   3.920   0.298   2.170  0.0651 -0.3600  1.7420
 3907TIP3    H233357   4.014   0.393   2.099 -3.3935  1.5741 -0.5458
 3908TIP3   OH233358   1.871   1.053   8.489 -0.5168  0.1572  0.7488
 3908TIP3    H133359   1.812   0.997   8.438 -0.3350  0.4639  0.1942
 3908TIP3    H233360   1.876   1.010   8.575  0.1690 -1.0571  0.1337
 3909TIP3   OH233361   3.934   1.986   8.345 -0.2886 -0.1266 -0.1626
 3909TIP3    H133362   3.917   1.895   8.324  0.6418 -0.1166 -1.0677
 3909TIP3    H233363   3.995   1.983   8.420 -0.0480 -0.2577 -0.3626
 3910TIP3   OH233364   4.569   2.508   1.950 -0.0888  0.4659 -0.1981
 3910TIP3    H133365   4.494   2.568   1.950  1.0381  1.9195 -1.0122
 3910TIP3    H233366   4.636   2.553   1.899  1.4893 -0.6225  0.8392
 3911TIP3   OH233367   0.111   2.744   7.946  0.1015 -0.2011  0.1334
 3911TIP3    H133368   0.155   2.814   7.995  0.6189  0.2604 -0.9655
 3911TIP3    H233369   0.116   2.771   7.854  1.4823 -2.2834 -0.4838
 3912TIP3   OH233370   6.445   1.523   1.530 -0.4244 -0.3554  0.6352
 3912TIP3    H133371   6.398   1.450   1.491 -1.8601  0.5209  0.6680
 3912TIP3    H233372   6.480   1.488   1.612 -3.5474 -0.3034  2.1173
 3913TIP3   OH233373   2.184   5.495   7.657  0.2751 -0.3360  0.8086
 3913TIP3    H133374   2.276   5.468   7.654 -0.2722 -2.2200 -0.6272
 3913TIP3    H233375   2.137   5.426   7.611 -1.9169  0.4625  1.7166
 3914TIP3   OH233376   6.488   6.509   1.201 -0.0081  0.4304  0.1666
 3914TIP3    H133377   6.561   6.490   1.141  0.1084 -3.0795  1.1924
 3914TIP3    H233378   6.410   6.507   1.145  0.2909 -0.6729 -0.2364
 3915TIP3   OH233379   4.998   3.129   1.772  0.3721 -0.1684  0.3164
 3915TIP3    H133380   4.960   3.197   1.717  1.8942  1.4793  1.2186
 3915TIP3    H233381   4.943   3.128   1.851 -1.1144 -1.7437 -0.6553
 3916TIP3   OH233382   3.565   2.391   7.638 -0.0427 -0.3225 -0.3909
 3916TIP3    H133383   3.617   2.340   7.576  0.7058 -0.2077  0.1206
 3916TIP3    H233384   3.617   2.390   7.719 -0.7818 -0.0917  0.0951
 3917TIP3   OH233385   5.995   6.426   7.988  0.4460 -0.1192  0.3498
 3917TIP3    H133386   5.976   6.333   8.005  0.3870 -0.2343 -0.3162
 3917TIP3    H233387   6.062   6.424   7.920 -0.2105  0.3406 -0.3175
 3918TIP3   OH233388   1.571   6.668   7.742  0.3856 -0.0632 -0.2107
 3918TIP3    H133389   1.500   6.634   7.796  3.1891 -0.6376  3.4822
 3918TIP3    H233390   1.554   6.762   7.737 -1.3946 -0.3823 -0.7413
 3919TIP3   OH233391   5.555   0.310   2.474 -0.1352  0.4838  0.0732
 3919TIP3    H133392   5.576   0.400   2.498 -0.3817  0.4937  0.2547
 3919TIP3    H233393   5.463   0.312   2.448  0.2631  0.5742 -1.3972
 3920TIP3   OH233394   4.023   5.616   2.586  0.3030 -0.2685  0.2421
 3920TIP3    H133395   4.003   5.525   2.609  0.0833 -0.0511  0.9461
 3920TIP3    H233396   4.046   5.657   2.670 -2.1500  0.9632  0.3950
 3921TIP3   OH233397   0.889   3.738   0.307  0.1495 -0.6595  0.4923
 3921TIP3    H133398   0.859   3.822   0.272 -0.3639 -0.7992  0.5878
 3921TIP3    H233399   0.982   3.735   0.285  0.0034 -0.4124 -0.2022
 3922TIP3   OH233400   6.507   2.890   0.455  0.0359  0.1570 -0.3720
 3922TIP3    H133401   6.470   2.977   0.439 -1.5126 -0.3915 -0.0276
 3922TIP3    H233402   6.539   2.894   0.545 -2.6867 -0.4216  0.7199
 3923TIP3   OH233403   3.834   1.296   0.631  0.4750  0.3796  0.0167
 3923TIP3    H133404   3.792   1.267   0.551 -0.4315  2.1264 -0.1893
 3923TIP3    H233405   3.783   1.255   0.702  0.0844  0.3736 -0.2680
 3924TIP3   OH233406   0.342   0.185   1.962  0.5896  0.4545  0.1582
 3924TIP3    H133407   0.361   0.260   1.906  0.6998 -0.9871 -1.8640
 3924TIP3    H233408   0.386   0.204   2.045  0.6063  2.5867 -0.2892
 3925TIP3   OH233409   6.340   2.499   7.573  0.1150 -0.0932  0.4372
 3925TIP3    H133410   6.403   2.433   7.603 -1.1544 -0.9661  1.3009
 3925TIP3    H233411   6.371   2.524   7.486  2.0294  0.0144  1.1049
 3926TIP3   OH233412   5.884   4.940   8.283  0.0986  0.3468  0.1843
 3926TIP3    H133413   5.795   4.944   8.250  0.2812  0.9021 -0.2656
 3926TIP3    H233414   5.917   5.030   8.274  0.9596 -0.0108 -0.3874
 3927TIP3   OH233415   1.022   4.739   8.162 -0.0852 -0.3170 -0.6081
 3927TIP3    H133416   0.965   4.680   8.211 -2.6557  2.3153 -0.1593
 3927TIP3    H233417   0.977   4.750   8.078 -0.4099  1.9316 -0.1894
 3928TIP3   OH233418   2.114   4.797   7.590  0.1446 -0.6133 -0.3123
 3928TIP3    H133419   2.057   4.844   7.530  1.6951 -1.1322 -2.3004
 3928TIP3    H233420   2.054   4.754   7.651 -1.4857  0.1998 -1.2738
 3929TIP3   OH233421   1.044   3.537   0.115  0.5138  0.3428  0.4216
 3929TIP3    H133422   0.952   3.550   0.095  0.1039 -1.0554  1.2283
 3929TIP3    H233423   1.074   3.472   0.051 -0.1788 -2.2959  2.5949
 3930TIP3   OH233424   2.779   5.694   1.030 -0.3160 -0.2170  0.5113
 3930TIP3    H133425   2.697   5.649   1.007 -0.0006 -0.0732 -0.9704
 3930TIP3    H233426   2.814   5.643   1.103 -1.2295 -0.8843  0.5012
 3931TIP3   OH233427   2.537   5.431   1.836 -0.6336 -0.1250  0.3540
 3931TIP3    H133428   2.489   5.500   1.882 -0.3022  0.9283 -0.8247
 3931TIP3    H233429   2.472   5.390   1.780 -0.7699 -0.6070  0.8565
 3932TIP3   OH233430   2.951   3.382   1.925  0.3865  0.0474 -0.1246
 3932TIP3    H133431   2.890   3.450   1.953  0.0420  0.5757 -2.0219
 3932TIP3    H233432   3.000   3.359   2.004 -1.6504  0.2362  1.2649
 3933TIP3   OH233433   3.826   3.353   1.740 -0.0889 -0.0567  0.4843
 3933TIP3    H133434   3.735   3.340   1.766 -0.3000  1.2474  0.4400
 3933TIP3    H233435   3.875   3.288   1.792 -1.2245 -2.2741 -1.0568
 3934TIP3   OH233436   2.953   5.028   8.221 -0.1801 -0.1289  0.0770
 3934TIP3    H133437   3.022   5.093   8.210  0.3571 -0.8382 -0.7848
 3934TIP3    H233438   2.983   4.972   8.292  0.8175 -1.2844 -1.2136
 3935TIP3   OH233439   6.778   0.498   0.866  0.2944  0.0955 -0.4630
 3935TIP3    H133440   6.806   0.501   0.775  1.3174 -1.8705 -0.2756
 3935TIP3    H233441   6.689   0.461   0.862 -0.6060  2.1393 -0.7545
 3936TIP3   OH233442   6.215   0.925   0.542  0.5066  0.4903 -0.0326
 3936TIP3    H133443   6.263   0.856   0.496  1.2042  0.9086  0.0560
 3936TIP3    H233444   6.163   0.968   0.473 -0.6968 -0.7338  0.0723
 3937TIP3   OH233445   6.184   0.188   1.568  0.0237  0.3880 -0.3404
 3937TIP3    H133446   6.165   0.142   1.649 -1.7935  2.2233  0.3499
 3937TIP3    H233447   6.169   0.123   1.499  0.1542 -0.7773  0.6968
 3938TIP3   OH233448   2.745   2.944   1.207 -0.3919  1.1387 -0.8564
 3938TIP3    H133449   2.707   2.977   1.126 -0.3180 -1.1934 -1.9147
 3938TIP3    H233450   2.694   2.866   1.228  0.3890  1.0009  0.6548
 3939TIP3   OH233451   3.490   6.352   8.263 -0.2782 -0.3196  0.1039
 3939TIP3    H133452   3.403   6.334   8.228 -0.0570 -0.9866 -0.1195
 3939TIP3    H233453   3.494   6.448   8.269 -0.5435 -0.2131 -1.1214
 3940TIP3   OH233454   6.591   3.869   0.146  0.6991  0.0930 -0.0723
 3940TIP3    H133455   6.593   3.933   0.074  0.2004  0.2533  0.0523
 3940TIP3    H233456   6.554   3.790   0.107 -1.0440  0.6563  0.3656
 3941TIP3   OH233457   2.663   4.524   1.492  0.5362 -0.3510 -0.3421
 3941TIP3    H133458   2.610   4.572   1.555  0.1185 -0.0924 -0.8775
 3941TIP3    H233459   2.737   4.491   1.542  0.7840  0.7735  0.0659
 3942TIP3   OH233460   6.546   3.912   2.061  0.0812  0.1845  0.0334
 3942TIP3    H133461   6.640   3.902   2.069 -0.0723 -0.8654  0.7424
 3942TIP3    H233462   6.534   3.988   2.003  1.3445  0.3009 -0.0921
 3943TIP3   OH233463   5.276   5.911   0.564 -0.7854  0.3852 -0.1293
 3943TIP3    H133464   5.288   5.839   0.502  0.8550  0.7093 -0.2181
 3943TIP3    H233465   5.256   5.987   0.508  0.2072  0.5729 -0.2369
 3944TIP3   OH233466   4.654   6.002   0.499  0.5605  0.0728 -0.2590
 3944TIP3    H133467   4.640   6.058   0.423 -1.4268  1.0322  0.7237
 3944TIP3    H233468   4.740   6.028   0.532  0.2176  1.6897 -0.5535
 3945TIP3   OH233469   5.443   2.526   0.027  0.1242 -0.3248  0.6152
 3945TIP3    H133470   5.349   2.513   0.014  0.2274 -0.4618 -0.0321
 3945TIP3    H233471   5.481   2.518  -0.061  0.6662  0.3516  0.7722
 3946TIP3   OH233472   5.844   0.473   8.576  0.7878  0.1091  0.0130
 3946TIP3    H133473   5.899   0.395   8.567 -0.9017 -1.1625  0.1938
 3946TIP3    H233474   5.764   0.451   8.528 -2.0374 -0.5701  4.4539
 3947TIP3   OH233475   3.792   4.021   0.876 -0.2962  0.4477  0.0142
 3947TIP3    H133476   3.718   3.967   0.851 -0.7844  1.5376 -0.9926
 3947TIP3    H233477   3.864   3.959   0.888 -0.4998 -0.3724 -2.3692
 3948TIP3   OH233478   0.912   6.164   0.741  0.1075  0.6394  0.1158
 3948TIP3    H133479   0.982   6.170   0.807 -0.4092 -1.7411  0.9811
 3948TIP3    H233480   0.955   6.124   0.665 -0.1682 -0.2978  0.4457
 3949TIP3   OH233481   0.912   4.802   7.249  0.5689  0.1980 -0.0416
 3949TIP3    H133482   0.946   4.856   7.178  1.1741 -1.0322 -0.7331
 3949TIP3    H233483   0.825   4.775   7.219  0.3700  0.5776  0.1896
 3950TIP3   OH233484   6.586   4.050   1.596  1.3939  0.1712 -0.4432
 3950TIP3    H133485   6.496   4.048   1.564  0.5190  0.7542  1.8491
 3950TIP3    H233486   6.613   3.958   1.597 -0.5658 -0.4819  2.4270
 3951TIP3   OH233487   1.420   2.279   7.861  0.1485  0.3235  0.9446
 3951TIP3    H133488   1.451   2.356   7.909 -0.7277 -0.1621  2.3737
 3951TIP3    H233489   1.329   2.299   7.840  0.4303  0.3939 -0.2817
 3952TIP3   OH233490   1.350   2.240   2.658 -0.1134  0.1558 -0.0427
 3952TIP3    H133491   1.373   2.210   2.570 -1.2715 -0.5735 -0.1293
 3952TIP3    H233492   1.331   2.333   2.647  1.7289  0.5547 -0.1370
 3953TIP3   OH233493   5.717   4.080   0.096  0.5110 -0.1271 -0.2426
 3953TIP3    H133494   5.746   4.151   0.038  0.6706  0.3402  0.4001
 3953TIP3    H233495   5.660   4.027   0.041  0.5608  0.3743 -0.7984
 3954TIP3   OH233496   5.003   0.163   1.758 -0.6057  0.8534  0.4044
 3954TIP3    H133497   5.047   0.170   1.673 -0.5491  0.8146  0.4301
 3954TIP3    H233498   5.073   0.136   1.818 -1.2598 -2.4553 -0.1445
 3955TIP3   OH233499   3.411   1.307   1.878  0.5373  0.0234 -0.5760
 3955TIP3    H133500   3.387   1.382   1.824  3.1319 -0.4343 -2.5655
 3955TIP3    H233501   3.465   1.344   1.948  1.3496  0.1350 -1.2375
 3956TIP3   OH233502   2.784   3.730   0.480 -0.0663 -0.2549 -0.3621
 3956TIP3    H133503   2.877   3.750   0.470 -0.5238  2.6325  0.3571
 3956TIP3    H233504   2.779   3.684   0.564  0.5819  0.7117  0.2199
 3957TIP3   OH233505   2.058   0.486   1.219 -0.2481  0.1553 -0.0337
 3957TIP3    H133506   2.121   0.520   1.155 -0.8650  0.0592 -0.7114
 3957TIP3    H233507   2.064   0.545   1.293  1.1303 -0.2390  0.2008
 3958TIP3   OH233508   4.163   4.097   2.030  0.6069 -0.0873 -0.4479
 3958TIP3    H133509   4.158   4.030   1.962 -0.7204 -0.9852  0.4772
 3958TIP3    H233510   4.086   4.152   2.016  1.3187  0.8494 -0.7819
 3959TIP3   OH233511   3.581   3.275   1.879  0.2120  0.0409  0.4639
 3959TIP3    H133512   3.486   3.275   1.893  0.1002  0.5904 -0.2608
 3959TIP3    H233513   3.599   3.191   1.835  0.0288  0.0453  0.3800
 3960TIP3   OH233514   2.902   5.015   7.951 -0.4172 -0.6725  0.1590
 3960TIP3    H133515   2.845   5.091   7.940  0.0947 -0.4364 -1.0640
 3960TIP3    H233516   2.887   4.986   8.041 -1.2390  0.3662  0.3736
 3961TIP3   OH233517   3.135   4.838   8.025 -0.2693 -0.1068 -0.5396
 3961TIP3    H133518   3.062   4.891   7.995 -0.8642 -0.7367 -0.2180
 3961TIP3    H233519   3.127   4.756   7.978  0.0253 -0.3118 -0.2427
 3962TIP3   OH233520   3.542   3.375   8.197  0.5147  0.0958 -0.3222
 3962TIP3    H133521   3.484   3.307   8.162 -0.2845  1.3944 -1.6024
 3962TIP3    H233522   3.499   3.457   8.176  2.4390  1.0890 -0.6252
 3963TIP3   OH233523   2.305   3.464   2.010  0.2755 -0.2652  0.4698
 3963TIP3    H133524   2.393   3.436   2.034  0.6108 -0.4163 -0.8441
 3963TIP3    H233525   2.254   3.384   2.006  0.4779 -0.3673 -0.2846
 3964TIP3   OH233526   2.638   2.113   0.297 -0.4647  0.0624  0.1321
 3964TIP3    H133527   2.632   2.197   0.252  0.4858 -0.0677 -0.2649
 3964TIP3    H233528   2.715   2.121   0.353 -1.0247 -0.1519  0.9487
 3965TIP3   OH233529   3.496   0.001   2.944  0.1714 -0.3008 -0.0064
 3965TIP3    H133530   3.469   0.093   2.932 -2.9027 -1.0690  0.1054
 3965TIP3    H233531   3.480  -0.039   2.858  1.8317 -0.7084 -0.1528
 3966TIP3   OH233532   2.780   5.087   0.959  0.1382 -0.0359 -0.0476
 3966TIP3    H133533   2.726   5.019   0.998  0.2296 -0.1630 -0.1436
 3966TIP3    H233534   2.860   5.042   0.931  0.0442  0.0412 -0.4448
 3967TIP3   OH233535   2.337   4.809   1.421 -0.1532 -0.5429 -0.7974
 3967TIP3    H133536   2.285   4.737   1.458  1.2218 -1.1010  0.1536
 3967TIP3    H233537   2.374   4.773   1.341  1.8721 -1.5561  0.5028
 3968TIP3   OH233538   3.382   1.584   0.717  0.1062 -0.4203  0.6208
 3968TIP3    H133539   3.340   1.535   0.788 -0.0905 -1.2328 -0.0390
 3968TIP3    H233540   3.466   1.542   0.705  0.1329 -0.2948  0.3586
 3969TIP3   OH233541   2.007   3.228   7.190  0.9656  0.1522  0.0945
 3969TIP3    H133542   2.064   3.189   7.123  1.1344  0.6439 -0.0525
 3969TIP3    H233543   2.014   3.322   7.175  1.5600  0.3052  1.2591
 3970TIP3   OH233544   3.264   4.848   1.931  0.3470  0.3000 -0.0176
 3970TIP3    H133545   3.308   4.763   1.933 -0.5422 -0.2229 -1.4448
 3970TIP3    H233546   3.276   4.883   2.020  0.8037 -1.2717  0.5723
 3971TIP3   OH233547   0.093   4.282   8.613  0.0469 -0.8546  0.1093
 3971TIP3    H133548   0.049   4.367   8.624  0.7150 -0.3843 -0.7122
 3971TIP3    H233549   0.099   4.247   8.702 -1.8697 -0.9009  0.2717
 3972TIP3   OH233550   0.287   3.698   8.845 -0.3546  0.4182  0.0859
 3972TIP3    H133551   0.267   3.763   8.776 -0.2293 -0.1546 -0.4994
 3972TIP3    H233552   0.272   3.614   8.803  1.5379  0.0007  0.1895
 3973TIP3   OH233553   0.401   0.141   0.320 -0.5101  0.1046 -0.1573
 3973TIP3    H133554   0.375   0.159   0.230  0.5886 -1.7132 -0.8953
 3973TIP3    H233555   0.477   0.083   0.312  1.7052  2.4850  1.9164
 3974TIP3   OH233556   3.603   4.377   2.783 -0.2888  0.2208 -0.1539
 3974TIP3    H133557   3.555   4.295   2.775 -0.7819  0.5988 -1.1929
 3974TIP3    H233558   3.693   4.350   2.804 -0.8920 -0.4926  1.6965
 3975TIP3   OH233559   6.717   2.422   7.259  0.1945  0.6472  0.4494
 3975TIP3    H133560   6.801   2.437   7.215 -0.5861 -1.4012 -2.0357
 3975TIP3    H233561   6.738   2.363   7.331  0.9056 -0.1443 -0.3701
 3976TIP3   OH233562   5.026   3.053   1.387 -0.6122  0.2010 -0.1611
 3976TIP3    H133563   4.942   3.031   1.427 -1.8485  1.7845 -1.7152
 3976TIP3    H233564   5.027   3.004   1.304  1.0501 -1.5386  0.8088
 3977TIP3   OH233565   6.019   0.705   0.694  0.1431  0.1641  0.5482
 3977TIP3    H133566   6.050   0.750   0.615  0.4243 -1.2473 -0.1692
 3977TIP3    H233567   5.925   0.725   0.697  0.4504  1.7069  0.8875
 3978TIP3   OH233568   5.786   5.852   6.805  0.1169  0.2122  0.0860
 3978TIP3    H133569   5.728   5.826   6.876  0.7031 -1.4827 -0.0151
 3978TIP3    H233570   5.784   5.779   6.744  4.6480 -1.4304  1.5058
 3979TIP3   OH233571   5.954   0.007   2.702 -0.1605 -0.1508 -0.4399
 3979TIP3    H133572   5.891   0.073   2.672  1.3235  1.6003  0.0724
 3979TIP3    H233573   5.910  -0.077   2.689 -2.6586  0.9891  0.0818
 3980TIP3   OH233574   2.166   0.498   6.876  0.3555 -0.3004 -0.6442
 3980TIP3    H133575   2.175   0.436   6.948  0.4142  0.9780  0.4728
 3980TIP3    H233576   2.244   0.553   6.882 -0.1888  0.5244 -0.9910
 3981TIP3   OH233577   1.615   4.179   1.692  0.9614 -0.2121 -0.4991
 3981TIP3    H133578   1.559   4.255   1.677 -0.4814 -1.0603  0.3834
 3981TIP3    H233579   1.611   4.165   1.787 -0.1604 -2.3613 -0.7962
 3982TIP3   OH233580   4.196   2.045   1.752  0.4106 -0.0838  0.1664
 3982TIP3    H133581   4.138   1.989   1.803  0.3458  1.1265  1.4703
 3982TIP3    H233582   4.171   2.134   1.777  0.4970  0.5559 -1.8686
 3983TIP3   OH233583   2.374   0.029   1.331 -0.2119 -0.6692  0.1063
 3983TIP3    H133584   2.466   0.055   1.336 -0.6194  0.7003  1.6022
 3983TIP3    H233585   2.336   0.087   1.265 -0.1579 -0.7250  0.0260
 3984TIP3   OH233586   4.960   1.317   1.978 -0.5298 -0.3809 -0.4665
 3984TIP3    H133587   4.989   1.401   1.940  0.1662 -0.0747  0.7047
 3984TIP3    H233588   5.040   1.278   2.014 -0.7467 -1.8129 -1.4376
 3985TIP3   OH233589   2.853   1.116   1.023 -0.6480  0.2817 -0.1780
 3985TIP3    H133590   2.833   1.057   1.096  1.2557  0.2191  0.3573
 3985TIP3    H233591   2.849   1.204   1.060  0.4554  0.2436  0.0864
 3986TIP3   OH233592   4.891   6.052   1.927 -0.0173  0.1341  0.7681
 3986TIP3    H133593   4.929   5.980   1.875 -0.1014  0.8354 -0.2966
 3986TIP3    H233594   4.906   6.130   1.873 -0.7011  0.7881  1.5137
 3987TIP3   OH233595   3.888   4.579   0.233  0.6896  0.6307  0.0429
 3987TIP3    H133596   3.861   4.610   0.146 -1.1595  0.3204  0.4628
 3987TIP3    H233597   3.916   4.489   0.219  0.7773  0.7094 -0.2926
 3988TIP3   OH233598   2.745   0.814   8.485 -0.0002  0.3911 -0.1924
 3988TIP3    H133599   2.783   0.798   8.399 -0.0380 -2.4372  0.2172
 3988TIP3    H233600   2.807   0.776   8.547 -0.4920  1.3997  0.9734
 3989TIP3   OH233601   0.688   2.740   7.974 -0.1468  0.7707  0.1928
 3989TIP3    H133602   0.612   2.739   7.915  0.0509 -0.8079 -0.0777
 3989TIP3    H233603   0.764   2.732   7.916  0.0874 -0.0515  0.5943
 3990TIP3   OH233604   1.174   2.805   7.985  0.1196  0.3529  0.3201
 3990TIP3    H133605   1.100   2.853   8.022  1.0100  1.7302  0.3533
 3990TIP3    H233606   1.249   2.863   7.995  1.2442 -1.0386  0.3397
 3991TIP3   OH233607   4.201   4.162   7.703  0.0487  0.3509  0.1514
 3991TIP3    H133608   4.123   4.159   7.647  0.2297  0.2876 -0.0984
 3991TIP3    H233609   4.241   4.076   7.692  0.6047  0.6634 -0.3684
 3992TIP3   OH233610   2.596   6.330   1.564  0.1445  0.5837 -0.0959
 3992TIP3    H133611   2.676   6.343   1.511 -0.0194  1.8441 -0.0785
 3992TIP3    H233612   2.567   6.419   1.584 -1.9649  0.1902 -1.1307
 3993TIP3   OH233613   0.316   2.025   0.551 -0.0679 -0.1329 -0.4437
 3993TIP3    H133614   0.229   2.007   0.516  0.0337  0.1878 -0.8801
 3993TIP3    H233615   0.375   2.004   0.478  0.1125  1.0744 -0.6686
 3994TIP3   OH233616   6.693   6.028   7.904 -0.4673  0.0249  0.0619
 3994TIP3    H133617   6.670   6.110   7.947  1.2418 -0.4367  2.0553
 3994TIP3    H233618   6.788   6.022   7.912 -0.4264 -1.6151 -1.0532
 3995TIP3   OH233619   3.062   6.039   8.371 -0.0674 -0.4290  0.1582
 3995TIP3    H133620   3.000   6.059   8.442 -1.3448  0.8767 -1.2310
 3995TIP3    H233621   3.072   5.944   8.374  0.7672 -0.3380  2.7274
 3996TIP3   OH233622   0.458   4.071   2.632 -0.1115  0.1977 -0.0144
 3996TIP3    H133623   0.507   4.003   2.678 -0.2788  1.1438  1.6212
 3996TIP3    H233624   0.382   4.088   2.687  0.3587  2.3000  0.0653
 3997TIP3   OH233625   3.950   4.763   1.009 -0.2334 -0.1254 -0.3430
 3997TIP3    H133626   4.042   4.739   1.012  0.2652  1.6361 -0.7284
 3997TIP3    H233627   3.904   4.680   0.995  1.1093 -1.3301  1.8723
 3998TIP3   OH233628   3.787   4.919   7.374 -0.1208  0.0668 -0.3761
 3998TIP3    H133629   3.728   4.863   7.324  0.0372  0.4857 -1.0416
 3998TIP3    H233630   3.874   4.881   7.362 -0.0706  0.2168 -0.4941
 3999TIP3   OH233631   0.819   5.668   7.104 -0.4404  0.5479 -0.1101
 3999TIP3    H133632   0.767   5.727   7.050 -0.7539 -0.1187 -0.5550
 3999TIP3    H233633   0.910   5.691   7.085 -0.5480  0.1682 -1.0968
 4000TIP3   OH233634   5.194   5.406   7.922  1.0271  0.1435 -0.0756
 4000TIP3    H133635   5.171   5.313   7.927  0.7193  0.0180 -2.4286
 4000TIP3    H233636   5.127   5.451   7.974 -0.2631 -0.7849 -0.8779
 4001TIP3   OH233637   5.525   4.408   0.336  0.1081 -0.1785  0.2781
 4001TIP3    H133638   5.489   4.493   0.360 -0.6021 -0.0066 -1.2537
 4001TIP3    H233639   5.619   4.423   0.329 -0.0586  0.6420 -0.4712
 4002TIP3   OH233640   0.433   0.041   8.235 -0.4512  0.2319 -0.1134
 4002TIP3    H133641   0.476  -0.017   8.297 -0.0148  2.0898  1.4190
 4002TIP3    H233642   0.399   0.113   8.289 -1.3499  1.1877 -1.8579
 4003TIP3   OH233643   2.373   1.215   0.749 -0.3313  0.1882 -0.0099
 4003TIP3    H133644   2.328   1.262   0.678 -0.7229 -2.6751 -1.8294
 4003TIP3    H233645   2.449   1.269   0.769 -0.6635  1.5123 -2.0290
 4004TIP3   OH233646   4.346   3.119   0.472 -0.0691 -0.0342 -0.2286
 4004TIP3    H133647   4.386   3.034   0.449  0.9533 -0.1916  1.8916
 4004TIP3    H233648   4.254   3.110   0.446  0.2002 -1.5066 -0.7820
 4005TIP3   OH233649   2.139   1.997   0.749  0.0804 -0.0143  0.6161
 4005TIP3    H133650   2.222   2.009   0.702  0.5438  1.9519  1.8243
 4005TIP3    H233651   2.161   2.008   0.841 -1.5987  1.0917  0.9357
 4006TIP3   OH233652   2.255   2.488   1.113  0.4830 -0.1179  0.2967
 4006TIP3    H133653   2.308   2.464   1.036 -0.0981 -0.3386 -0.0461
 4006TIP3    H233654   2.285   2.575   1.137 -0.3734  0.6109 -1.1315
 4007TIP3   OH233655   6.085   3.190   2.117  0.4027  0.0806 -0.5237
 4007TIP3    H133656   6.097   3.266   2.175  0.4405 -0.1268 -0.2572
 4007TIP3    H233657   6.133   3.119   2.160  2.3768  0.4585 -1.9469
 4008TIP3   OH233658   6.069   3.466   1.743 -0.2028  0.0534 -0.0993
 4008TIP3    H133659   6.109   3.447   1.828 -1.0577  0.2504  0.3595
 4008TIP3    H233660   6.126   3.422   1.679  0.1680 -0.5280  0.6137
 4009TIP3   OH233661   4.468   4.078   1.427 -0.5021  0.2853  0.0082
 4009TIP3    H133662   4.483   3.991   1.465  1.1525  0.2793 -0.5788
 4009TIP3    H233663   4.409   4.061   1.353 -0.6788 -0.2505  0.2670
 4010TIP3   OH233664   5.418   1.389   7.981 -0.1442  0.0081  0.0292
 4010TIP3    H133665   5.478   1.352   8.045  1.1084  0.5029 -0.8243
 4010TIP3    H233666   5.379   1.464   8.025 -0.1547 -0.3164  0.5890
 4011TIP3   OH233667   4.113   3.337   6.894 -0.6902 -0.0925 -0.3255
 4011TIP3    H133668   4.138   3.257   6.941 -0.7248 -1.3956 -2.4325
 4011TIP3    H233669   4.022   3.352   6.920 -0.3052  0.0164  1.0515
 4012TIP3   OH233670   6.407   4.554   7.370 -0.1560  0.2302  0.6812
 4012TIP3    H133671   6.324   4.507   7.358 -0.0666  0.1528  0.3778
 4012TIP3    H233672   6.468   4.512   7.309  0.3121 -0.2190  1.4375
 4013TIP3   OH233673   2.210   3.583   2.309 -0.4809 -0.9319  0.2503
 4013TIP3    H133674   2.302   3.577   2.334 -0.0297 -0.3333 -1.1799
 4013TIP3    H233675   2.196   3.511   2.247 -0.9093 -0.8699  0.2687
 4014TIP3   OH233676   3.688   3.831   0.046 -0.3160  0.3783 -0.4470
 4014TIP3    H133677   3.743   3.762   0.010 -2.0169 -1.2114 -0.1256
 4014TIP3    H233678   3.692   3.901  -0.020  0.4868 -0.5103 -1.3770
 4015TIP3   OH233679   4.567   1.237   8.571 -0.3046 -1.0749  0.4484
 4015TIP3    H133680   4.539   1.175   8.504 -0.7138 -1.7313  1.2113
 4015TIP3    H233681   4.557   1.190   8.653  1.7471 -0.8612  0.8776
 4016TIP3   OH233682   5.977   0.395   1.744 -0.2093  0.3831 -0.0801
 4016TIP3    H133683   6.068   0.394   1.715  0.2153  1.5987  1.0829
 4016TIP3    H233684   5.934   0.327   1.692  1.4962 -0.6498 -0.2165
 4017TIP3   OH233685   0.138   4.833   1.969  0.4463  0.2945 -0.2280
 4017TIP3    H133686   0.166   4.853   1.880  1.7312  1.8007  0.4659
 4017TIP3    H233687   0.217   4.842   2.022  0.3816 -3.3600  0.7587
 4018TIP3   OH233688   4.958   3.006   7.422 -0.2921 -0.2955  0.0930
 4018TIP3    H133689   5.000   3.032   7.340 -0.3796  2.2641  0.7717
 4018TIP3    H233690   4.871   3.045   7.418 -0.7817 -1.2556  0.8800
 4019TIP3   OH233691   1.545   1.337   2.194 -0.2861 -0.0922  0.9480
 4019TIP3    H133692   1.601   1.259   2.197 -1.0049 -0.5928  2.7331
 4019TIP3    H233693   1.607   1.410   2.194  0.4196 -0.6498  2.1166
 4020TIP3   OH233694   2.721   6.048   7.681  0.2197 -0.3940 -0.0960
 4020TIP3    H133695   2.627   6.052   7.697  0.0740  0.4997 -1.0678
 4020TIP3    H233696   2.748   5.965   7.719 -0.8627 -0.4021  0.6974
 4021TIP3   OH233697   6.464   3.765   7.874 -0.0029  0.4065  0.4165
 4021TIP3    H133698   6.453   3.676   7.908  0.2729  0.1430 -0.1648
 4021TIP3    H233699   6.382   3.784   7.829  0.4773 -0.1382 -0.7382
 4022TIP3   OH233700   0.066   0.606   0.108  0.2384  0.7336  0.2656
 4022TIP3    H133701   0.117   0.535   0.146  0.6582  1.0752  0.3466
 4022TIP3    H233702   0.049   0.666   0.180 -0.2900  0.6203  0.2419
 4023TIP3   OH233703   3.130   0.624   7.977  0.2074  0.2956 -0.0228
 4023TIP3    H133704   3.184   0.550   7.953  0.9617  0.5306  0.8742
 4023TIP3    H233705   3.181   0.701   7.952  0.1729  0.5186  0.5614
 4024TIP3   OH233706   3.863   2.503   1.998 -0.0629  0.4403 -0.7591
 4024TIP3    H133707   3.922   2.455   2.057 -0.3947  1.5396  0.5046
 4024TIP3    H233708   3.779   2.458   2.006  0.3946 -0.7250 -2.0652
 4025TIP3   OH233709   1.556   4.696   0.161 -0.3429  0.5923  0.4066
 4025TIP3    H133710   1.489   4.633   0.133 -0.5382 -0.1719  2.4410
 4025TIP3    H233711   1.559   4.687   0.256  2.4376  0.8517  0.4187
 4026TIP3   OH233712   2.675   3.933   1.294 -0.2771  0.1822 -0.0212
 4026TIP3    H133713   2.580   3.926   1.304 -0.2765 -1.7756 -0.8409
 4026TIP3    H233714   2.688   3.944   1.199  0.3269  0.6392  0.1053
 4027TIP3   OH233715   3.666   4.097   0.363  0.1013  0.3027  0.0562
 4027TIP3    H133716   3.585   4.099   0.311 -1.0704  0.4272  1.7986
 4027TIP3    H233717   3.676   4.187   0.395 -0.2138 -0.1482  1.4911
 4028TIP3   OH233718   5.889   5.456   8.033 -0.4315  0.2920 -0.3501
 4028TIP3    H133719   5.916   5.514   7.961  1.1758  0.6173  0.4739
 4028TIP3    H233720   5.971   5.421   8.067 -1.1860 -0.0948  1.1396
 4029TIP3   OH233721   5.026   6.802   1.421 -0.1882  0.1216 -0.9743
 4029TIP3    H133722   5.005   6.855   1.344 -0.7308  0.2788 -0.7241
 4029TIP3    H233723   5.073   6.863   1.478  0.4592 -0.0728 -1.2967
 4030TIP3   OH233724   5.511   6.286   8.082  0.5095  0.6977 -0.0577
 4030TIP3    H133725   5.446   6.356   8.078  2.0134  2.1163 -1.7844
 4030TIP3    H233726   5.534   6.278   8.174 -2.0109  0.1856  0.5776
 4031TIP3   OH233727   1.674   2.317   0.803  0.3650  0.8633 -0.2057
 4031TIP3    H133728   1.700   2.380   0.870  0.9656  0.9922 -0.5456
 4031TIP3    H233729   1.629   2.248   0.851  4.9458 -1.5875  1.2303
 4032TIP3   OH233730   2.898   4.213   0.886 -0.4820  0.4729  0.6906
 4032TIP3    H133731   2.887   4.285   0.948  1.3149  2.3491 -0.9934
 4032TIP3    H233732   2.984   4.176   0.907 -0.3328  0.4264  0.0235
 4033TIP3   OH233733   0.151   5.827   1.535  0.3105 -0.1443 -0.2126
 4033TIP3    H133734   0.153   5.920   1.556 -0.2555  0.0437 -0.9288
 4033TIP3    H233735   0.117   5.785   1.614  0.2688  0.2930  0.0062
 4034TIP3   OH233736   2.818   6.382   0.453 -0.5380  0.2592  0.1303
 4034TIP3    H133737   2.826   6.289   0.432 -0.6322  0.7079 -2.0675
 4034TIP3    H233738   2.907   6.416   0.444 -0.5832  0.4827  0.5092
 4035TIP3   OH233739   0.921   0.323   2.462  1.2488  0.0170 -0.2170
 4035TIP3    H133740   0.992   0.278   2.508  1.8734  0.9446 -0.2416
 4035TIP3    H233741   0.960   0.349   2.378  0.9798  0.8182 -0.0988
 4036TIP3   OH233742   2.792   0.095   7.570 -0.3060  0.0862 -0.3412
 4036TIP3    H133743   2.782   0.001   7.551 -0.2276  0.0416 -0.1642
 4036TIP3    H233744   2.880   0.103   7.608  0.2527  0.4391 -1.6661
 4037TIP3   OH233745   2.912   6.686   2.951 -0.1011 -0.4295  0.1257
 4037TIP3    H133746   2.999   6.694   2.913 -0.8866  2.2084 -1.3644
 4037TIP3    H233747   2.884   6.776   2.966 -2.1344 -1.2365  1.6815
 4038TIP3   OH233748   5.176   1.515   8.591 -0.0427  0.3852  0.2573
 4038TIP3    H133749   5.111   1.446   8.604  0.1387  0.6147  3.2614
 4038TIP3    H233750   5.254   1.468   8.561 -0.1226 -0.7078  1.6027
 4039TIP3   OH233751   3.884   2.767   1.357  0.6293 -0.4726 -0.3175
 4039TIP3    H133752   3.926   2.685   1.384  2.0755  0.0774 -0.7905
 4039TIP3    H233753   3.935   2.795   1.280 -0.3298  0.4780 -0.6281
 4040TIP3   OH233754   2.416   4.958   8.819 -0.0309  0.0475 -0.3564
 4040TIP3    H133755   2.432   4.903   8.895 -0.8729 -0.0648 -0.2527
 4040TIP3    H233756   2.473   4.921   8.751 -0.0153 -0.4694 -0.0704
 4041TIP3   OH233757   6.081   2.536   0.558  0.3628  0.1535 -0.3464
 4041TIP3    H133758   6.126   2.580   0.486  1.5442  0.2197  0.3941
 4041TIP3    H233759   6.015   2.482   0.515  2.0239 -0.9900 -1.6181
 4042TIP3   OH233760   6.623   5.303   8.737  0.4730 -0.6651 -0.0477
 4042TIP3    H133761   6.633   5.398   8.732 -0.8011 -0.5224 -0.0794
 4042TIP3    H233762   6.710   5.271   8.762  0.3223  0.7000  2.4985
 4043TIP3   OH233763   4.864   4.603   1.543  1.0395  0.2737 -0.3911
 4043TIP3    H133764   4.826   4.691   1.540 -0.5439 -0.3913 -1.3449
 4043TIP3    H233765   4.830   4.560   1.464  2.9914 -0.7403 -0.7565
 4044TIP3   OH233766   5.705   3.451   1.378 -0.4143 -0.1823 -0.3254
 4044TIP3    H133767   5.729   3.465   1.469 -2.6232  0.1848  0.2399
 4044TIP3    H233768   5.679   3.538   1.346 -1.1268 -0.5747 -0.8395
 4045TIP3   OH233769   5.944   5.019   1.070 -0.0716  0.6172  0.1220
 4045TIP3    H133770   6.028   5.032   1.026 -0.7343  0.9113 -1.0962
 4045TIP3    H233771   5.938   4.924   1.081 -0.7737  0.3104 -2.3116
 4046TIP3   OH233772   1.004   1.800   1.055 -0.1162 -0.5904 -0.3232
 4046TIP3    H133773   1.083   1.747   1.055  1.1475  1.1094  2.3812
 4046TIP3    H233774   1.019   1.867   0.988  2.1611  1.4585  2.0071
 4047TIP3   OH233775   6.580   5.912   0.255 -0.1020  0.0455 -0.2580
 4047TIP3    H133776   6.636   5.868   0.191 -1.1239 -0.8397 -0.5818
 4047TIP3    H233777   6.514   5.957   0.202 -0.4231  0.0469  0.1405
 4048TIP3   OH233778   3.325   1.813   0.561  0.2920  0.2594 -0.3686
 4048TIP3    H133779   3.335   1.722   0.588 -2.8990  0.5214  2.2891
 4048TIP3    H233780   3.286   1.808   0.473  1.4771 -0.8638 -0.8465
 4049TIP3   OH233781   2.959   0.643   0.635 -0.4591 -0.3325  0.0150
 4049TIP3    H133782   2.883   0.670   0.583  0.1069 -2.1327 -1.9077
 4049TIP3    H233783   3.034   0.682   0.590 -0.0751 -0.4878  0.5084
 4050TIP3   OH233784   0.206   0.661   7.885  0.4701  0.7825 -0.6768
 4050TIP3    H133785   0.245   0.743   7.855  0.8834  0.4822 -0.9714
 4050TIP3    H233786   0.266   0.629   7.953 -0.6990  1.6992  0.8636
 4051TIP3   OH233787   4.968   5.665   1.555  0.0982 -0.1198  0.0376
 4051TIP3    H133788   4.987   5.670   1.462  1.7954  0.0141  0.3536
 4051TIP3    H233789   4.994   5.576   1.581 -1.4006 -0.5369  0.1922
 4052TIP3   OH233790   5.464   3.297   0.077  0.2958  0.0288  0.1398
 4052TIP3    H133791   5.380   3.254   0.094  0.6635 -0.7409  0.0388
 4052TIP3    H233792   5.440   3.386   0.050 -0.4579  0.0162  0.7113
 4053TIP3   OH233793   3.418   5.292   1.551 -0.4313  0.5642 -0.1320
 4053TIP3    H133794   3.358   5.224   1.582  0.0977 -0.7683 -1.8647
 4053TIP3    H233795   3.502   5.248   1.544  0.4200  1.9890  0.7234
 4054TIP3   OH233796   1.369   0.770   2.066 -0.5679  0.5421 -0.1794
 4054TIP3    H133797   1.370   0.866   2.071 -0.6372  0.5480 -0.2758
 4054TIP3    H233798   1.318   0.751   1.988  1.6495  0.4991 -1.7277
 4055TIP3   OH233799   1.561   5.757   7.449 -0.3090  0.9260 -1.1370
 4055TIP3    H133800   1.630   5.733   7.511 -0.5683  2.8691 -0.0040
 4055TIP3    H233801   1.480   5.741   7.496 -0.5401  1.2602 -1.4145
 4056TIP3   OH233802   4.026   0.664   0.655  0.2415  0.4025  0.3116
 4056TIP3    H133803   4.104   0.701   0.614 -0.6344  2.1600  0.1390
 4056TIP3    H233804   3.953   0.698   0.604 -0.6739 -0.9644  0.6502
 4057TIP3   OH233805   0.093   6.086   8.441 -0.5244  0.9243 -0.1713
 4057TIP3    H133806   0.017   6.143   8.438  0.7044  2.7061  0.7502
 4057TIP3    H233807   0.167   6.145   8.452  1.0337 -0.7216 -1.1333
 4058TIP3   OH233808   0.475   6.227   8.117 -0.2494 -0.4056 -0.1472
 4058TIP3    H133809   0.470   6.321   8.131  0.7550 -0.1732 -1.1967
 4058TIP3    H233810   0.384   6.196   8.125 -0.4899  0.5367  0.8522
 4059TIP3   OH233811   4.520   1.707   8.741  0.3963  0.3116 -0.2621
 4059TIP3    H133812   4.524   1.785   8.795  0.6211  1.3682 -1.7337
 4059TIP3    H233813   4.432   1.708   8.704  0.1712 -0.5136  0.2261
 4060TIP3   OH233814   2.469   5.996   8.346  0.0579 -0.0172 -0.1184
 4060TIP3    H133815   2.470   5.901   8.347 -1.5012 -0.0423  0.8741
 4060TIP3    H233816   2.464   6.019   8.253  1.6353 -0.8393 -0.4502
 4061TIP3   OH233817   1.370   5.417   2.460  0.3404  0.1637 -0.4788
 4061TIP3    H133818   1.318   5.495   2.441 -1.1314 -0.8580 -0.8294
 4061TIP3    H233819   1.333   5.349   2.404  2.6595 -0.4317 -1.4162
 4062TIP3   OH233820   3.715   4.054   1.636 -0.7521  0.3591  0.1064
 4062TIP3    H133821   3.717   4.142   1.674 -0.4366  0.6098 -0.4722
 4062TIP3    H233822   3.637   4.053   1.580 -0.0524  0.7276 -0.9155
 4063TIP3   OH233823   6.036   4.206   1.537  0.8026 -0.4561  0.0195
 4063TIP3    H133824   6.005   4.270   1.602  1.1451 -1.0046  0.7375
 4063TIP3    H233825   6.086   4.142   1.588  0.5245 -1.2641 -0.6950
 4064TIP3   OH233826   4.573   3.188   1.831  0.3555 -0.0628 -0.2765
 4064TIP3    H133827   4.602   3.134   1.904 -1.4115 -0.3301  0.2686
 4064TIP3    H233828   4.492   3.146   1.801  0.1363  1.0280 -1.2799
 4065TIP3   OH233829   1.766   4.055   1.184  0.3026  0.1706 -0.2552
 4065TIP3    H133830   1.691   4.087   1.133  1.2874  1.6036 -0.8658
 4065TIP3    H233831   1.836   4.118   1.166  1.7337 -1.2483  0.1351
 4066TIP3   OH233832   2.866   0.433   7.893  0.3416 -0.0592  0.2930
 4066TIP3    H133833   2.948   0.387   7.907  2.0888  2.6953 -0.1772
 4066TIP3    H233834   2.855   0.434   7.798 -0.6012 -0.9055  0.3705
 4067TIP3   OH233835   1.095   3.578   1.341 -0.1515  0.7819  0.2600
 4067TIP3    H133836   1.145   3.547   1.265 -0.5802  1.8396 -0.4744
 4067TIP3    H233837   1.017   3.523   1.342 -1.0865  1.9830 -1.2560
 4068TIP3   OH233838   3.775   2.167   1.959  0.4018  0.3077 -0.3012
 4068TIP3    H133839   3.853   2.169   2.015  0.5669  1.0172 -0.5502
 4068TIP3    H233840   3.808   2.177   1.870  0.0475  0.3239 -0.4347
 4069TIP3   OH233841   6.583   0.535   7.480 -0.0931  0.6494  0.0740
 4069TIP3    H133842   6.600   0.487   7.561 -0.2386  0.7848  0.1861
 4069TIP3    H233843   6.621   0.480   7.411 -0.0330  0.4986  0.2258
 4070TIP3   OH233844   5.537   3.423   8.168  0.1753  0.4181 -0.4953
 4070TIP3    H133845   5.459   3.478   8.171 -0.5005 -0.4026 -2.0113
 4070TIP3    H233846   5.604   3.473   8.216 -0.6414  2.1625 -1.1009
 4071TIP3   OH233847   0.294   2.629   7.476  0.2544 -0.3274  0.0132
 4071TIP3    H133848   0.375   2.664   7.514  0.0915 -1.2157  1.2336
 4071TIP3    H233849   0.236   2.706   7.468  0.9055  0.1610 -0.0636
 4072TIP3   OH233850   1.950   3.606   1.539  0.2558 -0.2491  0.5198
 4072TIP3    H133851   2.028   3.656   1.513  0.3707 -0.2623  0.8305
 4072TIP3    H233852   1.878   3.649   1.494  0.4155 -0.0977  0.4045
 4073TIP3   OH233853   5.269   2.259   3.036  0.3439  0.1375 -0.1311
 4073TIP3    H133854   5.177   2.279   3.052 -0.0474 -0.1785 -1.8771
 4073TIP3    H233855   5.315   2.339   3.062 -0.4850  0.5989 -0.0361
 4074TIP3   OH233856   5.768   4.045   1.977  0.2408  0.2509  0.3510
 4074TIP3    H133857   5.859   4.049   2.007 -0.0587 -0.8518  1.5173
 4074TIP3    H233858   5.726   3.982   2.036 -1.5047  1.4065  0.4395
 4075TIP3   OH233859   4.078   5.608   7.154  0.2598  0.1507  0.3188
 4075TIP3    H133860   4.153   5.668   7.147  0.2094  0.0371 -2.1584
 4075TIP3    H233861   4.054   5.610   7.246  0.9805  3.0868  0.5376
 4076TIP3   OH233862   0.524   1.356   0.623  0.0367 -0.1569  0.2679
 4076TIP3    H133863   0.486   1.317   0.701  1.8975  1.5049  2.1116
 4076TIP3    H233864   0.563   1.282   0.576  1.0352 -0.9117  2.2114
 4077TIP3   OH233865   0.562   4.692   0.431  0.8459 -0.2731  0.3078
 4077TIP3    H133866   0.619   4.620   0.458  3.2814  0.9789 -1.2281
 4077TIP3    H233867   0.599   4.769   0.473 -0.9102  0.3554  0.8048
 4078TIP3   OH233868   0.937   6.402   0.584 -0.4578 -0.3173  0.2700
 4078TIP3    H133869   0.915   6.326   0.638  0.4849 -0.6026  0.2775
 4078TIP3    H233870   1.025   6.382   0.550 -0.8494  0.0582 -1.0170
 4079TIP3   OH233871   1.125   0.590   8.368  0.0132  0.1788  0.0476
 4079TIP3    H133872   1.105   0.620   8.280  0.5615  0.0134 -0.1401
 4079TIP3    H233873   1.200   0.532   8.357  1.6055  1.9562  0.8511
 4080TIP3   OH233874   3.682   4.765   0.617 -0.4840  0.4078  0.1579
 4080TIP3    H133875   3.771   4.736   0.598 -0.4364 -0.9903  2.1756
 4080TIP3    H233876   3.682   4.859   0.598  1.0356  0.1950 -1.0593
 4081TIP3   OH233877   0.372   4.360   1.837  0.0733  0.0386  0.1093
 4081TIP3    H133878   0.355   4.358   1.742  0.7870 -0.3216 -0.0243
 4081TIP3    H233879   0.285   4.357   1.877 -0.2522  0.5981 -0.5367
 4082TIP3   OH233880   3.519   1.594   8.109  0.0278 -0.1207  0.5520
 4082TIP3    H133881   3.547   1.503   8.107  2.6598  0.5944  0.6875
 4082TIP3    H233882   3.474   1.604   8.193  2.7097 -0.5696  2.1500
 4083TIP3   OH233883   6.402   3.352   7.406 -0.5080 -0.0512 -0.3288
 4083TIP3    H133884   6.466   3.420   7.427 -1.1254 -0.0916  1.9656
 4083TIP3    H233885   6.455   3.275   7.384  0.1990  0.6035 -0.9699
 4084TIP3   OH233886   2.448   2.969   1.237 -0.0766  0.1639  0.1887
 4084TIP3    H133887   2.458   2.929   1.323 -1.7975 -0.5553  0.0994
 4084TIP3    H233888   2.376   3.031   1.247 -0.4297 -0.0628 -0.7583
 4085TIP3   OH233889   0.184   4.411   0.515  0.0661 -0.3210 -0.1961
 4085TIP3    H133890   0.269   4.373   0.490  0.0696  0.2905 -1.2056
 4085TIP3    H233891   0.177   4.489   0.460 -0.7614  0.1192  0.5195
 4086TIP3   OH233892   6.330   0.208   8.155 -0.3059  0.2155 -0.1295
 4086TIP3    H133893   6.317   0.170   8.068 -4.8020  1.3343 -0.2056
 4086TIP3    H233894   6.343   0.302   8.138  1.5612  0.0877  0.3853
 4087TIP3   OH233895   4.687   3.052   7.439  0.7316  0.1389 -0.0360
 4087TIP3    H133896   4.605   3.099   7.427  0.4427 -0.5963 -1.1317
 4087TIP3    H233897   4.712   3.069   7.530 -1.6307 -1.1699  0.9276
 4088TIP3   OH233898   4.255   2.565   1.052 -0.3939 -0.3111 -0.4113
 4088TIP3    H133899   4.274   2.497   1.117  0.8909  0.0416 -0.4008
 4088TIP3    H233900   4.229   2.517   0.974  1.9148 -0.9275 -0.8775
 4089TIP3   OH233901   3.725   0.434   2.481  0.6004 -0.0600 -0.1020
 4089TIP3    H133902   3.647   0.473   2.442  1.3221  1.2237 -0.3423
 4089TIP3    H233903   3.694   0.390   2.559 -0.4131  0.1175 -0.3902
 4090TIP3   OH233904   0.769   2.981   0.934 -0.2484 -0.1576  0.0015
 4090TIP3    H133905   0.819   2.904   0.962 -0.9870 -0.9684 -0.8290
 4090TIP3    H233906   0.747   2.963   0.842 -2.2921  0.0345  0.4064
 4091TIP3   OH233907   1.638   4.973   8.729 -0.6955  0.1981  0.6363
 4091TIP3    H133908   1.578   4.967   8.655  0.6167  1.0646 -0.5462
 4091TIP3    H233909   1.678   4.886   8.734  0.1819  0.4974 -0.5714
 4092TIP3   OH233910   0.726   4.716   7.756  0.2737 -0.4862 -0.7780
 4092TIP3    H133911   0.632   4.713   7.768 -0.3131  0.1603 -4.0831
 4092TIP3    H233912   0.749   4.627   7.727  0.5273 -0.4298 -0.7508
 4093TIP3   OH233913   4.497   4.141   8.569  0.0451 -0.3363  0.1758
 4093TIP3    H133914   4.489   4.233   8.542 -1.4667 -0.2743  0.7078
 4093TIP3    H233915   4.581   4.112   8.533 -0.2706  0.7358 -1.5448
 4094TIP3   OH233916   0.597   1.223   1.955  0.2999  0.6410 -0.3185
 4094TIP3    H133917   0.623   1.136   1.984  1.2974  1.1703  0.4110
 4094TIP3    H233918   0.637   1.232   1.868  0.0942  0.3272 -0.4463
 4095TIP3   OH233919   2.691   4.894   8.253 -0.8312 -0.8403  0.0452
 4095TIP3    H133920   2.688   4.809   8.208 -0.9152 -0.6774 -0.2586
 4095TIP3    H233921   2.784   4.918   8.253 -1.0711  0.5306 -2.6489
 4096TIP3   OH233922   2.591   0.669   8.013  0.3946  0.2920  0.0527
 4096TIP3    H133923   2.598   0.576   8.036 -1.2422 -0.2434 -1.3902
 4096TIP3    H233924   2.680   0.695   7.990  0.6781 -1.2552 -0.7001
 4097TIP3   OH233925   1.269   5.515   8.342  0.3942 -0.2488  0.1484
 4097TIP3    H133926   1.214   5.490   8.415  0.8090 -1.3553  0.0982
 4097TIP3    H233927   1.225   5.592   8.304 -0.7401 -0.7034  0.5040
 4098TIP3   OH233928   1.109   2.632   7.781 -0.4481  0.5440  0.0394
 4098TIP3    H133929   1.031   2.688   7.778 -0.0617  1.4790  3.1875
 4098TIP3    H233930   1.160   2.666   7.855  0.8667 -2.6604  0.7806
 4099TIP3   OH233931   0.342   3.856   0.877 -0.0828 -0.2809  0.0390
 4099TIP3    H133932   0.367   3.830   0.966 -0.4685  0.2324  0.3057
 4099TIP3    H233933   0.274   3.922   0.890  0.3482  0.3134 -0.6234
 4100TIP3   OH233934   1.312   1.204   8.824  0.4723  0.2797 -0.2047
 4100TIP3    H133935   1.274   1.125   8.785  0.8757 -0.5672  1.0671
 4100TIP3    H233936   1.257   1.221   8.901  0.7948  0.8530 -0.0956
 4101TIP3   OH233937   5.145   5.924   6.893 -0.1908 -0.0890  0.0422
 4101TIP3    H133938   5.238   5.916   6.869  0.1590  1.4132  0.7579
 4101TIP3    H233939   5.100   5.860   6.838  1.1999 -0.4437 -0.7324
 4102TIP3   OH233940   3.767   4.286   0.792  0.4360 -0.7181  0.4096
 4102TIP3    H133941   3.816   4.267   0.712  1.8304 -1.3048  1.3605
 4102TIP3    H233942   3.767   4.203   0.840 -2.0667 -0.9234  0.1945
 4103TIP3   OH233943   3.949   0.811   1.972 -0.5483 -0.7843  0.5133
 4103TIP3    H133944   3.978   0.725   2.003  0.0601 -0.8445 -0.1943
 4103TIP3    H233945   3.854   0.810   1.987 -0.5811 -1.6634  0.3297
 4104TIP3   OH233946   0.818   5.032   1.984  0.1082  0.6189 -0.3999
 4104TIP3    H133947   0.862   5.009   2.065  0.0765 -1.7214 -0.9891
 4104TIP3    H233948   0.748   4.967   1.975 -0.1629  1.0902 -2.0826
 4105TIP3   OH233949   5.916   4.438   1.699 -0.5901 -0.4103 -0.5422
 4105TIP3    H133950   5.904   4.448   1.794  0.1060  0.6838 -0.5549
 4105TIP3    H233951   5.828   4.429   1.665 -0.8699 -0.4832  0.1801
 4106TIP3   OH233952   0.343   1.077   2.963  0.0359  0.1385 -0.2560
 4106TIP3    H133953   0.424   1.089   2.913  0.9136  0.6625  1.2168
 4106TIP3    H233954   0.363   1.112   3.050 -0.2862 -3.7299  1.5671
 4107TIP3   OH233955   0.251   1.437   0.706 -0.9057  0.5509  0.0419
 4107TIP3    H133956   0.311   1.412   0.777  0.3698  1.6038 -0.6170
 4107TIP3    H233957   0.285   1.390   0.630 -1.6133  0.2862 -0.1161
 4108TIP3   OH233958   4.596   4.904   7.778  0.2222 -0.5387 -0.1669
 4108TIP3    H133959   4.545   4.938   7.851  0.0559  0.1068 -0.5739
 4108TIP3    H233960   4.542   4.834   7.740 -0.2315 -0.0662 -0.4060
 4109TIP3   OH233961   3.826   3.211   2.276  0.6129 -0.4852 -0.1291
 4109TIP3    H133962   3.799   3.158   2.202  0.9261 -1.7765  0.6473
 4109TIP3    H233963   3.883   3.154   2.327 -0.2674  0.0546  1.5549
 4110TIP3   OH233964   3.098   0.206   6.936 -0.5238 -0.3530  0.5911
 4110TIP3    H133965   3.101   0.222   7.031 -1.4537  1.0855  0.4126
 4110TIP3    H233966   3.009   0.230   6.911  0.6081  2.5058 -1.1364
 4111TIP3   OH233967   1.372   0.340   2.305 -0.2997 -0.1106  0.3283
 4111TIP3    H133968   1.444   0.320   2.245 -0.0600  2.8901 -0.5553
 4111TIP3    H233969   1.303   0.374   2.248 -1.1767  0.0853  1.4811
 4112TIP3   OH233970   4.540   3.468   7.175 -0.0513 -0.8568  0.1303
 4112TIP3    H133971   4.489   3.481   7.255 -0.3357  1.2421 -0.3473
 4112TIP3    H233972   4.478   3.484   7.104  0.5857 -1.0897 -0.4933
 4113TIP3   OH233973   2.712   0.628   7.600 -0.1416  0.2514 -0.0793
 4113TIP3    H133974   2.703   0.711   7.553 -0.5705 -0.4488 -1.2707
 4113TIP3    H233975   2.801   0.630   7.636  1.1497 -0.1841 -2.9766
 4114TIP3   OH233976   0.089   0.132   1.841  0.5045 -0.2753  0.5541
 4114TIP3    H133977   0.014   0.154   1.896  1.1553  1.7946  0.6788
 4114TIP3    H233978   0.165   0.154   1.895  1.1975 -1.2907  0.0097
 4115TIP3   OH233979   3.419   0.012   6.761 -0.2986 -0.0458  0.0347
 4115TIP3    H133980   3.390  -0.051   6.828 -0.7590 -1.2179 -1.2296
 4115TIP3    H233981   3.514   0.001   6.757 -0.2544  0.1167  0.5729
 4116TIP3   OH233982   2.106   2.373   1.414 -0.7006  0.2718  0.0157
 4116TIP3    H133983   2.142   2.364   1.325 -0.2224 -1.0562  0.3280
 4116TIP3    H233984   2.179   2.404   1.467 -1.2371  2.0480 -0.2102
 4117TIP3   OH233985   5.065   2.159   2.766  1.1539  0.3378  0.4154
 4117TIP3    H133986   4.998   2.218   2.731  0.4632 -0.7327 -0.1103
 4117TIP3    H233987   5.116   2.214   2.826 -0.5026  1.0639  1.2204
 4118TIP3   OH233988   3.847   3.626   1.803  0.1873 -0.3691  0.3416
 4118TIP3    H133989   3.888   3.541   1.784 -0.6313 -0.8124  0.5252
 4118TIP3    H233990   3.754   3.612   1.786  0.0557  0.5136  0.3161
 4119TIP3   OH233991   3.453   2.242   1.591  0.0462 -0.0442  0.4844
 4119TIP3    H133992   3.451   2.147   1.574 -0.2897 -0.3251  1.8959
 4119TIP3    H233993   3.486   2.249   1.681  0.5640  1.2251  0.2184
 4120TIP3   OH233994   3.310   0.067   2.417  0.5749  0.4513  0.7942
 4120TIP3    H133995   3.339   0.119   2.341  1.9898 -0.2565  0.8128
 4120TIP3    H233996   3.330   0.123   2.492  1.2763  0.2534  0.7630
 4121TIP3   OH233997   5.314   0.550   3.006  0.6613 -0.0190  0.0028
 4121TIP3    H133998   5.322   0.627   2.951  0.6933  0.0667  0.1273
 4121TIP3    H233999   5.373   0.485   2.966  0.5049 -0.0357 -0.1990
 4122TIP3   OH234000   2.319   1.206   8.004  0.4114  0.5725  0.0177
 4122TIP3    H134001   2.366   1.125   8.020  0.3857  0.3535 -0.9455
 4122TIP3    H234002   2.316   1.250   8.089  0.7462 -0.2591  0.4638
 4123TIP3   OH234003   6.075   0.222   0.622  0.0352  0.7555 -0.2027
 4123TIP3    H134004   6.127   0.143   0.639  0.0757  0.9096  0.4266
 4123TIP3    H234005   6.000   0.190   0.571 -1.0540 -0.0829  1.7990
 4124TIP3   OH234006   2.766   3.813   8.018 -0.0606 -0.4358 -0.3321
 4124TIP3    H134007   2.835   3.760   7.977 -0.6097  0.8405 -3.1622
 4124TIP3    H234008   2.806   3.899   8.030 -0.3344 -0.4336  0.6035
 4125TIP3   OH234009   0.739   3.501   1.680 -0.3257 -0.4430  0.1396
 4125TIP3    H134010   0.819   3.548   1.657 -1.2703  0.3392 -1.7479
 4125TIP3    H234011   0.766   3.442   1.751  1.6211  0.6517  0.3875
 4126TIP3   OH234012   0.171   1.013   0.189  0.0349 -0.8593  0.4369
 4126TIP3    H134013   0.244   1.070   0.212  0.0349 -0.6263 -0.1233
 4126TIP3    H234014   0.184   0.994   0.096 -0.7942 -0.5453  0.2506
 4127TIP3   OH234015   1.053   2.294   1.684 -0.2218  0.1353 -0.7981
 4127TIP3    H134016   1.059   2.218   1.626 -1.4857 -0.6891  0.1020
 4127TIP3    H234017   0.970   2.335   1.661  0.9937  1.9940 -2.1020
 4128TIP3   OH234018   1.215   6.506   2.790 -0.2693  0.2925 -0.0761
 4128TIP3    H134019   1.193   6.521   2.698  0.2500  1.5527 -0.0167
 4128TIP3    H234020   1.137   6.532   2.838  1.0561  4.5972  0.1234
 4129TIP3   OH234021   6.260   2.378   0.251  0.1014 -0.0582  0.5007
 4129TIP3    H134022   6.314   2.299   0.251  0.9816  0.5047 -0.7131
 4129TIP3    H234023   6.192   2.359   0.186  0.9510  0.5583 -0.6070
 4130TIP3   OH234024   5.079   0.849   0.075  0.1581  0.2572  0.3923
 4130TIP3    H134025   5.131   0.922   0.043  3.1669 -1.8550  0.0187
 4130TIP3    H234026   5.001   0.849   0.020  1.9763  0.8411 -2.3966
 4131TIP3   OH234027   1.804   1.376   7.969 -0.2055  0.0308  0.2764
 4131TIP3    H134028   1.848   1.461   7.970 -0.7880  0.3336  0.6260
 4131TIP3    H234029   1.845   1.327   8.041 -0.7201  0.4663  0.8836
 4132TIP3   OH234030   4.182   5.943   0.891 -0.8974  0.0079 -0.2985
 4132TIP3    H134031   4.248   5.979   0.832  0.7664  0.4981  1.7336
 4132TIP3    H234032   4.189   5.849   0.879  1.1175 -0.0348  0.7435
 4133TIP3   OH234033   6.314   5.290   6.858 -0.6635 -0.7267  0.6489
 4133TIP3    H134034   6.372   5.234   6.911 -1.4030  0.2640  2.6113
 4133TIP3    H234035   6.373   5.355   6.820 -0.0744 -1.6366 -0.0573
 4134TIP3   OH234036   6.187   1.177   8.721  0.4087 -0.1868  0.1619
 4134TIP3    H134037   6.198   1.128   8.640  0.2065  0.3983 -0.2313
 4134TIP3    H234038   6.269   1.226   8.730  0.0077  0.5881 -0.2813
 4135TIP3   OH234039   0.536   1.957   7.449 -0.6047  0.2392  0.6245
 4135TIP3    H134040   0.483   1.939   7.371  3.7752 -1.7716 -2.3312
 4135TIP3    H234041   0.503   1.895   7.515 -1.7188 -1.1686 -1.1478
 4136TIP3   OH234042   6.789   0.440   1.149  0.5734 -0.4644 -0.0497
 4136TIP3    H134043   6.760   0.485   1.070 -0.9869 -0.8609  0.2610
 4136TIP3    H234044   6.859   0.382   1.120  0.2522 -0.3505 -1.0741
 4137TIP3   OH234045   2.575   5.900   1.552  0.3919 -0.3102  0.3127
 4137TIP3    H134046   2.491   5.856   1.564 -0.6505  1.4343 -0.1478
 4137TIP3    H234047   2.557   5.992   1.575  1.6585  0.4933 -1.6430
 4138TIP3   OH234048   4.895   4.333   0.583  0.7567  0.1899 -0.4232
 4138TIP3    H134049   4.876   4.383   0.663  1.2144  0.5223 -0.5223
 4138TIP3    H234050   4.846   4.379   0.514  2.9618  1.9226 -0.9574
 4139TIP3   OH234051   0.755   3.595   0.044 -0.3561 -0.4547  0.3385
 4139TIP3    H134052   0.742   3.547  -0.038 -0.3238  0.6477 -0.3236
 4139TIP3    H234053   0.757   3.687   0.018  0.3886 -0.1307  1.4866
 4140TIP3   OH234054   0.144   1.174   0.595 -0.3562 -0.2321  0.2391
 4140TIP3    H134055   0.114   1.163   0.505  1.5432 -1.7022 -0.2749
 4140TIP3    H234056   0.066   1.157   0.648 -1.1053 -1.1056 -1.0765
 4141TIP3   OH234057   2.109   3.707   2.053 -0.3001  0.7124  0.8862
 4141TIP3    H134058   2.108   3.664   2.138  0.8839 -1.7626 -0.2473
 4141TIP3    H234059   2.060   3.649   1.995  1.4293  0.7635 -0.7520
 4142TIP3   OH234060   1.141   1.834   0.423  0.2895  0.1524 -0.4119
 4142TIP3    H134061   1.117   1.926   0.428 -0.6757 -0.0667 -0.7083
 4142TIP3    H234062   1.144   1.815   0.329  2.4493  0.3510 -0.4290
 4143TIP3   OH234063   5.938   2.191   8.459  0.7694 -0.5885  0.3505
 4143TIP3    H134064   5.992   2.112   8.449 -0.3043 -1.2452 -0.4321
 4143TIP3    H234065   5.851   2.165   8.429  0.7748  1.3659 -1.5551
 4144TIP3   OH234066   4.915   2.883   2.028  0.1740 -0.0556  0.1106
 4144TIP3    H134067   4.971   2.873   1.951 -0.9288  0.8547 -0.8480
 4144TIP3    H234068   4.924   2.975   2.051 -0.9684  0.1240 -0.1124
 4145TIP3   OH234069   5.484   4.091   8.695  0.3069 -0.1263 -0.4970
 4145TIP3    H134070   5.441   4.173   8.670  3.1160  1.9363  0.9250
 4145TIP3    H234071   5.434   4.060   8.771 -0.2450  0.7745 -0.4830
 4146TIP3   OH234072   2.649   5.706   1.741  0.5144  0.5359 -0.0521
 4146TIP3    H134073   2.621   5.750   1.661  0.1485  0.0819 -0.1761
 4146TIP3    H234074   2.646   5.612   1.719  0.8694  0.4298  0.3424
 4147TIP3   OH234075   1.751   5.614   8.318 -0.1646  0.7828  0.3457
 4147TIP3    H134076   1.779   5.637   8.406 -0.2966 -1.3815  0.9835
 4147TIP3    H234077   1.796   5.532   8.298 -1.4588  0.3322 -0.9307
 4148TIP3   OH234078   6.148   5.492   0.377 -0.3561 -0.6645  0.2099
 4148TIP3    H134079   6.093   5.565   0.407 -0.2600 -0.4732 -0.0806
 4148TIP3    H234080   6.088   5.418   0.369 -0.7966 -0.1901 -1.1687
 4149TIP3   OH234081   3.232   0.200   1.913 -0.3671  0.1127  0.2660
 4149TIP3    H134082   3.179   0.195   1.993 -0.5407 -2.2327  0.0620
 4149TIP3    H234083   3.188   0.268   1.861 -3.5016 -1.9188 -0.0380
 4150TIP3   OH234084   1.507   0.949   8.840 -0.2343 -0.3166 -0.5108
 4150TIP3    H134085   1.537   0.964   8.930  1.0728  0.3429 -1.0244
 4150TIP3    H234086   1.460   1.029   8.817  1.4224  0.5102 -1.1654
 4151TIP3   OH234087   5.087   5.227   8.758 -0.0831  0.4547 -0.0289
 4151TIP3    H134088   5.096   5.322   8.751 -2.8238  0.7437 -0.5493
 4151TIP3    H234089   5.138   5.205   8.836 -0.2821  2.5098  0.7687
 4152TIP3   OH234090   2.698   3.527   2.009 -0.1673  1.2094 -0.0488
 4152TIP3    H134091   2.728   3.579   2.083  0.5772  0.3973  0.2464
 4152TIP3    H234092   2.645   3.458   2.049  1.9345 -0.4852  0.0103
 4153TIP3   OH234093   3.381   3.215   7.629 -0.2988 -0.3969 -0.6786
 4153TIP3    H134094   3.408   3.151   7.695 -0.4430  0.2802  0.0533
 4153TIP3    H234095   3.318   3.167   7.574 -0.0698 -1.0123 -0.4172
 4154TIP3   OH234096   6.750   2.020   8.049  0.2836  0.0997 -0.3779
 4154TIP3    H134097   6.755   2.092   8.111  1.2394 -0.6919  0.5041
 4154TIP3    H234098   6.754   1.941   8.104 -2.1974 -0.6726 -1.1831
 4155TIP3   OH234099   5.344   6.713   2.079  0.4036 -1.0598 -0.0601
 4155TIP3    H134100   5.318   6.721   1.987 -1.3332 -0.2181  0.4508
 4155TIP3    H234101   5.310   6.628   2.106  0.0190 -0.8631  0.0718
 4156TIP3   OH234102   6.545   6.288   2.209 -0.4112  0.1221  0.0473
 4156TIP3    H134103   6.593   6.205   2.217 -0.6339 -0.0868 -0.7183
 4156TIP3    H234104   6.453   6.262   2.207 -0.6357  0.5615  2.1407
 4157TIP3   OH234105   4.975   3.577   0.421 -0.4823  0.5195 -0.0929
 4157TIP3    H134106   4.965   3.662   0.464 -1.4607  0.0061  0.7705
 4157TIP3    H234107   4.937   3.589   0.334 -0.0124  1.1319 -0.2194
 4158TIP3   OH234108   3.407   4.165   1.741 -0.0534  0.2208 -0.5474
 4158TIP3    H134109   3.411   4.236   1.806  1.7321 -0.4244  0.1234
 4158TIP3    H234110   3.415   4.085   1.792 -0.8872 -0.4250 -1.3955
 4159TIP3   OH234111   0.077   0.779   8.596 -0.2108  0.6489  0.2465
 4159TIP3    H134112   0.106   0.777   8.505 -0.0979  1.0412  0.2729
 4159TIP3    H234113   0.126   0.708   8.638  0.6799  1.2619  0.2718
 4160TIP3   OH234114   6.082   4.851   0.372  0.2530  0.0916 -0.6439
 4160TIP3    H134115   6.123   4.769   0.397  1.5467  0.3397 -1.7979
 4160TIP3    H234116   5.996   4.850   0.414  1.7159 -0.0732  2.6130
 4161TIP3   OH234117   0.122   6.306   0.921 -0.3441 -0.1413  0.1919
 4161TIP3    H134118   0.145   6.218   0.952  0.1800  0.2278  0.8910
 4161TIP3    H234119   0.204   6.354   0.924 -0.0449 -0.3030 -2.6891
 4162TIP3   OH234120   3.903   5.653   0.839  0.0414  0.3625 -0.3717
 4162TIP3    H134121   3.855   5.704   0.775  1.1744  2.8248  0.6273
 4162TIP3    H234122   3.995   5.663   0.815  0.4166  0.4037  0.9590
 4163TIP3   OH234123   4.637   0.816   2.385  0.6551  0.2932 -0.4855
 4163TIP3    H134124   4.698   0.874   2.340 -1.3174  1.5231 -1.7347
 4163TIP3    H234125   4.640   0.845   2.477  2.8834 -0.5882 -0.2325
 4164TIP3   OH234126   0.674   0.733   1.802  0.1465 -0.4665  0.4465
 4164TIP3    H134127   0.653   0.814   1.847 -0.5365 -0.5589  0.3053
 4164TIP3    H234128   0.756   0.751   1.756 -0.6799  0.5775 -0.6609
 4165TIP3   OH234129   5.559   5.045   0.678 -0.0998  0.0424  0.2380
 4165TIP3    H134130   5.611   5.006   0.608 -2.7443 -0.1154 -1.7779
 4165TIP3    H234131   5.547   4.975   0.741 -0.8553 -1.0345 -1.0499
 4166TIP3   OH234132   2.670   5.841   2.159 -0.3947  1.0101  0.4049
 4166TIP3    H134133   2.627   5.877   2.082 -1.1952  1.1902  0.9194
 4166TIP3    H234134   2.751   5.892   2.168 -0.7834  1.6636  0.2638
 4167TIP3   OH234135   4.388   6.750   0.727 -0.5398  0.1714 -0.3124
 4167TIP3    H134136   4.338   6.764   0.806  1.1034  0.9285  0.6563
 4167TIP3    H234137   4.427   6.663   0.738 -0.1930  0.3362 -0.1881
 4168TIP3   OH234138   1.244   4.915   0.909 -0.2301  0.2496 -0.0097
 4168TIP3    H134139   1.229   4.935   0.817  1.0738  2.0465  0.1164
 4168TIP3    H234140   1.317   4.972   0.934  0.2216 -1.0591  1.8275
 4169TIP3   OH234141   5.157   0.265   3.162  0.4237 -0.2739  0.6507
 4169TIP3    H134142   5.117   0.202   3.223  1.8151 -0.8916  0.9566
 4169TIP3    H234143   5.195   0.210   3.093  0.4799  0.3158  0.2075
 4170TIP3   OH234144   2.391   3.586   0.316  0.2107  0.1137  0.2131
 4170TIP3    H134145   2.434   3.563   0.398  1.3703  1.1856 -0.0703
 4170TIP3    H234146   2.306   3.622   0.342  0.2338 -0.3085  0.8850
 4171TIP3   OH234147   6.757   5.574   7.725  0.3090  0.3774  0.1038
 4171TIP3    H134148   6.805   5.529   7.656 -0.7340 -0.5651 -0.0324
 4171TIP3    H234149   6.765   5.516   7.801 -1.5258 -0.3817 -0.2294
 4172TIP3   OH234150   5.558   5.636   8.291 -0.1279 -0.2002  0.1786
 4172TIP3    H134151   5.470   5.613   8.320 -0.4649  1.0450  0.2415
 4172TIP3    H234152   5.601   5.553   8.272 -1.7360 -0.7918 -1.0694
 4173TIP3   OH234153   4.596   1.716   1.102 -0.0125  0.0657 -0.0821
 4173TIP3    H134154   4.612   1.767   1.022  2.3425  1.1211  0.9503
 4173TIP3    H234155   4.640   1.633   1.087 -0.9930 -0.3926 -0.4877
 4174TIP3   OH234156   5.588   4.420   7.448  0.2656 -0.5517  0.5634
 4174TIP3    H134157   5.543   4.415   7.364  0.1314  0.2704  0.5764
 4174TIP3    H234158   5.562   4.340   7.494  3.3014 -2.9841 -1.5706
 4175TIP3   OH234159   3.994   3.706   7.688 -0.7323  0.0098  0.1770
 4175TIP3    H134160   3.954   3.620   7.676  0.6399 -0.6015 -0.3031
 4175TIP3    H234161   4.081   3.687   7.725  0.0521  1.0908 -1.0190
 4176TIP3   OH234162   0.163   5.200   7.668 -0.2130  0.4961  0.0949
 4176TIP3    H134163   0.068   5.194   7.671 -0.2670  1.2739  0.2309
 4176TIP3    H234164   0.189   5.147   7.592 -0.6697 -0.4739  0.5953
 4177TIP3   OH234165   0.812   2.917   8.670 -0.3261  0.0289  0.2242
 4177TIP3    H134166   0.901   2.938   8.641 -0.1508 -2.2242 -1.1616
 4177TIP3    H234167   0.755   2.970   8.614  0.1204 -1.3519 -1.6492
 4178TIP3   OH234168   4.077   4.098   8.123  0.0405  0.2369 -0.3732
 4178TIP3    H134169   4.037   4.011   8.121  1.9946 -0.7298 -0.3496
 4178TIP3    H234170   4.171   4.080   8.127  0.4509  2.3051  2.5740
 4179TIP3   OH234171   4.320   4.445   8.237 -0.4300 -0.0195 -0.2254
 4179TIP3    H134172   4.362   4.399   8.163  0.6196  1.0313 -0.3097
 4179TIP3    H234173   4.308   4.377   8.303  0.4531 -0.5835 -0.6179
 4180TIP3   OH234174   4.720   0.274   2.098 -0.2446 -0.2248  0.1744
 4180TIP3    H134175   4.669   0.331   2.039  1.1879  0.3546 -0.5513
 4180TIP3    H234176   4.745   0.200   2.043  0.5454 -0.0036  0.2273
 4181TIP3   OH234177   1.162   1.691   0.201 -0.2383  0.2514 -0.2488
 4181TIP3    H134178   1.074   1.653   0.204  0.2533 -0.8841  0.3546
 4181TIP3    H234179   1.185   1.691   0.108 -1.1189  1.1748 -0.4893
 4182TIP3   OH234180   1.050   6.292   0.218  0.1505 -0.0105 -0.4507
 4182TIP3    H134181   1.056   6.388   0.225  1.2470 -0.0792 -0.2231
 4182TIP3    H234182   1.098   6.260   0.295 -0.6896 -0.7466 -0.2234
 4183TIP3   OH234183   3.064   1.959   7.739  0.3717  1.3865 -0.2786
 4183TIP3    H134184   3.007   2.000   7.804 -0.0025  0.6113 -0.1123
 4183TIP3    H234185   3.007   1.898   7.692  1.2167  0.0574  0.3730
 4184TIP3   OH234186   6.805   0.410   2.161  0.1498  0.1374  0.5221
 4184TIP3    H134187   6.779   0.319   2.148 -0.8246  0.0879  2.4539
 4184TIP3    H234188   6.729   0.461   2.133  1.0606  0.4830 -1.5489
 4185TIP3   OH234189   4.534   5.181   0.946  0.3076 -0.0657 -0.1431
 4185TIP3    H134190   4.574   5.233   0.876 -0.7295 -0.2779 -0.9133
 4185TIP3    H234191   4.555   5.090   0.923  0.8154 -0.0795  0.3691
 4186TIP3   OH234192   0.678   0.106   8.489 -0.0609 -0.0151  0.0787
 4186TIP3    H134193   0.592   0.147   8.489  0.0429  0.2067  0.0668
 4186TIP3    H234194   0.673   0.038   8.556 -0.2263  0.0338  0.1148
 4187TIP3   OH234195   1.406   0.924   8.126 -0.0626 -0.8618 -0.4347
 4187TIP3    H134196   1.386   0.952   8.215 -0.4601 -0.7335 -0.5602
 4187TIP3    H234197   1.476   0.982   8.097  0.3317 -1.1567 -0.0713
 4188TIP3   OH234198   3.698   4.342   7.990  0.2223  0.3246  0.0456
 4188TIP3    H134199   3.691   4.361   7.896 -1.5900 -0.4543 -0.0037
 4188TIP3    H234200   3.793   4.336   8.006  0.5645  0.6421 -1.6898
 4189TIP3   OH234201   4.929   0.160   0.257  0.2007  0.0124 -0.6039
 4189TIP3    H134202   4.947   0.102   0.331 -0.2583  0.3047 -0.2533
 4189TIP3    H234203   5.014   0.177   0.218  0.4851  0.1077  0.0485
 4190TIP3   OH234204   4.120   5.589   1.992  0.8826 -0.3294  0.4964
 4190TIP3    H134205   4.166   5.639   1.925 -2.5406  0.1493 -1.7377
 4190TIP3    H234206   4.117   5.500   1.958 -0.6777 -0.1337  0.0620
 4191TIP3   OH234207   5.806   0.926   1.956  0.0482 -0.4612  0.5115
 4191TIP3    H134208   5.738   0.900   1.893 -0.1916 -2.9541  1.6578
 4191TIP3    H234209   5.876   0.962   1.903 -1.2134 -0.0170 -0.9225
 4192TIP3   OH234210   1.591   5.024   8.263  0.2872  0.0884  0.0167
 4192TIP3    H134211   1.550   5.102   8.226  0.3195  0.6133  1.0590
 4192TIP3    H234212   1.586   4.958   8.193 -0.9928  0.5903 -0.3823
 4193TIP3   OH234213   0.422   5.583   2.308  0.0572 -0.1199  0.2589
 4193TIP3    H134214   0.478   5.561   2.233 -1.5588 -0.4358 -0.9006
 4193TIP3    H234215   0.482   5.623   2.370  1.7492 -1.2121 -0.5613
 4194TIP3   OH234216   6.273   1.310   2.360 -0.2406 -0.2719 -0.1961
 4194TIP3    H134217   6.331   1.381   2.332  1.1715 -1.2743  0.0265
 4194TIP3    H234218   6.316   1.275   2.439 -2.1845  0.1616  1.1237
 4195TIP3   OH234219   1.525   4.064   8.459 -0.5151 -0.3081 -0.1824
 4195TIP3    H134220   1.496   4.060   8.550  1.4153 -0.1633  0.4848
 4195TIP3    H234221   1.592   4.133   8.458 -1.5948  0.8075 -2.0602
 4196TIP3   OH234222   1.256   5.884   7.974 -0.5329 -0.7036 -0.2574
 4196TIP3    H134223   1.253   5.790   7.952  1.0281 -0.6938 -0.6415
 4196TIP3    H234224   1.254   5.928   7.889 -0.4551 -0.4235 -0.1159
 4197TIP3   OH234225   4.073   5.462   8.257 -0.2547  0.1311  0.1877
 4197TIP3    H134226   4.124   5.469   8.176  0.7318  0.6514  0.8375
 4197TIP3    H234227   4.052   5.552   8.280 -1.8787 -0.0882 -0.2995
 4198TIP3   OH234228   3.592   3.526   0.418  0.5429 -0.1159  0.1113
 4198TIP3    H134229   3.647   3.482   0.353  0.4328 -1.4147  0.8711
 4198TIP3    H234230   3.593   3.468   0.494  0.1557  1.0737  1.0455
 4199TIP3   OH234231   1.987   4.734   1.042  0.0540  0.5573  0.2150
 4199TIP3    H134232   2.019   4.773   0.961  0.3700  1.6279  0.8307
 4199TIP3    H234233   1.899   4.770   1.053  0.2068  0.8080  0.6083
 4200TIP3   OH234234   4.347   5.030   0.658 -0.0748 -0.1366 -0.3065
 4200TIP3    H134235   4.319   5.100   0.717 -1.6516 -1.2574  0.3258
 4200TIP3    H234236   4.268   5.008   0.608  0.4594 -1.2836 -0.6787
 4201TIP3   OH234237   2.492   0.720   1.785  0.2540  0.4206 -0.0195
 4201TIP3    H134238   2.404   0.746   1.758  0.0826 -0.9665 -0.8802
 4201TIP3    H234239   2.547   0.739   1.709  0.5853  0.6431  0.2717
 4202TIP3   OH234240   6.207   0.201   0.302 -0.1195 -0.5722  0.1375
 4202TIP3    H134241   6.220   0.243   0.217 -0.1942 -0.4678  0.1779
 4202TIP3    H234242   6.152   0.125   0.283 -1.4640  0.3088  0.3085
 4203TIP3   OH234243   4.250   2.997   1.483 -0.1635 -0.1810  0.2616
 4203TIP3    H134244   4.172   3.046   1.456  0.2920  0.4593  0.0707
 4203TIP3    H234245   4.314   3.012   1.413  0.3113 -0.2559  0.6658
 4204TIP3   OH234246   2.515   4.050   8.681 -0.1990  0.9373 -0.5389
 4204TIP3    H134247   2.564   4.125   8.715 -0.4467  2.1804 -2.7400
 4204TIP3    H234248   2.579   3.999   8.633  0.0291 -0.4954  1.1818
 4205TIP3   OH234249   5.500   6.752   7.564 -0.3361  0.0190  0.3337
 4205TIP3    H134250   5.473   6.692   7.494  1.6580  0.0979 -0.5823
 4205TIP3    H234251   5.575   6.708   7.604  0.2806  1.2569  0.5688
 4206TIP3   OH234252   6.176   6.115   0.224  0.4196  0.0319 -0.4383
 4206TIP3    H134253   6.189   6.052   0.153  0.1862  1.1893 -1.5425
 4206TIP3    H234254   6.245   6.180   0.211  1.1187 -0.3360  1.1297
 4207TIP3   OH234255   5.985   3.803   1.817  0.5070  0.4622  0.7926
 4207TIP3    H134256   5.903   3.835   1.780  0.5769  1.2908  1.3408
 4207TIP3    H234257   5.958   3.739   1.883  0.2779  1.1127  1.3374
 4208TIP3   OH234258   5.648   3.119   0.101 -0.1592  0.6922  0.7289
 4208TIP3    H134259   5.623   3.062   0.173 -1.0672  0.5632  0.3280
 4208TIP3    H234260   5.566   3.156   0.069 -0.0138 -0.5177 -1.2808
 4209TIP3   OH234261   1.364   1.195   8.075  0.5563  0.0305  0.0430
 4209TIP3    H134262   1.344   1.155   7.990  1.7927  0.5498 -0.5204
 4209TIP3    H234263   1.450   1.160   8.098  0.5333  0.4226  0.7525
 4210TIP3   OH234264   0.287   5.020   1.375 -1.1151  0.1548  0.4420
 4210TIP3    H134265   0.374   5.005   1.412 -1.1042  0.5894  0.5951
 4210TIP3    H234266   0.239   5.065   1.444 -0.9170  1.4963 -0.2651
 4211TIP3   OH234267   6.666   4.532   7.725  0.2846 -0.1208 -0.1923
 4211TIP3    H134268   6.684   4.595   7.795  0.7455 -1.6932  1.1701
 4211TIP3    H234269   6.582   4.559   7.689  0.5518  1.3584  0.2173
 4212TIP3   OH234270   3.520   3.987   7.825  0.0101  0.1706 -0.3408
 4212TIP3    H134271   3.505   3.893   7.819  1.2762 -0.0691  0.0489
 4212TIP3    H234272   3.545   4.002   7.916 -0.6399  0.9673 -0.2750
 4213TIP3   OH234273   0.220   4.179   7.216  0.3215  0.2506 -0.5913
 4213TIP3    H134274   0.258   4.199   7.130  1.0073  0.2631 -0.2993
 4213TIP3    H234275   0.296   4.159   7.271  0.0579  1.8355  0.4279
 4214TIP3   OH234276   3.563   1.235   2.591  0.3150 -0.3011 -0.0749
 4214TIP3    H134277   3.608   1.226   2.675  0.4874 -0.9811 -0.2374
 4214TIP3    H234278   3.536   1.327   2.588  0.0564 -0.3443  0.8457
 4215TIP3   OH234279   5.692   3.295   8.482  0.6537 -0.1801  0.2442
 4215TIP3    H134280   5.644   3.313   8.562 -2.0182 -0.0724 -1.2821
 4215TIP3    H234281   5.698   3.380   8.438 -1.1849 -0.8067 -1.3195
 4216TIP3   OH234282   6.019   1.921   2.006 -0.6830 -0.0552 -0.2830
 4216TIP3    H134283   6.074   1.967   2.069  1.4457 -3.2404  0.4513
 4216TIP3    H234284   6.077   1.905   1.931 -0.9889 -2.1742 -0.1344
 4217TIP3   OH234285   3.798   2.888   2.709 -0.2935  0.5433  0.4410
 4217TIP3    H134286   3.845   2.955   2.759 -0.1178  0.7892 -0.0487
 4217TIP3    H234287   3.715   2.929   2.685 -0.1139  0.6505 -0.0079
 4218TIP3   OH234288   2.585   0.975   8.220  1.0016 -0.5355  0.1429
 4218TIP3    H134289   2.559   0.902   8.275  0.9939 -0.2150  0.5666
 4218TIP3    H234290   2.570   0.944   8.130 -0.4209 -0.5161  0.3594
 4219TIP3   OH234291   5.806   4.659   8.373  0.7400  0.0306 -0.3590
 4219TIP3    H134292   5.765   4.709   8.443  3.9284 -0.0971  1.8278
 4219TIP3    H234293   5.861   4.723   8.327 -1.0416  0.0383 -2.6654
 4220TIP3   OH234294   1.289   4.980   1.433 -0.5889  0.1213 -0.4234
 4220TIP3    H134295   1.307   5.069   1.465 -3.8536  0.6921  0.1827
 4220TIP3    H234296   1.263   4.931   1.511 -1.6692 -0.4979 -1.1383
 4221TIP3   OH234297   3.273   1.689   2.774 -0.3760 -0.1554  0.2294
 4221TIP3    H134298   3.222   1.752   2.826 -0.9188 -0.1029 -0.3519
 4221TIP3    H234299   3.208   1.647   2.719  0.2343 -0.0072 -0.6162
 4222TIP3   OH234300   4.112   6.009   1.441  0.0622 -0.2618 -0.3008
 4222TIP3    H134301   4.177   5.958   1.489 -0.5289 -0.4604  0.3043
 4222TIP3    H234302   4.122   5.982   1.350  2.4149  1.4018 -0.6428
 4223TIP3   OH234303   5.492   6.517   0.494  0.8206  0.4885 -0.3384
 4223TIP3    H134304   5.561   6.500   0.430  1.1496 -0.3337  0.2162
 4223TIP3    H234305   5.476   6.432   0.535 -0.3902  0.6977 -0.3157
 4224TIP3   OH234306   1.022   6.360   7.770 -0.3934 -0.2227  0.5941
 4224TIP3    H134307   1.031   6.445   7.812 -1.1462 -0.6745  1.7496
 4224TIP3    H234308   1.029   6.378   7.676 -0.1238  1.0409  0.8388
 4225TIP3   OH234309   4.735   3.625   0.243  0.5128 -0.6073  0.3382
 4225TIP3    H134310   4.781   3.706   0.264  1.9505 -1.8048  2.0898
 4225TIP3    H234311   4.799   3.573   0.194 -0.2149 -0.9276 -0.3020
 4226TIP3   OH234312   1.291   4.685   0.398 -0.0649 -0.0480  0.2182
 4226TIP3    H134313   1.306   4.779   0.394 -0.7424  0.1248  1.2630
 4226TIP3    H234314   1.376   4.648   0.423  0.1839  0.2827 -0.1234
 4227TIP3   OH234315   1.745   2.525   0.536  0.4958  0.0597  0.5767
 4227TIP3    H134316   1.658   2.562   0.527 -0.0997 -0.8993  2.0395
 4227TIP3    H234317   1.743   2.444   0.485  0.2698 -0.3420  1.2063
 4228TIP3   OH234318   4.514   3.653   6.836  0.6461  0.2308  0.3135
 4228TIP3    H134319   4.436   3.667   6.782 -0.0077  1.0916  1.4296
 4228TIP3    H234320   4.501   3.566   6.875  0.3655  0.2577  0.2841
 4229TIP3   OH234321   6.132   4.888   1.352  0.4311  0.2985 -0.5748
 4229TIP3    H134322   6.205   4.825   1.355 -0.4882 -0.7678  1.5600
 4229TIP3    H234323   6.168   4.964   1.306  3.1271  0.0733  0.9303
 4230TIP3   OH234324   5.880   0.911   7.306  0.1892 -0.2712  0.5270
 4230TIP3    H134325   5.915   0.989   7.349 -1.1875  0.7029 -0.0447
 4230TIP3    H234326   5.824   0.945   7.236 -3.0862 -1.5845  2.2388
 4231TIP3   OH234327   0.639   1.126   1.449  0.2194 -0.4168  0.0733
 4231TIP3    H134328   0.560   1.075   1.429  0.6563 -0.6746 -1.1072
 4231TIP3    H234329   0.642   1.192   1.380  0.0016  0.8307  1.2342
 4232TIP3   OH234330   2.794   2.293   2.314  0.1100  0.4654  0.1305
 4232TIP3    H134331   2.783   2.388   2.314 -0.2709  0.4767  2.4395
 4232TIP3    H234332   2.849   2.275   2.391 -2.2898 -1.3760  1.5470
 4233TIP3   OH234333   1.175   0.358   7.777 -0.2472 -0.6333 -0.6495
 4233TIP3    H134334   1.234   0.434   7.776 -0.9359 -0.0851 -0.4242
 4233TIP3    H234335   1.163   0.339   7.870 -1.3801  0.0352 -0.6333
 4234TIP3   OH234336   5.402   5.362   7.350  0.3242  0.3004  0.1755
 4234TIP3    H134337   5.366   5.333   7.266 -2.5574  0.2433  1.3053
 4234TIP3    H234338   5.355   5.443   7.369  2.1369  1.2085  1.0197
 4235TIP3   OH234339   3.906   5.705   0.012 -0.0841  0.4204 -0.1494
 4235TIP3    H134340   3.980   5.759   0.043  0.4961 -0.1886 -0.4504
 4235TIP3    H234341   3.945   5.648  -0.054 -0.5734 -0.7452  0.5484
 4236TIP3   OH234342   1.257   5.040   7.715 -1.0491 -0.5482 -0.7578
 4236TIP3    H134343   1.243   5.101   7.787 -1.3927  0.6397 -1.7779
 4236TIP3    H234344   1.340   4.998   7.735 -0.3872  0.8562 -0.3982
 4237TIP3   OH234345   4.560   3.001   0.761  0.1585  0.5702 -0.0879
 4237TIP3    H134346   4.511   3.043   0.832  1.6396  1.9639  0.1632
 4237TIP3    H234347   4.493   2.965   0.704 -1.2018 -2.8863  3.2005
 4238TIP3   OH234348   1.361   0.752   6.999 -0.0365  0.5165 -0.2156
 4238TIP3    H134349   1.432   0.783   7.056 -0.0342 -0.4545  0.3151
 4238TIP3    H234350   1.403   0.689   6.941 -0.1276  1.1890 -1.0409
 4239TIP3   OH234351   3.332   3.046   1.575  0.2464  0.3362 -0.1874
 4239TIP3    H134352   3.307   2.978   1.512  0.6898  1.6110 -1.8110
 4239TIP3    H234353   3.253   3.059   1.628 -0.0616 -0.9370 -0.2781
 4240TIP3   OH234354   0.468   3.498   8.454  0.7617  0.0457 -0.0304
 4240TIP3    H134355   0.528   3.452   8.395  0.9488 -0.5351  0.6063
 4240TIP3    H234356   0.384   3.456   8.440  0.2569  1.4625 -1.6014
 4241TIP3   OH234357   1.858   6.076   8.786  0.7071  0.1173  0.9160
 4241TIP3    H134358   1.844   6.162   8.826  0.9839 -0.3608  2.0951
 4241TIP3    H234359   1.910   6.094   8.708 -1.1458  1.2437 -0.1331
 4242TIP3   OH234360   0.789   5.832   0.717  0.2219 -0.0649  0.0144
 4242TIP3    H134361   0.715   5.883   0.750  1.2700  1.6050 -0.0987
 4242TIP3    H234362   0.824   5.885   0.646  1.0267 -1.2350 -0.4880
 4243TIP3   OH234363   1.208   1.912   8.650 -0.2464 -0.3979 -0.0075
 4243TIP3    H134364   1.225   2.005   8.634 -2.1817 -0.1747 -1.0388
 4243TIP3    H234365   1.159   1.884   8.574 -0.8425 -1.9539  0.9159
 4244TIP3   OH234366   5.276   1.746   0.226  0.1760  0.4544 -0.5482
 4244TIP3    H134367   5.265   1.840   0.218  2.8442  0.8299 -0.6317
 4244TIP3    H234368   5.240   1.710   0.145 -1.0976  1.3377 -0.4049
 4245TIP3   OH234369   3.720   2.207   2.637 -0.6105  0.0992 -0.3497
 4245TIP3    H134370   3.783   2.148   2.596 -1.5478 -0.6566 -0.7330
 4245TIP3    H234371   3.768   2.247   2.709  0.5181  0.0731 -1.0604
 4246TIP3   OH234372   3.863   2.465   8.720 -0.1504 -0.7417  0.0213
 4246TIP3    H134373   3.802   2.448   8.792 -0.4519  1.0921  0.2442
 4246TIP3    H234374   3.950   2.454   8.758 -0.3079  0.1868  0.6789
 4247TIP3   OH234375   2.209   1.986   1.349 -0.6448 -0.3837 -0.5028
 4247TIP3    H134376   2.296   2.025   1.360 -0.5277 -0.5248 -0.8908
 4247TIP3    H234377   2.166   2.043   1.285 -1.6385  0.9500  1.2709
 4248TIP3   OH234378   4.596   6.818   0.007 -0.2518 -0.3191  0.2616
 4248TIP3    H134379   4.647   6.879   0.060 -0.6826 -0.6427  1.0709
 4248TIP3    H234380   4.546   6.874  -0.053 -0.8652  0.1483  1.1922
 4249TIP3   OH234381   3.946   0.126   8.431 -0.1814  0.4343 -0.7147
 4249TIP3    H134382   3.917   0.211   8.464 -0.2021  0.3395 -0.4800
 4249TIP3    H234383   3.905   0.118   8.345 -1.0628  0.1895 -0.2845
 4250TIP3   OH234384   2.468   5.711   8.670 -0.4607  0.4732  0.2534
 4250TIP3    H134385   2.456   5.708   8.765 -0.5620  2.8458  0.3723
 4250TIP3    H234386   2.511   5.795   8.654  2.3109 -1.1029 -1.5530
 4251TIP3   OH234387   2.409   6.479   1.907 -0.1403 -0.2317  0.0641
 4251TIP3    H134388   2.417   6.451   1.998  1.2101 -0.8105 -0.1988
 4251TIP3    H234389   2.315   6.484   1.891 -0.3973 -0.0689  1.4954
 4252TIP3   OH234390   6.492   4.622   2.649  0.2546  0.2912  0.2505
 4252TIP3    H134391   6.431   4.559   2.610  0.9905 -0.0473 -0.3825
 4252TIP3    H234392   6.451   4.646   2.732 -0.7715  0.1291 -0.1912
 4253TIP3   OH234393   0.312   4.656   8.565 -0.4680 -0.2695  0.0033
 4253TIP3    H134394   0.385   4.709   8.533  0.0835 -0.7708  0.4110
 4253TIP3    H234395   0.235   4.692   8.520  0.3928 -1.6274 -2.7633
 4254TIP3   OH234396   4.907   4.217   0.165 -0.1911  0.4618  0.1171
 4254TIP3    H134397   4.919   4.131   0.125  0.7761  1.3168 -1.5781
 4254TIP3    H234398   4.824   4.249   0.128  0.4352  1.0346 -0.8345
 4255TIP3   OH234399   6.100   0.611   2.750  0.1220  0.3377  0.2226
 4255TIP3    H134400   6.127   0.699   2.722  1.3962 -0.6099 -1.8296
 4255TIP3    H234401   6.147   0.596   2.831 -0.2772  1.6172  0.7170
 4256TIP3   OH234402   3.113   2.411   2.026 -0.1687  1.2114 -0.7434
 4256TIP3    H134403   3.096   2.407   1.932 -0.5777  1.4597 -0.6815
 4256TIP3    H234404   3.146   2.500   2.041  2.3933  0.4014 -1.0470
 4257TIP3   OH234405   6.096   1.094   0.881 -0.3877  0.2020  0.8824
 4257TIP3    H134406   6.149   1.014   0.876 -1.2470 -0.3091 -0.5192
 4257TIP3    H234407   6.097   1.117   0.974  2.4298  0.3297  0.9307
 4258TIP3   OH234408   5.779   3.154   2.561  0.0114 -0.4896  0.0734
 4258TIP3    H134409   5.784   3.061   2.582  0.1633  0.0989  3.0981
 4258TIP3    H234410   5.856   3.171   2.509  1.5310 -1.5850  1.8185
 4259TIP3   OH234411   3.414   6.051   2.238 -0.0938  0.3726 -0.0074
 4259TIP3    H134412   3.403   5.967   2.284 -3.7648  0.2909 -0.7205
 4259TIP3    H234413   3.457   6.027   2.156  1.0076 -0.4140  0.7675
 4260TIP3   OH234414   4.002   1.689   2.315 -0.3290  0.1549 -0.4466
 4260TIP3    H134415   3.919   1.658   2.351  0.0183 -1.8426 -1.2354
 4260TIP3    H234416   4.062   1.615   2.328  0.8706  0.9251 -1.4452
 4261TIP3   OH234417   1.338   3.413   1.310  0.1649 -0.4850 -0.2430
 4261TIP3    H134418   1.350   3.481   1.244 -1.1058 -0.1812 -0.1958
 4261TIP3    H234419   1.411   3.353   1.297  1.5967  1.1330  0.0508
 4262TIP3   OH234420   4.595   1.820   0.817 -0.0444 -0.0460  0.2401
 4262TIP3    H134421   4.570   1.871   0.740 -0.7628 -0.1745  0.3816
 4262TIP3    H234422   4.605   1.731   0.784 -1.1984 -0.2617  0.4501
 4263TIP3   OH234423   5.614   3.764   8.127 -0.1675  0.7199  0.5057
 4263TIP3    H134424   5.670   3.726   8.194 -0.4139 -2.0885 -0.7668
 4263TIP3    H234425   5.525   3.748   8.158 -0.3481  2.4045  1.0144
 4264TIP3   OH234426   1.652   5.776   0.008  0.6642  0.4650  0.5056
 4264TIP3    H134427   1.588   5.748   0.072  2.2043 -4.7833  0.2135
 4264TIP3    H234428   1.713   5.831   0.057 -0.5700  0.2791  2.3474
 4265TIP3   OH234429   5.696   3.429   7.924  0.1285 -0.3276 -0.1168
 4265TIP3    H134430   5.626   3.431   7.859  0.2377  0.8058 -0.2269
 4265TIP3    H234431   5.652   3.404   8.006 -0.0998 -1.2343 -0.5011
 4266TIP3   OH234432   1.891   1.283   1.450  0.1774 -0.0754  0.1139
 4266TIP3    H134433   1.920   1.360   1.498  1.2166 -1.5042  1.9458
 4266TIP3    H234434   1.959   1.218   1.466 -0.9310 -1.5586 -0.8960
 4267TIP3   OH234435   2.652   2.805   0.862  0.5241  0.0110 -0.0452
 4267TIP3    H134436   2.616   2.888   0.892  0.3319  0.1004 -0.5174
 4267TIP3    H234437   2.575   2.748   0.855  0.8452 -0.7579  1.9994
 4268TIP3   OH234438   1.888   0.760   0.011 -0.3413  0.0963  0.1923
 4268TIP3    H134439   1.944   0.685  -0.010 -0.8106  0.0556 -0.9934
 4268TIP3    H234440   1.811   0.722   0.051 -0.1177  0.0397  0.5730
 4269TIP3   OH234441   4.088   3.572   1.320  0.1089  0.3311  0.2137
 4269TIP3    H134442   4.145   3.523   1.380 -1.8312 -0.3225  1.6030
 4269TIP3    H234443   4.047   3.505   1.266 -0.7903  0.6114  0.5405
 4270TIP3   OH234444   2.753   2.744   7.951  0.1963  0.4306 -0.7654
 4270TIP3    H134445   2.669   2.773   7.918  1.1849  2.8425 -1.3635
 4270TIP3    H234446   2.811   2.746   7.875  0.8838 -1.0310 -0.3336
 4271TIP3   OH234447   0.067   5.238   8.801 -0.5575 -0.2783  0.0977
 4271TIP3    H134448   0.104   5.293   8.733  0.3354 -0.8166  0.1333
 4271TIP3    H234449   0.110   5.153   8.791 -1.5078 -0.8209  0.3842
 4272TIP3   OH234450   1.081   2.071   8.296  0.3235 -0.2223  0.2132
 4272TIP3    H134451   1.067   2.129   8.221  1.1650  0.9932  0.9448
 4272TIP3    H234452   1.089   1.984   8.258 -0.4385  0.2065 -0.9848
 4273TIP3   OH234453   1.066   5.898   7.099  0.6612 -0.0982 -0.6071
 4273TIP3    H134454   1.131   5.829   7.097  0.2719 -0.6460  1.9151
 4273TIP3    H234455   1.116   5.979   7.105  1.2646 -0.6010  3.0888
 4274TIP3   OH234456   6.196   2.004   7.308  0.8060  0.1337 -0.0035
 4274TIP3    H134457   6.268   2.056   7.343  1.7191 -0.2418 -1.2442
 4274TIP3    H234458   6.155   2.061   7.242 -0.8822  0.8328  1.5761
 4275TIP3   OH234459   2.095   3.338   0.090  0.2469 -0.1220 -0.1031
 4275TIP3    H134460   2.060   3.426   0.077  1.3088  0.3426  0.0754
 4275TIP3    H234461   2.189   3.347   0.074  0.1410 -1.5972 -1.8677
 4276TIP3   OH234462   5.853   2.526   0.199 -0.1937  0.2624  0.4460
 4276TIP3    H134463   5.859   2.475   0.280  0.7257 -1.2139 -0.5283
 4276TIP3    H234464   5.868   2.463   0.129  0.6744  1.8084 -0.8202
 4277TIP3   OH234465   5.575   0.535   1.087 -0.0096  0.6017 -0.2090
 4277TIP3    H134466   5.592   0.629   1.085 -1.3984  0.8870  0.5256
 4277TIP3    H234467   5.614   0.502   1.005  0.0985  1.8728 -0.6891
 4278TIP3   OH234468   6.810   5.084   2.122  0.0149 -0.1199  0.4754
 4278TIP3    H134469   6.876   5.135   2.169  0.2588 -1.9541  2.2473
 4278TIP3    H234470   6.856   5.005   2.095 -0.5972  0.1097 -1.3779
 4279TIP3   OH234471   4.854   1.842   2.436  0.4222  0.6368 -0.1962
 4279TIP3    H134472   4.822   1.808   2.520  2.2947 -0.8889 -0.0263
 4279TIP3    H234473   4.813   1.786   2.370  0.0021  0.9678 -0.2193
 4280TIP3   OH234474   2.635   5.932   1.121 -0.2443 -0.3979  0.1434
 4280TIP3    H134475   2.583   5.925   1.041 -0.5920  0.5059  0.2876
 4280TIP3    H234476   2.704   5.867   1.110 -0.8842 -0.9988 -0.4395
 4281TIP3   OH234477   6.124   2.312   1.857  0.1943 -0.7991 -0.2169
 4281TIP3    H134478   6.055   2.367   1.895 -0.4518 -2.1485  0.6197
 4281TIP3    H234479   6.121   2.332   1.763  0.3611  0.9847  0.1178
 4282TIP3   OH234480   5.560   2.615   7.210 -0.1993 -0.0232  0.6931
 4282TIP3    H134481   5.496   2.648   7.273 -1.3832 -1.0917  0.0664
 4282TIP3    H234482   5.575   2.524   7.236 -1.1137 -0.6495 -0.8687
 4283TIP3   OH234483   6.007   2.527   2.013 -0.1906 -0.3865  0.4385
 4283TIP3    H134484   6.059   2.485   2.080  0.9275  0.1854 -0.0502
 4283TIP3    H234485   6.037   2.618   2.012 -2.2853  0.3934  1.2238
 4284TIP3   OH234486   4.370   1.592   1.985 -0.0322  0.2090  0.0966
 4284TIP3    H134487   4.278   1.582   2.009 -0.0019  0.9734  0.5795
 4284TIP3    H234488   4.370   1.593   1.890 -0.3815 -0.9574  0.0660
 4285TIP3   OH234489   0.116   4.262   2.562  0.1891 -0.0308 -0.6290
 4285TIP3    H134490   0.097   4.219   2.479  1.8898  0.9205 -1.5794
 4285TIP3    H234491   0.119   4.191   2.627  0.5372 -1.0267 -1.7111
 4286TIP3   OH234492   1.195   6.513   1.682 -0.4062 -0.1915 -0.9505
 4286TIP3    H134493   1.222   6.524   1.773  0.5340 -0.1222 -1.2311
 4286TIP3    H234494   1.161   6.424   1.678 -0.0666 -0.3392 -0.6203
 4287TIP3   OH234495   4.098   6.310   0.722 -0.1090  0.0429  0.1235
 4287TIP3    H134496   4.031   6.352   0.776  0.5074 -1.9029  2.5783
 4287TIP3    H234497   4.180   6.328   0.768  0.6710 -0.3888 -1.0515
 4288TIP3   OH234498   6.764   5.973   8.662  0.5786  0.7927 -0.4072
 4288TIP3    H134499   6.821   5.913   8.612  1.0578  2.1348 -1.5377
 4288TIP3    H234500   6.697   6.000   8.599  0.6968  1.8610 -0.0952
 4289TIP3   OH234501   5.540   0.681   7.834 -0.2954 -0.5314  0.7049
 4289TIP3    H134502   5.479   0.616   7.870  0.4151 -1.6299  0.0102
 4289TIP3    H234503   5.488   0.730   7.770 -0.8685 -0.3364  1.3076
 4290TIP3   OH234504   6.036   5.665   0.151  0.4537 -0.1068 -0.2116
 4290TIP3    H134505   6.014   5.572   0.159 -1.1620  0.2868  0.3229
 4290TIP3    H234506   5.951   5.709   0.151  1.2218  1.4243  0.3006
 4291TIP3   OH234507   6.648   3.087   0.917  0.4820 -0.0242  0.2273
 4291TIP3    H134508   6.617   3.121   1.001  2.3540  1.4427  0.3902
 4291TIP3    H234509   6.624   3.155   0.854  0.8862 -0.1774 -0.0934
 4292TIP3   OH234510   1.997   2.877   8.039  0.5935  0.1560  0.2700
 4292TIP3    H134511   1.933   2.912   7.977  1.3937  0.4689 -0.4116
 4292TIP3    H234512   1.970   2.912   8.124 -2.2758 -2.6669  0.6964
 4293TIP3   OH234513   1.599   2.869   1.224  0.1742 -0.1933 -0.0325
 4293TIP3    H134514   1.624   2.827   1.142 -0.2522 -1.6790  0.5588
 4293TIP3    H234515   1.528   2.814   1.259 -0.0675  0.7482  1.0326
 4294TIP3   OH234516   6.709   5.374   3.161 -0.0091  0.5145  0.0744
 4294TIP3    H134517   6.744   5.443   3.218  1.5991  0.7012 -1.0669
 4294TIP3    H234518   6.735   5.292   3.204  0.7948  0.6517 -0.1339
 4295TIP3   OH234519   1.243   3.439   2.395 -0.0286 -0.1798 -0.7023
 4295TIP3    H134520   1.178   3.383   2.438  0.2146  1.0037  1.3366
 4295TIP3    H234521   1.202   3.526   2.393  1.4273  0.5815  0.5931
 4296TIP3   OH234522   4.712   4.195   1.998  0.3240  0.1339  0.7363
 4296TIP3    H134523   4.625   4.162   2.019  0.6323  0.2899  2.4392
 4296TIP3    H234524   4.766   4.116   1.992  0.4068  0.1168  1.5235
 4297TIP3   OH234525   4.310   4.814   2.496  0.5243 -0.5936  0.0636
 4297TIP3    H134526   4.289   4.723   2.515  0.9876 -0.3955  1.6661
 4297TIP3    H234527   4.228   4.861   2.515  0.1705 -0.7078 -1.1334
 4298TIP3   OH234528   4.418   1.319   0.480  0.6566  0.2253 -0.3515
 4298TIP3    H134529   4.382   1.332   0.568  1.9488 -0.1836  0.2556
 4298TIP3    H234530   4.476   1.244   0.489  0.2409 -0.2882 -1.7353
 4299TIP3   OH234531   1.986   2.154   8.136  0.3618  0.5012 -0.2576
 4299TIP3    H134532   2.064   2.164   8.082  0.0659 -0.1002 -0.8007
 4299TIP3    H234533   1.918   2.206   8.092  0.2948  0.5523 -0.0985
 4300TIP3   OH234534   5.983   1.829   8.069  0.1201 -0.0322 -0.3436
 4300TIP3    H134535   6.015   1.799   7.984 -1.2818 -0.2741 -0.8164
 4300TIP3    H234536   5.993   1.753   8.127  0.7026  0.0073 -0.3862
 4301TIP3   OH234537   2.239   0.593   8.559  0.4603  0.0094  0.1737
 4301TIP3    H134538   2.166   0.654   8.570  0.7233  0.5823 -1.0929
 4301TIP3    H234539   2.311   0.634   8.608  0.6504  0.7605 -0.7127
 4302TIP3   OH234540   3.514   4.196   7.634  0.2106 -0.0198  0.0073
 4302TIP3    H134541   3.607   4.206   7.614 -0.2646  0.6286 -2.0620
 4302TIP3    H234542   3.512   4.133   7.706  2.1321 -2.5969 -1.9878
 4303TIP3   OH234543   0.410   3.699   2.143  0.0874  0.0622 -0.1589
 4303TIP3    H134544   0.350   3.762   2.104  0.1462  0.3963  0.2882
 4303TIP3    H234545   0.389   3.700   2.236  0.2976 -0.3534 -0.1038
 4304TIP3   OH234546   0.940   1.579   0.556 -0.4910  0.5900 -0.7224
 4304TIP3    H134547   1.033   1.600   0.560 -0.3202 -0.0531 -1.1832
 4304TIP3    H234548   0.936   1.484   0.572 -1.2067  0.8691  0.9204
 4305TIP3   OH234549   6.466   2.544   3.052  0.0064 -0.4768  0.1836
 4305TIP3    H134550   6.446   2.499   2.970  0.0905 -0.3199  0.0765
 4305TIP3    H234551   6.459   2.476   3.119 -0.8826 -0.4244  0.1499
 4306TIP3   OH234552   2.141   5.696   0.268 -0.2092  0.2449 -0.5670
 4306TIP3    H134553   2.071   5.756   0.294 -0.5893 -0.0026 -1.0092
 4306TIP3    H234554   2.135   5.690   0.173  1.2462  1.2150 -0.7426
 4307TIP3   OH234555   0.884   1.298   7.254 -0.0285 -0.3186 -0.4263
 4307TIP3    H134556   0.862   1.347   7.333  1.7726 -3.0320  1.9324
 4307TIP3    H234557   0.943   1.357   7.206 -0.2550  0.9659  0.7885
 4308TIP3   OH234558   3.422   3.190   8.531  0.3461  0.1638 -0.1222
 4308TIP3    H134559   3.410   3.229   8.617 -0.6001 -1.3605  0.4692
 4308TIP3    H234560   3.507   3.145   8.537  1.5911  2.2629 -0.9050
 4309TIP3   OH234561   2.865   2.404   2.595 -0.6123 -0.4375  0.0873
 4309TIP3    H134562   2.960   2.404   2.580 -0.7477 -0.5307 -0.8155
 4309TIP3    H234563   2.846   2.317   2.630 -0.4591 -0.6725 -0.4019
 4310TIP3   OH234564   4.764   4.196   1.221 -0.0381  0.6411  0.0469
 4310TIP3    H134565   4.738   4.287   1.237 -1.0186  0.1393  1.5597
 4310TIP3    H234566   4.831   4.178   1.287  0.5486  0.4268 -0.6043
 4311TIP3   OH234567   3.517   0.274   8.337  0.0976 -0.3429  0.5894
 4311TIP3    H134568   3.579   0.305   8.271  0.1785 -1.4354  0.1406
 4311TIP3    H234569   3.520   0.179   8.330 -2.1805 -0.4247  0.0234
 4312TIP3   OH234570   5.983   2.472   8.283  0.4195 -0.1142  0.4303
 4312TIP3    H134571   6.054   2.448   8.342 -0.0966 -1.6170  0.4727
 4312TIP3    H234572   5.982   2.403   8.216 -0.6071  0.1986  0.0921
 4313TIP3   OH234573   5.730   1.921   8.105  0.7961  0.0392  0.3002
 4313TIP3    H134574   5.697   1.841   8.146  1.6198 -0.0151  0.8715
 4313TIP3    H234575   5.818   1.899   8.075 -0.2999 -0.3926 -2.9406
 4314TIP3   OH234576   0.036   2.084   2.495 -0.3564  0.2379  0.0445
 4314TIP3    H134577   0.028   2.126   2.410 -1.8415  1.2112  0.6158
 4314TIP3    H234578   0.130   2.085   2.514 -0.1878  1.7803 -0.7344
 4315TIP3   OH234579   4.981   6.513   1.455 -0.2550 -0.5674  0.3585
 4315TIP3    H134580   5.051   6.576   1.470  2.4973 -3.2819 -0.1301
 4315TIP3    H234581   4.944   6.536   1.370 -0.0673  0.9908  0.6813
 4316TIP3   OH234582   5.055   0.529   0.997  0.9242  0.4726  0.2419
 4316TIP3    H134583   5.137   0.518   1.045  1.3377 -1.6886 -0.8219
 4316TIP3    H234584   5.066   0.475   0.919 -1.0026  1.2288 -0.6141
 4317TIP3   OH234585   3.101   0.184   8.267 -0.6599 -0.0605 -0.9554
 4317TIP3    H134586   3.149   0.253   8.221  2.7625 -1.2920  0.4326
 4317TIP3    H234587   3.094   0.216   8.357  2.5508 -2.0429  0.1496
 4318TIP3   OH234588   1.742   2.604   2.108  0.0791 -0.7299 -0.4458
 4318TIP3    H134589   1.714   2.597   2.199  0.1490  1.4338 -0.2133
 4318TIP3    H234590   1.823   2.553   2.104  0.4852 -0.2388  0.8904
 4319TIP3   OH234591   3.432   2.374   0.553 -0.4079  0.0848  0.5642
 4319TIP3    H134592   3.388   2.330   0.626 -0.5988  1.8817  1.6020
 4319TIP3    H234593   3.514   2.326   0.542 -0.5694 -0.4867  1.6811
 4320TIP3   OH234594   3.023   3.370   0.774 -0.8291 -0.0525 -0.2171
 4320TIP3    H134595   2.951   3.366   0.836  0.0460 -0.3723  0.8103
 4320TIP3    H234596   3.089   3.311   0.809 -1.3744 -2.4950 -2.9093
 4321TIP3   OH234597   3.972   3.037   0.606 -0.3199  0.1580  0.6208
 4321TIP3    H134598   3.931   2.976   0.546  0.1375 -0.0029  0.4654
 4321TIP3    H234599   4.020   3.097   0.549 -1.2835  1.0607  0.7301
 4322TIP3   OH234600   3.101   6.422   2.607 -0.3121  0.3078 -0.6838
 4322TIP3    H134601   3.104   6.461   2.520 -0.1003 -0.4722 -1.0339
 4322TIP3    H234602   3.147   6.338   2.597 -2.1703 -0.7959 -0.3373
 4323TIP3   OH234603   5.941   2.600   7.706 -0.4652  0.8519 -0.1555
 4323TIP3    H134604   5.882   2.535   7.744 -0.0473  0.9809  0.7424
 4323TIP3    H234605   5.997   2.627   7.779  0.5078  0.9430 -0.9159
 4324TIP3   OH234606   3.572   6.407   0.612  0.0378  0.2030 -0.0489
 4324TIP3    H134607   3.663   6.434   0.602  0.4150 -0.4286  1.4226
 4324TIP3    H234608   3.560   6.338   0.547  0.2255  1.1074 -1.0862
 4325TIP3   OH234609   6.437   5.731   1.009  0.4470 -0.5166  0.5352
 4325TIP3    H134610   6.365   5.772   1.057 -1.3283 -2.8263  0.0559
 4325TIP3    H234611   6.480   5.803   0.963 -0.9382  1.0823  1.6348
 4326TIP3   OH234612   2.260   4.632   8.092 -0.3877  0.1030 -0.1952
 4326TIP3    H134613   2.300   4.549   8.066 -0.9807  0.1462 -1.3185
 4326TIP3    H234614   2.240   4.621   8.185 -0.0078 -0.8239 -0.2142
 4327TIP3   OH234615   5.672   3.817   0.394 -0.5973 -0.3605  0.0869
 4327TIP3    H134616   5.679   3.798   0.487 -1.6794  0.7105  0.4051
 4327TIP3    H234617   5.622   3.898   0.389  1.5354  0.9598 -1.3203
 4328TIP3   OH234618   5.713   1.903   1.996 -0.1605  0.2232 -0.1208
 4328TIP3    H134619   5.735   1.811   1.980 -1.1939  0.4000 -3.2098
 4328TIP3    H234620   5.798   1.948   1.993  0.1975 -0.4366 -0.1460
 4329TIP3   OH234621   1.905   5.218   0.020 -0.1074 -0.1964  0.3420
 4329TIP3    H134622   1.871   5.159   0.087 -1.3516 -0.8923 -0.8485
 4329TIP3    H234623   1.949   5.161  -0.043  0.8419  0.4222  0.4111
 4330TIP3   OH234624   5.601   5.360   2.836  0.3742 -0.4585 -0.8911
 4330TIP3    H134625   5.591   5.315   2.752  1.4688  0.1196 -1.3528
 4330TIP3    H234626   5.659   5.434   2.817 -2.0813  1.7578 -0.3678
 4331TIP3   OH234627   6.085   6.405   2.892  0.1766  0.1833 -0.0683
 4331TIP3    H134628   6.024   6.399   2.819 -0.1373 -0.7345  0.2550
 4331TIP3    H234629   6.034   6.377   2.968  0.9121 -0.3087  0.2566
 4332TIP3   OH234630   6.767   5.675   0.117 -0.1684 -0.0552  0.5199
 4332TIP3    H134631   6.832   5.605   0.107  0.3372  0.3625  0.8133
 4332TIP3    H234632   6.683   5.630   0.118 -0.1764 -0.4252 -2.9497
 4333TIP3   OH234633   0.895   3.764   1.366  0.3168 -0.3942 -0.2551
 4333TIP3    H134634   0.972   3.708   1.355  0.0371 -1.2839  1.8120
 4333TIP3    H234635   0.930   3.848   1.394  0.5664 -0.6881  0.3289
 4334TIP3   OH234636   5.827   4.903   0.796 -0.7560 -0.1245 -0.0284
 4334TIP3    H134637   5.772   4.831   0.826  0.2476 -1.0107 -0.2587
 4334TIP3    H234638   5.848   4.952   0.875 -0.1139 -1.0459  0.3944
 4335TIP3   OH234639   4.870   6.593   2.550  0.1422  0.4638  0.3554
 4335TIP3    H134640   4.869   6.576   2.455 -1.0111 -0.5190  0.5256
 4335TIP3    H234641   4.861   6.688   2.557 -1.2484  0.4180 -0.5101
 4336TIP3   OH234642   3.355   3.391   2.558  0.2710 -0.0174  0.0516
 4336TIP3    H134643   3.394   3.457   2.501 -0.2329  1.2355  1.1178
 4336TIP3    H234644   3.424   3.325   2.569  1.8929  1.7855  1.3261
 4337TIP3   OH234645   3.852   2.064   0.392 -0.2068  0.1444 -0.6005
 4337TIP3    H134646   3.793   2.106   0.329 -0.2311  0.1594 -0.5680
 4337TIP3    H234647   3.797   2.000   0.438 -0.5431  1.1043  0.3791
 4338TIP3   OH234648   3.585   2.689   1.753 -0.5636  0.3423 -0.0474
 4338TIP3    H134649   3.491   2.704   1.757 -0.8264 -1.1297 -0.3166
 4338TIP3    H234650   3.594   2.597   1.729  0.9355  0.1002  1.2614
 4339TIP3   OH234651   5.634   2.741   7.542  0.0273  0.0517  0.0192
 4339TIP3    H134652   5.559   2.705   7.493  0.6161  1.5069 -2.0959
 4339TIP3    H234653   5.632   2.695   7.626 -2.3840 -0.9760 -0.5126
 4340TIP3   OH234654   1.524   5.314   0.600 -0.0605 -0.2371 -0.0587
 4340TIP3    H134655   1.432   5.315   0.627 -0.3140 -2.2144 -0.6979
 4340TIP3    H234656   1.524   5.268   0.516  1.6151 -1.0071  0.3143
 4341TIP3   OH234657   3.932   3.778   7.301 -0.1831 -0.2693  0.2973
 4341TIP3    H134658   3.923   3.691   7.262  0.4694  0.2867 -1.1996
 4341TIP3    H234659   3.847   3.795   7.343  0.7990 -3.0583  3.9099
 4342TIP3   OH234660   1.618   4.011   7.471 -0.3560 -0.4470  0.4817
 4342TIP3    H134661   1.655   4.074   7.408 -2.1171  0.4423  0.2663
 4342TIP3    H234662   1.650   3.926   7.442 -0.1409  0.0795 -0.8915
 4343TIP3   OH234663   3.128   3.759   1.283 -1.0679  0.1787  0.4070
 4343TIP3    H134664   3.078   3.770   1.201 -1.4604 -0.0440  0.6111
 4343TIP3    H234665   3.219   3.748   1.254 -1.1809  0.2706  0.0079
 4344TIP3   OH234666   6.446   2.125   1.073  0.0845 -0.1152 -0.1324
 4344TIP3    H134667   6.535   2.139   1.105 -1.0723  2.7773  2.3765
 4344TIP3    H234668   6.445   2.166   0.987  1.2020 -0.3861 -0.2931
 4345TIP3   OH234669   3.807   0.075   8.189  0.3074  0.4185  0.1766
 4345TIP3    H134670   3.852  -0.001   8.151  0.3578 -0.8908  2.6026
 4345TIP3    H234671   3.806   0.140   8.119  2.0499 -1.0958 -1.3800
 4346TIP3   OH234672   6.417   0.659   8.478 -0.2747 -0.1580 -0.2805
 4346TIP3    H134673   6.430   0.726   8.410 -0.7487 -0.5441 -0.7634
 4346TIP3    H234674   6.366   0.590   8.434  1.0367 -1.3017 -0.0869
 4347TIP3   OH234675   0.019   6.592   7.295 -0.0754 -0.2688 -0.1504
 4347TIP3    H134676   0.078   6.568   7.223  0.7370 -0.8344  0.6887
 4347TIP3    H234677  -0.041   6.656   7.256  0.3089 -0.6081 -1.3445
 4348TIP3   OH234678   5.730   0.953   6.813 -0.2341  0.0114  0.1204
 4348TIP3    H134679   5.701   0.888   6.749  2.3541 -2.1112  0.9016
 4348TIP3    H234680   5.682   0.931   6.893 -0.9383  0.4627 -0.1717
 4349TIP3   OH234681   1.032   5.441   8.645  0.4443  0.2667  0.7373
 4349TIP3    H134682   1.125   5.450   8.665  0.3298 -0.0019  1.4044
 4349TIP3    H234683   1.021   5.348   8.623  0.4979  0.4786 -0.2127
 4350TIP3   OH234684   4.809   0.299   1.080  0.4795  0.1604 -0.0993
 4350TIP3    H134685   4.740   0.345   1.034  1.6000 -0.0776 -2.1569
 4350TIP3    H234686   4.880   0.363   1.089 -0.4551  0.9165  3.4383
 4351TIP3   OH234687   4.297   0.212   1.465 -0.1446 -0.1874  0.4230
 4351TIP3    H134688   4.392   0.203   1.466 -0.0926  0.3610  0.8547
 4351TIP3    H234689   4.268   0.159   1.390  0.3501 -1.7072  1.2489
 4352TIP3   OH234690   3.281   4.545   7.091  0.6425 -0.3123 -0.3909
 4352TIP3    H134691   3.366   4.546   7.135  0.0815 -2.8833  0.9454
 4352TIP3    H234692   3.227   4.607   7.142  0.6235 -1.6553  1.3370
 4353TIP3   OH234693   3.839   5.524   1.509  0.8611  0.7025  0.2777
 4353TIP3    H134694   3.847   5.619   1.495  0.1627  0.8004  0.5069
 4353TIP3    H234695   3.791   5.516   1.591 -0.5769  0.1672 -0.5846
 4354TIP3   OH234696   0.391   5.153   8.675  0.0821 -0.2959 -0.3581
 4354TIP3    H134697   0.361   5.238   8.706  0.0836  0.4282 -2.1851
 4354TIP3    H234698   0.407   5.102   8.754 -0.5974  1.1627  0.7601
 4355TIP3   OH234699   6.388   3.733   1.954 -0.7489  0.3254 -0.5581
 4355TIP3    H134700   6.438   3.672   1.900 -1.6481 -2.6019  1.6463
 4355TIP3    H234701   6.453   3.788   1.996  0.4319 -1.3143 -0.1459
 4356TIP3   OH234702   2.891   3.719   8.288  0.6895  0.2773  0.1069
 4356TIP3    H134703   2.907   3.696   8.197  0.5123  0.7313 -0.0415
 4356TIP3    H234704   2.807   3.765   8.287  0.8073  0.5085  0.4596
 4357TIP3   OH234705   1.429   1.860   0.545 -0.3622 -0.7015 -0.3699
 4357TIP3    H134706   1.498   1.872   0.480 -0.1621  2.6364  0.2751
 4357TIP3    H234707   1.348   1.858   0.494 -0.0874  0.0029 -0.8417
 4358TIP3   OH234708   6.089   2.265   6.703 -0.2868  0.9181  1.1811
 4358TIP3    H134709   5.995   2.276   6.686 -0.2668 -0.2577  0.1634
 4358TIP3    H234710   6.095   2.186   6.756  0.2216 -0.0932 -0.3168
 4359TIP3   OH234711   0.540   5.420   2.108  1.3110  0.1572  0.1727
 4359TIP3    H134712   0.534   5.363   2.032 -0.6280  0.2692  0.2078
 4359TIP3    H234713   0.523   5.363   2.183 -0.6685  0.7071  0.2047
 4360TIP3   OH234714   5.296   0.706   7.638  0.0522 -0.2591 -0.5166
 4360TIP3    H134715   5.255   0.764   7.574  0.0178 -1.1640 -1.3311
 4360TIP3    H234716   5.223   0.663   7.682  0.0966 -1.1073 -1.2538
 4361TIP3   OH234717   0.973   2.938   1.315 -0.4466  0.2859  0.1649
 4361TIP3    H134718   0.943   3.021   1.280  1.7000 -0.1061 -3.0230
 4361TIP3    H234719   1.026   2.961   1.391 -0.5915  1.7532 -0.1622
 4362TIP3   OH234720   0.913   5.224   8.533  0.2645 -0.0071  0.2361
 4362TIP3    H134721   0.823   5.212   8.566 -0.1059  0.1457 -0.6999
 4362TIP3    H234722   0.926   5.153   8.471 -0.3354  1.6665 -1.9447
 4363TIP3   OH234723   4.883   4.974   8.733  0.4304  0.6837 -0.8259
 4363TIP3    H134724   4.852   5.035   8.666 -0.6489  1.4556  0.3175
 4363TIP3    H234725   4.864   5.019   8.816  0.6114 -0.7482  0.0205
 4364TIP3   OH234726   5.661   5.860   0.658 -0.0126 -0.0977  0.6757
 4364TIP3    H134727   5.653   5.788   0.595 -1.1798 -1.6680  2.4740
 4364TIP3    H234728   5.749   5.894   0.645 -0.1906 -0.3685 -1.7356
 4365TIP3   OH234729   1.465   6.051   0.711 -0.3368  0.0387  0.2286
 4365TIP3    H134730   1.381   6.006   0.707 -0.9195  1.1564 -1.8946
 4365TIP3    H234731   1.529   5.982   0.725 -1.5298 -0.9255  1.1531
 4366TIP3   OH234732   4.494   2.778   1.585 -0.0951 -0.2858  0.0604
 4366TIP3    H134733   4.589   2.774   1.596  0.2214  2.0565 -1.2432
 4366TIP3    H234734   4.477   2.733   1.503  0.3990  2.2219 -1.5311
 4367TIP3   OH234735   3.811   0.042   7.581 -0.1995 -0.1183 -0.0969
 4367TIP3    H134736   3.889   0.088   7.611  0.4374 -0.4816 -1.1433
 4367TIP3    H234737   3.756   0.111   7.543 -0.8146  0.2748  1.3956
 4368TIP3   OH234738   5.285   3.185   1.704 -0.6146  0.2093 -0.7448
 4368TIP3    H134739   5.271   3.176   1.610 -0.0979  1.7263 -0.9858
 4368TIP3    H234740   5.198   3.169   1.742 -1.4680  2.1955 -1.6972
 4369TIP3   OH234741   1.517   3.191   1.284 -0.3170  0.4020  0.0013
 4369TIP3    H134742   1.545   3.101   1.302  0.7705  1.0941  2.0450
 4369TIP3    H234743   1.598   3.237   1.261 -0.7708  1.0206 -0.3760
 4370TIP3   OH234744   4.072   3.490   0.431  0.1814 -0.1366  0.5319
 4370TIP3    H134745   4.142   3.543   0.393 -1.5209  2.1722  0.3963
 4370TIP3    H234746   3.991   3.530   0.399 -1.2579 -2.4844  0.9560
 4371TIP3   OH234747   2.450   0.626   2.076  0.3921  0.4379  0.0967
 4371TIP3    H134748   2.470   0.649   1.985 -0.7847 -3.1033 -1.2224
 4371TIP3    H234749   2.533   0.596   2.112  0.5491  0.3283 -0.3530
 4372TIP3   OH234750   3.987   2.001   2.037 -0.4594  0.0380 -0.2537
 4372TIP3    H134751   4.054   1.942   2.071 -0.4153 -0.9257 -1.9008
 4372TIP3    H234752   3.922   1.944   1.997 -0.1703  1.0882 -2.3479
 4373TIP3   OH234753   3.939   6.047   0.904 -0.1097  0.4393  0.6554
 4373TIP3    H134754   3.944   6.125   0.960  0.6005 -0.2093  1.5295
 4373TIP3    H234755   4.022   6.002   0.918 -0.1271 -0.0126 -0.5573
 4374TIP3   OH234756   0.699   1.564   0.415 -0.1495 -0.3436 -0.4403
 4374TIP3    H134757   0.782   1.591   0.455 -0.7117  0.2627  0.3598
 4374TIP3    H234758   0.632   1.605   0.469 -1.0643 -2.7856  0.3956
 4375TIP3   OH234759   5.971   3.650   2.918  0.4588  0.2887  0.4105
 4375TIP3    H134760   5.914   3.586   2.875  1.2194  0.3568 -0.7416
 4375TIP3    H234761   6.049   3.655   2.862  1.0933  1.0633  1.3223
 4376TIP3   OH234762   1.497   1.401   7.606  0.1935 -0.3427 -0.9086
 4376TIP3    H134763   1.550   1.341   7.659 -1.3692 -1.0610 -0.0930
 4376TIP3    H234764   1.483   1.355   7.524 -1.6391 -1.5048 -0.0070
 4377TIP3   OH234765   5.004   3.711   1.203 -0.0626 -0.1262  0.0402
 4377TIP3    H134766   5.081   3.717   1.259  0.4489 -0.9661 -0.5504
 4377TIP3    H234767   5.015   3.782   1.140 -0.0144  0.0534  0.2503
 4378TIP3   OH234768   3.118   0.870   8.440  0.4368 -0.0235 -0.4694
 4378TIP3    H134769   3.177   0.929   8.393 -0.4156  0.3157 -1.1575
 4378TIP3    H234770   3.032   0.889   8.403  0.0689 -1.3480 -0.3408
 4379TIP3   OH234771   6.233   3.377   2.276  0.1560 -0.0659  0.4553
 4379TIP3    H134772   6.247   3.419   2.191 -2.0445 -0.1513  0.0081
 4379TIP3    H234773   6.191   3.444   2.330 -0.3836 -0.6667  0.7912
 4380TIP3   OH234774   1.714   4.379   7.097  0.0045  0.3499  0.1833
 4380TIP3    H134775   1.755   4.462   7.075 -2.2882  1.3772 -0.5145
 4380TIP3    H234776   1.700   4.336   7.012 -3.8672  1.8519 -0.1175
 4381TIP3   OH234777   0.081   3.800   0.231  0.5705  0.3149  0.1901
 4381TIP3    H134778   0.002   3.805   0.178  0.3590  0.4600  0.5128
 4381TIP3    H234779   0.151   3.831   0.174  0.4493 -0.1084 -0.1989
 4382TIP3   OH234780   6.275   5.584   1.893 -0.3825  0.2405 -0.1558
 4382TIP3    H134781   6.236   5.581   1.980  2.0888  1.2757  1.0855
 4382TIP3    H234782   6.294   5.493   1.871 -2.3500 -0.1680 -0.3187
 4383TIP3   OH234783   6.347   4.775   8.778  0.6916  0.3776  0.3480
 4383TIP3    H134784   6.299   4.783   8.860 -0.3161 -1.7060  0.0560
 4383TIP3    H234785   6.322   4.852   8.727 -1.0030  0.2305  0.8963
 4384TIP3   OH234786   5.589   2.336   0.369 -0.4063  0.4624  0.2102
 4384TIP3    H134787   5.611   2.262   0.311 -0.3704  0.3165  0.4095
 4384TIP3    H234788   5.515   2.304   0.421 -1.6544  1.2298 -1.0267
 4385TIP3   OH234789   0.446   2.990   1.936  0.7770 -0.2046  0.0459
 4385TIP3    H134790   0.400   2.933   1.997 -1.6140 -0.0560 -1.4825
 4385TIP3    H234791   0.397   2.983   1.854  0.5388  3.7218 -0.3732
 4386TIP3   OH234792   1.328   1.002   8.414  0.0981  0.1519 -0.2183
 4386TIP3    H134793   1.312   1.059   8.489 -0.0737  0.1884 -0.2840
 4386TIP3    H234794   1.251   0.946   8.408 -0.1119  0.4836 -0.6709
 4387TIP3   OH234795   0.606   2.428   2.373  0.0222  0.1651 -0.1633
 4387TIP3    H134796   0.671   2.359   2.384 -1.3142 -1.0532  0.4891
 4387TIP3    H234797   0.629   2.495   2.438  0.2681 -0.5428  0.4840
 4388TIP3   OH234798   5.306   3.868   0.930 -0.6384 -0.1096 -0.0621
 4388TIP3    H134799   5.301   3.775   0.909  0.6161 -0.3440  0.5357
 4388TIP3    H234800   5.215   3.896   0.940 -1.0155 -1.7725  1.8081
 4389TIP3   OH234801   5.967   0.243   8.012  0.0271 -0.4002  0.5201
 4389TIP3    H134802   5.894   0.250   7.950 -0.4404 -0.2419  1.0834
 4389TIP3    H234803   6.030   0.307   7.981  0.5078 -1.4358 -0.7354
 4390TIP3   OH234804   2.418   1.479   8.327  0.8034 -0.4285  0.5891
 4390TIP3    H134805   2.462   1.396   8.309  2.1460  0.4795 -0.5185
 4390TIP3    H234806   2.486   1.536   8.362  0.4731  0.8778 -0.7614
 4391TIP3   OH234807   1.503   0.565   8.034 -0.1784  0.0439 -0.8491
 4391TIP3    H134808   1.500   0.570   8.130  0.0621 -1.0055 -0.7707
 4391TIP3    H234809   1.506   0.471   8.016  1.3838  0.2532 -1.8382
 4392TIP3   OH234810   0.777   1.660   1.516 -0.9853  0.0200  0.1213
 4392TIP3    H134811   0.687   1.690   1.524 -0.7633  0.4310  1.2734
 4392TIP3    H234812   0.779   1.577   1.563 -0.8904 -0.2981 -0.4276
 4393TIP3   OH234813   0.710   2.150   0.588  0.1390  0.2944 -0.0584
 4393TIP3    H134814   0.719   2.151   0.492  1.8950  0.6276  0.0750
 4393TIP3    H234815   0.691   2.059   0.609  2.5952 -0.4159 -0.5622
 4394TIP3   OH234816   5.290   6.246   8.628  0.2489  0.3535  0.2794
 4394TIP3    H134817   5.377   6.285   8.636  0.9929 -0.9489 -0.9036
 4394TIP3    H234818   5.288   6.209   8.539 -0.4905 -1.9410  1.1623
 4395TIP3   OH234819   2.112   5.581   1.759 -0.5185 -0.4511 -0.3064
 4395TIP3    H134820   2.118   5.493   1.795 -0.1964  1.0426  3.7319
 4395TIP3    H234821   2.018   5.595   1.746 -0.7478 -0.7100  0.9844
 4396TIP3   OH234822   6.454   3.162   0.440 -0.3153  0.0309  0.1929
 4396TIP3    H134823   6.392   3.234   0.431  1.3469  1.8051  2.1405
 4396TIP3    H234824   6.522   3.180   0.376 -0.7795 -0.8368 -0.5686
 4397TIP3   OH234825   5.334   4.086   7.801  0.0204 -0.4112  0.4096
 4397TIP3    H134826   5.314   4.179   7.787  0.0058 -0.2509  1.4232
 4397TIP3    H234827   5.367   4.056   7.717 -0.9372  0.2577 -0.2150
 4398TIP3   OH234828   1.708   2.380   8.086  0.4189 -0.0635 -0.0526
 4398TIP3    H134829   1.752   2.466   8.084  1.5931 -0.6492 -0.4692
 4398TIP3    H234830   1.620   2.398   8.054  0.8187  0.9040 -0.6883
 4399TIP3   OH234831   2.360   2.740   8.166 -0.3350 -0.6179 -0.0176
 4399TIP3    H134832   2.303   2.811   8.195  0.2003 -0.6605  1.1758
 4399TIP3    H234833   2.346   2.736   8.071 -0.7989  0.6881 -0.0250
 4400TIP3   OH234834   5.988   1.347   2.340  0.8849  0.9222  0.4503
 4400TIP3    H134835   5.954   1.315   2.423  2.0475 -1.9748 -0.0973
 4400TIP3    H234836   6.082   1.332   2.344  0.9419  0.5073 -1.4542
 4401TIP3   OH234837   5.670   0.822   8.697  0.2509  0.3199 -0.3669
 4401TIP3    H134838   5.752   0.773   8.700  0.0350 -0.0329 -0.3160
 4401TIP3    H234839   5.609   0.771   8.748 -0.1773  0.2668 -0.9252
 4402TIP3   OH234840   3.990   4.707   2.361  0.0618  0.7212 -0.3451
 4402TIP3    H134841   4.063   4.727   2.303  1.6893 -0.2102  1.2686
 4402TIP3    H234842   4.007   4.757   2.441 -1.6596  1.3271 -0.3164
 4403TIP3   OH234843   2.612   1.538   7.756 -0.2629  0.4749 -0.4148
 4403TIP3    H134844   2.591   1.552   7.848  0.4441  0.4071 -0.2410
 4403TIP3    H234845   2.572   1.613   7.711 -3.9411 -1.3416 -0.5689
 4404TIP3   OH234846   2.820   3.320   8.526 -0.3289 -0.6576  0.2647
 4404TIP3    H134847   2.808   3.306   8.620  2.3010  1.2086  0.9970
 4404TIP3    H234848   2.866   3.242   8.495  0.8789 -0.3045  1.0820
 4405TIP3   OH234849   5.972   6.026   1.047  0.5665  0.1730  0.1966
 4405TIP3    H134850   5.880   6.052   1.037 -0.1548 -2.5001 -0.9405
 4405TIP3    H234851   6.018   6.074   0.978 -0.6059 -1.0162 -1.4921
 4406TIP3   OH234852   3.124   5.122   2.103 -0.6468  0.1185 -0.3024
 4406TIP3    H134853   3.200   5.064   2.114 -1.2562 -0.7130 -0.4128
 4406TIP3    H234854   3.154   5.206   2.137  0.6716  0.0858 -1.2760
 4407TIP3   OH234855   5.695   5.771   0.274 -0.1157 -0.2910 -0.1300
 4407TIP3    H134856   5.726   5.721   0.349 -1.1393 -2.1780 -0.9067
 4407TIP3    H234857   5.640   5.840   0.311 -0.6395 -1.2235  0.8505
 4408TIP3   OH234858   4.154   2.697   0.491 -0.7888 -0.4784 -0.3381
 4408TIP3    H134859   4.069   2.726   0.525  0.0025  1.7335 -0.1105
 4408TIP3    H234860   4.173   2.756   0.419  1.5955  0.6457  1.1056
 4409TIP3   OH234861   1.723   0.940   2.396 -0.1550  0.3750 -0.3738
 4409TIP3    H134862   1.712   1.035   2.397 -1.1623  0.3177  2.4535
 4409TIP3    H234863   1.707   0.913   2.486  0.8077 -2.4287 -0.9437
 4410TIP3   OH234864   1.655   4.462   1.827  1.0007  0.1945  0.0483
 4410TIP3    H134865   1.715   4.526   1.866 -0.0306 -0.0135  2.0936
 4410TIP3    H234866   1.654   4.484   1.734  3.1103  1.1140  0.1750
 4411TIP3   OH234867   0.096   6.805   1.607  0.0653  0.2439 -0.3193
 4411TIP3    H134868   0.042   6.852   1.544 -3.5122 -1.4583  1.1747
 4411TIP3    H234869   0.076   6.846   1.691  0.4273 -0.9673  0.3861
 4412TIP3   OH234870   5.346   4.579   1.183 -0.7167  0.1223  0.2185
 4412TIP3    H134871   5.332   4.669   1.154  0.3472  0.0475 -0.5929
 4412TIP3    H234872   5.431   4.554   1.146  0.8350  0.0175  3.4672
 4413TIP3   OH234873   0.930   4.373   0.322  0.0196 -0.4588  0.4773
 4413TIP3    H134874   0.974   4.442   0.273  1.3068 -1.5284  0.0567
 4413TIP3    H234875   0.894   4.315   0.254 -1.6699  0.1427  0.8166
 4414TIP3   OH234876   2.390   4.005   0.166 -0.3510  0.2431  0.0221
 4414TIP3    H134877   2.387   3.959   0.250  0.7002 -1.9767 -1.0486
 4414TIP3    H234878   2.473   4.054   0.168 -0.0428 -0.2730  0.0784
 4415TIP3   OH234879   5.070   6.269   8.822  0.6907  0.4132  0.1794
 4415TIP3    H134880   5.163   6.292   8.815  0.6073  0.8054  0.3565
 4415TIP3    H234881   5.064   6.182   8.782  1.7528 -1.2511  3.3549
 4416TIP3   OH234882   6.209   3.355   1.129 -0.1805 -0.1995  0.0180
 4416TIP3    H134883   6.244   3.424   1.186 -1.4689  0.5750 -0.0869
 4416TIP3    H234884   6.257   3.364   1.047  0.9926 -0.6809  0.6203
 4417TIP3   OH234885   1.386   6.261   8.516  0.5471  0.1676 -0.5986
 4417TIP3    H134886   1.407   6.210   8.595  1.4155 -0.1357 -1.0019
 4417TIP3    H234887   1.292   6.275   8.521  0.3928 -0.8893 -0.1149
 4418TIP3   OH234888   2.156   3.359   7.692  0.0669 -0.1957  0.3191
 4418TIP3    H134889   2.101   3.437   7.705 -0.3504 -0.1871 -1.2686
 4418TIP3    H234890   2.120   3.294   7.754 -0.6857  0.3328  0.4555
 4419TIP3   OH234891   3.269   2.747   8.006  0.1281  0.3411  0.2511
 4419TIP3    H134892   3.230   2.831   7.979  0.0352  0.4282  0.6474
 4419TIP3    H234893   3.272   2.695   7.925  0.8606  0.9858 -0.1578
 4420TIP3   OH234894   3.513   0.225   0.201 -0.4174 -0.3060  0.2781
 4420TIP3    H134895   3.505   0.209   0.295  0.0387  0.2249  0.4137
 4420TIP3    H234896   3.422   0.237   0.171 -0.4960  0.7625  0.8879
 4421TIP3   OH234897   1.695   2.332   7.772  0.1321  0.3131 -0.2775
 4421TIP3    H134898   1.706   2.246   7.812  2.0080  1.2548  1.3995
 4421TIP3    H234899   1.600   2.345   7.770 -0.3387 -2.4615 -2.2154
 4422TIP3   OH234900   5.672   6.039   1.477 -0.1673  0.2333 -0.2239
 4422TIP3    H134901   5.716   6.011   1.557 -1.6548  0.2551  0.6453
 4422TIP3    H234902   5.628   6.121   1.502 -3.4634 -1.4315  0.0295
 4423TIP3   OH234903   6.788   1.386   0.723  0.2232 -0.0212  0.2004
 4423TIP3    H134904   6.768   1.300   0.761  0.5468 -0.8785 -1.4934
 4423TIP3    H234905   6.884   1.391   0.722  0.2999 -0.7596 -1.9678
 4424TIP3   OH234906   4.242   6.058   0.186 -0.1375 -0.0271  0.2891
 4424TIP3    H134907   4.163   6.089   0.232  0.0834 -0.0003  0.6550
 4424TIP3    H234908   4.228   6.084   0.095 -0.0172  1.0450  0.5565
 4425TIP3   OH234909   3.331   0.862   7.386  0.4973 -0.0603 -0.1149
 4425TIP3    H134910   3.384   0.915   7.327  1.1874 -0.6048  0.0058
 4425TIP3    H234911   3.247   0.908   7.391  1.8407  2.4581  1.9704
 4426TIP3   OH234912   5.800   5.108   2.213  0.1089 -0.2103 -0.7341
 4426TIP3    H134913   5.870   5.137   2.155 -0.3548  1.7204 -0.3964
 4426TIP3    H234914   5.721   5.114   2.159 -0.0397 -0.5085 -0.5483
 4427TIP3   OH234915   0.880   0.113   8.323 -0.0553 -0.0458  0.9542
 4427TIP3    H134916   0.817   0.116   8.395  0.1202  0.0773  1.1036
 4427TIP3    H234917   0.839   0.058   8.257 -0.3811  0.1444  0.9964
 4428TIP3   OH234918   1.318   0.411   8.476  0.1279 -0.1376 -0.4243
 4428TIP3    H134919   1.238   0.368   8.508 -0.4848  2.0840  1.2959
 4428TIP3    H234920   1.387   0.380   8.534 -0.2372  0.7769  0.5405
 4429TIP3   OH234921   2.041   2.299   0.839  0.1010 -0.3914  0.0822
 4429TIP3    H134922   1.980   2.298   0.766  0.7452 -0.9733 -0.4671
 4429TIP3    H234923   2.012   2.227   0.895  0.5840 -1.0117 -0.4483
 4430TIP3   OH234924   6.755   4.021   7.018  0.0525 -0.4108 -0.6098
 4430TIP3    H134925   6.721   4.107   7.045 -1.1006 -1.3614  1.1795
 4430TIP3    H234926   6.677   3.972   6.992  0.7489 -0.7974 -2.0474
 4431TIP3   OH234927   2.245   3.148   2.555  0.0898 -0.3842  1.0339
 4431TIP3    H134928   2.254   3.233   2.598 -0.4896  0.8537 -1.1672
 4431TIP3    H234929   2.154   3.122   2.571 -0.2738  0.3195  0.1736
 4432TIP3   OH234930   5.489   3.993   6.889 -0.1932 -1.0248 -0.4441
 4432TIP3    H134931   5.526   4.081   6.887 -0.9915 -0.6098  1.2646
 4432TIP3    H234932   5.565   3.935   6.876  0.8561 -0.1414  1.3435
 4433TIP3   OH234933   1.127   1.611   2.182  0.7021 -0.5797  0.0892
 4433TIP3    H134934   1.211   1.594   2.223  0.6559 -0.1648  0.3738
 4433TIP3    H234935   1.144   1.682   2.121  0.3322  0.3495  1.0259
 4434TIP3   OH234936   3.748   4.515   1.676  0.1760  0.2848  0.0921
 4434TIP3    H134937   3.743   4.478   1.765 -0.1071  1.9074  0.7970
 4434TIP3    H234938   3.806   4.456   1.629 -1.4526 -1.9183  0.6647
 4435TIP3   OH234939   5.396   6.191   0.839  0.1813 -0.1332 -0.5309
 4435TIP3    H134940   5.409   6.096   0.834 -1.8945 -0.4434 -1.0872
 4435TIP3    H234941   5.434   6.217   0.922  1.7907 -1.2518 -0.8738
 4436TIP3   OH234942   6.571   1.815   0.845 -0.3602 -0.1003 -0.0798
 4436TIP3    H134943   6.545   1.814   0.937 -0.7860 -0.6756 -0.2012
 4436TIP3    H234944   6.537   1.733   0.810  0.3546 -0.1813 -0.5975
 4437TIP3   OH234945   5.105   2.932   1.145  0.6130 -0.2736 -0.2155
 4437TIP3    H134946   5.166   3.005   1.145 -0.2179  0.4383 -0.7667
 4437TIP3    H234947   5.120   2.888   1.061 -1.4874  1.5457 -1.6630
 4438TIP3   OH234948   3.916   2.564   0.979  0.3239 -0.4829 -0.2739
 4438TIP3    H134949   3.905   2.508   0.902  0.2954  0.1643 -0.7428
 4438TIP3    H234950   4.009   2.587   0.978  0.4219 -0.8475  0.1498
 4439TIP3   OH234951   0.609   0.471   0.038 -0.1839 -0.4445  0.5384
 4439TIP3    H134952   0.651   0.417  -0.030  0.4381 -0.3360  0.8271
 4439TIP3    H234953   0.640   0.433   0.120 -0.7044 -0.3909  0.7587
 4440TIP3   OH234954   6.609   4.412   2.365  0.0586  0.4613 -0.0369
 4440TIP3    H134955   6.612   4.388   2.457 -0.3041 -1.5486 -0.5017
 4440TIP3    H234956   6.518   4.396   2.339  0.4976 -0.5106 -1.0773
 4441TIP3   OH234957   1.035   4.769   3.026 -0.4918 -0.3610  0.3513
 4441TIP3    H134958   0.994   4.755   2.941  1.0892  1.4916 -0.7960
 4441TIP3    H234959   0.997   4.851   3.057 -0.7118 -0.7906  1.2523
 4442TIP3   OH234960   4.153   6.577   1.535  0.3318 -0.2291  0.2149
 4442TIP3    H134961   4.112   6.554   1.452 -0.7768  0.8213  0.4528
 4442TIP3    H234962   4.101   6.532   1.602  1.3134 -1.2004  0.3600
 4443TIP3   OH234963   1.076   6.351   7.512  0.1005 -0.6561 -0.2251
 4443TIP3    H134964   1.131   6.428   7.495 -1.5330  0.7080  0.3700
 4443TIP3    H234965   1.020   6.345   7.435 -1.0305 -0.1028  0.5345
 4444TIP3   OH234966   5.925   5.359   1.536 -0.5164  0.2617 -0.5062
 4444TIP3    H134967   5.854   5.347   1.473  2.3261  0.2945 -4.0575
 4444TIP3    H234968   5.930   5.454   1.548 -0.9352  0.2669 -0.3391
 4445TIP3   OH234969   6.638   5.988   1.256 -0.4324  0.4298 -0.0683
 4445TIP3    H134970   6.560   5.962   1.305  0.0216 -0.8739 -0.0140
 4445TIP3    H234971   6.606   6.001   1.166 -0.4428 -1.8788 -0.4644
 4446TIP3   OH234972   1.087   0.133   1.589  0.5592  0.3030 -0.2211
 4446TIP3    H134973   1.165   0.082   1.614 -1.1850 -2.3408  0.2544
 4446TIP3    H234974   1.059   0.095   1.506 -1.1636 -0.0191  0.4613
 4447TIP3   OH234975   4.940   5.315   0.815  0.0476  0.2853  0.1082
 4447TIP3    H134976   4.980   5.232   0.789  0.0517  0.3998 -0.2525
 4447TIP3    H234977   5.014   5.371   0.839  0.2694  1.0908 -2.2409
 4448TIP3   OH234978   1.773   6.552   7.582 -0.2875  0.6728 -0.1847
 4448TIP3    H134979   1.858   6.514   7.606  0.1406  1.0441 -1.0680
 4448TIP3    H234980   1.736   6.581   7.665 -0.0317 -0.4651  0.3382
 4449TIP3   OH234981   3.816   1.500   1.392 -0.4762 -0.2023  1.0605
 4449TIP3    H134982   3.778   1.515   1.479 -1.9478 -1.9415  0.7827
 4449TIP3    H234983   3.876   1.427   1.404  2.2436  1.9047  1.2839
 4450TIP3   OH234984   6.807   5.139   7.408  0.2264  0.2055  0.1232
 4450TIP3    H134985   6.813   5.043   7.412  0.6125  0.1979 -0.5149
 4450TIP3    H234986   6.748   5.155   7.334  0.5460  0.4683 -0.0736
 4451TIP3   OH234987   2.625   4.602   7.183 -0.1079  0.0644  0.0026
 4451TIP3    H134988   2.559   4.664   7.150 -1.3678 -0.8217  0.7603
 4451TIP3    H234989   2.592   4.575   7.269 -0.2056 -2.4846 -0.7474
 4452TIP3   OH234990   2.979   3.076   0.127 -0.2003 -0.6678 -0.3088
 4452TIP3    H134991   2.888   3.090   0.155 -0.1543  1.9434 -1.1420
 4452TIP3    H234992   2.973   3.064   0.032  0.3793  0.8200 -0.5566
 4453TIP3   OH234993   6.436   5.531   0.784 -0.0328  0.1445  0.6452
 4453TIP3    H134994   6.394   5.571   0.860  1.1193  0.8050  0.9681
 4453TIP3    H234995   6.379   5.554   0.710 -0.9072 -0.0874  1.2313
 4454TIP3   OH234996   5.390   3.922   6.653 -0.0124 -0.3843  0.1214
 4454TIP3    H134997   5.417   3.946   6.742  0.0011  0.3169 -0.0699
 4454TIP3    H234998   5.452   3.854   6.627  1.6096  1.2121 -0.3151
 4455TIP3   OH234999   2.414   0.966   0.866 -0.1822 -0.0189  0.0464
 4455TIP3    H135000   2.322   0.940   0.874 -0.5470  1.2946  0.2328
 4455TIP3    H235001   2.411   1.056   0.836  1.0149  0.7954  2.1805
 4456TIP3   OH235002   2.738   0.938   1.524  0.0489  0.2147  0.4704
 4456TIP3    H135003   2.742   1.019   1.576 -0.8980 -0.2577  1.3213
 4456TIP3    H235004   2.802   0.880   1.566  1.3962  0.7982 -0.6962
 4457TIP3   OH235005   5.328   3.093   0.988 -0.0600  0.2090  0.0015
 4457TIP3    H135006   5.402   3.118   1.044 -1.3606 -1.2021  2.5549
 4457TIP3    H235007   5.342   3.000   0.970 -0.6246  0.2132 -0.4781
 4458TIP3   OH235008   2.081   1.547   1.213  0.4090  0.5167  0.2407
 4458TIP3    H135009   2.145   1.541   1.142  1.0252 -2.7211  0.9215
 4458TIP3    H235010   2.132   1.573   1.289  0.5088  0.1612  0.2985
 4459TIP3   OH235011   4.305   5.883   0.446 -1.0701  0.0594 -0.2044
 4459TIP3    H135012   4.269   5.939   0.377 -1.4277 -0.0430 -0.1038
 4459TIP3    H235013   4.228   5.839   0.483 -0.7122 -1.4285 -1.1039
 4460TIP3   OH235014   5.837   1.686   0.134  0.1725  0.2307  0.5571
 4460TIP3    H135015   5.776   1.697   0.061  1.2120  2.5720 -0.0736
 4460TIP3    H235016   5.878   1.601   0.119  1.4358  1.2508 -2.5018
 4461TIP3   OH235017   1.573   5.158   0.060  0.0907 -0.1474  0.2259
 4461TIP3    H135018   1.482   5.149   0.032  0.0262  1.4157 -0.1544
 4461TIP3    H235019   1.620   5.088   0.014 -1.1548 -2.0492  1.7126
 4462TIP3   OH235020   2.857   2.997   7.832  0.0073  0.3888  0.3539
 4462TIP3    H135021   2.873   2.929   7.897 -0.7464  0.4348  0.5932
 4462TIP3    H235022   2.923   2.981   7.764 -0.2385 -0.6649  0.3434
 4463TIP3   OH235023   5.301   4.185   8.387  0.3277  0.2606 -0.2386
 4463TIP3    H135024   5.379   4.233   8.412 -0.1201 -0.4435  3.0685
 4463TIP3    H235025   5.324   4.093   8.399 -0.7030 -0.0021 -0.1366
 4464TIP3   OH235026   1.006   3.154   0.585  0.0699  0.5406  0.0214
 4464TIP3    H135027   0.949   3.079   0.567 -1.0814  1.1087  1.1521
 4464TIP3    H235028   0.946   3.228   0.593  1.0930  1.3837  0.0169
 4465TIP3   OH235029   1.040   3.455   8.646  0.3498 -0.5099 -0.1432
 4465TIP3    H135030   0.945   3.450   8.634  0.5853 -0.7998 -2.4054
 4465TIP3    H235031   1.073   3.371   8.613  1.5010  0.2941 -1.1283
 4466TIP3   OH235032   1.340   0.457   1.882 -0.4089  0.4453 -0.0852
 4466TIP3    H135033   1.368   0.366   1.894  0.1322  0.6930  0.6244
 4466TIP3    H235034   1.294   0.480   1.963  1.5919  1.5415  0.8265
 4467TIP3   OH235035   0.567   0.660   1.548  0.0502  0.1461  0.3027
 4467TIP3    H135036   0.658   0.671   1.522  0.1338  1.2593  0.9863
 4467TIP3    H235037   0.564   0.689   1.639 -0.9751  0.1186  0.2893
 4468TIP3   OH235038   1.138   1.913   2.112  0.1974  0.4485 -0.7257
 4468TIP3    H135039   1.207   1.959   2.064  0.1634 -0.1310 -1.3424
 4468TIP3    H235040   1.117   1.971   2.185  0.8278  0.9644 -0.9452
 4469TIP3   OH235041   6.507   4.146   1.865 -0.2838  0.2842  0.5122
 4469TIP3    H135042   6.534   4.112   1.780  0.1276 -2.7453  1.7206
 4469TIP3    H235043   6.577   4.206   1.890 -1.2589  2.6522 -1.9279
 4470TIP3   OH235044   0.483   3.098   0.913  0.5622  0.2080  0.5819
 4470TIP3    H135045   0.550   3.060   0.970  0.9416  0.1261  0.0872
 4470TIP3    H235046   0.420   3.028   0.899  0.9034 -0.0323  0.2284
 4471TIP3   OH235047   0.552   1.200   2.824  0.3551  0.1772 -0.2105
 4471TIP3    H135048   0.628   1.165   2.871  0.4615  0.7456  0.0500
 4471TIP3    H235049   0.573   1.188   2.731  0.7929  0.3843 -0.1414
 4472TIP3   OH235050   3.958   3.885   6.515 -0.4282 -0.0515 -0.1429
 4472TIP3    H135051   3.928   3.952   6.576 -0.9664  0.0118 -0.4720
 4472TIP3    H235052   4.053   3.893   6.515 -0.5291  1.5432 -1.1168
 4473TIP3   OH235053   3.445   1.583   8.387 -0.2052  0.0933 -0.0526
 4473TIP3    H135054   3.398   1.661   8.418 -0.4158 -0.4634  1.1018
 4473TIP3    H235055   3.537   1.610   8.383 -0.4623  0.8747 -1.2907
 4474TIP3   OH235056   5.176   5.174   0.165 -0.3979  0.0329 -0.4295
 4474TIP3    H135057   5.161   5.096   0.218  0.3386  0.6454  0.7166
 4474TIP3    H235058   5.133   5.245   0.213  0.2672  0.5990 -0.6400
 4475TIP3   OH235059   3.805   5.319   0.146  0.8546  0.1897 -0.2830
 4475TIP3    H135060   3.882   5.369   0.117 -0.4993  1.6174 -1.6512
 4475TIP3    H235061   3.791   5.254   0.078  0.4972  0.3326 -0.3467
 4476TIP3   OH235062   4.954   1.578   1.831  0.3336 -0.1382 -0.4164
 4476TIP3    H135063   4.878   1.592   1.775 -0.4433 -1.5842  0.2048
 4476TIP3    H235064   4.935   1.629   1.910 -2.0186 -3.4188  1.4332
 4477TIP3   OH235065   2.495   5.637   1.997  0.2454  0.1547  0.0361
 4477TIP3    H135066   2.536   5.620   2.081 -1.2820  0.7389  0.9277
 4477TIP3    H235067   2.536   5.717   1.965  2.9455 -1.5726 -1.2339
 4478TIP3   OH235068   4.094   2.769   1.142 -0.3505  0.0957 -0.1062
 4478TIP3    H135069   4.155   2.695   1.142 -1.8488 -1.1792  0.5058
 4478TIP3    H235070   4.147   2.843   1.173  1.0043 -0.8606 -0.0494
 4479TIP3   OH235071   4.671   0.683   8.584 -0.1271 -0.4312  0.1471
 4479TIP3    H135072   4.699   0.688   8.675  0.5404  1.8353 -0.1105
 4479TIP3    H235073   4.651   0.774   8.561  1.2399 -0.6958 -2.4170
 4480TIP3   OH235074   1.480   5.557   1.657 -0.3131 -0.5902 -0.1968
 4480TIP3    H135075   1.456   5.539   1.748 -0.8581 -1.7228 -0.5492
 4480TIP3    H235076   1.478   5.472   1.615 -0.0366 -0.0748 -1.2764
 4481TIP3   OH235077   3.891   4.504   0.920  0.1054 -0.3523  0.1377
 4481TIP3    H135078   3.817   4.478   0.864  0.2153 -2.2430  0.7764
 4481TIP3    H235079   3.942   4.423   0.930  1.4421  0.5578  0.9393
 4482TIP3   OH235080   4.824   5.687   0.367 -0.0005 -0.3632  0.2161
 4482TIP3    H135081   4.855   5.707   0.279 -0.4185  2.4662  0.6352
 4482TIP3    H235082   4.730   5.673   0.357  0.2190 -1.8383 -0.0044
 4483TIP3   OH235083   4.425   6.273   2.616  0.0886 -0.0130  0.2262
 4483TIP3    H135084   4.359   6.304   2.555 -0.0986 -0.7996  0.0086
 4483TIP3    H235085   4.384   6.281   2.702  0.1198  0.5113  0.1942
 4484TIP3   OH235086   1.977   3.189   2.505  0.4761  0.3957  0.2689
 4484TIP3    H135087   1.882   3.184   2.519  0.5338  1.0632  1.0127
 4484TIP3    H235088   1.992   3.280   2.481  0.9535  0.3486  0.3924
 4485TIP3   OH235089   5.533   5.520   0.317 -0.2398 -0.7322  0.2259
 4485TIP3    H135090   5.499   5.610   0.320  0.3068 -0.5644  1.9193
 4485TIP3    H235091   5.605   5.524   0.254  0.4222  0.2631  1.0126
 4486TIP3   OH235092   2.078   3.983   7.070  0.1921 -0.1936 -0.0796
 4486TIP3    H135093   1.997   3.987   7.121 -1.4010  0.2196 -2.4445
 4486TIP3    H235094   2.142   4.031   7.123 -0.9998 -0.7495  1.9876
 4487TIP3   OH235095   3.949   4.938   0.032  0.1147 -0.4276  0.7519
 4487TIP3    H135096   4.004   4.929  -0.045 -0.0824  2.2239  0.1962
 4487TIP3    H235097   4.010   4.947   0.105  0.4678  1.2957  0.2943
 4488TIP3   OH235098   6.751   6.399   0.725 -0.8729 -0.4542  0.2535
 4488TIP3    H135099   6.736   6.376   0.633 -2.1446 -2.5805  0.9186
 4488TIP3    H235100   6.814   6.333   0.756  2.0085  2.0406  0.2483
 4489TIP3   OH235101   1.606   5.452   0.059 -0.5872  0.1058  0.0350
 4489TIP3    H135102   1.677   5.502   0.099 -0.3619  0.6310 -1.0069
 4489TIP3    H235103   1.628   5.361   0.077 -0.2735  0.3115  0.7392
 4490TIP3   OH235104   5.451   2.238   7.305 -0.3109  0.3431 -0.0880
 4490TIP3    H135105   5.528   2.263   7.254 -1.7798  1.4311 -1.8584
 4490TIP3    H235106   5.442   2.144   7.291 -0.4109  0.5462 -1.4822
 4491TIP3   OH235107   0.712   2.917   8.244 -0.3702 -0.5675  0.1171
 4491TIP3    H135108   0.718   2.822   8.237  2.0648 -0.4224 -0.5922
 4491TIP3    H235109   0.698   2.948   8.154  0.2211 -0.1943  0.1481
 4492TIP3   OH235110   6.731   1.228   1.542 -0.1584  0.0105  0.4641
 4492TIP3    H135111   6.643   1.199   1.567  0.0557 -0.6076  0.5271
 4492TIP3    H235112   6.717   1.312   1.498 -0.9509 -0.9056 -1.0860
 4493TIP3   OH235113   1.184   3.839   1.713 -0.1773  0.0087  0.4767
 4493TIP3    H135114   1.241   3.765   1.692  0.8181  0.8502  0.1355
 4493TIP3    H235115   1.215   3.869   1.798  0.0778  0.6437  0.1642
 4494TIP3   OH235116   2.132   4.895   8.170  0.8342 -0.1667  0.5429
 4494TIP3    H135117   2.124   4.825   8.105 -0.0692 -0.6587  1.1672
 4494TIP3    H235118   2.226   4.902   8.185  1.1671  0.6413 -1.5334
 4495TIP3   OH235119   6.717   6.128   0.940 -0.0181  0.7092 -0.2496
 4495TIP3    H135120   6.749   6.216   0.920  0.7170  0.2896 -0.9648
 4495TIP3    H235121   6.791   6.070   0.920  0.8086  0.1839  3.5280
 4496TIP3   OH235122   0.865   2.180   1.415 -0.4215  0.2219 -0.3098
 4496TIP3    H135123   0.857   2.268   1.452  0.2345  0.9652 -1.8413
 4496TIP3    H235124   0.938   2.187   1.353 -1.3616 -0.9832 -1.6103
 4497TIP3   OH235125   0.154   0.389   8.278 -0.1820 -0.2291 -0.1720
 4497TIP3    H135126   0.142   0.300   8.311  0.3084 -0.2562 -0.0667
 4497TIP3    H235127   0.235   0.419   8.319  0.6529 -0.3931 -1.6463
 4498TIP3   OH235128   5.439   3.737   7.886  0.4993  0.1564  0.1949
 4498TIP3    H135129   5.491   3.761   7.962 -1.5701  1.7843  1.1939
 4498TIP3    H235130   5.436   3.816   7.832  2.0762 -1.0116 -1.7491
 4499TIP3   OH235131   1.473   1.326   0.414 -0.0357 -0.1193  0.4696
 4499TIP3    H135132   1.506   1.328   0.324  1.4983  2.4788  0.9997
 4499TIP3    H235133   1.532   1.266   0.459 -0.3695 -0.8737 -0.0727
 4500TIP3   OH235134   0.126   6.413   2.093  0.4535 -0.0917  0.1443
 4500TIP3    H135135   0.164   6.493   2.129  1.7416 -1.0617  1.0140
 4500TIP3    H235136   0.169   6.342   2.140 -1.9244 -1.3053  0.6680
 4501TIP3   OH235137   5.554   4.218   8.050  0.4967  0.6503 -0.1374
 4501TIP3    H135138   5.507   4.260   8.122 -1.5777  1.3578 -1.8002
 4501TIP3    H235139   5.533   4.125   8.058 -0.6544  0.8665 -0.4216
 4502TIP3   OH235140   6.375   2.321   7.196 -0.5959 -0.2811 -0.9245
 4502TIP3    H135141   6.295   2.362   7.162  0.0247  1.2236 -0.6305
 4502TIP3    H235142   6.444   2.384   7.179  0.7558 -1.9685 -2.0603
 4503TIP3   OH235143   3.152   0.783   0.477  0.2684 -0.1709 -0.0946
 4503TIP3    H135144   3.236   0.753   0.511  0.3951 -0.2335 -0.4621
 4503TIP3    H235145   3.153   0.878   0.495 -0.6452 -0.5200  2.1620
 4504TIP3   OH235146   0.434   5.113   7.848 -0.1863  0.3979 -0.3164
 4504TIP3    H135147   0.411   5.022   7.829  0.6459 -0.0438  0.7058
 4504TIP3    H235148   0.529   5.116   7.843 -0.1727  1.1069  0.1349
 4505TIP3   OH235149   0.422   2.691   1.160  0.5016 -0.4913  0.0267
 4505TIP3    H135150   0.353   2.652   1.106  0.4229  0.0114 -0.2375
 4505TIP3    H235151   0.440   2.624   1.226 -1.7277  0.1856  1.4164
 4506TIP3   OH235152   0.620   3.354   2.958 -0.3055  0.5282 -0.0741
 4506TIP3    H135153   0.552   3.348   3.025 -1.1942  2.0304 -0.7858
 4506TIP3    H235154   0.691   3.404   3.000  0.1120 -0.4751  0.4514
 4507TIP3   OH235155   5.041   0.383   2.391 -0.2718  0.0862 -0.4156
 4507TIP3    H135156   4.966   0.335   2.355 -0.2293 -1.7344  1.6785
 4507TIP3    H235157   5.004   0.466   2.421 -0.8713  0.3723 -1.8723
 4508TIP3   OH235158   6.393   3.580   2.599 -0.2494 -0.0271 -0.1474
 4508TIP3    H135159   6.414   3.649   2.536  0.7612  0.8237  1.0652
 4508TIP3    H235160   6.414   3.499   2.553  0.0044  0.5442 -1.0730
 4509TIP3   OH235161   6.411   5.182   8.619  0.8887 -0.3142 -0.2412
 4509TIP3    H135162   6.489   5.217   8.661  1.5317 -1.6393 -0.2907
 4509TIP3    H235163   6.346   5.176   8.690  1.1711 -0.2012  0.0248
 4510TIP3   OH235164   3.659   5.256   0.459 -0.3980  0.0173 -0.7047
 4510TIP3    H135165   3.634   5.189   0.522  0.2460 -0.1701 -0.6482
 4510TIP3    H235166   3.634   5.339   0.500  1.3461  0.0049  0.4459
 4511TIP3   OH235167   4.154   0.751   7.775  0.0509  0.3895 -0.1402
 4511TIP3    H135168   4.226   0.789   7.826 -1.1861  2.7059  0.0377
 4511TIP3    H235169   4.107   0.827   7.739 -0.9551 -1.0896 -2.1792
 4512TIP3   OH235170   2.625   1.864   1.370 -0.2611  0.2916 -0.6280
 4512TIP3    H135171   2.578   1.833   1.448 -0.9152  2.3869 -0.1375
 4512TIP3    H235172   2.710   1.820   1.374 -0.4358  0.0452  1.0363
 4513TIP3   OH235173   4.380   2.942   2.512  0.2615  0.2417  0.3819
 4513TIP3    H135174   4.346   2.885   2.582  1.7748  0.0338  0.9844
 4513TIP3    H235175   4.398   3.025   2.556  0.9383  0.2083  0.1698
 4514TIP3   OH235176   6.495   6.731   1.353 -0.2564  0.2924 -0.6802
 4514TIP3    H135177   6.467   6.653   1.304 -1.0185  0.2890 -0.2554
 4514TIP3    H235178   6.564   6.769   1.299 -1.8751  0.9662 -2.3978
 4515TIP3   OH235179   2.879   2.089   7.879 -0.2320  0.3915 -0.0759
 4515TIP3    H135180   2.840   2.166   7.838  1.8748  1.4848 -0.1275
 4515TIP3    H235181   2.822   2.070   7.954  0.0070  2.9038  0.8213
 4516TIP3   OH235182   0.097   2.129   8.768  0.5914  0.0821 -0.2118
 4516TIP3    H135183   0.010   2.126   8.809  0.0416  0.1861 -1.3415
 4516TIP3    H235184   0.099   2.213   8.722  0.8507 -0.4055 -1.1139
 4517TIP3   OH235185   6.013   6.001   6.781  0.1960 -0.1055 -0.1198
 4517TIP3    H135186   6.056   5.949   6.849 -0.6165 -0.2018  0.3258
 4517TIP3    H235187   5.936   5.949   6.757 -0.1372  0.4719 -0.3029
 4518TIP3   OH235188   5.423   5.603   0.595  0.2165 -0.0728  0.1748
 4518TIP3    H135189   5.515   5.617   0.573 -0.1190  3.4081  0.3758
 4518TIP3    H235190   5.423   5.585   0.689  0.7328 -1.2927 -0.0414
 4519TIP3   OH235191   4.546   0.353   0.081  0.0785  0.0787 -0.6052
 4519TIP3    H135192   4.509   0.268   0.105 -1.2207  1.0055  0.7563
 4519TIP3    H235193   4.513   0.368  -0.008 -2.7495  0.7525  0.4456
 4520TIP3   OH235194   4.734   1.361   1.668  0.3249 -0.7356 -0.1855
 4520TIP3    H135195   4.828   1.370   1.648  0.2146  0.7353 -0.1922
 4520TIP3    H235196   4.708   1.450   1.694 -0.5314 -1.5867  2.1457
 4521TIP3   OH235197   1.934   5.289   8.443 -0.0824  0.3528  0.5089
 4521TIP3    H135198   1.916   5.329   8.357  1.2595  0.9445  0.4717
 4521TIP3    H235199   1.990   5.214   8.422 -0.7239 -0.2056  0.7774
 4522TIP3   OH235200   3.719   2.694   7.594  0.1963  0.2599 -0.6120
 4522TIP3    H135201   3.769   2.775   7.589  2.3905 -0.8744  1.0138
 4522TIP3    H235202   3.775   2.628   7.552 -1.5853 -0.4486 -2.0130
 4523TIP3   OH235203   0.197   0.820   1.015 -0.6192  0.1922  0.4957
 4523TIP3    H135204   0.185   0.813   1.110 -0.7990  0.2285  0.4765
 4523TIP3    H235205   0.109   0.809   0.979 -0.3941 -0.9579  0.2575
 4524TIP3   OH235206   1.860   0.915   1.645  0.1736  0.0142 -0.7904
 4524TIP3    H135207   1.813   0.864   1.578 -2.4795  1.4129 -0.1288
 4524TIP3    H235208   1.881   0.851   1.713  0.8548 -0.9818 -1.8813
 4525TIP3   OH235209   3.342   4.381   7.740  0.4133 -0.1703  0.5112
 4525TIP3    H135210   3.254   4.379   7.703  0.4889 -0.7723  0.3493
 4525TIP3    H235211   3.393   4.324   7.683  1.2109  1.1166 -0.1100
 4526TIP3   OH235212   6.591   0.482   2.010 -0.0488  0.1363  0.7529
 4526TIP3    H135213   6.656   0.534   1.963 -0.3412  0.6306  0.8747
 4526TIP3    H235214   6.578   0.404   1.957 -0.6470  0.8508 -0.1905
 4527TIP3   OH235215   4.583   4.857   0.238  0.5579  0.2181  1.0400
 4527TIP3    H135216   4.547   4.875   0.325 -0.9901  1.8945  0.1339
 4527TIP3    H235217   4.534   4.781   0.207  0.2608  0.3487  1.1814
 4528TIP3   OH235218   0.398   5.264   1.194 -0.6341 -0.3679  0.1346
 4528TIP3    H135219   0.379   5.261   1.287 -1.2374  0.9452  0.0849
 4528TIP3    H235220   0.393   5.173   1.165 -1.8970 -0.6328  1.1087
 4529TIP3   OH235221   3.245   3.103   0.131 -0.3889 -0.0697  0.2123
 4529TIP3    H135222   3.252   3.057   0.047  0.3493 -0.3031  0.3987
 4529TIP3    H235223   3.163   3.071   0.168 -0.6118 -0.1332 -0.3231
 4530TIP3   OH235224   5.187   6.199   6.987 -0.1779  0.1749  0.0049
 4530TIP3    H135225   5.209   6.255   6.913  2.8473 -0.8841 -0.0365
 4530TIP3    H235226   5.142   6.124   6.949  0.1565  0.2674 -0.5754
 4531TIP3   OH235227   1.299   5.465   0.071 -0.0247 -0.7732  0.1049
 4531TIP3    H135228   1.394   5.468   0.062  0.1175  0.2845  1.5776
 4531TIP3    H235229   1.267   5.475  -0.019  1.2476 -0.9604 -0.3963
 4532TIP3   OH235230   2.725   5.454   8.387 -0.1037 -0.4542  0.6707
 4532TIP3    H135231   2.690   5.443   8.475  2.6908 -0.8067  1.8312
 4532TIP3    H235232   2.757   5.368   8.362 -1.3090 -0.4920 -0.9936
 4533TIP3   OH235233   5.038   0.258   7.763  0.1922 -0.9173 -0.3506
 4533TIP3    H135234   5.015   0.201   7.690 -0.0231 -1.4547  0.1391
 4533TIP3    H235235   5.012   0.210   7.841  0.8357 -0.5391  0.1070
 4534TIP3   OH235236   5.523   6.033   8.784  0.4512  0.3827 -0.2524
 4534TIP3    H135237   5.498   6.035   8.692  0.4718  1.2697 -0.2397
 4534TIP3    H235238   5.614   6.064   8.786  0.9354 -0.9564 -0.0771
 4535TIP3   OH235239   5.588   1.948   0.448  0.1046  0.1630 -1.1113
 4535TIP3    H135240   5.610   2.007   0.377  1.6273 -1.6758 -2.2533
 4535TIP3    H235241   5.500   1.915   0.426 -0.8858  2.1141 -0.3049
 4536TIP3   OH235242   3.517   1.119   7.685  0.1013 -0.2092 -0.7512
 4536TIP3    H135243   3.433   1.158   7.662 -0.5487  0.0273  1.7218
 4536TIP3    H235244   3.544   1.164   7.765  1.5155 -1.7823 -0.2660
 4537TIP3   OH235245   6.354   2.850   1.283  0.3234  0.3653 -0.1991
 4537TIP3    H135246   6.424   2.785   1.285  0.9177  0.9977 -0.1545
 4537TIP3    H235247   6.379   2.909   1.212  0.7161  1.5436  0.8808
 4538TIP3   OH235248   5.584   6.267   7.601  0.0766 -0.0350 -0.5031
 4538TIP3    H135249   5.634   6.322   7.662  0.8325 -2.2253  0.9836
 4538TIP3    H235250   5.586   6.315   7.518  1.0054  1.9610  0.5945
 4539TIP3   OH235251   4.901   6.337   1.211  0.2502  0.3662  0.2115
 4539TIP3    H135252   4.846   6.272   1.255  0.2576  0.5007  0.4187
 4539TIP3    H235253   4.868   6.421   1.241  0.7453  0.4430  0.5498
 4540TIP3   OH235254   4.089   1.128   6.869 -0.6235 -0.7120  0.1539
 4540TIP3    H135255   4.160   1.085   6.822  0.5074  1.4082 -0.1946
 4540TIP3    H235256   4.133   1.192   6.926 -2.2097  1.0380 -0.4699
 4541TIP3   OH235257   2.831   2.659   2.474 -0.5166  0.2038 -0.1637
 4541TIP3    H135258   2.846   2.589   2.537  0.9379  1.4910  1.0197
 4541TIP3    H235259   2.763   2.713   2.513 -0.7950  0.1013 -0.5027
 4542TIP3   OH235260   1.768   6.246   2.716  0.1630 -0.3009  0.2773
 4542TIP3    H135261   1.727   6.314   2.769  1.2246 -0.3145  1.1584
 4542TIP3    H235262   1.859   6.246   2.745  1.0139  0.3120 -2.2057
 4543TIP3   OH235263   3.357   4.972   7.913  0.4771 -0.1079  0.1443
 4543TIP3    H135264   3.290   5.032   7.880  1.3739  0.6894 -0.2678
 4543TIP3    H235265   3.310   4.916   7.975 -0.2121  1.6623  1.3146
 4544TIP3   OH235266   2.043   2.335   8.647  0.3063  0.4575  0.9457
 4544TIP3    H135267   2.080   2.422   8.664 -0.5543  0.8108  1.0456
 4544TIP3    H235268   2.056   2.321   8.554 -0.4160  1.1147  0.7381
 4545TIP3   OH235269   6.372   2.174   2.836  0.0884  0.0380 -0.5429
 4545TIP3    H135270   6.447   2.233   2.843 -0.1732  0.1856  1.3616
 4545TIP3    H235271   6.406   2.100   2.784  0.9986  0.9149 -1.2497
 4546TIP3   OH235272   2.501   4.805   0.149 -0.0522 -0.7288 -0.0039
 4546TIP3    H135273   2.573   4.826   0.208  0.6810 -1.1929 -0.7196
 4546TIP3    H235274   2.496   4.709   0.150 -0.7038 -0.7037  0.0815
 4547TIP3   OH235275   4.386   0.688   2.407 -0.0099 -0.3329 -0.0832
 4547TIP3    H135276   4.463   0.744   2.399 -0.1570 -0.1567 -0.2575
 4547TIP3    H235277   4.373   0.680   2.502  1.3016 -1.8513  0.0140
 4548TIP3   OH235278   3.685   1.260   7.880 -0.0696 -0.2649 -0.3618
 4548TIP3    H135279   3.628   1.282   7.954 -0.8314 -0.9564 -0.7227
 4548TIP3    H235280   3.773   1.277   7.912 -0.2638 -1.9552  1.2512
 4549TIP3   OH235281   0.739   5.864   6.917  0.2069 -0.0239  0.3387
 4549TIP3    H135282   0.742   5.899   7.006 -0.7375 -0.7462  0.6784
 4549TIP3    H235283   0.646   5.843   6.904  0.8373 -3.7751  0.7475
 4550TIP3   OH235284   6.789   4.973   7.812 -0.0904 -0.3659 -0.9159
 4550TIP3    H135285   6.703   4.952   7.775 -0.6555 -1.0952  0.7141
 4550TIP3    H235286   6.808   5.061   7.780 -1.2239 -0.3788 -1.6897
 4551TIP3   OH235287   1.772   3.343   7.274 -0.3040  0.4731 -0.3456
 4551TIP3    H135288   1.752   3.285   7.200  0.6055  0.2825 -0.4485
 4551TIP3    H235289   1.865   3.328   7.292 -0.3836  0.9257  0.4843
 4552TIP3   OH235290   2.336   1.423   7.824  0.0898 -0.0251 -0.5347
 4552TIP3    H135291   2.352   1.352   7.886  1.3386 -0.6315 -1.4954
 4552TIP3    H235292   2.394   1.403   7.750 -0.4091  1.3651 -1.3312
 4553TIP3   OH235293   1.074   2.768   1.613 -0.0595  0.0764  0.1680
 4553TIP3    H135294   1.071   2.861   1.592 -2.4192  0.0754  0.2544
 4553TIP3    H235295   1.160   2.739   1.581  0.1040  1.9493 -1.2720
 4554TIP3   OH235296   5.877   6.424   8.470  0.1845 -0.5491 -0.0534
 4554TIP3    H135297   5.869   6.421   8.375 -0.2514  0.1177 -0.0444
 4554TIP3    H235298   5.814   6.359   8.502 -1.5581  0.9946 -0.1570
 4555TIP3   OH235299   2.430   4.204   2.022 -0.0620  0.3605 -0.0820
 4555TIP3    H135300   2.395   4.283   2.063  1.3888  0.9988  0.0024
 4555TIP3    H235301   2.450   4.231   1.932 -1.1033 -0.3932 -0.5557
 4556TIP3   OH235302   4.123   4.482   1.839  0.3709 -0.1265 -0.8061
 4556TIP3    H135303   4.053   4.538   1.804 -0.1872 -0.9589 -1.0514
 4556TIP3    H235304   4.095   4.393   1.818  0.7723 -0.5644  0.4223
 4557TIP3   OH235305   5.992   1.435   2.088 -0.3131 -0.7464  0.1418
 4557TIP3    H135306   5.991   1.433   2.184 -1.0253  0.9030  0.1911
 4557TIP3    H235307   5.972   1.525   2.065  1.9427 -0.5789 -1.5640
 4558TIP3   OH235308   2.996   6.165   1.580  0.3845 -0.1274  0.2316
 4558TIP3    H135309   2.927   6.211   1.533 -2.0960 -2.8229  0.9252
 4558TIP3    H235310   3.006   6.214   1.662  1.9083  2.2898 -1.2944
 4559TIP3   OH235311   5.064   6.413   7.111 -0.2031  0.1396  0.0479
 4559TIP3    H135312   5.058   6.479   7.041  0.6992 -0.6234 -0.7732
 4559TIP3    H235313   5.113   6.341   7.072 -2.4673 -1.6982  0.4215
 4560TIP3   OH235314   5.927   2.851   1.516  0.1024  0.0436 -0.0987
 4560TIP3    H135315   5.866   2.920   1.486 -2.5549 -1.4594  1.4146
 4560TIP3    H235316   5.943   2.798   1.439  0.3604  1.0502 -0.7621
 4561TIP3   OH235317   0.824   4.081   2.700  0.2678  0.2078 -0.1944
 4561TIP3    H135318   0.785   4.160   2.662  0.1078  0.6949  0.9634
 4561TIP3    H235319   0.752   4.038   2.746  1.1881  1.5209  2.6332
 4562TIP3   OH235320   0.341   2.358   7.395 -0.1016 -0.0458  0.2190
 4562TIP3    H135321   0.294   2.439   7.413 -0.2966  0.5577 -2.5169
 4562TIP3    H235322   0.419   2.386   7.346 -1.5305 -1.5567 -3.2247
 4563TIP3   OH235323   4.012   3.501   2.442  0.2723 -0.7590 -0.1727
 4563TIP3    H135324   4.083   3.437   2.445 -0.8849 -2.1087 -0.1123
 4563TIP3    H235325   3.974   3.490   2.355  0.9753  0.9495 -0.7397
 4564TIP3   OH235326   5.853   2.232   8.153 -0.2525 -0.4952 -0.0829
 4564TIP3    H135327   5.786   2.300   8.140  0.5448  0.5716  1.1042
 4564TIP3    H235328   5.812   2.168   8.210 -0.5123 -0.2335  0.0261
 4565TIP3   OH235329   2.447   3.312   8.651  0.0925 -0.3196 -0.1472
 4565TIP3    H135330   2.424   3.344   8.738 -0.9163  0.4300 -0.6662
 4565TIP3    H235331   2.484   3.388   8.607  0.7956 -0.7513 -0.3030
 4566TIP3   OH235332   0.717   3.276   7.820 -0.0942 -0.9245 -0.1822
 4566TIP3    H135333   0.678   3.363   7.821 -1.0088 -1.2086 -2.7388
 4566TIP3    H235334   0.786   3.281   7.754  0.8686 -1.7493  0.7354
 4567TIP3   OH235335   1.643   5.313   2.237 -0.8737  0.7050 -0.0081
 4567TIP3    H135336   1.567   5.348   2.284 -0.9296  0.7775 -0.1526
 4567TIP3    H235337   1.718   5.340   2.290 -1.0383 -0.9059  1.1106
 4568TIP3   OH235338   1.192   0.026   7.726  0.0159 -0.1416 -0.8196
 4568TIP3    H135339   1.259   0.066   7.671  0.8025  0.0247  0.2251
 4568TIP3    H235340   1.236   0.010   7.809 -1.3260  0.2454 -0.0027
 4569TIP3   OH235341   2.457   0.854   8.828 -0.1785 -0.0512  0.0702
 4569TIP3    H135342   2.498   0.767   8.832 -1.4198 -0.6570 -0.0567
 4569TIP3    H235343   2.402   0.859   8.905  1.8616  1.7144  1.5447
 4570TIP3   OH235344   3.712   3.986   8.277 -0.2525 -0.3816 -0.2913
 4570TIP3    H135345   3.782   3.956   8.219  1.4956  1.6977  0.6088
 4570TIP3    H235346   3.758   4.015   8.356 -2.1381  0.9615  0.3773
 4571TIP3   OH235347   3.318   1.274   1.387 -0.4468  0.5193 -0.2220
 4571TIP3    H135348   3.285   1.203   1.331  0.1613  0.4041 -0.4510
 4571TIP3    H235349   3.264   1.349   1.365 -0.9982  0.1656 -0.0911
 4572TIP3   OH235350   2.993   0.063   1.784  0.0846  0.1024  0.0059
 4572TIP3    H135351   3.051   0.131   1.818  1.6395 -0.9777 -0.3861
 4572TIP3    H235352   2.991  -0.004   1.852 -0.3872 -0.0577 -0.1586
 4573TIP3   OH235353   4.678   3.268   0.551 -0.1992  0.4534 -0.0979
 4573TIP3    H135354   4.601   3.318   0.579  0.8289  1.3318  1.3060
 4573TIP3    H235355   4.751   3.313   0.593  1.0199 -0.7570 -0.8743
 4574TIP3   OH235356   6.518   0.382   0.861 -0.5925  0.3797  0.0225
 4574TIP3    H135357   6.503   0.356   0.952 -2.1798  0.7112 -0.1173
 4574TIP3    H235358   6.552   0.303   0.819  0.4165  0.2953  0.9352
 4575TIP3   OH235359   5.380   5.881   2.318  0.3383  0.2291 -0.4460
 4575TIP3    H135360   5.410   5.943   2.385 -0.4740 -1.2090  1.3509
 4575TIP3    H235361   5.293   5.911   2.294 -0.3620 -0.5626  0.9718
 4576TIP3   OH235362   6.216   3.316   7.857  0.2084  0.2788  0.6387
 4576TIP3    H135363   6.306   3.285   7.858  0.7952  1.8625  0.3325
 4576TIP3    H235364   6.220   3.404   7.894 -0.8695  1.1672 -1.1643
 4577TIP3   OH235365   0.989   1.991   1.782 -0.5010  0.6278  0.1429
 4577TIP3    H135366   1.061   2.021   1.726 -0.6909 -1.6393 -1.4688
 4577TIP3    H235367   1.029   1.926   1.840 -1.0829 -0.0685 -0.2222
 4578TIP3   OH235368   2.673   1.646   0.496 -0.0728  0.1269 -0.1143
 4578TIP3    H135369   2.712   1.708   0.434 -1.9569  0.9632 -0.5242
 4578TIP3    H235370   2.717   1.563   0.478  1.3581  0.9639 -0.6623
 4579TIP3   OH235371   1.951   4.769   1.473  0.2829  0.6872 -0.1052
 4579TIP3    H135372   1.894   4.711   1.422  2.0615  0.9842 -2.6131
 4579TIP3    H235373   1.996   4.821   1.408  1.6610  2.1529  1.9049
 4580TIP3   OH235374   0.134   2.765   1.344 -0.0705 -0.4695 -0.0752
 4580TIP3    H135375   0.139   2.844   1.397  1.3963 -1.3249  1.1429
 4580TIP3    H235376   0.166   2.792   1.257 -1.8889  0.7878 -0.3856
 4581TIP3   OH235377   0.333   6.780   1.190 -0.4952 -0.0712 -0.2787
 4581TIP3    H135378   0.348   6.769   1.284  0.2675  0.5220 -0.3169
 4581TIP3    H235379   0.262   6.719   1.169 -0.8888  0.0178  0.7390
 4582TIP3   OH235380   6.128   0.485   0.469 -0.4999  0.1985  0.8132
 4582TIP3    H135381   6.149   0.399   0.507  2.1738  1.0366  1.4628
 4582TIP3    H235382   6.120   0.543   0.544 -1.5762  0.6968  0.3407
 4583TIP3   OH235383   0.938   2.517   0.658 -0.2557 -0.1377  0.2224
 4583TIP3    H135384   0.980   2.560   0.733 -0.6364 -0.3405  0.5563
 4583TIP3    H235385   0.934   2.424   0.682 -0.0548 -0.2591 -0.2037
 4584TIP3   OH235386   5.720   0.130   2.595  0.2690 -0.0527 -0.2218
 4584TIP3    H135387   5.663   0.193   2.551  0.0997 -0.4715 -0.6082
 4584TIP3    H235388   5.660   0.067   2.635  0.3545  1.0293  1.7526
 4585TIP3   OH235389   6.187   6.370   1.411 -0.0912 -0.2484  0.5243
 4585TIP3    H135390   6.132   6.302   1.450 -0.3025 -0.3937 -0.0171
 4585TIP3    H235391   6.190   6.348   1.318  1.2066 -0.4656  0.6034
 4586TIP3   OH235392   0.282   0.196   0.088  0.7655 -0.0825 -0.0120
 4586TIP3    H135393   0.188   0.184   0.102  1.3162 -2.1471  2.5914
 4586TIP3    H235394   0.302   0.140   0.013  0.2231 -1.1597  0.6252
 4587TIP3   OH235395   2.351   4.912   7.551  0.1533 -0.2778  0.2154
 4587TIP3    H135396   2.264   4.878   7.573 -0.6801 -1.2229 -3.7635
 4587TIP3    H235397   2.402   4.833   7.531  0.6308  0.4111 -1.4144
 4588TIP3   OH235398   2.132   6.516   0.606 -0.3349 -0.2480 -0.2746
 4588TIP3    H135399   2.090   6.466   0.536 -0.8212 -1.1817  0.6599
 4588TIP3    H235400   2.223   6.525   0.579 -0.2497 -1.5988 -0.4994
 4589TIP3   OH235401   4.987   3.511   1.032 -0.4099  0.5306 -0.4607
 4589TIP3    H135402   5.006   3.583   1.092  2.7666 -0.4629 -0.1177
 4589TIP3    H235403   5.043   3.528   0.956 -0.9557 -0.6535 -1.1571
 4590TIP3   OH235404   1.550   1.260   0.160  0.4989 -0.5050  0.5343
 4590TIP3    H135405   1.625   1.309   0.126 -0.9837  2.6168  1.3995
 4590TIP3    H235406   1.488   1.258   0.088  0.5297 -1.0513  0.5241
 4591TIP3   OH235407   4.406   0.309   0.794 -0.1671  0.0602  0.0319
 4591TIP3    H135408   4.317   0.343   0.806  0.5239  1.6637  0.9799
 4591TIP3    H235409   4.436   0.287   0.882 -0.4086 -2.7668 -0.4904
 4592TIP3   OH235410   4.496   2.733   2.927  0.3601  0.2410  0.3518
 4592TIP3    H135411   4.426   2.669   2.909  0.3869  0.3886 -0.2853
 4592TIP3    H235412   4.543   2.695   3.002  0.1459 -0.2990  0.2217
 4593TIP3   OH235413   3.684   3.625   7.519 -0.3616 -0.8130 -0.4545
 4593TIP3    H135414   3.767   3.579   7.533 -0.2836 -1.6811 -3.1312
 4593TIP3    H235415   3.660   3.604   7.428 -4.0120 -1.3712  0.4690
 4594TIP3   OH235416   1.561   0.947   1.905 -0.2553  0.3356 -0.0972
 4594TIP3    H135417   1.632   0.901   1.949 -1.2012 -1.2136 -0.1093
 4594TIP3    H235418   1.501   0.878   1.878 -1.0369  1.4759 -1.4150
 4595TIP3   OH235419   6.340   4.508   0.581  0.7555  0.3627  0.2305
 4595TIP3    H135420   6.339   4.413   0.591 -3.1693  0.4204  2.2659
 4595TIP3    H235421   6.396   4.539   0.653  1.0668 -0.3565  0.3044
 4596TIP3   OH235422   5.698   6.342   0.337  0.1619  0.5723 -0.4904
 4596TIP3    H135423   5.642   6.353   0.260 -0.7725 -0.3895  0.0286
 4596TIP3    H235424   5.673   6.258   0.373  1.8278  0.1971 -0.1129
 4597TIP3   OH235425   1.637   0.730   2.934 -0.0997 -0.1378  0.1244
 4597TIP3    H135426   1.554   0.690   2.909 -0.8687 -0.2969  2.6920
 4597TIP3    H235427   1.634   0.734   3.029  4.1075 -3.0969  0.6682
 4598TIP3   OH235428   4.908   1.114   0.400 -0.3289 -0.2773 -0.2206
 4598TIP3    H135429   4.926   1.158   0.317 -0.5882  0.5132  0.1392
 4598TIP3    H235430   4.862   1.034   0.375 -0.0371 -0.2531 -0.8643
 4599TIP3   OH235431   4.582   6.686   7.844 -0.1214 -0.5048 -0.3007
 4599TIP3    H135432   4.659   6.637   7.874 -0.7865 -0.6249  1.3213
 4599TIP3    H235433   4.611   6.778   7.847 -0.0886 -0.5303  0.5228
 4600TIP3   OH235434   3.169   6.500   2.357  0.0317  0.2757 -0.3206
 4600TIP3    H135435   3.241   6.528   2.412  1.1001 -1.9852 -0.4539
 4600TIP3    H235436   3.184   6.543   2.273  0.4475  0.8711  0.0539
 4601TIP3   OH235437   6.001   5.323   7.324 -0.2090 -0.0849 -0.0188
 4601TIP3    H135438   6.075   5.274   7.287  0.1292 -0.2938  0.8999
 4601TIP3    H235439   5.935   5.257   7.343 -0.8418  0.1609 -1.2905
 4602TIP3   OH235440   0.461   3.442   0.063 -0.0737 -0.0615  0.0829
 4602TIP3    H135441   0.420   3.356   0.064 -0.3424  0.0641  0.1914
 4602TIP3    H235442   0.423   3.487   0.139 -0.3330  0.3332 -0.2740
 4603TIP3   OH235443   1.114   4.358   1.456 -0.0349  0.5060 -0.0987
 4603TIP3    H135444   1.091   4.439   1.412 -0.3541 -0.5140 -1.9081
 4603TIP3    H235445   1.170   4.311   1.394 -1.2050 -1.3773  0.1796
 4604TIP3   OH235446   0.926   4.288   1.120 -0.1076 -0.3992  0.6726
 4604TIP3    H135447   0.858   4.261   1.058 -1.0794  0.9830  1.1106
 4604TIP3    H235448   0.885   4.354   1.175  1.4069  0.0107  1.3702
 4605TIP3   OH235449   4.207   5.534   1.105 -0.1217  0.0654  0.3389
 4605TIP3    H135450   4.197   5.587   1.185 -3.2250 -0.8414  0.6750
 4605TIP3    H235451   4.238   5.449   1.136  0.0070  0.1437  0.4227
 4606TIP3   OH235452   5.281   0.701   6.748 -0.2837  0.0554 -0.1345
 4606TIP3    H135453   5.360   0.709   6.802 -0.0083 -1.1118 -0.3438
 4606TIP3    H235454   5.249   0.791   6.740  1.0396  0.5615 -0.0662
 4607TIP3   OH235455   1.541   6.593   8.078 -0.0278 -0.2399 -0.2860
 4607TIP3    H135456   1.462   6.566   8.032 -1.4217 -1.0118  2.3779
 4607TIP3    H235457   1.596   6.514   8.077  1.4366  0.6499 -3.2596
 4608TIP3   OH235458   4.862   3.018   8.578 -0.7842  0.3843 -0.2874
 4608TIP3    H135459   4.836   2.933   8.541 -1.7346  0.7863 -0.5753
 4608TIP3    H235460   4.892   2.997   8.667 -0.7110 -0.2880 -0.4595
 4609TIP3   OH235461   4.250   1.948   8.269 -0.0581 -0.3391  0.0400
 4609TIP3    H135462   4.211   2.013   8.211  1.5155 -0.8357 -1.6628
 4609TIP3    H235463   4.269   1.996   8.350  1.7709  1.5999 -1.4151
 4610TIP3   OH235464   6.040   4.585   8.115 -0.7984  0.2842  0.0199
 4610TIP3    H135465   6.077   4.589   8.203  1.0332 -1.6225 -0.5685
 4610TIP3    H235466   5.976   4.514   8.118 -0.0645 -0.4089 -0.3793
 4611TIP3   OH235467   1.537   4.588   0.424 -0.2109 -0.2358 -0.1699
 4611TIP3    H135468   1.579   4.529   0.361 -1.5666 -0.5053 -0.8647
 4611TIP3    H235469   1.594   4.586   0.501  1.0465 -0.5430 -1.0822
 4612TIP3   OH235470   3.198   0.197   0.833  0.4600 -0.1132  1.2164
 4612TIP3    H135471   3.129   0.257   0.806  0.3627 -0.5104  0.5445
 4612TIP3    H235472   3.253   0.247   0.893  0.5872  0.7581  0.3877
 4613TIP3   OH235473   3.982   5.601   7.411  0.1293  0.4018  0.1255
 4613TIP3    H135474   3.891   5.582   7.434 -0.4654  0.3623 -2.1068
 4613TIP3    H235475   3.993   5.695   7.429 -0.8922  0.7968 -1.2164
 4614TIP3   OH235476   1.702   6.761   2.985 -0.2757  0.4806  0.1853
 4614TIP3    H135477   1.751   6.841   3.004  0.3832  0.1318 -0.0112
 4614TIP3    H235478   1.769   6.699   2.954 -0.8594  0.0343 -0.1973
 4615TIP3   OH235479   1.726   1.498   0.589 -0.5018  0.1499  0.3534
 4615TIP3    H135480   1.784   1.543   0.528  0.4575 -0.8279  0.5059
 4615TIP3    H235481   1.740   1.542   0.673  0.6144 -0.5556  0.5573
 4616TIP3   OH235482   0.551   1.561   2.041  0.0371 -0.5104  0.2928
 4616TIP3    H135483   0.538   1.622   2.114  1.8017 -1.7201  1.7184
 4616TIP3    H235484   0.491   1.488   2.060 -1.7327  0.4786 -1.1632
 4617TIP3   OH235485   2.214   1.220   7.271 -0.6043 -0.1479  0.0427
 4617TIP3    H135486   2.132   1.173   7.255  0.4961 -2.2147  0.0302
 4617TIP3    H235487   2.188   1.311   7.282 -3.1880 -0.9845  2.1796
 4618TIP3   OH235488   0.992   4.877   8.853  0.4614  0.3886  0.3271
 4618TIP3    H135489   1.068   4.925   8.820 -0.8896  1.1607 -1.8704
 4618TIP3    H235490   1.008   4.786   8.828  0.4834  0.6175 -0.5112
 4619TIP3   OH235491   2.394   0.008   7.515 -0.6190  0.0828  0.1010
 4619TIP3    H135492   2.416   0.012   7.608 -0.8368  1.6446  0.1170
 4619TIP3    H235493   2.470  -0.034   7.474 -0.4500 -0.4664  0.9486
 4620TIP3   OH235494   0.530   4.952   6.802 -0.2736 -0.6494  0.1579
 4620TIP3    H135495   0.453   4.980   6.753 -0.3865 -0.7357  0.2855
 4620TIP3    H235496   0.499   4.880   6.857 -0.1186 -0.6396  0.2602
 4621TIP3   OH235497   5.615   1.759   0.671  0.3878 -0.5874  0.3543
 4621TIP3    H135498   5.618   1.836   0.614  0.3308 -0.5521  0.3989
 4621TIP3    H235499   5.534   1.769   0.721 -0.2958 -1.3074 -0.5523
 4622TIP3   OH235500   2.154   1.229   0.044 -0.3870 -0.2818  0.4536
 4622TIP3    H135501   2.239   1.187   0.058  0.5478  1.5903  0.7549
 4622TIP3    H235502   2.174   1.308  -0.006 -1.8604  0.5279  1.0789
 4623TIP3   OH235503   2.896   2.166   1.723 -0.4364  0.0055  0.1302
 4623TIP3    H135504   2.911   2.142   1.632 -0.6395  0.2504  0.0324
 4623TIP3    H235505   2.937   2.096   1.773 -0.3017 -0.1163 -0.1489
 4624TIP3   OH235506   0.932   0.117   7.144 -0.4062 -0.1878 -0.8076
 4624TIP3    H135507   0.871   0.167   7.198  0.9002  1.5703 -0.8783
 4624TIP3    H235508   0.985   0.068   7.207  1.4545  2.2453 -0.3073
 4625TIP3   OH235509   3.075   0.053   8.608 -0.1396 -0.3001 -0.0078
 4625TIP3    H135510   3.070   0.120   8.540 -0.9337 -0.5095 -0.1683
 4625TIP3    H235511   3.151   0.078   8.660  0.2254  0.1087 -0.7093
 4626TIP3   OH235512   0.907   3.728   7.931 -0.0478  0.5929  0.1095
 4626TIP3    H135513   0.858   3.666   7.876  0.0149 -1.1303  1.8555
 4626TIP3    H235514   0.847   3.748   8.002  0.4205  1.5428  0.2419
 4627TIP3   OH235515   2.100   3.290   1.891 -0.1994 -0.8077  0.1249
 4627TIP3    H135516   2.041   3.215   1.894 -0.4646 -0.5822  0.7455
 4627TIP3    H235517   2.159   3.271   1.818  0.8558 -2.4600  1.3239
 4628TIP3   OH235518   1.018   5.940   2.054  0.4542  0.3455 -0.1491
 4628TIP3    H135519   0.944   5.956   2.113  0.2325 -0.0193 -0.3248
 4628TIP3    H235520   1.066   6.023   2.053  0.9292  0.1094  1.1944
 4629TIP3   OH235521   3.646   1.173   7.129 -0.3444  0.1422  0.1389
 4629TIP3    H135522   3.588   1.246   7.109  0.1061  0.8659  1.3846
 4629TIP3    H235523   3.700   1.164   7.050  1.3240  2.8565  0.8336
 4630TIP3   OH235524   6.793   0.660   1.922 -0.2385  0.4517  0.1485
 4630TIP3    H135525   6.851   0.617   1.858 -0.4984  1.2246 -0.6152
 4630TIP3    H235526   6.835   0.744   1.939  0.0680  0.0713  1.3606
 4631TIP3   OH235527   2.954   1.810   8.762 -0.3815 -0.0376  0.3414
 4631TIP3    H135528   2.875   1.760   8.781 -0.0402 -0.8886 -0.3704
 4631TIP3    H235529   3.024   1.744   8.758 -0.0442  0.3624 -1.3515
 4632TIP3   OH235530   1.938   0.222   2.085  0.2128  0.2303  0.1131
 4632TIP3    H135531   1.994   0.164   2.033  1.6868  0.1240  1.7379
 4632TIP3    H235532   1.999   0.280   2.131 -1.1244  1.4789  0.3749
 4633TIP3   OH235533   2.391   2.050   0.630 -0.1332 -0.0202 -0.1196
 4633TIP3    H135534   2.467   1.993   0.618  1.2518  1.1328  2.3620
 4633TIP3    H235535   2.428   2.139   0.631 -2.0727  0.9649 -2.7144
 4634TIP3   OH235536   5.084   1.395   2.507  0.0167  0.3302  0.2461
 4634TIP3    H135537   5.070   1.452   2.582 -2.1205 -1.4234  1.3132
 4634TIP3    H235538   5.071   1.451   2.430 -0.0799  1.6577  1.2007
 4635TIP3   OH235539   5.675   0.224   8.098 -0.0427 -0.4210  0.1879
 4635TIP3    H135540   5.690   0.316   8.077 -0.8475 -0.3788 -0.2787
 4635TIP3    H235541   5.699   0.177   8.018 -1.0055 -0.4641 -0.1009
 4636TIP3   OH235542   3.344   5.818   2.384  0.5352  0.2610  0.2407
 4636TIP3    H135543   3.394   5.740   2.359  0.0680 -0.7318  2.1750
 4636TIP3    H235544   3.254   5.798   2.357  0.5776  0.5766 -0.1490
 4637TIP3   OH235545   4.928   6.732   8.606 -0.8927  0.5244  0.0255
 4637TIP3    H135546   4.974   6.753   8.687  0.2861 -0.9363 -0.2223
 4637TIP3    H235547   4.951   6.641   8.588 -2.2757  0.3756 -1.2055
 4638TIP3   OH235548   1.146   0.183   8.271  0.0032 -0.0968  0.5719
 4638TIP3    H135549   1.186   0.124   8.334  0.5786  0.3541  0.6349
 4638TIP3    H235550   1.052   0.183   8.293 -0.2512 -2.1074 -0.3510
 4639TIP3   OH235551   1.336   2.556   0.137 -0.2276 -0.0616  0.3980
 4639TIP3    H135552   1.346   2.463   0.117  0.2381 -0.2544  1.4646
 4639TIP3    H235553   1.258   2.561   0.192 -0.3104  0.1936  0.2590
 4640TIP3   OH235554   2.228   0.748   0.408  0.3576 -0.3023  0.2050
 4640TIP3    H135555   2.157   0.708   0.358  0.8070  1.1610 -1.7638
 4640TIP3    H235556   2.184   0.797   0.477 -0.2872 -2.4191  1.3832
 4641TIP3   OH235557   3.113   6.180   0.505 -0.2195  0.5057 -0.0569
 4641TIP3    H135558   3.146   6.156   0.591  2.1155 -1.8089 -1.4676
 4641TIP3    H235559   3.182   6.234   0.466 -1.2008  1.4560 -0.5522
 4642TIP3   OH235560   1.922   1.919   8.837 -0.0729 -0.2730 -0.5627
 4642TIP3    H135561   1.839   1.947   8.798  0.1070  0.1496 -0.6420
 4642TIP3    H235562   1.948   1.843   8.784 -0.8750 -0.9893  0.0523
 4643TIP3   OH235563   3.483   2.862   0.864  0.4288  0.2713 -0.0724
 4643TIP3    H135564   3.475   2.768   0.879  0.6532  0.2094 -0.3266
 4643TIP3    H235565   3.477   2.901   0.952 -1.3142  0.1580 -0.1174
 4644TIP3   OH235566   3.065   1.128   1.589 -0.2414  0.5375  0.0424
 4644TIP3    H135567   3.118   1.207   1.580 -0.7644  1.0484  1.2820
 4644TIP3    H235568   2.976   1.159   1.605 -1.0069 -0.3186 -2.2539
 4645TIP3   OH235569   6.346   3.817   8.709  0.1936  0.1241 -0.0757
 4645TIP3    H135570   6.383   3.732   8.684  0.3759  0.4821 -1.0857
 4645TIP3    H235571   6.422   3.874   8.720  0.0109  0.6462 -1.3347
 4646TIP3   OH235572   5.345   6.294   1.680  0.6883 -0.1084 -0.2897
 4646TIP3    H135573   5.388   6.377   1.696  1.3207 -0.5408  0.3108
 4646TIP3    H235574   5.363   6.242   1.758  0.0686 -0.7091 -0.5385
 4647TIP3   OH235575   2.206   6.161   8.136 -0.3837 -0.2921  0.3017
 4647TIP3    H135576   2.122   6.207   8.146  0.0999  0.4794  0.9087
 4647TIP3    H235577   2.191   6.102   8.063 -0.7570  1.4707 -1.1372
 4648TIP3   OH235578   6.561   0.638   2.408 -0.3518 -0.2445  0.5248
 4648TIP3    H135579   6.619   0.657   2.334 -0.3918 -0.6055  0.3972
 4648TIP3    H235580   6.616   0.590   2.470 -0.1453  0.5967  1.0163
 4649TIP3   OH235581   6.326   6.817   2.639 -0.1919  0.3657  0.2753
 4649TIP3    H135582   6.327   6.722   2.634 -2.2062  0.3368 -0.8208
 4649TIP3    H235583   6.368   6.846   2.558  0.7485  0.4256  0.7779
 4650TIP3   OH235584   6.595   2.594   1.592 -0.4506 -0.1603  0.5250
 4650TIP3    H135585   6.584   2.503   1.567  0.8817 -0.1840 -0.0227
 4650TIP3    H235586   6.508   2.633   1.580 -0.4259 -0.7194 -1.8360
 4651TIP3   OH235587   5.909   5.752   2.617  0.3044  0.0237  0.1701
 4651TIP3    H135588   5.989   5.804   2.618  0.1970  0.2044  1.7405
 4651TIP3    H235589   5.839   5.815   2.628  0.1339 -0.3567  1.4227
 4652TIP3   OH235590   3.035   0.906   7.711 -0.2737  0.1891  0.1610
 4652TIP3    H135591   2.963   0.970   7.713 -0.2510  0.5036 -2.9549
 4652TIP3    H235592   3.097   0.943   7.648  0.4395 -2.2255 -0.6621
 4653TIP3   OH235593   2.899   0.955   0.592  0.2612 -0.0435 -0.3472
 4653TIP3    H135594   2.804   0.953   0.587  0.3072 -1.3999 -1.4668
 4653TIP3    H235595   2.925   1.033   0.543 -0.2691  0.3305 -0.0343
 4654TIP3   OH235596   2.248   0.780   1.649  0.1733 -0.1521  0.1639
 4654TIP3    H135597   2.299   0.708   1.612  0.5365 -0.3765  1.0938
 4654TIP3    H235598   2.298   0.858   1.626 -0.2967 -0.1565 -0.9740
 4655TIP3   OH235599   4.268   1.463   2.229  0.0579  0.3375  0.1692
 4655TIP3    H135600   4.333   1.509   2.177  0.6642  0.7869  1.2915
 4655TIP3    H235601   4.275   1.372   2.203  0.1899  0.5873 -0.6844
 4656TIP3   OH235602   5.560   0.021   1.245  0.5775  0.0188 -0.4637
 4656TIP3    H135603   5.483   0.012   1.301  0.8853 -1.2508 -0.2054
 4656TIP3    H235604   5.525   0.044   1.159 -0.0547  0.0071 -0.2112
 4657TIP3   OH235605   4.067   5.231   1.174 -0.0566 -0.2378  0.2815
 4657TIP3    H135606   4.013   5.155   1.153  0.8575 -0.4217 -1.6817
 4657TIP3    H235607   4.006   5.296   1.207 -1.1676 -1.1124  0.0048
 4658TIP3   OH235608   1.345   0.565   7.803  0.4989  0.0971 -0.3630
 4658TIP3    H135609   1.327   0.644   7.752  2.8268  1.0197  0.0695
 4658TIP3    H235610   1.355   0.597   7.893 -0.2154 -0.9824  0.1261
 4659TIP3   OH235611   3.761   0.711   8.076 -0.1060  0.0186 -0.0105
 4659TIP3    H135612   3.850   0.690   8.048 -0.2003  0.3542 -0.5741
 4659TIP3    H235613   3.746   0.800   8.044 -0.5636  0.0509  0.2817
 4660TIP3   OH235614   4.007   0.082   0.318 -0.3587  0.0809  0.2389
 4660TIP3    H135615   3.992   0.121   0.232  0.5824 -1.7302 -0.7979
 4660TIP3    H235616   4.033  -0.008   0.300 -2.2374 -1.0459  2.5047
 4661TIP3   OH235617   2.653   2.771   1.533  0.6905  0.1614  0.2001
 4661TIP3    H135618   2.571   2.764   1.582  0.7007 -0.6554  0.1079
 4661TIP3    H235619   2.630   2.746   1.444  1.2940 -1.3510  0.4423
 4662TIP3   OH235620   0.164   1.920   0.113  0.2804 -0.0031  0.4445
 4662TIP3    H135621   0.174   2.012   0.092  0.8748 -0.0169  0.6429
 4662TIP3    H235622   0.072   1.901   0.096 -0.2794  1.0457  2.0038
 4663TIP3   OH235623   1.716   0.048   8.346  0.1098  0.1608 -0.7481
 4663TIP3    H135624   1.652   0.002   8.293 -1.2489 -1.1624  1.8357
 4663TIP3    H235625   1.670   0.126   8.378  0.0071 -0.4066  0.5316
 4664TIP3   OH235626   6.156   1.937   7.618  0.3312  0.2855 -0.5332
 4664TIP3    H135627   6.182   1.950   7.527  0.2682 -3.3731 -1.2538
 4664TIP3    H235628   6.082   1.996   7.632  0.1977  0.7665 -2.9476
 4665TIP3   OH235629   5.484   0.906   7.305  0.1607 -0.0788 -0.3892
 4665TIP3    H135630   5.484   0.811   7.313  0.4653 -0.1412 -1.0362
 4665TIP3    H235631   5.394   0.932   7.324  0.2267 -0.4346  0.4264
 4666TIP3   OH235632   2.269   5.834   2.533 -0.5974  0.4498  0.7007
 4666TIP3    H135633   2.277   5.755   2.479 -4.3822 -0.1140  0.6855
 4666TIP3    H235634   2.239   5.802   2.618  0.1473  1.7356  1.4727
 4667TIP3   OH235635   0.581   2.535   2.749 -0.3284  0.0514 -0.7426
 4667TIP3    H135636   0.576   2.445   2.717  0.3702 -0.0694 -0.5166
 4667TIP3    H235637   0.671   2.546   2.778 -0.0663  1.1865 -1.8507
 4668TIP3   OH235638   2.453   3.101   3.004  0.4186 -0.5501  0.1775
 4668TIP3    H135639   2.541   3.078   2.976 -0.2929 -0.0449 -2.8056
 4668TIP3    H235640   2.438   3.189   2.970 -1.0166 -0.3470  1.2232
 4669TIP3   OH235641   6.123   0.588   0.000 -0.2348  0.3269 -0.8880
 4669TIP3    H135642   6.147   0.522   0.065  0.2724  0.8912 -0.4881
 4669TIP3    H235643   6.179   0.663   0.020 -1.0842  1.0280 -1.0669
 4670TIP3   OH235644   4.750   0.730   7.948 -0.1841  0.7098 -0.5350
 4670TIP3    H135645   4.669   0.731   8.000  0.0976 -2.8607  0.2498
 4670TIP3    H235646   4.723   0.699   7.862  0.3573 -1.2072 -0.0590
 4671TIP3   OH235647   1.981   4.546   0.009 -0.3379  0.4506  0.2613
 4671TIP3    H135648   1.888   4.526   0.000 -0.1402 -0.4365  0.0934
 4671TIP3    H235649   2.022   4.499  -0.064  0.3476  0.0075  0.9213
 4672TIP3   OH235650   0.695   1.972   8.746  0.4320  0.2384  0.2008
 4672TIP3    H135651   0.740   1.964   8.662 -0.3731 -1.0950 -0.1323
 4672TIP3    H235652   0.671   2.064   8.752 -0.4340  0.1670 -1.5469
 4673TIP3   OH235653   3.694   4.375   0.348 -0.1084  0.4882  0.0206
 4673TIP3    H135654   3.608   4.400   0.315 -0.3007  1.3911  1.1523
 4673TIP3    H235655   3.756   4.427   0.297  0.0153 -1.8903 -2.5047
 4674TIP3   OH235656   6.520   1.459   0.334 -0.0609 -0.3600  0.7272
 4674TIP3    H135657   6.578   1.534   0.342  0.4211 -0.8013  1.4260
 4674TIP3    H235658   6.542   1.419   0.250 -1.5187  1.2611 -0.4993
 4675TIP3   OH235659   6.260   4.111   1.708 -0.4170  0.2880 -0.2249
 4675TIP3    H135660   6.260   4.062   1.791  0.6409  0.6418  0.0029
 4675TIP3    H235661   6.322   4.182   1.723  2.4680 -1.5737 -2.4362
 4676TIP3   OH235662   5.596   6.483   1.280  0.2659  0.1663  0.4277
 4676TIP3    H135663   5.621   6.432   1.357 -0.3344 -1.7883 -0.6118
 4676TIP3    H235664   5.506   6.511   1.297 -1.1103 -3.0189 -0.7890
 4677TIP3   OH235665   1.198   4.054   1.524 -0.2761  0.0034  0.0311
 4677TIP3    H135666   1.247   4.127   1.562 -1.9238  1.4465 -0.4511
 4677TIP3    H235667   1.193   3.989   1.593  1.6945  0.0953  0.3005
 4678TIP3   OH235668   0.162   3.506   1.290  0.0280 -0.4626 -0.3896
 4678TIP3    H135669   0.247   3.511   1.248  0.2872 -0.3820  0.1345
 4678TIP3    H235670   0.181   3.512   1.384 -0.5436 -0.5393 -0.2635
 4679TIP3   OH235671   2.061   6.089   7.811  0.2517 -0.1793  0.2285
 4679TIP3    H135672   2.090   6.113   7.723 -2.2001  0.8811 -0.3694
 4679TIP3    H235673   2.098   6.001   7.825  1.3298 -0.0561 -1.5131
 4680TIP3   OH235674   4.963   3.719   6.575  0.0098 -0.0366  0.1781
 4680TIP3    H135675   4.878   3.715   6.617  0.3315  1.7628  1.0944
 4680TIP3    H235676   5.005   3.796   6.612  1.2874  0.2221 -1.6540
 4681TIP3   OH235677   5.921   1.140   1.771  0.1512  0.3316 -0.1929
 4681TIP3    H135678   5.976   1.184   1.707 -0.4786  1.4846  0.0282
 4681TIP3    H235679   5.832   1.152   1.739 -0.2228  1.3796  1.1318
 4682TIP3   OH235680   5.079   4.935   7.842  0.7177  0.5149  0.1555
 4682TIP3    H135681   5.124   4.902   7.765 -1.0304  3.6602 -2.5048
 4682TIP3    H235682   5.000   4.882   7.848  0.9785  0.0960 -0.0922
 4683TIP3   OH235683   1.743   3.753   1.077 -0.3093 -0.6612  0.4558
 4683TIP3    H135684   1.656   3.787   1.098 -0.7651 -0.5552 -1.4370
 4683TIP3    H235685   1.727   3.684   1.013  0.9342 -1.4360  0.9517
 4684TIP3   OH235686   4.645   3.138   2.103  0.0500  0.4207 -0.2409
 4684TIP3    H135687   4.627   3.144   2.197 -1.6637  1.4755 -0.5965
 4684TIP3    H235688   4.604   3.055   2.077  0.0392  0.4003 -0.1597
 4685TIP3   OH235689   5.670   0.453   7.448  0.5494 -0.0923  0.0723
 4685TIP3    H135690   5.720   0.417   7.375  0.8001  0.0528  0.1706
 4685TIP3    H235691   5.720   0.429   7.526 -0.3015 -1.2191  0.2852
 4686TIP3   OH235692   2.254   6.201   1.792 -0.9212  0.1148  0.8014
 4686TIP3    H135693   2.285   6.235   1.875  1.2991 -0.1446  0.1378
 4686TIP3    H235694   2.268   6.106   1.798 -2.2382 -0.1163  0.6902
 4687TIP3   OH235695   3.191   5.185   8.254  0.3745  0.1535  0.6470
 4687TIP3    H135696   3.237   5.217   8.176 -0.2691 -0.2806  0.0708
 4687TIP3    H235697   3.170   5.264   8.304 -0.2528  0.5658 -0.2219
 4688TIP3   OH235698   3.228   5.496   1.555  0.7376  1.0970  0.0639
 4688TIP3    H135699   3.305   5.441   1.561  0.9765  1.1974 -1.6026
 4688TIP3    H235700   3.225   5.544   1.638  1.7738  0.2127  0.6213
 4689TIP3   OH235701   1.448   1.643   8.311 -0.4537  0.0980  0.0500
 4689TIP3    H135702   1.403   1.560   8.291 -1.7140  0.3521  1.6667
 4689TIP3    H235703   1.533   1.634   8.267 -0.8618 -1.7167 -0.4901
 4690TIP3   OH235704   4.280   5.491   8.527  0.1635  0.0055  0.6061
 4690TIP3    H135705   4.207   5.534   8.481 -1.0377 -1.5679  0.9596
 4690TIP3    H235706   4.343   5.471   8.458  0.0968  1.0402  0.2318
 4691TIP3   OH235707   2.374   3.480   0.042 -0.2263 -0.0345 -0.5012
 4691TIP3    H135708   2.367   3.538  -0.034  0.9227  0.9763  0.1265
 4691TIP3    H235709   2.414   3.534   0.110 -1.1345 -0.9389  0.8080
 4692TIP3   OH235710   4.750   4.800   8.156 -0.0396  0.2454 -0.4636
 4692TIP3    H135711   4.681   4.747   8.196  0.4346  0.1949  0.2974
 4692TIP3    H235712   4.725   4.890   8.177  1.3621  0.1548  1.9366
 4693TIP3   OH235713   1.461   1.664   0.713 -0.3438  0.6784 -0.2540
 4693TIP3    H135714   1.539   1.608   0.716 -0.0453  1.0621 -0.6975
 4693TIP3    H235715   1.478   1.725   0.641 -1.0241  0.8155 -0.3083
 4694TIP3   OH235716   1.010   1.048   0.746 -0.9740  0.7114  0.7223
 4694TIP3    H135717   1.061   0.989   0.801  0.3951  0.3038 -0.9197
 4694TIP3    H235718   0.927   1.002   0.732 -0.3008 -0.4170  0.2661
 4695TIP3   OH235719   1.317   1.864   8.256  0.3704 -0.1602 -0.1266
 4695TIP3    H135720   1.300   1.877   8.163 -1.1005  0.2016  0.1603
 4695TIP3    H235721   1.361   1.779   8.261  0.1546 -0.3406 -1.1239
 4696TIP3   OH235722   4.817   3.014   8.297 -0.1598 -0.3536 -0.1739
 4696TIP3    H135723   4.855   3.084   8.351  0.3271 -0.9316  0.2498
 4696TIP3    H235724   4.870   2.937   8.318 -0.2578 -0.6912 -1.1472
 4697TIP3   OH235725   0.493   6.532   0.403  0.0377 -0.3928 -0.0206
 4697TIP3    H135726   0.422   6.502   0.347 -0.4005  1.3493 -0.4771
 4697TIP3    H235727   0.573   6.511   0.355 -0.3188  0.7320 -1.1458
 4698TIP3   OH235728   2.973   1.881   2.236 -0.0992  0.2369 -0.0093
 4698TIP3    H135729   2.957   1.966   2.193 -1.0909 -1.4709 -3.4222
 4698TIP3    H235730   2.886   1.851   2.262 -0.1974 -0.8973 -1.4816
 4699TIP3   OH235731   0.614   4.905   8.671 -0.0524 -0.4690  0.6259
 4699TIP3    H135732   0.660   4.821   8.675 -0.2187 -0.5138  2.5405
 4699TIP3    H235733   0.558   4.905   8.749 -0.7810  1.0073  0.1281
 4700TIP3   OH235734   3.409   3.622   8.172  0.0600 -0.2759  0.1784
 4700TIP3    H135735   3.435   3.714   8.171  1.3639 -0.6327  0.0744
 4700TIP3    H235736   3.344   3.616   8.241 -0.5710  0.8598 -0.2954
 4701TIP3   OH235737   0.100   5.323   8.454 -0.0582  0.3255 -0.3060
 4701TIP3    H135738   0.172   5.332   8.392 -1.0112  2.4046 -1.2074
 4701TIP3    H235739   0.041   5.396   8.434 -1.9073 -0.6829  1.0904
 4702TIP3   OH235740   2.273   5.124   7.378  0.3472  0.1365  0.3970
 4702TIP3    H135741   2.354   5.172   7.366  1.1507 -1.4008 -0.6260
 4702TIP3    H235742   2.296   5.051   7.436  0.3541 -1.7154 -1.7953
 4703TIP3   OH235743   2.870   5.865   6.842 -0.2585 -0.0087  0.1951
 4703TIP3    H135744   2.778   5.871   6.869  0.0183 -0.1391  1.2282
 4703TIP3    H235745   2.911   5.941   6.882 -0.0029  0.3148 -0.6710
 4704TIP3   OH235746   3.927   3.167   0.143  0.0385 -0.1148 -0.3984
 4704TIP3    H135747   3.973   3.108   0.083  0.6474  1.1886 -1.2476
 4704TIP3    H235748   3.841   3.126   0.155  0.3659 -1.0637 -1.1347
 4705TIP3   OH235749   6.251   2.830   8.825 -0.1869  0.3118 -0.1477
 4705TIP3    H135750   6.194   2.754   8.825  0.7676 -0.4202  0.4478
 4705TIP3    H235751   6.340   2.794   8.831  0.3987  1.3920 -1.7135
 4706TIP3   OH235752   1.021   4.285   8.245  0.1594  0.1182 -0.5321
 4706TIP3    H135753   1.035   4.327   8.160 -0.6911  0.2409 -0.6213
 4706TIP3    H235754   1.052   4.196   8.233  0.2757  0.2046 -0.8933
 4707TIP3   OH235755   1.486   6.114   8.287 -0.1702  0.0904 -0.0426
 4707TIP3    H135756   1.409   6.125   8.231 -0.0798  0.3611 -0.1194
 4707TIP3    H235757   1.467   6.167   8.364  0.4953  1.2783 -0.6481
 4708TIP3   OH235758   2.297   2.186   1.738 -0.7148  0.0132  0.0201
 4708TIP3    H135759   2.293   2.255   1.671 -0.1256 -0.7812 -0.8607
 4708TIP3    H235760   2.368   2.214   1.796  1.2036 -1.0003 -1.7127
 4709TIP3   OH235761   2.486   1.768   2.692 -0.3013  0.4913 -0.1143
 4709TIP3    H135762   2.519   1.765   2.783  0.3718  1.1296 -0.3293
 4709TIP3    H235763   2.394   1.743   2.699  0.1716 -1.1914  0.5331
 4710TIP3   OH235764   4.441   4.234   8.053 -0.4326 -0.3754 -0.1450
 4710TIP3    H135765   4.370   4.179   8.086  1.0071 -1.9193  0.5291
 4710TIP3    H235766   4.463   4.196   7.968 -1.1266  0.7825 -0.8568
 4711TIP3   OH235767   1.901   4.517   8.578  0.1519 -0.0533 -0.6538
 4711TIP3    H135768   1.846   4.445   8.546 -1.2822  0.8957 -0.4305
 4711TIP3    H235769   1.990   4.491   8.557 -0.3014 -2.0297 -0.3295
 4712TIP3   OH235770   6.373   2.215   1.369 -0.5151  0.3663 -0.5926
 4712TIP3    H135771   6.364   2.173   1.283 -2.8937  1.1963 -0.8231
 4712TIP3    H235772   6.359   2.308   1.351 -0.7260  0.5864  0.6540
 4713TIP3   OH235773   4.805   4.108   0.956 -0.2465 -0.3888  0.3904
 4713TIP3    H135774   4.775   4.148   1.038  0.0684  0.7394 -0.0290
 4713TIP3    H235775   4.746   4.144   0.890 -0.3260 -1.0820  0.0821
 4714TIP3   OH235776   1.358   2.947   1.444 -0.2487 -0.1180  0.3465
 4714TIP3    H135777   1.313   3.021   1.483  0.1317 -0.0857  0.7299
 4714TIP3    H235778   1.387   2.894   1.518 -1.8580 -1.4747  0.0512
 4715TIP3   OH235779   2.328   0.045   8.752 -0.0054 -0.1239  0.3761
 4715TIP3    H135780   2.241   0.011   8.771 -0.1758  0.2874  0.3202
 4715TIP3    H235781   2.350   0.098   8.828 -0.9740  2.1156 -0.8344
 4716TIP3   OH235782   2.536   3.449   7.252 -0.1928  0.3391 -0.6556
 4716TIP3    H135783   2.569   3.516   7.312  0.6640 -0.6942  0.0536
 4716TIP3    H235784   2.570   3.475   7.166  0.2267  0.7465 -0.3681
 4717TIP3   OH235785   0.746   6.563   8.308  0.0240  0.1163  0.4138
 4717TIP3    H135786   0.782   6.582   8.222 -1.9778  1.0999 -0.2782
 4717TIP3    H235787   0.797   6.618   8.368 -0.3453  1.5385 -0.5349
 4718TIP3   OH235788   3.096   0.905   1.078 -0.0586 -0.1617  0.9323
 4718TIP3    H135789   3.041   0.944   1.010  1.5710  3.0484  1.2857
 4718TIP3    H235790   3.063   0.942   1.160  2.2211  1.5147  1.1867
 4719TIP3   OH235791   4.696   3.245   8.487 -0.0922 -0.2825  0.0361
 4719TIP3    H135792   4.791   3.237   8.486 -0.1591 -2.0107  1.5035
 4719TIP3    H235793   4.666   3.165   8.530 -2.2453 -0.0066 -0.8412
 4720TIP3   OH235794   1.254   3.332   0.036 -0.0021  0.3644 -0.1550
 4720TIP3    H135795   1.265   3.281   0.116 -1.0272  0.5838  0.1364
 4720TIP3    H235796   1.236   3.267  -0.032 -2.4815  0.3279  0.4230
 4721TIP3   OH235797   1.295   5.080   0.157 -0.0556 -0.4805  0.2757
 4721TIP3    H135798   1.201   5.068   0.142 -0.0443  0.2584 -0.4258
 4721TIP3    H235799   1.337   5.033   0.086  0.1537 -1.6907  1.1613
 4722TIP3   OH235800   6.665   4.944   1.740  0.4083 -0.1876  0.1924
 4722TIP3    H135801   6.754   4.967   1.769  0.5157 -0.7707  0.3447
 4722TIP3    H235802   6.677   4.865   1.687  0.2262  0.8897 -1.5310
 4723TIP3   OH235803   3.740   2.070   1.409 -0.6577  0.0818  0.5857
 4723TIP3    H135804   3.677   2.008   1.372 -0.9282  1.2785 -1.0704
 4723TIP3    H235805   3.816   2.016   1.431 -0.2101 -0.6718 -2.3661
 4724TIP3   OH235806   2.893   4.080   8.291 -0.4108 -0.0293 -0.3783
 4724TIP3    H135807   2.978   4.078   8.335  0.0081 -0.6958 -1.1830
 4724TIP3    H235808   2.887   4.168   8.254 -0.2756  0.1695  0.0762
 4725TIP3   OH235809   2.277   5.557   8.540  0.4996 -0.5220 -0.1296
 4725TIP3    H135810   2.333   5.615   8.592  1.8091 -1.5999 -0.2678
 4725TIP3    H235811   2.252   5.487   8.601 -0.3414 -0.2905 -0.1965
 4726TIP3   OH235812   2.879   1.100   8.544 -0.4907 -0.7030  0.4703
 4726TIP3    H135813   2.873   1.011   8.578 -1.0708 -0.2944  1.5008
 4726TIP3    H235814   2.807   1.147   8.587 -0.6427  0.0920 -0.6062
 4727TIP3   OH235815   4.833   0.927   2.220 -0.2373  0.3240  0.2465
 4727TIP3    H135816   4.904   0.865   2.236  0.8049  1.9549  2.4435
 4727TIP3    H235817   4.837   0.945   2.126  1.7611 -0.2334  0.1854
 4728TIP3   OH235818   6.721   2.059   2.733 -0.3217 -0.1875 -0.0571
 4728TIP3    H135819   6.781   2.067   2.659  1.2634 -1.5218  1.0126
 4728TIP3    H235820   6.674   1.977   2.716 -2.1783  1.0068 -1.0541
 4729TIP3   OH235821   3.555   0.503   2.025 -0.3603  0.0141 -0.4868
 4729TIP3    H135822   3.582   0.440   1.958  0.3178  1.7914 -1.9500
 4729TIP3    H235823   3.593   0.586   1.997 -1.6047  1.1954  1.1440
 4730TIP3   OH235824   6.352   2.228   0.816 -0.1761 -0.6594 -0.2709
 4730TIP3    H135825   6.264   2.191   0.821 -0.6090  0.0858 -1.8522
 4730TIP3    H235826   6.360   2.260   0.726  1.6200 -0.4666 -0.0821
 4731TIP3   OH235827   6.249   1.100   0.184  0.2008 -0.4720  0.4562
 4731TIP3    H135828   6.181   1.167   0.196  0.2720 -0.3022 -0.0740
 4731TIP3    H235829   6.209   1.035   0.127 -1.2585 -2.8627  3.8681
 4732TIP3   OH235830   0.976   1.913   1.341 -0.8108  0.9693 -0.1280
 4732TIP3    H135831   1.021   1.985   1.297 -1.6810  1.1724 -0.7024
 4732TIP3    H235832   0.918   1.876   1.275 -1.7459  0.9376  0.6788
 4733TIP3   OH235833   6.571   3.435   0.479  0.3926 -0.1457  0.1434
 4733TIP3    H135834   6.611   3.511   0.436  1.3571 -0.1121  1.0768
 4733TIP3    H235835   6.496   3.471   0.526 -0.5330 -0.1443 -1.2585
 4734TIP3   OH235836   3.723   0.715   2.729 -0.0501 -0.0814 -0.0885
 4734TIP3    H135837   3.758   0.794   2.770  0.9937 -0.7711  0.4015
 4734TIP3    H235838   3.745   0.645   2.791 -0.6742 -0.7930 -0.6650
 4735TIP3   OH235839   2.231   4.004   0.721 -0.0978 -0.2697 -0.0256
 4735TIP3    H135840   2.325   3.992   0.736 -0.1046 -1.1641 -0.6027
 4735TIP3    H235841   2.194   3.917   0.737 -0.8298  0.0754  0.1883
 4736TIP3   OH235842   5.813   1.026   1.532 -0.1988 -0.0960 -0.5320
 4736TIP3    H135843   5.765   0.969   1.592  0.6234  0.1238  0.3744
 4736TIP3    H235844   5.787   1.115   1.556  1.3005  0.0785  0.5992
 4737TIP3   OH235845   5.490   5.697   7.430 -0.0066 -0.0540 -0.4866
 4737TIP3    H135846   5.457   5.674   7.344 -2.1600  0.9145  0.0293
 4737TIP3    H235847   5.429   5.763   7.463  1.2777  0.2687  1.4205
 4738TIP3   OH235848   6.094   0.345   0.866 -0.2800  0.6967  0.6523
 4738TIP3    H135849   6.013   0.396   0.877 -1.1776 -0.3273 -0.9172
 4738TIP3    H235850   6.091   0.315   0.776  0.3324 -1.9295  1.4340
 4739TIP3   OH235851   1.124   2.186   1.960 -0.4240  0.3438 -0.2943
 4739TIP3    H135852   1.088   2.213   1.876 -0.5611  1.3602  0.0846
 4739TIP3    H235853   1.047   2.178   2.017 -0.2746  0.1949 -0.1115
 4740TIP3   OH235854   2.796   1.992   8.281  0.1724  0.6468 -0.6958
 4740TIP3    H135855   2.879   2.031   8.252 -0.5132  1.4146 -1.6793
 4740TIP3    H235856   2.820   1.941   8.359  1.6767  0.3478 -1.3060
 4741TIP3   OH235857   5.328   6.700   0.417  0.3486  0.3934 -0.4677
 4741TIP3    H135858   5.390   6.633   0.444  0.7328  1.4759  1.5605
 4741TIP3    H235859   5.379   6.781   0.414 -0.8049  1.2182  0.7785
 4742TIP3   OH235860   3.956   5.938   8.289 -0.3665  0.0058 -0.1684
 4742TIP3    H135861   3.955   6.027   8.323  1.6574  0.1625 -0.4187
 4742TIP3    H235862   3.869   5.904   8.309 -0.5298  1.3763  1.6831
 4743TIP3   OH235863   2.542   3.365   1.722  0.0646  0.3587 -0.1399
 4743TIP3    H135864   2.609   3.338   1.659 -1.1661  0.3389 -1.4981
 4743TIP3    H235865   2.537   3.460   1.713  1.0321  0.5627  1.1658
 4744TIP3   OH235866   0.854   1.197   7.586  0.6157 -0.0025  0.2779
 4744TIP3    H135867   0.904   1.230   7.661  0.1798  0.0649  0.5410
 4744TIP3    H235868   0.861   1.266   7.520  0.9698 -0.0463  0.2676
 4745TIP3   OH235869   5.114   2.989   0.020 -0.0335 -0.0011 -0.6009
 4745TIP3    H135870   5.141   2.920   0.080  1.2331  0.1727 -0.9389
 4745TIP3    H235871   5.155   3.069   0.055 -4.3471  1.4517  1.9179
 4746TIP3   OH235872   5.176   0.304   0.277  0.5099 -0.4822  0.1583
 4746TIP3    H135873   5.122   0.378   0.306 -2.2567 -2.1081 -0.5238
 4746TIP3    H235874   5.172   0.241   0.349 -0.4080 -1.5557 -0.8073
 4747TIP3   OH235875   0.198   5.489   7.621  0.8913  0.4256 -0.0487
 4747TIP3    H135876   0.170   5.398   7.625 -1.3629  1.0633  0.4581
 4747TIP3    H235877   0.259   5.499   7.694 -0.3875 -0.2307  1.1554
 4748TIP3   OH235878   2.555   3.133   8.476 -0.2785  0.7201  0.7574
 4748TIP3    H135879   2.494   3.163   8.409 -0.7796 -0.1871  0.7899
 4748TIP3    H235880   2.534   3.185   8.553 -0.0770  1.3762  0.3756
 4749TIP3   OH235881   6.013   2.846   7.624  0.2426  0.1531  0.6170
 4749TIP3    H135882   6.002   2.752   7.630  1.8133 -0.1203 -0.1913
 4749TIP3    H235883   5.946   2.882   7.681 -0.4095 -1.4451  0.9030
 4750TIP3   OH235884   5.801   1.751   1.644 -0.0329  0.1808 -0.0439
 4750TIP3    H135885   5.804   1.745   1.548  0.6091 -0.2531 -0.0021
 4750TIP3    H235886   5.881   1.707   1.673  0.8679  2.1334  0.6202
 4751TIP3   OH235887   5.384   0.372   1.420  0.3839 -0.1284  0.1964
 4751TIP3    H135888   5.461   0.397   1.370 -0.5912 -0.4047 -1.4947
 4751TIP3    H235889   5.359   0.452   1.467 -1.9213  1.9700 -4.0976
 4752TIP3   OH235890   4.554   0.186   1.372  0.5948 -0.0685 -0.2184
 4752TIP3    H135891   4.525   0.120   1.309 -0.1472  0.6372 -0.6177
 4752TIP3    H235892   4.639   0.215   1.338 -0.0165  0.6520 -1.1690
 4753TIP3   OH235893   4.679   5.047   1.976 -0.5223  0.1832 -0.3906
 4753TIP3    H135894   4.723   5.103   1.912 -1.3154  0.7493 -0.4703
 4753TIP3    H235895   4.587   5.077   1.974 -0.4237  0.7920  1.5799
 4754TIP3   OH235896   4.959   5.578   2.456  0.0070  0.4730 -0.4254
 4754TIP3    H135897   5.044   5.586   2.413  1.2676  0.8995  2.0101
 4754TIP3    H235898   4.960   5.492   2.497 -0.2841  0.8945  0.4949
 4755TIP3   OH235899   2.579   0.019   1.947  0.0345  0.7618  0.6026
 4755TIP3    H135900   2.529  -0.003   2.026 -2.9492  0.5329 -1.2033
 4755TIP3    H235901   2.596  -0.065   1.906  1.9663  0.8471  1.1261
 4756TIP3   OH235902   2.257   1.445   8.700 -0.5170  0.1433 -0.3896
 4756TIP3    H135903   2.203   1.472   8.774  0.8104  0.2134  0.5866
 4756TIP3    H235904   2.257   1.520   8.641 -2.7506 -0.4176 -1.1931
 4757TIP3   OH235905   6.374   4.407   0.297  0.4706  0.3597  1.0593
 4757TIP3    H135906   6.320   4.371   0.226 -0.7720  0.9910  1.6605
 4757TIP3    H235907   6.421   4.331   0.332 -0.7736 -0.3773  1.1721
 4758TIP3   OH235908   1.429   5.973   2.885  0.1434 -0.1572  0.7436
 4758TIP3    H135909   1.482   6.001   2.960 -0.9577  3.0516  0.4730
 4758TIP3    H235910   1.340   5.966   2.920  0.2537 -3.0424  0.6349
 4759TIP3   OH235911   1.558   1.512   8.016  0.0797 -0.6978  0.2874
 4759TIP3    H135912   1.603   1.552   8.090  0.3335  0.5154 -0.4947
 4759TIP3    H235913   1.625   1.461   7.971  0.2166 -0.4312  0.1917
 4760TIP3   OH235914   1.496   4.839   7.560 -0.0769 -0.4446 -0.7189
 4760TIP3    H135915   1.442   4.856   7.482  1.0854 -0.7637 -1.6217
 4760TIP3    H235916   1.577   4.887   7.543  0.5038 -1.1863 -0.0696
 4761TIP3   OH235917   0.947   5.114   7.958  0.0820  0.2474 -0.5209
 4761TIP3    H135918   0.865   5.144   7.917  0.5492  1.3560 -0.6721
 4761TIP3    H235919   0.958   5.024   7.926 -0.6746  0.3559 -1.1191
 4762TIP3   OH235920   2.608   4.435   1.226 -0.1191 -0.7101 -0.3665
 4762TIP3    H135921   2.680   4.491   1.196  0.3019 -0.8829  0.2878
 4762TIP3    H235922   2.613   4.439   1.322 -2.2345  0.8761 -0.2572
 4763TIP3   OH235923   0.214   4.455   0.901 -0.7322  0.0279 -0.1882
 4763TIP3    H135924   0.165   4.458   0.984  0.8198  1.6748  0.7431
 4763TIP3    H235925   0.156   4.496   0.838 -0.8555  1.3133  0.7294
 4764TIP3   OH235926   4.931   1.488   0.059  0.5763 -0.2690  0.2877
 4764TIP3    H135927   4.950   1.549  -0.012 -0.8742  0.9622  0.8863
 4764TIP3    H235928   4.992   1.512   0.129  0.1355  0.4032  0.4535
 4765TIP3   OH235929   3.486   6.225   1.978  0.2592  0.1524 -0.7694
 4765TIP3    H135930   3.535   6.284   2.036  0.6785 -0.3313 -0.6316
 4765TIP3    H235931   3.547   6.203   1.908  0.8611 -1.8026  0.2874
 4766TIP3   OH235932   1.209   3.195   8.668  0.2353 -0.7082 -0.0532
 4766TIP3    H135933   1.285   3.142   8.687  0.1909 -0.0138  2.3653
 4766TIP3    H235934   1.144   3.133   8.634  1.1574 -1.6457 -0.1475
 4767TIP3   OH235935   0.429   2.373   7.841 -0.1784 -0.5264  0.9485
 4767TIP3    H135936   0.345   2.410   7.812  0.0179 -0.5517  0.3329
 4767TIP3    H235937   0.424   2.375   7.937 -0.4229  0.5208  0.9271
 4768TIP3   OH235938   3.388   5.187   1.126  0.5574 -0.7223  0.3404
 4768TIP3    H135939   3.387   5.096   1.156  0.2153 -1.1082 -0.7777
 4768TIP3    H235940   3.310   5.226   1.165 -0.5803 -1.5574 -1.0052
 4769TIP3   OH235941   4.813   3.358   0.881 -0.1073 -0.0888  0.2949
 4769TIP3    H135942   4.856   3.422   0.937 -2.2285  0.7809  1.0373
 4769TIP3    H235943   4.818   3.396   0.793  0.7964 -0.1276  0.3179
 4770TIP3   OH235944   5.718   6.751   7.160  0.6962  0.6681 -0.4311
 4770TIP3    H135945   5.764   6.681   7.205  0.4145  0.8600  0.1774
 4770TIP3    H235946   5.715   6.822   7.224 -0.7589  0.5302 -0.3153
 4771TIP3   OH235947   2.511   5.799   0.364 -0.4012  0.5955 -0.3187
 4771TIP3    H135948   2.549   5.715   0.389 -0.7179  0.4644 -0.2657
 4771TIP3    H235949   2.428   5.803   0.413  0.1618  1.4674  0.6303
 4772TIP3   OH235950   2.590   0.905   0.304  0.1797 -0.0139 -0.3916
 4772TIP3    H135951   2.651   0.953   0.248 -1.7694 -0.6393 -3.3088
 4772TIP3    H235952   2.515   0.963   0.314 -0.4009 -0.7557 -0.3191
 4773TIP3   OH235953   3.494   2.404   7.324  0.4578  0.3711 -0.1073
 4773TIP3    H135954   3.515   2.312   7.341  0.7431  0.5497  0.5404
 4773TIP3    H235955   3.448   2.403   7.240 -0.2907 -0.4599  0.2918
 4774TIP3   OH235956   0.808   3.700   8.539  0.3818 -0.6045 -0.0192
 4774TIP3    H135957   0.752   3.660   8.606  0.8178 -0.9000  0.1728
 4774TIP3    H235958   0.773   3.788   8.527  0.2106 -0.6019  0.4944
 4775TIP3   OH235959   2.387   1.099   1.745 -0.0097  0.1470  0.3931
 4775TIP3    H135960   2.437   1.147   1.811  0.1097 -4.0331  3.8038
 4775TIP3    H235961   2.298   1.132   1.754  0.7688  2.7736 -0.7404
 4776TIP3   OH235962   6.698   5.236   0.420  0.3708 -0.5769 -0.6200
 4776TIP3    H135963   6.682   5.267   0.509  0.6217 -0.2289 -0.6986
 4776TIP3    H235964   6.772   5.176   0.428  0.5645 -0.3402 -0.6361
 4777TIP3   OH235965   4.029   5.904   8.692  0.0300 -0.7004 -0.2585
 4777TIP3    H135966   3.977   5.861   8.624 -1.1614  1.4571 -0.7880
 4777TIP3    H235967   4.063   5.831   8.745 -1.7717 -2.2967 -1.1556
 4778TIP3   OH235968   3.410   5.108   2.500 -0.0436 -0.4176  0.2792
 4778TIP3    H135969   3.499   5.129   2.527 -0.1225  1.5010 -0.7547
 4778TIP3    H235970   3.362   5.190   2.507 -0.8318 -0.5074 -2.4814
 4779TIP3   OH235971   4.436   5.257   8.107  0.4745  0.3964 -0.6336
 4779TIP3    H135972   4.433   5.246   8.012  0.9594 -2.9512 -0.3774
 4779TIP3    H235973   4.361   5.206   8.139  0.3719  1.3960  0.8294
 4780TIP3   OH235974   5.456   4.747   8.760  0.0883 -0.2055 -0.4224
 4780TIP3    H135975   5.452   4.834   8.800 -0.3511 -1.1310  1.7164
 4780TIP3    H235976   5.366   4.730   8.732 -1.3327 -2.1026  4.3551
 4781TIP3   OH235977   0.751   3.976   8.544  0.1083 -0.0106 -0.3070
 4781TIP3    H135978   0.674   4.029   8.521  0.1446  0.3792  0.4603
 4781TIP3    H235979   0.815   3.996   8.475 -0.6812 -0.8185 -1.3180
 4782TIP3   OH235980   5.581   4.133   8.347 -0.1744  0.1927  0.2583
 4782TIP3    H135981   5.617   4.222   8.355 -0.6151  0.2869  1.3416
 4782TIP3    H235982   5.594   4.094   8.433 -0.0473 -0.7852 -0.1883
 4783TIP3   OH235983   2.267   1.150   8.275 -0.4567 -0.2908  0.7003
 4783TIP3    H135984   2.287   1.060   8.299  1.0251  0.6166  3.2393
 4783TIP3    H235985   2.254   1.195   8.358 -0.9344  1.9167 -0.4839
 4784TIP3   OH235986   6.061   2.124   7.108 -0.4562 -0.1844  0.2786
 4784TIP3    H135987   6.007   2.203   7.101  0.1858  0.2161 -0.2686
 4784TIP3    H235988   6.057   2.084   7.022  0.6869  0.2370  0.0118
 4785TIP3   OH235989   1.923   0.013   2.721  0.2074 -0.0831 -0.1830
 4785TIP3    H135990   1.911   0.072   2.795 -0.1394 -0.5191  0.1149
 4785TIP3    H235991   1.941   0.070   2.647 -1.8157  0.5388 -0.2616
 4786TIP3   OH235992   4.820   3.722   0.826 -0.1603  0.1397 -0.4244
 4786TIP3    H135993   4.743   3.679   0.863  0.4167  0.7236  1.5977
 4786TIP3    H235994   4.786   3.797   0.779 -0.8645  0.1999  0.1633
 4787TIP3   OH235995   1.590   3.488   0.619 -0.0349  0.1754 -0.2172
 4787TIP3    H135996   1.654   3.463   0.552 -0.3304  0.2065 -0.5141
 4787TIP3    H235997   1.505   3.474   0.577 -0.2204  1.7291 -0.4384
 4788TIP3   OH235998   2.284   4.581   8.555  0.1787  0.1795  0.9009
 4788TIP3    H135999   2.288   4.623   8.641  3.0242  1.7116  0.1556
 4788TIP3    H236000   2.217   4.630   8.507 -0.6663  0.0025  1.8617
 4789TIP3   OH236001   5.101   3.719   0.759  0.0635  0.3064  0.1127
 4789TIP3    H136002   5.156   3.666   0.818  1.6008 -0.8607 -2.2209
 4789TIP3    H236003   5.013   3.712   0.797  1.2287  1.3668  3.3921
 4790TIP3   OH236004   5.238   1.895   1.655  0.2413  0.0568  0.8212
 4790TIP3    H136005   5.209   1.901   1.564  1.3031  0.0548  0.4623
 4790TIP3    H236006   5.296   1.818   1.656  1.9178  1.2609  0.9876
 4791TIP3   OH236007   5.142   6.216   1.146  0.0360 -0.5100 -0.2969
 4791TIP3    H136008   5.064   6.264   1.173 -0.1595 -0.6479 -0.6170
 4791TIP3    H236009   5.111   6.128   1.126  0.4983 -0.9875  0.9465
 4792TIP3   OH236010   5.441   0.546   8.708 -0.0417  0.7686  0.5327
 4792TIP3    H136011   5.487   0.491   8.772  0.2870  0.2723 -0.1132
 4792TIP3    H236012   5.417   0.485   8.638  0.0640  1.3976 -0.0581
 4793TIP3   OH236013   0.028   6.486   1.372  0.0997 -0.5214  0.2999
 4793TIP3    H136014   0.042   6.550   1.301  0.4963 -0.5676  0.3308
 4793TIP3    H236015   0.009   6.404   1.327 -1.5977 -0.1475  0.2638
 4794TIP3   OH236016   2.484   0.314   7.848 -0.1489 -0.3887 -0.1608
 4794TIP3    H136017   2.500   0.388   7.789 -0.7628 -1.3730 -1.6285
 4794TIP3    H236018   2.521   0.341   7.932  0.8219  1.0411 -1.0121
 4795TIP3   OH236019   4.776   4.781   1.919 -0.7308  0.4415 -0.0958
 4795TIP3    H136020   4.849   4.815   1.866  0.0554  1.7270  1.6879
 4795TIP3    H236021   4.732   4.860   1.952 -1.7925 -0.3175  0.3539
 4796TIP3   OH236022   2.981   2.226   8.538  0.0853  0.1699  0.2452
 4796TIP3    H136023   2.913   2.255   8.477  1.4836  1.0146 -0.9827
 4796TIP3    H236024   3.040   2.173   8.484  1.2411  0.7509  0.9075
 4797TIP3   OH236025   3.793   1.521   2.627  0.2064 -0.3581 -0.2063
 4797TIP3    H136026   3.744   1.492   2.550  0.9216  0.3530 -0.9447
 4797TIP3    H236027   3.808   1.614   2.613  0.0963 -0.1555  0.9396
 4798TIP3   OH236028   4.774   5.665   8.012  0.8250  0.1816  0.7637
 4798TIP3    H136029   4.696   5.720   8.020 -0.7027 -1.9755  1.5422
 4798TIP3    H236030   4.752   5.600   7.947  2.6156  0.4312 -0.1735
 4799TIP3   OH236031   0.079   0.962   7.561  0.6751 -0.0033 -0.0719
 4799TIP3    H136032   0.110   0.947   7.472 -1.0419  1.6455 -1.0095
 4799TIP3    H236033  -0.005   1.006   7.550 -0.6522 -1.7054  2.3590
 4800TIP3   OH236034   6.559   5.177   2.211 -0.5946  0.1546 -0.0754
 4800TIP3    H136035   6.635   5.147   2.162  0.0803 -0.1661  1.1111
 4800TIP3    H236036   6.574   5.271   2.223  0.7124 -0.2497  1.9185
 4801TIP3   OH236037   3.702   1.547   2.349 -0.6767  0.1966  0.0898
 4801TIP3    H136038   3.682   1.640   2.338 -3.6930 -0.5016 -1.3365
 4801TIP3    H236039   3.630   1.501   2.306  0.4526 -2.8483  1.1405
 4802TIP3   OH236040   2.886   4.805   7.029  0.4579  0.7252  0.2729
 4802TIP3    H136041   2.954   4.865   6.997 -0.9910  2.2852 -0.0093
 4802TIP3    H236042   2.889   4.814   7.125  0.9001  0.4870  0.2841
 4803TIP3   OH236043   4.510   6.758   0.402 -0.2325 -0.2339 -0.6942
 4803TIP3    H136044   4.598   6.767   0.366 -0.7247 -0.9074 -2.1230
 4803TIP3    H236045   4.493   6.841   0.447  1.1661 -0.1514 -0.2745
 4804TIP3   OH236046   6.609   0.198   0.679  0.8393 -0.1391  0.3424
 4804TIP3    H136047   6.685   0.184   0.623  0.2266  0.6713 -0.7402
 4804TIP3    H236048   6.535   0.167   0.627  0.2884  0.3140  0.8417
 4805TIP3   OH236049   3.761   2.872   7.926  0.1621 -0.1650  0.1066
 4805TIP3    H136050   3.799   2.909   7.847  1.5872 -0.9633  0.3682
 4805TIP3    H236051   3.804   2.919   7.998  0.2848 -0.7091  0.4045
 4806TIP3   OH236052   2.788   1.542   0.206 -0.8083 -0.2019 -0.9392
 4806TIP3    H136053   2.871   1.590   0.210 -1.4230  1.1112 -2.6860
 4806TIP3    H236054   2.786   1.491   0.287  1.3897  0.2358 -0.5444
 4807TIP3   OH236055   0.569   0.291   0.502 -0.5800  0.1346  0.1593
 4807TIP3    H136056   0.575   0.207   0.456 -1.0115  0.4028 -0.3987
 4807TIP3    H236057   0.476   0.304   0.517 -0.4941  0.3890  0.4893
 4808TIP3   OH236058   2.014   5.522   2.179  0.2620 -0.5635 -0.0176
 4808TIP3    H136059   2.065   5.480   2.248 -1.1083 -2.5345 -0.1165
 4808TIP3    H236060   2.078   5.541   2.110  1.1651 -1.2300  0.6209
 4809TIP3   OH236061   2.028   3.146   1.066  0.0313  0.1560 -0.8658
 4809TIP3    H136062   2.080   3.153   0.986 -0.1148 -0.3137 -1.0060
 4809TIP3    H236063   1.943   3.113   1.037  0.0606 -0.2683 -0.4907
 4810TIP3   OH236064   0.354   1.795   8.377  0.1310  0.1865  0.1451
 4810TIP3    H136065   0.313   1.714   8.405  0.0917 -1.0100 -3.0695
 4810TIP3    H236066   0.295   1.864   8.408 -1.8983 -1.2331 -0.4310
 4811TIP3   OH236067   1.885   6.543   8.340 -0.1825  0.2127 -0.0082
 4811TIP3    H136068   1.966   6.518   8.296 -1.1398 -0.2438 -1.6197
 4811TIP3    H236069   1.822   6.556   8.268 -1.8715 -0.6849  1.2343
 4812TIP3   OH236070   5.082   2.650   0.636 -0.3062  0.1449  0.2973
 4812TIP3    H136071   5.036   2.730   0.609  0.0683  0.0384 -0.7251
 4812TIP3    H236072   5.175   2.672   0.629 -0.2032 -0.2962  0.2474
 4813TIP3   OH236073   4.923   0.086   7.946 -0.0992 -0.4601 -0.2943
 4813TIP3    H136074   4.851   0.065   7.886 -0.7824  2.6030 -0.7263
 4813TIP3    H236075   4.883   0.083   8.033 -0.2488 -0.6275 -0.3669
 4814TIP3   OH236076   4.015   0.575   1.479  0.0571 -0.3685  0.3177
 4814TIP3    H136077   3.932   0.623   1.485  0.5629  0.6143 -0.2732
 4814TIP3    H236078   3.991   0.484   1.495 -1.4726 -0.4025 -1.7435
 4815TIP3   OH236079   3.023   4.635   0.204 -0.3134 -0.3881 -0.2370
 4815TIP3    H136080   2.961   4.638   0.276  1.0315 -0.9951  0.9970
 4815TIP3    H236081   3.063   4.722   0.203  0.9192 -0.9122  0.9336
 4816TIP3   OH236082   1.079   3.274   0.844  0.4622 -0.6929  0.5772
 4816TIP3    H136083   1.090   3.194   0.895  0.1320 -1.7617 -0.9248
 4816TIP3    H236084   1.033   3.245   0.765  1.3170  0.7874 -0.5147
 4817TIP3   OH236085   6.036   5.359   8.805 -0.0022 -0.8964 -0.0616
 4817TIP3    H136086   5.998   5.318   8.727 -1.9740  0.0176  0.3690
 4817TIP3    H236087   6.043   5.451   8.783  0.2284 -0.7620  0.5524
 4818TIP3   OH236088   4.038   5.993   1.770  0.1816  0.0671 -0.1451
 4818TIP3    H136089   4.001   6.006   1.857  1.4631 -0.3123  0.4813
 4818TIP3    H236090   4.085   6.074   1.751 -0.5054  0.3420 -0.7057
 4819TIP3   OH236091   0.679   0.164   2.498  0.1131 -0.7039 -0.3277
 4819TIP3    H136092   0.602   0.220   2.513 -0.6237 -1.5058 -0.9879
 4819TIP3    H236093   0.749   0.225   2.476 -0.7751 -0.0429 -1.4543
 4820TIP3   OH236094   4.157   6.764   8.455 -0.6556  0.4151  0.2848
 4820TIP3    H136095   4.093   6.692   8.458 -0.4850  0.1155 -1.8355
 4820TIP3    H236096   4.105   6.841   8.433 -0.4173  0.2930 -0.7702
 4821TIP3   OH236097   2.639   2.117   0.921 -0.0513 -0.0258 -0.2437
 4821TIP3    H136098   2.586   2.038   0.932 -0.0998 -0.0012 -0.2990
 4821TIP3    H236099   2.669   2.112   0.830  2.1478 -1.3559  0.4613
 4822TIP3   OH236100   0.273   5.753   8.133  0.1194 -0.2420  0.9315
 4822TIP3    H136101   0.196   5.696   8.140  2.1382 -3.4574 -0.7030
 4822TIP3    H236102   0.323   5.735   8.212  1.0221 -1.2439  0.1601
 4823TIP3   OH236103   2.130   1.541   0.061  0.1190 -0.4547 -0.4303
 4823TIP3    H136104   2.080   1.508   0.136  0.3219 -0.4388 -0.2875
 4823TIP3    H236105   2.166   1.624   0.091  0.6072 -0.6814 -0.3754
 4824TIP3   OH236106   4.388   2.764   8.525 -0.5008 -0.3884 -0.0573
 4824TIP3    H136107   4.359   2.791   8.438 -1.9206 -0.1866  0.4464
 4824TIP3    H236108   4.403   2.670   8.518 -2.7872 -0.8223 -0.0191
 4825TIP3   OH236109   5.570   0.158   8.814  0.2271  0.0071  0.4656
 4825TIP3    H136110   5.500   0.152   8.878 -0.0603 -1.2349  0.0600
 4825TIP3    H236111   5.590   0.252   8.809 -0.0201  0.1771  2.0449
 4826TIP3   OH236112   6.669   2.061   3.005 -0.1042 -0.1400 -0.1399
 4826TIP3    H136113   6.757   2.068   3.043 -0.1408  3.7082 -0.3843
 4826TIP3    H236114   6.683   2.060   2.911 -0.3086 -0.1645 -0.1701
 4827TIP3   OH236115   4.593   5.697   1.640  0.1483  0.1570  0.5151
 4827TIP3    H136116   4.666   5.713   1.700  0.5056 -0.4522  0.2546
 4827TIP3    H236117   4.538   5.633   1.686  1.0372 -1.2219 -0.2710
 4828TIP3   OH236118   3.189   2.195   0.499 -0.0477 -0.0661 -0.1893
 4828TIP3    H136119   3.246   2.155   0.565  1.7837 -0.7538 -2.0810
 4828TIP3    H236120   3.139   2.122   0.463 -0.2315  0.1232 -0.3194
 4829TIP3   OH236121   3.104   1.518   0.449 -0.1170 -0.5759  0.4601
 4829TIP3    H136122   3.111   1.454   0.520 -0.5812 -2.4657 -1.1338
 4829TIP3    H236123   3.178   1.498   0.391  0.5174  1.2284  0.5759
 4830TIP3   OH236124   0.984   0.485   1.850  0.1121 -0.2270 -0.1393
 4830TIP3    H136125   1.003   0.396   1.821 -0.6325 -0.2881 -0.4483
 4830TIP3    H236126   0.922   0.474   1.922  0.6589  0.0066  0.3811
 4831TIP3   OH236127   5.488   2.037   1.877  0.0361  0.4159 -0.7450
 4831TIP3    H136128   5.499   2.059   1.785  0.0114 -1.4653 -1.2272
 4831TIP3    H236129   5.573   2.003   1.905 -0.7238 -1.7708 -0.9123
 4832TIP3   OH236130   2.766   0.672   1.166 -0.2243  0.4411 -0.2731
 4832TIP3    H136131   2.833   0.616   1.128 -0.9094 -1.4763  1.1469
 4832TIP3    H236132   2.756   0.744   1.104  1.8076 -0.1816 -1.4164
 4833TIP3   OH236133   3.503   0.921   7.156 -0.1785  0.8978 -0.3589
 4833TIP3    H136134   3.560   0.851   7.190 -2.1385  0.2327  1.8347
 4833TIP3    H236135   3.557   1.000   7.163  1.2512 -0.0212 -0.5463
 4834TIP3   OH236136   2.140   1.610   2.150 -0.1202  0.8594  0.1169
 4834TIP3    H136137   2.044   1.606   2.141 -0.4041  2.2823  1.8096
 4834TIP3    H236138   2.161   1.703   2.139  1.5120  0.2253 -3.2460
 4835TIP3   OH236139   1.070   3.551   0.855 -0.2071  0.2838 -0.6879
 4835TIP3    H136140   1.164   3.561   0.873 -0.2679  1.0453 -0.7329
 4835TIP3    H236141   1.056   3.457   0.852  0.7552  0.1578 -1.7143
 4836TIP3   OH236142   5.514   5.313   1.165  0.1461 -0.2561 -0.0687
 4836TIP3    H136143   5.576   5.249   1.131  0.0656  0.3265 -1.3797
 4836TIP3    H236144   5.434   5.299   1.113 -0.7143 -0.7557  1.3365
 4837TIP3   OH236145   3.304   5.029   0.011  0.6074 -0.1996 -0.0170
 4837TIP3    H136146   3.243   5.088   0.056  0.3882 -0.9989  0.7463
 4837TIP3    H236147   3.250   4.985  -0.055  0.6699  0.0885 -0.2663
 4838TIP3   OH236148   5.069   3.653   7.357 -0.4391 -0.0647  0.1274
 4838TIP3    H136149   5.034   3.721   7.416 -0.2472  0.3090 -0.1883
 4838TIP3    H236150   5.082   3.698   7.274  1.7629  0.0839  0.4924
 4839TIP3   OH236151   1.238   0.977   1.858 -0.3302  0.1881 -0.1055
 4839TIP3    H136152   1.249   1.032   1.780  0.6360  1.2542  0.7355
 4839TIP3    H236153   1.193   0.899   1.827 -1.3382  1.2606 -1.4445
 4840TIP3   OH236154   4.385   5.260   7.832 -0.7165  0.1932 -0.3112
 4840TIP3    H136155   4.303   5.259   7.782 -0.2230  0.7963 -1.1652
 4840TIP3    H236156   4.397   5.352   7.857 -0.9716 -0.1015  0.9728
 4841TIP3   OH236157   1.294   3.228   0.308  0.2298 -0.1756 -0.4282
 4841TIP3    H136158   1.311   3.153   0.251 -1.0151 -1.3892  0.7070
 4841TIP3    H236159   1.310   3.195   0.397 -2.8283  0.0501  0.3228
 4842TIP3   OH236160   6.058   0.965   3.042  1.0204 -0.7481 -0.4359
 4842TIP3    H136161   5.964   0.975   3.061  0.9434 -0.5416 -0.9111
 4842TIP3    H236162   6.095   1.052   3.055  0.6919 -0.1951 -2.6800
 4843TIP3   OH236163   5.922   3.603   2.585  0.5731 -0.2459 -0.1296
 4843TIP3    H136164   5.871   3.665   2.637  0.6993  2.1344 -2.5758
 4843TIP3    H236165   5.864   3.528   2.573 -1.0629  0.9344 -0.0221
 4844TIP3   OH236166   3.244   6.791   1.019  0.1185 -0.1504 -0.0186
 4844TIP3    H136167   3.226   6.873   0.972 -1.6838 -0.7311 -0.4333
 4844TIP3    H236168   3.203   6.802   1.104 -0.0702 -0.5914 -0.0492
 4845TIP3   OH236169   3.789   6.709   0.124  0.0272  0.0013 -0.1886
 4845TIP3    H136170   3.789   6.802   0.103 -1.1629 -0.1118 -0.8009
 4845TIP3    H236171   3.719   6.672   0.070 -0.7816 -0.9302  1.3940
 4846TIP3   OH236172   1.438   5.656   1.384  0.3290  0.8714  0.5374
 4846TIP3    H136173   1.469   5.661   1.474 -0.5495  0.8627  0.8526
 4846TIP3    H236174   1.453   5.744   1.348 -1.2534  1.5278  1.3691
 4847TIP3   OH236175   5.151   3.731   8.413 -0.3246  0.1462  0.1482
 4847TIP3    H136176   5.105   3.802   8.369 -0.7777 -0.3891 -0.2410
 4847TIP3    H236177   5.126   3.740   8.505 -3.2985 -1.6374 -0.3438
 4848TIP3   OH236178   5.352   0.681   0.881  1.0188 -0.0264 -0.0335
 4848TIP3    H136179   5.308   0.673   0.966  4.0358 -1.4948  1.5234
 4848TIP3    H236180   5.304   0.621   0.823 -0.4229  0.2028  0.8805
 4849TIP3   OH236181   1.943   6.329   1.435  0.2327  0.4006  0.3174
 4849TIP3    H136182   1.925   6.235   1.432 -0.7866  0.5456  1.2134
 4849TIP3    H236183   2.023   6.337   1.486 -0.3937  0.0920  1.3676
 4850TIP3   OH236184   1.418   6.741   8.861  0.3630  0.7139  0.6069
 4850TIP3    H136185   1.392   6.686   8.787  0.7141  0.3318  0.7705
 4850TIP3    H236186   1.510   6.763   8.844  0.4462  0.6188  0.9382
 4851TIP3   OH236187   5.693   3.622   0.111 -0.2679  0.0333 -0.5042
 4851TIP3    H136188   5.671   3.558   0.178  1.1967  0.6693  0.6449
 4851TIP3    H236189   5.733   3.695   0.159  3.7235 -0.7418 -2.2410
 4852TIP3   OH236190   4.018   6.286   1.088  0.1420  0.0465 -0.2881
 4852TIP3    H136191   4.001   6.263   1.179  0.4863  1.5820  0.2042
 4852TIP3    H236192   4.113   6.285   1.080  0.1260  0.2801 -0.5264
 4853TIP3   OH236193   1.430   0.358   0.116  0.1507 -0.3714  0.0286
 4853TIP3    H136194   1.358   0.381   0.057 -1.0937 -2.7684  0.4918
 4853TIP3    H236195   1.393   0.292   0.175  1.8465  0.6223  2.3772
 4854TIP3   OH236196   2.017   3.279   2.172 -0.0411  0.2435 -0.0766
 4854TIP3    H136197   1.993   3.276   2.080  1.6140 -0.5874 -0.5291
 4854TIP3    H236198   2.024   3.187   2.198  0.8998  0.4462  0.4556
 4855TIP3   OH236199   6.560   3.078   1.469  0.0584  0.2260 -0.0183
 4855TIP3    H136200   6.598   3.032   1.395  0.5735  1.7540 -0.7522
 4855TIP3    H236201   6.467   3.057   1.466  0.2738 -0.7118 -0.3477
 4856TIP3   OH236202   2.409   4.501   0.185 -0.2415 -0.3382  0.1096
 4856TIP3    H136203   2.494   4.460   0.168 -0.3644 -0.7938  0.5838
 4856TIP3    H236204   2.376   4.457   0.263 -0.9413 -0.2022 -0.1040
 4857TIP3   OH236205   3.846   5.622   7.719  0.2642 -0.5193 -0.4357
 4857TIP3    H136206   3.756   5.646   7.698  0.4344 -1.0234 -1.8539
 4857TIP3    H236207   3.847   5.527   7.715  0.5806 -0.6045  0.9156
 4858TIP3   OH236208   0.873   1.972   8.511 -0.2994  0.6056 -0.1532
 4858TIP3    H136209   0.822   2.002   8.436 -1.3967 -2.9433 -1.0206
 4858TIP3    H236210   0.948   1.926   8.473  1.1493  1.8313  1.0618
 4859TIP3   OH236211   2.291   1.729   7.769  0.3523 -0.5058 -0.2760
 4859TIP3    H136212   2.372   1.772   7.741 -0.0865  0.1381 -0.5804
 4859TIP3    H236213   2.319   1.642   7.797  1.3319  0.1350  0.8144
 4860TIP3   OH236214   2.080   4.651   8.327  0.4665 -0.0376 -0.5135
 4860TIP3    H136215   2.056   4.722   8.268 -0.5797 -1.2499 -1.6086
 4860TIP3    H236216   2.050   4.572   8.283 -1.4980 -0.9287  2.1998
 4861TIP3   OH236217   1.206   6.797   1.909 -0.3268  0.3582 -0.0983
 4861TIP3    H136218   1.197   6.829   1.999 -1.1439 -0.5273  0.1543
 4861TIP3    H236219   1.220   6.703   1.919 -0.1595  0.2920 -0.8921
 4862TIP3   OH236220   3.065   4.282   7.710 -0.2247  0.1849  0.0007
 4862TIP3    H136221   3.007   4.282   7.634  0.4801 -1.8444 -0.5829
 4862TIP3    H236222   3.063   4.193   7.743  1.8326  0.2700  0.5153
 4863TIP3   OH236223   5.796   6.626   8.630 -0.6202  0.4068  0.0087
 4863TIP3    H136224   5.850   6.570   8.575 -1.4494  0.0511 -0.4621
 4863TIP3    H236225   5.859   6.678   8.680  0.1558  0.2590 -0.7792
 4864TIP3   OH236226   1.708   0.663   6.946  0.0602  0.0850 -0.5381
 4864TIP3    H136227   1.788   0.619   6.917 -0.5910  0.8110 -3.7756
 4864TIP3    H236228   1.734   0.755   6.956  0.2307 -0.1129  1.3195
 4865TIP3   OH236229   4.105   0.180   1.032  0.0503  0.8304 -0.2824
 4865TIP3    H136230   4.124   0.244   0.964  0.4715  1.0587  0.0431
 4865TIP3    H236231   4.027   0.134   1.001  0.1906  0.9837 -0.8783
 4866TIP3   OH236232   0.021   0.268   0.218 -0.4130 -0.3264  0.4345
 4866TIP3    H136233  -0.041   0.336   0.191 -0.2197  0.1620  1.2038
 4866TIP3    H236234   0.105   0.314   0.225  0.0545 -0.9866 -0.6156
 4867TIP3   OH236235   4.841   1.250   1.298  0.0948 -0.0833 -0.2875
 4867TIP3    H136236   4.923   1.298   1.310 -0.1321  0.4030 -0.6959
 4867TIP3    H236237   4.864   1.159   1.319  0.3268  0.3084  1.3005
 4868TIP3   OH236238   6.742   4.701   1.614 -0.2136  0.1473  0.0940
 4868TIP3    H136239   6.760   4.652   1.533  2.2498  0.5354  0.3312
 4868TIP3    H236240   6.773   4.644   1.684  0.2104  0.9149  0.5478
 4869TIP3   OH236241   4.187   4.899   8.210 -0.2197 -0.3515  0.3684
 4869TIP3    H136242   4.193   4.966   8.142 -1.6160  0.0591  0.6175
 4869TIP3    H236243   4.220   4.819   8.169  2.2772  0.6164  0.3163
 4870TIP3   OH236244   2.849   5.091   0.353 -0.7209 -0.0344 -0.5459
 4870TIP3    H136245   2.907   5.161   0.383  0.2581 -1.1995  0.4095
 4870TIP3    H236246   2.768   5.135   0.329  1.0834  1.9444 -3.7191
 4871TIP3   OH236247   3.498   0.407   1.612  0.0030  0.3668 -0.4418
 4871TIP3    H136248   3.517   0.360   1.693 -0.4688 -0.3100 -0.7116
 4871TIP3    H236249   3.558   0.368   1.548 -0.8543 -0.3598 -0.8248
 4872TIP3   OH236250   3.665   5.853   2.101 -0.7138  0.7038 -0.2876
 4872TIP3    H136251   3.581   5.843   2.057  0.0919  2.5268 -2.4836
 4872TIP3    H236252   3.727   5.807   2.044 -0.0973  0.0280  0.8963
 4873TIP3   OH236253   3.489   3.830   1.792 -0.2404  0.2314 -0.0227
 4873TIP3    H136254   3.504   3.738   1.811 -2.4968 -0.2731 -0.4750
 4873TIP3    H236255   3.489   3.836   1.697 -1.4462  0.4267 -0.0245
 4874TIP3   OH236256   4.460   0.604   8.435  0.4826 -0.3989  0.8261
 4874TIP3    H136257   4.434   0.669   8.370  0.8917 -1.9047 -0.9175
 4874TIP3    H236258   4.555   0.612   8.440  0.7384 -1.9868 -0.7176
 4875TIP3   OH236259   2.340   3.517   7.989 -0.0092 -0.0817  0.0730
 4875TIP3    H136260   2.374   3.551   8.072  0.3889 -0.4310  0.0515
 4875TIP3    H236261   2.409   3.535   7.925 -0.9589  1.6535 -0.5301
 4876TIP3   OH236262   0.119   5.020   0.589 -0.3929 -0.0905  0.0273
 4876TIP3    H136263   0.167   5.103   0.583 -0.8417  0.3288  1.7896
 4876TIP3    H236264   0.091   5.002   0.499 -1.7429  2.5436 -0.1686
 4877TIP3   OH236265   5.635   2.798   8.681 -0.7024  0.4917  0.4756
 4877TIP3    H136266   5.682   2.830   8.758  1.5603 -4.2181  1.4050
 4877TIP3    H236267   5.543   2.798   8.709 -0.3693  2.0777  1.7924
 4878TIP3   OH236268   6.215   4.547   8.631  0.1250 -0.4152 -0.4585
 4878TIP3    H136269   6.230   4.614   8.697  0.9836 -0.0304 -1.0346
 4878TIP3    H236270   6.133   4.505   8.658 -1.8283  2.4375 -1.3807
 4879TIP3   OH236271   5.806   4.174   1.046  0.4185 -0.5373 -0.3004
 4879TIP3    H136272   5.786   4.131   1.129  0.6672  1.4246  0.8285
 4879TIP3    H236273   5.894   4.145   1.024  1.2307  0.5763  1.2867
 4880TIP3   OH236274   3.294   1.947   1.102  0.4678 -0.1278  0.3894
 4880TIP3    H136275   3.335   1.981   1.023  1.2688  0.9940  1.2474
 4880TIP3    H236276   3.252   2.023   1.142 -1.2718 -0.9818  0.2762
 4881TIP3   OH236277   0.640   3.846   0.201  0.2806  0.0704  0.6017
 4881TIP3    H136278   0.619   3.932   0.238 -1.0911  0.5690 -1.1799
 4881TIP3    H236279   0.666   3.864   0.111 -0.1145 -1.3720  0.1707
 4882TIP3   OH236280   6.683   4.364   7.985 -0.0497  0.3035 -0.3565
 4882TIP3    H136281   6.676   4.346   7.892 -0.1163  0.9515 -0.4796
 4882TIP3    H236282   6.775   4.347   8.005 -0.0639  0.0396 -0.5108
 4883TIP3   OH236283   4.324   2.057   8.519 -0.2661  0.0136  0.2999
 4883TIP3    H136284   4.395   2.101   8.473  0.9164 -1.0054  1.0904
 4883TIP3    H236285   4.338   2.079   8.611  0.1494 -1.6990  0.6683
 4884TIP3   OH236286   4.032   4.841   7.263 -0.3942  0.8022 -0.4874
 4884TIP3    H136287   4.063   4.881   7.182 -2.0695  1.2301 -0.9559
 4884TIP3    H236288   3.997   4.756   7.236  1.7608 -0.4108  0.2797
 4885TIP3   OH236289   4.906   1.947   0.077  0.0181  0.1084 -0.0680
 4885TIP3    H136290   4.844   1.884   0.114  0.3610  0.5236  1.3046
 4885TIP3    H236291   4.933   1.909  -0.006 -2.4452  0.1667 -0.9871
 4886TIP3   OH236292   3.644   2.395   2.944  0.4803 -0.4116 -0.2124
 4886TIP3    H136293   3.704   2.383   2.870 -0.4715  0.1833 -1.0975
 4886TIP3    H236294   3.664   2.482   2.977 -0.7229  0.2964 -1.2958
 4887TIP3   OH236295   4.718   5.450   2.637  0.5638  0.3949  0.0575
 4887TIP3    H136296   4.756   5.451   2.724 -0.8961  0.9591  0.7257
 4887TIP3    H236297   4.757   5.374   2.594  1.6035  0.3410  1.0428
 4888TIP3   OH236298   4.248   2.230   0.037 -0.4322  0.5240  0.5305
 4888TIP3    H136299   4.250   2.169   0.110  1.2303  1.1782  1.0720
 4888TIP3    H236300   4.208   2.309   0.073 -1.5345  0.1575  0.1410
 4889TIP3   OH236301   1.545   6.421   1.194  0.4517  0.1985 -0.0913
 4889TIP3    H136302   1.624   6.465   1.225 -0.5729 -0.0040  3.2299
 4889TIP3    H236303   1.475   6.483   1.214 -0.3892 -0.2693 -1.5134
 4890TIP3   OH236304   3.346   4.810   2.406 -0.3212 -0.2338  0.0540
 4890TIP3    H136305   3.401   4.880   2.442 -0.2632 -0.1392 -0.2176
 4890TIP3    H236306   3.268   4.811   2.461 -0.3172  0.0401  0.0595
 4891TIP3   OH236307   3.806   1.486   1.054  0.5408 -0.0638  0.3842
 4891TIP3    H136308   3.782   1.478   1.147 -0.3799 -0.6404  0.1053
 4891TIP3    H236309   3.878   1.423   1.043  0.6639  0.0171  0.7089
 4892TIP3   OH236310   0.509   1.149   7.391  0.0620  0.4898  0.3649
 4892TIP3    H136311   0.556   1.224   7.429 -0.1802  1.1778 -0.6563
 4892TIP3    H236312   0.417   1.177   7.391 -0.0777  0.0264  0.3513
 4893TIP3   OH236313   4.911   4.314   7.306 -0.5135  0.1170 -0.6231
 4893TIP3    H136314   4.913   4.222   7.281 -0.6372  0.3876 -1.6640
 4893TIP3    H236315   4.984   4.324   7.366  0.1970 -0.4162 -1.3741
 4894TIP3   OH236316   2.866   1.041   8.280  0.3775 -0.4034  0.3193
 4894TIP3    H136317   2.783   0.995   8.277  1.7320 -3.0236 -0.3920
 4894TIP3    H236318   2.879   1.063   8.373 -1.3319  0.6384  0.3472
 4895TIP3   OH236319   5.422   3.285   0.514 -0.4224 -0.1570  0.1771
 4895TIP3    H136320   5.417   3.190   0.508 -2.2924 -0.0060 -2.2525
 4895TIP3    H236321   5.330   3.314   0.517  0.0381  1.6243 -1.2657
 4896TIP3   OH236322   2.147   1.524   8.282 -0.7473  0.3090  0.6315
 4896TIP3    H136323   2.153   1.597   8.220  1.1852  1.0125  1.5822
 4896TIP3    H236324   2.236   1.512   8.314 -1.3185 -1.4314  1.7144
 4897TIP3   OH236325   4.346   5.659   2.249  0.1942 -0.3532 -0.1031
 4897TIP3    H136326   4.439   5.665   2.270  0.6361 -0.1714 -1.9369
 4897TIP3    H236327   4.311   5.746   2.270  0.5835 -0.1947 -0.1051
 4898TIP3   OH236328   2.498   6.310   8.856  0.6713 -0.3716  0.4487
 4898TIP3    H136329   2.533   6.396   8.833  0.5489 -1.1731 -3.4522
 4898TIP3    H236330   2.417   6.330   8.903  1.0170  1.6567  0.2951
 4899TIP3   OH236331   1.503   0.971   0.233  0.0455 -0.0942  0.2590
 4899TIP3    H136332   1.539   0.972   0.322 -0.6945  0.5885  0.5547
 4899TIP3    H236333   1.497   1.063   0.208 -0.6674 -0.2408 -0.1287
 4900TIP3   OH236334   6.220   1.361   7.221  0.4806 -0.4970  0.6815
 4900TIP3    H136335   6.141   1.343   7.170  0.3435  2.1801 -0.2023
 4900TIP3    H236336   6.291   1.352   7.158  0.5421  0.4198  0.6126
 4901TIP3   OH236337   2.851   1.562   8.404 -0.1762  0.0450 -0.6391
 4901TIP3    H136338   2.871   1.484   8.456 -0.0777  0.3812 -0.1661
 4901TIP3    H236339   2.932   1.613   8.407  0.1766 -0.3845 -1.9534
 4902TIP3   OH236340   0.251   5.187   2.850 -0.7270 -0.1060 -0.2233
 4902TIP3    H136341   0.300   5.263   2.818 -0.4189 -0.6261 -1.0231
 4902TIP3    H236342   0.231   5.137   2.770 -0.9477 -0.8535  0.2946
 4903TIP3   OH236343   6.162   4.178   8.357  0.1181  0.3636  0.1840
 4903TIP3    H136344   6.140   4.268   8.331  0.4695  0.9646  1.8143
 4903TIP3    H236345   6.254   4.183   8.382  0.2890 -0.5941 -0.2249
 4904TIP3   OH236346   4.025   2.157   8.734 -0.2106 -1.0394 -0.1925
 4904TIP3    H136347   3.964   2.090   8.765 -0.8541 -0.0408  0.7875
 4904TIP3    H236348   4.098   2.153   8.796 -0.7937 -0.0646  0.5801
 4905TIP3   OH236349   0.185   2.739   8.786  0.6078  0.0885  0.5367
 4905TIP3    H136350   0.249   2.809   8.786 -0.0074  0.7511 -2.0454
 4905TIP3    H236351   0.117   2.768   8.724 -1.1159 -1.5141  1.5607
 4906TIP3   OH236352   1.285   3.178   0.581  0.3524  0.0126 -0.0936
 4906TIP3    H136353   1.193   3.153   0.592  0.2691 -0.8323 -2.3103
 4906TIP3    H236354   1.326   3.154   0.664 -1.9228  3.2830  2.2489
 4907TIP3   OH236355   0.261   2.082   1.761  0.4289 -0.1138 -0.4934
 4907TIP3    H136356   0.281   2.009   1.819 -2.6528 -1.2689 -0.6776
 4907TIP3    H236357   0.197   2.134   1.810  0.6052  0.9913 -1.3962
 4908TIP3   OH236358   2.956   3.836   1.077 -0.1052  0.1677  0.5580
 4908TIP3    H136359   2.861   3.836   1.072 -0.0737  0.7148 -0.1117
 4908TIP3    H236360   2.984   3.895   1.007  0.7798 -1.2824 -0.3605
 4909TIP3   OH236361   2.953   4.430   7.102  0.6562 -0.2302 -0.3282
 4909TIP3    H136362   2.975   4.454   7.192 -0.4122  1.9996 -0.5902
 4909TIP3    H236363   3.017   4.362   7.079  1.1151 -0.6789  1.9944
 4910TIP3   OH236364   6.759   4.052   1.376 -0.7297  0.2539 -0.4356
 4910TIP3    H136365   6.784   3.960   1.385  0.7192  0.7174  0.8740
 4910TIP3    H236366   6.687   4.064   1.438 -0.3485  0.1775  0.0301
 4911TIP3   OH236367   2.278   5.131   0.554  0.2336  0.0117 -0.0992
 4911TIP3    H136368   2.352   5.112   0.496 -1.4673  1.0934 -2.8080
 4911TIP3    H236369   2.216   5.178   0.499 -2.5070 -0.8375  2.0504
 4912TIP3   OH236370   1.939   5.431   0.815  0.3177 -0.5227  0.1077
 4912TIP3    H136371   2.011   5.467   0.866  0.1465  0.0517 -0.0473
 4912TIP3    H236372   1.981   5.385   0.742  0.5229  0.4605 -0.4115
 4913TIP3   OH236373   4.896   0.678   0.824 -0.0035  0.6108  0.2978
 4913TIP3    H136374   4.952   0.686   0.747 -1.4440  1.5545 -0.6961
 4913TIP3    H236375   4.932   0.603   0.872  1.4394  0.5307 -0.8381
 4914TIP3   OH236376   5.425   4.079   1.882  0.3286  0.6073  0.4134
 4914TIP3    H136377   5.425   3.984   1.874 -0.7182  0.5674  0.7393
 4914TIP3    H236378   5.352   4.099   1.940  0.2846  1.6423  0.0383
 4915TIP3   OH236379   5.939   5.120   7.026 -0.6314  0.3313  0.2390
 4915TIP3    H136380   5.975   5.112   6.938 -2.4455  3.1293 -0.8807
 4915TIP3    H236381   5.855   5.075   7.022 -1.7982  2.4483 -0.2370
 4916TIP3   OH236382   5.039   3.906   1.428 -0.4879  0.0390 -0.0647
 4916TIP3    H136383   4.979   3.976   1.401 -1.0431  0.6072  2.3644
 4916TIP3    H236384   5.096   3.947   1.494  1.4592 -0.9525 -1.0313
 4917TIP3   OH236385   2.846   0.173   2.251  0.7851  0.8032  0.0595
 4917TIP3    H136386   2.819   0.087   2.286 -0.3333 -0.0165 -2.5542
 4917TIP3    H236387   2.764   0.214   2.224  0.9550  3.9542  3.5401
 4918TIP3   OH236388   0.854   3.074   1.757  0.0438 -0.3158 -0.4844
 4918TIP3    H136389   0.794   3.137   1.719 -1.2788 -1.6892 -0.7760
 4918TIP3    H236390   0.845   3.087   1.852 -1.0665 -0.7873 -0.5085
 4919TIP3   OH236391   1.259   2.067   0.197  0.2594  0.1155  0.2165
 4919TIP3    H136392   1.246   2.083   0.291 -1.9769  1.7484 -0.2872
 4919TIP3    H236393   1.171   2.056   0.162  1.1217 -2.2763 -1.4808
 4920TIP3   OH236394   2.071   5.090   7.202  0.0149 -0.4030 -0.3607
 4920TIP3    H136395   2.159   5.100   7.237  0.1284 -1.0920 -0.4400
 4920TIP3    H236396   2.075   5.126   7.113 -0.5269  2.3313  0.6304
 4921TIP3   OH236397   1.717   5.939   0.245 -0.6343 -0.5063  0.9256
 4921TIP3    H136398   1.733   6.018   0.297  0.2981  0.8189 -1.2181
 4921TIP3    H236399   1.804   5.912   0.216 -1.1064 -1.2874  0.2007
 4922TIP3   OH236400   6.211   4.421   7.875 -0.0902 -0.1003  0.3376
 4922TIP3    H136401   6.286   4.454   7.925  0.1121 -0.1570  0.0709
 4922TIP3    H236402   6.222   4.459   7.788 -1.8451  2.1602  0.9898
 4923TIP3   OH236403   1.682   1.694   8.826  0.0188  0.2027 -0.0872
 4923TIP3    H136404   1.598   1.737   8.808  0.4685  0.3606 -2.0526
 4923TIP3    H236405   1.719   1.744   8.899 -0.5804  1.5916 -0.7015
 4924TIP3   OH236406   3.137   0.662   1.215 -0.8582 -0.4102 -0.3386
 4924TIP3    H136407   3.107   0.707   1.136  2.7640 -1.4629 -2.5622
 4924TIP3    H236408   3.209   0.716   1.248 -0.4060 -1.4988  0.5166
 4925TIP3   OH236409   0.251   4.571   2.211 -0.1488  0.4586 -0.3663
 4925TIP3    H136410   0.274   4.616   2.292 -0.2192  1.0036 -0.6476
 4925TIP3    H236411   0.155   4.578   2.207 -0.1691  0.1960 -0.3626
 4926TIP3   OH236412   6.771   0.779   0.933  0.2692 -0.0001  0.5764
 4926TIP3    H136413   6.791   0.690   0.903 -1.4373  0.2333 -1.5256
 4926TIP3    H236414   6.679   0.775   0.958 -0.4017  1.5421 -1.3744
 4927TIP3   OH236415   0.336   4.683   8.226 -0.0894 -0.8081 -0.7253
 4927TIP3    H136416   0.341   4.588   8.234 -2.0298 -0.9586 -0.8566
 4927TIP3    H236417   0.332   4.699   8.131  0.1350 -0.5949 -0.7004
 4928TIP3   OH236418   3.649   1.400   7.428 -0.0014  0.4475  0.4546
 4928TIP3    H136419   3.575   1.339   7.423  0.3337  0.1145 -2.3002
 4928TIP3    H236420   3.626   1.471   7.368  1.7146  0.5578 -0.1408
 4929TIP3   OH236421   2.497   1.907   0.923  0.4162 -0.5352 -0.4536
 4929TIP3    H136422   2.503   1.848   0.999  1.0829 -0.3287 -0.3422
 4929TIP3    H236423   2.452   1.855   0.857 -1.6131 -0.1999  0.5782
 4930TIP3   OH236424   6.196   5.728   2.651  0.5823 -0.2720 -0.2992
 4930TIP3    H136425   6.287   5.713   2.626  0.4876 -1.2429 -0.1026
 4930TIP3    H236426   6.152   5.646   2.629 -0.3575  0.3738 -0.8885
 4931TIP3   OH236427   0.876   4.210   7.335 -0.1155 -0.0803  0.4306
 4931TIP3    H136428   0.816   4.284   7.337 -1.8528 -1.3673 -0.9456
 4931TIP3    H236429   0.823   4.136   7.306  2.3742 -1.0463 -2.1818
 4932TIP3   OH236430   0.062   4.544   1.196  0.4013  0.4614 -0.3475
 4932TIP3    H136431   0.031   4.453   1.196 -1.8904  1.1668 -1.2696
 4932TIP3    H236432   0.029   4.580   1.279  2.6837  0.1076  0.8051
 4933TIP3   OH236433   3.040   3.536   1.391  0.1092 -0.4874  0.6077
 4933TIP3    H136434   3.102   3.608   1.377 -0.5986  0.0154 -0.0137
 4933TIP3    H236435   2.964   3.578   1.432 -0.0720 -0.9881  0.7932
 4934TIP3   OH236436   6.107   2.269   1.262  0.2972 -0.1978 -0.4207
 4934TIP3    H136437   6.097   2.318   1.181 -0.6358  0.8550  0.2974
 4934TIP3    H236438   6.166   2.323   1.315 -0.3012 -0.1007  0.1633
 4935TIP3   OH236439   5.278   3.338   2.517  0.2195 -0.1863  0.6806
 4935TIP3    H136440   5.364   3.297   2.534  0.6848  0.3438 -0.3259
 4935TIP3    H236441   5.292   3.431   2.536 -0.4379 -0.2554  1.5488
 4936TIP3   OH236442   1.780   5.478   1.406 -0.4788  0.5027 -0.0326
 4936TIP3    H136443   1.703   5.440   1.363  0.0721  1.2404 -1.7540
 4936TIP3    H236444   1.744   5.536   1.473 -1.4085  0.2222 -0.2760
 4937TIP3   OH236445   3.936   6.172   1.340  0.6178  0.2808 -0.5610
 4937TIP3    H136446   4.015   6.130   1.374  0.8715  0.9302 -0.3389
 4937TIP3    H236447   3.886   6.100   1.299  1.0642 -0.2222 -0.2313
 4938TIP3   OH236448   5.339   2.278   2.656  0.3722  0.5332 -0.2886
 4938TIP3    H136449   5.341   2.183   2.644  0.2053  0.3421  1.0656
 4938TIP3    H236450   5.267   2.308   2.601 -0.7476 -0.3601  0.6461
 4939TIP3   OH236451   4.472   6.481   0.762  0.0481 -0.3094  0.2921
 4939TIP3    H136452   4.517   6.522   0.836  0.8394 -1.2909  0.3724
 4939TIP3    H236453   4.450   6.393   0.793 -1.2385 -0.1288 -0.0309
 4940TIP3   OH236454   3.919   6.525   7.290 -0.0368  0.2852 -0.2690
 4940TIP3    H136455   3.924   6.619   7.273 -0.8762  0.3280 -0.3335
 4940TIP3    H236456   3.994   6.507   7.347  0.6606  0.8163 -0.9894
 4941TIP3   OH236457   1.700   6.220   2.227  0.6248  0.1804  0.3781
 4941TIP3    H136458   1.697   6.185   2.316  2.5092  0.7413  0.6915
 4941TIP3    H236459   1.765   6.166   2.182  0.3020  0.4534 -0.4321
 4942TIP3   OH236460   3.825   6.500   7.568 -0.2066  0.4062 -0.0707
 4942TIP3    H136461   3.832   6.520   7.474  0.5313 -1.1429 -0.3647
 4942TIP3    H236462   3.909   6.462   7.591 -1.3864 -2.0556  0.4954
 4943TIP3   OH236463   5.402   3.882   1.479 -0.2184 -0.1146 -0.2129
 4943TIP3    H136464   5.382   3.855   1.389 -1.1404 -0.9747  0.2244
 4943TIP3    H236465   5.490   3.848   1.495  0.1591  0.4791 -0.9458
 4944TIP3   OH236466   0.920   6.469   1.032  0.2944 -0.5342  0.2657
 4944TIP3    H136467   0.883   6.558   1.035 -1.8120 -0.9138 -4.8558
 4944TIP3    H236468   1.013   6.483   1.016 -0.0697  0.8427 -0.8502
 4945TIP3   OH236469   2.262   0.052   8.323  0.1968  0.1120 -0.1653
 4945TIP3    H136470   2.247   0.135   8.367 -3.1967 -0.5264  0.1489
 4945TIP3    H236471   2.288  -0.008   8.393  2.5017  0.7630 -0.3723
 4946TIP3   OH236472   1.602   2.066   1.275 -0.2243 -0.6481  0.2921
 4946TIP3    H136473   1.607   2.135   1.341 -0.3145 -0.6916  0.3450
 4946TIP3    H236474   1.678   2.010   1.293  0.2566 -0.1653 -0.2004
 4947TIP3   OH236475   5.286   1.351   0.862 -0.1775 -0.2640  0.6756
 4947TIP3    H136476   5.274   1.302   0.780  0.5748  0.5643  0.0493
 4947TIP3    H236477   5.304   1.284   0.928 -0.6266 -0.9320  0.1359
 4948TIP3   OH236478   0.599   0.597   2.178 -0.2629  0.0368  0.6791
 4948TIP3    H136479   0.584   0.608   2.272  0.1005 -1.0222  0.8711
 4948TIP3    H236480   0.566   0.678   2.139  0.4043  0.8659  1.7974
 4949TIP3   OH236481   6.432   4.644   7.601 -0.0687  0.2422 -0.5748
 4949TIP3    H136482   6.387   4.728   7.590  1.7567  1.1149 -2.0037
 4949TIP3    H236483   6.446   4.612   7.512  0.1962 -1.0654 -0.0863
 4950TIP3   OH236484   6.432   4.822   8.266 -0.5771  0.0490  0.1887
 4950TIP3    H136485   6.499   4.755   8.255 -0.3925 -0.0247  1.5652
 4950TIP3    H236486   6.425   4.864   8.180 -1.5074 -2.4464 -1.0800
 4951TIP3   OH236487   1.594   1.147   7.749 -0.1928  0.0705 -1.4156
 4951TIP3    H136488   1.653   1.089   7.700  1.6126  1.4111 -0.9385
 4951TIP3    H236489   1.650   1.186   7.817 -2.0080  0.2659  0.0364
 4952TIP3   OH236490   4.111   3.885   1.828  0.2333 -0.4911 -0.1834
 4952TIP3    H136491   4.114   3.790   1.843 -1.3905 -0.6065 -0.3777
 4952TIP3    H236492   4.019   3.908   1.840  0.2271  0.7153 -2.1826
 4953TIP3   OH236493   3.554   1.426   1.409 -0.4475  0.7947  0.1714
 4953TIP3    H136494   3.617   1.371   1.362 -0.2288  1.2883 -0.1146
 4953TIP3    H236495   3.469   1.386   1.391 -0.3665  0.9575 -0.6260
 4954TIP3   OH236496   3.080   3.230   7.779  0.2181  0.7871  0.4686
 4954TIP3    H136497   3.094   3.152   7.725  2.2223  1.3622  0.0549
 4954TIP3    H236498   2.997   3.266   7.748 -0.9792 -1.3739  0.9704
 4955TIP3   OH236499   4.342   1.521   0.305 -0.2676  0.0836 -0.0891
 4955TIP3    H136500   4.341   1.606   0.348  1.3854  0.5549 -0.9198
 4955TIP3    H236501   4.393   1.465   0.363  2.5323  0.8877 -1.5773
 4956TIP3   OH236502   5.643   2.972   1.360 -0.3669 -0.6734 -0.1115
 4956TIP3    H136503   5.593   2.982   1.441 -0.4445 -0.1926 -0.2125
 4956TIP3    H236504   5.676   3.060   1.342 -0.2948 -0.7917 -0.5658
 4957TIP3   OH236505   1.656   3.165   8.442 -0.0348  0.2007  0.2492
 4957TIP3    H136506   1.667   3.140   8.351 -0.2948 -0.4875  0.4068
 4957TIP3    H236507   1.590   3.235   8.440  1.3010  1.5057 -0.2719
 4958TIP3   OH236508   3.651   5.415   2.557 -0.1218 -0.2358  1.1194
 4958TIP3    H136509   3.654   5.495   2.505  0.6255 -1.6085 -1.0899
 4958TIP3    H236510   3.640   5.445   2.647  3.2433  2.5067  0.8128
 4959TIP3   OH236511   1.463   1.700   0.973 -0.5152  0.2202  0.2250
 4959TIP3    H136512   1.394   1.644   1.009 -2.0682  2.3457  0.7359
 4959TIP3    H236513   1.457   1.686   0.878 -1.8576  0.5728  0.2385
 4960TIP3   OH236514   1.981   4.189   7.337 -0.4310 -0.3963  0.3648
 4960TIP3    H136515   1.963   4.095   7.340 -0.2224 -0.4511 -0.0594
 4960TIP3    H236516   2.076   4.195   7.341 -0.4816 -0.1512  1.5031
 4961TIP3   OH236517   0.949   4.043   7.519 -0.0671  0.0672  0.2637
 4961TIP3    H136518   0.861   4.022   7.550 -0.9982  0.2360 -2.1018
 4961TIP3    H236519   0.936   4.111   7.453  2.1531  2.4430  2.0189
 4962TIP3   OH236520   3.233   4.926   3.154  0.3700  0.0532 -0.4261
 4962TIP3    H136521   3.230   4.958   3.064 -0.3308  0.8207 -0.1392
 4962TIP3    H236522   3.180   4.988   3.204  1.0245 -0.1666  0.5822
 4963TIP3   OH236523   1.194   2.338   0.639 -0.5241  0.3369 -0.4723
 4963TIP3    H136524   1.153   2.270   0.692 -0.6425  1.5045  0.9942
 4963TIP3    H236525   1.143   2.417   0.656  0.7071  1.2168 -0.6724
 4964TIP3   OH236526   0.607   2.079   2.429 -0.4680 -0.6050  0.3182
 4964TIP3    H136527   0.562   2.080   2.344 -1.3530 -1.4730  0.7415
 4964TIP3    H236528   0.697   2.102   2.410 -0.7966 -0.1898 -0.7736
 4965TIP3   OH236529   5.198   5.629   2.339  0.7134 -0.4864 -0.3901
 4965TIP3    H136530   5.227   5.662   2.254 -1.0552 -0.4885 -1.0493
 4965TIP3    H236531   5.240   5.544   2.348  1.3932 -0.2212 -0.9875
 4966TIP3   OH236532   1.695   4.911   7.026  0.4974  0.1159 -0.6790
 4966TIP3    H136533   1.637   4.936   7.098 -0.1605  0.5383 -1.3250
 4966TIP3    H236534   1.680   4.979   6.960 -0.0979 -1.0938 -1.8392
 4967TIP3   OH236535   3.737   3.654   7.987 -0.2660  0.8195 -0.2075
 4967TIP3    H136536   3.776   3.576   7.948 -1.1312  0.6523 -0.7518
 4967TIP3    H236537   3.727   3.632   8.080 -0.4522  0.3071 -0.3491
 4968TIP3   OH236538   6.601   0.944   2.884  0.2813  0.8076 -0.6602
 4968TIP3    H136539   6.546   0.965   2.959  0.7163  0.2397 -0.1780
 4968TIP3    H236540   6.651   1.024   2.867 -1.3268  1.6680 -1.6951
 4969TIP3   OH236541   0.303   3.959   0.119 -0.0982  0.0666  0.4551
 4969TIP3    H136542   0.335   3.869   0.109 -0.3773  0.1150 -0.9993
 4969TIP3    H236543   0.292   3.991   0.030  1.0678  1.9423  0.9344
 4970TIP3   OH236544   3.860   0.839   8.346 -0.3288 -0.2511 -0.1984
 4970TIP3    H136545   3.875   0.927   8.380  0.6316 -0.2530 -0.5810
 4970TIP3    H236546   3.781   0.847   8.292  0.1426  0.5432 -0.7958
 4971TIP3   OH236547   6.236   0.118   0.914  0.2749 -0.5540  0.2087
 4971TIP3    H136548   6.222   0.209   0.888  0.4965 -0.7505 -0.6187
 4971TIP3    H236549   6.309   0.122   0.976  0.7833 -0.2489 -0.4022
 4972TIP3   OH236550   5.486   3.469   7.761  0.0732 -0.0344  0.4391
 4972TIP3    H136551   5.479   3.564   7.762  0.6566  0.0325 -0.6468
 4972TIP3    H236552   5.428   3.441   7.690 -0.2407 -0.5113  0.8735
 4973TIP3   OH236553   6.317   1.350   1.019 -0.0592 -0.6285  0.2413
 4973TIP3    H136554   6.271   1.315   1.096  0.1815 -0.5650  0.4153
 4973TIP3    H236555   6.259   1.418   0.986 -1.1904 -2.0679 -0.9034
 4974TIP3   OH236556   5.421   1.545   1.446  0.3787  0.1021 -0.4971
 4974TIP3    H136557   5.484   1.575   1.511 -0.6221 -0.3842  0.7444
 4974TIP3    H236558   5.351   1.611   1.448 -0.9358 -1.2447  0.9045
 4975TIP3   OH236559   0.005   0.781   1.564 -0.7477 -0.1735  0.2317
 4975TIP3    H136560   0.013   0.686   1.550 -0.5834  0.0709 -1.4301
 4975TIP3    H236561   0.093   0.815   1.546 -0.3513  0.1521  2.4311
 4976TIP3   OH236562   5.136   0.461   7.994 -0.1194  0.0803 -0.2044
 4976TIP3    H136563   5.064   0.503   8.042  0.4976 -0.9339  1.7407
 4976TIP3    H236564   5.095   0.425   7.916 -1.0500  2.4051 -0.8786
 4977TIP3   OH236565   3.216   5.798   0.289  0.1795 -0.2546  0.7367
 4977TIP3    H136566   3.283   5.755   0.236  1.1595  0.6090  1.2227
 4977TIP3    H236567   3.164   5.727   0.325  1.6757 -1.0620  1.4225
 4978TIP3   OH236568   0.873   4.756   6.915 -0.2247 -0.1663  0.0075
 4978TIP3    H136569   0.820   4.723   6.987 -1.0282 -1.7509 -1.2381
 4978TIP3    H236570   0.957   4.711   6.924 -0.2385 -0.1718  0.1053
 4979TIP3   OH236571   4.969   0.880   8.439  0.5611 -0.5358  0.0449
 4979TIP3    H136572   4.881   0.898   8.404  0.9460  2.7324  0.4718
 4979TIP3    H236573   4.993   0.797   8.398 -1.3151  0.2015 -2.9586
 4980TIP3   OH236574   1.928   4.435   1.366 -0.6613 -1.1420  0.1688
 4980TIP3    H136575   1.842   4.462   1.400 -1.0421 -0.9452 -0.9169
 4980TIP3    H236576   1.917   4.434   1.271  0.8874  0.1279 -0.0709
 4981TIP3   OH236577   0.401   1.042   1.215 -0.2713 -0.4828 -0.0935
 4981TIP3    H136578   0.328   1.046   1.277  0.1573 -2.8309  0.6743
 4981TIP3    H236579   0.414   0.948   1.200  2.9700 -0.2132  0.3016
 4982TIP3   OH236580   3.912   3.857   8.105 -0.0370 -0.3081 -0.6259
 4982TIP3    H136581   3.993   3.805   8.104  0.7669  0.8982 -0.3044
 4982TIP3    H236582   3.858   3.817   8.036 -0.2130 -2.6796  0.7622
 4983TIP3   OH236583   6.006   4.951   7.232  0.0821 -0.0309 -0.1351
 4983TIP3    H136584   5.966   4.997   7.158 -0.5171 -1.4029 -0.7118
 4983TIP3    H236585   5.933   4.906   7.274  0.6675 -0.5862  0.2974
 4984TIP3   OH236586   3.639   5.538   8.641 -0.7842 -0.1791 -0.8424
 4984TIP3    H136587   3.560   5.492   8.611 -0.3398 -0.2501 -1.9735
 4984TIP3    H236588   3.708   5.471   8.638 -0.4135  0.2137 -1.1776
 4985TIP3   OH236589   5.172   4.143   2.060 -0.3841 -0.0577 -0.3376
 4985TIP3    H136590   5.238   4.167   2.125 -0.5073 -0.2569 -0.1365
 4985TIP3    H236591   5.105   4.095   2.110 -0.4671 -0.2352 -0.6135
 4986TIP3   OH236592   0.530   2.267   2.698  0.2127  0.1237 -0.4629
 4986TIP3    H136593   0.608   2.217   2.720  0.1883  0.5648  0.6996
 4986TIP3    H236594   0.492   2.221   2.623  1.5880 -0.0815 -1.0585
 4987TIP3   OH236595   0.133   1.506   1.002 -0.3388 -0.6108  0.0108
 4987TIP3    H136596   0.130   1.430   0.944  2.0699 -1.3384  0.7556
 4987TIP3    H236597   0.205   1.559   0.969 -0.8358  0.4713  0.5968
 4988TIP3   OH236598   1.909   1.806   2.263 -0.3371  0.1853  0.2236
 4988TIP3    H136599   1.879   1.738   2.202  0.3335  0.0140  0.0727
 4988TIP3    H236600   1.882   1.775   2.349 -2.3965  1.0259 -0.0673
 4989TIP3   OH236601   4.710   3.788   7.378 -0.0886  0.1030 -0.7114
 4989TIP3    H136602   4.704   3.774   7.283 -1.6002  1.2234 -0.8285
 4989TIP3    H236603   4.798   3.821   7.392  0.7302 -1.6741 -1.4813
 4990TIP3   OH236604   3.830   4.118   6.715 -0.2511  0.3309  0.3058
 4990TIP3    H136605   3.830   4.196   6.659  1.0853  0.7091  0.7827
 4990TIP3    H236606   3.828   4.153   6.804  0.1645 -0.1699  0.5198
 4991TIP3   OH236607   3.755   3.231   8.311 -0.0706  0.0060  0.0140
 4991TIP3    H136608   3.708   3.148   8.320 -0.8561  0.1840 -2.0127
 4991TIP3    H236609   3.686   3.295   8.292  0.5524  1.1029  1.3273
 4992TIP3   OH236610   4.688   6.766   8.461 -0.1441  0.0727  0.0561
 4992TIP3    H136611   4.638   6.842   8.489 -0.7077 -0.0732 -0.5149
 4992TIP3    H236612   4.767   6.768   8.514 -0.1040  1.1120 -0.0179
 4993TIP3   OH236613   4.354   3.502   8.817 -0.2635  0.2239  0.2715
 4993TIP3    H136614   4.422   3.569   8.811  0.4601 -0.5953 -1.6950
 4993TIP3    H236615   4.403   3.419   8.814 -1.1807 -0.4140  1.8624
 4994TIP3   OH236616   3.325   3.288   7.908 -0.3762 -0.4580 -0.4493
 4994TIP3    H136617   3.355   3.365   7.860  0.4545 -0.1998  0.4485
 4994TIP3    H236618   3.264   3.245   7.849  0.6678 -0.1919 -1.7622
 4995TIP3   OH236619   1.858   5.452   7.816 -0.0381 -0.3283 -0.1893
 4995TIP3    H136620   1.785   5.403   7.778 -0.9548  2.2193 -2.0321
 4995TIP3    H236621   1.931   5.391   7.817 -1.6934 -2.3952 -0.0964
 4996TIP3   OH236622   1.223   4.000   7.594  0.5969  0.5126 -0.0272
 4996TIP3    H136623   1.230   3.909   7.564  1.2482  0.4022  0.4466
 4996TIP3    H236624   1.145   4.033   7.550 -0.7577 -0.8249  1.2379
 4997TIP3   OH236625   4.461   6.469   0.498 -0.3611  0.3191 -0.4246
 4997TIP3    H136626   4.483   6.556   0.465  1.5229 -0.0762 -0.3313
 4997TIP3    H236627   4.474   6.475   0.592  0.2635 -0.1827 -0.4743
 4998TIP3   OH236628   4.028   0.976   7.659  0.4253 -0.4680 -0.2657
 4998TIP3    H136629   4.082   0.996   7.582  1.8512  1.0636  1.0725
 4998TIP3    H236630   3.946   1.023   7.643  0.6237 -0.3415 -0.9567
 4999TIP3   OH236631   1.924   1.317   8.731 -0.1971  0.2406 -0.4364
 4999TIP3    H136632   1.967   1.244   8.775 -0.5054  0.3433  0.0376
 4999TIP3    H236633   1.956   1.312   8.641  1.7631  1.0480  0.1642
 5000TIP3   OH236634   6.063   2.353   1.587  0.0934 -0.2081  0.9360
 5000TIP3    H136635   6.026   2.333   1.501  0.9854 -1.2909  0.7864
 5000TIP3    H236636   5.999   2.412   1.627  0.0123  0.9093 -0.7436
 5001TIP3   OH236637   6.099   6.351   2.364 -0.7878  0.6381 -0.1272
 5001TIP3    H136638   6.060   6.432   2.396  2.2783  1.9418  0.6914
 5001TIP3    H236639   6.041   6.282   2.397 -2.2657  2.3810  1.1111
 5002TIP3   OH236640   3.330   1.801   0.246  0.2821 -0.3477  0.0989
 5002TIP3    H136641   3.420   1.828   0.229  0.4899 -1.1763 -0.1520
 5002TIP3    H236642   3.277   1.859   0.191  0.5595  1.0098  1.2050
 5003TIP3   OH236643   0.852   5.855   1.536 -0.3302  0.1893 -0.0588
 5003TIP3    H136644   0.935   5.901   1.529  0.0193 -0.2233  1.1590
 5003TIP3    H236645   0.829   5.832   1.446  0.1438  1.5678 -0.5495
 5004TIP3   OH236646   5.944   4.732   1.107 -1.3107 -0.4000 -0.0799
 5004TIP3    H136647   5.894   4.666   1.157  1.8562 -2.6424  0.4528
 5004TIP3    H236648   5.943   4.700   1.017 -0.7609 -0.5491 -0.0382
 5005TIP3   OH236649   6.283   6.684   7.803 -0.0156 -0.2470  0.8152
 5005TIP3    H136650   6.240   6.677   7.718 -0.9391  1.5977  1.0803
 5005TIP3    H236651   6.229   6.747   7.852  2.5992  1.7400  1.3890
 5006TIP3   OH236652   3.181   0.641   1.993  0.4361 -0.2010 -0.2976
 5006TIP3    H136653   3.183   0.703   2.066  3.4458 -1.7368  1.1070
 5006TIP3    H236654   3.228   0.685   1.922 -0.5452  0.4327 -0.5748
 5007TIP3   OH236655   4.404   2.168   2.054 -0.0838  0.2499 -0.5271
 5007TIP3    H136656   4.352   2.173   2.135  0.0751 -0.4787 -0.3786
 5007TIP3    H236657   4.426   2.076   2.046  0.7277  0.4765 -0.8880
 5008TIP3   OH236658   6.214   0.799   8.613  0.0720  0.2386  0.0468
 5008TIP3    H136659   6.166   0.849   8.548  0.7215 -0.6584 -1.1529
 5008TIP3    H236660   6.290   0.765   8.567  1.1579  0.5046  1.5694
 5009TIP3   OH236661   5.415   3.550   0.020  0.1274 -0.7232  0.0078
 5009TIP3    H136662   5.433   3.570   0.111  1.9790  1.9361 -0.8212
 5009TIP3    H236663   5.491   3.583  -0.028 -1.1828 -1.1675 -2.6020
 5010TIP3   OH236664   2.636   6.722   8.599 -0.0112  0.4493  0.7510
 5010TIP3    H136665   2.637   6.815   8.621  1.9520  0.4618  0.7822
 5010TIP3    H236666   2.715   6.709   8.546 -0.3067 -1.1770  0.6698
 5011TIP3   OH236667   4.683   2.742   2.590  0.0179  0.0452 -0.0274
 5011TIP3    H136668   4.697   2.651   2.615 -0.4085 -0.1241 -0.3992
 5011TIP3    H236669   4.770   2.775   2.567  0.2173 -0.1773  0.3989
 5012TIP3   OH236670   5.158   3.273   1.283 -0.3406  0.4954  0.0478
 5012TIP3    H136671   5.103   3.220   1.340 -0.7343  0.3469 -0.4680
 5012TIP3    H236672   5.122   3.261   1.196 -0.3018  1.4422 -0.1118
 5013TIP3   OH236673   2.676   4.807   1.011  0.3537  0.3629 -0.3661
 5013TIP3    H136674   2.699   4.796   0.919  1.5915 -0.4421  0.0196
 5013TIP3    H236675   2.711   4.729   1.055 -1.8662 -0.2208  0.5189
 5014TIP3   OH236676   2.172   2.920   8.846 -0.3594  0.1106 -0.6653
 5014TIP3    H136677   2.252   2.924   8.793  0.0093 -0.3675 -0.1604
 5014TIP3    H236678   2.131   2.837   8.821  0.0381 -0.3296  0.0863
 5015TIP3   OH236679   5.237   3.162   0.193  0.4082 -0.3311  0.0046
 5015TIP3    H136680   5.214   3.211   0.272  1.7618  0.0792  0.1739
 5015TIP3    H236681   5.295   3.092   0.224 -1.2108 -1.8708 -0.2881
 5016TIP3   OH236682   3.517   6.668   0.631 -0.4449  0.2146 -0.4681
 5016TIP3    H136683   3.547   6.697   0.545  0.5777 -0.8700 -0.4981
 5016TIP3    H236684   3.530   6.573   0.631  0.1351  0.2544  1.0860
 5017TIP3   OH236685   6.114   0.136   7.564 -0.3986  0.0808 -0.2157
 5017TIP3    H136686   6.116   0.173   7.653  2.6422 -1.8182  0.6721
 5017TIP3    H236687   6.038   0.078   7.564 -0.4269  0.0832  1.1922
 5018TIP3   OH236688   1.124   3.743   0.670 -0.0303  0.7455  0.1595
 5018TIP3    H136689   1.089   3.705   0.590 -0.1554  0.0024  0.5525
 5018TIP3    H236690   1.114   3.673   0.736  0.2072  1.2845  0.7800
 5019TIP3   OH236691   0.368   2.934   8.819 -0.1333  0.2599  0.1253
 5019TIP3    H136692   0.449   2.884   8.825 -0.2632  0.0740  0.3611
 5019TIP3    H236693   0.376   2.984   8.737 -0.1787 -0.4649 -0.3279
 5020TIP3   OH236694   1.383   4.543   7.778 -0.2392 -0.2001  0.0770
 5020TIP3    H136695   1.336   4.531   7.860  2.1326  0.1844  1.6120
 5020TIP3    H236696   1.378   4.637   7.761 -0.6245 -0.2622 -0.1699
 5021TIP3   OH236697   2.101   3.637   0.434 -1.0142 -0.2557  0.2651
 5021TIP3    H136698   2.033   3.569   0.432 -0.2980 -0.9632 -0.3088
 5021TIP3    H236699   2.072   3.696   0.504 -1.7420 -1.0409  0.6582
 5022TIP3   OH236700   1.449   3.519   8.821  0.2391  0.3708 -0.5041
 5022TIP3    H136701   1.391   3.451   8.858 -0.2028  2.1706  2.4501
 5022TIP3    H236702   1.389   3.581   8.780  0.0886  1.6303  1.5157
 5023TIP3   OH236703   0.445   4.623   1.604  0.3068 -0.4596 -0.0787
 5023TIP3    H136704   0.504   4.549   1.616  0.2689 -0.2082  1.9663
 5023TIP3    H236705   0.458   4.678   1.682 -0.3451  1.2134 -1.0842
 5024TIP3   OH236706   6.719   0.815   8.071  0.0295  0.3667  0.1402
 5024TIP3    H136707   6.742   0.833   7.980  0.7544 -0.0739  0.2262
 5024TIP3    H236708   6.722   0.719   8.077 -1.1656  0.3298  0.3351
 5025TIP3   OH236709   5.783   5.949   8.597  0.1384 -0.9566 -0.4156
 5025TIP3    H136710   5.733   5.884   8.548 -1.1896 -0.2844 -0.0003
 5025TIP3    H236711   5.866   5.956   8.549  0.1188 -2.5751 -0.7387
 5026TIP3   OH236712   5.794   1.284   8.077 -0.3565  0.6845  0.4881
 5026TIP3    H136713   5.711   1.236   8.086 -0.4686 -0.1725 -3.3474
 5026TIP3    H236714   5.769   1.376   8.081 -1.5626  0.4396 -0.4830
 5027TIP3   OH236715   6.448   1.867   1.093  0.0653  0.1740  0.0512
 5027TIP3    H136716   6.511   1.839   1.159  2.1842  0.5417 -1.7036
 5027TIP3    H236717   6.455   1.962   1.091 -0.3831  0.2055 -0.3232
 5028TIP3   OH236718   0.244   3.348   0.907  0.4229  0.2932  0.1649
 5028TIP3    H136719   0.191   3.318   0.833 -0.1910 -1.8988  1.3967
 5028TIP3    H236720   0.271   3.437   0.883 -0.6200  0.0517 -2.1942
 5029TIP3   OH236721   0.676   0.889   0.863  0.3484 -1.1969 -0.5165
 5029TIP3    H136722   0.592   0.843   0.856  0.0955 -0.5485 -2.4438
 5029TIP3    H236723   0.716   0.878   0.777  1.1917  0.4489 -0.3684
 5030TIP3   OH236724   3.462   1.422   0.989  0.1623 -0.7043  0.0811
 5030TIP3    H136725   3.444   1.489   1.054 -0.7286 -1.6905  0.8908
 5030TIP3    H236726   3.531   1.368   1.027 -1.3912 -2.1815  0.9422
 5031TIP3   OH236727   2.413   0.996   7.310 -0.1706 -0.0352 -0.2349
 5031TIP3    H136728   2.357   1.065   7.274  0.4327  0.1833 -0.7696
 5031TIP3    H236729   2.355   0.920   7.316 -0.8007  0.4645  0.2153
 5032TIP3   OH236730   0.863   3.403   1.411 -0.4034 -0.0967 -0.5741
 5032TIP3    H136731   0.850   3.376   1.502  0.1424 -1.8735 -1.0003
 5032TIP3    H236732   0.784   3.453   1.390 -0.0592  1.2880  1.1774
 5033TIP3   OH236733   1.382   1.359   1.976 -0.0522  0.2769  0.2515
 5033TIP3    H136734   1.461   1.363   1.923 -1.3203 -0.9665 -1.8737
 5033TIP3    H236735   1.411   1.325   2.061  1.6757 -0.2088 -0.5026
 5034TIP3   OH236736   3.348   0.211   7.171  0.2292 -0.5857  0.6303
 5034TIP3    H136737   3.350   0.121   7.203 -2.7431 -0.9487  0.0327
 5034TIP3    H236738   3.265   0.246   7.203 -0.5868  0.6165 -2.4877
 5035TIP3   OH236739   1.387   0.685   0.144  0.2673  0.3202  0.0749
 5035TIP3    H136740   1.293   0.665   0.143  0.3877 -0.7688  2.6362
 5035TIP3    H236741   1.392   0.777   0.169 -0.1297  0.2319  0.4939
 5036TIP3   OH236742   6.511   4.947   0.460  0.0192 -0.8660 -0.0314
 5036TIP3    H136743   6.554   4.944   0.374 -1.6816 -0.1208 -0.9722
 5036TIP3    H236744   6.581   4.965   0.522  1.1012 -0.0237 -1.4386
 5037TIP3   OH236745   6.780   3.111   8.605  0.1838  0.1363  0.4117
 5037TIP3    H136746   6.703   3.061   8.577 -0.3668 -0.2456  2.4308
 5037TIP3    H236747   6.803   3.164   8.529 -0.1319 -2.0409 -1.3252
 5038TIP3   OH236748   5.453   4.395   8.714  0.8832 -0.1147 -0.6416
 5038TIP3    H136749   5.378   4.434   8.759  0.9659 -0.5924 -0.0827
 5038TIP3    H236750   5.528   4.450   8.739  0.7876  0.1320 -0.8910
 5039TIP3   OH236751   3.840   4.905   2.221  0.1624 -0.3399 -0.5873
 5039TIP3    H136752   3.922   4.929   2.265 -0.4648  0.1310  0.3679
 5039TIP3    H236753   3.847   4.811   2.207  1.5159 -0.0816 -1.9424
 5040TIP3   OH236754   2.195   0.000   1.576 -0.1121 -0.0695  0.8537
 5040TIP3    H136755   2.188  -0.029   1.485  1.5598 -1.3274  1.0761
 5040TIP3    H236756   2.289  -0.003   1.595 -0.4329  0.1046  2.6454
 5041TIP3   OH236757   0.149   0.557   7.069 -0.2732 -0.2149 -0.0237
 5041TIP3    H136758   0.145   0.600   6.984 -0.3489 -1.0380 -0.4529
 5041TIP3    H236759   0.083   0.601   7.121  1.6200  2.1426  0.5165
 5042TIP3   OH236760   1.985   1.124   2.122 -0.3432  0.0784  0.2383
 5042TIP3    H136761   2.028   1.086   2.199  0.6316  3.2271  1.4290
 5042TIP3    H236762   2.033   1.205   2.106 -2.5440  1.1115 -1.7435
 5043TIP3   OH236763   1.164   5.065   8.781 -1.0261 -0.1077  0.0174
 5043TIP3    H136764   1.113   5.130   8.829 -2.2044 -0.3069 -0.9228
 5043TIP3    H236765   1.193   5.112   8.702  1.6500  0.4931  1.2614
 5044TIP3   OH236766   1.740   3.368   1.101  0.5200  0.0264  0.1448
 5044TIP3    H136767   1.693   3.416   1.169 -0.9760 -0.7000 -0.3324
 5044TIP3    H236768   1.770   3.288   1.144  1.6635  0.6310  0.5324
 5045TIP3   OH236769   2.284   2.491   8.615 -0.3376 -0.1667  0.2396
 5045TIP3    H136770   2.346   2.418   8.624 -1.1044 -1.1563 -1.8687
 5045TIP3    H236771   2.313   2.538   8.537 -1.0921  0.5488  0.3721
 5046TIP3   OH236772   4.206   5.423   2.234  0.5431 -0.1679  0.3048
 5046TIP3    H136773   4.141   5.417   2.164 -0.0439  0.2458  0.8017
 5046TIP3    H236774   4.237   5.514   2.229 -0.7839  0.4119  1.6757
 5047TIP3   OH236775   0.363   3.135   1.289 -0.0515  0.4197  0.2557
 5047TIP3    H136776   0.407   3.073   1.347  0.5846 -0.4482 -1.1149
 5047TIP3    H236777   0.432   3.197   1.264 -0.0009  0.0597 -0.5342
 5048TIP3   OH236778   4.020   5.591   8.665 -0.4310  0.2514  0.2758
 5048TIP3    H136779   3.959   5.517   8.657 -0.5551  0.3704  0.1100
 5048TIP3    H236780   4.102   5.552   8.692 -1.3170  0.3496  3.5293
 5049TIP3   OH236781   0.016   5.427   7.259  0.2092 -0.3133 -0.0583
 5049TIP3    H136782   0.097   5.381   7.280 -0.4181 -2.2188 -1.5005
 5049TIP3    H236783  -0.046   5.357   7.235 -1.7582  1.1018  0.6110
 5050TIP3   OH236784   1.186   1.677   7.844 -0.1116 -0.2825  0.0569
 5050TIP3    H136785   1.226   1.590   7.848 -0.8048 -0.5702  1.7783
 5050TIP3    H236786   1.166   1.691   7.752  1.2892 -1.3461 -0.4426
 5051TIP3   OH236787   3.393   6.760   8.619  0.2823  0.2414  0.5185
 5051TIP3    H136788   3.329   6.765   8.548  0.4710  1.3063  0.4167
 5051TIP3    H236789   3.438   6.844   8.617  0.1372  0.3758  2.0527
 5052TIP3   OH236790   5.408   0.168   6.794  0.2537  0.0556 -0.4916
 5052TIP3    H136791   5.470   0.110   6.749  0.2353 -0.6988  0.4252
 5052TIP3    H236792   5.453   0.195   6.873  1.6848  4.1692 -2.4262
 5053TIP3   OH236793   0.189   5.196   0.256  0.2063 -0.3519 -0.5383
 5053TIP3    H136794   0.195   5.103   0.235  1.8494 -0.3018 -0.4643
 5053TIP3    H236795   0.236   5.240   0.185 -0.0707  0.3842 -0.2846
 5054TIP3   OH236796   2.596   3.954   1.711  0.1571 -0.3754 -0.3737
 5054TIP3    H136797   2.653   4.019   1.669 -0.1752 -0.9259 -1.7408
 5054TIP3    H236798   2.657   3.890   1.749  0.4658 -0.1190 -0.4341
 5055TIP3   OH236799   1.055   5.692   8.301  0.4854  0.1704 -0.1102
 5055TIP3    H136800   1.027   5.606   8.334  0.6606 -0.9789 -2.7003
 5055TIP3    H236801   0.986   5.719   8.242  0.4879  1.8312  0.5820
 5056TIP3   OH236802   4.030   0.430   2.457 -0.3068  0.8087 -1.0546
 5056TIP3    H136803   3.940   0.416   2.485 -0.4972  0.2136 -1.9249
 5056TIP3    H236804   4.023   0.461   2.366  0.3517  1.0232 -1.0411
 5057TIP3   OH236805   6.163   0.018   1.788 -0.2127  0.1982 -0.1486
 5057TIP3    H136806   6.152  -0.077   1.791 -0.7926  0.2874  1.6560
 5057TIP3    H236807   6.256   0.032   1.805  0.1098 -0.0607 -1.5743
 5058TIP3   OH236808   0.291   4.202   1.164  0.2668  0.2024 -0.2108
 5058TIP3    H136809   0.368   4.200   1.221  0.1565 -0.0755 -0.0697
 5058TIP3    H236810   0.229   4.259   1.209  0.8190  1.3659 -0.8833
 5059TIP3   OH236811   5.692   2.002   1.620  0.3599  0.3711 -0.1299
 5059TIP3    H136812   5.757   1.939   1.653 -1.6356 -0.5815  2.3135
 5059TIP3    H236813   5.728   2.087   1.643  0.3592 -0.1737  2.1483
 5060TIP3   OH236814   5.613   5.985   8.329 -0.1516 -0.1300  0.4223
 5060TIP3    H136815   5.587   6.077   8.339  0.0743 -0.0424  0.2170
 5060TIP3    H236816   5.696   5.988   8.282 -0.3924 -0.4534 -0.0484
 5061TIP3   OH236817   4.591   5.677   1.026  0.2349  0.1996  0.0889
 5061TIP3    H136818   4.611   5.613   1.094 -1.3352 -1.6642 -1.0819
 5061TIP3    H236819   4.660   5.665   0.961 -0.2468 -0.6109 -0.2923
 5062TIP3   OH236820   3.233   2.550   1.114  0.0828 -0.3414  0.0188
 5062TIP3    H136821   3.216   2.567   1.021 -1.1914 -1.9948 -0.1036
 5062TIP3    H236822   3.323   2.577   1.128 -0.5195  2.4739 -1.0318
 5063TIP3   OH236823   1.297   3.600   0.233 -0.4937 -0.3232  0.0118
 5063TIP3    H136824   1.387   3.573   0.217 -0.3563 -0.5216  1.0744
 5063TIP3    H236825   1.243   3.528   0.200 -0.1682 -1.3828  1.6879
 5064TIP3   OH236826   3.845   1.443   8.041  0.8159 -0.2284 -0.1880
 5064TIP3    H136827   3.878   1.454   8.130  2.2532 -1.5959 -0.5200
 5064TIP3    H236828   3.902   1.497   7.987 -1.4154  2.4376 -0.1275
 5065TIP3   OH236829   4.235   5.219   1.493 -0.3087 -0.6891  0.2007
 5065TIP3    H136830   4.179   5.142   1.493 -0.9938 -0.2393  1.4333
 5065TIP3    H236831   4.198   5.275   1.562  0.5792  0.4291 -0.1894
 5066TIP3   OH236832   3.815   6.040   7.351  0.7462  0.2318 -0.2466
 5066TIP3    H136833   3.869   6.092   7.410 -1.8714 -0.0450  2.6412
 5066TIP3    H236834   3.830   5.949   7.377  0.5707 -0.0139 -0.9601
 5067TIP3   OH236835   4.506   1.992   0.627 -0.0819  0.0429 -0.1838
 5067TIP3    H136836   4.422   1.963   0.590 -0.1566 -0.1594  0.1413
 5067TIP3    H236837   4.491   2.083   0.651 -0.7886 -0.5001  1.5596
 5068TIP3   OH236838   5.676   2.312   1.444  0.2243  0.3152 -0.2238
 5068TIP3    H136839   5.724   2.238   1.406  0.6365  1.1761 -1.4497
 5068TIP3    H236840   5.732   2.387   1.429 -1.5671  1.4087 -1.9519
 5069TIP3   OH236841   0.267   2.906   8.098 -0.4848 -0.1832  0.4305
 5069TIP3    H136842   0.311   2.824   8.124  0.9083  0.4645  0.2017
 5069TIP3    H236843   0.316   2.975   8.143  0.1202  0.7383 -1.5342
 5070TIP3   OH236844   1.954   4.237   1.091  0.2083  0.1086 -0.4317
 5070TIP3    H136845   2.026   4.300   1.098  1.5997 -1.2400 -1.7207
 5070TIP3    H236846   1.992   4.162   1.046 -1.2377 -1.9348  1.5574
 5071TIP3   OH236847   4.852   3.313   1.600  0.4459 -0.3526  0.5847
 5071TIP3    H136848   4.857   3.355   1.514  0.0554 -1.8792 -0.2103
 5071TIP3    H236849   4.764   3.333   1.632 -0.3971 -2.0033 -0.5903
 5072TIP3   OH236850   2.945   4.801   1.969  0.2813  0.1051  0.4034
 5072TIP3    H136851   2.974   4.710   1.964  1.6210  0.4957  0.8359
 5072TIP3    H236852   2.952   4.824   2.062  1.2349  1.0499  0.1162
 5073TIP3   OH236853   1.903   2.220   3.052  0.1121  0.4969  0.4641
 5073TIP3    H136854   1.918   2.163   3.127  1.4947  2.2208  1.5667
 5073TIP3    H236855   1.808   2.227   3.045 -0.0364  0.5219  2.2322
 5074TIP3   OH236856   5.047   0.952   8.117 -0.3425 -0.2625 -0.6126
 5074TIP3    H136857   5.006   1.038   8.121  0.5233  0.1806 -0.9225
 5074TIP3    H236858   5.000   0.906   8.048 -0.7098  0.0155 -0.5516
 5075TIP3   OH236859   2.599   3.780   8.246  0.5087 -0.5716  0.4913
 5075TIP3    H136860   2.542   3.707   8.225 -0.8021  0.0330  1.7756
 5075TIP3    H236861   2.619   3.821   8.161  0.9964 -2.1781 -0.2002
 5076TIP3   OH236862   6.267   0.997   7.344  0.1244 -0.4174  0.3761
 5076TIP3    H136863   6.229   0.909   7.350  0.2918 -0.5217 -0.0907
 5076TIP3    H236864   6.323   0.994   7.267 -0.8125  0.4534 -0.3633
 5077TIP3   OH236865   1.786   1.533   8.394  0.1051  0.8609  0.8474
 5077TIP3    H136866   1.873   1.511   8.426 -0.0234  0.1695  0.7355
 5077TIP3    H236867   1.758   1.606   8.449 -0.4874 -0.8783  3.0209
 5078TIP3   OH236868   5.790   2.035   0.818  0.1882 -0.1736 -0.5273
 5078TIP3    H136869   5.736   2.084   0.881  1.3185  0.0834  0.2703
 5078TIP3    H236870   5.781   1.944   0.845 -1.7296 -0.4379 -1.8682
 5079TIP3   OH236871   1.690   2.123   1.796 -0.2773  0.4304 -0.1696
 5079TIP3    H136872   1.707   2.029   1.792  0.3312  0.3901  2.0247
 5079TIP3    H236873   1.600   2.129   1.830  0.1362  0.6187  0.9165
 5080TIP3   OH236874   2.418   0.556   0.493  0.4046  0.4294 -0.1528
 5080TIP3    H136875   2.470   0.544   0.413  0.6801 -0.2789  0.1218
 5080TIP3    H236876   2.359   0.628   0.473  0.5209  0.3050 -0.9777
 5081TIP3   OH236877   5.438   3.183   2.260 -0.2672 -0.2955  0.2432
 5081TIP3    H136878   5.472   3.165   2.348 -0.3677 -0.1052  0.3209
 5081TIP3    H236879   5.343   3.187   2.271 -0.2412  0.5172  0.2764
 5082TIP3   OH236880   4.039   3.413   0.053  0.5078  0.4288 -0.1259
 5082TIP3    H136881   3.997   3.329   0.072 -1.7143  1.0359 -1.9021
 5082TIP3    H236882   4.105   3.424   0.122 -2.1183 -0.7015  2.7551
 5083TIP3   OH236883   2.195   6.024   0.347  0.1418  0.0324  0.2043
 5083TIP3    H136884   2.268   6.004   0.288 -0.3402  0.4383 -0.5490
 5083TIP3    H236885   2.236   6.037   0.433  0.6916 -2.1723  0.3441
 5084TIP3   OH236886   5.144   4.612   8.630 -0.0494  0.7725 -0.5167
 5084TIP3    H136887   5.145   4.520   8.655  0.9525  0.8959 -0.0488
 5084TIP3    H236888   5.051   4.632   8.617 -0.2138 -0.5163 -1.4981
 5085TIP3   OH236889   0.477   4.238   0.132 -0.2344 -0.8478  0.1374
 5085TIP3    H136890   0.466   4.209   0.041 -1.9751  0.1786 -0.0250
 5085TIP3    H236891   0.447   4.328   0.132  0.4629 -0.5853  1.6036
 5086TIP3   OH236892   6.655   5.572   7.404  0.1090  0.2158 -0.3048
 5086TIP3    H136893   6.676   5.664   7.413 -1.1107  0.3862  1.2339
 5086TIP3    H236894   6.732   5.533   7.361  0.5313  1.9566 -1.2086
 5087TIP3   OH236895   1.968   2.464   2.160  0.5073 -0.7995  0.5708
 5087TIP3    H136896   2.049   2.420   2.134  1.4492 -0.2907  2.4982
 5087TIP3    H236897   1.995   2.529   2.224 -1.2313  0.5841  0.0071
 5088TIP3   OH236898   2.697   2.056   2.231 -0.4211 -0.0404 -0.3500
 5088TIP3    H136899   2.729   2.132   2.281 -0.2551  0.9398 -1.8609
 5088TIP3    H236900   2.759   2.048   2.159 -0.8306 -1.2180 -0.5837
 5089TIP3   OH236901   4.060   3.753   0.640  0.4998  0.5910 -0.7849
 5089TIP3    H136902   4.134   3.697   0.660 -2.6595 -3.0640  2.2128
 5089TIP3    H236903   4.037   3.794   0.723 -0.8651  1.5991 -1.6052
 5090TIP3   OH236904   2.702   6.601   1.857  0.6041  0.1398  0.4509
 5090TIP3    H136905   2.622   6.548   1.850  1.9534 -1.9379 -0.1098
 5090TIP3    H236906   2.707   6.648   1.774 -0.7438  1.4422  1.0532
 5091TIP3   OH236907   5.838   2.294   0.051 -0.4604 -0.5127 -0.0959
 5091TIP3    H136908   5.761   2.265   0.099  0.1931 -0.6344  0.9010
 5091TIP3    H236909   5.805   2.317  -0.036 -2.1338  2.0896  1.1032
 5092TIP3   OH236910   4.074   6.679   2.348  0.2863  0.1800  0.4234
 5092TIP3    H136911   4.100   6.595   2.310  0.0161  0.6694 -0.8966
 5092TIP3    H236912   4.045   6.658   2.436 -0.7592 -1.2717 -0.2397
 5093TIP3   OH236913   0.473   5.753   0.697  0.1728 -0.1601  0.1359
 5093TIP3    H136914   0.514   5.821   0.644 -2.0335  0.0434 -1.4828
 5093TIP3    H236915   0.465   5.678   0.637 -0.1227 -0.8047  0.9695
 5094TIP3   OH236916   2.119   2.686   0.775  0.0264  0.7821 -0.5155
 5094TIP3    H136917   2.025   2.669   0.776  0.0770  0.2929 -1.6536
 5094TIP3    H236918   2.159   2.599   0.772  0.4538  1.0000 -1.6177
 5095TIP3   OH236919   3.088   0.174   2.143  0.0039 -0.1037  0.0344
 5095TIP3    H136920   2.997   0.168   2.173 -0.6748 -1.8415 -2.0981
 5095TIP3    H236921   3.115   0.263   2.164 -1.1509 -0.4428  3.4199
 5096TIP3   OH236922   6.257   3.364   0.462 -0.0275  0.1755  0.0006
 5096TIP3    H136923   6.257   3.395   0.371  0.4623  1.3894  0.4060
 5096TIP3    H236924   6.264   3.443   0.515  1.0990 -0.5999  1.0696
 5097TIP3   OH236925   3.043   5.961   7.465  0.1623  0.5343 -0.0520
 5097TIP3    H136926   3.082   5.984   7.549 -0.4866  2.7698 -0.2873
 5097TIP3    H236927   3.067   6.033   7.406 -2.0760  0.7221 -0.8668
 5098TIP3   OH236928   4.809   4.338   8.552 -0.0178  0.3438  0.1777
 5098TIP3    H136929   4.812   4.377   8.465 -2.7528  0.6279  0.1323
 5098TIP3    H236930   4.856   4.255   8.543  2.1061  1.5768 -0.8158
 5099TIP3   OH236931   1.122   5.620   1.278  0.1938 -0.1704 -0.2530
 5099TIP3    H136932   1.038   5.660   1.300  0.0102  0.0208 -1.2593
 5099TIP3    H236933   1.174   5.692   1.244  1.1042 -0.1007  1.2002
 5100TIP3   OH236934   1.646   5.042   0.842  0.1614  0.1123  0.0268
 5100TIP3    H136935   1.564   5.010   0.878  0.1735  1.3036  1.1943
 5100TIP3    H236936   1.641   5.137   0.850  1.7638  0.2026  0.4298
 5101TIP3   OH236937   2.433   1.776   0.487  0.1289 -0.4188 -0.5398
 5101TIP3    H136938   2.514   1.728   0.506 -0.5535 -0.8966  1.4097
 5101TIP3    H236939   2.454   1.828   0.410  2.8401  0.6676  0.7712
 5102TIP3   OH236940   2.807   0.813   2.202  0.4093  0.0438 -0.1015
 5102TIP3    H136941   2.732   0.814   2.262 -0.3746 -0.5826 -1.0307
 5102TIP3    H236942   2.874   0.867   2.245 -0.6852  0.8766  0.6125
 5103TIP3   OH236943   0.346   1.279   2.324  0.4470 -0.0546 -0.5239
 5103TIP3    H136944   0.265   1.274   2.274  1.2555 -0.4023 -1.8516
 5103TIP3    H236945   0.332   1.222   2.399 -0.6987  0.2565 -0.4834
 5104TIP3   OH236946   0.812   6.474   1.565  0.6958 -0.0453  0.9069
 5104TIP3    H136947   0.755   6.487   1.489 -0.2270  0.0880  1.5934
 5104TIP3    H236948   0.883   6.419   1.533 -0.4239 -1.1816  0.2751
 5105TIP3   OH236949   3.636   4.323   7.173 -0.1407  0.1161  0.0240
 5105TIP3    H136950   3.641   4.231   7.196 -0.2016  0.0792 -0.1073
 5105TIP3    H236951   3.726   4.347   7.149  0.0256  0.2929  0.8134
 5106TIP3   OH236952   2.583   1.119   7.741 -0.4565  0.2753  0.3760
 5106TIP3    H136953   2.549   1.040   7.782 -2.5551  0.5053 -0.7448
 5106TIP3    H236954   2.611   1.174   7.814 -0.1232 -0.9957  1.2329
 5107TIP3   OH236955   2.174   5.296   1.118 -0.1697  0.2319  0.1936
 5107TIP3    H136956   2.128   5.264   1.196 -1.2229 -1.0655 -0.9076
 5107TIP3    H236957   2.266   5.291   1.141 -0.4634  1.2705  1.8569
 5108TIP3   OH236958   2.890   6.483   8.205 -0.4280  0.1796  0.5133
 5108TIP3    H136959   2.896   6.388   8.206  0.8453 -0.0114 -3.9180
 5108TIP3    H236960   2.980   6.512   8.188 -1.0297  2.0651  0.3176
 5109TIP3   OH236961   0.838   4.684   1.713  0.0385  0.0112 -0.3830
 5109TIP3    H136962   0.847   4.697   1.618  0.9875 -0.5312 -0.3762
 5109TIP3    H236963   0.861   4.593   1.727  0.2842  0.1899  0.4178
 5110TIP3   OH236964   0.966   4.240   8.752  0.0905 -0.5046 -0.2893
 5110TIP3    H136965   1.024   4.182   8.703  0.9372  1.8209 -2.1880
 5110TIP3    H236966   0.912   4.283   8.686  0.4567  1.8841  0.8612
 5111TIP3   OH236967   0.231   0.759   0.609  0.2779 -0.3307  0.3405
 5111TIP3    H136968   0.298   0.713   0.660  2.6440 -0.3690 -2.5550
 5111TIP3    H236969   0.257   0.747   0.518 -1.4666  3.0686 -0.7817
 5112TIP3   OH236970   0.357   2.859   2.194  0.2312  0.1574 -0.6697
 5112TIP3    H136971   0.385   2.768   2.205 -0.2764  0.1149  0.3884
 5112TIP3    H236972   0.304   2.877   2.272  1.2977  1.7214 -0.2627
 5113TIP3   OH236973   4.829   2.651   7.569 -0.1137  0.4389 -0.3832
 5113TIP3    H136974   4.793   2.686   7.488 -2.8717  0.1847  0.6380
 5113TIP3    H236975   4.858   2.729   7.618 -0.3893  0.7601 -0.7254
 5114TIP3   OH236976   4.786   6.463   7.881 -0.1723  0.0852 -0.2000
 5114TIP3    H136977   4.814   6.432   7.967 -1.9039 -2.0470 -0.3089
 5114TIP3    H236978   4.861   6.445   7.824 -0.2385 -1.8221  0.2365
 5115TIP3   OH236979   1.702   3.272   7.678 -0.4340 -0.4772  0.4769
 5115TIP3    H136980   1.614   3.268   7.642 -0.4602  0.4741  0.4089
 5115TIP3    H236981   1.696   3.226   7.762 -0.9099 -0.7261  0.3082
 5116TIP3   OH236982   3.095   6.679   1.576  0.5541 -0.1459  0.0187
 5116TIP3    H136983   3.064   6.715   1.659  1.3828  3.5597 -1.0775
 5116TIP3    H236984   3.179   6.723   1.560  1.4157 -2.2769 -1.8482
 5117TIP3   OH236985   6.114   2.102   8.143 -0.6212 -0.1509  0.4994
 5117TIP3    H136986   6.037   2.156   8.160 -1.0344 -0.0550 -1.4658
 5117TIP3    H236987   6.078   2.019   8.111  0.0214  0.6361 -2.5742
 5118TIP3   OH236988   6.148   2.014   8.472 -0.1491 -0.1833 -0.3329
 5118TIP3    H136989   6.184   2.084   8.526  1.8500 -1.9903  0.8275
 5118TIP3    H236990   6.208   2.008   8.398 -1.8918  1.1058 -1.9530
 5119TIP3   OH236991   4.912   2.885   6.881  0.4493 -0.0259 -0.5312
 5119TIP3    H136992   4.912   2.958   6.819  0.2889  0.4791  0.0398
 5119TIP3    H236993   4.972   2.821   6.844  0.3600  0.2684 -1.1974
 5120TIP3   OH236994   6.331   6.272   8.762  0.6506  0.8922 -0.5493
 5120TIP3    H136995   6.250   6.295   8.717  1.1638  2.1781 -0.8576
 5120TIP3    H236996   6.400   6.283   8.696  1.0337 -0.9214 -0.5140
 5121TIP3   OH236997   0.142   4.339   1.998  0.3478  0.0579  0.0409
 5121TIP3    H136998   0.176   4.276   2.061  0.9676  0.8404  0.4963
 5121TIP3    H236999   0.150   4.424   2.041 -0.4289  0.4660 -0.5849
 5122TIP3   OH237000   2.652   3.652   0.251 -0.5219 -0.0845  0.1032
 5122TIP3    H137001   2.697   3.675   0.332  0.1526 -1.8777  0.2838
 5122TIP3    H237002   2.561   3.640   0.278 -0.5197  0.4399  0.3621
 5123TIP3   OH237003   0.225   4.480   3.102 -0.0956  0.2959 -0.2029
 5123TIP3    H137004   0.255   4.481   3.011 -0.4551 -1.1096 -0.3538
 5123TIP3    H237005   0.147   4.535   3.103 -1.7485 -1.8796 -1.3741
 5124TIP3   OH237006   2.753   0.314   8.281  0.1822  0.8036 -0.5236
 5124TIP3    H137007   2.847   0.331   8.290  0.2946  0.1835 -0.4871
 5124TIP3    H237008   2.735   0.247   8.346 -0.0644  0.1172 -1.2797
 5125TIP3   OH237009   1.083   6.634   2.276  0.6140  0.5657 -0.5618
 5125TIP3    H137010   1.136   6.707   2.242  0.5666  0.5386 -0.6978
 5125TIP3    H237011   1.144   6.561   2.283  0.9027  0.8966  0.5763
 5126TIP3   OH237012   6.305   2.596   1.577 -0.2721 -0.5910 -0.0824
 5126TIP3    H137013   6.289   2.545   1.497  1.3591 -0.7197 -0.3628
 5126TIP3    H237014   6.261   2.680   1.561  0.9499 -0.1907 -1.6136
 5127TIP3   OH237015   5.030   5.968   7.361  0.0076  0.4356 -0.2398
 5127TIP3    H137016   5.095   5.922   7.307  0.3639  2.1374 -1.3439
 5127TIP3    H237017   4.993   5.900   7.416  1.0855 -1.0193 -1.2144
 5128TIP3   OH237018   3.482   3.818   8.695  0.3040 -0.2822  0.4847
 5128TIP3    H137019   3.488   3.857   8.783 -0.7131  1.4835 -0.1771
 5128TIP3    H237020   3.388   3.802   8.683  0.3897 -0.1030 -0.4418
 5129TIP3   OH237021   0.532   2.550   8.738  0.0261 -0.0854  0.1395
 5129TIP3    H137022   0.558   2.632   8.781  2.1877 -1.4816  1.7148
 5129TIP3    H237023   0.611   2.520   8.693 -0.8869 -1.0354 -0.8936
 5130TIP3   OH237024   1.476   2.686   8.260  0.7707 -0.2886 -0.5517
 5130TIP3    H137025   1.558   2.678   8.310  0.6439  0.1462 -0.2799
 5130TIP3    H237026   1.498   2.745   8.188  0.6597 -0.0608 -0.3998
 5131TIP3   OH237027   6.068   3.804   8.023 -0.2524 -0.2797  0.1974
 5131TIP3    H137028   6.011   3.732   8.048  1.6243 -1.6104  0.8620
 5131TIP3    H237029   6.110   3.831   8.105  0.7884  0.0026 -0.4128
 5132TIP3   OH237030   5.813   2.982   7.750  0.3697 -0.1532 -0.1778
 5132TIP3    H137031   5.808   2.981   7.845  0.0379  0.0539 -0.1908
 5132TIP3    H237032   5.722   2.987   7.721  0.2446 -3.0258 -0.5727
 5133TIP3   OH237033   6.587   3.916   8.232  0.6894  0.0753  0.6545
 5133TIP3    H137034   6.583   3.986   8.167 -0.2876  0.9756  1.6232
 5133TIP3    H237035   6.529   3.848   8.198  1.0980  0.0346  0.0356
 5134TIP3   OH237036   1.745   2.017   0.607  0.6571  0.1536  0.0384
 5134TIP3    H137037   1.771   1.944   0.551 -1.1300 -0.5147 -0.0064
 5134TIP3    H237038   1.818   2.078   0.602  1.0638 -0.4010 -2.0946
 5135TIP3   OH237039   4.164   5.328   1.884  0.2569 -0.0567 -0.4055
 5135TIP3    H137040   4.148   5.267   1.955  0.9543 -1.2597 -1.2365
 5135TIP3    H237041   4.094   5.309   1.821  0.1478  0.3945 -0.4190
 5136TIP3   OH237042   0.297   6.620   2.149 -0.3180 -0.9337 -0.5952
 5136TIP3    H137043   0.392   6.606   2.147  0.0950  1.1530  0.8329
 5136TIP3    H237044   0.278   6.669   2.069  0.7727  3.0296  1.3071
 5137TIP3   OH237045   0.154   0.289   1.036 -0.5029  0.1193  0.1865
 5137TIP3    H137046   0.239   0.246   1.024  0.8805  3.0900 -2.1282
 5137TIP3    H237047   0.092   0.234   0.989  0.6266 -0.8606 -0.2035
 5138TIP3   OH237048   1.079   1.491   7.537 -0.6908 -0.5530  0.5355
 5138TIP3    H137049   1.102   1.577   7.571  0.2327 -0.6109  0.0828
 5138TIP3    H237050   0.996   1.504   7.491 -0.4095  0.1524  0.2258
 5139TIP3   OH237051   2.667   6.206   8.415 -0.0019  0.3017  0.3956
 5139TIP3    H137052   2.615   6.285   8.430  1.6512  1.1841  1.9048
 5139TIP3    H237053   2.604   6.134   8.427 -1.4062  1.3527 -0.4027
 5140TIP3   OH237054   3.693   3.683   0.764  0.7926 -0.6711 -0.0120
 5140TIP3    H137055   3.608   3.640   0.772  1.0883 -1.1710  0.5246
 5140TIP3    H237056   3.676   3.762   0.712 -0.2846  0.0178  1.3427
 5141TIP3   OH237057   1.439   3.958   2.544 -0.3764 -0.1471  0.6655
 5141TIP3    H137058   1.382   4.020   2.589 -0.3159 -0.2360  0.8663
 5141TIP3    H237059   1.526   3.999   2.548 -0.7833  1.0865 -1.6328
 5142TIP3   OH237060   1.909   5.826   7.562 -0.2144  0.0692 -0.4124
 5142TIP3    H137061   1.848   5.890   7.597  0.6108  0.7585 -0.1992
 5142TIP3    H237062   1.977   5.817   7.629  0.4582  0.0842 -1.0678
 5143TIP3   OH237063   1.497   4.947   1.252 -0.3648  0.2493  0.3526
 5143TIP3    H137064   1.509   4.861   1.293 -2.4762 -0.4234 -0.2886
 5143TIP3    H237065   1.416   4.981   1.290 -1.4115  0.4095 -1.8080
 5144TIP3   OH237066   6.091   2.150   0.903  0.1324  0.0926 -0.2887
 5144TIP3    H137067   6.095   2.089   0.977 -0.2021 -0.1177 -0.4440
 5144TIP3    H237068   6.019   2.209   0.925 -0.7914 -0.7295 -1.0213
 5145TIP3   OH237069   0.956   5.146   0.580 -0.0706 -0.5140 -0.7498
 5145TIP3    H137070   0.938   5.067   0.631  0.1131  0.4495  0.8992
 5145TIP3    H237071   1.042   5.131   0.540 -0.4635 -1.5115 -1.2326
 5146TIP3   OH237072   4.806   3.487   0.640  0.5576 -0.2818  0.2201
 5146TIP3    H137073   4.896   3.493   0.608  0.2016  0.9343 -0.6401
 5146TIP3    H237074   4.761   3.560   0.597 -0.7995 -0.7724  0.7693
 5147TIP3   OH237075   0.153   2.380   7.161 -0.9228 -0.5164  0.4449
 5147TIP3    H137076   0.156   2.287   7.135 -0.0652 -0.2303 -0.5332
 5147TIP3    H237077   0.225   2.390   7.223  0.2823 -0.0884 -0.9664
 5148TIP3   OH237078   4.227   3.694   2.748 -0.4486  0.0398 -0.0348
 5148TIP3    H137079   4.176   3.775   2.745 -1.4605 -0.5886 -0.3148
 5148TIP3    H237080   4.318   3.723   2.754 -0.8469  1.1896  0.8189
 5149TIP3   OH237081   4.903   2.027   2.961  0.0479 -0.6149 -0.0266
 5149TIP3    H137082   4.828   2.086   2.957  0.5546 -0.0166 -1.5738
 5149TIP3    H237083   4.972   2.073   2.913  0.9232 -1.8107  0.0429
 5150TIP3   OH237084   3.086   5.676   7.543 -0.3992  0.3516  0.1771
 5150TIP3    H137085   3.002   5.645   7.576 -0.7619 -0.4195 -1.3894
 5150TIP3    H237086   3.096   5.763   7.581 -3.0993  1.5285 -1.5426
 5151TIP3   OH237087   5.653   2.888   8.438  0.3621 -0.1977 -0.5552
 5151TIP3    H137088   5.594   2.839   8.380  1.4154 -1.1649 -0.8434
 5151TIP3    H237089   5.629   2.859   8.526  0.3557 -0.5379 -0.6658
 5152TIP3   OH237090   3.823   2.155   1.677 -0.5381 -0.7384  0.3256
 5152TIP3    H137091   3.811   2.062   1.662 -0.2750 -0.6082 -0.8335
 5152TIP3    H237092   3.764   2.197   1.613  0.7033 -0.1240 -0.4533
 5153TIP3   OH237093   3.792   5.938   1.296  0.4199  0.2067  0.5000
 5153TIP3    H137094   3.766   5.902   1.212  1.0944  0.1659  0.3036
 5153TIP3    H237095   3.826   5.863   1.346  0.7107  0.3582  0.5327
 5154TIP3   OH237096   1.473   5.904   1.288 -0.2208  0.3005 -0.8152
 5154TIP3    H137097   1.459   5.998   1.284  2.0019  0.6580 -1.4254
 5154TIP3    H237098   1.568   5.893   1.295 -0.4315 -1.8880 -0.4075
 5155TIP3   OH237099   4.712   3.716   2.209 -0.0501 -0.6637 -0.5178
 5155TIP3    H137100   4.671   3.756   2.133 -1.4208  0.0421  0.5519
 5155TIP3    H237101   4.796   3.683   2.176 -0.1000  0.6218 -2.0596
 5156TIP3   OH237102   0.169   2.817   0.645  0.2568 -0.4705 -0.5032
 5156TIP3    H137103   0.177   2.736   0.695 -0.7373 -0.1408  0.2238
 5156TIP3    H237104   0.137   2.790   0.559 -1.5232 -0.7465  0.2121
 5157TIP3   OH237105   0.242   5.256   0.523 -0.2000 -0.4427 -0.3652
 5157TIP3    H137106   0.335   5.266   0.502 -0.4374  2.0872 -0.5671
 5157TIP3    H237107   0.200   5.245   0.438 -0.1190 -1.7263 -0.2645
 5158TIP3   OH237108   4.976   2.411   0.409  0.2177 -0.0989  0.4525
 5158TIP3    H137109   5.037   2.457   0.351 -0.4046 -0.1861 -0.2795
 5158TIP3    H237110   4.890   2.422   0.369 -0.3387  0.4187  1.7240
 5159TIP3   OH237111   5.846   4.417   0.738  0.2180  0.3014 -0.4301
 5159TIP3    H137112   5.865   4.383   0.650  0.6631 -0.5451 -0.0206
 5159TIP3    H237113   5.768   4.470   0.727 -1.1605 -1.7125 -0.9537
 5160TIP3   OH237114   2.911   6.142   8.560  0.2210  0.0958 -0.4829
 5160TIP3    H137115   2.907   6.159   8.654 -1.5487 -1.0544 -0.3015
 5160TIP3    H237116   2.832   6.184   8.524  0.2532 -0.4942 -1.2711
 5161TIP3   OH237117   3.628   0.507   7.593  0.3870  0.4957 -0.1178
 5161TIP3    H137118   3.563   0.578   7.589  0.1381  0.3115  0.6050
 5161TIP3    H237119   3.712   0.551   7.584  0.2531  0.9286  0.7168
 5162TIP3   OH237120   2.050   4.406   7.646  0.1542  0.1535 -0.5270
 5162TIP3    H137121   1.965   4.365   7.626  0.1146 -1.6155  2.6506
 5162TIP3    H237122   2.108   4.332   7.664  1.4416  1.4247  0.6941
 5163TIP3   OH237123   3.884   5.422   1.241 -0.1341  0.4194 -0.3920
 5163TIP3    H137124   3.800   5.386   1.213 -0.4451  1.7853 -1.3401
 5163TIP3    H237125   3.863   5.482   1.312  0.0921  0.4232 -0.3266
 5164TIP3   OH237126   3.714   1.800   8.033  0.0607 -0.3513  0.2240
 5164TIP3    H137127   3.633   1.756   8.058 -0.7593  1.9878  2.0031
 5164TIP3    H237128   3.783   1.755   8.083 -0.3160 -1.3892 -0.1624
 5165TIP3   OH237129   6.412   3.550   8.596  0.3710  0.0125  0.0246
 5165TIP3    H137130   6.468   3.562   8.519 -1.5179 -1.5086 -1.6726
 5165TIP3    H237131   6.397   3.456   8.601 -0.0863  0.1478  1.9068
 5166TIP3   OH237132   5.881   3.309   0.759 -0.3516  0.3570  0.6309
 5166TIP3    H137133   5.934   3.301   0.679 -0.4478  1.6528  0.4087
 5166TIP3    H237134   5.793   3.331   0.727 -0.7654 -0.6766  1.0423
 5167TIP3   OH237135   2.345   5.735   1.592 -0.0582  0.0033 -0.3008
 5167TIP3    H137136   2.273   5.694   1.544  0.5214 -0.8400 -0.4724
 5167TIP3    H237137   2.364   5.674   1.663 -0.5300  0.9670  0.6928
 5168TIP3   OH237138   1.317   1.139   1.158 -0.1317 -0.6671  0.2693
 5168TIP3    H137139   1.238   1.193   1.155 -0.6038 -1.1940  1.9995
 5168TIP3    H237140   1.385   1.198   1.191  0.3806 -0.0613 -1.7433
 5169TIP3   OH237141   1.414   1.644   2.054  0.6245  0.8421  0.1595
 5169TIP3    H137142   1.385   1.555   2.035  2.2961  0.1217  0.7966
 5169TIP3    H237143   1.419   1.686   1.968  0.1429  0.2369 -0.1797
 5170TIP3   OH237144   6.707   1.895   2.156 -0.3346  0.1497 -0.3456
 5170TIP3    H137145   6.681   1.953   2.228  0.9628 -0.6346  0.8110
 5170TIP3    H237146   6.659   1.814   2.171  0.5159 -0.2861  0.1211
 5171TIP3   OH237147   4.009   3.349   8.228 -0.7857 -0.0508 -0.2212
 5171TIP3    H137148   3.917   3.336   8.251 -0.7480  0.1433  0.0497
 5171TIP3    H237149   4.029   3.438   8.260 -0.5578 -0.0215 -0.4472
 5172TIP3   OH237150   5.671   2.630   2.190  0.0397 -0.5110  0.0425
 5172TIP3    H137151   5.722   2.710   2.175 -0.3205 -0.5794 -1.6704
 5172TIP3    H237152   5.699   2.600   2.277  0.9438  0.9012  0.2652
 5173TIP3   OH237153   3.180   3.913   1.495  0.6054 -0.6778  0.2870
 5173TIP3    H137154   3.185   3.882   1.405  0.2020  1.5451 -0.5747
 5173TIP3    H237155   3.265   3.891   1.533  1.4007 -0.2440 -1.1446
 5174TIP3   OH237156   6.759   5.839   7.665  0.2875 -0.3830  0.5291
 5174TIP3    H137157   6.685   5.888   7.701  1.0457  1.4589 -0.2682
 5174TIP3    H237158   6.744   5.749   7.693 -0.1135  0.5851  3.8312
 5175TIP3   OH237159   1.466   6.374   7.610 -1.0123 -0.0280  0.1570
 5175TIP3    H137160   1.398   6.313   7.639 -1.1089  0.9338  2.1307
 5175TIP3    H237161   1.532   6.371   7.679  0.6137 -0.3668 -1.3580
 5176TIP3   OH237162   1.607   4.035   0.693  0.1008  0.3643  0.0592
 5176TIP3    H137163   1.700   4.056   0.707 -0.1292  1.1726  0.4730
 5176TIP3    H237164   1.582   4.088   0.617 -0.7591  2.5913  1.7578
 5177TIP3   OH237165   2.974   0.222   8.806 -0.2957  0.2875  0.2667
 5177TIP3    H137166   2.971   0.180   8.892 -0.9319  1.0206  0.6208
 5177TIP3    H237167   2.996   0.152   8.745 -0.0931 -0.2943  0.9930
 5178TIP3   OH237168   6.069   4.818   8.547  0.6513 -0.2676 -0.0163
 5178TIP3    H137169   6.117   4.900   8.560 -0.7332  0.4806  0.4846
 5178TIP3    H237170   6.097   4.788   8.461  1.6016  0.4186  0.0310
 5179TIP3   OH237171   1.440   2.209   1.050  0.5316  0.8695 -0.7353
 5179TIP3    H137172   1.486   2.164   0.979 -0.7411 -0.4160 -0.7792
 5179TIP3    H237173   1.451   2.153   1.126 -0.2270  0.9764 -0.5376
 5180TIP3   OH237174   1.161   0.991   8.715  0.3519  0.2642  0.2811
 5180TIP3    H137175   1.143   0.940   8.636  1.3334 -1.7860  1.3118
 5180TIP3    H237176   1.144   0.930   8.787  3.6037  0.6541  1.5165
 5181TIP3   OH237177   3.931   1.201   1.660  0.4831  0.1876  0.3741
 5181TIP3    H137178   4.015   1.243   1.645  0.1343  0.8752  0.3085
 5181TIP3    H237179   3.953   1.114   1.694  1.2329 -0.1325 -0.8748
 5182TIP3   OH237180   5.380   5.046   2.521  0.7485  0.7043  0.4205
 5182TIP3    H137181   5.451   4.987   2.547  0.5718 -0.0434 -0.7427
 5182TIP3    H237182   5.317   5.042   2.594  1.1063  0.0675  0.6968
 5183TIP3   OH237183   4.645   4.179   7.170 -0.4876  0.2378  0.5126
 5183TIP3    H137184   4.646   4.268   7.134 -1.0014  0.1215  0.2067
 5183TIP3    H237185   4.737   4.160   7.187 -0.2764  0.4911 -0.2695
 5184TIP3   OH237186   4.729   3.690   1.212  0.4932  0.0872  0.8147
 5184TIP3    H137187   4.822   3.690   1.232  0.5736  1.5947  0.5143
 5184TIP3    H237188   4.705   3.782   1.208 -0.6250 -0.2320 -0.8500
 5185TIP3   OH237189   3.557   0.770   2.995  0.0611 -0.3528  0.1570
 5185TIP3    H137190   3.508   0.841   3.038 -0.5817  0.0776 -1.2108
 5185TIP3    H237191   3.626   0.815   2.945  0.7828 -0.8346  0.6999
 5186TIP3   OH237192   2.551   4.950   7.914  0.1088 -0.0313  0.3851
 5186TIP3    H137193   2.590   4.896   7.845  1.8304  0.0792  1.2278
 5186TIP3    H237194   2.549   5.039   7.877 -1.2159 -0.3509 -0.3863
 5187TIP3   OH237195   0.149   1.857   7.826 -0.1417 -0.2090 -0.4063
 5187TIP3    H137196   0.178   1.842   7.736  1.2902  1.9303 -0.3765
 5187TIP3    H237197   0.114   1.773   7.854 -1.2966 -0.7763 -3.1689
 5188TIP3   OH237198   3.552   2.728   2.291 -0.1201 -0.3398 -0.2029
 5188TIP3    H137199   3.575   2.747   2.200 -0.5234 -1.5615 -0.5816
 5188TIP3    H237200   3.636   2.730   2.338  0.1029  0.1942 -0.6104
 5189TIP3   OH237201   3.380   0.947   3.121 -0.0498  0.6280  0.4602
 5189TIP3    H137202   3.351   0.857   3.137  1.7258 -0.2214 -0.8297
 5189TIP3    H237203   3.301   0.993   3.093 -0.7963 -0.7873  0.1524
 5190TIP3   OH237204   6.630   4.405   1.840  0.3459  0.4792  0.3081
 5190TIP3    H137205   6.563   4.398   1.908 -1.4241  3.5930 -0.9216
 5190TIP3    H237206   6.693   4.469   1.875 -0.0789  1.3869 -0.5281
 5191TIP3   OH237207   2.710   4.191   1.653  0.0690  0.7617 -0.4334
 5191TIP3    H137208   2.776   4.259   1.664  0.2166  0.5262  0.1525
 5191TIP3    H237209   2.629   4.230   1.685  0.0350  0.8567 -0.6324
 5192TIP3   OH237210   6.721   1.095   0.701 -0.0931  0.4848  0.1558
 5192TIP3    H137211   6.677   1.129   0.623 -0.8147  1.3612  0.9310
 5192TIP3    H237212   6.655   1.098   0.770  0.2795 -1.0961  0.6243
 5193TIP3   OH237213   3.954   5.000   8.241  0.4900 -0.0686  0.3789
 5193TIP3    H137214   4.032   4.945   8.251  1.5389  1.5103  1.4716
 5193TIP3    H237215   3.905   4.960   8.170  2.2671 -1.1865 -0.2836
 5194TIP3   OH237216   1.652   4.424   0.206 -0.4263  0.4373  0.4562
 5194TIP3    H137217   1.743   4.448   0.227  0.1811  1.5580 -2.9002
 5194TIP3    H237218   1.659   4.339   0.163 -0.9898  0.4265  0.3818
 5195TIP3   OH237219   2.106   1.866   2.094 -0.2626 -0.4541  0.1315
 5195TIP3    H137220   2.031   1.875   2.153 -0.2149 -0.7359  0.2336
 5195TIP3    H237221   2.153   1.949   2.103 -1.8774  0.7655 -1.7560
 5196TIP3   OH237222   3.158   6.007   7.712  0.8516  0.2924 -0.1447
 5196TIP3    H137223   3.157   5.927   7.764 -0.9412  0.4584  0.1392
 5196TIP3    H237224   3.237   6.053   7.741  0.2788  0.0553  1.9533
 5197TIP3   OH237225   2.258   3.428   7.300  0.3218 -0.4349  0.3216
 5197TIP3    H137226   2.347   3.456   7.277 -0.4886  0.7929 -1.5830
 5197TIP3    H237227   2.226   3.383   7.222 -0.1324 -2.5371  1.6471
 5198TIP3   OH237228   3.389   6.720   2.711  0.0842  0.6398  0.1561
 5198TIP3    H137229   3.399   6.723   2.616 -1.5955 -2.8244 -0.3113
 5198TIP3    H237230   3.442   6.645   2.738  0.5772  1.5974  2.0378
 5199TIP3   OH237231   1.207   6.456   0.983 -0.5730  0.0718 -0.1894
 5199TIP3    H137232   1.228   6.538   0.938 -2.2710  0.9888  0.5675
 5199TIP3    H237233   1.235   6.471   1.074  1.0352 -1.0138 -0.4783
 5200TIP3   OH237234   6.476   0.487   8.692  0.1878 -0.0984  0.1702
 5200TIP3    H137235   6.458   0.542   8.615  0.4690 -1.9951 -1.3321
 5200TIP3    H237236   6.391   0.451   8.716  0.2507 -0.2893  0.1086
 5201TIP3   OH237237   2.736   6.309   2.201 -0.8627  0.2704 -0.0730
 5201TIP3    H137238   2.820   6.309   2.246 -1.5177 -0.1822  1.2324
 5201TIP3    H237239   2.757   6.302   2.108  0.5007 -1.0565  0.3130
 5202TIP3   OH237240   1.333   1.783   1.501 -0.2450  0.1160  0.0364
 5202TIP3    H137241   1.374   1.786   1.414  1.5073  1.1065  0.8546
 5202TIP3    H237242   1.268   1.713   1.494 -0.4315  0.4438 -2.1840
 5203TIP3   OH237243   4.392   5.879   8.260  0.5174  0.7522 -0.5223
 5203TIP3    H137244   4.327   5.947   8.241  0.3499  0.9432  0.6248
 5203TIP3    H237245   4.356   5.832   8.335  1.4038  0.4545 -0.2696
 5204TIP3   OH237246   2.799   2.949   1.890 -0.5389  0.5114  0.5934
 5204TIP3    H137247   2.710   2.953   1.925 -1.2560  2.8640 -1.2710
 5204TIP3    H237248   2.807   3.026   1.834  2.0750 -0.5961 -0.7431
 5205TIP3   OH237249   1.521   1.641   8.577  0.2061  0.4264  0.7088
 5205TIP3    H137250   1.515   1.554   8.618  0.2965  0.2265  0.3051
 5205TIP3    H237251   1.507   1.624   8.484  0.7927  0.7643  0.5538
 5206TIP3   OH237252   4.986   5.724   7.783  0.0942  0.2723  0.7234
 5206TIP3    H137253   5.080   5.704   7.779  0.1310  0.2465  1.5003
 5206TIP3    H237254   4.975   5.764   7.870 -0.5609  0.5556  0.5110
 5207TIP3   OH237255   1.686   1.286   8.276  0.2221  0.2673 -0.3239
 5207TIP3    H137256   1.756   1.299   8.339  0.5026  0.3047 -0.6441
 5207TIP3    H237257   1.642   1.371   8.271  1.0212  0.6486 -1.1648
 5208TIP3   OH237258   1.787   0.439   8.199 -0.3787 -0.4842 -0.5218
 5208TIP3    H137259   1.706   0.466   8.242 -0.0691  1.4251 -1.0552
 5208TIP3    H237260   1.849   0.426   8.271 -0.3113  1.1220 -0.2661
 5209TIP3   OH237261   0.060   0.437   0.610 -0.2910 -0.2496 -0.3735
 5209TIP3    H137262   0.081   0.523   0.575  0.9484  0.0681  1.0816
 5209TIP3    H237263   0.143   0.388   0.606 -0.2186 -0.3674  1.5642
 5210TIP3   OH237264   2.051   4.427   1.634 -0.3410 -0.1277 -0.2309
 5210TIP3    H137265   2.042   4.428   1.539 -1.7512  0.7265 -0.1266
 5210TIP3    H237266   1.998   4.353   1.663  1.0056 -1.0924 -0.1551
 5211TIP3   OH237267   5.152   6.806   8.089 -0.7418 -0.0013 -0.9289
 5211TIP3    H137268   5.228   6.859   8.065  0.2991 -1.4615 -1.0477
 5211TIP3    H237269   5.079   6.846   8.043 -0.2594  2.0411 -0.0183
 5212TIP3   OH237270   2.327   2.510   7.331 -0.1814 -0.2899 -0.4181
 5212TIP3    H137271   2.360   2.599   7.343 -0.8037 -0.2894  1.7690
 5212TIP3    H237272   2.232   2.519   7.341 -0.5658 -0.8424 -2.8892
 5213TIP3   OH237273   2.245   1.760   7.273  0.4373 -0.3195  0.4681
 5213TIP3    H137274   2.329   1.779   7.316 -0.1162 -0.6192  1.7027
 5213TIP3    H237275   2.179   1.799   7.330 -0.2516  0.5063 -0.8361
 5214TIP3   OH237276   5.770   2.571   8.448 -0.1983  0.2378  0.5678
 5214TIP3    H137277   5.709   2.626   8.399 -1.4732 -0.4592  1.3345
 5214TIP3    H237278   5.823   2.529   8.380 -0.0695  1.3962 -0.0765
 5215TIP3   OH237279   4.021   3.997   1.536  0.2708  0.1098 -0.0618
 5215TIP3    H137280   3.935   3.957   1.550  0.1094  0.2408 -0.6833
 5215TIP3    H237281   4.082   3.923   1.536 -0.1447 -0.3115 -2.3180
 5216TIP3   OH237282   5.410   4.354   1.758 -0.3707 -0.1664  0.4096
 5216TIP3    H137283   5.322   4.382   1.782 -0.8981 -0.1902 -1.3363
 5216TIP3    H237284   5.427   4.277   1.812 -0.7758  0.7545  1.8854
 5217TIP3   OH237285   4.886   5.331   8.591 -0.1638 -0.5711  0.0097
 5217TIP3    H137286   4.929   5.318   8.675  2.1901 -0.3255 -1.0789
 5217TIP3    H237287   4.893   5.424   8.573  0.6638 -0.8212 -1.0888
 5218TIP3   OH237288   0.021   0.073   0.520 -0.2964 -0.5183  0.1769
 5218TIP3    H137289   0.090   0.007   0.528  0.0093 -0.2004  0.1882
 5218TIP3    H237290   0.068   0.154   0.500 -0.7789 -0.6337 -1.6351
 5219TIP3   OH237291   5.884   0.684   7.543 -0.5849  0.2178 -0.5034
 5219TIP3    H137292   5.836   0.709   7.464  0.8133 -0.6056 -1.6631
 5219TIP3    H237293   5.937   0.609   7.517 -1.1430 -1.0188  1.6161
 5220TIP3   OH237294   4.432   6.393   1.834 -1.0640  0.0301  0.0973
 5220TIP3    H137295   4.504   6.339   1.869  1.0332  2.9810  0.7707
 5220TIP3    H237296   4.400   6.442   1.910 -3.9150 -1.1760 -0.2020
 5221TIP3   OH237297   0.602   1.906   1.048 -0.0352  0.6930 -0.3898
 5221TIP3    H137298   0.596   1.873   1.138  1.2061  2.4153  0.3773
 5221TIP3    H237299   0.580   1.831   0.994  1.3550 -1.0400  1.2982
 5222TIP3   OH237300   3.127   3.912   8.097  0.2613  0.0948  0.7583
 5222TIP3    H137301   3.134   3.965   8.017  0.8838  0.6602  1.1828
 5222TIP3    H237302   3.162   3.827   8.073  1.5368  0.6074  0.7361
 5223TIP3   OH237303   4.441   5.545   7.908 -0.0857  0.1865 -0.1205
 5223TIP3    H137304   4.393   5.570   7.828 -1.2889 -0.6340  0.3199
 5223TIP3    H237305   4.531   5.533   7.878 -0.6452 -0.8345 -1.5264
 5224TIP3   OH237306   6.735   2.115   1.161 -0.2249 -0.7774 -0.3372
 5224TIP3    H137307   6.807   2.138   1.102 -1.1260  0.2327 -1.0659
 5224TIP3    H237308   6.747   2.173   1.236 -0.1200 -0.8172 -0.3219
 5225TIP3   OH237309   0.094   3.177   0.675  0.6486 -0.1303 -0.4715
 5225TIP3    H137310   0.006   3.208   0.699  1.7431  2.1041  1.0437
 5225TIP3    H237311   0.105   3.204   0.584 -0.2482 -0.5249 -0.7143
 5226TIP3   OH237312   3.361   4.308   7.426 -0.4844  0.8372 -0.0832
 5226TIP3    H137313   3.420   4.284   7.497 -1.4148 -0.9796  0.1377
 5226TIP3    H237314   3.389   4.395   7.400 -0.3619  1.7467  2.7788
 5227TIP3   OH237315   3.064   3.265   7.456 -0.3714 -0.8186  0.1820
 5227TIP3    H137316   3.051   3.333   7.390 -2.7740 -1.5965 -0.2557
 5227TIP3    H237317   3.144   3.220   7.429  0.6173  1.0642 -0.1690
 5228TIP3   OH237318   1.197   5.225   7.932 -0.3849 -0.1465 -0.2638
 5228TIP3    H137319   1.239   5.193   8.012 -0.3815  0.1279 -0.1520
 5228TIP3    H237320   1.107   5.192   7.937 -0.9173  1.3168  0.7412
 5229TIP3   OH237321   2.362   0.365   2.700  0.0277  0.3374  0.0842
 5229TIP3    H137322   2.297   0.394   2.764  1.6003  1.6662  1.1649
 5229TIP3    H237323   2.322   0.385   2.615 -1.5941 -0.3325  0.6514
 5230TIP3   OH237324   5.426   0.054   1.550 -1.1361  0.2079 -0.2356
 5230TIP3    H137325   5.518   0.080   1.546 -1.1204  0.1541 -0.2229
 5230TIP3    H237326   5.423  -0.012   1.619 -1.2252  0.3777 -0.0787
 5231TIP3   OH237327   5.726   4.739   1.610 -0.5581  0.1935 -0.2156
 5231TIP3    H137328   5.769   4.748   1.695 -0.7659 -0.8261  0.0041
 5231TIP3    H237329   5.798   4.741   1.546 -0.4809  2.1248 -0.1340
 5232TIP3   OH237330   4.855   2.931   8.845  0.3447 -0.6273 -0.1445
 5232TIP3    H137331   4.947   2.955   8.839 -0.0705  1.1685 -0.1195
 5232TIP3    H237332   4.833   2.942   8.937 -0.1852  0.2607 -0.3613
 5233TIP3   OH237333   3.127   5.270   8.782 -0.4292 -0.0630  0.2611
 5233TIP3    H137334   3.060   5.240   8.844 -1.4190  0.5341 -0.4856
 5233TIP3    H237335   3.137   5.196   8.722 -1.9203  0.5536 -0.8108
 5234TIP3   OH237336   0.180   5.589   2.501 -1.1842  0.5542 -0.0005
 5234TIP3    H137337   0.232   5.667   2.521 -0.9347  0.3088  0.3168
 5234TIP3    H237338   0.240   5.531   2.455 -1.8735  1.3024 -1.9400
 5235TIP3   OH237339   2.100   1.147   7.868  0.5520  0.4732 -0.1621
 5235TIP3    H137340   2.143   1.181   7.946  3.4798 -2.3863 -0.3031
 5235TIP3    H237341   2.152   1.181   7.795 -0.6060  1.0591 -0.7448
 5236TIP3   OH237342   4.461   4.958   8.019  0.6018 -0.1193 -0.5019
 5236TIP3    H137343   4.457   5.046   7.983  0.4646 -0.2529 -0.8153
 5236TIP3    H237344   4.499   4.969   8.106  0.5459  0.2527 -0.5247
 5237TIP3   OH237345   6.633   6.609   1.623 -0.7414 -0.1311 -0.1543
 5237TIP3    H137346   6.601   6.529   1.581  0.6113 -0.3438 -0.8145
 5237TIP3    H237347   6.693   6.648   1.559  0.1379  0.3721  0.9479
 5238TIP3   OH237348   0.290   6.023   0.586  0.5742 -0.0074 -0.2943
 5238TIP3    H137349   0.378   6.061   0.589  0.8254 -0.5543 -0.5452
 5238TIP3    H237350   0.238   6.086   0.538  1.0450 -0.0932 -0.9266
 5239TIP3   OH237351   3.888   4.097   0.194  0.0366  0.7913 -0.0355
 5239TIP3    H137352   3.944   4.148   0.252 -0.7779  1.1193  0.4761
 5239TIP3    H237353   3.812   4.075   0.247  0.5550 -1.3804 -0.0634
 5240TIP3   OH237354   1.726   5.308   8.593  0.8170 -0.1325  0.3470
 5240TIP3    H137355   1.792   5.307   8.524  0.2388  0.0702 -0.2249
 5240TIP3    H237356   1.715   5.216   8.617  0.8607 -0.2245  0.0139
 5241TIP3   OH237357   4.792   4.706   7.612  0.2255  0.0113  0.4241
 5241TIP3    H137358   4.804   4.737   7.702 -1.0120 -1.9420  1.3134
 5241TIP3    H237359   4.782   4.612   7.620 -1.0493 -0.0874 -1.6632
 5242TIP3   OH237360   2.624   3.022   7.592  0.0675  0.2207  0.7623
 5242TIP3    H137361   2.650   2.951   7.534  0.1875  0.1697  0.8788
 5242TIP3    H237362   2.688   3.091   7.576 -0.2079  0.4099  0.4494
 5243TIP3   OH237363   0.819   2.528   0.959 -0.7387 -0.4515  0.0226
 5243TIP3    H137364   0.781   2.464   1.019  0.0468  0.6916  1.8256
 5243TIP3    H237365   0.747   2.550   0.899 -2.8890  1.1964  2.9215
 5244TIP3   OH237366   4.504   2.883   2.104  0.1992  0.0365  0.2414
 5244TIP3    H137367   4.532   2.868   2.194  1.0658  0.1370 -0.0019
 5244TIP3    H237368   4.463   2.801   2.077 -0.4280  0.1407  0.8561
 5245TIP3   OH237369   4.476   5.377   8.757  0.2496 -0.3966 -0.2664
 5245TIP3    H137370   4.501   5.362   8.665  0.7397 -0.1342 -0.1791
 5245TIP3    H237371   4.511   5.463   8.778 -2.6025  1.0038 -0.7762
 5246TIP3   OH237372   5.750   0.949   0.725 -0.2960 -0.2731  0.2210
 5246TIP3    H137373   5.670   0.988   0.759  1.1652  1.5833  1.8030
 5246TIP3    H237374   5.798   1.023   0.686  0.2467 -1.5043 -1.5699
 5247TIP3   OH237375   5.707   4.847   2.374 -0.3303 -0.0270 -0.0762
 5247TIP3    H137376   5.757   4.915   2.328  1.8583 -2.6995 -1.9069
 5247TIP3    H237377   5.651   4.808   2.307 -1.7720  0.0612  1.0151
 5248TIP3   OH237378   4.526   2.410   1.530  0.3310 -0.1116  0.3827
 5248TIP3    H137379   4.450   2.352   1.535  0.8758 -0.7770  1.2474
 5248TIP3    H237380   4.570   2.399   1.614  1.3998  0.2385 -0.1104
 5249TIP3   OH237381   1.200   4.417   7.583 -0.3288  0.0698 -0.4128
 5249TIP3    H137382   1.123   4.460   7.619  0.2720  2.9967 -2.3057
 5249TIP3    H237383   1.267   4.425   7.651 -0.1164  2.6921 -0.8337
 5250TIP3   OH237384   0.798   2.303   8.039  0.0752 -0.5370 -0.3378
 5250TIP3    H137385   0.731   2.236   8.047  1.3386 -2.0281 -1.6972
 5250TIP3    H237386   0.768   2.358   7.966 -0.2175 -0.4919 -0.1870
 5251TIP3   OH237387   1.859   3.354   2.754  0.3235 -0.3123  0.1235
 5251TIP3    H137388   1.841   3.292   2.683  0.5528 -0.2100 -0.0225
 5251TIP3    H237389   1.878   3.298   2.830 -1.5603 -0.4442  0.5440
 5252TIP3   OH237390   3.304   5.535   8.618  0.4483  0.3107 -0.7186
 5252TIP3    H137391   3.320   5.513   8.527 -0.2824 -1.3746 -0.4667
 5252TIP3    H237392   3.241   5.607   8.615  0.0228 -0.0904 -1.5423
 5253TIP3   OH237393   4.210   0.244   8.791  0.0329 -0.0935  0.6498
 5253TIP3    H137394   4.242   0.202   8.871  1.2914 -0.9907 -0.2835
 5253TIP3    H237395   4.121   0.210   8.781 -0.1286  0.0043  1.6402
 5254TIP3   OH237396   0.517   2.440   8.226  0.1709  0.2974  0.2995
 5254TIP3    H137397   0.446   2.500   8.201  1.3066  0.3688 -3.5079
 5254TIP3    H237398   0.481   2.353   8.213  0.9588  0.3074 -3.2378
 5255TIP3   OH237399   3.877   6.166   2.441 -0.5405 -0.3926  0.4052
 5255TIP3    H137400   3.827   6.212   2.509  0.2092  0.3034  0.5033
 5255TIP3    H237401   3.939   6.112   2.489 -0.0477  0.0574  0.2802
 5256TIP3   OH237402   3.078   6.510   0.145 -0.0527 -0.1032  0.0486
 5256TIP3    H137403   3.078   6.532   0.238 -0.7656 -0.3239  0.1095
 5256TIP3    H237404   2.988   6.525   0.117  0.5375  1.7094 -1.0377
 5257TIP3   OH237405   4.231   5.679   0.876  0.5293  0.4974 -0.4007
 5257TIP3    H137406   4.231   5.638   0.962 -0.3470  1.9738  0.3426
 5257TIP3    H237407   4.240   5.606   0.815 -2.3329 -1.0059  0.7771
 5258TIP3   OH237408   0.943   4.539   2.247 -0.6541 -0.1100  0.2624
 5258TIP3    H137409   0.944   4.621   2.296 -1.5429  0.9391 -1.3924
 5258TIP3    H237410   0.858   4.500   2.268 -0.3816 -0.4443  0.7649
 5259TIP3   OH237411   1.770   5.071   1.932 -0.0517  0.4785  0.2588
 5259TIP3    H137412   1.771   4.975   1.927 -1.4157  0.4616 -0.1666
 5259TIP3    H237413   1.687   5.091   1.975 -0.2511  1.4994 -0.5909
 5260TIP3   OH237414   2.308   2.105   0.957 -0.1926  0.2399 -0.2882
 5260TIP3    H137415   2.364   2.181   0.939  0.4511  0.1462  1.1903
 5260TIP3    H237416   2.367   2.030   0.948 -0.5824 -0.0242 -0.7128
 5261TIP3   OH237417   6.373   5.172   8.113  0.0900 -0.1186  0.3063
 5261TIP3    H137418   6.379   5.135   8.025  0.3170 -1.7510  0.9730
 5261TIP3    H237419   6.463   5.193   8.137 -0.0250  0.7979 -0.0228
 5262TIP3   OH237420   2.890   3.825   2.505 -0.3020  0.0497 -0.7181
 5262TIP3    H137421   2.873   3.790   2.593 -1.3889 -0.5109 -1.1348
 5262TIP3    H237422   2.898   3.920   2.518 -1.3362  0.0710 -0.1249
 5263TIP3   OH237423   4.384   3.765   7.936  0.4229 -0.1036 -0.1792
 5263TIP3    H137424   4.450   3.697   7.933  1.0808  0.3758  1.7236
 5263TIP3    H237425   4.432   3.846   7.918  0.5253  0.3113  1.7531
 5264TIP3   OH237426   6.090   1.685   1.421 -0.0329  0.2572 -0.4361
 5264TIP3    H137427   6.096   1.636   1.503  0.9850  0.7621 -0.2017
 5264TIP3    H237428   6.055   1.770   1.448 -1.5426 -0.2105 -0.8063
 5265TIP3   OH237429   2.611   0.929   1.999 -0.2857 -0.1969  0.3763
 5265TIP3    H137430   2.654   0.855   2.043 -0.6647 -0.7968 -0.2273
 5265TIP3    H237431   2.605   0.901   1.907 -0.0641  0.7634  0.0595
 5266TIP3   OH237432   4.760   2.183   0.015  0.1993  0.1278 -0.5609
 5266TIP3    H137433   4.706   2.128  -0.041  1.1875  0.1504 -1.5531
 5266TIP3    H237434   4.820   2.122   0.058  0.3317  0.2623 -0.5538
 5267TIP3   OH237435   2.970   0.639   7.732 -0.4837  0.1168 -0.0242
 5267TIP3    H137436   3.022   0.718   7.743 -2.5858  1.6530 -0.4238
 5267TIP3    H237437   2.947   0.613   7.822 -1.9976  1.6045  0.0792
 5268TIP3   OH237438   4.358   3.997   1.736  0.0130 -0.3592  0.1105
 5268TIP3    H137439   4.402   3.939   1.673  1.3207  2.0672 -1.3613
 5268TIP3    H237440   4.282   3.947   1.765  1.8291 -3.3807  0.1131
 5269TIP3   OH237441   5.286   5.090   7.554  0.1825 -0.0329 -0.7095
 5269TIP3    H137442   5.253   5.174   7.587  0.4852 -0.2489  0.1795
 5269TIP3    H237443   5.230   5.025   7.595 -0.1396 -0.2696 -1.5073
 5270TIP3   OH237444   2.011   2.465   3.154 -0.1127 -0.5554 -0.3162
 5270TIP3    H137445   2.000   2.372   3.137  1.0818 -0.6233 -0.8358
 5270TIP3    H237446   1.974   2.508   3.077  1.3967 -0.7040 -1.1550
 5271TIP3   OH237447   0.906   1.194   0.305 -0.4200 -0.8822  0.0486
 5271TIP3    H137448   0.958   1.117   0.328  3.1651  1.7843  1.8454
 5271TIP3    H237449   0.953   1.234   0.233 -0.3276  1.2125  1.1849
 5272TIP3   OH237450   0.713   0.302   8.691 -0.3006  0.1697  0.5693
 5272TIP3    H137451   0.797   0.276   8.728 -0.4351  0.8044  1.3653
 5272TIP3    H237452   0.707   0.255   8.608 -0.3195 -1.8806  1.6786
 5273TIP3   OH237453   1.906   4.789   0.188  0.1726 -0.0250 -0.5131
 5273TIP3    H137454   1.816   4.777   0.158  0.2997  0.1184 -0.9630
 5273TIP3    H237455   1.954   4.715   0.151  0.3279  0.1457 -0.6580
 5274TIP3   OH237456   0.086   3.936   7.230 -0.0692 -0.2455 -0.0743
 5274TIP3    H137457   0.027   3.959   7.158 -0.0206  0.3873  0.0818
 5274TIP3    H237458   0.155   4.002   7.225  0.9785 -1.3484 -0.6549
 5275TIP3   OH237459   5.684   1.224   1.641 -0.1933  0.1810 -0.1208
 5275TIP3    H137460   5.683   1.296   1.704  1.2181 -1.7296  2.2800
 5275TIP3    H237461   5.593   1.193   1.639 -0.3257  0.4773  0.7553
 5276TIP3   OH237462   2.020   0.111   2.444 -0.3333 -0.2556 -0.0311
 5276TIP3    H137463   2.086   0.071   2.387  1.0672  0.4500  1.0345
 5276TIP3    H237464   1.971   0.169   2.386 -0.3163 -1.1053 -0.9318
 5277TIP3   OH237465   3.405   5.300   8.097  0.4138  0.0733 -0.3090
 5277TIP3    H137466   3.424   5.236   8.029 -0.3710  1.5491 -2.0237
 5277TIP3    H237467   3.453   5.378   8.070  0.9329  0.4062  1.4330
 5278TIP3   OH237468   3.083   1.383   2.930  0.8523 -0.7096  0.1256
 5278TIP3    H137469   3.045   1.306   2.972  0.1876 -1.1436 -1.2226
 5278TIP3    H237470   3.079   1.364   2.837  0.1661  1.1949 -0.2767
 5279TIP3   OH237471   0.634   5.363   1.106  0.0762  0.3643  0.3092
 5279TIP3    H137472   0.548   5.327   1.127  0.2627 -0.9226 -0.9130
 5279TIP3    H237473   0.687   5.347   1.184 -0.0761 -1.3959  0.1096
 5280TIP3   OH237474   4.680   2.090   1.211 -0.0174 -0.6234 -0.0207
 5280TIP3    H137475   4.753   2.037   1.178  0.6295 -0.0244  0.4205
 5280TIP3    H237476   4.604   2.060   1.161  0.6402 -0.8437 -0.9136
 5281TIP3   OH237477   4.152   2.855   1.888  0.1799  0.8742 -0.7226
 5281TIP3    H137478   4.204   2.918   1.838  0.5670  0.5889 -0.6760
 5281TIP3    H237479   4.119   2.793   1.823  1.3340  0.0404 -0.5350
 5282TIP3   OH237480   0.796   4.478   7.645  0.3503  0.7070  0.1771
 5282TIP3    H137481   0.773   4.397   7.689  0.7948  1.3955  1.7198
 5282TIP3    H237482   0.769   4.464   7.554  2.4176 -2.0153 -0.1527
 5283TIP3   OH237483   5.733   3.065   0.405  0.2693  0.1610 -0.1044
 5283TIP3    H137484   5.672   2.994   0.422 -1.3720  1.6819  0.6805
 5283TIP3    H237485   5.783   3.037   0.329 -0.8887 -1.4669 -0.3010
 5284TIP3   OH237486   6.788   1.805   8.533 -0.1735  0.7908  0.6244
 5284TIP3    H137487   6.861   1.868   8.529 -1.3623  2.1825 -1.3357
 5284TIP3    H237488   6.778   1.786   8.626  1.3348  2.2091  1.1381
 5285TIP3   OH237489   2.212   2.968   1.634 -0.1550 -0.4968 -0.4432
 5285TIP3    H137490   2.157   2.917   1.693  0.1345  0.9421  1.1777
 5285TIP3    H237491   2.154   2.991   1.561 -1.3838 -0.0074  0.6451
 5286TIP3   OH237492   5.598   4.058   7.206 -0.0030 -0.6754  0.4753
 5286TIP3    H137493   5.674   4.084   7.153 -0.6055  0.4892  0.1469
 5286TIP3    H237494   5.579   3.968   7.178  1.8931 -1.3995  1.3469
 5287TIP3   OH237495   1.865   1.503   1.642 -0.0829  0.1188  0.2311
 5287TIP3    H137496   1.956   1.490   1.670  0.3555 -1.1912 -1.6472
 5287TIP3    H237497   1.819   1.529   1.722  2.1843  2.2279  0.9744
 5288TIP3   OH237498   6.259   1.571   8.246  0.5067  0.3540  0.3174
 5288TIP3    H137499   6.243   1.636   8.314 -0.2841  1.1458 -0.6021
 5288TIP3    H237500   6.207   1.495   8.274 -0.2977  0.8841  0.3051
 5289TIP3   OH237501   6.021   0.988   1.347  0.4763 -0.1941  0.3744
 5289TIP3    H137502   6.036   0.900   1.382  0.5341 -0.0586  0.6949
 5289TIP3    H237503   5.959   1.028   1.408 -1.2384 -0.7525 -0.9510
 5290TIP3   OH237504   0.631   1.110   0.656  0.5320 -0.4346 -0.0933
 5290TIP3    H137505   0.689   1.123   0.731  0.1658 -2.1025  0.5147
 5290TIP3    H237506   0.559   1.057   0.691 -0.3799 -0.0259 -1.2941
 5291TIP3   OH237507   3.618   2.612   7.943  0.1701  0.3725  0.3508
 5291TIP3    H137508   3.554   2.621   7.873 -0.2319  0.0667  0.6793
 5291TIP3    H237509   3.672   2.691   7.937 -0.4162  0.7640  0.2606
 5292TIP3   OH237510   6.372   5.244   0.617 -0.7454  0.1271 -0.4537
 5292TIP3    H137511   6.393   5.275   0.529 -0.3281 -0.3312 -0.5237
 5292TIP3    H237512   6.457   5.219   0.654 -0.9716 -0.1007 -0.0852
 5293TIP3   OH237513   1.187   0.975   1.534 -0.1404 -0.1039 -0.0033
 5293TIP3    H137514   1.179   0.887   1.496 -1.7460  0.4623 -1.1062
 5293TIP3    H237515   1.281   0.993   1.532 -0.0098 -0.6714 -2.5190
 5294TIP3   OH237516   0.723   0.079   2.843  0.2027  0.2444  0.0841
 5294TIP3    H137517   0.673   0.157   2.818  1.5827  0.5495 -1.9453
 5294TIP3    H237518   0.793   0.112   2.900  1.5067  0.7450 -1.7250
 5295TIP3   OH237519   5.846   6.735   1.194  0.2305 -0.3371 -0.7537
 5295TIP3    H137520   5.756   6.756   1.171  0.4252  0.2006 -1.0549
 5295TIP3    H237521   5.840   6.654   1.245 -0.3071 -0.9835 -1.8080
 5296TIP3   OH237522   5.139   4.688   0.079 -0.1435  0.7006  0.1581
 5296TIP3    H137523   5.220   4.652   0.043  0.2618  1.4757  0.2596
 5296TIP3    H237524   5.085   4.612   0.100  0.9330  0.1225  0.9543
 5297TIP3   OH237525   1.368   3.697   1.424 -0.1063 -0.0493  0.2050
 5297TIP3    H137526   1.290   3.657   1.386 -0.1373  0.0208  0.1934
 5297TIP3    H237527   1.419   3.728   1.349 -0.2987  0.3315  0.2265
 5298TIP3   OH237528   4.935   3.657   8.216  0.5508 -0.2145  0.3596
 5298TIP3    H137529   5.010   3.613   8.255  0.3257 -0.0429  1.0008
 5298TIP3    H237530   4.963   3.747   8.202  0.1954  0.0740  1.4091
 5299TIP3   OH237531   2.568   1.073   2.554 -0.0440  0.3005 -0.2790
 5299TIP3    H137532   2.616   1.114   2.626 -0.4982 -0.7452  0.6493
 5299TIP3    H237533   2.630   1.072   2.481  0.5674  0.9892  0.2166
 5300TIP3   OH237534   4.003   3.870   0.929 -0.2507  0.1136  0.1754
 5300TIP3    H137535   4.063   3.817   0.982  0.6638  1.2474  0.3171
 5300TIP3    H237536   4.052   3.950   0.911 -0.4183 -0.3223 -2.6416
 5301TIP3   OH237537   6.743   4.577   2.579  0.3711  0.7004  0.5247
 5301TIP3    H137538   6.748   4.497   2.631  1.2634  2.1839  2.8749
 5301TIP3    H237539   6.658   4.615   2.601  0.2924  0.8128  0.0447
 5302TIP3   OH237540   4.269   4.250   1.530 -0.2944  0.0327 -0.3203
 5302TIP3    H137541   4.274   4.238   1.625  0.1692 -0.3790 -0.3857
 5302TIP3    H237542   4.337   4.190   1.495  0.2091  0.8872 -0.8490
 5303TIP3   OH237543   0.175   1.438   1.310  0.1579  0.2240  0.1327
 5303TIP3    H137544   0.082   1.435   1.332 -0.0443 -1.9243 -0.7940
 5303TIP3    H237545   0.178   1.480   1.224 -0.1508 -1.1937 -0.5900
 5304TIP3   OH237546   2.887   4.103   0.527 -0.4822 -0.1045  0.5282
 5304TIP3    H137547   2.935   4.043   0.469 -2.0237 -0.0687 -0.8479
 5304TIP3    H237548   2.796   4.078   0.517 -1.3028  2.9808 -0.7981
 5305TIP3   OH237549   6.345   2.204   7.460 -0.0569 -0.1558 -0.2114
 5305TIP3    H137550   6.344   2.253   7.378 -0.0778  0.4827  0.1666
 5305TIP3    H237551   6.258   2.220   7.499 -0.2525 -0.8992 -0.3214
 5306TIP3   OH237552   3.640   0.996   1.689 -0.7222 -0.2133  0.2730
 5306TIP3    H137553   3.560   1.037   1.655 -0.9791 -0.8580  0.0970
 5306TIP3    H237554   3.634   1.007   1.783 -0.6713  0.3685  0.2125
 5307TIP3   OH237555   3.351   1.415   2.917  0.3179  0.1138  0.6591
 5307TIP3    H137556   3.385   1.348   2.975 -0.6881 -0.4033  0.6741
 5307TIP3    H237557   3.257   1.419   2.937  0.1928  0.8335 -0.0216
 5308TIP3   OH237558   6.383   1.771   8.097  0.1313  0.2500  0.5004
 5308TIP3    H137559   6.374   1.680   8.125  1.8323 -0.0549  0.1468
 5308TIP3    H237560   6.331   1.777   8.017  0.4159 -0.5435  0.2509
 5309TIP3   OH237561   4.410   0.803   8.276 -0.0535 -0.5770 -0.1469
 5309TIP3    H137562   4.374   0.888   8.303  0.1969  0.0050 -1.5742
 5309TIP3    H237563   4.341   0.763   8.223 -0.1570 -1.2764  0.4857
 5310TIP3   OH237564   4.189   4.575   7.369  0.2858 -0.0591  0.0899
 5310TIP3    H137565   4.094   4.580   7.386  0.0672 -0.5029 -0.9501
 5310TIP3    H237566   4.224   4.529   7.445 -0.4490 -0.6392  0.0900
 5311TIP3   OH237567   3.090   3.665   6.875 -0.0956 -0.4083 -0.6777
 5311TIP3    H137568   3.131   3.693   6.793  0.4588 -1.4260 -0.7545
 5311TIP3    H237569   3.144   3.592   6.906  0.4593  0.7371  1.2510
 5312TIP3   OH237570   6.269   3.548   7.562 -0.8466  0.3961 -0.2836
 5312TIP3    H137571   6.233   3.578   7.479  0.6220  0.7161 -0.8492
 5312TIP3    H237572   6.352   3.597   7.571 -0.4523 -0.4276  0.8383
 5313TIP3   OH237573   2.371   3.051   7.045 -0.2271 -0.4879  0.7781
 5313TIP3    H137574   2.416   3.098   7.116  1.2103 -0.0651 -0.3576
 5313TIP3    H237575   2.328   3.120   6.994  1.0309 -0.4492 -0.2987
 5314TIP3   OH237576   3.446   1.369   8.708 -0.3026  0.0066  0.3236
 5314TIP3    H137577   3.369   1.361   8.763 -0.3505 -1.5922  0.0582
 5314TIP3    H237578   3.470   1.279   8.686  1.7147  0.4539  0.5001
 5315TIP3   OH237579   5.815   3.277   1.822 -0.4953  0.4874 -0.3240
 5315TIP3    H137580   5.731   3.264   1.779  0.8687 -3.9016 -2.2972
 5315TIP3    H237581   5.798   3.260   1.914 -1.7467 -1.0990 -0.7929
 5316TIP3   OH237582   1.986   0.972   0.143 -0.3020 -0.3240  0.0078
 5316TIP3    H137583   1.946   0.891   0.114 -0.8574  0.3721 -1.2748
 5316TIP3    H237584   1.999   1.023   0.062  3.1756 -0.4866  0.3042
 5317TIP3   OH237585   1.995   4.431   0.742  0.3624  0.3228  0.0658
 5317TIP3    H137586   2.048   4.360   0.705  1.2036  0.3087  1.2643
 5317TIP3    H237587   2.058   4.489   0.784 -0.5296  0.4845  1.2356
 5318TIP3   OH237588   6.121   6.024   2.642 -0.0954 -0.0534  0.9088
 5318TIP3    H137589   6.166   5.994   2.721  1.3762  4.8116  2.3035
 5318TIP3    H237590   6.034   6.052   2.673 -1.0755 -1.7996 -0.1218
 5319TIP3   OH237591   4.253   1.939   0.193  0.1589 -0.0505 -0.4109
 5319TIP3    H137592   4.196   1.952   0.269 -0.7317 -2.9296 -0.4577
 5319TIP3    H237593   4.214   1.865   0.147  3.4751 -1.6893 -0.8869
 5320TIP3   OH237594   5.715   5.486   8.739  0.1661 -0.1931 -0.4057
 5320TIP3    H137595   5.668   5.566   8.761  1.3086  0.1979  0.6780
 5320TIP3    H237596   5.668   5.452   8.662 -1.5779  0.4227  0.3353
 5321TIP3   OH237597   5.802   1.756   0.871 -0.2976 -0.1093  0.4472
 5321TIP3    H137598   5.720   1.749   0.821  0.5725 -1.8505 -0.8851
 5321TIP3    H237599   5.814   1.669   0.909  1.0118  0.0551  0.4658
 5322TIP3   OH237600   5.093   3.913   6.736  0.3958 -0.1484 -0.1388
 5322TIP3    H137601   5.176   3.907   6.688  0.1568  1.2150 -0.7768
 5322TIP3    H237602   5.105   3.984   6.798 -0.3803  0.2674 -0.4413
 5323TIP3   OH237603   6.787   5.725   1.023 -0.8449  0.3484  0.4789
 5323TIP3    H137604   6.847   5.669   0.975  0.1314  1.7670 -0.0393
 5323TIP3    H237605   6.836   5.750   1.102 -1.3970  0.2173  0.8726
 5324TIP3   OH237606   6.780   3.662   8.658  0.1525  0.1215 -0.4248
 5324TIP3    H137607   6.783   3.754   8.631  0.3452  0.3090  0.2180
 5324TIP3    H237608   6.739   3.617   8.585  1.5167  0.4603 -1.4341
 5325TIP3   OH237609   1.224   5.637   7.881  0.4781 -0.0012 -0.1095
 5325TIP3    H137610   1.304   5.584   7.885  1.0660  0.7021 -1.7618
 5325TIP3    H237611   1.196   5.632   7.789 -1.0522  0.2538  0.3153
 5326TIP3   OH237612   3.792   5.850   0.589 -0.2926 -0.2059 -0.2680
 5326TIP3    H137613   3.882   5.883   0.597 -0.7860  0.7705  2.3107
 5326TIP3    H237614   3.743   5.924   0.553 -0.1161 -0.7283 -1.6431
 5327TIP3   OH237615   0.394   5.986   1.355 -0.4691  0.0716 -0.0632
 5327TIP3    H137616   0.337   5.948   1.422 -1.5548 -0.1494 -1.0893
 5327TIP3    H237617   0.433   5.910   1.311 -0.3879  0.2009 -0.2184
 5328TIP3   OH237618   6.200   1.051   1.602  0.0798  0.0248  0.4322
 5328TIP3    H137619   6.188   1.126   1.544 -0.2949  0.5134  1.1318
 5328TIP3    H237620   6.217   1.089   1.688  1.5856 -0.6859  0.4732
 5329TIP3   OH237621   1.559   6.581   6.933 -0.2726 -0.2826  0.5224
 5329TIP3    H137622   1.504   6.651   6.898 -1.3503 -0.3248  2.0184
 5329TIP3    H237623   1.554   6.593   7.028  1.9311 -0.5989  0.7129
 5330TIP3   OH237624   2.714   6.575   2.763 -0.2888 -0.6109  0.2395
 5330TIP3    H137625   2.784   6.617   2.814  0.2112 -2.1457  0.8657
 5330TIP3    H237626   2.646   6.556   2.828 -0.1546 -1.4915  0.1336
 5331TIP3   OH237627   6.539   5.365   7.947 -0.1168 -0.5050  0.6213
 5331TIP3    H137628   6.556   5.335   8.036 -1.2245  2.7573  2.1220
 5331TIP3    H237629   6.624   5.397   7.916  0.1872 -1.2470  0.6760
 5332TIP3   OH237630   4.166   4.394   7.878  0.3431 -0.4909 -0.2770
 5332TIP3    H137631   4.185   4.308   7.841 -0.3321 -1.2967  1.1624
 5332TIP3    H237632   4.234   4.451   7.842  1.5970 -1.9025 -0.2520
 5333TIP3   OH237633   0.550   0.140   1.258 -0.3610 -0.2156 -0.0438
 5333TIP3    H137634   0.483   0.076   1.234 -0.8664  0.4379 -0.4083
 5333TIP3    H237635   0.631   0.103   1.223 -0.7554 -0.3157 -0.8988
 5334TIP3   OH237636   2.815   1.874   7.616 -0.3141 -0.6961 -0.0585
 5334TIP3    H137637   2.812   1.864   7.521 -1.6432 -0.9349 -0.0104
 5334TIP3    H237638   2.760   1.951   7.633 -1.9632 -1.9815  0.6671
 5335TIP3   OH237639   0.573   4.234   8.113  0.4697  0.4179 -0.0150
 5335TIP3    H137640   0.518   4.156   8.126 -1.8132  2.0663  0.9762
 5335TIP3    H237641   0.562   4.256   8.020  1.3373 -0.5528 -0.3633
 5336TIP3   OH237642   3.624   5.492   2.027 -0.2886 -0.1522  0.1749
 5336TIP3    H137643   3.559   5.426   2.052  0.5470 -1.9727 -2.0473
 5336TIP3    H237644   3.695   5.481   2.090  0.2680 -2.1997 -0.6901
 5337TIP3   OH237645   4.429   1.685   7.963 -0.1013 -0.2081 -0.0077
 5337TIP3    H137646   4.383   1.730   7.893 -2.1801  0.3178  1.6007
 5337TIP3    H237647   4.476   1.613   7.920 -0.0358  1.0167 -2.0799
 5338TIP3   OH237648   0.244   5.694   7.434 -0.0433 -0.2165  0.2074
 5338TIP3    H137649   0.234   5.631   7.505 -0.9154 -0.3246  0.0003
 5338TIP3    H237650   0.168   5.678   7.378  0.6613 -0.1676 -0.7750
 5339TIP3   OH237651   4.222   6.750   0.964  0.1143  0.6522  0.8370
 5339TIP3    H137652   4.157   6.819   0.982 -2.2875 -1.0502 -0.6666
 5339TIP3    H237653   4.209   6.687   1.034  0.0620  0.2513  0.4681
 5340TIP3   OH237654   3.219   2.684   2.022  0.3894 -0.3656  0.1270
 5340TIP3    H137655   3.212   2.685   2.117 -1.4814  0.8898  0.0285
 5340TIP3    H237656   3.158   2.751   1.992 -2.4268 -3.5706 -2.1219
 5341TIP3   OH237657   5.380   1.885   8.372 -0.5015  0.3570 -0.0380
 5341TIP3    H137658   5.314   1.876   8.441 -1.1569 -0.7862 -0.7905
 5341TIP3    H237659   5.352   1.962   8.322 -1.3186 -0.1594 -0.3953
 5342TIP3   OH237660   1.141   6.205   2.049  0.2230 -0.5815 -0.0102
 5342TIP3    H137661   1.084   6.277   2.026  1.0502  0.4939  1.2036
 5342TIP3    H237662   1.128   6.191   2.143  1.4651 -0.7254  0.1651
 5343TIP3   OH237663   5.426   6.571   7.388 -0.4419  0.3975  0.5695
 5343TIP3    H137664   5.484   6.505   7.349 -0.1719 -0.0648  1.7300
 5343TIP3    H237665   5.363   6.591   7.318 -0.1492 -0.6318 -0.0124
 5344TIP3   OH237666   3.719   2.370   7.865 -0.1170  0.3471  0.2598
 5344TIP3    H137667   3.667   2.297   7.901 -0.0391 -0.0380 -0.3913
 5344TIP3    H237668   3.693   2.446   7.917 -2.3113  0.4395 -0.8252
 5345TIP3   OH237669   3.086   2.986   0.648 -1.0862  0.6371  0.2574
 5345TIP3    H137670   2.993   3.010   0.659 -1.1744 -0.0071  0.9583
 5345TIP3    H237671   3.084   2.901   0.604 -0.8141  0.8764 -0.2205
 5346TIP3   OH237672   1.785   3.114   1.264 -0.1678  0.2704 -0.3895
 5346TIP3    H137673   1.758   3.050   1.198  1.4285 -0.4711 -0.3520
 5346TIP3    H237674   1.755   3.077   1.347 -0.7910  0.4536 -0.5198
 5347TIP3   OH237675   0.038   1.390   0.133  0.0149 -0.2838 -0.1397
 5347TIP3    H137676   0.064   1.427   0.048 -0.7411 -2.1133 -1.2380
 5347TIP3    H237677  -0.046   1.348   0.115  0.9122 -2.6602  0.9334
 5348TIP3   OH237678   3.436   4.673   8.054  0.2977 -0.2304 -0.1540
 5348TIP3    H137679   3.365   4.686   8.117  0.0344 -1.0818 -0.2700
 5348TIP3    H237680   3.514   4.657   8.107  0.5131  1.1591 -0.0145
 5349TIP3   OH237681   0.427   0.203   8.451  0.1224  0.6577  0.0073
 5349TIP3    H137682   0.399   0.295   8.447  0.2675  0.7964  1.7292
 5349TIP3    H237683   0.345   0.154   8.464 -0.1302  0.3746 -2.2649
 5350TIP3   OH237684   1.306   6.580   8.676 -0.0610  0.2621 -0.1043
 5350TIP3    H137685   1.267   6.502   8.715 -0.2313 -0.2877 -1.3280
 5350TIP3    H237686   1.366   6.547   8.609 -0.3400  1.1700 -0.8267
 5351TIP3   OH237687   2.346   6.234   2.035 -0.0176  0.2216  0.0493
 5351TIP3    H137688   2.406   6.175   2.082 -0.2470 -1.0090 -1.1227
 5351TIP3    H237689   2.321   6.299   2.100  1.2891 -0.2060  1.0336
 5352TIP3   OH237690   3.721   3.088   0.758  0.0087  0.0803 -0.3193
 5352TIP3    H137691   3.706   2.994   0.768  0.5861  0.1719  1.9025
 5352TIP3    H237692   3.817   3.097   0.759  0.0923  0.9978  4.4563
 5353TIP3   OH237693   6.554   0.367   7.856  0.4104 -0.0808  0.0444
 5353TIP3    H137694   6.606   0.337   7.781 -1.6104 -1.3160 -0.9539
 5353TIP3    H237695   6.539   0.288   7.907 -1.4565 -0.0290 -0.3508
 5354TIP3   OH237696   6.773   1.670   7.424  0.3935 -0.1747  0.3881
 5354TIP3    H137697   6.723   1.606   7.473 -1.4927  1.0807  0.2100
 5354TIP3    H237698   6.831   1.711   7.488  1.4965 -1.8774  0.5301
 5355TIP3   OH237699   5.308   5.798   0.987  0.1610  0.3496  0.2132
 5355TIP3    H137700   5.357   5.846   0.921 -0.7806 -0.8582 -1.4522
 5355TIP3    H237701   5.371   5.735   1.023  0.3221 -0.0066 -0.6503
 5356TIP3   OH237702   4.279   1.094   7.738 -0.8304  0.6526 -0.1560
 5356TIP3    H137703   4.313   1.023   7.684 -0.4566  1.0095 -0.3987
 5356TIP3    H237704   4.202   1.126   7.690  0.7961  2.4931 -1.7380
 5357TIP3   OH237705   3.422   1.651   8.701  0.8813 -0.0730 -0.3166
 5357TIP3    H137706   3.329   1.660   8.682  0.6154  0.2871  1.0443
 5357TIP3    H237707   3.440   1.558   8.689  0.3787 -0.1251 -0.6974
 5358TIP3   OH237708   0.276   6.347   8.830 -0.7710  0.3401  0.2069
 5358TIP3    H137709   0.192   6.374   8.792 -1.3882  3.1330  3.1291
 5358TIP3    H237710   0.339   6.411   8.796 -0.8602  1.2943  1.7175
 5359TIP3   OH237711   5.589   4.545   0.667  0.3216  0.2236  0.1934
 5359TIP3    H137712   5.566   4.634   0.694  0.4682  0.0815  0.7865
 5359TIP3    H237713   5.517   4.490   0.697 -0.3550  0.2848 -1.2071
 5360TIP3   OH237714   2.938   1.490   0.790  0.0433  0.1809 -0.1958
 5360TIP3    H137715   2.998   1.418   0.769  1.4777  0.3952  2.6881
 5360TIP3    H237716   2.937   1.493   0.886 -0.0442  3.9156 -0.1756
 5361TIP3   OH237717   6.717   5.968   1.750 -0.0870 -0.2707  0.3830
 5361TIP3    H137718   6.801   5.938   1.784 -0.6345 -0.9069  1.2316
 5361TIP3    H237719   6.655   5.900   1.776 -0.9458  0.4149  0.1921
 5362TIP3   OH237720   2.020   3.978   8.362 -0.2711 -0.3664  0.2910
 5362TIP3    H137721   2.103   3.996   8.407  0.1815 -1.0661 -0.2415
 5362TIP3    H237722   1.972   3.923   8.423  0.4028 -1.4374 -0.1281
 5363TIP3   OH237723   3.181   0.980   1.786 -0.0001 -0.0807  0.7360
 5363TIP3    H137724   3.098   0.936   1.803  0.2120 -1.1225 -0.7107
 5363TIP3    H237725   3.172   1.014   1.697  0.8563  0.4503  0.8440
 5364TIP3   OH237726   0.567   2.515   0.481  0.1132 -0.3818 -0.1148
 5364TIP3    H137727   0.519   2.485   0.405  2.9490  1.6588 -3.0180
 5364TIP3    H237728   0.546   2.609   0.488  2.7800  0.3658 -0.9505
 5365TIP3   OH237729   4.712   0.375   8.107 -0.2499 -0.0616 -0.3802
 5365TIP3    H137730   4.622   0.407   8.100  0.1882  1.7729  1.5914
 5365TIP3    H237731   4.765   0.439   8.059  0.2137 -0.1481  0.0071
 5366TIP3   OH237732   3.898   2.681   1.804  0.3211  0.2016 -0.2967
 5366TIP3    H137733   3.902   2.625   1.882  0.5508  1.0699  0.3198
 5366TIP3    H237734   3.805   2.700   1.793  0.2676 -0.0857 -0.3675
 5367TIP3   OH237735   6.493   2.548   7.326 -0.3237 -0.3572 -0.0413
 5367TIP3    H137736   6.574   2.507   7.296 -0.0471 -0.1864  0.4584
 5367TIP3    H237737   6.505   2.641   7.308  0.1068 -0.1690  1.1609
 5368TIP3   OH237738   2.794   6.257   1.938 -0.0734  0.2267  0.7708
 5368TIP3    H137739   2.837   6.318   1.878 -0.2029 -0.3050  0.1300
 5368TIP3    H237740   2.721   6.221   1.888  0.5034 -1.0907  0.8490
 5369TIP3   OH237741   6.538   1.816   8.353 -0.2883  0.0054 -0.3719
 5369TIP3    H137742   6.631   1.837   8.355 -0.2900  0.0458 -0.6249
 5369TIP3    H237743   6.518   1.806   8.260 -0.3255 -0.9538 -0.2649
 5370TIP3   OH237744   5.726   2.835   0.602  0.6072 -0.4727  0.2305
 5370TIP3    H137745   5.697   2.913   0.650 -0.1040 -0.7892  0.3321
 5370TIP3    H237746   5.780   2.787   0.665  2.6303  0.8326 -0.4116
 5371TIP3   OH237747   2.596   0.270   1.850 -0.2313 -0.4274  0.0456
 5371TIP3    H137748   2.584   0.256   1.756 -0.2264 -0.3279  0.0306
 5371TIP3    H237749   2.624   0.185   1.883  0.5316 -0.2634 -0.1651
 5372TIP3   OH237750   6.640   5.815   2.175 -0.0962 -0.4005 -0.1989
 5372TIP3    H137751   6.552   5.783   2.153  0.0627 -0.3386 -0.9502
 5372TIP3    H237752   6.667   5.761   2.249 -0.0557 -1.6573 -1.0918
 5373TIP3   OH237753   0.910   3.908   1.050 -0.1665  0.6636 -0.2338
 5373TIP3    H137754   0.893   3.814   1.038 -0.1654  0.6907 -0.4616
 5373TIP3    H237755   0.828   3.942   1.084 -1.5569  1.2403 -3.7144
 5374TIP3   OH237756   5.940   6.548   2.064  0.2625  0.3778  0.2653
 5374TIP3    H137757   5.952   6.543   2.158 -0.5135 -3.4993  0.3096
 5374TIP3    H237758   6.008   6.491   2.028 -1.8243 -1.3787 -1.1678
 5375TIP3   OH237759   4.367   0.396   3.071  0.4943 -0.1469  0.0339
 5375TIP3    H137760   4.376   0.300   3.069 -0.6638 -0.2557 -1.4867
 5375TIP3    H237761   4.273   0.411   3.080  0.3086  0.7792 -2.4953
 5376TIP3   OH237762   5.752   4.244   7.666  0.3108 -0.3918 -0.4154
 5376TIP3    H137763   5.678   4.275   7.719  1.0291 -0.3651  0.5903
 5376TIP3    H237764   5.712   4.216   7.584 -0.9075 -0.9946  0.3554
 5377TIP3   OH237765   1.500   0.623   2.239  0.5141  0.2349  0.4932
 5377TIP3    H137766   1.578   0.678   2.236 -0.2038  1.2778  0.4049
 5377TIP3    H237767   1.435   0.670   2.186 -0.6913  0.2307  1.8931
 5378TIP3   OH237768   2.584   1.254   0.073 -0.1170  0.1664  0.3553
 5378TIP3    H137769   2.610   1.337   0.032  1.9222  0.5076  2.1399
 5378TIP3    H237770   2.564   1.277   0.164 -1.4397 -1.0307  0.4017
 5379TIP3   OH237771   0.659   2.448   1.973 -0.2372 -0.1521 -0.5491
 5379TIP3    H137772   0.663   2.544   1.983 -0.6521  0.1610 -2.8055
 5379TIP3    H237773   0.607   2.419   2.048 -1.8022  1.6257 -0.8638
 5380TIP3   OH237774   6.081   6.012   8.335 -0.0288  0.4297 -0.6431
 5380TIP3    H137775   6.125   5.954   8.273 -0.0410  1.4772 -1.6609
 5380TIP3    H237776   6.148   6.034   8.400  0.0119 -0.5899 -0.3174
 5381TIP3   OH237777   5.370   6.735   0.760  0.2912  0.5037  0.3023
 5381TIP3    H137778   5.336   6.645   0.765  1.1997  0.1506  0.3710
 5381TIP3    H237779   5.430   6.734   0.686 -0.5484  1.3692 -0.4123
 5382TIP3   OH237780   6.534   1.690   3.028 -0.2690  0.1047 -0.3563
 5382TIP3    H137781   6.621   1.660   3.003 -0.5898 -1.4118  0.2431
 5382TIP3    H237782   6.489   1.705   2.944  0.2491 -0.0814 -0.6743
 5383TIP3   OH237783   1.297   6.436   2.271 -0.6671 -0.3460 -0.0998
 5383TIP3    H137784   1.346   6.441   2.188  2.5204 -0.9597  1.5760
 5383TIP3    H237785   1.328   6.355   2.311 -2.0058  0.0158  1.7728
 5384TIP3   OH237786   0.436   1.877   7.924  0.5306 -0.7303 -0.0225
 5384TIP3    H137787   0.391   1.795   7.944 -1.1328  0.2767  0.5425
 5384TIP3    H237788   0.371   1.930   7.877  1.5799  0.2501 -0.4291
 5385TIP3   OH237789   4.517   6.622   3.193  0.1859 -0.2171  0.2163
 5385TIP3    H137790   4.554   6.652   3.276 -0.1661 -0.9270  0.6300
 5385TIP3    H237791   4.483   6.702   3.152  0.2097  0.1114  0.8253
 5386TIP3   OH237792   1.594   3.100   1.804  0.3549 -0.0332  0.2349
 5386TIP3    H137793   1.554   3.158   1.739  1.3120  0.1054 -0.2465
 5386TIP3    H237794   1.533   3.101   1.878 -0.3567  0.4341 -0.3459
 5387TIP3   OH237795   2.605   3.372   7.870  0.0540  0.1371  0.1485
 5387TIP3    H137796   2.695   3.342   7.881 -0.2249 -1.4547 -1.5118
 5387TIP3    H237797   2.609   3.466   7.888  1.4863 -0.3387  2.7832
 5388TIP3   OH237798   2.160   4.226   0.152 -0.5964 -0.1948  0.1854
 5388TIP3    H137799   2.233   4.183   0.107 -1.0193 -0.1267 -0.5854
 5388TIP3    H237800   2.092   4.159   0.159 -0.2639 -0.4362  1.4349
 5389TIP3   OH237801   4.070   6.402   7.533  0.2921  0.1581 -0.0938
 5389TIP3    H137802   4.157   6.435   7.513  0.0017  0.4976 -0.8032
 5389TIP3    H237803   4.081   6.356   7.617  0.7877  1.7072  0.7345
 5390TIP3   OH237804   1.624   3.648   0.305  0.1350  0.5117  0.2978
 5390TIP3    H137805   1.600   3.558   0.285  0.6634  0.5190 -0.4168
 5390TIP3    H237806   1.561   3.676   0.371 -0.2798 -0.2496  0.2317
 5391TIP3   OH237807   1.617   0.037   7.999 -0.1511  0.2046  0.2207
 5391TIP3    H137808   1.690   0.030   7.938  1.0411  0.1676  1.6047
 5391TIP3    H237809   1.583  -0.053   8.006 -0.7987  0.3312 -0.9218
 5392TIP3   OH237810   3.658   4.615   8.212  0.0813  0.0205 -0.2049
 5392TIP3    H137811   3.677   4.524   8.187 -2.2662 -0.6103  0.0686
 5392TIP3    H237812   3.642   4.610   8.306  0.3786  0.8285 -0.1037
 5393TIP3   OH237813   2.724   2.676   8.257 -0.1865  0.4630 -0.0009
 5393TIP3    H137814   2.739   2.682   8.163 -2.1807  3.0958 -0.2527
 5393TIP3    H237815   2.645   2.623   8.265  0.2437 -0.1576  0.2716
 5394TIP3   OH237816   5.191   2.075   8.869 -0.1993 -0.4816 -0.4948
 5394TIP3    H137817   5.166   2.119   8.950 -0.6555 -1.8614  0.1629
 5394TIP3    H237818   5.188   2.143   8.802 -0.6784  0.5022  0.4973
 5395TIP3   OH237819   5.823   0.427   0.904 -0.0782 -0.3824  0.2382
 5395TIP3    H137820   5.759   0.485   0.863  2.1842  1.4572 -0.9181
 5395TIP3    H237821   5.799   0.340   0.874 -0.1807  0.5921 -2.8723
 5396TIP3   OH237822   3.921   2.439   0.545  0.0645  0.7586 -0.9319
 5396TIP3    H137823   4.002   2.420   0.498 -1.3774 -1.9067 -2.5753
 5396TIP3    H237824   3.921   2.535   0.554  2.9163  0.9135 -1.6755
 5397TIP3   OH237825   6.165   0.591   0.952  0.2805 -0.1399  0.3142
 5397TIP3    H137826   6.135   0.654   0.887  0.5652 -0.3687 -0.0506
 5397TIP3    H237827   6.148   0.505   0.912 -1.4158 -0.3447  1.3985
 5398TIP3   OH237828   3.995   4.773   1.747 -0.0805 -0.2953 -0.0997
 5398TIP3    H137829   3.956   4.755   1.662 -0.8870  1.3527 -0.1278
 5398TIP3    H237830   4.088   4.787   1.730 -0.4207  1.1926 -0.9432
 5399TIP3   OH237831   6.190   3.514   0.247  0.5199  0.0327 -0.5305
 5399TIP3    H137832   6.135   3.581   0.287  1.5449 -1.0301  3.0227
 5399TIP3    H237833   6.128   3.451   0.209 -0.6766  0.1331  1.1423
 5400TIP3   OH237834   0.713   5.967   7.652  0.5236 -0.5982 -0.9523
 5400TIP3    H137835   0.782   6.028   7.626 -0.5351  1.1387  0.0712
 5400TIP3    H237836   0.689   5.995   7.741 -0.5129 -2.0661 -0.7295
 5401TIP3   OH237837   1.311   1.409   8.256  0.1933 -0.0545 -0.4526
 5401TIP3    H137838   1.333   1.333   8.201 -0.2658  0.6574 -1.6636
 5401TIP3    H237839   1.218   1.424   8.240 -0.6390 -1.3605  2.5152
 5402TIP3   OH237840   4.217   2.486   2.453 -0.3230  0.2111  0.0221
 5402TIP3    H137841   4.159   2.462   2.525  0.1906  2.0153  1.1077
 5402TIP3    H237842   4.291   2.529   2.496  0.0741  1.2101 -1.5699
 5403TIP3   OH237843   4.858   2.661   8.065 -0.3358  0.3692 -0.1345
 5403TIP3    H137844   4.837   2.624   8.151  0.6671  1.3823  0.5809
 5403TIP3    H237845   4.774   2.687   8.029 -0.6463  1.7866  1.4401
 5404TIP3   OH237846   3.383   2.972   2.350  0.5151 -0.0331  0.2628
 5404TIP3    H137847   3.453   2.909   2.335 -0.1605 -0.6379 -0.4604
 5404TIP3    H237848   3.412   3.023   2.426  0.4658 -2.1059  1.7566
 5405TIP3   OH237849   0.653   6.105   1.407 -0.2271 -0.2507  0.8403
 5405TIP3    H137850   0.575   6.050   1.399  0.4969 -1.4218  1.5535
 5405TIP3    H237851   0.635   6.163   1.481 -0.9389  0.4018  0.1728
 5406TIP3   OH237852   5.420   0.141   8.128  0.0323 -0.0011  0.2216
 5406TIP3    H137853   5.445   0.144   8.036  0.9031 -0.3724  0.4368
 5406TIP3    H237854   5.503   0.140   8.176 -0.3851  1.7320  1.0809
 5407TIP3   OH237855   0.747   5.820   8.242 -0.0124 -0.0030 -0.3087
 5407TIP3    H137856   0.668   5.839   8.192 -0.6304 -0.2401  0.5477
 5407TIP3    H237857   0.810   5.885   8.212 -1.0543  1.2960  0.1861
 5408TIP3   OH237858   6.012   5.683   2.370 -0.4653  0.2957  0.0004
 5408TIP3    H137859   5.970   5.710   2.452 -0.0043 -0.2700  0.4284
 5408TIP3    H237860   5.956   5.614   2.336 -0.7930  0.6998 -0.2985
 5409TIP3   OH237861   3.255   2.898   8.800  0.1024 -0.8891  0.6634
 5409TIP3    H137862   3.318   2.881   8.870  0.6403  1.0726  0.7379
 5409TIP3    H237863   3.296   2.863   8.721  0.2467 -1.6322  1.0612
 5410TIP3   OH237864   3.954   6.019   2.019 -0.2520  0.1380 -0.1659
 5410TIP3    H137865   3.986   6.084   2.081  0.7091 -0.8166  0.3721
 5410TIP3    H237866   3.916   5.950   2.073  0.6733 -0.7502 -0.6071
 5411TIP3   OH237867   4.320   3.913   7.588  0.1412  0.3161  0.4508
 5411TIP3    H137868   4.410   3.880   7.595 -0.2323 -0.6790  0.7456
 5411TIP3    H237869   4.273   3.843   7.543 -0.4254  0.9616  0.0268
 5412TIP3   OH237870   1.104   0.001   1.163 -0.1602  0.0446 -0.2441
 5412TIP3    H137871   1.165  -0.073   1.155  0.1152  0.3277 -0.7759
 5412TIP3    H237872   1.073  -0.004   1.254  0.9948  0.1559  0.1812
 5413TIP3   OH237873   2.197   3.464   8.438  0.5760  0.3717  0.0790
 5413TIP3    H137874   2.135   3.514   8.490  0.9389  1.5030 -0.5431
 5413TIP3    H237875   2.221   3.390   8.495  0.3928  1.1520  1.2171
 5414TIP3   OH237876   5.681   3.283   2.231 -0.3692 -0.2245 -0.1224
 5414TIP3    H137877   5.745   3.220   2.198 -1.1746 -1.0060 -0.2215
 5414TIP3    H237878   5.596   3.242   2.215 -0.8297 -0.2378  2.0854
 5415TIP3   OH237879   6.258   6.761   8.303  0.0373 -0.4605  0.1937
 5415TIP3    H137880   6.269   6.834   8.241  0.5731 -2.6101 -2.4307
 5415TIP3    H237881   6.168   6.733   8.290 -0.0154 -0.5742  0.8140
 5416TIP3   OH237882   6.011   1.079   0.387 -0.4524  0.6060  0.4537
 5416TIP3    H137883   6.010   1.139   0.462  2.2834  0.5251  0.6607
 5416TIP3    H237884   6.008   1.137   0.310 -0.2845  0.8497  0.6294
 5417TIP3   OH237885   1.684   1.387   1.238 -0.0147 -0.0009 -0.2246
 5417TIP3    H137886   1.711   1.316   1.295  1.3335  0.8621  0.2407
 5417TIP3    H237887   1.595   1.409   1.267 -0.1887 -1.0408  0.0509
 5418TIP3   OH237888   3.759   1.543   0.760 -0.2182 -0.3698  0.1496
 5418TIP3    H137889   3.774   1.469   0.700 -1.0146 -1.7475  1.5793
 5418TIP3    H237890   3.783   1.509   0.846 -0.0078  1.2700  0.7658
 5419TIP3   OH237891   0.642   6.033   1.998 -0.5916 -0.6622  0.2603
 5419TIP3    H137892   0.659   5.939   2.007  0.6405 -0.3227  2.1263
 5419TIP3    H237893   0.650   6.067   2.088  0.3427  1.4354 -0.5502
 5420TIP3   OH237894   6.555   5.959   0.527 -0.7703  0.0342 -0.4643
 5420TIP3    H137895   6.555   5.867   0.555 -2.3824 -0.5511 -2.1742
 5420TIP3    H237896   6.569   5.955   0.433 -2.1309  1.4381 -0.7624
 5421TIP3   OH237897   2.816   2.044   1.235 -0.0973  0.1926  0.1389
 5421TIP3    H137898   2.861   2.002   1.161  0.0869  0.0164  0.3507
 5421TIP3    H237899   2.729   2.066   1.201  0.3742  1.1686 -0.5017
 5422TIP3   OH237900   5.246   2.543   1.763 -0.8763 -0.5142 -0.0927
 5422TIP3    H137901   5.262   2.630   1.726  2.3142 -0.7284  0.4981
 5422TIP3    H237902   5.250   2.483   1.689 -0.8561 -0.3569 -0.2170
 5423TIP3   OH237903   2.285   6.608   7.360 -0.3477  0.1498  0.3657
 5423TIP3    H137904   2.376   6.621   7.335 -0.1882  0.4968  1.1027
 5423TIP3    H237905   2.253   6.695   7.382 -0.9815  0.0894 -0.2525
 5424TIP3   OH237906   1.067   1.647   1.811  0.1852  0.5595  0.5257
 5424TIP3    H137907   0.980   1.609   1.821  0.3408  0.5357  2.0617
 5424TIP3    H237908   1.072   1.672   1.718 -0.9288 -0.6737  0.1053
 5425TIP3   OH237909   4.746   5.978   8.203  0.3557 -0.7882  0.0054
 5425TIP3    H137910   4.743   6.006   8.112  1.1355 -1.4031 -0.2266
 5425TIP3    H237911   4.692   5.899   8.206  0.8986 -1.1673 -0.0829
 5426TIP3   OH237912   0.865   1.644   8.328 -0.0066 -0.1353  0.1190
 5426TIP3    H137913   0.841   1.610   8.415 -0.5240 -0.0939 -0.0017
 5426TIP3    H237914   0.781   1.662   8.286  0.2378 -0.6100 -0.5782
 5427TIP3   OH237915   2.897   0.054   0.762 -0.1217 -0.3000  0.1515
 5427TIP3    H137916   2.901   0.118   0.833 -1.9207 -2.7969  2.6781
 5427TIP3    H237917   2.804   0.045   0.743  0.1501 -1.6428 -0.6733
 5428TIP3   OH237918   5.363   2.857   1.901  0.3141  0.0130  0.1240
 5428TIP3    H137919   5.398   2.898   1.979 -2.5087  1.8304  0.5804
 5428TIP3    H237920   5.409   2.773   1.894 -0.4813 -1.0760  4.7475
 5429TIP3   OH237921   2.196   5.478   8.277 -0.7297 -0.0938 -0.3241
 5429TIP3    H137922   2.226   5.387   8.276  1.0936  0.4562 -0.1722
 5429TIP3    H237923   2.216   5.509   8.366  1.6869  1.3128 -1.2437
 5430TIP3   OH237924   4.083   0.443   7.288 -0.1275  0.0688 -0.2871
 5430TIP3    H137925   4.074   0.354   7.256 -1.0815 -0.9103  2.3817
 5430TIP3    H237926   3.999   0.485   7.266  0.3246  0.3512 -1.5468
 5431TIP3   OH237927   1.858   6.753   1.260 -0.5058  0.5451  0.0011
 5431TIP3    H137928   1.935   6.711   1.298 -0.7059  0.0918 -0.0935
 5431TIP3    H237929   1.885   6.845   1.248 -1.1750  1.3205  3.3785
 5432TIP3   OH237930   4.427   0.207   1.052  0.3833  0.1600 -0.4257
 5432TIP3    H137931   4.446   0.296   1.084 -0.2433 -0.6387  2.4909
 5432TIP3    H237932   4.337   0.191   1.081  0.7990 -1.7352 -0.1031
 5433TIP3   OH237933   5.388   5.336   0.439  0.0821 -0.0103 -0.1694
 5433TIP3    H137934   5.411   5.423   0.409 -0.1431 -0.0602 -0.4940
 5433TIP3    H237935   5.447   5.277   0.393 -0.3823 -0.1015 -0.6616
 5434TIP3   OH237936   5.216   3.230   0.791 -0.2952 -0.2853  0.1407
 5434TIP3    H137937   5.291   3.290   0.783  0.9401 -1.8747 -0.7039
 5434TIP3    H237938   5.225   3.192   0.879  0.9380 -1.7637 -0.5914
 5435TIP3   OH237939   1.739   2.039   8.346  0.1499 -0.0904 -0.3911
 5435TIP3    H137940   1.825   2.014   8.311 -0.0138 -0.0177 -0.8583
 5435TIP3    H237941   1.750   2.130   8.374  0.4770 -0.3716  0.4029
 5436TIP3   OH237942   0.631   2.566   0.747 -0.4243 -0.8063 -0.6977
 5436TIP3    H137943   0.652   2.546   0.656 -0.7014 -0.0034 -0.9507
 5436TIP3    H237944   0.616   2.661   0.748 -0.8717 -0.8749  0.0935
 5437TIP3   OH237945   2.544   6.567   8.834 -0.2079 -0.0664  0.0126
 5437TIP3    H137946   2.479   6.627   8.870  0.5630  0.7394  0.0655
 5437TIP3    H237947   2.590   6.618   8.767 -1.1427 -1.3132 -1.6575
 5438TIP3   OH237948   1.882   1.907   8.152  0.2778  0.3279  0.6759
 5438TIP3    H137949   1.936   1.980   8.121  0.8213 -1.1532 -2.2010
 5438TIP3    H237950   1.794   1.928   8.124  0.5178 -0.2798 -0.6301
 5439TIP3   OH237951   2.943   4.928   8.495 -0.4470 -0.1426  0.2399
 5439TIP3    H137952   2.932   4.840   8.459 -2.2113  0.0210  0.2748
 5439TIP3    H237953   2.882   4.932   8.568 -1.1787  1.4301 -0.4057
 5440TIP3   OH237954   0.423   3.214   2.247 -1.3776 -0.5136  0.3143
 5440TIP3    H137955   0.375   3.283   2.291 -2.1895 -1.1660  0.4815
 5440TIP3    H237956   0.435   3.146   2.314  0.1416 -0.1955  0.3855
 5441TIP3   OH237957   6.026   6.501   0.180 -0.6510 -0.3566  0.0905
 5441TIP3    H137958   5.995   6.568   0.242 -0.8987 -1.0133  0.6943
 5441TIP3    H237959   6.116   6.484   0.207 -0.7592 -0.6429  0.2736
 5442TIP3   OH237960   1.357   0.993   2.387 -0.0772  0.4174 -0.0773
 5442TIP3    H137961   1.355   1.029   2.299 -0.2260  1.9193  0.5022
 5442TIP3    H237962   1.366   1.070   2.444 -0.9898 -0.4199  1.2628
 5443TIP3   OH237963   1.655   4.393   8.730  0.3067  0.0107 -0.0749
 5443TIP3    H137964   1.703   4.312   8.748  0.2730 -0.0005 -0.0350
 5443TIP3    H237965   1.632   4.386   8.637 -1.8292 -1.1946  0.4707
 5444TIP3   OH237966   4.825   1.918   1.642  0.4010  1.1410 -0.3053
 5444TIP3    H137967   4.891   1.959   1.587  0.1518  0.1774 -1.3581
 5444TIP3    H237968   4.743   1.929   1.594 -0.1055  1.7165  0.6554
 5445TIP3   OH237969   4.236   1.529   2.504 -0.1286  0.0081  0.4809
 5445TIP3    H137970   4.242   1.515   2.410 -1.5951  2.5694 -0.0788
 5445TIP3    H237971   4.327   1.527   2.534  0.3511 -0.9856 -0.9283
 5446TIP3   OH237972   4.677   0.914   1.031 -0.2946 -0.2488 -0.4028
 5446TIP3    H137973   4.610   0.967   1.075 -0.7033 -1.2199  0.1853
 5446TIP3    H237974   4.631   0.874   0.957  0.7402  2.5594 -2.7586
 5447TIP3   OH237975   5.743   6.425   1.906  0.7064  0.5509 -0.3618
 5447TIP3    H137976   5.788   6.507   1.925 -0.3354  0.7748  1.3385
 5447TIP3    H237977   5.782   6.362   1.967 -0.8938  0.6409  0.8112
 5448TIP3   OH237978   0.502   4.438   8.674  0.2990 -0.3328 -0.8463
 5448TIP3    H137979   0.525   4.509   8.734  0.3102 -1.7470  0.9050
 5448TIP3    H237980   0.421   4.467   8.632 -0.2315  0.2953  0.5627
 5449TIP3   OH237981   2.571   3.335   7.601  0.0483  0.5759 -0.3014
 5449TIP3    H137982   2.610   3.334   7.688  0.6805 -0.4774 -0.5696
 5449TIP3    H237983   2.635   3.379   7.546 -0.1491  0.8397 -0.3224
 5450TIP3   OH237984   5.235   6.816   7.699  0.2180 -0.4343 -0.0188
 5450TIP3    H137985   5.155   6.772   7.728 -1.0393 -0.6413 -3.3795
 5450TIP3    H237986   5.292   6.744   7.671  1.1234 -0.2129  1.1739
 5451TIP3   OH237987   5.209   2.549   0.353 -0.1156  0.3754 -0.6251
 5451TIP3    H137988   5.303   2.568   0.354 -0.3582  1.9329 -2.1444
 5451TIP3    H237989   5.179   2.573   0.440  0.4924  2.3899 -0.9042
 5452TIP3   OH237990   0.320   0.760   2.378 -0.9877 -0.0336  0.3892
 5452TIP3    H137991   0.369   0.837   2.409  0.9182 -0.9678 -0.1520
 5452TIP3    H237992   0.374   0.685   2.405 -2.0230 -1.1085 -0.4357
 5453TIP3   OH237993   3.591   2.444   8.154  0.2569 -0.9136 -0.4531
 5453TIP3    H137994   3.610   2.515   8.092 -2.1665 -2.0826 -2.7099
 5453TIP3    H237995   3.508   2.468   8.194  0.0833 -1.8591 -0.2250
 5454TIP3   OH237996   0.518   5.879   8.096 -0.6530  0.2588 -0.3776
 5454TIP3    H137997   0.521   5.805   8.035 -1.5961  1.1088 -1.5161
 5454TIP3    H237998   0.426   5.885   8.121 -0.0823 -0.9786  2.3768
 5455TIP3   OH237999   0.744   5.648   0.280  0.9732  0.3940 -0.1998
 5455TIP3    H138000   0.688   5.721   0.254  0.9281  0.7162  0.7396
 5455TIP3    H238001   0.769   5.606   0.198  0.1677  0.8462 -0.6937
 5456TIP3   OH238002   3.214   4.062   2.186  1.0459  0.2501  0.2048
 5456TIP3    H138003   3.158   4.121   2.236  0.8630 -0.2760  0.6274
 5456TIP3    H238004   3.303   4.095   2.203  0.9134  0.7151  0.0206
 5457TIP3   OH238005   6.034   4.925   2.657  0.3591 -0.1658  0.2459
 5457TIP3    H138006   6.084   5.006   2.647 -1.9748  1.3295  0.1647
 5457TIP3    H238007   6.013   4.921   2.750 -0.4947 -0.0927  0.0563
 5458TIP3   OH238008   4.017   5.310   1.617  0.5142 -0.1884  0.8370
 5458TIP3    H138009   4.015   5.406   1.615  0.0996 -0.1999 -0.9481
 5458TIP3    H238010   3.927   5.284   1.596  0.7652 -0.9737  0.7037
 5459TIP3   OH238011   5.928   6.233   1.442 -0.4411  0.0612 -0.3521
 5459TIP3    H138012   5.904   6.215   1.533 -1.2455  0.5086 -0.4631
 5459TIP3    H238013   5.944   6.147   1.403  0.4946 -0.1005  0.3642
 5460TIP3   OH238014   3.235   1.429   1.705  0.2839  0.1526  0.1285
 5460TIP3    H138015   3.143   1.454   1.712  0.5285  0.9523  0.7126
 5460TIP3    H238016   3.268   1.478   1.630 -0.0849 -1.2233 -0.9783
 5461TIP3   OH238017   0.107   3.463   8.758 -0.6669 -0.3561 -0.6041
 5461TIP3    H138018   0.057   3.541   8.733  3.2880  2.8371  0.3356
 5461TIP3    H238019   0.132   3.423   8.674  0.6184  1.9091 -1.4021
 5462TIP3   OH238020   3.211   3.639   0.155  0.2216  0.3839  0.0741
 5462TIP3    H138021   3.271   3.712   0.166  0.0658  0.6628 -0.8169
 5462TIP3    H238022   3.266   3.568   0.121 -0.0209  0.8158 -1.3050
 5463TIP3   OH238023   1.998   5.164   2.069  1.2338 -0.2973 -0.2496
 5463TIP3    H138024   1.923   5.134   2.018  0.1944  1.8174 -0.0354
 5463TIP3    H238025   1.973   5.148   2.160  0.8120  0.8889 -0.1520
 5464TIP3   OH238026   5.272   6.451   0.844  0.7443  0.1424 -0.1747
 5464TIP3    H138027   5.304   6.366   0.816  1.4441  0.2544  0.2667
 5464TIP3    H238028   5.184   6.458   0.805  0.2993 -1.1538  0.5447
 5465TIP3   OH238029   5.312   4.920   1.466  0.1511 -0.1339 -0.3576
 5465TIP3    H138030   5.339   4.873   1.545  1.2289 -0.5616 -0.9605
 5465TIP3    H238031   5.285   5.007   1.497  0.0757 -0.4748  0.5359
 5466TIP3   OH238032   1.115   2.701   0.500 -0.3583 -0.1119 -0.0053
 5466TIP3    H138033   1.032   2.664   0.531 -0.6169  0.1732 -0.3448
 5466TIP3    H238034   1.133   2.773   0.560 -0.7637  0.3218 -0.3891
 5467TIP3   OH238035   1.669   2.614   0.239 -0.5314 -0.4286  0.3914
 5467TIP3    H138036   1.611   2.558   0.290 -0.1753 -2.1136 -0.9923
 5467TIP3    H238037   1.695   2.561   0.164  1.3259  0.9357 -0.0006
 5468TIP3   OH238038   4.104   6.684   0.101 -0.4396  0.0781  0.4976
 5468TIP3    H138039   4.199   6.689   0.112 -0.5594 -0.0018  1.7157
 5468TIP3    H238040   4.083   6.758   0.045  0.2166  0.7946  1.1736
 5469TIP3   OH238041   3.255   6.521   1.289  0.0808 -0.2399 -0.0897
 5469TIP3    H138042   3.188   6.461   1.257 -0.8958 -0.5028  2.2039
 5469TIP3    H238043   3.252   6.510   1.384  1.4722  1.7915  0.2401
 5470TIP3   OH238044   2.101   2.114   1.141 -0.4514 -0.1794 -0.3246
 5470TIP3    H138045   2.185   2.148   1.111 -0.2102 -1.4293 -1.1696
 5470TIP3    H238046   2.040   2.133   1.069 -0.9973  1.0569  0.4413
 5471TIP3   OH238047   0.139   4.066   8.200 -0.1144 -0.4993 -0.3229
 5471TIP3    H138048   0.072   4.009   8.163 -1.0379  0.8855 -0.8556
 5471TIP3    H238049   0.199   4.083   8.128 -1.1321  1.0529 -0.8439
 5472TIP3   OH238050   5.498   1.008   0.117 -0.1731  0.3980 -0.4064
 5472TIP3    H138051   5.508   0.929   0.065 -0.7747  0.5222 -0.7231
 5472TIP3    H238052   5.480   0.976   0.206  0.1366  0.1873 -0.4159
 5473TIP3   OH238053   3.933   1.456   8.312 -0.7932 -0.3265  0.3117
 5473TIP3    H138054   3.941   1.421   8.401  1.7318  0.1499  0.3539
 5473TIP3    H238055   4.023   1.477   8.286 -1.5773  0.6190 -1.9396
 5474TIP3   OH238056   3.817   0.781   0.537  0.0364  0.1465 -0.0413
 5474TIP3    H138057   3.765   0.750   0.462 -0.0299 -0.9255  0.4434
 5474TIP3    H238058   3.752   0.801   0.604  0.0007  2.1810 -0.6044
 5475TIP3   OH238059   4.633   4.354   8.225 -0.0135  0.3739 -0.0467
 5475TIP3    H138060   4.559   4.334   8.168  0.6764 -0.3626 -0.7016
 5475TIP3    H238061   4.704   4.299   8.193  0.5693  0.3993  1.1433
 5476TIP3   OH238062   4.901   3.426   7.632  0.3306 -0.1459 -0.2160
 5476TIP3    H138063   4.955   3.347   7.623 -2.0746 -1.8606 -0.5113
 5476TIP3    H238064   4.826   3.410   7.574 -0.5148  2.1220  0.1685
 5477TIP3   OH238065   2.006   3.245   8.391  0.0296 -0.9001  0.0873
 5477TIP3    H138066   2.087   3.208   8.426  0.4501 -2.0143 -1.8974
 5477TIP3    H238067   2.034   3.301   8.319 -0.9702 -2.4151 -1.5764
 5478TIP3   OH238068   0.943   1.305   0.602  0.2321  0.3502  0.6313
 5478TIP3    H138069   0.866   1.289   0.547  0.1558  2.1614  0.1475
 5478TIP3    H238070   1.014   1.258   0.559  0.3677  2.3725 -1.5900
 5479TIP3   OH238071   0.456   4.972   0.697 -0.0903  0.1658 -0.1401
 5479TIP3    H138072   0.410   5.007   0.773 -0.2615 -0.7710  0.2077
 5479TIP3    H238073   0.535   5.026   0.689  1.3808 -1.3732  2.4159
 5480TIP3   OH238074   0.761   6.016   8.733  0.2607  0.3728  0.3452
 5480TIP3    H138075   0.807   5.936   8.757  1.6852  1.0098 -0.1394
 5480TIP3    H238076   0.680   5.986   8.692  1.0818 -0.8317 -0.4395
 5481TIP3   OH238077   1.389   3.717   8.232 -0.2289 -0.3735 -0.0133
 5481TIP3    H138078   1.476   3.708   8.271  0.2213 -0.8512 -1.0965
 5481TIP3    H238079   1.402   3.775   8.157 -0.5695 -1.4923 -0.9623
 5482TIP3   OH238080   3.426   2.580   0.851 -0.1125 -0.2957 -0.1491
 5482TIP3    H138081   3.451   2.491   0.825  1.5236 -0.4354  1.6280
 5482TIP3    H238082   3.331   2.578   0.856 -0.0880 -2.0595  0.2086
 5483TIP3   OH238083   1.079   3.941   2.748 -0.3265  0.6162  0.2280
 5483TIP3    H138084   1.041   3.859   2.781 -0.9262 -0.0398 -1.8961
 5483TIP3    H238085   1.003   3.996   2.728  0.0746  1.8799  1.9192
 5484TIP3   OH238086   6.407   1.704   7.463  0.6462  0.0100 -0.3469
 5484TIP3    H138087   6.475   1.723   7.399 -0.4753  0.4672 -1.4384
 5484TIP3    H238088   6.325   1.710   7.414 -0.2155 -0.1522  1.0140
 5485TIP3   OH238089   2.878   5.200   3.168  0.3331 -0.4208  0.1834
 5485TIP3    H138090   2.913   5.252   3.095  0.6771 -1.4410 -0.4024
 5485TIP3    H238091   2.954   5.154   3.203 -0.2277 -1.9699 -0.5236
 5486TIP3   OH238092   3.282   3.140   0.574 -0.1087 -0.0493 -0.8003
 5486TIP3    H138093   3.328   3.080   0.515 -0.4098 -1.0998  0.0035
 5486TIP3    H238094   3.211   3.088   0.611 -1.7191  1.4248 -1.6972
 5487TIP3   OH238095   5.168   5.273   8.476 -0.2684  0.1863  0.6123
 5487TIP3    H138096   5.148   5.251   8.567 -4.5387  1.0218  0.0668
 5487TIP3    H238097   5.099   5.231   8.425  2.4793 -1.0298 -2.4798
 5488TIP3   OH238098   3.398   1.978   8.664 -0.2233  0.5711 -0.3567
 5488TIP3    H138099   3.467   2.003   8.726 -0.8391 -0.4000  0.7819
 5488TIP3    H238100   3.333   2.048   8.672 -0.0640  0.7136 -0.2879
 5489TIP3   OH238101   2.642   3.515   8.368 -0.4143  0.0356 -0.4416
 5489TIP3    H138102   2.638   3.422   8.390  1.9126 -0.2488 -0.9956
 5489TIP3    H238103   2.575   3.527   8.300 -0.0930 -1.4464 -1.0495
 5490TIP3   OH238104   3.313   4.181   7.970  0.2724  1.4534 -0.0213
 5490TIP3    H138105   3.405   4.194   7.995  0.1476  1.0564  0.6850
 5490TIP3    H238106   3.317   4.132   7.888  0.7136 -0.3130  0.9938
 5491TIP3   OH238107   5.956   0.436   6.792 -0.3479 -0.5264 -0.0816
 5491TIP3    H138108   6.027   0.374   6.774 -0.2671 -0.4968  0.1288
 5491TIP3    H238109   5.898   0.389   6.852 -0.0843 -0.2624  0.3887
 5492TIP3   OH238110   4.462   0.121   3.136  0.1837 -0.8759  0.2686
 5492TIP3    H138111   4.519   0.127   3.059  0.5750  2.8330  0.6644
 5492TIP3    H238112   4.392   0.062   3.109  1.7991 -1.9565 -1.8732
 5493TIP3   OH238113   5.051   4.445   0.235  0.1094  0.6568  0.1799
 5493TIP3    H138114   4.974   4.473   0.284 -2.0179 -0.0765 -2.4552
 5493TIP3    H238115   5.023   4.365   0.190  2.3102  0.5143 -1.1050
 5494TIP3   OH238116   2.219   4.259   0.665 -0.0946 -0.0447  0.0221
 5494TIP3    H138117   2.309   4.248   0.634 -0.9838 -0.0384 -2.8384
 5494TIP3    H238118   2.187   4.170   0.677  0.5810 -0.0561  2.2504
 5495TIP3   OH238119   2.748   3.306   0.929  0.6709 -0.4226  0.2138
 5495TIP3    H138120   2.755   3.390   0.976  0.6699 -0.4894  0.3341
 5495TIP3    H238121   2.683   3.322   0.861 -1.1356 -1.0036  1.7217
 5496TIP3   OH238122   2.768   1.604   1.948 -0.2805  0.1177  0.1390
 5496TIP3    H138123   2.695   1.619   2.008 -3.7424  1.6301 -3.9652
 5496TIP3    H238124   2.784   1.689   1.908  2.5171 -0.6079 -0.5133
 5497TIP3   OH238125   1.634   5.964   1.942 -0.5236  0.2233  0.2560
 5497TIP3    H138126   1.622   5.981   1.849  0.0722  0.9374  0.2973
 5497TIP3    H238127   1.721   5.924   1.948  0.8935  3.0460  0.7547
 5498TIP3   OH238128   1.178   4.345   1.194 -0.5613  0.7520  0.2812
 5498TIP3    H138129   1.215   4.416   1.142 -1.2603  0.8171 -0.1263
 5498TIP3    H238130   1.088   4.335   1.163 -0.8486  0.4905  1.1620
 5499TIP3   OH238131   0.275   0.319   7.107 -0.6647  0.1133  0.1615
 5499TIP3    H138132   0.355   0.353   7.068 -1.8313  0.2271 -2.2988
 5499TIP3    H238133   0.209   0.385   7.088 -1.6959 -0.7529  0.6350
 5500TIP3   OH238134   2.622   3.663   1.788 -0.0955  0.1272  0.1855
 5500TIP3    H138135   2.653   3.621   1.869  0.9397  0.4986  0.0004
 5500TIP3    H238136   2.531   3.686   1.806 -0.3921 -1.3103  0.6367
 5501TIP3   OH238137   4.033   5.042   1.837  0.1144 -0.0861 -0.2668
 5501TIP3    H138138   4.045   5.072   1.747 -0.4738 -1.4290 -0.8256
 5501TIP3    H238139   3.984   4.960   1.828  2.3228 -1.6824  1.0716
 5502TIP3   OH238140   5.498   1.421   7.416 -0.3237  0.5845  0.2210
 5502TIP3    H138141   5.419   1.425   7.363  0.4150  1.6408 -0.8623
 5502TIP3    H238142   5.501   1.330   7.448 -2.0438  0.5820  0.4568
 5503TIP3   OH238143   5.211   3.135   8.407  0.2429  0.3836  0.6645
 5503TIP3    H138144   5.219   3.043   8.433  1.2451 -0.5134 -2.3301
 5503TIP3    H238145   5.302   3.165   8.397 -0.0653  1.1481  0.0229
 5504TIP3   OH238146   6.547   4.737   2.164 -0.2062 -0.2838  0.4375
 5504TIP3    H138147   6.495   4.794   2.107 -0.7343 -2.3567 -1.2575
 5504TIP3    H238148   6.495   4.728   2.243 -1.1103 -0.1286 -0.1295
 5505TIP3   OH238149   5.821   1.197   2.058  0.0884  0.2729 -0.4522
 5505TIP3    H138150   5.825   1.106   2.032 -2.6650 -0.0441 -0.0683
 5505TIP3    H238151   5.911   1.230   2.047  1.1783 -2.4716 -0.4468
 5506TIP3   OH238152   0.172   3.849   7.862  0.8233 -0.3984  0.0957
 5506TIP3    H138153   0.077   3.851   7.849  0.8176 -0.5216  0.1201
 5506TIP3    H238154   0.206   3.804   7.786  0.9252  0.2702 -0.2646
 5507TIP3   OH238155   5.757   1.433   1.849 -0.3663  0.0562  0.1384
 5507TIP3    H138156   5.779   1.350   1.892  1.9801  0.1435 -0.7665
 5507TIP3    H238157   5.811   1.498   1.892  0.3699  0.5102 -1.3846
 5508TIP3   OH238158   0.167   5.942   7.946  0.1519 -0.1835 -0.2413
 5508TIP3    H138159   0.187   5.864   7.997  0.8504 -1.0177 -1.7481
 5508TIP3    H238160   0.151   6.010   8.012  0.0075 -1.4617  1.0862
 5509TIP3   OH238161   5.960   5.180   8.223 -0.1180 -0.4871  0.1067
 5509TIP3    H138162   6.035   5.188   8.282  0.3950  3.8185 -0.8206
 5509TIP3    H238163   5.998   5.173   8.136 -0.5747  2.8750 -0.4894
 5510TIP3   OH238164   3.293   1.237   8.111 -0.1089  0.6189  0.4789
 5510TIP3    H138165   3.262   1.328   8.107  0.4372  0.7837 -0.2182
 5510TIP3    H238166   3.240   1.190   8.048 -0.7461  0.3342  1.2136
 5511TIP3   OH238167   1.079   5.108   0.340 -0.2546  0.1451  0.5981
 5511TIP3    H138168   0.997   5.158   0.341 -0.2204  0.2893 -1.1107
 5511TIP3    H238169   1.142   5.167   0.300  0.4944 -0.2712  1.1441
 5512TIP3   OH238170   3.425   5.061   8.378  0.1997  0.1721 -0.0426
 5512TIP3    H138171   3.480   5.138   8.389 -2.1562  1.7711  1.8308
 5512TIP3    H238172   3.364   5.085   8.308  0.6079 -0.7706 -0.7416
 5513TIP3   OH238173   2.602   0.280   2.141  0.2006 -0.4494  0.3235
 5513TIP3    H138174   2.629   0.298   2.051  0.3406  0.2229  0.4929
 5513TIP3    H238175   2.560   0.194   2.137  1.8001 -1.2490 -0.0645
 5514TIP3   OH238176   0.967   0.561   0.451  0.3739  1.2071 -0.5962
 5514TIP3    H138177   0.942   0.511   0.529  1.2142  0.6248 -0.6856
 5514TIP3    H238178   0.884   0.594   0.416 -0.3265 -0.8415 -1.0179
 5515TIP3   OH238179   2.248   6.123   2.723  0.6166  0.1148 -0.2959
 5515TIP3    H138180   2.276   6.213   2.738 -1.4096  0.7791 -0.2325
 5515TIP3    H238181   2.230   6.118   2.629 -1.5334  0.5275  0.0378
 5516TIP3   OH238182   4.053   5.131   2.379  0.1225 -0.0196 -0.5706
 5516TIP3    H138183   3.985   5.148   2.445  1.1314  0.8201  0.2816
 5516TIP3    H238184   4.084   5.043   2.400 -1.0370 -0.6350 -1.3010
 5517TIP3   OH238185   4.446   3.243   7.457  0.0245  0.0053 -0.0551
 5517TIP3    H138186   4.411   3.187   7.527 -0.8229  1.3492  0.6385
 5517TIP3    H238187   4.392   3.223   7.381 -1.0328  0.6601  0.4914
 5518TIP3   OH238188   0.594   5.936   0.521 -0.4127 -0.5535 -0.0150
 5518TIP3    H138189   0.553   5.972   0.442 -0.6783  0.7442  0.6866
 5518TIP3    H238190   0.668   5.885   0.488 -0.5045 -0.0195 -1.1100
 5519TIP3   OH238191   2.499   6.525   1.284 -0.2460 -0.3216 -0.7754
 5519TIP3    H138192   2.537   6.545   1.369 -2.3519  0.2392  0.0908
 5519TIP3    H238193   2.473   6.610   1.248 -0.6233 -0.6695 -1.3452
 5520TIP3   OH238194   3.104   2.965   7.698 -0.0154  0.3964 -0.2470
 5520TIP3    H138195   3.129   2.877   7.726 -0.4750 -0.2983 -1.9172
 5520TIP3    H238196   3.135   2.972   7.608  0.7267  2.2658  0.0931
 5521TIP3   OH238197   6.171   3.859   0.151 -0.4549  0.2226 -0.4475
 5521TIP3    H138198   6.081   3.878   0.175 -0.9421 -2.4464  0.1431
 5521TIP3    H238199   6.169   3.850   0.056 -1.0574 -0.7301 -0.3642
 5522TIP3   OH238200   5.913   5.965   0.568  0.4198  0.0993  0.2739
 5522TIP3    H138201   5.969   5.975   0.645  0.1083 -0.7654  0.6300
 5522TIP3    H238202   5.943   6.032   0.507  1.1189  0.3532  0.8864
 5523TIP3   OH238203   0.715   3.649   2.923 -0.0717  0.1186 -0.1413
 5523TIP3    H138204   0.659   3.586   2.876 -1.2263  0.7082  0.4007
 5523TIP3    H238205   0.763   3.595   2.985 -0.8003 -0.2903  0.0862
 5524TIP3   OH238206   3.535   2.022   2.413  0.2730 -0.1966  0.5340
 5524TIP3    H138207   3.509   2.092   2.353 -2.8817 -0.1353  1.7765
 5524TIP3    H238208   3.615   2.055   2.454  1.8559  0.2798 -2.6217
 5525TIP3   OH238209   1.503   3.035   2.077  0.0799  0.5288 -0.3423
 5525TIP3    H138210   1.448   3.103   2.117 -1.7229 -1.3030  0.4859
 5525TIP3    H238211   1.536   2.984   2.150 -0.0294 -0.5227 -1.0051
 5526TIP3   OH238212   2.251   0.897   0.164  0.1351  0.4146  0.2448
 5526TIP3    H138213   2.239   0.831   0.232  0.3122  1.1326  0.9760
 5526TIP3    H238214   2.163   0.932   0.149  0.0751  0.1671  0.0033
 5527TIP3   OH238215   2.582   0.881   7.521  0.5586 -0.1765  0.1046
 5527TIP3    H138216   2.501   0.892   7.472  0.0013 -1.4376  0.7170
 5527TIP3    H238217   2.555   0.846   7.606  1.7728 -1.3288  0.0569
 5528TIP3   OH238218   5.468   5.564   1.079  0.3693  0.1099  0.0637
 5528TIP3    H138219   5.478   5.473   1.108  0.2463  0.2678  0.6021
 5528TIP3    H238220   5.480   5.560   0.984 -0.0523 -0.5322  0.0354
 5529TIP3   OH238221   1.353   1.019   0.508  0.0820 -0.5452 -0.1469
 5529TIP3    H138222   1.443   1.000   0.481  0.1624 -0.9145  0.3756
 5529TIP3    H238223   1.341   0.970   0.589 -0.2472  0.3402  0.3582
 5530TIP3   OH238224   1.232   0.075   0.146 -0.0334 -0.4321  0.0359
 5530TIP3    H138225   1.299   0.030   0.095  0.2926 -0.3694  0.4034
 5530TIP3    H238226   1.281   0.121   0.214 -0.4914 -0.8317  0.6440
 5531TIP3   OH238227   1.999   5.014   8.737 -0.6641 -0.0792 -0.3658
 5531TIP3    H138228   2.019   5.020   8.644 -0.8253  0.6535 -0.3589
 5531TIP3    H238229   1.961   4.927   8.748 -2.4044  0.5116 -1.3407
 5532TIP3   OH238230   6.518   6.480   2.004 -0.1570 -0.0409 -0.6659
 5532TIP3    H138231   6.531   6.393   2.041 -0.2568 -0.0969 -0.7617
 5532TIP3    H238232   6.446   6.469   1.942 -1.4605  0.4871  0.6786
 5533TIP3   OH238233   1.251   4.119   7.172 -0.1533 -0.1651 -0.3301
 5533TIP3    H138234   1.200   4.054   7.122 -1.0610  0.3580 -0.0946
 5533TIP3    H238235   1.306   4.066   7.230  0.9804 -0.7989 -1.8843
 5534TIP3   OH238236   0.834   5.729   7.425 -0.5756  0.4703 -0.3443
 5534TIP3    H138237   0.809   5.705   7.336 -0.6836  0.9695 -0.4513
 5534TIP3    H238238   0.929   5.721   7.427 -0.7022 -1.5554  0.0967
 5535TIP3   OH238239   5.004   3.560   2.351 -0.0723  0.5359  0.6201
 5535TIP3    H138240   5.069   3.629   2.363 -1.1058  1.7116 -0.2883
 5535TIP3    H238241   4.994   3.552   2.256  0.3973 -1.2646  0.6709
 5536TIP3   OH238242   3.651   5.084   0.231  0.1796 -0.0441 -0.0508
 5536TIP3    H138243   3.631   5.145   0.302 -2.2868 -0.2259 -0.4744
 5536TIP3    H238244   3.719   5.127   0.180 -1.3993  2.3734 -0.2684
 5537TIP3   OH238245   6.217   2.103   2.239  0.0898  0.3299 -0.0912
 5537TIP3    H138246   6.233   2.196   2.258  1.7041  0.1025 -0.1840
 5537TIP3    H238247   6.128   2.088   2.270 -0.6446  2.1785 -1.1285
 5538TIP3   OH238248   1.487   4.871   1.870 -0.5786 -0.5329  0.1008
 5538TIP3    H138249   1.572   4.833   1.891  0.9035  2.1298 -0.5592
 5538TIP3    H238250   1.462   4.919   1.949  0.9742  2.6054 -1.1241
 5539TIP3   OH238251   3.161   5.053   8.617 -0.2480  0.1178  0.2484
 5539TIP3    H138252   3.213   5.098   8.550  1.2352 -1.0612  0.5808
 5539TIP3    H238253   3.087   5.017   8.568  0.7664 -0.6525 -0.7627
 5540TIP3   OH238254   6.668   1.982   8.858  0.2597 -0.6076  0.7334
 5540TIP3    H138255   6.603   2.020   8.799  0.8330  1.9207  1.5709
 5540TIP3    H238256   6.675   1.891   8.832 -0.5337  0.0685 -2.1621
 5541TIP3   OH238257   4.987   3.564   2.623  0.2078 -0.1196 -0.4370
 5541TIP3    H138258   5.006   3.576   2.529 -1.5593 -1.2483 -0.9910
 5541TIP3    H238259   5.002   3.471   2.638 -1.9791 -0.4799 -0.2509
 5542TIP3   OH238260   5.099   0.777   3.259  0.3896 -0.0203  0.2765
 5542TIP3    H138261   5.028   0.748   3.317  0.1670 -0.5422 -0.2524
 5542TIP3    H238262   5.155   0.700   3.249  0.6107  0.1670  0.0585
 5543TIP3   OH238263   3.793   3.549   1.007  0.0217 -0.1265 -0.1819
 5543TIP3    H138264   3.789   3.586   0.919  0.2657 -1.2719 -0.6866
 5543TIP3    H238265   3.702   3.532   1.031  0.0535 -2.6346 -1.4748
 5544TIP3   OH238266   4.013   0.527   8.777 -0.0621  0.6376  0.0937
 5544TIP3    H138267   3.990   0.620   8.781 -0.1425  0.6049  0.4488
 5544TIP3    H238268   3.929   0.482   8.767 -0.1880  0.5079  1.5448
 5545TIP3   OH238269   5.848   0.083   7.680  0.0328 -0.6285  0.0448
 5545TIP3    H138270   5.778   0.064   7.617  0.3172  1.1440 -0.8749
 5545TIP3    H238271   5.809   0.067   7.766 -0.6166 -2.3129 -0.5139
 5546TIP3   OH238272   1.397   2.796   3.041  0.0142  0.4195 -0.2850
 5546TIP3    H138273   1.400   2.826   3.132 -0.5086  0.2053 -0.1906
 5546TIP3    H238274   1.427   2.705   3.045 -0.3149  0.3084 -0.2745
 5547TIP3   OH238275   3.502   2.060   8.415 -0.4924  0.4768  0.1464
 5547TIP3    H138276   3.466   2.012   8.490 -2.4876  2.7740  0.7730
 5547TIP3    H238277   3.543   2.137   8.454  0.4595  0.5715 -1.0110
 5548TIP3   OH238278   2.342   6.763   8.069  0.3062  0.5994  0.4859
 5548TIP3    H138279   2.404   6.819   8.023 -0.5418  1.5532  0.4513
 5548TIP3    H238280   2.346   6.792   8.160  0.2346  0.3776  0.5591
 5549TIP3   OH238281   0.862   0.565   2.146 -0.0176  0.1780  0.2831
 5549TIP3    H138282   0.902   0.652   2.139 -1.0028  0.5071 -2.1324
 5549TIP3    H238283   0.772   0.581   2.172 -0.0138 -0.1911  0.5418
 5550TIP3   OH238284   2.346   4.836   0.534  0.4365  0.4656 -0.3369
 5550TIP3    H138285   2.318   4.927   0.531  1.1102  0.8758  2.6512
 5550TIP3    H238286   2.283   4.790   0.479 -0.0776  2.6769 -1.6896
 5551TIP3   OH238287   5.047   1.577   8.283  0.3116 -0.0461  0.6706
 5551TIP3    H138288   5.052   1.581   8.379  0.5871  0.1917  0.6477
 5551TIP3    H238289   4.975   1.516   8.265 -1.0898  1.4354  1.0353
 5552TIP3   OH238290   2.148   0.494   8.112 -0.3624 -0.1085 -0.0081
 5552TIP3    H138291   2.077   0.468   8.053  0.4378  1.3185 -1.7197
 5552TIP3    H238292   2.109   0.490   8.200 -1.6338 -2.2203 -0.5871
 5553TIP3   OH238293   4.158   1.811   1.308  0.3703  0.0119 -0.2763
 5553TIP3    H138294   4.133   1.743   1.246  0.8722  0.0561 -0.5307
 5553TIP3    H238295   4.240   1.846   1.274 -0.0808  1.0143 -0.3691
 5554TIP3   OH238296   3.824   6.672   7.771 -0.2363 -0.4717  0.3954
 5554TIP3    H138297   3.827   6.593   7.718  0.7257 -0.6816  0.7580
 5554TIP3    H238298   3.810   6.743   7.708 -1.2134 -0.9242  0.0838
 5555TIP3   OH238299   1.570   1.392   0.929 -0.1655  0.4081 -0.0474
 5555TIP3    H138300   1.633   1.321   0.942 -1.9399 -1.0413  1.1139
 5555TIP3    H238301   1.622   1.472   0.937  1.5606 -0.7199  0.5730
 5556TIP3   OH238302   0.659   6.588   1.053  0.2245 -0.0634  0.0859
 5556TIP3    H138303   0.582   6.532   1.065 -1.3306  1.9519  0.0307
 5556TIP3    H238304   0.666   6.598   0.958  0.3246  0.0382  0.1037
 5557TIP3   OH238305   0.468   6.467   2.702  0.0260 -0.3388 -0.2483
 5557TIP3    H138306   0.447   6.460   2.609 -1.8036  1.9986 -0.1020
 5557TIP3    H238307   0.491   6.560   2.714  1.6184 -0.8933  1.4025
 5558TIP3   OH238308   6.736   1.049   8.458 -0.3538  0.2141 -0.1420
 5558TIP3    H138309   6.828   1.036   8.481 -0.4833  2.5866  2.3037
 5558TIP3    H238310   6.690   0.977   8.503  0.1591  0.0295  0.0947
 5559TIP3   OH238311   2.284   1.096   7.596 -0.7208  0.2619 -0.3947
 5559TIP3    H138312   2.252   1.069   7.510  0.6202 -2.1339 -0.2103
 5559TIP3    H238313   2.288   1.016   7.647 -0.8006  1.5140  1.7228
 5560TIP3   OH238314   6.815   0.884   0.554 -0.0102  0.4895  0.0853
 5560TIP3    H138315   6.886   0.825   0.579  0.1221  0.1858 -0.9469
 5560TIP3    H238316   6.794   0.932   0.634  2.6003  1.9261  0.0159
 5561TIP3   OH238317   1.739   2.635   8.409  0.3335  0.0288 -0.2387
 5561TIP3    H138318   1.765   2.577   8.481  0.0749  1.0496  0.7038
 5561TIP3    H238319   1.749   2.724   8.444  0.6674  0.5697 -1.6303
 5562TIP3   OH238320   2.223   5.929   1.753 -0.6518  0.2605  0.3917
 5562TIP3    H138321   2.128   5.918   1.753 -0.7754  0.7950 -2.0273
 5562TIP3    H238322   2.256   5.856   1.700  0.0194  1.5113 -0.9860
 5563TIP3   OH238323   2.411   2.592   8.857 -0.0746 -0.0743 -0.7306
 5563TIP3    H138324   2.391   2.551   8.773  1.0160 -2.3926  0.0611
 5563TIP3    H238325   2.333   2.577   8.910 -0.3741  0.5063 -0.9976
 5564TIP3   OH238326   2.014   1.241   8.136  0.1723 -0.2192  0.3384
 5564TIP3    H138327   2.052   1.162   8.176  1.4774  0.4544  0.4826
 5564TIP3    H238328   2.058   1.314   8.179 -1.0489  0.6120  0.2291
 5565TIP3   OH238329   3.345   0.604   1.736 -0.0251 -0.2783  0.1090
 5565TIP3    H138330   3.416   0.553   1.697  0.6928  0.2164  0.7419
 5565TIP3    H238331   3.314   0.660   1.664 -1.0402 -1.7782 -0.6835
 5566TIP3   OH238332   2.532   2.937   1.939  0.0248  0.4871 -0.0268
 5566TIP3    H138333   2.466   2.868   1.947  0.4095 -0.0105 -0.9370
 5566TIP3    H238334   2.482   3.019   1.936 -0.5980  0.0871 -1.1284
 5567TIP3   OH238335   6.768   6.038   2.265 -0.0013 -0.3218  0.6816
 5567TIP3    H138336   6.726   5.954   2.243 -0.1537 -0.0027 -0.2892
 5567TIP3    H238337   6.760   6.090   2.185  1.9767 -0.1354  0.5402
 5568TIP3   OH238338   1.946   0.587   2.096 -0.2916 -0.3536 -0.0257
 5568TIP3    H138339   1.932   0.648   2.169 -2.3356 -0.7726 -0.0063
 5568TIP3    H238340   2.030   0.546   2.115  0.2383  1.0972  0.9498
 5569TIP3   OH238341   4.124   4.608   7.102  0.0822 -0.7513 -0.1736
 5569TIP3    H138342   4.163   4.594   7.188 -0.8860 -0.2636  0.3610
 5569TIP3    H238343   4.044   4.556   7.102 -2.1324  2.3419  0.8317
 5570TIP3   OH238344   3.117   0.303   7.866 -0.1749 -0.0371  0.3088
 5570TIP3    H138345   3.146   0.285   7.777 -0.0549 -1.0211  0.5390
 5570TIP3    H238346   3.191   0.347   7.907  1.3173 -2.9803  1.0468
 5571TIP3   OH238347   0.799   1.072   8.749 -0.3721 -0.3291  0.0963
 5571TIP3    H138348   0.748   1.149   8.776  0.5927  0.5568 -0.5208
 5571TIP3    H238349   0.759   1.046   8.666 -0.4440 -0.2443  0.1029
 5572TIP3   OH238350   0.696   5.184   7.831  0.7665 -0.0025  0.0964
 5572TIP3    H138351   0.712   5.264   7.782 -2.8319 -0.7200 -2.6483
 5572TIP3    H238352   0.734   5.115   7.777  0.7545 -0.4587  0.6633
 5573TIP3   OH238353   2.434   5.380   7.635  0.7671 -0.4180  0.1909
 5573TIP3    H138354   2.447   5.354   7.544  0.8996  0.1664  0.0398
 5573TIP3    H238355   2.495   5.326   7.685  1.7882  0.3224 -0.2242
 5574TIP3   OH238356   3.500   2.940   1.129 -0.0299  0.0780 -0.0202
 5574TIP3    H138357   3.586   2.961   1.167 -1.3064 -0.1545  3.3800
 5574TIP3    H238358   3.442   3.008   1.163 -1.6909 -1.2962  0.0362
 5575TIP3   OH238359   3.119   6.004   0.007 -0.6500  0.1510 -0.3935
 5575TIP3    H138360   3.144   5.995   0.099 -0.5883  1.9102 -0.1944
 5575TIP3    H238361   3.136   5.918  -0.032  0.4085 -0.2925  0.9811
 5576TIP3   OH238362   3.737   5.179   7.466 -0.0664  0.2607 -0.5173
 5576TIP3    H138363   3.648   5.171   7.501 -0.0124  0.7387 -0.2518
 5576TIP3    H238364   3.759   5.092   7.433 -1.1377  0.4436 -1.7949
 5577TIP3   OH238365   5.825   4.441   1.022  0.5410  0.0636 -0.0899
 5577TIP3    H138366   5.858   4.448   0.932 -0.5789  0.2254 -0.5065
 5577TIP3    H238367   5.823   4.347   1.040 -0.4163 -0.0496 -0.7095
 5578TIP3   OH238368   2.170   0.483   2.846  0.5862 -0.0127  0.6926
 5578TIP3    H138369   2.081   0.466   2.876  1.0311  1.3938  3.1637
 5578TIP3    H238370   2.169   0.575   2.820  1.1523 -0.1858  0.0415
 5579TIP3   OH238371   0.526   5.248   0.368  0.4073  0.3983 -0.2674
 5579TIP3    H138372   0.498   5.273   0.280 -0.4091  2.4112  0.5098
 5579TIP3    H238373   0.578   5.323   0.399 -0.8562  0.5587  1.6329
 5580TIP3   OH238374   1.560   0.409   2.932 -0.6543  0.1385  0.4679
 5580TIP3    H138375   1.519   0.339   2.881 -0.3505  0.6616 -0.5226
 5580TIP3    H238376   1.504   0.486   2.916 -0.3397  0.3981  0.6035
 5581TIP3   OH238377   5.454   3.440   8.570  0.3270 -0.3316  0.1121
 5581TIP3    H138378   5.493   3.429   8.483 -0.9421  1.0138 -0.6914
 5581TIP3    H238379   5.491   3.523   8.601  0.2584 -0.4704  0.5599
 5582TIP3   OH238380   0.008   5.373   7.951  0.3140 -0.5327 -0.4055
 5582TIP3    H138381   0.099   5.388   7.927 -0.1413  1.7180 -0.9827
 5582TIP3    H238382   0.012   5.328   8.035  1.9280 -3.7764 -2.0268
 5583TIP3   OH238383   5.898   2.684   8.783 -0.2458  0.0784  0.1038
 5583TIP3    H138384   5.806   2.709   8.789 -0.0028  1.4796 -1.3472
 5583TIP3    H238385   5.927   2.717   8.698  2.0046  1.0586  1.1639
 5584TIP3   OH238386   2.297   0.233   2.424  0.1239 -0.3635  0.7580
 5584TIP3    H138387   2.258   0.171   2.364  1.9648  0.4539 -1.4263
 5584TIP3    H238388   2.228   0.298   2.440 -0.1332 -0.0643 -1.3206
 5585TIP3   OH238389   4.033   3.913   2.240 -0.1890 -0.1684  0.2843
 5585TIP3    H138390   4.025   3.948   2.329  0.6867 -1.0252  0.7284
 5585TIP3    H238391   4.078   3.982   2.192 -0.5617  0.2557  0.5301
 5586TIP3   OH238392   0.299   2.184   2.293 -0.7156  0.5101 -0.0288
 5586TIP3    H138393   0.250   2.111   2.256 -0.4486  0.2695  0.0907
 5586TIP3    H238394   0.308   2.162   2.386 -0.9494  0.8701  0.0832
 5587TIP3   OH238395   6.261   5.366   1.105  0.4627 -0.4149 -0.1403
 5587TIP3    H138396   6.209   5.286   1.117  0.3754 -0.2351  0.7074
 5587TIP3    H238397   6.352   5.338   1.117  0.4468 -0.4335 -0.0602
 5588TIP3   OH238398   5.945   6.167   0.374 -0.1640  0.0238  0.6778
 5588TIP3    H138399   6.004   6.122   0.313 -2.4013 -2.6964  0.2852
 5588TIP3    H238400   5.893   6.225   0.319 -1.1368 -1.3001  0.1229
 5589TIP3   OH238401   0.254   2.495   1.982 -0.0922 -0.7752 -0.3263
 5589TIP3    H138402   0.329   2.499   2.041 -0.8103  1.1987  0.5257
 5589TIP3    H238403   0.242   2.585   1.952 -1.0860 -1.3599 -1.8034
 5590TIP3   OH238404   3.538   5.038   8.745 -0.2783  0.5815  0.5103
 5590TIP3    H138405   3.492   4.985   8.680  1.2809  1.5319 -1.4896
 5590TIP3    H238406   3.479   5.041   8.820 -1.3927 -2.0354 -0.1576
 5591TIP3   OH238407   3.143   1.247   1.171  0.0148 -0.5702 -0.5564
 5591TIP3    H138408   3.078   1.182   1.199 -0.9234  0.1355 -1.0286
 5591TIP3    H238409   3.091   1.320   1.138  1.0650 -0.1620 -1.3666
 5592TIP3   OH238410   6.259   5.010   2.861 -0.0240 -0.7135  0.1878
 5592TIP3    H138411   6.344   4.970   2.843 -0.5816 -0.5672 -3.5909
 5592TIP3    H238412   6.271   5.102   2.840 -0.8610 -0.4853  0.6679
 5593TIP3   OH238413   0.304   5.896   7.715 -0.2319 -0.1864 -0.0201
 5593TIP3    H138414   0.221   5.880   7.671 -1.5564 -0.5115  2.4113
 5593TIP3    H238415   0.280   5.930   7.801  2.2158  1.2556  0.2105
 5594TIP3   OH238416   2.688   3.362   1.482  0.5153  0.2970 -0.0761
 5594TIP3    H138417   2.713   3.451   1.455  0.7811  0.5396  0.9341
 5594TIP3    H238418   2.744   3.305   1.430  0.4049  0.7178 -0.6771
 5595TIP3   OH238419   3.349   4.653   7.785  0.4877  0.0718 -0.3760
 5595TIP3    H138420   3.315   4.564   7.778 -0.9891  0.4797  0.9638
 5595TIP3    H238421   3.390   4.657   7.871  1.2623  0.4626 -0.7530
 5596TIP3   OH238422   6.401   2.699   8.426 -0.5979  0.0185 -0.4580
 5596TIP3    H138423   6.360   2.655   8.500 -2.0326  1.8091 -0.1151
 5596TIP3    H238424   6.329   2.716   8.365  0.3860 -0.5108 -1.8094
 5597TIP3   OH238425   3.012   4.794   2.844  0.4540 -0.2609  0.2811
 5597TIP3    H138426   2.927   4.774   2.883  1.0648 -0.1918  1.7300
 5597TIP3    H238427   3.026   4.887   2.863  0.3864 -0.0092 -0.8830
 5598TIP3   OH238428   6.445   3.318   2.482  0.3463  0.0687 -0.9873
 5598TIP3    H138429   6.367   3.329   2.428 -1.1451  0.7716  1.1873
 5598TIP3    H238430   6.502   3.260   2.431 -0.5431  1.4261 -3.6758
 5599TIP3   OH238431   6.401   5.613   2.466 -0.4241 -0.0138  0.3307
 5599TIP3    H138432   6.380   5.530   2.510  1.3179 -1.5487 -1.4869
 5599TIP3    H238433   6.458   5.659   2.527  0.7790 -1.4233  0.3208
 5600TIP3   OH238434   1.820   6.066   0.844 -0.6495 -0.3123  0.3020
 5600TIP3    H138435   1.796   6.148   0.802  0.3406 -1.0024 -1.7399
 5600TIP3    H238436   1.873   6.092   0.919 -0.0514  0.9311 -0.5232
 5601TIP3   OH238437   5.246   1.602   1.990 -0.0832  0.4198 -0.1729
 5601TIP3    H138438   5.313   1.669   1.999  0.3022 -0.0060  0.1811
 5601TIP3    H238439   5.277   1.529   2.044 -1.8667  1.0068  1.7846
 5602TIP3   OH238440   3.096   6.677   0.807 -0.0749 -0.1663 -0.0059
 5602TIP3    H138441   3.133   6.700   0.892  0.0218  0.7773 -0.2940
 5602TIP3    H238442   3.026   6.741   0.793  0.9092  0.6809 -1.3154
 5603TIP3   OH238443   6.042   3.587   7.821 -0.4941 -0.2632  0.1854
 5603TIP3    H138444   6.006   3.575   7.909 -1.1111 -1.0903 -0.1622
 5603TIP3    H238445   5.965   3.603   7.766 -0.4086 -2.3899 -0.6327
 5604TIP3   OH238446   5.555   1.979   0.017  0.3996 -0.6350  0.3868
 5604TIP3    H138447   5.597   1.996  -0.067  3.2265 -0.3052  1.7475
 5604TIP3    H238448   5.567   1.885   0.032 -0.0780 -0.6908  0.4450
 5605TIP3   OH238449   0.441   6.051   2.860  0.7862  0.0560  0.4633
 5605TIP3    H138450   0.446   5.963   2.824 -0.9014 -0.7663  2.0653
 5605TIP3    H238451   0.494   6.048   2.940  0.5752  0.4457  0.6219
 5606TIP3   OH238452   5.726   3.352   7.537  0.2019 -0.1104  0.1203
 5606TIP3    H138453   5.634   3.353   7.563 -0.0027 -0.5103 -0.5521
 5606TIP3    H238454   5.728   3.295   7.460  1.8535 -5.3023  3.4411
 5607TIP3   OH238455   6.679   6.541   7.990 -0.6276  0.0157 -0.5644
 5607TIP3    H138456   6.635   6.581   8.064  2.1252  1.5976  0.3285
 5607TIP3    H238457   6.642   6.586   7.913  0.4633  2.4517  0.2511
 5608TIP3   OH238458   5.845   1.309   0.064 -0.7647 -0.1665 -0.0679
 5608TIP3    H138459   5.798   1.258   0.130 -2.8475  0.4493 -0.9775
 5608TIP3    H238460   5.828   1.263  -0.018  0.6710 -0.1942 -0.3639
 5609TIP3   OH238461   1.257   0.705   8.058  0.3944  0.8826  0.2923
 5609TIP3    H138462   1.188   0.747   8.007 -1.9871 -0.5576  2.0994
 5609TIP3    H238463   1.306   0.778   8.097 -0.8567  1.9631 -0.0802
 5610TIP3   OH238464   3.758   2.958   7.438 -0.2346  0.2542 -0.3808
 5610TIP3    H138465   3.663   2.967   7.448 -0.2289  0.7059 -0.6961
 5610TIP3    H238466   3.793   3.045   7.457  0.1293  0.0608 -0.1478
 5611TIP3   OH238467   0.374   5.992   0.841  0.1519 -0.1650  0.6793
 5611TIP3    H138468   0.459   5.948   0.846  0.9580  1.1154 -0.6934
 5611TIP3    H238469   0.334   5.959   0.761  0.3269  0.7780  0.1772
 5612TIP3   OH238470   1.862   1.484   1.056  0.3354 -0.1868 -0.0113
 5612TIP3    H138471   1.797   1.447   1.116  0.4012 -2.0309 -0.9833
 5612TIP3    H238472   1.937   1.505   1.112 -0.2795 -0.1332  0.8091
 5613TIP3   OH238473   0.790   1.386   8.837 -0.0493  0.2442  0.1104
 5613TIP3    H138474   0.743   1.427   8.910 -1.6441 -2.3345  0.6536
 5613TIP3    H238475   0.880   1.379   8.867 -0.5178 -0.0320  1.5282
 5614TIP3   OH238476   0.685   1.732   2.981 -0.3086 -0.0132  0.1646
 5614TIP3    H138477   0.702   1.817   2.940 -1.2715 -0.2919 -0.8559
 5614TIP3    H238478   0.598   1.742   3.019  0.0583 -0.1794  1.0746
 5615TIP3   OH238479   2.661   0.833   0.958  0.2175 -0.1243  0.0720
 5615TIP3    H138480   2.723   0.904   0.969  0.7569 -0.5315 -0.2841
 5615TIP3    H238481   2.577   0.876   0.942 -0.0445  0.4706  2.6112
 5616TIP3   OH238482   1.684   2.042   8.019 -0.3779  0.7046  0.0519
 5616TIP3    H138483   1.655   2.129   8.048  1.1635  1.3523 -0.2307
 5616TIP3    H238484   1.754   2.060   7.957  0.1228 -0.7550  0.1541
 5617TIP3   OH238485   5.746   2.417   1.982  0.3637  0.2978  0.1875
 5617TIP3    H138486   5.828   2.450   2.019 -0.0386  0.8474  0.6070
 5617TIP3    H238487   5.683   2.488   1.996 -0.0878  0.0414 -0.4891
 5618TIP3   OH238488   4.543   3.429   1.519  0.0322  0.0893  0.3652
 5618TIP3    H138489   4.576   3.506   1.472 -1.1587 -0.2733 -1.1798
 5618TIP3    H238490   4.548   3.358   1.455 -3.4838 -0.0066 -0.0046
 5619TIP3   OH238491   1.665   3.159   0.257  0.3347  0.7017 -0.4286
 5619TIP3    H138492   1.737   3.137   0.316 -0.8124  2.1760  1.6146
 5619TIP3    H238493   1.622   3.075   0.241  0.8960  0.2121  0.5105
 5620TIP3   OH238494   2.136   2.503   7.743 -0.3858  0.1439 -0.4424
 5620TIP3    H138495   2.155   2.574   7.682 -0.1704 -0.9593 -1.6944
 5620TIP3    H238496   2.050   2.471   7.718 -0.6042  0.1215  0.2914
 5621TIP3   OH238497   0.429   0.358   1.764 -0.0414 -0.1924  0.0414
 5621TIP3    H138498   0.484   0.320   1.695  0.6549 -1.8497  1.4304
 5621TIP3    H238499   0.478   0.435   1.793  0.1881 -0.0976 -0.5787
 5622TIP3   OH238500   5.592   4.149   7.463  0.3185  0.9374  0.0801
 5622TIP3    H138501   5.567   4.133   7.372 -0.4349 -1.3177  0.6170
 5622TIP3    H238502   5.567   4.069   7.509  1.0466  1.8648  2.2135
 5623TIP3   OH238503   0.361   6.520   1.287  0.2300  0.4868 -0.0691
 5623TIP3    H138504   0.336   6.440   1.332  0.3833  0.8255  0.6341
 5623TIP3    H238505   0.402   6.490   1.205  0.9152 -0.1710  0.5010
 5624TIP3   OH238506   3.182   5.650   1.318 -0.8669  0.3066 -0.0360
 5624TIP3    H138507   3.219   5.594   1.250  0.4943  1.0462  0.0656
 5624TIP3    H238508   3.198   5.602   1.399  0.0027  0.6733  0.0187
 5625TIP3   OH238509   5.593   1.716   8.863 -0.0792 -0.7409 -0.2649
 5625TIP3    H138510   5.557   1.649   8.922  1.4128 -1.5663 -0.2616
 5625TIP3    H238511   5.560   1.692   8.777 -0.8868 -0.5021 -0.0407
 5626TIP3   OH238512   1.353   6.073   1.083  0.0898  0.6174  0.3985
 5626TIP3    H138513   1.325   6.064   0.992  1.6298 -0.4938 -0.0114
 5626TIP3    H238514   1.299   6.010   1.131 -0.3293  0.7920  0.1637
 5627TIP3   OH238515   1.665   0.589   0.102 -0.1119 -0.2732 -0.0358
 5627TIP3    H138516   1.610   0.603   0.025  1.0668 -1.1547 -1.0603
 5627TIP3    H238517   1.605   0.603   0.176 -0.7840  2.8530 -1.0021
 5628TIP3   OH238518   1.572   6.716   7.461 -0.2468 -0.2727  0.1580
 5628TIP3    H138519   1.542   6.773   7.533 -1.8672 -1.2847  0.3404
 5628TIP3    H238520   1.621   6.646   7.505  0.8809  0.4048  0.0224
 5629TIP3   OH238521   0.283   5.789   2.045  0.3990 -0.4940  0.5670
 5629TIP3    H138522   0.232   5.731   2.101 -0.7032  0.9956  1.1629
 5629TIP3    H238523   0.340   5.837   2.105  0.2741  0.0588  0.2468
 5630TIP3   OH238524   2.812   4.350   0.447 -0.6375  0.5002 -0.1886
 5630TIP3    H138525   2.746   4.306   0.394  0.0443 -1.3724  0.4279
 5630TIP3    H238526   2.846   4.281   0.505  1.4143  1.5370 -0.0605
 5631TIP3   OH238527   5.106   5.183   1.201  0.5007  0.4661  0.3488
 5631TIP3    H138528   5.052   5.104   1.205 -0.0529  0.9098  2.1801
 5631TIP3    H238529   5.147   5.178   1.114  0.0360 -1.5273  0.1809
 5632TIP3   OH238530   5.593   6.579   7.952 -0.0149  0.3395 -0.4276
 5632TIP3    H138531   5.612   6.538   8.036  0.2575 -1.3745 -1.2929
 5632TIP3    H238532   5.515   6.533   7.919 -0.1201  0.9890 -1.1237
 5633TIP3   OH238533   5.783   4.350   0.017 -0.3908  0.2647  0.2816
 5633TIP3    H138534   5.715   4.396   0.066 -0.5343 -0.4137  0.7326
 5633TIP3    H238535   5.863   4.367   0.066 -0.2127  1.1063 -0.2778
 5634TIP3   OH238536   4.758   3.055   1.192 -0.0036 -0.3685 -0.2180
 5634TIP3    H138537   4.759   3.038   1.286  1.9228 -3.3000 -0.6378
 5634TIP3    H238538   4.846   3.087   1.172 -0.3477  0.0988 -1.0586
 5635TIP3   OH238539   5.430   6.419   2.880  0.4965 -0.1092 -0.4231
 5635TIP3    H138540   5.379   6.452   2.954  1.2181 -1.6838  0.8289
 5635TIP3    H238541   5.520   6.447   2.899  0.8507 -1.3741 -0.1487
 5636TIP3   OH238542   1.410   1.879   7.177 -0.4135 -0.4244 -0.2034
 5636TIP3    H138543   1.329   1.899   7.224 -1.6472 -0.1717 -2.2836
 5636TIP3    H238544   1.425   1.786   7.193  0.6563  0.1313  2.6627
 5637TIP3   OH238545   5.181   3.350   2.119 -0.1034  0.2957 -0.0929
 5637TIP3    H138546   5.189   3.284   2.188  1.3507  1.4250  0.9107
 5637TIP3    H238547   5.227   3.426   2.154 -1.7571  1.8794 -1.1804
 5638TIP3   OH238548   2.233   5.143   0.013  0.0903  0.1445 -0.0537
 5638TIP3    H138549   2.150   5.096   0.007 -0.3059  0.3183  2.6550
 5638TIP3    H238550   2.299   5.079  -0.012 -0.7039 -0.5855 -0.3402
 5639TIP3   OH238551   5.541   1.159   7.438 -0.4318 -0.1357 -0.1761
 5639TIP3    H138552   5.559   1.077   7.392  1.7428 -0.0073  0.3201
 5639TIP3    H238553   5.564   1.140   7.529 -0.3485  0.8742  0.0225
 5640TIP3   OH238554   4.571   4.766   1.505 -0.2712 -0.4624  0.0454
 5640TIP3    H138555   4.545   4.702   1.438  1.7819 -0.5388 -0.7517
 5640TIP3    H238556   4.532   4.848   1.476  0.0368 -0.6405 -0.9164
 5641TIP3   OH238557   4.638   0.992   1.955  0.6329  0.2767 -0.4035
 5641TIP3    H138558   4.555   0.964   1.994  0.0016 -0.3476 -2.1326
 5641TIP3    H238559   4.693   0.914   1.957  0.8426  0.4272 -0.1711
 5642TIP3   OH238560   5.258   6.630   1.579  0.3319 -0.1654  0.1168
 5642TIP3    H138561   5.263   6.715   1.536 -0.8029 -0.9235 -1.6260
 5642TIP3    H238562   5.294   6.568   1.516  0.4585 -1.0913  1.0581
 5643TIP3   OH238563   4.208   1.727   8.118 -0.1227  0.2181  0.3396
 5643TIP3    H138564   4.282   1.690   8.070 -0.7633  0.5189 -0.9290
 5643TIP3    H238565   4.243   1.808   8.156  0.3317  0.1213  0.1341
 5644TIP3   OH238566   6.548   3.318   8.318  0.2069  0.1172  0.1450
 5644TIP3    H138567   6.498   3.287   8.394 -0.2835 -0.1112 -0.2691
 5644TIP3    H238568   6.548   3.413   8.327  2.8609  0.0485  2.1655
 5645TIP3   OH238569   4.290   3.206   8.519  0.5015 -0.0597  0.0233
 5645TIP3    H138570   4.251   3.281   8.475  1.9128  0.0400 -1.1135
 5645TIP3    H238571   4.314   3.145   8.449 -0.4797 -1.5472  0.9054
 5646TIP3   OH238572   1.914   0.478   7.966  0.6025 -0.2364  0.1420
 5646TIP3    H138573   1.869   0.478   8.051 -0.2974  2.3038 -0.2174
 5646TIP3    H238574   1.876   0.553   7.919  1.5888 -1.1169 -2.2392
 5647TIP3   OH238575   2.038   5.794   0.946  0.1403  0.1466  0.2150
 5647TIP3    H138576   2.084   5.710   0.953 -0.7713 -0.2987  1.1583
 5647TIP3    H238577   1.954   5.772   0.905  0.8744  1.0172 -1.8825
 5648TIP3   OH238578   3.275   4.064   0.999 -0.5486  0.3591  0.0460
 5648TIP3    H138579   3.361   4.022   1.005 -0.2253  1.1543  1.2469
 5648TIP3    H238580   3.228   4.011   0.935  0.0639 -1.4571  1.0107
 5649TIP3   OH238581   4.684   5.088   8.193  0.0083 -0.0965  0.8130
 5649TIP3    H138582   4.760   5.137   8.160  1.7794 -0.6823  3.7043
 5649TIP3    H238583   4.628   5.155   8.232 -0.3150  0.1813 -0.0986
 5650TIP3   OH238584   4.079   6.021   2.609  0.0038 -0.8268 -0.0127
 5650TIP3    H138585   4.095   6.087   2.677  0.2567 -1.5136  0.6149
 5650TIP3    H238586   4.083   5.938   2.656  0.5094 -1.3374 -0.9344
 5651TIP3   OH238587   6.123   6.353   8.595  0.1172  0.3064 -0.0882
 5651TIP3    H138588   6.186   6.396   8.537  0.1169  1.9998  1.0909
 5651TIP3    H238589   6.037   6.378   8.561  0.0871 -0.4411 -0.5792
 5652TIP3   OH238590   5.883   4.511   1.281 -0.2791  0.0550  0.1389
 5652TIP3    H138591   5.869   4.435   1.337 -1.9421 -1.2263 -1.8721
 5652TIP3    H238592   5.862   4.481   1.193  2.0159  2.0393 -1.2187
 5653TIP3   OH238593   6.143   6.243   1.674 -0.3169 -0.1351 -0.2789
 5653TIP3    H138594   6.145   6.152   1.646  2.4607  0.1053 -1.2431
 5653TIP3    H238595   6.228   6.256   1.717 -1.8617  1.2397  2.6204
 5654TIP3   OH238596   4.890   2.595   1.216  0.1126  0.0901  0.3267
 5654TIP3    H138597   4.913   2.517   1.166 -0.7918  0.5680 -0.8763
 5654TIP3    H238598   4.973   2.633   1.242  0.5818 -0.4902 -0.2994
 5655TIP3   OH238599   3.211   6.694   8.010  0.4115 -0.0555  0.3290
 5655TIP3    H138600   3.140   6.756   8.029 -0.3569 -0.8327  0.0435
 5655TIP3    H238601   3.236   6.713   7.920  0.6925  0.3343  0.4858
 5656TIP3   OH238602   5.159   0.108   2.284  0.0397  0.1788  0.0652
 5656TIP3    H138603   5.092   0.167   2.320  0.0948 -0.1982  0.8116
 5656TIP3    H238604   5.109   0.033   2.252 -0.0135  0.5355 -0.7076
 5657TIP3   OH238605   5.494   3.171   8.324  0.1487  0.3581 -0.0495
 5657TIP3    H138606   5.572   3.117   8.312 -0.2101  0.2636 -2.5772
 5657TIP3    H238607   5.502   3.241   8.259 -1.1412  1.2449  0.6865
 5658TIP3   OH238608   2.523   4.040   0.719 -0.3635 -0.1974  0.2771
 5658TIP3    H138609   2.532   3.963   0.776 -0.2174 -0.2600  0.1689
 5658TIP3    H238610   2.573   4.109   0.765 -0.6831 -0.1040  0.4879
 5659TIP3   OH238611   3.269   2.552   8.226 -0.4831 -0.0783 -0.3263
 5659TIP3    H138612   3.214   2.536   8.149  0.6132  3.0194 -1.9204
 5659TIP3    H238613   3.241   2.638   8.258  0.9644 -0.0747  1.0494
 5660TIP3   OH238614   6.184   0.695   2.118 -0.3444 -0.3904 -0.3055
 5660TIP3    H138615   6.201   0.786   2.096 -0.0439 -0.1863  0.7248
 5660TIP3    H238616   6.095   0.679   2.086 -0.6021  0.4209 -0.0250
 5661TIP3   OH238617   2.945   4.794   2.230  0.4453  0.2933  0.2733
 5661TIP3    H138618   2.979   4.831   2.311 -0.1389 -0.0266  0.6712
 5661TIP3    H238619   2.885   4.725   2.258 -2.9347  2.7588 -0.2459
 5662TIP3   OH238620   6.204   5.086   7.859 -0.4629  0.3437 -0.1162
 5662TIP3    H138621   6.233   5.167   7.818 -0.0981 -0.1161 -0.7988
 5662TIP3    H238622   6.114   5.074   7.826 -0.0570 -0.1929 -1.0850
 5663TIP3   OH238623   1.584   1.869   2.129  0.3113 -0.1320  0.4796
 5663TIP3    H138624   1.587   1.851   2.034  1.0882  0.5299  0.3661
 5663TIP3    H238625   1.589   1.782   2.169  1.4151 -0.3554 -0.0841
 5664TIP3   OH238626   5.903   0.294   8.832 -0.6091  0.0308  0.2729
 5664TIP3    H138627   5.918   0.386   8.853  0.3495 -0.2795  0.9975
 5664TIP3    H238628   5.984   0.265   8.790  0.6489 -1.4232  3.4198
 5665TIP3   OH238629   5.282   0.764   8.642  0.4084 -0.4202 -0.0732
 5665TIP3    H138630   5.323   0.699   8.700  0.5027  1.1422  1.7447
 5665TIP3    H238631   5.345   0.774   8.570  0.7928 -1.6949  0.0517
 5666TIP3   OH238632   0.045   3.192   8.869 -0.1576  0.0703 -0.4312
 5666TIP3    H138633   0.009   3.168   8.784 -1.4031  2.2497 -0.6126
 5666TIP3    H238634   0.047   3.288   8.867  3.0210  0.1214  0.7305
 5667TIP3   OH238635   1.532   0.113   7.682 -0.1278  0.2354  0.1483
 5667TIP3    H138636   1.616   0.119   7.636  0.5790 -1.8586  1.0637
 5667TIP3    H238637   1.497   0.202   7.678  2.7473  1.5355  0.9081
 5668TIP3   OH238638   2.919   3.605   1.719  0.2752 -0.1197  0.3965
 5668TIP3    H138639   2.833   3.594   1.760 -0.0314 -0.3311 -0.2778
 5668TIP3    H238640   2.909   3.683   1.664  1.1082  1.0075  1.7839
 5669TIP3   OH238641   0.619   4.668   0.767  0.2735  0.1045  0.8252
 5669TIP3    H138642   0.661   4.754   0.763  1.6909 -0.5963 -0.2156
 5669TIP3    H238643   0.677   4.610   0.718 -2.2070 -0.8453 -1.2049
 5670TIP3   OH238644   4.069   1.925   0.467  0.0285  0.2618  0.2916
 5670TIP3    H138645   3.999   1.986   0.447 -1.2370 -0.9888  0.7338
 5670TIP3    H238646   4.043   1.885   0.550  0.3143 -1.5539 -0.4429
 5671TIP3   OH238647   5.387   2.204   0.514  0.0903 -0.4526 -0.4851
 5671TIP3    H138648   5.317   2.215   0.451 -0.3477 -0.8255 -0.0654
 5671TIP3    H238649   5.385   2.111   0.538 -0.5332 -0.0915  0.9675
 5672TIP3   OH238650   3.484   2.663   1.173  0.1555 -0.1487  0.6984
 5672TIP3    H138651   3.507   2.652   1.266 -0.3437  1.4277  1.0401
 5672TIP3    H238652   3.483   2.758   1.160  0.4630 -0.3508 -1.0012
 5673TIP3   OH238653   1.668   0.270   8.833 -0.7441 -0.0576 -0.2340
 5673TIP3    H138654   1.627   0.318   8.906 -0.9347 -0.1187 -0.2988
 5673TIP3    H238655   1.762   0.283   8.845 -0.8098  0.7759 -0.5471
 5674TIP3   OH238656   6.045   1.886   0.730 -0.7338  0.6312 -0.3267
 5674TIP3    H138657   5.968   1.830   0.737 -0.4025  0.1127 -0.7373
 5674TIP3    H238658   6.112   1.841   0.780 -0.5412  0.8041 -0.4279
 5675TIP3   OH238659   1.749   6.232   8.430  0.0953  0.3820 -0.1040
 5675TIP3    H138660   1.816   6.284   8.474 -0.9629  1.4027  0.3450
 5675TIP3    H238661   1.744   6.151   8.481  0.3295  0.6859  0.4028
 5676TIP3   OH238662   1.168   2.098   0.441  0.4452  0.0886 -0.5750
 5676TIP3    H138663   1.200   2.113   0.530  0.9088 -1.1671 -0.5072
 5676TIP3    H238664   1.128   2.181   0.416 -0.6507  0.1652  1.2096
 5677TIP3   OH238665   0.523   2.867   3.069  0.2713 -0.1032  0.5405
 5677TIP3    H138666   0.601   2.846   3.018  0.5701 -2.7620  1.9104
 5677TIP3    H238667   0.538   2.957   3.099  1.8168  0.1718 -0.9292
 5678TIP3   OH238668   4.249   2.913   2.275 -0.5976 -0.0743 -0.2173
 5678TIP3    H138669   4.311   2.901   2.203 -0.5384 -2.6286  0.1704
 5678TIP3    H238670   4.298   2.888   2.353 -1.3340  0.4994  0.4443
 5679TIP3   OH238671   2.486   1.891   0.249  0.3494  0.4038  0.2533
 5679TIP3    H138672   2.528   1.845   0.177  0.7899 -0.6012  1.1327
 5679TIP3    H238673   2.545   1.964   0.268  0.1149  0.8121 -0.5354
 5680TIP3   OH238674   4.658   0.054   1.023  0.4001  0.0194 -0.1748
 5680TIP3    H138675   4.726   0.119   1.042 -0.4276  0.9375 -0.2391
 5680TIP3    H238676   4.579   0.106   1.010 -0.2609 -1.0074 -0.3714
 5681TIP3   OH238677   6.788   2.765   2.270  0.1916 -0.5240 -0.0758
 5681TIP3    H138678   6.754   2.756   2.359 -0.0605  0.2387 -0.0844
 5681TIP3    H238679   6.758   2.852   2.242 -0.3041 -1.0210 -1.1456
 5682TIP3   OH238680   2.805   0.635   7.081  0.6613  0.4834  0.6823
 5682TIP3    H138681   2.878   0.596   7.130  1.0748 -0.0796 -0.3486
 5682TIP3    H238682   2.783   0.570   7.014 -0.5283  0.8227  0.7161
 5683TIP3   OH238683   5.006   5.547   8.091 -0.3121 -0.1367  0.3414
 5683TIP3    H138684   5.006   5.513   8.180 -1.9830 -1.2530 -0.0405
 5683TIP3    H238685   4.914   5.548   8.065  0.1108  0.4210 -1.2883
 5684TIP3   OH238686   0.969   5.688   2.654 -0.4833 -0.3077 -0.4269
 5684TIP3    H138687   0.898   5.643   2.607 -0.8697 -2.3028  1.8636
 5684TIP3    H238688   0.963   5.655   2.743  2.0486  1.0879  0.3511
 5685TIP3   OH238689   1.380   6.299   7.346 -0.0824  0.0692  0.3699
 5685TIP3    H138690   1.441   6.347   7.404 -0.2128  1.1063 -0.3271
 5685TIP3    H238691   1.345   6.230   7.402 -0.0845  0.9431  1.5048
 5686TIP3   OH238692   3.730   3.385   0.167 -0.4273 -0.1748  0.6032
 5686TIP3    H138693   3.804   3.334   0.200 -2.0729 -2.5158  0.9421
 5686TIP3    H238694   3.679   3.322   0.115 -2.5814  1.1390  1.0136
 5687TIP3   OH238695   4.253   3.484   1.508  0.1923 -0.0321  0.0252
 5687TIP3    H138696   4.222   3.484   1.599 -0.3991  0.4738 -0.1641
 5687TIP3    H238697   4.348   3.478   1.515  0.2872  1.5986  0.7595
 5688TIP3   OH238698   5.407   6.112   2.464  0.3877 -0.3324  0.4171
 5688TIP3    H138699   5.406   6.167   2.542  0.9549  1.5453 -0.8013
 5688TIP3    H238700   5.357   6.163   2.399  3.4077  0.2565 -1.6593
 5689TIP3   OH238701   2.190   2.271   7.083  0.1654 -0.4912  0.1860
 5689TIP3    H138702   2.104   2.252   7.120  0.5867 -0.9336  0.9820
 5689TIP3    H238703   2.206   2.363   7.106 -0.7724  0.0962 -1.3970
 5690TIP3   OH238704   5.729   1.561   8.088 -0.0023 -0.1412  0.1027
 5690TIP3    H138705   5.662   1.572   8.020  0.9115 -0.0015 -0.8126
 5690TIP3    H238706   5.691   1.600   8.166 -1.4581 -1.1349 -0.0778
 5691TIP3   OH238707   1.782   3.802   7.890 -0.2881  0.2578  0.0624
 5691TIP3    H138708   1.744   3.820   7.976  1.7653 -1.0885  1.3374
 5691TIP3    H238709   1.768   3.883   7.840 -1.1063  1.2554  1.8173
 5692TIP3   OH238710   5.159   4.526   8.331 -0.1867  0.2464  0.5197
 5692TIP3    H138711   5.181   4.593   8.396 -0.1487  1.2244 -0.4774
 5692TIP3    H238712   5.244   4.496   8.298 -0.2071  1.7295 -1.0224
 5693TIP3   OH238713   5.688   5.239   0.803  0.1452 -0.0208 -0.0363
 5693TIP3    H138714   5.645   5.177   0.745  0.9455  0.3214 -1.0135
 5693TIP3    H238715   5.779   5.241   0.773 -0.0475  2.2841 -0.6014
 5694TIP3   OH238716   3.105   6.353   7.568 -0.1967  0.1898 -0.1497
 5694TIP3    H138717   3.011   6.340   7.585  0.0485 -0.5287  0.7066
 5694TIP3    H238718   3.148   6.323   7.648  0.5703  4.1451  1.1488
 5695TIP3   OH238719   6.374   1.979   0.477  0.1422  0.0060 -0.4104
 5695TIP3    H138720   6.350   1.886   0.471 -1.2433  0.3301 -0.1298
 5695TIP3    H238721   6.411   2.000   0.391 -0.3175 -0.5881 -0.7625
 5696TIP3   OH238722   6.567   4.928   7.674  0.6076  0.0469  0.0873
 5696TIP3    H138723   6.517   5.005   7.645  1.2665  0.4360 -0.0582
 5696TIP3    H238724   6.521   4.897   7.752  1.5011  1.8808  1.4278
 5697TIP3   OH238725   3.615   0.937   8.248 -0.2638  0.1551  1.0775
 5697TIP3    H138726   3.540   0.877   8.247 -0.6657  0.6555  0.4765
 5697TIP3    H238727   3.614   0.978   8.162  0.8196  0.0377  0.9966
 5698TIP3   OH238728   2.004   6.232   2.473  0.5319  0.1610  0.2411
 5698TIP3    H138729   2.017   6.138   2.485 -0.3199 -0.2371 -1.6839
 5698TIP3    H238730   2.035   6.250   2.384 -1.1535  1.3052 -0.1654
 5699TIP3   OH238731   0.098   3.398   0.379 -0.4913 -0.2931  0.3613
 5699TIP3    H138732   0.096   3.429   0.288  1.9553 -2.2964 -0.5087
 5699TIP3    H238733   0.134   3.472   0.428 -1.5582  0.7197 -0.3348
 5700TIP3   OH238734   3.864   2.320   0.792 -0.1429 -0.3669 -0.4749
 5700TIP3    H138735   3.879   2.345   0.701  0.7161  1.0331  0.0300
 5700TIP3    H238736   3.874   2.225   0.792  1.5111 -0.2275 -1.5314
 5701TIP3   OH238737   0.618   0.521   6.989  0.1136  0.2043  0.6378
 5701TIP3    H138738   0.587   0.461   7.057  0.0182  0.1630  0.5583
 5701TIP3    H238739   0.591   0.608   7.018  0.3352  0.2183  0.8004
 5702TIP3   OH238740   3.383   1.663   1.787  0.1948  0.6901 -1.1614
 5702TIP3    H138741   3.361   1.664   1.694 -0.6386  2.2333 -0.9909
 5702TIP3    H238742   3.459   1.605   1.794  0.6313  1.0054 -2.8883
 5703TIP3   OH238743   3.509   4.539   7.273 -0.1138  0.0677  0.8076
 5703TIP3    H138744   3.562   4.466   7.240 -0.9686 -0.0784 -0.2684
 5703TIP3    H238745   3.561   4.617   7.252  0.0519 -0.1234  0.4975
 5704TIP3   OH238746   4.681   5.115   1.599  0.4980  0.1585 -0.2422
 5704TIP3    H138747   4.730   5.178   1.545  1.3076 -1.6096 -1.6851
 5704TIP3    H238748   4.593   5.115   1.562  0.1390  1.2976  0.5572
 5705TIP3   OH238749   1.287   5.854   2.273 -0.3461  0.6972  0.3235
 5705TIP3    H138750   1.267   5.941   2.307 -0.5316  1.1265 -0.8118
 5705TIP3    H238751   1.349   5.870   2.201  2.8257 -0.4284  2.5697
 5706TIP3   OH238752   5.943   6.713   0.714 -0.2984 -0.2207 -0.3456
 5706TIP3    H138753   6.022   6.675   0.676  0.9704  0.3824  1.5148
 5706TIP3    H238754   5.971   6.746   0.800 -2.1602  1.6610 -0.3671
 5707TIP3   OH238755   6.261   1.244   0.613  0.0330  0.0865  0.0398
 5707TIP3    H138756   6.193   1.178   0.597  0.0257  0.0993  0.0195
 5707TIP3    H238757   6.303   1.215   0.694 -1.7274  1.5122  1.5745
 5708TIP3   OH238758   4.139   5.647   3.050  0.1901 -0.0793 -0.4662
 5708TIP3    H138759   4.182   5.729   3.024  0.4648  0.9480  2.8289
 5708TIP3    H238760   4.096   5.667   3.133 -1.7977 -2.6750 -0.7429
 5709TIP3   OH238761   2.309   1.384   1.009 -0.5086 -0.6314 -0.1875
 5709TIP3    H138762   2.385   1.404   1.063 -0.9076 -0.8123  0.4451
 5709TIP3    H238763   2.325   1.295   0.977 -0.2771 -0.5261 -0.3738
 5710TIP3   OH238764   4.091   6.660   2.004 -0.0326 -0.4074  0.2039
 5710TIP3    H138765   4.162   6.632   2.061  0.9833 -0.2406 -0.9430
 5710TIP3    H238766   4.121   6.743   1.968 -0.5565 -0.6094 -0.7205
 5711TIP3   OH238767   2.800   4.962   7.297 -0.2334 -0.5186 -0.8410
 5711TIP3    H138768   2.885   4.989   7.260 -0.2228 -1.0632 -1.2215
 5711TIP3    H238769   2.737   5.021   7.255 -0.0968 -0.4201 -0.9110
 5712TIP3   OH238770   2.442   2.787   7.321  0.3620  0.0447  0.6874
 5712TIP3    H138771   2.534   2.783   7.348  0.4501 -0.6371  0.3107
 5712TIP3    H238772   2.445   2.815   7.230  0.4402 -3.0570 -0.4052
 5713TIP3   OH238773   1.512   2.150   0.402  0.5996 -0.0751 -0.3308
 5713TIP3    H138774   1.508   2.189   0.489  0.8732 -0.4455 -0.1468
 5713TIP3    H238775   1.467   2.212   0.346  0.1484  0.0227  0.1280
 5714TIP3   OH238776   2.187   6.034   8.399 -0.9542 -0.4096  0.1238
 5714TIP3    H138777   2.282   6.045   8.394 -0.8373 -1.6297 -0.8242
 5714TIP3    H238778   2.156   6.048   8.309 -1.6642 -0.1779  0.3951
 5715TIP3   OH238779   5.620   5.165   0.308 -0.1362 -0.0382  0.6089
 5715TIP3    H138780   5.586   5.084   0.272  0.9252 -0.9882  1.6723
 5715TIP3    H238781   5.661   5.209   0.233 -1.9595  0.2507 -0.2807
 5716TIP3   OH238782   5.570   1.576   1.658  0.3113  0.3742  0.1004
 5716TIP3    H138783   5.605   1.509   1.716 -0.9592  0.7682  1.3914
 5716TIP3    H238784   5.618   1.656   1.681 -0.3433  0.5787  0.7920
 5717TIP3   OH238785   1.935   6.150   2.117 -0.3487  0.2911  0.1159
 5717TIP3    H138786   1.999   6.083   2.093  1.1274  1.6421  0.1327
 5717TIP3    H238787   1.984   6.214   2.169 -2.3121  0.0580  2.4327
 5718TIP3   OH238788   2.853   6.624   0.598 -1.2311  0.0234 -0.1272
 5718TIP3    H138789   2.775   6.603   0.547 -0.6880 -0.0412 -0.9548
 5718TIP3    H238790   2.823   6.687   0.663 -2.1788 -0.7821  0.2326
 5719TIP3   OH238791   4.217   4.219   0.630  0.2436 -0.1159 -0.4111
 5719TIP3    H138792   4.200   4.224   0.536 -2.0962  0.0115 -0.0547
 5719TIP3    H238793   4.312   4.211   0.637  0.4396 -0.7364 -2.7946
 5720TIP3   OH238794   5.189   0.129   7.447  0.0430  0.1345  0.0755
 5720TIP3    H138795   5.130   0.090   7.383 -1.0677  0.9803  0.5545
 5720TIP3    H238796   5.182   0.071   7.524  0.2174 -0.0404 -0.0402
 5721TIP3   OH238797   0.184   3.424   7.735 -0.0881  0.0388  0.3213
 5721TIP3    H138798   0.233   3.452   7.812  0.7019 -0.1652 -0.0944
 5721TIP3    H238799   0.193   3.496   7.673 -0.2167 -0.0476  0.2019
 5722TIP3   OH238800   1.139   4.792   7.705 -0.4713  0.3156  0.0876
 5722TIP3    H138801   1.145   4.773   7.611  0.6211  0.0304  0.2096
 5722TIP3    H238802   1.191   4.872   7.716  1.0040 -0.7046  0.7453
 5723TIP3   OH238803   6.385   0.145   0.498  0.5847  0.4062 -0.7101
 5723TIP3    H138804   6.393   0.062   0.451 -2.1324 -1.7758  2.2546
 5723TIP3    H238805   6.312   0.190   0.456 -1.2905 -1.1510  0.7212
 5724TIP3   OH238806   0.311   0.910   7.830 -0.6009  0.1142 -0.1462
 5724TIP3    H138807   0.390   0.937   7.785  1.1197 -2.5758  0.9999
 5724TIP3    H238808   0.316   0.951   7.916  0.1404 -0.8906  0.3050
 5725TIP3   OH238809   0.024   1.239   8.209 -0.5721  0.2344 -0.6722
 5725TIP3    H138810  -0.030   1.307   8.168 -0.7913  0.3122 -0.2558
 5725TIP3    H238811  -0.017   1.224   8.294  1.6233  2.2910  0.8724
 5726TIP3   OH238812   0.111   4.824   7.255  0.2343  0.1054 -0.1364
 5726TIP3    H138813   0.016   4.833   7.259  0.2109  0.4830 -1.2357
 5726TIP3    H238814   0.131   4.753   7.317 -0.4299  1.9409  2.3689
 5727TIP3   OH238815   3.359   4.991   2.162  0.0342  0.1385 -0.3532
 5727TIP3    H138816   3.365   4.937   2.241 -0.9155  1.0816  0.3830
 5727TIP3    H238817   3.450   4.998   2.131  0.3308 -0.7817  0.2670
 5728TIP3   OH238818   0.514   0.555   2.472 -0.2960  0.4359  0.3268
 5728TIP3    H138819   0.484   0.470   2.504  0.3998  0.4474  1.0392
 5728TIP3    H238820   0.608   0.554   2.486 -0.2303  1.1844 -0.0092
 5729TIP3   OH238821   5.298   2.128   8.250 -0.0915  0.3142  0.2355
 5729TIP3    H138822   5.240   2.190   8.295  0.3163  2.0261 -1.4902
 5729TIP3    H238823   5.288   2.148   8.157  0.3029 -2.0430 -0.3766
 5730TIP3   OH238824   3.516   1.098   8.680  0.3842 -0.3390  0.1835
 5730TIP3    H138825   3.524   1.015   8.727  0.4861 -0.0987  0.5884
 5730TIP3    H238826   3.593   1.100   8.623  0.9885 -0.0002  0.9987
 5731TIP3   OH238827   6.792   3.701   3.482 -0.2777  0.1850 -0.2138
 5731TIP3    H138828   6.723   3.635   3.476  0.3383 -0.6768  1.3897
 5731TIP3    H238829   6.749   3.783   3.459 -2.1837 -0.1357  1.8216
 5732TIP3   OH238830   3.823   1.127   6.932 -0.8237 -0.4814 -0.3172
 5732TIP3    H138831   3.792   1.053   6.880  0.1249 -0.9243 -0.2786
 5732TIP3    H238832   3.912   1.143   6.899 -0.6774  0.0351  0.3136
 5733TIP3   OH238833   4.529   6.032   1.620 -0.0792  0.1418  0.8177
 5733TIP3    H138834   4.620   6.003   1.618 -0.4914 -1.1806 -0.4942
 5733TIP3    H238835   4.525   6.104   1.557 -0.3810 -1.3224 -0.9000
 5734TIP3   OH238836   0.717   3.132   8.050  0.2087 -0.1645  0.3106
 5734TIP3    H138837   0.718   3.170   7.962 -2.4437 -0.5320  0.0474
 5734TIP3    H238838   0.695   3.205   8.108  0.9330 -0.1390  0.5665
 5735TIP3   OH238839   6.416   2.250   8.869  0.2421  0.3195  0.3781
 5735TIP3    H138840   6.396   2.163   8.903 -0.4871  0.2465 -0.2076
 5735TIP3    H238841   6.332   2.296   8.872  0.5630  0.9071  0.4066
 5736TIP3   OH238842   3.761   6.442   0.272  0.4165 -0.4860  0.1227
 5736TIP3    H138843   3.680   6.424   0.223  0.2965 -0.8160  0.4375
 5736TIP3    H238844   3.751   6.392   0.353  0.1034  0.9150  1.0038
 5737TIP3   OH238845   5.494   0.367   1.768 -0.5442 -0.2304 -0.1789
 5737TIP3    H138846   5.449   0.312   1.704 -1.2018  1.1249 -0.9350
 5737TIP3    H238847   5.574   0.319   1.789 -0.7260 -1.1159 -1.3886
 5738TIP3   OH238848   6.131   5.524   8.325  0.0753  0.0479  0.1583
 5738TIP3    H138849   6.140   5.490   8.236  0.9572  2.2102 -0.6503
 5738TIP3    H238850   6.181   5.463   8.379  0.4496 -0.6897 -0.9757
 5739TIP3   OH238851   3.546   3.574   1.918  0.2135 -0.2018 -0.2993
 5739TIP3    H138852   3.586   3.490   1.896  0.3102 -0.5031  0.9714
 5739TIP3    H238853   3.455   3.566   1.889 -0.6916 -1.9957  2.5858
 5740TIP3   OH238854   0.218   6.533   7.659  0.3001  0.2343  0.2545
 5740TIP3    H138855   0.302   6.517   7.702  1.2626  2.2148 -0.7901
 5740TIP3    H238856   0.236   6.522   7.566 -0.5275  0.9384  0.0030
 5741TIP3   OH238857   0.868   5.728   1.280 -0.2792 -0.2370 -0.3922
 5741TIP3    H138858   0.783   5.686   1.274  0.7204 -2.5552  0.3949
 5741TIP3    H238859   0.881   5.769   1.195 -1.8212 -0.5463 -0.8044
 5742TIP3   OH238860   1.990   0.267   7.773 -0.1778  0.5704 -0.2781
 5742TIP3    H138861   1.977   0.350   7.818  0.1614  0.7784 -0.5635
 5742TIP3    H238862   2.084   0.251   7.778 -0.0700  0.7919 -1.2422
 5743TIP3   OH238863   3.492   0.793   1.010 -0.1994 -0.0873 -0.1703
 5743TIP3    H138864   3.540   0.711   1.020  0.2292  0.0280 -1.1543
 5743TIP3    H238865   3.513   0.843   1.089 -0.6220 -0.9970  0.5302
 5744TIP3   OH238866   4.144   3.325   1.948  0.0960  0.1920  0.2857
 5744TIP3    H138867   4.089   3.388   1.995 -0.8366  0.2969 -0.9258
 5744TIP3    H238868   4.220   3.314   2.006  0.8290  3.2285  0.1110
 5745TIP3   OH238869   6.559   5.466   2.302  0.4464 -0.2525 -0.9607
 5745TIP3    H138870   6.630   5.512   2.346  0.0365 -1.4200  1.0162
 5745TIP3    H238871   6.479   5.511   2.330  0.2135 -0.6526 -0.9686
 5746TIP3   OH238872   5.283   1.868   1.381  0.4998 -0.3921  0.2777
 5746TIP3    H138873   5.359   1.850   1.325  0.3184 -1.2686  0.2953
 5746TIP3    H238874   5.262   1.960   1.365  2.9449  0.5513  1.9469
 5747TIP3   OH238875   0.067   2.733   0.410  0.0782  0.2749  0.1381
 5747TIP3    H138876   0.047   2.752   0.318  0.1313 -2.1555 -0.4425
 5747TIP3    H238877   0.004   2.666   0.435  0.8473  0.0189  1.4896
 5748TIP3   OH238878   0.105   3.144   7.901 -0.0473  0.3321 -0.3187
 5748TIP3    H138879   0.018   3.178   7.882 -0.4121  0.4456  1.3663
 5748TIP3    H238880   0.094   3.049   7.905 -0.1540  0.3606  0.1223
 5749TIP3   OH238881   0.165   4.813   8.012  0.1287 -0.2965  0.3110
 5749TIP3    H138882   0.255   4.822   7.982 -0.2999  0.7881 -0.7223
 5749TIP3    H238883   0.116   4.879   7.963 -1.5625 -2.0004 -0.4280
 5750TIP3   OH238884   4.218   6.337   0.457  0.5277 -0.1970 -0.2808
 5750TIP3    H138885   4.210   6.333   0.552  1.2030  2.0693 -0.0680
 5750TIP3    H238886   4.305   6.375   0.442  0.6694 -1.0442 -1.8281
 5751TIP3   OH238887   6.660   5.039   0.669 -0.0508  0.5993 -0.5749
 5751TIP3    H138888   6.751   5.014   0.654  0.2181  0.3256  1.2420
 5751TIP3    H238889   6.661   5.077   0.757 -1.5382  1.4376 -0.9023
 5752TIP3   OH238890   0.314   4.728   0.658  0.4514  0.5893  0.1206
 5752TIP3    H138891   0.335   4.816   0.691  0.5168  0.3299  0.7857
 5752TIP3    H238892   0.397   4.696   0.621  0.0719  1.3900 -1.5237
 5753TIP3   OH238893   4.220   0.701   8.140  0.1822 -0.3521  0.5025
 5753TIP3    H138894   4.155   0.660   8.083  1.0506 -0.1483 -0.6846
 5753TIP3    H238895   4.186   0.689   8.228 -0.0335 -2.8524  0.1605
 5754TIP3   OH238896   2.149   3.596   1.071  0.2115  0.5603  0.0548
 5754TIP3    H138897   2.167   3.530   1.137  0.8152  0.0228 -0.6353
 5754TIP3    H238898   2.174   3.555   0.988 -0.2379  1.3316 -0.4760
 5755TIP3   OH238899   4.062   4.207   1.790  0.0009 -0.2659 -0.5938
 5755TIP3    H138900   4.076   4.145   1.718 -0.2048 -2.4192  1.1167
 5755TIP3    H238901   4.151   4.230   1.819  0.1019 -1.0340 -0.2516
 5756TIP3   OH238902   5.166   0.494   6.898  0.2208 -0.0173 -0.3452
 5756TIP3    H138903   5.181   0.585   6.870 -2.0079  0.0537 -1.5339
 5756TIP3    H238904   5.112   0.456   6.828 -1.2280 -1.4166  1.4319
 5757TIP3   OH238905   5.494   4.117   1.592  0.2523 -0.2028 -0.2080
 5757TIP3    H138906   5.494   4.104   1.686  0.7194 -1.8402 -0.4096
 5757TIP3    H238907   5.467   4.033   1.555  3.6390 -0.8587 -1.6228
 5758TIP3   OH238908   5.864   2.388   0.416 -0.5075  0.5416  0.6784
 5758TIP3    H138909   5.890   2.308   0.462  0.8703  1.6040  1.8613
 5758TIP3    H238910   5.770   2.394   0.430 -0.8052 -1.2937 -0.1857
 5759TIP3   OH238911   1.537   0.407   8.635  0.4182 -0.4620  0.3415
 5759TIP3    H138912   1.590   0.360   8.699 -0.4640 -0.3009  1.2047
 5759TIP3    H238913   1.550   0.500   8.656 -0.6908 -0.4373  0.9714
 5760TIP3   OH238914   0.635   2.895   2.210 -0.6792  0.0806  0.2123
 5760TIP3    H138915   0.650   2.960   2.279 -0.9671  0.3346  0.0418
 5760TIP3    H238916   0.543   2.906   2.187 -0.7341 -0.4012  0.1893
 5761TIP3   OH238917   1.317   0.368   8.169  0.4018  0.0924  0.0422
 5761TIP3    H138918   1.267   0.318   8.234  0.2233 -0.6699 -0.6580
 5761TIP3    H238919   1.403   0.327   8.169  0.4072  0.1029 -0.1812
 5762TIP3   OH238920   6.772   6.211   2.025  0.1357  0.2476  0.4262
 5762TIP3    H138921   6.851   6.159   2.007  0.7259  1.7824 -1.8591
 5762TIP3    H238922   6.805   6.292   2.064 -0.2466  1.0502 -0.8832
 5763TIP3   OH238923   4.902   0.337   8.668 -0.1648  0.5051  0.2897
 5763TIP3    H138924   4.992   0.338   8.635 -0.6856  1.0051 -1.1865
 5763TIP3    H238925   4.894   0.253   8.712  1.0465  0.4814  0.5016
 5764TIP3   OH238926   6.598   6.254   8.063 -0.0460 -0.0885 -0.1550
 5764TIP3    H138927   6.513   6.241   8.023 -0.1841 -1.1734  0.4440
 5764TIP3    H238928   6.616   6.347   8.053 -0.2777 -0.2390 -2.2677
 5765TIP3   OH238929   4.360   1.412   1.150 -0.1657 -0.9994 -0.4280
 5765TIP3    H138930   4.336   1.409   1.242  2.5011 -1.7359  0.3295
 5765TIP3    H238931   4.444   1.458   1.148 -0.7460  0.1345 -2.6733
 5766TIP3   OH238932   5.468   1.539   0.168  0.4621  0.7651  0.8885
 5766TIP3    H138933   5.413   1.613   0.142  2.9318  2.4241  0.0381
 5766TIP3    H238934   5.461   1.478   0.096  2.5877  2.6751 -1.0864
 5767TIP3   OH238935   6.024   1.182   7.399  0.3163 -0.3231 -0.0541
 5767TIP3    H138936   6.029   1.267   7.354  0.7838  0.3927  1.3022
 5767TIP3    H238937   6.089   1.128   7.355 -1.1391 -0.5659 -2.0528
 5768TIP3   OH238938   4.034   6.047   0.615 -0.1868  0.0059 -0.0788
 5768TIP3    H138939   4.000   6.029   0.703  1.4908  0.4502  0.7059
 5768TIP3    H238940   4.076   6.133   0.624 -0.0407  0.0782 -1.3454
 5769TIP3   OH238941   0.647   2.761   1.385  0.0971 -0.2021 -0.5737
 5769TIP3    H138942   0.621   2.832   1.326  0.7065  0.8346  0.3726
 5769TIP3    H238943   0.647   2.801   1.472 -2.2780 -2.0692  0.3912
 5770TIP3   OH238944   5.382   4.602   0.466 -0.5566 -0.6667  0.9399
 5770TIP3    H138945   5.452   4.583   0.529 -0.3988 -0.2977  0.8802
 5770TIP3    H238946   5.384   4.698   0.457 -1.0879 -0.6550  0.9556
 5771TIP3   OH238947   6.486   0.804   0.231 -0.3615 -0.4251 -1.3269
 5771TIP3    H138948   6.505   0.883   0.282  0.3528 -1.1289 -0.4759
 5771TIP3    H238949   6.439   0.747   0.290 -1.5028 -0.3853 -2.1589
 5772TIP3   OH238950   3.902   6.703   8.634  0.2652  0.5309  0.0255
 5772TIP3    H138951   3.907   6.729   8.541  0.4953  2.3017  0.4915
 5772TIP3    H238952   3.864   6.780   8.677  2.9309  0.9238  1.8551
 5773TIP3   OH238953   0.797   1.359   2.150 -0.3171  0.1233 -0.2157
 5773TIP3    H138954   0.749   1.420   2.094 -1.1036  0.2036  0.5278
 5773TIP3    H238955   0.732   1.293   2.176  0.0234  0.0896  0.5966
 5774TIP3   OH238956   0.852   3.988   7.837 -0.6561 -0.2814  0.0643
 5774TIP3    H138957   0.890   3.904   7.861  2.5626  0.3884 -2.0423
 5774TIP3    H238958   0.757   3.974   7.839 -0.3676 -2.8202  3.3091
 5775TIP3   OH238959   2.907   6.603   1.354  0.3609 -0.0770 -0.0739
 5775TIP3    H138960   2.977   6.646   1.403 -0.4441 -0.7209  1.7295
 5775TIP3    H238961   2.827   6.627   1.400 -0.2600 -2.1483  0.0346
 5776TIP3   OH238962   4.799   5.414   1.753  0.1946 -0.4876  0.6865
 5776TIP3    H138963   4.835   5.502   1.770  0.8403 -1.1798  3.3359
 5776TIP3    H238964   4.773   5.417   1.661  1.1772  2.1345  0.3892
 5777TIP3   OH238965   0.675   3.803   2.174  0.0720 -0.1049  0.4349
 5777TIP3    H138966   0.592   3.780   2.131  0.1390 -0.7140  0.6290
 5777TIP3    H238967   0.686   3.897   2.156 -0.4046 -0.1338 -0.0223
 5778TIP3   OH238968   1.179   6.217   0.822 -0.1131 -0.2008  0.6094
 5778TIP3    H138969   1.206   6.225   0.730  0.2016 -1.6244  0.5583
 5778TIP3    H238970   1.214   6.295   0.864  2.0025 -0.7877  0.0392
 5779TIP3   OH238971   5.765   2.145   7.566 -0.6189 -0.0228  0.0055
 5779TIP3    H138972   5.815   2.167   7.645  0.2566 -0.8934 -0.2880
 5779TIP3    H238973   5.795   2.207   7.500  0.2321 -0.6623 -0.2212
 5780TIP3   OH238974   0.721   3.244   0.995 -0.1552 -0.3169 -0.6070
 5780TIP3    H138975   0.750   3.165   0.950  1.6519 -0.9970  1.5787
 5780TIP3    H238976   0.797   3.302   0.992 -0.3989  0.0837  0.4709
 5781TIP3   OH238977   6.076   0.777   0.258 -0.0771  0.2288  0.2442
 5781TIP3    H138978   6.136   0.783   0.184 -0.2503 -0.6881  0.0224
 5781TIP3    H238979   5.990   0.765   0.218 -0.2747  0.5132  0.5808
 5782TIP3   OH238980   2.552   0.550   1.314  0.3694 -0.3095  0.6645
 5782TIP3    H138981   2.581   0.465   1.281  1.4556  0.4674 -0.4670
 5782TIP3    H238982   2.597   0.614   1.259 -2.5684  1.0123 -0.4378
 5783TIP3   OH238983   0.055   6.671   1.152  0.4839  0.2217 -0.1084
 5783TIP3    H138984   0.017   6.754   1.180 -0.4570  0.2769 -1.4284
 5783TIP3    H238985   0.058   6.678   1.056  0.4395 -1.2460 -0.2284
 5784TIP3   OH238986   3.543   3.999   1.995 -0.1040  0.6083 -0.4771
 5784TIP3    H138987   3.638   3.995   1.980  0.0596 -1.5118  0.7373
 5784TIP3    H238988   3.508   3.928   1.941 -0.8324  0.4580  0.1900
 5785TIP3   OH238989   1.777   1.629   0.840 -1.1038 -0.0251 -0.3153
 5785TIP3    H138990   1.807   1.578   0.915 -1.7942  0.0065 -0.0124
 5785TIP3    H238991   1.858   1.664   0.801 -0.6692 -0.8834 -0.2041
 5786TIP3   OH238992   1.967   1.341   8.453  0.0619 -0.5987  0.3257
 5786TIP3    H138993   2.060   1.353   8.434  0.0714 -1.1143  0.0264
 5786TIP3    H238994   1.950   1.249   8.432 -0.3921 -0.6526  0.8944
 5787TIP3   OH238995   5.931   4.095   7.989 -0.0072  0.3847 -0.0421
 5787TIP3    H138996   5.880   4.042   8.050  0.1371  1.2231  0.8490
 5787TIP3    H238997   5.867   4.148   7.942 -0.1433 -0.4784 -0.8583
 5788TIP3   OH238998   1.582   3.340   0.871  0.2156 -0.8712 -0.3733
 5788TIP3    H138999   1.632   3.385   0.804  1.2674 -2.9206 -1.0606
 5788TIP3    H239000   1.624   3.366   0.953  0.6657 -0.4541 -0.7277
 5789TIP3   OH239001   0.960   5.424   0.579  0.0540  0.6516 -0.6909
 5789TIP3    H139002   0.943   5.330   0.580  1.6872  0.3083  0.7203
 5789TIP3    H239003   0.889   5.462   0.631  0.3362 -0.0380  0.2258
 5790TIP3   OH239004   3.063   2.444   7.477  0.4192 -0.4363 -0.1610
 5790TIP3    H139005   3.071   2.396   7.394 -0.6044 -0.2649 -0.3777
 5790TIP3    H239006   3.035   2.532   7.451  1.5263  0.0668  0.2843
 5791TIP3   OH239007   0.677   6.802   1.844 -0.1262 -0.1714  0.3118
 5791TIP3    H139008   0.691   6.897   1.847 -0.8817 -0.0375  3.0154
 5791TIP3    H239009   0.759   6.767   1.811  0.2115  1.3969 -0.6373
 5792TIP3   OH239010   3.236   3.502   7.558 -0.1411  0.3298  0.2776
 5792TIP3    H139011   3.254   3.512   7.464 -0.7990 -3.3027 -0.3856
 5792TIP3    H239012   3.297   3.435   7.587 -2.5511 -1.5466  1.4061
 5793TIP3   OH239013   3.318   3.983   0.424 -0.0371 -0.4730  0.1539
 5793TIP3    H139014   3.382   4.013   0.359  0.3095 -1.5318 -0.0078
 5793TIP3    H239015   3.359   3.909   0.467 -2.5552 -3.8322 -2.6677
 5794TIP3   OH239016   3.868   0.422   0.787 -0.4692  0.1072  0.8333
 5794TIP3    H139017   3.785   0.435   0.833 -1.2017 -0.3975 -0.3140
 5794TIP3    H239018   3.897   0.511   0.765 -0.3814  0.3201  1.7763
 5795TIP3   OH239019   2.969   5.184   1.377  0.2058 -0.0853 -0.2210
 5795TIP3    H139020   2.891   5.239   1.366  1.9806  2.7111  0.1730
 5795TIP3    H239021   3.003   5.172   1.289  0.7379  0.9366 -0.1644
 5796TIP3   OH239022   2.099   5.880   1.443  0.2918  0.5048 -0.1548
 5796TIP3    H139023   2.047   5.930   1.380 -1.1458 -0.5888  0.1175
 5796TIP3    H239024   2.149   5.818   1.390 -0.5113 -0.0551 -0.2710
 5797TIP3   OH239025   0.526   6.079   8.347  0.2083  0.2629 -0.2960
 5797TIP3    H139026   0.508   6.003   8.292  1.5270  0.7508 -1.4758
 5797TIP3    H239027   0.523   6.153   8.286  1.4956  0.8367  0.3045
 5798TIP3   OH239028   5.639   6.759   0.189 -0.0451 -0.4198  0.0568
 5798TIP3    H139029   5.627   6.702   0.113  0.6861 -0.7558  0.1895
 5798TIP3    H239030   5.699   6.711   0.246 -0.6072 -0.1825  0.8679
 5799TIP3   OH239031   2.998   1.402   2.143 -0.2506 -0.1941  0.6029
 5799TIP3    H139032   3.077   1.422   2.093  0.1195 -1.7987  0.5111
 5799TIP3    H239033   3.007   1.455   2.223 -0.0568  1.1328 -0.2608
 5800TIP3   OH239034   2.885   5.910   0.887 -0.1382  0.0037 -0.0424
 5800TIP3    H139035   2.838   5.832   0.917 -0.2793  0.5826  1.3083
 5800TIP3    H239036   2.977   5.885   0.888 -0.2559 -0.5288 -0.8606
 5801TIP3   OH239037   1.886   2.485   7.596  0.1055 -0.5403  0.2456
 5801TIP3    H139038   1.862   2.571   7.631 -2.9712  0.0027 -2.7321
 5801TIP3    H239039   1.824   2.425   7.636 -0.7457 -0.5753 -1.0812
 5802TIP3   OH239040   4.842   0.150   8.865 -0.0995  0.3024 -0.1431
 5802TIP3    H139041   4.856   0.182   8.954  1.5264 -1.3258  0.2664
 5802TIP3    H239042   4.895   0.070   8.860  0.6351  0.8403 -2.8827
 5803TIP3   OH239043   2.206   3.040   2.150  0.0826 -0.1832 -0.6512
 5803TIP3    H139044   2.235   3.092   2.075  0.9704 -0.5954 -0.6006
 5803TIP3    H239045   2.280   3.042   2.210 -0.7938  0.5447  0.4438
 5804TIP3   OH239046   1.085   6.515   1.412  0.1671 -0.1943 -0.0215
 5804TIP3    H139047   1.158   6.550   1.361  0.4602 -0.6084  0.1085
 5804TIP3    H239048   1.115   6.519   1.503 -0.3199  0.4616  0.1247
 5805TIP3   OH239049   2.755   1.438   7.536 -0.3700 -0.7201  0.0690
 5805TIP3    H139050   2.710   1.496   7.598 -0.6911 -1.1389  0.2329
 5805TIP3    H239051   2.757   1.487   7.455  0.5199  0.0481  0.5469
 5806TIP3   OH239052   6.295   5.580   7.935  0.7140  0.2029  0.0400
 5806TIP3    H139053   6.382   5.614   7.913  0.4670  1.2438  0.5829
 5806TIP3    H239054   6.247   5.582   7.853  1.9678 -2.9879 -0.9179
 5807TIP3   OH239055   3.959   1.743   0.986  0.0423 -0.0198  0.3365
 5807TIP3    H139056   3.928   1.813   1.043  1.8727  0.5484  0.6856
 5807TIP3    H239057   3.886   1.680   0.984 -0.3212  0.2322  2.7695
 5808TIP3   OH239058   5.442   2.291   1.209 -0.0505  0.3754  0.8781
 5808TIP3    H139059   5.508   2.282   1.278  0.1664  0.0890  0.6369
 5808TIP3    H239060   5.361   2.262   1.250  0.0997  0.0937  0.9830
 5809TIP3   OH239061   0.735   5.745   2.229 -0.2824 -0.6824 -0.1670
 5809TIP3    H139062   0.722   5.837   2.254  0.7506 -0.2376 -1.1352
 5809TIP3    H239063   0.723   5.696   2.310  0.7827  0.4804  0.7364
 5810TIP3   OH239064   3.538   5.542   8.075  0.4099 -0.2178 -0.3560
 5810TIP3    H139065   3.629   5.551   8.102  0.5431 -0.9332 -0.5511
 5810TIP3    H239066   3.517   5.625   8.032  0.7355  0.2378  0.3420
 5811TIP3   OH239067   2.987   3.683   2.815 -0.2651  0.1976 -0.2368
 5811TIP3    H139068   2.909   3.739   2.816 -1.8196 -1.8376 -0.9474
 5811TIP3    H239069   2.978   3.630   2.736  0.7990 -1.4888  0.7068
 5812TIP3   OH239070   2.734   0.583   8.620 -0.0941 -0.2590  0.0747
 5812TIP3    H139071   2.779   0.500   8.607  1.0108  0.4000 -0.4411
 5812TIP3    H239072   2.680   0.594   8.541  1.2000  0.3807 -0.7553
 5813TIP3   OH239073   6.332   6.018   0.697 -0.1723 -0.3869 -0.6484
 5813TIP3    H139074   6.275   6.025   0.620  0.4807 -0.8685 -1.1962
 5813TIP3    H239075   6.421   6.012   0.660  0.3064  0.9554  0.1952
 5814TIP3   OH239076   5.830   6.374   1.218 -0.1283  0.1258 -0.3180
 5814TIP3    H139077   5.745   6.416   1.235 -0.2974 -0.3605  0.0902
 5814TIP3    H239078   5.852   6.330   1.300  0.5175  0.2390 -0.4267
 5815TIP3   OH239079   1.894   5.117   1.002 -0.1573  0.8337  0.0105
 5815TIP3    H139080   1.960   5.115   0.933 -1.0904  1.1905 -0.9131
 5815TIP3    H239081   1.908   5.200   1.047 -0.0285  0.9443 -0.2355
 5816TIP3   OH239082   1.852   3.407   0.452 -0.8293  0.1035 -0.0269
 5816TIP3    H139083   1.859   3.356   0.533 -0.3360  1.6557  0.9456
 5816TIP3    H239084   1.866   3.343   0.382 -1.7063 -1.3529  1.0811
 5817TIP3   OH239085   0.514   1.650   0.618  0.1730  0.1351  0.1145
 5817TIP3    H139086   0.436   1.650   0.562 -0.2838  1.6807  0.7059
 5817TIP3    H239087   0.543   1.559   0.618 -1.0165 -0.2772 -0.9590
 5818TIP3   OH239088   1.188   5.509   1.036  0.5509  0.3617 -0.1759
 5818TIP3    H139089   1.110   5.480   0.990  0.3084  0.3626  0.2305
 5818TIP3    H239090   1.161   5.518   1.127  1.9134 -3.5120  0.8274
 5819TIP3   OH239091   1.324   0.515   1.482  0.4173 -0.9216 -0.3072
 5819TIP3    H139092   1.408   0.521   1.437  0.7363  0.2146  0.3927
 5819TIP3    H239093   1.345   0.472   1.565  0.4601  0.0517  0.1967
 5820TIP3   OH239094   0.707   2.331   1.097  0.2161  0.0837 -0.2788
 5820TIP3    H139095   0.617   2.325   1.127  0.1040  1.2178 -0.3336
 5820TIP3    H239096   0.730   2.242   1.070 -0.2089 -0.6581  1.6144
 5821TIP3   OH239097   3.673   1.795   8.666 -0.5236  0.5225  0.5753
 5821TIP3    H139098   3.584   1.763   8.680  0.2350 -1.2689  1.7635
 5821TIP3    H239099   3.702   1.752   8.586  0.2255 -1.2948  1.7543
 5822TIP3   OH239100   1.691   2.715   1.024  0.0986  0.4738 -0.1168
 5822TIP3    H139101   1.623   2.648   1.033  0.8008 -0.1188  1.2736
 5822TIP3    H239102   1.733   2.696   0.940 -0.5276 -0.0440 -0.3227
 5823TIP3   OH239103   3.796   5.144   8.829  0.3551 -0.7377  0.2834
 5823TIP3    H139104   3.731   5.095   8.778  0.7180  0.9941 -2.0387
 5823TIP3    H239105   3.863   5.079   8.852 -0.1883 -1.7518 -0.8803
 5824TIP3   OH239106   1.186   1.651   0.626  0.2218 -0.2514  0.3193
 5824TIP3    H139107   1.169   1.713   0.555 -0.4922 -1.2602 -0.4143
 5824TIP3    H239108   1.281   1.655   0.639  0.3041  0.2682 -0.3893
 5825TIP3   OH239109   5.412   3.482   6.653 -0.0024  0.0460  0.2819
 5825TIP3    H139110   5.324   3.486   6.616  0.8694 -1.3669 -2.1712
 5825TIP3    H239111   5.404   3.425   6.730 -1.2668  0.1759  0.2596
 5826TIP3   OH239112   6.177   4.359   1.122 -0.2847  0.2299 -0.8180
 5826TIP3    H139113   6.150   4.334   1.034  1.4650 -0.3862 -1.2249
 5826TIP3    H239114   6.137   4.293   1.179 -0.6118  0.0428 -1.2593
 5827TIP3   OH239115   4.904   5.727   2.991 -0.1858 -0.2335 -0.0822
 5827TIP3    H139116   4.994   5.759   2.984 -0.4763  0.3752 -1.4495
 5827TIP3    H239117   4.873   5.722   2.901 -1.9954  0.9564  0.4158
 5828TIP3   OH239118   3.035   1.735   8.097 -0.4948  0.1894 -0.1437
 5828TIP3    H139119   3.107   1.796   8.082  0.0542 -0.6666 -1.1369
 5828TIP3    H239120   2.969   1.760   8.032 -0.8319  0.5579  0.3325
 5829TIP3   OH239121   6.408   5.133   7.586 -0.5284  0.2412  0.2525
 5829TIP3    H139122   6.346   5.163   7.653 -1.6846  0.8721 -1.0595
 5829TIP3    H239123   6.411   5.204   7.522  0.0920 -0.5970 -0.6798
 5830TIP3   OH239124   3.794   6.427   8.415  0.4881 -0.5141 -0.2279
 5830TIP3    H139125   3.785   6.344   8.368  0.5340 -0.1131 -0.9630
 5830TIP3    H239126   3.704   6.451   8.437  0.6033 -1.7116  1.7208
 5831TIP3   OH239127   3.958   3.273   7.189  0.5214 -0.7176 -0.3786
 5831TIP3    H139128   3.999   3.203   7.137  0.6600 -1.5694  0.8552
 5831TIP3    H239129   3.865   3.253   7.187  0.4787 -0.5081 -0.6308
 5832TIP3   OH239130   4.977   3.360   7.121 -0.1089 -0.2563 -0.3979
 5832TIP3    H139131   5.052   3.322   7.077 -0.6333 -1.9936  0.1387
 5832TIP3    H239132   5.004   3.371   7.212 -0.2641 -0.1774 -0.3593
 5833TIP3   OH239133   1.826   2.890   2.142 -0.9382  0.2312 -0.5266
 5833TIP3    H139134   1.770   2.919   2.215  0.7579 -0.2190  1.0443
 5833TIP3    H239135   1.824   2.795   2.147 -0.4592  0.2068 -0.7913
 5834TIP3   OH239136   6.636   6.328   0.192  0.5574 -0.1279 -0.5169
 5834TIP3    H139137   6.637   6.405   0.136  0.5638  0.1725 -0.1101
 5834TIP3    H239138   6.656   6.255   0.133  0.1999  0.1355 -0.9676
 5835TIP3   OH239139   2.975   0.573   1.446 -0.7858 -0.2787  0.3127
 5835TIP3    H139140   2.988   0.609   1.359 -2.3312  0.2705  0.2822
 5835TIP3    H239141   2.978   0.478   1.433  1.3866 -0.2389  0.0908
 5836TIP3   OH239142   1.708   6.073   2.490  0.3000 -0.1897  0.9028
 5836TIP3    H139143   1.630   6.027   2.522 -1.8449  1.9589 -0.9070
 5836TIP3    H239144   1.721   6.145   2.552 -0.1652  0.3991  0.3279
 5837TIP3   OH239145   5.718   0.213   1.873 -0.0238 -0.4762  0.8772
 5837TIP3    H139146   5.805   0.201   1.909 -0.2747  0.3471  1.7956
 5837TIP3    H239147   5.730   0.204   1.778  1.4061  1.3285  0.8163
 5838TIP3   OH239148   1.748   0.020   0.560 -0.8709  0.4497  0.0802
 5838TIP3    H139149   1.698  -0.056   0.529 -0.9912  0.1287  1.0224
 5838TIP3    H239150   1.820  -0.018   0.610  0.1799  0.9197 -1.0250
 5839TIP3   OH239151   2.634   6.335   0.739 -0.0346  0.4486 -0.3493
 5839TIP3    H139152   2.708   6.362   0.684 -0.5331 -0.9066 -1.7791
 5839TIP3    H239153   2.668   6.263   0.791 -0.4907 -0.6841 -1.5558
 5840TIP3   OH239154   1.906   1.116   6.892  0.4156  0.0600  0.1697
 5840TIP3    H139155   1.868   1.190   6.844 -0.7490 -0.7828 -0.2479
 5840TIP3    H239156   1.995   1.109   6.859  0.8318  1.7791  0.8068
 5841TIP3   OH239157   0.621   3.250   8.727  0.3005  0.3684  0.1952
 5841TIP3    H139158   0.707   3.242   8.768 -0.4047 -0.8440  1.5273
 5841TIP3    H239159   0.568   3.298   8.791 -0.6503 -1.0002  0.4678
 5842TIP3   OH239160   1.783   6.700   0.053  0.5993  0.4029  0.3450
 5842TIP3    H139161   1.749   6.710  -0.036  1.7174  1.2384 -0.0060
 5842TIP3    H239162   1.735   6.765   0.104 -0.5853 -0.5824  0.5395
 5843TIP3   OH239163   1.072   2.900   0.751 -0.0268  0.1683 -0.0278
 5843TIP3    H139164   0.981   2.898   0.721  0.1050 -0.9592 -0.3925
 5843TIP3    H239165   1.074   2.970   0.816 -1.1186  0.3117 -0.1284
 5844TIP3   OH239166   1.594   0.585   1.811 -0.1797 -0.1315  0.5784
 5844TIP3    H139167   1.608   0.547   1.898 -1.1508 -1.1159  0.3277
 5844TIP3    H239168   1.513   0.545   1.780  0.4235 -0.1931 -1.0022
 5845TIP3   OH239169   6.610   2.654   0.721  0.5340 -0.3201 -0.2495
 5845TIP3    H139170   6.543   2.662   0.654  0.2962 -0.9473 -0.0868
 5845TIP3    H239171   6.665   2.732   0.709 -0.4745  0.4314 -0.0886
 5846TIP3   OH239172   5.156   4.799   0.854  0.6415 -0.2423 -0.0219
 5846TIP3    H139173   5.125   4.774   0.767  3.7166 -0.5424 -1.1372
 5846TIP3    H239174   5.170   4.715   0.899 -0.9350 -0.0888  0.8301
 5847TIP3   OH239175   2.559   2.067   2.596  0.1962  0.0987 -0.5879
 5847TIP3    H139176   2.586   1.978   2.619 -1.7814  0.2388  3.1366
 5847TIP3    H239177   2.637   2.121   2.609  0.6851 -0.7339 -0.0489
 5848TIP3   OH239178   5.873   4.705   1.850  0.0484 -0.3671  0.2540
 5848TIP3    H139179   5.831   4.620   1.866 -2.2945  0.4146 -1.2549
 5848TIP3    H239180   5.836   4.763   1.916 -0.3445  0.0574 -0.3320
 5849TIP3   OH239181   3.973   6.527   1.326  0.9092  0.0519  0.4232
 5849TIP3    H139182   4.012   6.559   1.244  0.6673 -0.3235  0.1612
 5849TIP3    H239183   3.880   6.544   1.316  0.7559 -0.8927  0.2104
 5850TIP3   OH239184   0.451   0.761   0.951 -0.0792 -0.7415 -0.0600
 5850TIP3    H139185   0.364   0.799   0.963  0.0030 -0.6811  0.3509
 5850TIP3    H239186   0.435   0.668   0.935 -0.1594 -0.9813  1.2989
 5851TIP3   OH239187   6.246   1.221   1.822 -0.3661 -0.5300 -0.0538
 5851TIP3    H139188   6.221   1.211   1.914 -0.4605  0.7118  0.0790
 5851TIP3    H239189   6.264   1.315   1.812  0.7855 -0.8349 -1.0271
 5852TIP3   OH239190   5.435   0.130   7.848  0.4128  0.0107 -0.0593
 5852TIP3    H139191   5.380   0.074   7.793  0.3483 -0.4648  0.4814
 5852TIP3    H239192   5.431   0.216   7.807 -2.1559  0.4398  0.9223
 5853TIP3   OH239193   6.515   0.373   0.305 -0.2574 -0.1877  0.2906
 5853TIP3    H139194   6.555   0.426   0.374  2.7440 -1.7989 -0.0742
 5853TIP3    H239195   6.492   0.290   0.348 -1.3208 -0.0719 -0.0078
 5854TIP3   OH239196   1.553   0.194   1.061 -0.5602  0.0312  0.2414
 5854TIP3    H139197   1.553   0.130   1.132  0.2213  1.2860  1.4419
 5854TIP3    H239198   1.545   0.279   1.106 -0.0540  0.8717 -1.1787
 5855TIP3   OH239199   0.541   5.283   2.363 -0.2317 -0.0374  0.3965
 5855TIP3    H139200   0.576   5.280   2.452 -3.0510 -0.7307  1.5854
 5855TIP3    H239201   0.451   5.251   2.371 -0.0886 -1.7399 -2.9910
 5856TIP3   OH239202   0.843   0.701   8.516  0.0790 -0.2839 -0.4010
 5856TIP3    H139203   0.826   0.640   8.445  0.1839 -0.4056 -0.3211
 5856TIP3    H239204   0.762   0.701   8.568 -0.8281  1.4146 -1.6984
 5857TIP3   OH239205   6.314   2.452   0.971 -0.3151  0.4984  0.1297
 5857TIP3    H139206   6.315   2.364   0.934 -0.1310  0.7776 -0.5578
 5857TIP3    H239207   6.398   2.460   1.016  0.3870  0.8710 -1.1882
 5858TIP3   OH239208   1.975   6.674   8.562 -0.3092 -0.1222 -0.1124
 5858TIP3    H139209   1.983   6.767   8.542 -2.3290  0.0344 -0.3846
 5858TIP3    H239210   1.933   6.637   8.485  1.5144 -1.5194 -0.5079
 5859TIP3   OH239211   1.878   2.122   7.827 -0.3724 -0.1838  0.0499
 5859TIP3    H139212   1.951   2.184   7.821 -1.6785  1.2698 -1.5223
 5859TIP3    H239213   1.908   2.045   7.778  0.9979 -0.5973  1.4556
 5860TIP3   OH239214   4.993   1.193   0.113  0.5654 -0.2402  0.6031
 5860TIP3    H139215   5.021   1.282   0.092  0.0103 -0.6516 -2.2418
 5860TIP3    H239216   5.067   1.138   0.087 -0.5992 -0.8732 -1.5679
 5861TIP3   OH239217   4.778   4.948   2.233  0.4637  0.3147  0.1990
 5861TIP3    H139218   4.778   4.996   2.150  0.6444 -0.6692 -0.3854
 5861TIP3    H239219   4.826   5.005   2.293  1.4884  0.4631 -0.7229
 5862TIP3   OH239220   3.924   1.733   8.246 -0.1423 -0.0543  0.7332
 5862TIP3    H139221   3.949   1.641   8.259 -1.4579 -0.3996  0.9526
 5862TIP3    H239222   3.995   1.769   8.192  0.8980 -0.9238  1.4702
 5863TIP3   OH239223   5.156   4.209   0.674 -0.4095  0.0640 -0.5424
 5863TIP3    H139224   5.065   4.181   0.677 -0.2029 -0.6143 -0.4008
 5863TIP3    H239225   5.161   4.267   0.598 -0.3414 -2.1934 -2.3729
 5864TIP3   OH239226   2.774   1.792   1.633 -0.2155  0.2224 -0.2363
 5864TIP3    H139227   2.790   1.852   1.706  0.8026  0.7220 -0.8466
 5864TIP3    H239228   2.681   1.770   1.640 -0.0353 -0.1589  1.5112
 5865TIP3   OH239229   0.830   3.857   0.607  0.4178  0.4892  0.0501
 5865TIP3    H139230   0.855   3.935   0.656  0.6889 -0.0545  0.7983
 5865TIP3    H239231   0.908   3.801   0.609 -0.6337 -1.0491  2.0694
 5866TIP3   OH239232   0.937   0.786   2.407  0.0296  0.3435 -0.6053
 5866TIP3    H139233   0.925   0.850   2.337 -1.3275  0.1797 -0.5496
 5866TIP3    H239234   0.935   0.838   2.487  0.3079  0.3816 -0.6213
 5867TIP3   OH239235   0.600   2.901   0.227  0.3444  1.2008 -0.2322
 5867TIP3    H139236   0.610   2.995   0.240 -1.6042  1.1990  2.0747
 5867TIP3    H239237   0.634   2.862   0.307 -0.8836  0.1355 -0.1908
 5868TIP3   OH239238   5.710   2.506   7.809  0.1513 -0.5358  0.4281
 5868TIP3    H139239   5.625   2.505   7.765  0.1324  1.3361  0.3593
 5868TIP3    H239240   5.696   2.557   7.888  1.0041 -0.9747  0.8765
 5869TIP3   OH239241   3.424   0.041   1.810 -0.1038 -0.4104 -0.3637
 5869TIP3    H139242   3.362   0.110   1.830 -1.3301 -1.4037 -0.5855
 5869TIP3    H239243   3.426  -0.014   1.888 -1.2300 -1.6093 -1.1280
 5870TIP3   OH239244   0.415   6.642   0.697  0.0954 -0.2218 -0.1847
 5870TIP3    H139245   0.431   6.598   0.613 -0.2896 -0.6741 -0.0259
 5870TIP3    H239246   0.500   6.645   0.740 -0.0895 -2.0382  0.3866
 5871TIP3   OH239247   0.627   2.895   1.618 -0.8401  0.1131 -0.2684
 5871TIP3    H139248   0.695   2.933   1.672 -2.3092  0.4284  1.4690
 5871TIP3    H239249   0.555   2.958   1.621 -2.5090 -1.7022  0.8839
 5872TIP3   OH239250   4.658   3.858   8.656 -0.1869  0.3558 -0.0110
 5872TIP3    H139251   4.670   3.805   8.578 -3.1284  0.8258 -0.9019
 5872TIP3    H239252   4.608   3.802   8.715 -0.3826  0.9744  0.4196
 5873TIP3   OH239253   4.155   3.869   1.269 -0.3534  0.0187 -0.7324
 5873TIP3    H139254   4.139   3.784   1.227 -0.1223 -0.3075 -0.1591
 5873TIP3    H239255   4.163   3.850   1.362 -1.4492  0.8178 -0.4534
 5874TIP3   OH239256   4.327   2.286   7.253  0.2810 -0.0781  0.0673
 5874TIP3    H139257   4.379   2.319   7.180  0.8951  2.5984  1.5446
 5874TIP3    H239258   4.392   2.260   7.319 -0.2389  0.0904  0.6592
 5875TIP3   OH239259   4.640   3.928   1.234  0.2191 -0.4833  0.0212
 5875TIP3    H139260   4.665   4.020   1.241 -0.1150 -0.4057  0.2289
 5875TIP3    H239261   4.545   3.929   1.241  0.2054 -0.8323 -0.1234
 5876TIP3   OH239262   3.693   1.326   8.340 -0.5204  0.2401 -0.1147
 5876TIP3    H139263   3.736   1.384   8.279 -0.4556  0.4837  0.1592
 5876TIP3    H239264   3.737   1.342   8.424 -0.3905 -0.3211 -0.0706
 5877TIP3   OH239265   2.496   3.579   0.573 -0.0924  0.1449 -0.1061
 5877TIP3    H139266   2.558   3.506   0.573  0.3763  0.5365 -0.0798
 5877TIP3    H239267   2.412   3.540   0.597 -0.3620 -0.8231 -2.3419
 5878TIP3   OH239268   0.018   3.465   2.185 -0.0710  0.3437 -0.3587
 5878TIP3    H139269   0.025   3.380   2.142 -1.8704  1.1619 -2.4667
 5878TIP3    H239270  -0.071   3.469   2.218  0.1102  1.2769  0.0569
 5879TIP3   OH239271   4.611   3.116   0.283 -0.5899 -0.5251  0.0687
 5879TIP3    H139272   4.589   3.170   0.359 -0.7800  0.2414 -0.5131
 5879TIP3    H239273   4.602   3.175   0.208  3.2309 -0.1194 -0.3052
 5880TIP3   OH239274   3.174   2.892   1.388  0.6573 -0.0533  0.2570
 5880TIP3    H139275   3.188   2.804   1.354 -0.0374  0.1961 -0.7269
 5880TIP3    H239276   3.121   2.935   1.321 -1.3978  0.2564  1.9767
 5881TIP3   OH239277   3.453   4.224   2.142 -0.0726 -0.1811 -0.7123
 5881TIP3    H139278   3.466   4.143   2.092  2.2285 -0.5910  0.4010
 5881TIP3    H239279   3.434   4.291   2.076 -1.1626 -1.4287 -1.7276
 5882TIP3   OH239280   6.294   5.544   8.723  0.0396 -0.5050  0.3401
 5882TIP3    H139281   6.214   5.596   8.728 -0.4488 -1.3179  1.2015
 5882TIP3    H239282   6.319   5.549   8.631  1.1665  2.9106  0.6974
 5883TIP3   OH239283   1.835   6.235   1.086  0.0939 -0.7689 -0.4938
 5883TIP3    H139284   1.843   6.211   1.178  0.2583  0.8779 -0.0415
 5883TIP3    H239285   1.742   6.224   1.066 -0.4725  1.2963  0.6471
 5884TIP3   OH239286   6.065   1.300   0.217  0.3186 -0.1237 -0.3733
 5884TIP3    H139287   6.103   1.382   0.248 -0.3508  0.1584 -0.2936
 5884TIP3    H239288   5.995   1.326   0.158 -0.3560 -0.6279  0.1968
 5885TIP3   OH239289   3.209   1.217   7.656  0.2959 -0.5238 -0.4831
 5885TIP3    H139290   3.190   1.215   7.563 -0.3098 -0.1651 -0.3756
 5885TIP3    H239291   3.136   1.267   7.694 -0.9026 -2.8679  0.5144
 5886TIP3   OH239292   5.813   4.278   1.379  0.1303  0.5143  0.2778
 5886TIP3    H139293   5.887   4.238   1.425  1.0835  0.6599 -1.0531
 5886TIP3    H239294   5.759   4.204   1.351 -0.5694  0.4331  1.7411
 5887TIP3   OH239295   5.457   0.142   2.974  0.4219  0.0607  0.1014
 5887TIP3    H139296   5.441   0.216   2.915  1.0235 -1.5910 -2.2695
 5887TIP3    H239297   5.546   0.157   3.007  0.3330  0.6845  0.0671
 5888TIP3   OH239298   1.515   1.634   7.206 -0.4620 -0.6931  0.3964
 5888TIP3    H139299   1.550   1.560   7.256 -0.8500 -0.7531  0.5818
 5888TIP3    H239300   1.591   1.688   7.186 -0.4682  0.0269  2.2036
 5889TIP3   OH239301   4.824   2.586   0.224 -0.2412  0.2357  0.6628
 5889TIP3    H139302   4.793   2.596   0.135  0.2474  0.3948  0.5031
 5889TIP3    H239303   4.856   2.674   0.248 -3.8557  1.2565  2.3793
 5890TIP3   OH239304   0.223   2.879   8.461  0.0988 -0.5199 -0.5966
 5890TIP3    H139305   0.247   2.972   8.463 -0.4152 -0.3614  1.8798
 5890TIP3    H239306   0.135   2.877   8.500  0.2845 -2.0757 -0.1988
 5891TIP3   OH239307   6.731   5.696   2.412 -0.5564 -0.4771  0.5950
 5891TIP3    H139308   6.805   5.655   2.456  0.0598  0.6973  0.6680
 5891TIP3    H239309   6.682   5.739   2.481 -0.8138 -0.4834  0.4202
 5892TIP3   OH239310   2.049   4.212   2.223  0.1975  0.9766  0.0182
 5892TIP3    H139311   1.985   4.283   2.226  2.2310  2.9713 -0.7181
 5892TIP3    H239312   2.100   4.222   2.304  2.0445  1.9873 -1.1990
 5893TIP3   OH239313   2.478   1.741   1.142  0.0554  0.4431  0.3560
 5893TIP3    H139314   2.488   1.646   1.152  0.2015  0.3137 -0.8803
 5893TIP3    H239315   2.522   1.777   1.219  0.2176 -0.4748  0.7160
 5894TIP3   OH239316   3.054   3.586   0.401 -0.2058  0.3259 -0.0310
 5894TIP3    H139317   3.074   3.493   0.411 -0.2399  0.3639  0.3839
 5894TIP3    H239318   3.096   3.610   0.318 -1.2050 -0.3375 -0.7498
 5895TIP3   OH239319   6.516   1.419   8.152  0.1975  0.4711 -0.5164
 5895TIP3    H139320   6.508   1.327   8.179  0.1286  0.1745 -1.5141
 5895TIP3    H239321   6.433   1.458   8.179  0.5759  0.4593  0.7060
 5896TIP3   OH239322   4.319   4.382   7.535 -0.3471  0.2058  0.1755
 5896TIP3    H139323   4.357   4.314   7.480 -1.6034 -0.4264  0.0585
 5896TIP3    H239324   4.249   4.338   7.583  1.1242  0.5679  2.8321
 5897TIP3   OH239325   1.877   2.201   2.763 -0.2421 -0.0262 -0.0111
 5897TIP3    H139326   1.803   2.256   2.738 -0.5123 -0.3885 -0.0165
 5897TIP3    H239327   1.847   2.112   2.747  0.3961 -0.1532 -0.5655
 5898TIP3   OH239328   4.123   3.686   0.053 -0.3880 -0.6216  0.2717
 5898TIP3    H139329   4.189   3.617   0.057 -1.5716 -1.8234 -0.0005
 5898TIP3    H239330   4.054   3.656   0.112  0.1202  1.5572  2.0996
 5899TIP3   OH239331   2.098   2.985   0.222 -0.0665 -0.3108  0.0513
 5899TIP3    H139332   2.124   2.955   0.135  0.7185 -1.5193  0.6750
 5899TIP3    H239333   2.098   2.906   0.276 -2.3835  0.0912  0.7439
 5900TIP3   OH239334   0.396   6.292   0.844 -0.2275  0.0226  0.1753
 5900TIP3    H139335   0.433   6.290   0.756 -0.3647 -0.3495  0.1239
 5900TIP3    H239336   0.362   6.204   0.857 -0.2734  0.0989  0.5734
 5901TIP3   OH239337   4.380   1.168   3.053 -0.4475 -0.3648  0.1871
 5901TIP3    H139338   4.293   1.207   3.059 -0.3446 -0.3046  2.9200
 5901TIP3    H239339   4.410   1.164   3.144  2.0240 -1.2678 -0.5864
 5902TIP3   OH239340   4.386   5.084   8.609 -0.3536  0.0823  0.3360
 5902TIP3    H139341   4.441   5.076   8.531 -0.3208 -0.7510  0.4342
 5902TIP3    H239342   4.438   5.043   8.679 -0.1319  1.3291  0.9311
 5903TIP3   OH239343   3.511   1.183   2.997 -0.0565  0.1877 -0.2502
 5903TIP3    H139344   3.583   1.174   2.933 -2.1068 -2.0421 -2.4709
 5903TIP3    H239345   3.504   1.096   3.037 -0.6710  0.7633  0.9440
 5904TIP3   OH239346   3.579   6.149   0.499  0.2927  0.2972 -0.4312
 5904TIP3    H139347   3.603   6.120   0.587  1.8661  0.8497 -0.6431
 5904TIP3    H239348   3.503   6.095   0.476  2.2490 -2.8010 -0.2837
 5905TIP3   OH239349   0.321   0.835   8.157 -0.1747 -0.2222  0.4981
 5905TIP3    H139350   0.233   0.871   8.169 -0.4282 -0.0586 -1.6186
 5905TIP3    H239351   0.372   0.909   8.124  0.6703 -0.4471  1.2633
 5906TIP3   OH239352   1.861   0.546   1.810 -0.2086 -0.4226 -1.0705
 5906TIP3    H139353   1.773   0.573   1.838  0.2685  0.2880 -0.1972
 5906TIP3    H239354   1.915   0.558   1.888  1.1752  1.5638 -2.2416
 5907TIP3   OH239355   5.840   6.038   8.164 -0.2202  0.1715  0.0396
 5907TIP3    H139356   5.910   6.013   8.223 -1.2923  1.1571  1.8262
 5907TIP3    H239357   5.868   6.007   8.078  1.9916 -0.1657  0.8335
 5908TIP3   OH239358   5.115   2.294   2.492 -0.4588  0.3956 -0.5471
 5908TIP3    H139359   5.071   2.317   2.410 -1.0129  2.1637  0.2104
 5908TIP3    H239360   5.052   2.316   2.560  0.5820  0.3984  0.4410
 5909TIP3   OH239361   0.228   1.088   2.601  0.7596  0.2753 -0.4416
 5909TIP3    H139362   0.218   1.120   2.691 -0.8960  2.0831 -1.1821
 5909TIP3    H239363   0.158   1.023   2.591  0.9029  0.1210 -0.4445
 5910TIP3   OH239364   4.164   3.420   7.368  0.0557  0.1947  0.1500
 5910TIP3    H139365   4.102   3.379   7.308  2.3721 -1.9720 -0.9173
 5910TIP3    H239366   4.166   3.363   7.445  1.8354 -0.6766 -0.4987
 5911TIP3   OH239367   0.495   5.163   1.972  0.3247  0.3553  0.1604
 5911TIP3    H139368   0.569   5.104   1.986  1.2507  1.3336 -0.4291
 5911TIP3    H239369   0.468   5.146   1.882 -1.4919 -1.3928  0.9488
 5912TIP3   OH239370   4.241   2.938   8.688  0.1271 -0.3433  0.1277
 5912TIP3    H139371   4.284   3.022   8.672  0.0570 -0.1600  0.8695
 5912TIP3    H239372   4.280   2.878   8.624 -0.5367  0.4805 -1.0804
 5913TIP3   OH239373   4.264   4.888   7.828 -0.1364  0.2939 -0.7246
 5913TIP3    H139374   4.305   4.916   7.910  0.6747 -0.5442 -0.8295
 5913TIP3    H239375   4.171   4.880   7.850  0.2173 -1.0015  0.4475
 5914TIP3   OH239376   3.998   2.573   1.527  0.1743 -0.2572  0.5150
 5914TIP3    H139377   4.033   2.485   1.535  0.0290 -0.1957  2.5034
 5914TIP3    H239378   4.056   2.627   1.582  0.0988  0.8412 -0.4403
 5915TIP3   OH239379   5.263   6.065   1.809  0.2913  0.0536  0.8288
 5915TIP3    H139380   5.270   6.050   1.715  2.0447 -2.1142  1.2326
 5915TIP3    H239381   5.275   5.979   1.849 -0.2513  0.9397  3.0648
 5916TIP3   OH239382   1.355   5.778   8.677 -0.5065 -0.2325  0.0675
 5916TIP3    H139383   1.305   5.781   8.759 -0.4646  2.0345  0.0752
 5916TIP3    H239384   1.314   5.844   8.622 -0.2621 -1.4273 -1.6341
 5917TIP3   OH239385   1.442   1.462   1.336 -0.4914  0.5804  0.0009
 5917TIP3    H139386   1.388   1.498   1.407 -0.0574  3.4029 -0.9577
 5917TIP3    H239387   1.390   1.477   1.257  0.9829  2.0023 -0.7713
 5918TIP3   OH239388   0.241   6.714   1.892 -0.1938  0.5969  0.0572
 5918TIP3    H139389   0.321   6.710   1.840 -1.3916 -0.5013 -1.8271
 5918TIP3    H239390   0.193   6.788   1.857 -2.5052 -2.0404 -2.9199
 5919TIP3   OH239391   1.889   3.919   0.923  0.4975 -0.3705 -0.8565
 5919TIP3    H139392   1.839   3.998   0.943 -0.9017 -0.7612 -2.5621
 5919TIP3    H239393   1.837   3.847   0.959 -0.0467 -0.7531 -2.3403
 5920TIP3   OH239394   3.733   5.101   8.476 -0.2973 -0.3949 -0.2437
 5920TIP3    H139395   3.819   5.141   8.464  0.7149 -2.4818 -0.4226
 5920TIP3    H239396   3.674   5.175   8.490  1.8866  1.0368  2.2860
 5921TIP3   OH239397   2.412   2.679   0.860 -0.0730  0.1703 -0.2707
 5921TIP3    H139398   2.334   2.684   0.805 -1.8656 -2.6093  1.7279
 5921TIP3    H239399   2.381   2.704   0.947  1.6758  0.5351  0.2810
 5922TIP3   OH239400   3.174   4.296   7.044 -0.0557  0.3232  0.5602
 5922TIP3    H139401   3.167   4.260   7.132 -0.0659 -0.1668  0.3615
 5922TIP3    H239402   3.227   4.375   7.054  0.9301 -0.3595  0.8308
 5923TIP3   OH239403   3.621   5.989   7.592  0.9969  0.2050  0.4144
 5923TIP3    H139404   3.554   6.035   7.541 -0.2924 -0.4044  1.5155
 5923TIP3    H239405   3.698   6.046   7.588 -0.3460  2.1660  1.2105
 5924TIP3   OH239406   4.805   3.324   2.956 -0.0578 -0.1403 -0.1577
 5924TIP3    H139407   4.878   3.266   2.935  1.2816  1.1732  0.6826
 5924TIP3    H239408   4.766   3.286   3.035  0.1681 -0.4319 -0.1843
 5925TIP3   OH239409   0.074   4.456   0.079 -0.1119 -0.9666  0.1900
 5925TIP3    H139410   0.004   4.502   0.033  0.0953  1.9630  2.4880
 5925TIP3    H239411   0.030   4.407   0.148 -0.0249 -0.1655  0.8278
 5926TIP3   OH239412   1.389   1.218   2.520 -0.8148  0.6476  0.0831
 5926TIP3    H139413   1.449   1.289   2.493  2.5288 -1.5084  1.1853
 5926TIP3    H239414   1.398   1.214   2.615 -1.2246 -0.9935  0.0824
 5927TIP3   OH239415   3.253   0.430   2.200 -0.5268  0.0509 -1.2475
 5927TIP3    H139416   3.165   0.449   2.233  0.9138  1.4772  2.2181
 5927TIP3    H239417   3.273   0.502   2.140 -0.6620  1.3894  0.2706
 5928TIP3   OH239418   3.755   2.017   7.310  0.0677  0.3790 -0.1799
 5928TIP3    H139419   3.777   2.058   7.227 -2.3273 -1.8923 -2.1200
 5928TIP3    H239420   3.666   2.047   7.329 -0.9116 -2.0491 -0.5602
 5929TIP3   OH239421   6.734   4.591   7.458  0.1314 -0.1521 -0.0535
 5929TIP3    H139422   6.741   4.514   7.402 -0.2224  0.3865 -0.8558
 5929TIP3    H239423   6.712   4.557   7.545  0.6593 -0.9931 -0.2488
 5930TIP3   OH239424   6.734   5.683   6.992  0.1926  0.6788  0.0336
 5930TIP3    H139425   6.719   5.590   6.981 -2.0579  1.1466 -1.4090
 5930TIP3    H239426   6.747   5.717   6.904 -2.0699  2.1292  0.1538
 5931TIP3   OH239427   3.707   1.244   0.352 -0.1644  0.1253  0.0054
 5931TIP3    H139428   3.678   1.241   0.261 -3.3066  0.5405  0.8788
 5931TIP3    H239429   3.683   1.159   0.388  1.1316 -0.0706  0.4496
 5932TIP3   OH239430   1.487   6.589   7.178 -0.1679 -0.1224 -0.5951
 5932TIP3    H139431   1.425   6.655   7.147 -1.2410 -0.9287 -0.1771
 5932TIP3    H239432   1.500   6.610   7.271  0.4747  0.2579 -0.7623
 5933TIP3   OH239433   3.450   5.685   1.989  0.6112 -0.4820  0.0602
 5933TIP3    H139434   3.512   5.614   2.006  0.7093 -0.1895  1.0033
 5933TIP3    H239435   3.367   5.654   2.023 -0.1869 -1.5041 -2.5900
 5934TIP3   OH239436   4.067   3.658   6.969 -0.0092  0.4057 -0.7155
 5934TIP3    H139437   4.001   3.616   7.024 -1.6875  3.0720 -0.4788
 5934TIP3    H239438   4.031   3.654   6.880  1.3494 -1.3835 -1.2325
 5935TIP3   OH239439   5.697   5.432   1.971  0.0315  0.7476  0.0292
 5935TIP3    H139440   5.789   5.434   1.948  0.0421 -1.3710 -0.3307
 5935TIP3    H239441   5.673   5.339   1.968 -2.2059  1.2551 -0.2942
 5936TIP3   OH239442   5.361   0.370   8.517 -0.3083 -0.5501  0.0940
 5936TIP3    H139443   5.311   0.346   8.440  0.1217 -4.0756  0.7371
 5936TIP3    H239444   5.305   0.346   8.591  0.1983  0.5627  0.8701
 5937TIP3   OH239445   3.869   4.313   2.866 -0.3625  0.0831 -0.4064
 5937TIP3    H139446   3.903   4.377   2.929 -1.2571 -1.6726  1.9782
 5937TIP3    H239447   3.934   4.243   2.866 -0.8996 -0.4170 -0.6531
 5938TIP3   OH239448   2.465   0.053   1.664 -0.1146 -0.4721  0.4180
 5938TIP3    H139449   2.517  -0.011   1.616 -1.7450 -1.4838 -0.0962
 5938TIP3    H239450   2.486   0.038   1.756  0.8973 -0.4776  0.1872
 5939TIP3   OH239451   2.793   1.841   0.773  0.1518  0.3449 -0.4672
 5939TIP3    H139452   2.765   1.767   0.826 -0.2388  0.1778 -0.9028
 5939TIP3    H239453   2.839   1.801   0.699  1.3505  0.6002  0.1151
 5940TIP3   OH239454   5.675   6.005   2.261  0.0726 -0.0352 -0.7285
 5940TIP3    H139455   5.677   6.077   2.198 -0.3697  0.4516 -0.1860
 5940TIP3    H239456   5.680   5.926   2.206 -0.1953  0.3836 -1.3641
 5941TIP3   OH239457   4.656   1.139   8.042 -0.0813 -0.3094  0.2640
 5941TIP3    H139458   4.634   1.102   7.957 -1.7622 -0.2672  0.6496
 5941TIP3    H239459   4.576   1.183   8.071  0.7999  0.6394  1.3721
 5942TIP3   OH239460   3.248   1.364   0.021 -0.0764 -0.0680 -0.2700
 5942TIP3    H139461   3.154   1.359   0.002 -0.1945  1.0078 -0.0526
 5942TIP3    H239462   3.252   1.394   0.112  0.4712  0.7291 -0.5465
 5943TIP3   OH239463   4.704   1.608   8.580 -0.1548 -0.1506  0.8496
 5943TIP3    H139464   4.717   1.532   8.637 -0.4224  0.6974  2.0800
 5943TIP3    H239465   4.617   1.641   8.603  0.2510  0.9472  0.8539
 5944TIP3   OH239466   4.407   0.929   8.638  0.0464  0.6963 -0.2294
 5944TIP3    H139467   4.427   0.988   8.711  1.2466  0.2003 -0.1397
 5944TIP3    H239468   4.478   0.943   8.575  0.3388 -0.6105 -0.2216
 5945TIP3   OH239469   6.258   4.168   8.631 -0.0253 -0.6610  0.1853
 5945TIP3    H139470   6.225   4.252   8.599  0.0270 -0.7075  0.0141
 5945TIP3    H239471   6.301   4.128   8.556 -0.6919 -1.1690  0.0600
 5946TIP3   OH239472   4.791   6.715   0.232 -0.3521 -0.1701  0.5192
 5946TIP3    H139473   4.736   6.744   0.159 -0.4303 -0.6420  0.3856
 5946TIP3    H239474   4.783   6.619   0.231  0.4725 -0.2445  0.4954
 5947TIP3   OH239475   4.495   3.290   8.080 -0.0277 -0.1446 -0.3664
 5947TIP3    H139476   4.510   3.284   7.986  2.0158  0.0874 -0.0845
 5947TIP3    H239477   4.405   3.259   8.091 -0.9598  1.4362 -2.5781
 5948TIP3   OH239478   1.478   5.721   0.252  0.5409  0.3402  0.1645
 5948TIP3    H139479   1.556   5.747   0.302  1.8771  0.1157 -1.6909
 5948TIP3    H239480   1.461   5.631   0.281  1.7480 -0.0540 -0.2668
 5949TIP3   OH239481   3.483   2.631   0.455  0.5696 -0.4340 -0.6140
 5949TIP3    H139482   3.519   2.617   0.368  0.5704 -0.6714 -0.5782
 5949TIP3    H239483   3.464   2.542   0.487  1.5710 -0.4205  0.0512
 5950TIP3   OH239484   2.263   0.336   7.675  0.6594  0.0850 -0.6100
 5950TIP3    H139485   2.275   0.426   7.643 -0.1867  0.5627  0.3496
 5950TIP3    H239486   2.338   0.321   7.733  1.1653 -0.0853 -1.2988
 5951TIP3   OH239487   3.036   2.552   0.259 -0.0397 -0.0186 -0.2839
 5951TIP3    H139488   3.082   2.524   0.180 -2.0773 -2.4690 -0.7445
 5951TIP3    H239489   3.017   2.645   0.244  0.7350 -0.1059 -2.0676
 5952TIP3   OH239490   0.924   3.858   1.809 -0.8021  0.7570 -0.2119
 5952TIP3    H139491   1.007   3.896   1.783 -0.4658 -0.0470 -0.3545
 5952TIP3    H239492   0.932   3.765   1.786 -1.0818  0.3234  1.2946
 5953TIP3   OH239493   0.003   0.145   8.728  0.4048  0.0868 -0.1775
 5953TIP3    H139494  -0.046   0.211   8.779  0.2745 -1.2071  1.4577
 5953TIP3    H239495  -0.058   0.118   8.660 -0.2239  0.3306  0.2715
 5954TIP3   OH239496   1.299   2.683   1.891 -0.3582 -0.9108 -0.5015
 5954TIP3    H139497   1.367   2.744   1.919 -0.3783 -0.8345 -0.6190
 5954TIP3    H239498   1.303   2.685   1.795 -1.6218  0.3271 -0.5510
 5955TIP3   OH239499   3.376   4.375   1.935 -0.1515  0.2533  0.0779
 5955TIP3    H139500   3.377   4.466   1.903  0.5755  1.9726  4.3502
 5955TIP3    H239501   3.285   4.360   1.962 -0.0982  0.0126  0.1272
 5956TIP3   OH239502   5.283   0.941   1.105 -0.6551 -0.3810 -0.4163
 5956TIP3    H139503   5.228   0.941   1.183 -1.8801 -0.8759 -1.2476
 5956TIP3    H239504   5.319   1.029   1.101  0.0100 -0.5552  1.0858
 5957TIP3   OH239505   4.437   4.993   1.786  0.5739  0.2867 -0.5807
 5957TIP3    H139506   4.487   5.059   1.737 -0.6043  1.5933 -0.0942
 5957TIP3    H239507   4.378   5.044   1.840 -0.7535 -1.1994 -0.5668
 5958TIP3   OH239508   4.443   3.694   0.633  0.1667 -0.2433  0.1676
 5958TIP3    H139509   4.380   3.625   0.656  0.2363 -0.0766  0.8655
 5958TIP3    H239510   4.418   3.768   0.688  0.9587 -0.1630  0.4243
 5959TIP3   OH239511   0.463   5.599   7.977 -0.3710 -0.2422  1.0735
 5959TIP3    H139512   0.388   5.639   8.021  0.2192  0.0367  1.8500
 5959TIP3    H239513   0.474   5.515   8.021  0.3694  0.1402  1.6262
 5960TIP3   OH239514   1.869   3.768   0.260 -0.1623 -0.2638  0.0119
 5960TIP3    H139515   1.919   3.730   0.332 -0.1677  1.5612  1.0400
 5960TIP3    H239516   1.780   3.736   0.274 -0.0620 -0.3349  0.5398
 5961TIP3   OH239517   4.471   1.920   2.063 -0.1390 -0.4436 -0.1608
 5961TIP3    H139518   4.422   1.840   2.080 -0.1284 -0.4608 -0.2106
 5961TIP3    H239519   4.513   1.905   1.978 -2.2344  0.6020 -1.4819
 5962TIP3   OH239520   0.653   4.765   2.012  0.2834 -0.1382 -0.4142
 5962TIP3    H139521   0.739   4.725   2.002  1.2020  1.8490 -1.0793
 5962TIP3    H239522   0.591   4.694   1.994  1.7453 -1.7091  0.4369
 5963TIP3   OH239523   3.008   6.618   8.558  0.5897 -0.1548 -1.0392
 5963TIP3    H139524   2.937   6.632   8.494 -2.2009  0.6974  1.9641
 5963TIP3    H239525   3.047   6.704   8.569 -0.5905  0.2655  0.1060
 5964TIP3   OH239526   0.818   0.817   0.640  0.2576  0.0815  0.2045
 5964TIP3    H139527   0.778   0.792   0.557 -1.3792  0.5127  0.8181
 5964TIP3    H239528   0.912   0.816   0.623 -0.0613  1.5391 -2.0532
 5965TIP3   OH239529   4.029   3.392   1.101  0.2602  0.0636  0.5497
 5965TIP3    H139530   4.041   3.344   1.019 -1.3763  0.4709  0.0361
 5965TIP3    H239531   3.945   3.437   1.091 -0.1944 -0.2067  2.6150
 5966TIP3   OH239532   5.786   5.098   8.515  0.5221 -0.1770 -0.3518
 5966TIP3    H139533   5.753   5.180   8.476 -0.7911 -0.0673  0.8974
 5966TIP3    H239534   5.815   5.046   8.440  2.3520  1.8150 -1.1117
 5967TIP3   OH239535   0.673   2.340   8.416 -0.0459  0.2105 -0.1245
 5967TIP3    H139536   0.626   2.362   8.496  1.7392  0.6812  0.8246
 5967TIP3    H239537   0.629   2.391   8.348  0.8935  3.0021  1.2253
 5968TIP3   OH239538   6.667   0.611   7.793  0.3174  0.1457 -0.0783
 5968TIP3    H139539   6.755   0.615   7.831  0.2967 -2.4476  0.4346
 5968TIP3    H239540   6.636   0.522   7.814 -2.3042  0.8722 -0.5195
 5969TIP3   OH239541   2.847   3.038   1.501 -0.1750  0.3538  0.1585
 5969TIP3    H139542   2.774   2.988   1.540 -1.1300  1.2985 -0.3650
 5969TIP3    H239543   2.822   3.047   1.409  1.3063 -0.5152 -0.3701
 5970TIP3   OH239544   5.159   1.801   8.555 -0.0692  0.2084  0.4404
 5970TIP3    H139545   5.137   1.712   8.583 -0.6857  0.4745  0.8216
 5970TIP3    H239546   5.234   1.825   8.611  1.1508 -0.6408 -0.7559
 5971TIP3   OH239547   0.181   2.216   1.985  0.0902 -0.4175 -0.2567
 5971TIP3    H139548   0.189   2.308   1.961  1.3044 -0.3959  0.1655
 5971TIP3    H239549   0.088   2.204   2.002  0.2097  1.4091  2.2644
 5972TIP3   OH239550   1.335   1.099   7.798 -0.1823 -0.3708 -0.1980
 5972TIP3    H139551   1.308   1.188   7.772 -0.2019  0.2987  1.9432
 5972TIP3    H239552   1.431   1.102   7.797 -0.1826 -0.4771 -0.5985
 5973TIP3   OH239553   1.403   3.953   7.321 -0.0361  0.0759 -0.0479
 5973TIP3    H139554   1.372   3.877   7.371  0.3213 -0.6926 -0.9652
 5973TIP3    H239555   1.475   3.987   7.374 -0.3084 -0.1175  0.4588
 5974TIP3   OH239556   3.766   4.591   8.603 -0.6738  0.3687 -0.1863
 5974TIP3    H139557   3.775   4.516   8.544 -0.8249  0.3083 -0.1338
 5974TIP3    H239558   3.790   4.666   8.550  1.9458  0.0502  0.4438
 5975TIP3   OH239559   5.087   6.165   2.842  0.0491  0.2355 -0.3853
 5975TIP3    H139560   5.125   6.249   2.869  2.2080 -1.4273  2.1519
 5975TIP3    H239561   5.016   6.149   2.904 -2.2424  1.3496 -2.5529
 5976TIP3   OH239562   0.369   2.395   0.896  0.1808  0.0942 -0.0016
 5976TIP3    H139563   0.437   2.402   0.963  1.0646 -0.2792 -0.8399
 5976TIP3    H239564   0.387   2.312   0.851  0.3879  0.9291 -1.5314
 5977TIP3   OH239565   1.427   1.962   2.343 -0.3227  0.4116 -0.0954
 5977TIP3    H139566   1.409   1.896   2.410 -1.5982 -0.0984 -0.9190
 5977TIP3    H239567   1.480   1.916   2.278 -0.7190  0.3665 -0.3848
 5978TIP3   OH239568   1.577   3.894   8.139 -0.2619  0.1490 -0.1089
 5978TIP3    H139569   1.594   3.989   8.137 -1.9195  0.4518 -0.8867
 5978TIP3    H239570   1.593   3.870   8.231 -0.8168  1.3937  0.3469
 5979TIP3   OH239571   6.582   0.137   8.531 -0.2186 -0.2542  0.0867
 5979TIP3    H139572   6.601   0.230   8.514 -1.3688  0.1382  0.8150
 5979TIP3    H239573   6.489   0.128   8.512  0.0504 -1.4737 -0.7681
 5980TIP3   OH239574   2.122   5.788   8.579 -0.7743 -0.1145  1.0915
 5980TIP3    H139575   2.172   5.843   8.639 -2.1176  2.3926  0.1006
 5980TIP3    H239576   2.187   5.756   8.516 -0.1904  2.3290  0.3367
 5981TIP3   OH239577   4.804   5.286   1.172  0.0033 -0.3775  0.1362
 5981TIP3    H139578   4.846   5.239   1.099 -0.1736 -0.5855  0.1676
 5981TIP3    H239579   4.795   5.220   1.240  0.0706 -0.2081  0.3099
 5982TIP3   OH239580   0.603   0.759   7.112 -0.7044  0.7265  0.4529
 5982TIP3    H139581   0.556   0.804   7.042 -0.4245  0.4249  0.0704
 5982TIP3    H239582   0.619   0.826   7.178 -2.4658  0.6598  1.0037
 5983TIP3   OH239583   5.246   6.547   7.589  0.0608  1.0838  0.2870
 5983TIP3    H139584   5.316   6.545   7.523  0.3946  0.4878  0.6556
 5983TIP3    H239585   5.166   6.552   7.538  0.2535 -0.5479 -0.2195
 5984TIP3   OH239586   1.194   5.476   1.863 -0.1979  0.4707 -0.2115
 5984TIP3    H139587   1.109   5.447   1.895  0.0669  0.0143  0.0882
 5984TIP3    H239588   1.180   5.494   1.770 -1.0232  2.0157  0.1797
 5985TIP3   OH239589   1.760   2.284   0.407 -0.1481  0.1595  0.2545
 5985TIP3    H139590   1.699   2.214   0.427  0.1028  0.0472  0.6231
 5985TIP3    H239591   1.845   2.251   0.435  0.1973  0.0400 -0.8837
 5986TIP3   OH239592   2.735   4.156   0.047  0.3724  0.2492  0.1557
 5986TIP3    H139593   2.716   4.197   0.131  1.4663  0.7108  0.1965
 5986TIP3    H239594   2.734   4.062   0.065  0.4926  0.3417  0.6569
 5987TIP3   OH239595   0.979   2.783   2.317  0.7009 -0.0425 -0.2529
 5987TIP3    H139596   0.907   2.733   2.280  0.3699  1.6188 -1.9954
 5987TIP3    H239597   0.948   2.808   2.405 -1.9708  2.5730 -1.7317
 5988TIP3   OH239598   3.261   6.455   7.040  0.3092 -0.3558  0.0981
 5988TIP3    H139599   3.310   6.411   6.971 -1.8280  0.9268 -2.4483
 5988TIP3    H239600   3.189   6.394   7.060 -0.2107  0.1122 -0.3089
 5989TIP3   OH239601   4.653   2.348   1.285 -0.0658  0.3542 -0.2025
 5989TIP3    H139602   4.649   2.266   1.235 -1.2441  0.6766 -0.6667
 5989TIP3    H239603   4.587   2.337   1.353 -0.9168  1.2768 -0.8503
 5990TIP3   OH239604   3.174   2.144   7.934  0.2765  0.0908  0.1342
 5990TIP3    H139605   3.254   2.192   7.914  0.3283  0.2564  0.7116
 5990TIP3    H239606   3.104   2.198   7.900  0.4014 -0.0309 -0.3312
 5991TIP3   OH239607   3.562   3.246   0.020  0.0835 -0.3685  0.1341
 5991TIP3    H139608   3.583   3.175  -0.041  0.8478  0.1223 -0.1893
 5991TIP3    H239609   3.521   3.314  -0.035 -1.2593 -0.8066  0.5505
 5992TIP3   OH239610   0.031   2.126   1.471 -0.9274 -0.0859  0.0798
 5992TIP3    H139611   0.038   2.196   1.405 -0.6656  1.1731  1.3843
 5992TIP3    H239612   0.104   2.067   1.450 -1.6348 -0.4435 -1.5396
 5993TIP3   OH239613   4.393   2.237   0.308 -0.0582  0.6431  0.5350
 5993TIP3    H139614   4.432   2.298   0.245  0.1450 -0.9125 -0.9146
 5993TIP3    H239615   4.453   2.162   0.308 -0.8666 -0.0185  1.4393
 5994TIP3   OH239616   3.418   0.531   0.443  0.4936  0.0811 -0.1010
 5994TIP3    H139617   3.375   0.528   0.358  0.6280  0.4869 -0.1834
 5994TIP3    H239618   3.431   0.439   0.467 -0.9157 -0.0707  0.1703
 5995TIP3   OH239619   5.032   6.775   8.856  0.0876  0.1277  0.2134
 5995TIP3    H139620   5.047   6.772   8.950 -0.7982 -1.0390  0.3390
 5995TIP3    H239621   5.118   6.757   8.817  0.3971  0.3439  0.7850
 5996TIP3   OH239622   4.260   4.650   1.002  0.0521  0.1543 -0.5600
 5996TIP3    H139623   4.298   4.732   0.969  1.2560 -0.4802 -0.7599
 5996TIP3    H239624   4.334   4.595   1.024 -0.6841 -1.6505 -2.2480
 5997TIP3   OH239625   1.792   2.874   0.288 -0.2615 -0.2449 -0.1769
 5997TIP3    H139626   1.872   2.866   0.341  0.0097 -0.4348 -0.6005
 5997TIP3    H239627   1.765   2.783   0.272 -3.1050 -0.3231  3.6186
 5998TIP3   OH239628   5.057   4.932   0.226  0.0240 -0.0070  0.1283
 5998TIP3    H139629   4.979   4.903   0.273  0.5729 -0.0644  1.0235
 5998TIP3    H239630   5.077   4.860   0.166 -0.4396 -0.1073  0.0893
 5999TIP3   OH239631   3.446   6.309   2.378 -0.3562  0.1922  0.4722
 5999TIP3    H139632   3.368   6.289   2.430 -0.0066 -0.3190  0.7956
 5999TIP3    H239633   3.451   6.239   2.314  0.0983 -0.0260  0.7439
 6000TIP3   OH239634   0.836   5.537   0.028 -0.7979 -0.0932 -0.4460
 6000TIP3    H139635   0.818   5.582  -0.055  2.0269 -0.5136 -1.3780
 6000TIP3    H239636   0.925   5.562   0.050 -0.7822 -1.6109  1.4326
 6001TIP3   OH239637   0.324   1.851   1.898 -0.2169 -0.3409  0.1912
 6001TIP3    H139638   0.337   1.790   1.826 -2.6953 -0.5770 -0.1669
 6001TIP3    H239639   0.343   1.800   1.977  1.0410 -0.5249 -0.2099
 6002TIP3   OH239640   2.237   2.033   8.027  0.4595 -0.1230  0.1015
 6002TIP3    H139641   2.214   2.006   8.116  0.1673 -0.8283 -0.1857
 6002TIP3    H239642   2.204   1.963   7.971  0.9723  0.1375 -0.5380
 6003TIP3   OH239643   6.291   4.514   0.884  0.1317 -0.0990  0.2025
 6003TIP3    H139644   6.358   4.448   0.864  0.4884  0.2182  0.3244
 6003TIP3    H239645   6.209   4.465   0.890  0.5800 -0.7291  1.6094
 6004TIP3   OH239646   0.928   2.764   0.995  0.2805  0.0048  0.3342
 6004TIP3    H139647   0.934   2.746   1.089 -1.7388 -2.9478  0.0386
 6004TIP3    H239648   0.907   2.679   0.956 -0.4761  1.4324 -2.6139
 6005TIP3   OH239649   1.287   6.230   7.763 -0.3193 -0.1697  0.0107
 6005TIP3    H139650   1.206   6.282   7.771 -0.4318 -0.0439 -1.6807
 6005TIP3    H239651   1.256   6.141   7.743 -0.0410  0.0330 -1.3774
 6006TIP3   OH239652   3.562   1.466   1.690 -0.0094 -0.0195  0.6655
 6006TIP3    H139653   3.621   1.409   1.738  0.0422  0.4153  1.1336
 6006TIP3    H239654   3.555   1.428   1.603 -0.0490 -0.7852  1.0009
 6007TIP3   OH239655   4.393   3.489   7.578 -0.4130 -0.4721 -0.4405
 6007TIP3    H139656   4.403   3.422   7.645  0.2645 -0.1275 -0.1843
 6007TIP3    H239657   4.366   3.441   7.500 -2.1627 -0.7709  0.2977
 6008TIP3   OH239658   2.757   0.829   7.251 -0.4893 -0.7269  0.2705
 6008TIP3    H139659   2.824   0.801   7.313  1.5782  1.0029 -1.0323
 6008TIP3    H239660   2.769   0.772   7.175 -1.3414 -1.1923  0.4682
 6009TIP3   OH239661   4.723   5.029   0.645  0.0373  0.2528  0.9925
 6009TIP3    H139662   4.686   5.117   0.633  0.2549  0.4769  1.8406
 6009TIP3    H239663   4.808   5.032   0.600 -0.2953  0.2231  0.3531
 6010TIP3   OH239664   1.787   2.897   1.784 -0.0048 -0.7020 -0.3759
 6010TIP3    H139665   1.714   2.914   1.843 -0.0445  0.3121 -0.7102
 6010TIP3    H239666   1.765   2.814   1.742 -1.4535  0.0861 -1.2277
 6011TIP3   OH239667   5.032   3.048   7.136 -0.0462 -0.4955  0.3201
 6011TIP3    H139668   4.990   3.008   7.061 -0.0906  1.2968 -0.6556
 6011TIP3    H239669   5.117   3.078   7.103 -1.2511  3.0698  0.0246
 6012TIP3   OH239670   1.927   3.997   7.626 -0.0602  0.1466 -0.3212
 6012TIP3    H139671   1.886   3.985   7.541  0.7597 -1.0791 -0.5822
 6012TIP3    H239672   2.014   4.031   7.606  0.2509 -0.4422 -0.0077
 6013TIP3   OH239673   0.665   1.394   1.338  0.3511 -0.0968  0.8598
 6013TIP3    H139674   0.631   1.483   1.326 -1.0400 -0.7118 -0.1216
 6013TIP3    H239675   0.757   1.400   1.312 -0.2859  0.5957 -1.5318
 6014TIP3   OH239676   6.293   5.915   0.033  0.0506  0.4756  0.0547
 6014TIP3    H139677   6.256   5.971  -0.035  0.3226 -0.5815 -1.0081
 6014TIP3    H239678   6.357   5.861  -0.013 -0.7265 -1.2194  0.8759
 6015TIP3   OH239679   0.078   2.302   2.326 -0.3371  0.3681  0.0286
 6015TIP3    H139680   0.067   2.369   2.259 -0.8034  1.6521  1.3282
 6015TIP3    H239681   0.171   2.278   2.321 -0.3353  0.5393 -0.9525
 6016TIP3   OH239682   6.544   6.643   7.778  0.3707  0.6584  0.3012
 6016TIP3    H139683   6.577   6.671   7.693  1.3646  0.6605  0.6745
 6016TIP3    H239684   6.449   6.651   7.770  0.3810 -0.2155 -1.1133
 6017TIP3   OH239685   3.512   2.400   6.872  0.0235 -0.4393 -0.0301
 6017TIP3    H139686   3.441   2.452   6.911  0.3456  0.9415 -1.2127
 6017TIP3    H239687   3.523   2.326   6.932  0.0493  1.2406  2.1504
 6018TIP3   OH239688   0.905   0.388   7.342 -0.2398 -0.2343  0.2714
 6018TIP3    H139689   0.852   0.313   7.368 -0.2574  0.5047  2.5435
 6018TIP3    H239690   0.841   0.454   7.314 -0.3079 -0.4494 -0.0988
 6019TIP3   OH239691   3.069   6.750   6.911 -0.2383 -0.2810 -0.4962
 6019TIP3    H139692   3.067   6.845   6.902  0.8544 -0.3303 -1.4982
 6019TIP3    H239693   2.977   6.724   6.912 -0.5567  0.8080  0.1817
 6020TIP3   OH239694   2.010   4.171   7.856 -0.3230  0.3391 -0.3310
 6020TIP3    H139695   1.929   4.172   7.806  0.0092  2.0747 -0.8906
 6020TIP3    H239696   2.061   4.099   7.818 -0.1057  1.5800 -2.5078
 6021TIP3   OH239697   0.052   0.093   8.033  0.3896 -0.3464 -0.6573
 6021TIP3    H139698  -0.031   0.119   8.071  1.0243  0.0738  0.4944
 6021TIP3    H239699   0.047   0.121   7.941  0.3273  2.2311  0.0721
 6022TIP3   OH239700   5.042   0.668   8.640  0.1774 -0.1010 -0.4385
 6022TIP3    H139701   5.078   0.627   8.561  0.9347  0.5886 -0.4664
 6022TIP3    H239702   5.107   0.734   8.664 -0.0859 -0.2415  0.7144
 6023TIP3   OH239703   0.638   5.598   1.353 -0.2280  0.2382  0.0624
 6023TIP3    H139704   0.587   5.615   1.274 -0.3037 -1.0212 -0.1766
 6023TIP3    H239705   0.586   5.635   1.424  0.3991  2.4617 -0.5514
 6024TIP3   OH239706   0.788   4.724   8.646 -0.7732  0.0304  0.3680
 6024TIP3    H139707   0.879   4.702   8.623 -0.5024  1.4750 -0.0721
 6024TIP3    H239708   0.761   4.655   8.706  0.8930 -0.0016  1.1502
 6025TIP3   OH239709   5.974   5.397   0.200  0.1227 -0.6923  0.0295
 6025TIP3    H139710   6.008   5.377   0.113  2.1135 -1.2561  0.8805
 6025TIP3    H239711   5.989   5.317   0.251 -0.6199 -0.2370  0.9996
 6026TIP3   OH239712   3.529   0.742   7.498  0.3869  0.3826  0.4040
 6026TIP3    H139713   3.575   0.744   7.414  1.0243 -0.4228  0.7205
 6026TIP3    H239714   3.441   0.774   7.478  0.7937  1.0494 -0.3933
 6027TIP3   OH239715   2.173   6.452   7.696  0.2125 -0.4956  0.4528
 6027TIP3    H139716   2.182   6.482   7.786  0.2615  2.2890 -0.4002
 6027TIP3    H239717   2.130   6.524   7.650  2.7701 -0.5419 -2.3585
 6028TIP3   OH239718   3.959   4.938   0.796  0.3575  0.5893 -0.3701
 6028TIP3    H139719   3.988   4.989   0.871  0.5573  0.6357 -0.4788
 6028TIP3    H239720   3.952   4.848   0.829 -0.3020  0.7348 -0.0948
 6029TIP3   OH239721   2.923   5.182   2.323  0.1575 -0.1570 -0.2574
 6029TIP3    H139722   2.923   5.124   2.247 -2.3472 -0.2016 -0.3006
 6029TIP3    H239723   2.873   5.136   2.389  0.9655  0.5625  0.8951
 6030TIP3   OH239724   2.734   4.607   0.695  0.0198 -0.1740 -0.3985
 6030TIP3    H139725   2.708   4.515   0.696  1.0972 -0.5096 -1.2049
 6030TIP3    H239726   2.827   4.606   0.671  0.6658  1.0052  1.7499
 6031TIP3   OH239727   1.953   3.650   8.147 -0.2452 -0.1628  0.2614
 6031TIP3    H139728   1.930   3.742   8.139 -0.6228 -0.1874  0.9608
 6031TIP3    H239729   1.910   3.621   8.228  1.4853 -0.4485  1.1309
 6032TIP3   OH239730   4.151   1.015   2.289  0.3338 -0.1349  0.2169
 6032TIP3    H139731   4.101   0.939   2.322  0.5879  0.0690  1.1136
 6032TIP3    H239732   4.183   1.057   2.369 -0.5171  1.4125 -0.2215
 6033TIP3   OH239733   3.081   4.219   1.174 -0.3378 -0.2677  0.3289
 6033TIP3    H139734   3.014   4.155   1.199 -0.9223  0.4311  0.5920
 6033TIP3    H239735   3.157   4.166   1.151 -1.0882 -1.1028 -0.3184
 6034TIP3   OH239736   3.044   4.019   7.784  0.1084  0.1490  0.1785
 6034TIP3    H139737   2.982   4.036   7.855  0.4572 -0.4286  0.6276
 6034TIP3    H239738   3.023   3.930   7.755  1.7470 -0.7179  1.4259
 6035TIP3   OH239739   3.173   2.578   1.405 -0.3116  0.3926  0.0190
 6035TIP3    H139740   3.256   2.547   1.440 -0.6701 -1.1165 -0.3992
 6035TIP3    H239741   3.181   2.565   1.310 -1.0745  0.1002 -0.0088
 6036TIP3   OH239742   1.091   0.604   0.187 -0.4863  0.1843  0.3036
 6036TIP3    H139743   1.052   0.603   0.274 -1.3866  1.9661 -0.0233
 6036TIP3    H239744   1.017   0.588   0.128  0.1301 -1.1177 -0.1415
 6037TIP3   OH239745   6.638   3.530   0.917 -0.0081 -0.6615 -0.2136
 6037TIP3    H139746   6.715   3.583   0.897  1.0568 -2.2497 -0.5584
 6037TIP3    H239747   6.654   3.498   1.006 -0.0029 -1.4357 -0.4900
 6038TIP3   OH239748   3.646   6.044   1.550 -0.1914  0.4997  0.4019
 6038TIP3    H139749   3.560   6.002   1.557  0.6256 -1.2288  0.6240
 6038TIP3    H239750   3.679   6.016   1.464  0.6635  0.0964  0.8502
 6039TIP3   OH239751   0.013   4.102   1.879  0.5562  0.1899  0.3583
 6039TIP3    H139752   0.039   4.192   1.899 -2.2418  1.4936 -1.3133
 6039TIP3    H239753   0.065   4.079   1.802 -1.0750  1.7610 -1.3241
 6040TIP3   OH239754   5.519   4.905   0.298 -0.0761  0.0626  0.1659
 6040TIP3    H139755   5.530   4.914   0.204 -0.3881  0.2137  0.1428
 6040TIP3    H239756   5.584   4.839   0.324  0.8830  0.9214  0.0417
 6041TIP3   OH239757   2.854   6.321   1.391  0.0327  0.7385  0.1050
 6041TIP3    H139758   2.811   6.270   1.323 -1.0171 -0.0941  1.3450
 6041TIP3    H239759   2.887   6.399   1.346  0.2869 -0.2874 -1.5278
 6042TIP3   OH239760   4.135   0.826   1.365  0.2656 -0.1499 -0.2483
 6042TIP3    H139761   4.163   0.821   1.273 -1.0187  0.6963 -0.7060
 6042TIP3    H239762   4.083   0.747   1.378 -0.3475  0.2033 -0.5339
 6043TIP3   OH239763   5.830   0.379   7.030  0.3394  0.1753  0.2079
 6043TIP3    H139764   5.735   0.383   7.046  0.1829 -1.6097 -0.0740
 6043TIP3    H239765   5.869   0.418   7.109 -0.6091  1.3561  0.1287
 6044TIP3   OH239766   2.130   1.123   0.370 -0.0665  0.2264  0.0547
 6044TIP3    H139767   2.095   1.076   0.445 -0.5556 -0.0900 -0.3584
 6044TIP3    H239768   2.079   1.089   0.295  1.0430 -0.1657 -0.5518
 6045TIP3   OH239769   2.940   0.960   2.371 -0.7041  0.0680  0.1431
 6045TIP3    H139770   2.906   1.035   2.419 -0.1052 -0.5718  1.6462
 6045TIP3    H239771   2.905   0.884   2.416  1.2355 -0.5833  0.6707
 6046TIP3   OH239772   6.527   4.334   1.157  0.1937 -0.7390 -0.9494
 6046TIP3    H139773   6.467   4.405   1.135 -0.8248 -1.2398  0.1133
 6046TIP3    H239774   6.522   4.274   1.083  0.5537 -0.0416 -1.5506
 6047TIP3   OH239775   6.302   3.025   1.896  0.5147  0.6268  0.1854
 6047TIP3    H139776   6.246   3.068   1.832  0.3186  0.0453 -0.0314
 6047TIP3    H239777   6.376   3.085   1.906  0.6524  0.6225 -0.7410
 6048TIP3   OH239778   2.869   6.656   7.274  0.3069  0.7869  0.1909
 6048TIP3    H139779   2.809   6.723   7.241  0.6146  0.6432 -0.6986
 6048TIP3    H239780   2.856   6.656   7.369  0.6016  2.4030  0.2602
 6049TIP3   OH239781   2.582   3.659   7.880  0.0258 -1.1888  0.0524
 6049TIP3    H139782   2.625   3.685   7.799 -0.6312  1.7580  0.5421
 6049TIP3    H239783   2.637   3.697   7.949 -0.4730 -2.0087  0.9291
 6050TIP3   OH239784   3.776   5.230   8.191  0.1576 -0.2568 -0.1070
 6050TIP3    H139785   3.817   5.157   8.238 -2.2226 -2.4442 -1.1602
 6050TIP3    H239786   3.716   5.270   8.255  1.5807  0.9684  0.5195
 6051TIP3   OH239787   3.492   0.572   0.750  0.1785 -0.7033 -0.4032
 6051TIP3    H139788   3.407   0.605   0.778  0.4832 -0.5312  0.3634
 6051TIP3    H239789   3.490   0.577   0.654 -1.1175 -1.8519 -0.4681
 6052TIP3   OH239790   0.831   2.273   2.380  0.7178  0.5729  0.2423
 6052TIP3    H139791   0.901   2.221   2.421  0.6422  0.9363  0.8384
 6052TIP3    H239792   0.863   2.290   2.291  0.5553 -0.8579 -0.1184
 6053TIP3   OH239793   2.701   4.374   7.884 -0.2900 -0.2347 -0.1337
 6053TIP3    H139794   2.732   4.451   7.836 -0.3862  0.5138  0.9677
 6053TIP3    H239795   2.768   4.359   7.951 -2.3787  1.7105  2.6113
 6054TIP3   OH239796   6.751   1.238   2.438  0.1144 -0.2692 -0.6362
 6054TIP3    H139797   6.755   1.159   2.492  0.3701 -0.2310 -0.5965
 6054TIP3    H239798   6.684   1.292   2.479  0.4779 -0.1370 -0.2121
 6055TIP3   OH239799   4.922   4.607   2.909  0.3702 -0.0529  0.3955
 6055TIP3    H139800   4.837   4.564   2.903  0.2169  0.2726  0.1675
 6055TIP3    H239801   4.985   4.538   2.894  0.1155 -0.1136 -0.4793
 6056TIP3   OH239802   3.236   1.954   1.517 -0.4054 -0.4046  0.2305
 6056TIP3    H139803   3.195   1.890   1.459  2.5264 -0.7997 -1.5813
 6056TIP3    H239804   3.227   2.037   1.471 -1.4051  0.0043  1.0991
 6057TIP3   OH239805   3.384   0.503   1.379 -0.4822 -1.0331  0.1779
 6057TIP3    H139806   3.387   0.476   1.470  2.1445  0.6779  0.6992
 6057TIP3    H239807   3.406   0.424   1.329  0.0391 -1.5142  1.1458
 6058TIP3   OH239808   2.486   2.808   8.457 -0.2785  0.0624 -0.0347
 6058TIP3    H139809   2.440   2.745   8.401  2.0041 -1.6211 -0.1532
 6058TIP3    H239810   2.500   2.884   8.401 -1.0819 -0.2029 -0.6225
 6059TIP3   OH239811   6.654   2.575   8.486 -0.2295  0.4013  0.0546
 6059TIP3    H139812   6.585   2.641   8.476  1.1849  1.9464  0.0533
 6059TIP3    H239813   6.608   2.496   8.515 -2.0553  1.2111 -0.5188
 6060TIP3   OH239814   6.819   2.307   8.110 -0.0969 -0.3608 -0.3335
 6060TIP3    H139815   6.900   2.356   8.125 -0.7023  0.5421  0.1199
 6060TIP3    H239816   6.827   2.272   8.022  0.8501 -0.4116 -0.2332
 6061TIP3   OH239817   0.523   4.334   7.875 -0.1730  0.5045 -0.0591
 6061TIP3    H139818   0.435   4.314   7.845 -0.4827  0.3603  0.9121
 6061TIP3    H239819   0.581   4.298   7.807 -0.7886 -1.3897  0.3832
 6062TIP3   OH239820   6.665   4.181   0.926  0.4201  0.6328 -0.0049
 6062TIP3    H139821   6.751   4.193   0.967  0.5852  1.1734 -0.5055
 6062TIP3    H239822   6.678   4.112   0.861 -0.0488 -0.8824  1.4308
 6063TIP3   OH239823   0.781   2.052   1.938 -0.6777  0.0834  0.0542
 6063TIP3    H139824   0.704   2.084   1.891  0.1372  2.2777  0.1266
 6063TIP3    H239825   0.848   2.043   1.871 -0.7879 -1.2181  0.0977
 6064TIP3   OH239826   3.334   6.727   7.004  0.2750  0.9292  0.0495
 6064TIP3    H139827   3.298   6.638   7.005  0.0812  0.9688 -1.2409
 6064TIP3    H239828   3.291   6.771   7.077 -1.6883  0.7380 -0.9284
 6065TIP3   OH239829   4.547   5.941   0.929 -0.0013  0.1362  0.0807
 6065TIP3    H139830   4.616   5.881   0.903  1.3078  1.3233  0.7021
 6065TIP3    H239831   4.476   5.884   0.959 -0.3411 -1.1886 -2.8842
 6066TIP3   OH239832   0.064   1.809   3.125 -0.1001 -0.8726 -0.7277
 6066TIP3    H139833   0.004   1.753   3.077 -2.3880  0.3203  0.5438
 6066TIP3    H239834   0.035   1.804   3.216  1.8346 -0.3084 -0.0118
 6067TIP3   OH239835   3.209   1.708   2.229  0.1593 -0.0614 -0.4976
 6067TIP3    H139836   3.157   1.788   2.233 -2.2964 -1.5969  1.5380
 6067TIP3    H239837   3.190   1.671   2.143 -0.0653  0.6636 -0.7696
 6068TIP3   OH239838   1.225   1.234   1.660 -0.5492 -0.4164  0.6630
 6068TIP3    H139839   1.150   1.255   1.716 -1.5455  0.4398 -0.9103
 6068TIP3    H239840   1.197   1.157   1.610 -0.2155 -0.3448  0.3623
 6069TIP3   OH239841   5.230   6.664   1.830 -0.3725 -0.0296 -0.0898
 6069TIP3    H139842   5.147   6.619   1.847  0.8328 -2.3565  0.0663
 6069TIP3    H239843   5.235   6.668   1.735 -1.2649  1.3913 -0.1024
 6070TIP3   OH239844   2.094   5.726   8.206 -0.2829  0.0601 -0.2214
 6070TIP3    H139845   2.108   5.634   8.229  0.7156  0.3947  0.5600
 6070TIP3    H239846   2.030   5.756   8.270  2.1087  0.8498  1.9397
 6071TIP3   OH239847   5.137   5.530   0.206  0.2733 -0.0736  0.2859
 6071TIP3    H139848   5.107   5.439   0.195 -0.4446  0.0786  0.8775
 6071TIP3    H239849   5.074   5.583   0.158 -0.0665  0.2018  1.0116
 6072TIP3   OH239850   4.781   1.854   7.583 -0.2870 -0.1669 -0.0796
 6072TIP3    H139851   4.802   1.831   7.493  0.9949  1.6313 -0.2872
 6072TIP3    H239852   4.686   1.855   7.586 -0.3538  0.4314 -1.6107
 6073TIP3   OH239853   1.668   3.544   7.858  0.3334  0.0815  0.5571
 6073TIP3    H139854   1.592   3.601   7.855  1.5371  1.7528 -0.0059
 6073TIP3    H239855   1.741   3.602   7.879  1.3223 -1.6469  2.2088
 6074TIP3   OH239856   4.002   6.163   0.022  0.2743  0.2706  0.1314
 6074TIP3    H139857   4.043   6.225   0.082  0.5779  1.3276 -1.1118
 6074TIP3    H239858   3.927   6.129   0.069  2.1387 -1.2141  2.2439
 6075TIP3   OH239859   5.722   3.498   1.018 -0.7334  0.0622  0.7557
 6075TIP3    H139860   5.791   3.437   1.045 -0.8315 -0.0671  0.7134
 6075TIP3    H239861   5.650   3.481   1.078 -0.8585 -0.0465  0.5740
 6076TIP3   OH239862   5.084   0.651   0.272  0.4018  0.5474  0.4109
 6076TIP3    H139863   5.166   0.626   0.313  0.7533 -0.3933 -0.8152
 6076TIP3    H239864   5.106   0.725   0.215  1.0073 -1.3188 -1.9271
 6077TIP3   OH239865   6.139   3.830   8.522 -0.4040  0.3039 -0.1429
 6077TIP3    H139866   6.095   3.905   8.563  0.7319  0.6650  0.4533
 6077TIP3    H239867   6.201   3.800   8.588  0.8521  0.3442 -1.2686
 6078TIP3   OH239868   4.390   0.910   1.473  1.1987 -0.7434 -0.5026
 6078TIP3    H139869   4.307   0.892   1.429  1.2090 -0.2975 -0.7061
 6078TIP3    H239870   4.409   0.830   1.521 -1.1530  0.2828  2.4570
 6079TIP3   OH239871   3.020   0.032   7.734  0.1042 -0.5122 -0.1516
 6079TIP3    H139872   3.016   0.074   7.820  1.5425  0.1960 -0.4011
 6079TIP3    H239873   3.087  -0.035   7.743  1.5857  0.7479 -1.1583
 6080TIP3   OH239874   0.100   6.275   1.765  0.1516  0.2046 -0.6713
 6080TIP3    H139875   0.117   6.198   1.819 -1.1359 -0.0772 -0.6374
 6080TIP3    H239876   0.092   6.240   1.676  1.0125  0.4995 -0.8694
 6081TIP3   OH239877   0.754   5.630   8.472  0.0896 -0.3576  0.0798
 6081TIP3    H139878   0.749   5.651   8.379 -0.5490  0.8804  0.3728
 6081TIP3    H239879   0.820   5.561   8.478 -0.5184 -1.1138 -1.3894
 6082TIP3   OH239880   5.372   3.012   0.541  0.4978  0.1206  0.2432
 6082TIP3    H139881   5.393   2.972   0.457 -1.5630  0.6722 -0.5862
 6082TIP3    H239882   5.303   2.957   0.578 -0.0792  1.0616  0.5971
 6083TIP3   OH239883   5.349   0.184   7.225  0.1690  0.0790 -0.0358
 6083TIP3    H139884   5.274   0.130   7.249  0.8648 -0.6706  0.5249
 6083TIP3    H239885   5.405   0.184   7.303  0.1109  1.7713  0.0445
 6084TIP3   OH239886   3.257   6.188   8.479  0.1193  0.1409 -0.1779
 6084TIP3    H139887   3.250   6.269   8.429  0.3857  0.4792  0.3247
 6084TIP3    H239888   3.191   6.130   8.440  0.7425  0.1719 -1.3343
 6085TIP3   OH239889   5.668   2.600   1.101  0.1866  0.4527 -0.3061
 6085TIP3    H139890   5.673   2.514   1.060  0.0615 -0.2306  1.0330
 6085TIP3    H239891   5.575   2.612   1.122  0.1747  1.0035 -0.6515
 6086TIP3   OH239892   5.026   3.312   8.768  0.5300 -0.1348  0.2677
 6086TIP3    H139893   5.099   3.372   8.753  0.4071 -0.3059 -1.1415
 6086TIP3    H239894   5.059   3.226   8.742 -0.0407 -0.2720 -0.0421
 6087TIP3   OH239895   3.520   6.311   0.169 -0.0078  0.6292  0.5838
 6087TIP3    H139896   3.518   6.226   0.124  4.1615 -1.1434  3.0530
 6087TIP3    H239897   3.431   6.324   0.199 -1.2397 -1.9168 -1.5230
 6088TIP3   OH239898   6.166   2.342   2.644 -0.1541 -0.1031 -0.6608
 6088TIP3    H139899   6.187   2.433   2.624 -0.5036 -0.2069 -1.5463
 6088TIP3    H239900   6.245   2.308   2.687 -0.7476  1.1537  1.5465
 6089TIP3   OH239901   0.981   5.981   0.534  0.0708  0.5545 -0.4104
 6089TIP3    H139902   1.071   5.979   0.566  0.5730  1.2687 -1.6895
 6089TIP3    H239903   0.958   5.889   0.523 -0.3043  0.2431  2.3117
 6090TIP3   OH239904   4.754   1.972   3.183 -0.3831 -0.5980  0.6908
 6090TIP3    H139905   4.718   2.057   3.210 -0.9226 -0.8454  0.7765
 6090TIP3    H239906   4.823   1.993   3.120 -1.1162 -0.1299  0.0259
 6091TIP3   OH239907   2.079   0.250   0.960  0.1416  0.6834 -0.1160
 6091TIP3    H139908   1.983   0.255   0.965 -0.0242  0.8557 -2.5117
 6091TIP3    H239909   2.107   0.340   0.942  0.6254  0.4107 -0.7795
 6092TIP3   OH239910   0.461   2.711   7.796 -0.5247 -0.0904  0.3321
 6092TIP3    H139911   0.404   2.647   7.838  0.6096 -0.7891  0.8378
 6092TIP3    H239912   0.477   2.676   7.708 -1.0844  0.2505  0.0864
 6093TIP3   OH239913   6.256   5.892   7.685  0.1269 -0.6772  0.3963
 6093TIP3    H139914   6.321   5.927   7.624 -1.2601  1.6045  0.1470
 6093TIP3    H239915   6.297   5.903   7.771 -0.2113  1.6383  0.3282
 6094TIP3   OH239916   3.308   6.250   1.739  0.0972  0.9204 -0.2261
 6094TIP3    H139917   3.366   6.266   1.814 -0.1176 -0.0922  0.1747
 6094TIP3    H239918   3.366   6.215   1.671 -0.1588 -1.1801  0.5517
 6095TIP3   OH239919   3.112   2.785   8.252  0.6798  0.5325 -0.0265
 6095TIP3    H139920   3.136   2.816   8.164 -0.2110  0.4092 -0.3238
 6095TIP3    H239921   3.071   2.861   8.293 -0.1700  0.1922 -0.2273
 6096TIP3   OH239922   6.492   5.738   8.203 -0.2929  0.0849 -0.1380
 6096TIP3    H139923   6.528   5.807   8.258  0.0693 -0.0202 -0.2394
 6096TIP3    H239924   6.513   5.657   8.250 -1.4466  0.0750  0.4037
 6097TIP3   OH239925   1.341   1.466   1.088  0.3209 -0.2386  0.5422
 6097TIP3    H139926   1.265   1.434   1.040  1.0469 -0.7864 -0.2561
 6097TIP3    H239927   1.416   1.437   1.037  1.0485  2.7109 -0.2480
 6098TIP3   OH239928   6.292   3.022   1.482  0.5476 -0.2008 -0.4381
 6098TIP3    H139929   6.305   2.948   1.423  0.0712 -0.5008 -0.1736
 6098TIP3    H239930   6.237   2.988   1.552  1.6849 -0.0580  0.5735
 6099TIP3   OH239931   5.030   6.664   8.274  0.0474  0.8987  0.4656
 6099TIP3    H139932   5.099   6.632   8.333 -0.2470  0.4452  0.5679
 6099TIP3    H239933   5.077   6.719   8.211  0.4306  1.0175  0.8429
 6100TIP3   OH239934   1.889   0.370   2.739  0.5178 -0.0751  0.5018
 6100TIP3    H139935   1.854   0.422   2.666 -2.9072 -0.5326  1.6298
 6100TIP3    H239936   1.866   0.420   2.817  0.1184 -1.6893  1.4476
 6101TIP3   OH239937   0.462   0.957   2.520  0.2486  0.1420 -0.1538
 6101TIP3    H139938   0.506   0.930   2.600 -0.5095  0.8322  0.5225
 6101TIP3    H239939   0.386   1.006   2.551 -0.4054 -0.1276 -1.2964
 6102TIP3   OH239940   4.702   6.240   2.843  0.2704 -0.8566 -1.0985
 6102TIP3    H139941   4.771   6.178   2.821  0.2357 -1.5831  0.6647
 6102TIP3    H239942   4.742   6.326   2.830  1.0445 -1.2626 -1.4466
 6103TIP3   OH239943   0.054   3.696   2.400  0.3712  0.5013 -0.0410
 6103TIP3    H139944  -0.030   3.741   2.391 -0.0243 -0.1535  0.3043
 6103TIP3    H239945   0.058   3.637   2.324 -0.0380 -0.3435  0.5779
 6104TIP3   OH239946   1.842   5.263   1.722 -0.1049  0.2366 -0.2100
 6104TIP3    H139947   1.819   5.221   1.639 -1.3259 -0.5231  0.4903
 6104TIP3    H239948   1.783   5.224   1.787  0.8314  0.7987  1.0316
 6105TIP3   OH239949   1.546   6.736   2.227  0.3014  0.1071  0.9267
 6105TIP3    H139950   1.581   6.665   2.173  0.1373  0.7759 -0.0836
 6105TIP3    H239951   1.623   6.790   2.247  0.2214  0.3056  0.6854
 6106TIP3   OH239952   1.850   0.510   1.551  0.4197  0.2388  0.0554
 6106TIP3    H139953   1.836   0.517   1.646  0.4677 -1.9975  0.2870
 6106TIP3    H239954   1.928   0.455   1.543  0.2297  0.1446 -1.2716
 6107TIP3   OH239955   2.572   3.860   8.500  0.2471  0.0585 -0.1562
 6107TIP3    H139956   2.509   3.795   8.528 -0.7504  0.6632 -0.9270
 6107TIP3    H239957   2.590   3.838   8.409 -0.8696  1.4145 -0.7392
 6108TIP3   OH239958   2.772   3.091   3.002 -0.1974 -0.3082  0.2346
 6108TIP3    H139959   2.823   3.160   2.958 -0.8818 -0.8496 -1.4737
 6108TIP3    H239960   2.838   3.027   3.029  0.5991  1.3752  2.7789
 6109TIP3   OH239961   0.541   1.704   8.689 -0.2681 -0.3487 -0.3015
 6109TIP3    H139962   0.460   1.756   8.690 -1.2731 -1.8321 -1.0257
 6109TIP3    H239963   0.602   1.756   8.741 -1.6003  0.9371  0.0876
 6110TIP3   OH239964   5.101   6.285   1.915  0.3574  0.3211  0.2329
 6110TIP3    H139965   5.149   6.207   1.888  0.2124  0.4675 -0.4713
 6110TIP3    H239966   5.066   6.321   1.833 -1.1425  0.0863  0.7475
 6111TIP3   OH239967   3.486   4.791   0.863  0.0457 -0.4793  0.0324
 6111TIP3    H139968   3.559   4.792   0.800 -1.5836 -1.7869 -2.0136
 6111TIP3    H239969   3.450   4.703   0.856 -0.3860 -0.5681  2.6745
 6112TIP3   OH239970   5.223   1.001   1.856  0.2289 -0.0685 -0.1379
 6112TIP3    H139971   5.226   1.095   1.875  2.2096  0.2139 -1.4353
 6112TIP3    H239972   5.202   0.997   1.763 -0.7726 -0.9772  0.1179
 6113TIP3   OH239973   5.263   3.716   1.972  0.3066  0.5758 -0.6920
 6113TIP3    H139974   5.269   3.641   2.032  1.3060  1.1011 -0.1182
 6113TIP3    H239975   5.349   3.758   1.977 -0.1616  1.6231 -1.1975
 6114TIP3   OH239976   6.241   5.086   8.812 -0.6978  0.2794  0.0863
 6114TIP3    H139977   6.166   5.080   8.753 -2.2560  1.0471  1.8753
 6114TIP3    H239978   6.207   5.060   8.897  1.1134  0.5464  0.9402
 6115TIP3   OH239979   5.990   6.073   2.302  0.3509 -0.4656 -0.3706
 6115TIP3    H139980   5.943   6.014   2.243 -1.4456  0.4777  0.0208
 6115TIP3    H239981   6.067   6.024   2.330  1.1269 -1.0426 -3.2260
 6116TIP3   OH239982   1.003   2.115   8.737  0.1841 -0.0668 -0.4922
 6116TIP3    H139983   1.074   2.177   8.721  0.4298 -0.7031 -1.9682
 6116TIP3    H239984   1.006   2.055   8.663 -1.0512 -0.9070  0.1110
 6117TIP3   OH239985   4.765   5.485   2.919  1.0469 -0.2787 -0.0210
 6117TIP3    H139986   4.816   5.561   2.944  1.1569  0.0531 -1.2075
 6117TIP3    H239987   4.818   5.410   2.948  1.1827  0.0777  0.6734
 6118TIP3   OH239988   4.186   5.432   7.425  0.5592 -0.3085  1.0299
 6118TIP3    H139989   4.097   5.466   7.434 -0.3918 -2.3340  0.0547
 6118TIP3    H239990   4.197   5.418   7.331  2.2355  0.6390  1.0440
 6119TIP3   OH239991   0.137   2.000   2.159 -0.1997 -0.3530 -0.0843
 6119TIP3    H139992   0.156   2.054   2.082  0.0731  0.1087  0.2993
 6119TIP3    H239993   0.050   1.964   2.142 -0.0811 -0.3642 -0.6708
 6120TIP3   OH239994   3.881   3.501   0.696  0.7397 -0.1722 -0.0777
 6120TIP3    H139995   3.823   3.570   0.728  0.7031 -0.5940  0.8082
 6120TIP3    H239996   3.919   3.536   0.615 -0.2083  0.3849 -0.2914
 6121TIP3   OH239997   3.503   6.472   2.703 -0.4673 -0.3697  0.0943
 6121TIP3    H139998   3.528   6.387   2.739 -0.2203 -0.6987 -0.8040
 6121TIP3    H239999   3.506   6.459   2.608  0.6132  0.9395 -0.0839
 6122TIP3   OH240000   1.526   4.622   1.026  0.3970 -0.2654  0.0282
 6122TIP3    H140001   1.547   4.610   1.119  1.4569 -0.6223 -0.2383
 6122TIP3    H240002   1.604   4.663   0.989  0.6195 -1.5505 -1.0113
 6123TIP3   OH240003   4.201   2.422   1.296  0.2569  0.0948  0.8896
 6123TIP3    H140004   4.234   2.333   1.306  0.2466  0.1280  1.2066
 6123TIP3    H240005   4.106   2.413   1.291  0.3331 -0.1555 -1.4891
 6124TIP3   OH240006   3.482   5.382   7.342  0.0666 -0.2758 -0.8836
 6124TIP3    H140007   3.425   5.438   7.291 -0.0836 -0.3179 -0.7611
 6124TIP3    H240008   3.427   5.309   7.370 -0.2976  0.5816  0.7543
 6125TIP3   OH240009   6.350   1.051   1.095  0.7362  0.3574 -0.3282
 6125TIP3    H140010   6.279   1.104   1.129  0.9850 -0.0419  0.9039
 6125TIP3    H240011   6.326   0.961   1.118  0.6878  0.0038 -1.6868
 6126TIP3   OH240012   0.165   4.051   1.640  0.0207  0.4554  0.0272
 6126TIP3    H140013   0.131   4.064   1.551  2.1962  0.8299 -0.8027
 6126TIP3    H240014   0.205   3.964   1.638 -0.5062  0.1854  0.8542
 6127TIP3   OH240015   6.524   3.988   0.518  0.1310 -0.0683 -0.5990
 6127TIP3    H140016   6.610   4.009   0.554  1.0914 -1.3008 -2.0389
 6127TIP3    H240017   6.466   3.982   0.594  1.6513 -0.6746  0.5502
 6128TIP3   OH240018   3.459   2.254   2.257 -0.2256  0.0388 -0.1713
 6128TIP3    H140019   3.407   2.333   2.246  0.9006  0.8563  0.2384
 6128TIP3    H240020   3.480   2.226   2.168  1.8851  1.9370 -0.3665
 6129TIP3   OH240021   0.456   4.819   7.933  0.5856  0.3475  0.1940
 6129TIP3    H140022   0.467   4.724   7.931 -1.5303  0.0107  1.6159
 6129TIP3    H240023   0.541   4.853   7.961  1.1220 -1.1668  0.4764
 6130TIP3   OH240024   2.277   4.754   1.948 -0.4043  0.5266 -0.9133
 6130TIP3    H140025   2.355   4.727   1.900  1.0580 -0.7418  1.9454
 6130TIP3    H240026   2.227   4.674   1.959  0.4903  0.2276  1.6065
 6131TIP3   OH240027   1.380   5.800   2.700 -0.0996  0.2393  0.1250
 6131TIP3    H140028   1.407   5.859   2.770 -0.0046 -0.5319  0.7566
 6131TIP3    H240029   1.403   5.712   2.732 -1.2467 -0.2414 -0.3064
 6132TIP3   OH240030   1.765   2.894   8.490  0.0275 -0.0120 -0.4263
 6132TIP3    H140031   1.707   2.971   8.491  0.4454  0.3294 -1.3768
 6132TIP3    H240032   1.819   2.905   8.568 -0.4644  0.2231 -0.1071
 6133TIP3   OH240033   0.227   3.703   8.070 -0.3005 -0.4076 -0.2422
 6133TIP3    H140034   0.192   3.763   8.004 -1.2463 -1.4762 -0.7637
 6133TIP3    H240035   0.321   3.697   8.051 -0.8837 -2.5897 -3.1907
 6134TIP3   OH240036   5.469   2.577   7.698  0.7396 -0.1712  0.0705
 6134TIP3    H140037   5.396   2.600   7.755  2.1861  2.0926  1.1268
 6134TIP3    H240038   5.433   2.586   7.609 -0.7354 -0.9009  0.5600
 6135TIP3   OH240039   4.489   4.791   1.226  0.1607  0.3414 -0.1326
 6135TIP3    H140040   4.419   4.736   1.262 -0.7247  1.7051  0.3188
 6135TIP3    H240041   4.521   4.742   1.151 -0.3260 -0.9605  0.4666
 6136TIP3   OH240042   3.104   5.762   2.247 -0.1312 -0.2963  0.0080
 6136TIP3    H140043   3.094   5.673   2.212 -0.8088  0.2747 -1.3179
 6136TIP3    H240044   3.028   5.775   2.303 -1.1042  0.1356 -1.3787
 6137TIP3   OH240045   2.949   4.014   1.299  0.1710 -0.5308  0.2025
 6137TIP3    H140046   2.993   3.930   1.286 -0.1298 -0.7176  0.3621
 6137TIP3    H240047   2.857   3.991   1.313  0.0350 -0.1526 -0.0500
 6138TIP3   OH240048   0.265   2.239   8.464 -0.4609  0.2855 -0.6720
 6138TIP3    H140049   0.254   2.262   8.371  1.0442  1.4442 -0.6130
 6138TIP3    H240050   0.255   2.322   8.510 -0.4682 -0.1603  0.1376
 6139TIP3   OH240051   1.730   4.654   1.278 -0.3067 -0.3860  0.0001
 6139TIP3    H140052   1.766   4.584   1.223  1.5084  0.9256 -0.5710
 6139TIP3    H240053   1.731   4.732   1.222 -1.1376  0.3731  1.0051
 6140TIP3   OH240054   3.053   2.075   2.412  0.1849  0.4262 -0.2332
 6140TIP3    H140055   3.091   2.123   2.339 -0.7123  0.4348 -0.7071
 6140TIP3    H240056   3.028   1.991   2.376 -1.4726  0.9073 -0.2915
 6141TIP3   OH240057   6.363   6.490   0.685  0.5375 -0.1942  0.3252
 6141TIP3    H140058   6.391   6.408   0.645  2.2397  0.1941  0.6291
 6141TIP3    H240059   6.385   6.557   0.621 -0.0722  0.1042  0.4226
 6142TIP3   OH240060   3.453   5.763   8.296 -0.5746 -0.4341 -0.3118
 6142TIP3    H140061   3.416   5.814   8.224  0.0150 -0.8447 -0.9266
 6142TIP3    H240062   3.443   5.819   8.373 -0.1262  0.5284 -0.9308
 6143TIP3   OH240063   3.873   0.201   1.794  0.1771 -0.2584 -0.2073
 6143TIP3    H140064   3.822   0.143   1.738 -0.8201  0.6305 -0.2518
 6143TIP3    H240065   3.919   0.142   1.854 -1.7906 -1.0669  0.5972
 6144TIP3   OH240066   0.622   3.185   1.652 -0.2205  0.1928 -0.1262
 6144TIP3    H140067   0.531   3.178   1.682 -0.2518 -0.2594 -0.3176
 6144TIP3    H240068   0.615   3.199   1.558 -0.0752 -1.5567 -0.4338
 6145TIP3   OH240069   3.924   2.657   8.459  0.1418 -0.5937 -0.6400
 6145TIP3    H140070   3.886   2.580   8.418 -0.6106 -1.5371  1.6917
 6145TIP3    H240071   4.018   2.644   8.452  0.0219 -1.4812 -0.6869
 6146TIP3   OH240072   6.360   6.581   8.666  0.3465 -0.1068  0.1066
 6146TIP3    H140073   6.392   6.548   8.750  2.3345 -0.9844 -0.9238
 6146TIP3    H240074   6.275   6.619   8.686  0.5669 -0.6846  2.4294
 6147TIP3   OH240075   4.497   1.497   0.737  0.0191  0.5881 -0.2248
 6147TIP3    H140076   4.530   1.455   0.657 -1.3023 -1.9181  0.4365
 6147TIP3    H240077   4.565   1.482   0.802 -0.5900 -0.9261  0.0949
 6148TIP3   OH240078   3.321   3.344   0.177 -0.6299 -0.0553 -0.1881
 6148TIP3    H140079   3.312   3.250   0.157 -0.7814 -0.2468  0.7581
 6148TIP3    H240080   3.408   3.366   0.144 -0.4516 -0.6088 -0.1061
 6149TIP3   OH240081   4.919   3.812   0.543  0.1873 -0.6138 -0.5091
 6149TIP3    H140082   4.971   3.810   0.623  0.4668  2.5645 -0.4832
 6149TIP3    H240083   4.842   3.864   0.566  0.0585 -0.0251 -2.1459
 6150TIP3   OH240084   2.532   0.573   2.775  0.1343  0.2405  0.4153
 6150TIP3    H140085   2.618   0.579   2.733 -0.3445  1.2871 -0.4654
 6150TIP3    H240086   2.493   0.494   2.739 -0.3776  1.2617 -1.3849
 6151TIP3   OH240087   3.598   0.089   1.130 -0.2858 -0.1089  0.0663
 6151TIP3    H140088   3.547   0.012   1.157  0.5197 -1.0776 -1.0651
 6151TIP3    H240089   3.614   0.075   1.036  1.2979  0.5995  0.2092
 6152TIP3   OH240090   2.413   5.823   2.261  0.5919  0.1480  0.5072
 6152TIP3    H140091   2.507   5.834   2.245  0.8044 -1.0987  0.7968
 6152TIP3    H240092   2.392   5.888   2.328  0.8711  1.5948 -0.7298
 6153TIP3   OH240093   5.391   0.106   0.155 -0.0403  0.0659 -0.7769
 6153TIP3    H140094   5.454   0.038   0.181 -0.8485 -0.7085 -0.8085
 6153TIP3    H240095   5.405   0.176   0.220  1.5437  0.3583 -1.3835
 6154TIP3   OH240096   6.212   0.963   2.074 -0.4076 -0.0528  0.1747
 6154TIP3    H140097   6.189   1.056   2.080 -0.2636  0.0748 -1.1449
 6154TIP3    H240098   6.304   0.962   2.050  0.0430 -0.5654  1.8147
 6155TIP3   OH240099   3.234   5.334   1.331 -0.3684  0.1733  0.0298
 6155TIP3    H140100   3.278   5.343   1.415  0.8680 -2.6078 -0.1860
 6155TIP3    H240101   3.157   5.280   1.349 -0.4461  0.0869 -0.5352
 6156TIP3   OH240102   6.119   5.577   1.015  0.6655 -0.2429  0.1104
 6156TIP3    H140103   6.157   5.661   1.039 -0.2290  0.3112 -0.3336
 6156TIP3    H240104   6.169   5.512   1.065  0.1193  0.6938  1.9736
 6157TIP3   OH240105   5.702   2.003   1.203 -0.3687  0.0593 -0.2373
 6157TIP3    H140106   5.739   2.062   1.269 -0.3847 -0.5102  0.2866
 6157TIP3    H240107   5.776   1.951   1.174 -0.9316 -2.0793  1.8461
 6158TIP3   OH240108   1.483   1.399   8.682 -0.0040  0.4983  0.0786
 6158TIP3    H140109   1.559   1.341   8.673 -0.1992  0.4716 -1.8564
 6158TIP3    H240110   1.418   1.347   8.729 -0.0619 -0.7842 -1.3604
 6159TIP3   OH240111   0.707   1.200   1.698  0.2222 -0.0369  0.2075
 6159TIP3    H140112   0.655   1.190   1.618  1.0810  2.3180 -0.7423
 6159TIP3    H240113   0.785   1.148   1.682 -0.6349 -1.5087  0.5733
 6160TIP3   OH240114   6.706   3.852   7.755  0.3065  0.0470  0.0246
 6160TIP3    H140115   6.638   3.805   7.803  2.1182 -2.3233  0.5069
 6160TIP3    H240116   6.718   3.800   7.675 -1.9896  3.3725 -2.7427
 6161TIP3   OH240117   6.558   0.806   1.538  0.4029  0.3491 -0.6604
 6161TIP3    H140118   6.566   0.831   1.446 -1.9633  0.2674 -0.9566
 6161TIP3    H240119   6.648   0.804   1.571  1.1572  3.5240 -2.1249
 6162TIP3   OH240120   0.190   1.137   0.946 -0.3671 -0.2481 -0.2803
 6162TIP3    H140121   0.223   1.049   0.965 -0.1576 -0.1474 -0.1708
 6162TIP3    H240122   0.139   1.161   1.023 -1.4169 -0.7425 -0.8050
 6163TIP3   OH240123   1.311   0.722   0.424 -0.0393 -0.3299 -0.3310
 6163TIP3    H140124   1.406   0.718   0.420 -0.0112  0.1458 -0.2046
 6163TIP3    H240125   1.286   0.785   0.357 -0.2391 -0.1835 -0.1238
 6164TIP3   OH240126   3.417   5.741   7.848 -0.3449 -0.1642  0.0622
 6164TIP3    H140127   3.445   5.832   7.859 -3.5106  0.6890  2.4941
 6164TIP3    H240128   3.322   5.745   7.847 -0.6323 -3.2729 -2.5987
 6165TIP3   OH240129   5.424   3.964   2.464  0.3887  0.2982  0.5398
 6165TIP3    H140130   5.501   4.021   2.470  0.1465  0.8997 -1.3676
 6165TIP3    H240131   5.438   3.898   2.532  1.5110  1.6335  1.6805
 6166TIP3   OH240132   6.420   3.319   0.967 -0.0652 -0.3200 -0.4596
 6166TIP3    H140133   6.432   3.275   0.882  0.3857  1.1551 -1.1843
 6166TIP3    H240134   6.479   3.394   0.964  1.3113 -1.1793  1.8835
 6167TIP3   OH240135   4.102   1.287   7.547 -0.1753 -0.4361 -0.1073
 6167TIP3    H140136   4.193   1.280   7.520 -0.3706 -0.8281 -0.6770
 6167TIP3    H240137   4.078   1.378   7.529 -1.3201 -1.3494 -4.7154
 6168TIP3   OH240138   4.843   4.114   1.491 -0.3773  0.4746 -0.3571
 6168TIP3    H140139   4.808   4.176   1.555 -1.5058 -1.2442  0.8228
 6168TIP3    H240140   4.903   4.059   1.542  1.6297  1.3593 -1.6592
 6169TIP3   OH240141   6.191   2.724   8.272 -0.2771  0.0249  0.0945
 6169TIP3    H140142   6.224   2.728   8.183 -2.5023 -2.1180 -0.9379
 6169TIP3    H240143   6.098   2.745   8.265 -0.5212 -0.2261  1.8941
 6170TIP3   OH240144   3.460   3.552   0.832 -0.2470  0.1126  0.0364
 6170TIP3    H140145   3.419   3.479   0.786 -0.4975  0.9956 -1.2109
 6170TIP3    H240146   3.410   3.562   0.913 -1.4610  0.1390 -0.7010
 6171TIP3   OH240147   1.660   4.994   0.490 -0.3584  0.1549  0.0101
 6171TIP3    H140148   1.744   5.003   0.535  0.8900  0.0542 -2.1657
 6171TIP3    H240149   1.629   4.907   0.515 -0.4125  0.6354  1.7376
 6172TIP3   OH240150   5.429   6.078   7.141 -0.3407  0.3194 -0.0349
 6172TIP3    H140151   5.358   6.085   7.077 -1.5899  1.5606  1.3968
 6172TIP3    H240152   5.442   5.984   7.153 -2.1713  0.0577  0.0968
 6173TIP3   OH240153   5.409   5.294   8.346  0.0267  0.7545  0.4699
 6173TIP3    H140154   5.373   5.382   8.334 -0.5140  0.7538  1.9044
 6173TIP3    H240155   5.338   5.243   8.385  0.6293 -0.0629  0.5385
 6174TIP3   OH240156   0.899   1.226   8.416  0.4306 -0.5644  0.1775
 6174TIP3    H140157   0.950   1.249   8.493 -0.2020 -1.2139  0.8005
 6174TIP3    H240158   0.839   1.158   8.446 -1.2552  0.6156 -0.3741
 6175TIP3   OH240159   6.049   3.073   8.746 -0.1661  0.3155  0.5854
 6175TIP3    H140160   6.101   2.995   8.727 -0.1298 -0.0009  1.9075
 6175TIP3    H240161   5.991   3.082   8.670 -0.5642 -1.3355  0.6579
 6176TIP3   OH240162   1.335   3.432   0.511 -0.3784  0.0111 -0.4849
 6176TIP3    H140163   1.320   3.346   0.551  0.3590  0.5384  0.9976
 6176TIP3    H240164   1.248   3.464   0.489 -0.7638 -0.5314  0.2250
 6177TIP3   OH240165   2.177   5.874   7.970 -0.2675  0.0078  0.1825
 6177TIP3    H140166   2.116   5.851   8.041  0.0410 -0.0533  0.4302
 6177TIP3    H240167   2.199   5.791   7.929  2.1749 -0.4444  2.1491
 6178TIP3   OH240168   6.653   3.221   2.991 -0.0199 -0.1057 -0.1856
 6178TIP3    H140169   6.623   3.138   3.028 -1.3017  0.8033  0.8890
 6178TIP3    H240170   6.577   3.256   2.944  0.3560  0.6986 -0.2087
 6179TIP3   OH240171   1.305   4.709   8.729  0.9433  0.4201 -0.7276
 6179TIP3    H140172   1.386   4.665   8.703  1.4884  0.4726  0.7954
 6179TIP3    H240173   1.283   4.672   8.814  0.6404  2.0430 -0.0470
 6180TIP3   OH240174   6.458   1.935   1.734 -0.7802 -0.2359  0.8844
 6180TIP3    H140175   6.526   1.999   1.712 -0.9977  0.4995  2.2304
 6180TIP3    H240176   6.382   1.988   1.756 -1.1785 -0.9836  1.3351
 6181TIP3   OH240177   6.787   4.636   1.895  0.3982  0.0794  0.7166
 6181TIP3    H140178   6.761   4.614   1.985  0.6675 -0.4979  0.6545
 6181TIP3    H240179   6.857   4.701   1.906  1.6105 -1.2331  0.9732
 6182TIP3   OH240180   0.875   5.885   1.064 -0.8666 -0.3169  0.1028
 6182TIP3    H140181   0.845   5.943   1.134 -1.3281 -0.6736  0.2037
 6182TIP3    H240182   0.854   5.931   0.983  0.7948  0.6735  0.1862
 6183TIP3   OH240183   3.525   0.509   2.302  0.8544 -0.1867 -0.0074
 6183TIP3    H140184   3.547   0.510   2.209  0.5360  0.0803 -0.0858
 6183TIP3    H240185   3.455   0.443   2.310  0.1807  0.4973 -0.1343
 6184TIP3   OH240186   5.945   4.723   1.448 -0.1431  0.1533 -0.0589
 6184TIP3    H140187   5.996   4.788   1.398 -0.6471  0.3193 -0.3733
 6184TIP3    H240188   5.935   4.650   1.387  0.8421 -0.4390  0.4660
 6185TIP3   OH240189   3.143   5.914   1.667  0.8038  0.1863 -0.0195
 6185TIP3    H140190   3.056   5.887   1.695  1.4108 -2.2044 -0.1544
 6185TIP3    H240191   3.128   5.987   1.607 -1.1565 -0.4951 -0.4332
 6186TIP3   OH240192   2.126   6.672   1.337  0.7131 -0.6870  0.4340
 6186TIP3    H140193   2.207   6.712   1.307 -0.6989  1.2973 -1.0033
 6186TIP3    H240194   2.120   6.590   1.287  1.5482 -0.5815  0.1398
 6187TIP3   OH240195   3.451   6.001   8.477  0.2345  0.0808  0.2343
 6187TIP3    H140196   3.460   5.957   8.562 -0.3887  0.0025  0.2635
 6187TIP3    H240197   3.379   6.063   8.489  0.9512  0.9656  0.1221
 6188TIP3   OH240198   0.655   3.591   1.237 -0.7197  0.3548  0.2930
 6188TIP3    H140199   0.695   3.619   1.155 -0.4784  0.6829  0.5199
 6188TIP3    H240200   0.662   3.667   1.295 -0.5073 -0.0092  0.7543
 6189TIP3   OH240201   5.189   4.823   7.620 -0.0542 -0.1717  0.2396
 6189TIP3    H140202   5.157   4.788   7.537 -0.2599 -2.8384  1.3275
 6189TIP3    H240203   5.267   4.771   7.639  0.9153  1.4766  1.0024
 6190TIP3   OH240204   6.294   5.917   2.828 -0.5885  0.0663  0.5539
 6190TIP3    H140205   6.387   5.914   2.852 -0.0552 -0.4478 -1.3527
 6190TIP3    H240206   6.278   5.832   2.786 -1.4428  0.8256 -0.7233
 6191TIP3   OH240207   5.879   1.007   8.041  0.2540  0.7744 -0.0538
 6191TIP3    H140208   5.884   1.090   8.088 -1.3396  0.6364  0.4140
 6191TIP3    H240209   5.787   1.000   8.015  0.2284 -1.1105  0.4229
 6192TIP3   OH240210   4.334   3.996   8.183  0.3275  0.5527 -0.1518
 6192TIP3    H140211   4.429   4.006   8.173  0.1507  2.0155 -0.5739
 6192TIP3    H240212   4.324   3.913   8.230  1.8082  0.3258 -0.1787
 6193TIP3   OH240213   1.682   2.587   2.368  0.1611  0.8093 -0.0692
 6193TIP3    H140214   1.668   2.657   2.432  0.5846  0.0996  0.8313
 6193TIP3    H240215   1.597   2.545   2.360  0.7911 -1.2615  2.6954
 6194TIP3   OH240216   6.374   4.099   1.071  0.0006  0.3000  0.3509
 6194TIP3    H140217   6.310   4.085   1.001 -0.5098 -3.1577  1.2907
 6194TIP3    H240218   6.322   4.097   1.152  0.7747  2.5841  0.9849
 6195TIP3   OH240219   5.074   0.179   0.969 -0.4179 -0.0680 -0.0306
 6195TIP3    H140220   5.114   0.092   0.972 -0.0662  0.0580 -0.7571
 6195TIP3    H240221   5.132   0.234   1.021 -0.1506 -0.0863 -0.3049
 6196TIP3   OH240222   1.234   5.841   0.394  0.7384 -0.2269 -0.0291
 6196TIP3    H140223   1.200   5.753   0.414  0.7010 -0.5994 -1.5769
 6196TIP3    H240224   1.328   5.827   0.383  0.7783 -0.0099  0.0482
 6197TIP3   OH240225   5.454   0.615   7.375 -0.4688 -0.2432 -0.8935
 6197TIP3    H140226   5.400   0.641   7.450 -0.1386 -1.8813 -0.0554
 6197TIP3    H240227   5.505   0.541   7.407  0.9402  0.1167 -2.2354
 6198TIP3   OH240228   3.645   0.107   1.642 -0.0080  0.1340 -0.5054
 6198TIP3    H140229   3.687   0.027   1.611 -0.8593  0.1015 -1.6861
 6198TIP3    H240230   3.578   0.077   1.703  0.6539  0.0660  0.1888
 6199TIP3   OH240231   4.697   0.959   8.605  0.3533 -0.4554  0.2280
 6199TIP3    H140232   4.772   0.985   8.657  1.1472 -0.5735 -0.8215
 6199TIP3    H240233   4.710   1.002   8.521 -1.7113  1.0333  0.5921
 6200TIP3   OH240234   2.197   5.579   2.454 -0.4634  0.3019  0.3503
 6200TIP3    H140235   2.175   5.490   2.426  0.7335 -0.4559  1.6938
 6200TIP3    H240236   2.142   5.595   2.530  1.8791 -0.8064  2.4347
 6201TIP3   OH240237   5.658   3.176   0.972  0.0439  0.4123 -0.3526
 6201TIP3    H140238   5.735   3.232   0.969  0.8787 -0.6911 -0.1869
 6201TIP3    H240239   5.650   3.140   0.884 -0.0353  0.2098 -0.2647
 6202TIP3   OH240240   3.629   4.588   1.089  0.0707  0.2369 -0.3303
 6202TIP3    H140241   3.591   4.562   1.005  1.8364 -1.2902 -0.7213
 6202TIP3    H240242   3.573   4.547   1.155 -0.4341  0.1481 -0.8153
 6203TIP3   OH240243   5.811   1.734   8.542  0.3974 -0.5795 -0.3773
 6203TIP3    H140244   5.816   1.676   8.618 -1.6800  0.4076  0.5987
 6203TIP3    H240245   5.767   1.682   8.475 -1.4793 -0.1992  0.5021
 6204TIP3   OH240246   5.968   6.595   2.408  0.0033  0.0906 -0.0959
 6204TIP3    H140247   5.912   6.602   2.486  0.1600  1.0777 -0.0708
 6204TIP3    H240248   5.988   6.685   2.384  2.1300 -0.2280  0.2829
 6205TIP3   OH240249   3.933   2.601   7.827  0.2966 -0.2754  0.6134
 6205TIP3    H140250   3.855   2.654   7.811  0.5133 -0.5662 -1.8195
 6205TIP3    H240251   3.901   2.524   7.873 -0.8060 -0.1983  0.0202
 6206TIP3   OH240252   0.874   5.741   8.717  0.2775  0.8026  0.0549
 6206TIP3    H140253   0.963   5.707   8.717 -0.0765 -0.2433  1.3017
 6206TIP3    H240254   0.847   5.739   8.625  1.5901  1.3186 -0.3514
 6207TIP3   OH240255   5.459   4.146   2.865 -0.3645 -0.5721 -0.3165
 6207TIP3    H140256   5.534   4.151   2.806 -0.5654 -0.0206 -0.5296
 6207TIP3    H240257   5.395   4.206   2.827 -0.7503 -0.7199  0.0978
 6208TIP3   OH240258   1.564   2.166   2.117 -0.0376 -0.4098 -0.1547
 6208TIP3    H140259   1.580   2.073   2.129  0.6837 -0.2614  0.0788
 6208TIP3    H240260   1.492   2.170   2.054 -1.4936 -1.1360  1.4073
 6209TIP3   OH240261   5.576   2.918   7.908  0.5954  0.1465  0.0151
 6209TIP3    H140262   5.505   2.931   7.971  1.1814 -0.6202  0.8538
 6209TIP3    H240263   5.655   2.946   7.955  0.8793  0.8319 -0.8458
 6210TIP3   OH240264   3.934   5.729   1.123 -0.0220 -0.1149  0.2023
 6210TIP3    H140265   3.948   5.644   1.165  2.4395  0.0705 -0.0990
 6210TIP3    H240266   3.892   5.707   1.039  1.4153 -1.1557 -0.2854
 6211TIP3   OH240267   0.345   0.078   7.988 -0.0922  0.0127  0.1514
 6211TIP3    H140268   0.259   0.113   8.012  0.6407  1.3797  0.9194
 6211TIP3    H240269   0.377   0.036   8.068 -0.7019 -1.9695 -0.5940
 6212TIP3   OH240270   3.527   1.603   0.072  0.4144  0.7269 -0.2192
 6212TIP3    H140271   3.529   1.675   0.135 -0.4413  1.3948 -0.9297
 6212TIP3    H240272   3.477   1.638  -0.002 -3.3082 -1.7152  0.8387
 6213TIP3   OH240273   5.038   0.784   7.909 -0.3113  0.4828  0.0568
 6213TIP3    H140274   4.947   0.777   7.935  0.0709 -0.4750  1.1893
 6213TIP3    H240275   5.039   0.759   7.816 -1.1241  0.0126  0.1702
 6214TIP3   OH240276   1.733   0.893   2.673  0.3629 -0.0822 -0.3679
 6214TIP3    H140277   1.715   0.869   2.764  1.6293 -0.4712 -0.1905
 6214TIP3    H240278   1.798   0.963   2.680 -0.4724  0.7741 -0.9623
 6215TIP3   OH240279   3.685   3.689   6.579 -0.2322  0.3762  1.3788
 6215TIP3    H140280   3.738   3.697   6.499 -0.6369  0.1108  1.0815
 6215TIP3    H240281   3.612   3.632   6.554 -0.6203  0.6810  1.8096
 6216TIP3   OH240282   4.317   5.450   0.094 -0.0466 -0.0390  0.5096
 6216TIP3    H140283   4.411   5.461   0.102  0.2664 -0.9394 -1.3759
 6216TIP3    H240284   4.306   5.385   0.024 -2.0755  0.8408 -0.0641
 6217TIP3   OH240285   1.848   5.189   7.603 -0.7457 -0.1491 -0.1087
 6217TIP3    H140286   1.754   5.208   7.611 -0.9481 -0.8279 -0.8253
 6217TIP3    H240287   1.870   5.142   7.684 -0.9341  0.3341  0.2296
 6218TIP3   OH240288   2.372   4.642   8.800 -0.3386  1.0770 -0.3625
 6218TIP3    H140289   2.466   4.651   8.818 -0.1428 -0.9768 -0.1125
 6218TIP3    H240290   2.335   4.607   8.881 -0.8825 -0.4618 -1.2412
 6219TIP3   OH240291   4.201   1.143   7.981  0.5078 -0.0457 -0.1506
 6219TIP3    H140292   4.270   1.173   8.040  0.6407  2.1487 -1.3107
 6219TIP3    H240293   4.246   1.121   7.900 -0.1362  1.7563 -1.0413
 6220TIP3   OH240294   4.285   2.829   2.742  0.3347  0.0835  0.5923
 6220TIP3    H140295   4.256   2.897   2.803 -0.0074  0.7916 -0.3238
 6220TIP3    H240296   4.204   2.797   2.702  0.4996 -0.8352  0.9728
 6221TIP3   OH240297   4.999   1.609   2.614 -0.2799 -0.8507  0.0370
 6221TIP3    H140298   4.908   1.580   2.609 -0.9140  1.1025 -0.8598
 6221TIP3    H240299   4.995   1.694   2.657  1.2602 -1.1698  0.8845
 6222TIP3   OH240300   0.840   2.596   8.162 -0.3531 -0.2895  0.5987
 6222TIP3    H140301   0.801   2.509   8.146 -0.2532 -0.0417 -1.3062
 6222TIP3    H240302   0.799   2.652   8.096  0.4420  0.8554  1.0546
 6223TIP3   OH240303   2.706   1.460   8.198  0.0473 -0.2994 -0.2130
 6223TIP3    H140304   2.746   1.479   8.283 -0.2010  0.1920 -0.2005
 6223TIP3    H240305   2.705   1.544   8.153 -1.2927 -0.2086 -0.0645
 6224TIP3   OH240306   6.483   0.985   1.987 -0.2356 -0.1983  0.0731
 6224TIP3    H140307   6.473   0.890   1.999 -0.5750 -0.0680  0.9275
 6224TIP3    H240308   6.572   1.004   2.017 -0.5258 -0.1081  0.9136
 6225TIP3   OH240309   2.158   6.532   8.730 -0.4906 -0.1628 -0.4567
 6225TIP3    H140310   2.194   6.450   8.697  1.3534  1.1217 -1.8752
 6225TIP3    H240311   2.071   6.537   8.692  0.1476 -0.5561 -2.0537
 6226TIP3   OH240312   2.301   4.034   8.449  0.3688 -0.1561  0.5341
 6226TIP3    H140313   2.369   4.062   8.510  0.4149 -1.3610  1.0645
 6226TIP3    H240314   2.347   4.016   8.367  0.7518 -1.1938  0.9568
 6227TIP3   OH240315   3.653   1.066   1.983 -0.0544  0.3624  0.5084
 6227TIP3    H140316   3.564   1.049   2.016  0.5591 -1.5265  1.3624
 6227TIP3    H240317   3.708   1.003   2.030  1.6846  1.1892 -0.3281
 6228TIP3   OH240318   5.838   3.085   2.102  0.2656  0.2497  0.3147
 6228TIP3    H140319   5.920   3.133   2.094 -0.0925  1.0121  1.0580
 6228TIP3    H240320   5.841   3.020   2.032  1.3442  0.4948  0.1228
 6229TIP3   OH240321   5.641   3.459   6.818 -0.1993 -0.1178 -0.7170
 6229TIP3    H140322   5.610   3.527   6.878  0.4082  0.1176 -0.6574
 6229TIP3    H240323   5.562   3.416   6.787 -0.5449  0.0279 -0.0587
 6230TIP3   OH240324   3.233   6.024   0.692  0.6577  0.4396  0.1493
 6230TIP3    H140325   3.197   5.962   0.756 -1.2184  0.9641 -0.3262
 6230TIP3    H240326   3.295   6.077   0.743 -2.8321  2.7671  2.4623
 6231TIP3   OH240327   5.964   6.396   2.645 -0.0498  0.2947  0.0033
 6231TIP3    H140328   5.901   6.467   2.630 -0.7766 -0.3619 -0.1179
 6231TIP3    H240329   5.935   6.326   2.587 -0.0322 -0.5242  0.9496
 6232TIP3   OH240330   6.817   0.948   2.487  0.0355 -0.0625  0.3991
 6232TIP3    H140331   6.817   0.913   2.398 -0.0803 -1.3817  0.8950
 6232TIP3    H240332   6.741   0.908   2.529 -0.2516  0.9997  0.9315
 6233TIP3   OH240333   5.235   0.521   3.253 -0.2664 -0.5675  0.7494
 6233TIP3    H140334   5.264   0.543   3.164 -1.7623  1.1930  0.6299
 6233TIP3    H240335   5.224   0.426   3.252  0.5069 -0.6768 -0.6877
 6234TIP3   OH240336   6.510   2.432   2.759 -0.3234 -0.1057 -0.5793
 6234TIP3    H140337   6.576   2.501   2.766  0.2994 -0.8299  1.4235
 6234TIP3    H240338   6.427   2.478   2.746  0.4254  0.8569 -2.3456
 6235TIP3   OH240339   4.992   6.154   6.764 -0.1553  0.7320  0.1418
 6235TIP3    H140340   4.993   6.083   6.701  1.6673 -0.8074  1.7638
 6235TIP3    H240341   5.045   6.223   6.724  3.0240 -1.1265  0.7854
 6236TIP3   OH240342   3.447   4.148   2.720  0.6075  0.2655 -0.0104
 6236TIP3    H140343   3.452   4.106   2.634 -1.9359  1.8078 -1.0305
 6236TIP3    H240344   3.392   4.089   2.772 -0.8626  1.0267 -0.6442
 6237TIP3   OH240345   5.869   0.026   2.375 -0.1529  0.0566 -0.4189
 6237TIP3    H140346   5.834   0.057   2.459  0.2321 -0.5241 -0.0392
 6237TIP3    H240347   5.865   0.103   2.318 -0.7551  0.3608  0.0221
 6238TIP3   OH240348   5.426   5.972   8.545 -0.2761  0.1459 -0.3597
 6238TIP3    H140349   5.361   5.903   8.542 -0.2839  0.1538 -0.3636
 6238TIP3    H240350   5.502   5.936   8.501 -0.5403  0.4188 -1.0448
 6239TIP3   OH240351   6.463   4.612   1.185  0.2476 -0.2698 -0.2818
 6239TIP3    H140352   6.399   4.651   1.243  2.4087 -0.3170  2.3575
 6239TIP3    H240353   6.447   4.652   1.100 -2.2614  0.7954  0.6108
 6240TIP3   OH240354   1.469   1.718   1.757 -0.3528  0.3598  0.2301
 6240TIP3    H140355   1.453   1.701   1.664  0.0910 -0.1788  0.2465
 6240TIP3    H240356   1.565   1.715   1.765 -0.1413  3.5026  0.1243
 6241TIP3   OH240357   4.430   3.585   1.291  0.0899 -0.5948  0.3482
 6241TIP3    H140358   4.491   3.540   1.233  1.7431  0.8821  0.8461
 6241TIP3    H240359   4.349   3.535   1.285  1.1837 -2.3172 -0.7575
 6242TIP3   OH240360   0.386   5.650   0.940 -0.0594  0.5900 -0.1960
 6242TIP3    H140361   0.296   5.633   0.914 -0.4342 -0.4098  1.5854
 6242TIP3    H240362   0.424   5.696   0.866 -1.2631 -1.3318 -2.1150
 6243TIP3   OH240363   2.424   3.106   0.655 -0.4295  0.0022 -0.1296
 6243TIP3    H140364   2.509   3.082   0.618 -0.1577  0.3865  0.2288
 6243TIP3    H240365   2.376   3.024   0.660 -1.2205  0.1745 -3.1214
 6244TIP3   OH240366   3.861   4.607   7.308 -0.5244 -0.1815 -0.6483
 6244TIP3    H140367   3.876   4.525   7.260 -1.4033 -1.0266  0.4720
 6244TIP3    H240368   3.775   4.636   7.279 -1.6379 -1.3665  1.2576
 6245TIP3   OH240369   6.307   3.990   1.462  0.0924 -0.1300  0.5923
 6245TIP3    H140370   6.270   4.016   1.547 -1.1836 -0.0579  0.0448
 6245TIP3    H240371   6.335   4.073   1.422 -1.0077  0.0686  0.1933
 6246TIP3   OH240372   6.183   4.821   1.926 -0.2228 -0.0262  0.1263
 6246TIP3    H140373   6.166   4.768   1.848  1.5266  0.1882 -0.4420
 6246TIP3    H240374   6.096   4.854   1.951 -1.0262 -1.2714 -0.8534
 6247TIP3   OH240375   1.286   4.306   8.672 -0.4601  0.6435  0.6913
 6247TIP3    H140376   1.319   4.233   8.619 -0.5830 -0.2982  1.8756
 6247TIP3    H240377   1.199   4.324   8.637 -0.3285  0.3855  0.2289
 6248TIP3   OH240378   6.596   2.072   0.637 -0.4991  0.2788  0.0714
 6248TIP3    H140379   6.520   2.062   0.581 -2.0179  2.4302  1.5960
 6248TIP3    H240380   6.564   2.052   0.725  1.1467 -0.4035  0.5570
 6249TIP3   OH240381   2.841   2.487   0.700  0.1446  0.2199  0.6720
 6249TIP3    H140382   2.816   2.395   0.702  0.7148  0.0419 -0.0399
 6249TIP3    H240383   2.893   2.496   0.620 -1.3096  1.5171 -0.1754
 6250TIP3   OH240384   2.595   4.979   6.942 -0.1178 -0.3229  0.4946
 6250TIP3    H140385   2.505   4.983   6.909  0.5785 -0.8039 -1.6119
 6250TIP3    H240386   2.592   5.026   7.026 -1.7490  2.0848 -0.8036
 6251TIP3   OH240387   2.697   5.961   0.191 -0.0838  0.3793  0.2703
 6251TIP3    H140388   2.778   5.923   0.225 -0.8561 -0.9183  0.7356
 6251TIP3    H240389   2.627   5.917   0.239 -1.3575 -2.7235 -3.8442
 6252TIP3   OH240390   4.572   0.039   1.725 -0.2014 -0.6921  0.1762
 6252TIP3    H140391   4.640   0.054   1.660 -2.4944  4.4382 -1.5623
 6252TIP3    H240392   4.507  -0.015   1.680 -0.1432 -0.2015 -0.5075
 6253TIP3   OH240393   4.965   5.641   2.007  0.2241 -0.0843 -0.5310
 6253TIP3    H140394   4.923   5.555   2.019  1.7524 -0.7374  0.4561
 6253TIP3    H240395   5.059   5.622   2.012  0.6110  1.5305 -1.2390
 6254TIP3   OH240396   0.585   2.913   1.177 -0.6059  0.1356  0.3356
 6254TIP3    H140397   0.664   2.892   1.128 -0.6723  1.3945 -0.3541
 6254TIP3    H240398   0.532   2.834   1.173 -0.1557 -0.1204 -0.7241
 6255TIP3   OH240399   4.635   2.790   1.117  0.2700 -0.0935  0.4317
 6255TIP3    H140400   4.664   2.878   1.140 -0.3171 -0.0390  1.0077
 6255TIP3    H240401   4.552   2.804   1.071  0.3344 -0.3314  0.2401
 6256TIP3   OH240402   4.594   1.735   0.368 -0.0483 -0.2964  0.0050
 6256TIP3    H140403   4.505   1.762   0.391 -0.5628 -2.1274  0.3826
 6256TIP3    H240404   4.595   1.734   0.272 -0.7742 -1.1569 -0.0128
 6257TIP3   OH240405   0.387   2.619   2.334  0.0585  0.0089  0.2861
 6257TIP3    H140406   0.445   2.543   2.342  1.6026  1.0228 -0.8192
 6257TIP3    H240407   0.415   2.678   2.404  1.8839  1.4069 -1.5096
 6258TIP3   OH240408   4.872   6.426   2.761  0.4378 -0.2761  0.0811
 6258TIP3    H140409   4.889   6.485   2.687  0.2309 -1.5489 -1.0229
 6258TIP3    H240410   4.937   6.450   2.826  1.4165  0.1041 -0.9930
 6259TIP3   OH240411   2.827   6.468   2.526 -0.0217  0.1486  0.4454
 6259TIP3    H140412   2.876   6.386   2.524 -0.4349 -0.1138  0.8232
 6259TIP3    H240413   2.840   6.501   2.615 -0.8036 -0.0944  0.6552
 6260TIP3   OH240414   0.208   1.968   1.316  0.5115  0.3859 -0.2114
 6260TIP3    H140415   0.200   1.905   1.244 -0.0267  0.8096 -0.5246
 6260TIP3    H240416   0.299   1.996   1.313  0.1366  1.5749 -1.7332
 6261TIP3   OH240417   4.755   4.553   6.553  0.1240 -0.3809  0.0100
 6261TIP3    H140418   4.701   4.478   6.577  0.9456 -1.1908 -0.5865
 6261TIP3    H240419   4.840   4.515   6.529  0.5857  0.7449 -0.2176
 6262TIP3   OH240420   0.396   5.775   8.379  0.1485  0.6049 -0.1045
 6262TIP3    H140421   0.482   5.807   8.408  0.1574  1.8490 -1.3867
 6262TIP3    H240422   0.343   5.774   8.459  0.8888  1.3988  0.4206
 6263TIP3   OH240423   2.713   5.156   8.605 -0.1870  0.2303  0.3120
 6263TIP3    H140424   2.662   5.080   8.576  0.1727 -1.3877  3.4683
 6263TIP3    H240425   2.649   5.225   8.619 -1.2082 -0.9440  1.6684
 6264TIP3   OH240426   0.347   1.663   1.672  1.1048  0.4677  0.0862
 6264TIP3    H140427   0.402   1.591   1.705  0.2506 -0.1609  0.1991
 6264TIP3    H240428   0.405   1.716   1.618  1.4626 -1.0598 -1.0890
 6265TIP3   OH240429   6.711   0.064   1.240 -0.3713  0.0280 -0.3871
 6265TIP3    H140430   6.700   0.117   1.161  1.3700  1.4777  0.2854
 6265TIP3    H240431   6.750   0.123   1.303  2.4300 -2.2286  0.1837
 6266TIP3   OH240432   0.634   3.592   7.242  0.1382  0.4209 -0.1958
 6266TIP3    H140433   0.573   3.631   7.179 -2.2460 -0.9124  1.1719
 6266TIP3    H240434   0.662   3.511   7.200 -0.5958  0.0712 -0.0248
 6267TIP3   OH240435   1.652   2.761   2.596  0.4730 -0.5352 -0.2241
 6267TIP3    H140436   1.647   2.857   2.593 -1.0289 -0.6060 -1.0764
 6267TIP3    H240437   1.579   2.735   2.653  0.8085 -1.1757 -0.0782
 6268TIP3   OH240438   3.533   6.511   2.228 -0.4058  0.0356  0.0246
 6268TIP3    H140439   3.621   6.483   2.202  0.2658  0.7517  1.4147
 6268TIP3    H240440   3.499   6.436   2.277 -1.4043 -1.0414 -2.1804
 6269TIP3   OH240441   4.576   3.953   7.962  0.2033  0.4403  0.6267
 6269TIP3    H140442   4.633   4.023   7.931  0.1615 -0.1777 -0.9472
 6269TIP3    H240443   4.600   3.941   8.054  0.8574  1.8650  0.6592
 6270TIP3   OH240444   1.385   3.917   1.098  0.3314 -0.2997 -0.2609
 6270TIP3    H140445   1.419   3.938   1.185  1.0596  3.5403 -1.2863
 6270TIP3    H240446   1.291   3.936   1.104  0.1035 -1.4159 -0.0068
 6271TIP3   OH240447   1.325   3.719   7.561  0.0304  0.1670  0.2539
 6271TIP3    H140448   1.258   3.650   7.565  0.6079 -0.6206 -2.2080
 6271TIP3    H240449   1.355   3.728   7.652 -1.0905 -1.8130  0.8812
 6272TIP3   OH240450   6.173   5.720   1.517  0.0904  0.1612  0.1362
 6272TIP3    H140451   6.187   5.661   1.443 -0.7984  0.3016 -0.1444
 6272TIP3    H240452   6.094   5.688   1.559 -0.1871  0.9200  0.2065
 6273TIP3   OH240453   5.575   4.865   2.628  0.6070 -0.4024 -0.3029
 6273TIP3    H140454   5.639   4.896   2.692 -1.3394  1.5281  0.8531
 6273TIP3    H240455   5.623   4.862   2.546  2.5088 -0.3452  0.7559
 6274TIP3   OH240456   4.417   2.606   2.621  0.0391 -0.4199 -0.1617
 6274TIP3    H140457   4.507   2.584   2.644  0.0501  0.1798  0.3923
 6274TIP3    H240458   4.389   2.666   2.689 -1.0472 -1.1997  0.0956
 6275TIP3   OH240459   4.216   2.506   8.316 -0.3977  0.4817  0.0305
 6275TIP3    H140460   4.169   2.439   8.366  2.0881  0.1600  2.1704
 6275TIP3    H240461   4.215   2.474   8.226  0.6988 -2.5293  0.9737
 6276TIP3   OH240462   6.053   0.193   6.739  0.8321 -0.2425  0.8574
 6276TIP3    H140463   6.129   0.142   6.765 -0.0271 -0.2378  3.7719
 6276TIP3    H240464   5.979   0.149   6.781 -1.1175 -1.1566 -3.0782
 6277TIP3   OH240465   1.487   0.654   1.234 -0.0991 -0.2741  0.6855
 6277TIP3    H140466   1.419   0.716   1.262 -1.4760 -1.4512  0.0394
 6277TIP3    H240467   1.439   0.581   1.196  1.5682  0.6609 -3.7512
 6278TIP3   OH240468   6.344   3.776   2.284  0.3173 -0.0560  0.6787
 6278TIP3    H140469   6.373   3.860   2.248 -1.3063  0.2815  0.0644
 6278TIP3    H240470   6.294   3.799   2.362 -3.3440  0.0044 -1.4357
 6279TIP3   OH240471   4.286   0.307   0.388 -0.4371  0.5407 -0.0948
 6279TIP3    H140472   4.336   0.241   0.437 -1.7912 -1.5471 -1.3681
 6279TIP3    H240473   4.236   0.353   0.455 -0.9586 -1.0885  0.7038
 6280TIP3   OH240474   0.425   1.466   1.188  0.2023 -0.0830 -0.1235
 6280TIP3    H140475   0.378   1.419   1.257  1.7766  0.0301  1.0833
 6280TIP3    H240476   0.491   1.404   1.158  0.8659  0.5758 -0.0540
 6281TIP3   OH240477   6.210   3.315   1.548 -0.1703 -0.4341 -0.2210
 6281TIP3    H140478   6.257   3.240   1.512  1.7169  1.3027 -1.5695
 6281TIP3    H240479   6.117   3.291   1.539  0.3407 -1.9531 -2.0681
 6282TIP3   OH240480   5.698   3.331   8.764 -0.5653 -0.1800 -0.4280
 6282TIP3    H140481   5.728   3.241   8.780 -2.2808 -1.4990 -3.5493
 6282TIP3    H240482   5.629   3.346   8.828 -0.0248 -0.9542  0.3487
 6283TIP3   OH240483   4.273   0.291   1.725 -0.4066 -0.9089 -0.4630
 6283TIP3    H140484   4.289   0.382   1.702 -1.2098 -1.1582 -2.1954
 6283TIP3    H240485   4.240   0.251   1.644 -0.8928 -2.5296  0.4779
 6284TIP3   OH240486   0.370   0.318   7.758  0.4390 -0.5913 -0.2052
 6284TIP3    H140487   0.454   0.356   7.733 -0.0342  0.8993  0.3891
 6284TIP3    H240488   0.392   0.254   7.826  1.0893 -0.2253 -0.0628
 6285TIP3   OH240489   0.383   3.914   0.396 -0.2960  0.0576 -0.2742
 6285TIP3    H140490   0.311   3.963   0.357  1.2204  2.0622 -0.6849
 6285TIP3    H240491   0.461   3.968   0.382  1.3662 -2.0820 -0.0145
 6286TIP3   OH240492   4.142   1.309   8.474 -0.0974 -0.6810  0.4012
 6286TIP3    H140493   4.161   1.359   8.394 -0.6781  2.0426  1.8345
 6286TIP3    H240494   4.206   1.340   8.537 -1.0797 -1.0761  1.6317
 6287TIP3   OH240495   6.806   1.518   7.849  0.4164  0.2181  0.1411
 6287TIP3    H140496   6.738   1.484   7.791  0.6713  0.6450 -0.4031
 6287TIP3    H240497   6.888   1.483   7.813  0.8714  2.6403 -1.3808
 6288TIP3   OH240498   0.621   3.078   3.189 -0.2149  0.2888 -0.1588
 6288TIP3    H140499   0.710   3.074   3.154  0.1683 -0.8462  0.8886
 6288TIP3    H240500   0.592   3.167   3.168  1.3426  0.8527 -0.0917
 6289TIP3   OH240501   3.052   2.365   7.782 -0.0498  0.3586  0.4598
 6289TIP3    H140502   3.069   2.447   7.735 -1.1573  0.2953 -0.1051
 6289TIP3    H240503   2.967   2.336   7.749  0.9150 -1.7306 -0.3294
 6290TIP3   OH240504   5.807   4.436   0.304 -0.5538 -0.0834 -0.7163
 6290TIP3    H140505   5.786   4.343   0.288  0.3086 -0.3704 -0.2475
 6290TIP3    H240506   5.898   4.435   0.334 -1.9368  0.4044  4.2361
 6291TIP3   OH240507   1.095   6.563   8.291  0.1476 -0.5630 -0.0814
 6291TIP3    H140508   1.022   6.572   8.353 -0.4020 -0.9608 -0.6574
 6291TIP3    H240509   1.173   6.571   8.345 -0.3218  0.1630  0.5015
 6292TIP3   OH240510   6.656   1.825   2.466 -0.3281 -0.4947  0.2635
 6292TIP3    H140511   6.669   1.919   2.456  1.3392 -0.4877  1.9094
 6292TIP3    H240512   6.678   1.807   2.557  1.2006 -2.7228 -0.4487
 6293TIP3   OH240513   0.054   5.452   6.734  0.2801 -0.0823  0.3712
 6293TIP3    H140514  -0.003   5.377   6.751 -0.0582 -0.2181 -1.2164
 6293TIP3    H240515   0.139   5.425   6.767 -0.0132 -0.8669  0.5125
 6294TIP3   OH240516   4.808   5.781   7.055  0.1187  0.7026  0.1803
 6294TIP3    H140517   4.888   5.729   7.057 -0.5058 -0.3465 -0.7984
 6294TIP3    H240518   4.792   5.798   6.962 -0.2860  1.7263  0.4194
 6295TIP3   OH240519   4.939   0.848   1.026 -0.0964 -0.4023  0.4551
 6295TIP3    H140520   4.947   0.808   0.939  0.3695  1.2180 -0.2890
 6295TIP3    H240521   4.847   0.872   1.032  0.0966  0.5693 -0.1343
 6296TIP3   OH240522   5.852   6.314   8.223 -0.2462  0.0562 -0.0429
 6296TIP3    H140523   5.804   6.234   8.200 -0.3276  0.4597 -1.3707
 6296TIP3    H240524   5.791   6.385   8.203  0.6899  0.5492 -1.2262
 6297TIP3   OH240525   1.942   6.095   1.701 -0.2035 -0.0412  0.3065
 6297TIP3    H140526   2.020   6.133   1.661 -0.4666  0.6225  0.4066
 6297TIP3    H240527   1.895   6.170   1.737 -1.0895 -0.3883 -0.1097
 6298TIP3   OH240528   0.299   1.243   8.156  0.1305  0.0775 -0.4862
 6298TIP3    H140529   0.320   1.325   8.200  0.5373 -0.4221  0.2778
 6298TIP3    H240530   0.203   1.235   8.164  0.3106 -0.7399  1.7243
 6299TIP3   OH240531   2.102   0.932   0.611 -0.2286  0.1886 -0.0923
 6299TIP3    H140532   2.121   0.902   0.700  1.9267  0.9305 -0.2478
 6299TIP3    H240533   2.068   1.021   0.622 -0.0774  0.2348  0.0082
 6300TIP3   OH240534   2.128   0.078   1.839  0.0459 -0.1988  0.4539
 6300TIP3    H140535   2.195   0.144   1.856  0.3860  0.1252 -1.8712
 6300TIP3    H240536   2.135   0.059   1.745 -2.2226 -1.1378  0.4019
 6301TIP3   OH240537   5.488   1.392   8.783 -0.6071  0.0789 -0.4980
 6301TIP3    H140538   5.561   1.330   8.789  0.6928  1.4888 -0.8880
 6301TIP3    H240539   5.439   1.364   8.706 -1.1802 -1.5659  0.4238
 6302TIP3   OH240540   5.620   6.741   2.321 -0.4494 -0.1657  0.5674
 6302TIP3    H140541   5.635   6.751   2.227 -0.4894  1.0894  0.6728
 6302TIP3    H240542   5.708   6.739   2.360 -0.4108 -1.6313  0.4332
 6303TIP3   OH240543   4.165   2.373   0.873  0.1346  0.0723  0.0351
 6303TIP3    H140544   4.187   2.282   0.889  1.6685  0.2469 -0.8516
 6303TIP3    H240545   4.088   2.371   0.816 -0.2369 -0.6375  0.5535
 6304TIP3   OH240546   0.499   6.370   1.077 -0.4489  0.2797 -0.0816
 6304TIP3    H140547   0.575   6.314   1.061 -1.1998 -1.1112  1.0153
 6304TIP3    H240548   0.445   6.358   0.999  0.4138  1.2336 -0.8429
 6305TIP3   OH240549   4.317   6.515   8.728  0.2230 -0.4243 -0.1044
 6305TIP3    H140550   4.388   6.535   8.789 -0.2783 -0.5408  0.5301
 6305TIP3    H240551   4.258   6.590   8.735 -0.5449 -1.0750  0.6220
 6306TIP3   OH240552   5.875   1.665   2.044 -0.5464  0.2268  0.3002
 6306TIP3    H140553   5.936   1.738   2.050  1.1800 -1.0021 -1.1963
 6306TIP3    H240554   5.836   1.658   2.131  3.9242 -1.0152  2.4385
 6307TIP3   OH240555   2.029   5.397   1.537  0.4217  0.1648 -0.4472
 6307TIP3    H140556   1.947   5.422   1.495 -0.2271  1.4477  1.4984
 6307TIP3    H240557   2.002   5.350   1.616  1.5598  0.7591  0.3080
 6308TIP3   OH240558   4.489   6.549   8.126  0.4690 -0.3236 -0.4915
 6308TIP3    H140559   4.531   6.464   8.112 -2.2394 -2.0726  1.3347
 6308TIP3    H240560   4.447   6.569   8.042  2.9548  0.4445 -1.6625
 6309TIP3   OH240561   1.099   4.087   7.877  0.0318  0.1700 -0.2195
 6309TIP3    H140562   1.007   4.062   7.865  0.3241 -0.7885 -0.6233
 6309TIP3    H240563   1.142   4.058   7.796  0.4179  2.0919 -0.7522
 6310TIP3   OH240564   1.569   4.170   1.032 -0.1541 -0.4073  1.3197
 6310TIP3    H140565   1.563   4.199   0.941 -0.3365  0.6566  1.6599
 6310TIP3    H240566   1.490   4.116   1.045 -0.7600  0.4240  1.1811
 6311TIP3   OH240567   4.368   3.010   1.734  0.7076 -0.5077 -0.2618
 6311TIP3    H140568   4.442   2.951   1.720  0.5041 -0.3726 -2.0458
 6311TIP3    H240569   4.320   3.010   1.652 -2.0027 -1.5147  1.2067
 6312TIP3   OH240570   2.962   3.492   7.685 -0.0820  0.2589 -0.2702
 6312TIP3    H140571   3.034   3.463   7.629 -0.5697 -0.6508 -0.4448
 6312TIP3    H240572   2.885   3.491   7.629 -0.3342  0.6966  0.0596
 6313TIP3   OH240573   0.760   1.035   2.930  0.0546 -0.0218 -0.1022
 6313TIP3    H140574   0.835   1.024   2.871  0.4130  0.5855  0.2335
 6313TIP3    H240575   0.796   1.079   3.007 -0.3951 -0.8809  0.6128
 6314TIP3   OH240576   1.779   4.155   8.796  0.2516 -0.3494  0.7598
 6314TIP3    H140577   1.776   4.064   8.767 -0.6948 -0.0424 -0.1609
 6314TIP3    H240578   1.870   4.181   8.785  0.7880 -1.5092  2.1386
 6315TIP3   OH240579   6.432   4.134   8.412  0.0752  0.3592 -0.0539
 6315TIP3    H140580   6.447   4.135   8.318 -0.3387 -0.3338 -0.1377
 6315TIP3    H240581   6.517   4.152   8.451  0.6325 -1.0559 -0.5453
 6316TIP3   OH240582   5.918   5.017   1.525  0.2393 -1.2945  0.1097
 6316TIP3    H140583   5.988   4.985   1.468 -0.4869 -0.6355 -1.2011
 6316TIP3    H240584   5.847   5.040   1.465  0.3686  1.8865  0.9780
 6317TIP3   OH240585   3.279   4.296   0.900  0.4662  0.2837  0.5101
 6317TIP3    H140586   3.223   4.292   0.823 -1.8269  2.3591  1.9180
 6317TIP3    H240587   3.285   4.205   0.930 -1.2863 -0.1506 -0.3378
 6318TIP3   OH240588   4.741   0.887   0.731 -0.2732  0.0894 -0.9155
 6318TIP3    H140589   4.822   0.935   0.719 -0.3262  1.2930  2.3918
 6318TIP3    H240590   4.768   0.797   0.747  0.3607  0.2993 -0.7925
 6319TIP3   OH240591   4.798   0.447   6.759  0.5023 -0.3099  0.6426
 6319TIP3    H140592   4.824   0.357   6.742  0.2493 -0.7139  2.3069
 6319TIP3    H240593   4.719   0.441   6.812  1.1327  0.8559  1.7960
 6320TIP3   OH240594   1.812   5.517   1.774 -0.4628 -0.5914 -0.3782
 6320TIP3    H140595   1.800   5.511   1.869  1.2374 -0.3057 -0.1155
 6320TIP3    H240596   1.810   5.426   1.745  0.8701 -0.8259  0.2090
 6321TIP3   OH240597   0.058   1.730   0.685 -0.5193 -0.1703 -0.3310
 6321TIP3    H140598   0.090   1.764   0.769  0.4761 -1.1261 -0.3018
 6321TIP3    H240599  -0.008   1.666   0.709 -1.5812  0.8775 -0.3550
 6322TIP3   OH240600   3.827   6.605   2.101  0.0973 -0.3616 -0.6883
 6322TIP3    H140601   3.922   6.609   2.099  0.2440 -1.7269  0.9845
 6322TIP3    H240602   3.807   6.514   2.126 -1.5961  0.1263 -0.0889
 6323TIP3   OH240603   1.660   6.502   2.125  0.2405  0.1372  0.2409
 6323TIP3    H140604   1.634   6.422   2.171  0.1218  0.2598  0.3863
 6323TIP3    H240605   1.754   6.493   2.113  0.0772 -0.5354 -0.7131
 6324TIP3   OH240606   1.703   3.290   2.262 -0.5575 -0.1070 -0.3214
 6324TIP3    H140607   1.682   3.215   2.207  0.1762 -0.0844 -0.6386
 6324TIP3    H240608   1.773   3.259   2.320  0.1771  0.5032 -0.8648
 6325TIP3   OH240609   5.923   0.714   8.681 -0.4574 -0.1579  0.2455
 6325TIP3    H140610   5.912   0.619   8.688 -1.1239 -0.0930  0.1120
 6325TIP3    H240611   6.004   0.732   8.730 -1.4471 -0.5199  2.0930
 6326TIP3   OH240612   0.650   3.184   2.739 -0.3897 -0.0178 -0.3083
 6326TIP3    H140613   0.738   3.206   2.708  0.0615 -0.7954  0.3521
 6326TIP3    H240614   0.623   3.260   2.791 -0.2876  0.4008 -0.8635
 6327TIP3   OH240615   1.825   3.481   8.320 -0.2802 -0.1559 -0.6200
 6327TIP3    H140616   1.781   3.451   8.241  0.4777 -1.4491 -0.5926
 6327TIP3    H240617   1.842   3.400   8.369 -1.3432  0.6716  1.2030
 6328TIP3   OH240618   4.672   3.406   7.510 -0.2698 -0.0890  0.5639
 6328TIP3    H140619   4.603   3.352   7.471 -0.3889 -0.6669  1.5463
 6328TIP3    H240620   4.627   3.458   7.576  0.2114 -0.4513  1.1961
 6329TIP3   OH240621   2.248   3.798   8.155 -0.3609  0.0103  0.3439
 6329TIP3    H140622   2.299   3.832   8.081  0.6382 -2.5146 -0.2306
 6329TIP3    H240623   2.161   3.835   8.142 -0.3475 -0.7083 -2.4272
 6330TIP3   OH240624   0.927   2.792   1.819 -0.6944 -0.1584  0.5611
 6330TIP3    H140625   0.924   2.885   1.797 -2.1312  0.0392  1.4844
 6330TIP3    H240626   0.964   2.751   1.741  0.7799  1.2532  0.4461
 6331TIP3   OH240627   3.988   3.091   1.036  0.5524  0.5835  0.2500
 6331TIP3    H140628   4.018   3.153   0.970  2.2303 -1.5412 -1.1080
 6331TIP3    H240629   3.898   3.071   1.010  0.1029  2.1292  0.5146
 6332TIP3   OH240630   4.634   6.587   0.944 -0.2898 -0.3430  0.5162
 6332TIP3    H140631   4.693   6.523   0.982 -1.1922 -1.9108 -0.5960
 6332TIP3    H240632   4.668   6.672   0.972  1.4660 -1.2676  1.2859
 6333TIP3   OH240633   4.545   3.374   0.779 -0.2379 -0.5792  0.0121
 6333TIP3    H140634   4.615   3.328   0.825 -0.4650 -0.2584  0.6877
 6333TIP3    H240635   4.577   3.463   0.768 -0.8855 -0.1810  1.1401
 6334TIP3   OH240636   0.289   1.876   8.715  0.0042  0.2564  0.1283
 6334TIP3    H140637   0.243   1.953   8.683 -0.7107  0.1019  0.7658
 6334TIP3    H240638   0.268   1.872   8.808 -0.0528 -0.7739  0.0838
 6335TIP3   OH240639   0.501   2.129   1.559  0.1720 -0.2465  0.2787
 6335TIP3    H140640   0.590   2.136   1.593  0.0668 -0.5941  0.6490
 6335TIP3    H240641   0.449   2.103   1.636 -0.0967 -0.8971 -0.1154
 6336TIP3   OH240642   0.255   1.228   7.377  0.1006 -0.1992  0.2056
 6336TIP3    H140643   0.163   1.246   7.395  0.6881  1.5249  1.9783
 6336TIP3    H240644   0.280   1.292   7.310  0.4296  0.7563  1.1912
 6337TIP3   OH240645   4.833   3.943   1.974  0.1222  0.2931 -0.9029
 6337TIP3    H140646   4.900   3.893   1.927 -0.4780  1.3883 -3.0671
 6337TIP3    H240647   4.756   3.885   1.974  0.3037  0.0474 -0.7002
 6338TIP3   OH240648   5.153   3.861   7.763  0.0957 -0.4551 -0.0230
 6338TIP3    H140649   5.199   3.799   7.707 -0.9535 -0.8942 -0.4167
 6338TIP3    H240650   5.212   3.937   7.767 -0.1032 -0.1023 -2.3455
 6339TIP3   OH240651   6.347   1.473   2.152 -0.2160 -0.3634  0.1887
 6339TIP3    H140652   6.333   1.403   2.088 -0.8105  0.6076 -0.7797
 6339TIP3    H240653   6.323   1.554   2.106  2.5661  0.7630  0.5211
 6340TIP3   OH240654   5.161   4.357   1.863  0.5515  0.1146 -0.0283
 6340TIP3    H140655   5.071   4.389   1.867  0.1692 -1.0029  0.6180
 6340TIP3    H240656   5.160   4.275   1.913  1.6364 -0.6064 -1.1386
 6341TIP3   OH240657   5.713   4.977   7.044  0.0672  0.7009 -0.5085
 6341TIP3    H140658   5.670   4.891   7.042  1.9892 -0.4158  1.4867
 6341TIP3    H240659   5.645   5.038   7.018 -2.7621 -0.9637  2.2204
 6342TIP3   OH240660   0.337   1.605   7.865 -0.0052 -0.5731 -0.4866
 6342TIP3    H140661   0.320   1.550   7.942  0.2568 -1.6371 -1.1639
 6342TIP3    H240662   0.304   1.554   7.791  0.7126 -0.0460 -1.1937
 6343TIP3   OH240663   3.898   4.659   2.049 -0.1370  0.4320  0.0909
 6343TIP3    H140664   3.885   4.595   1.980  1.4858 -0.7360  0.8053
 6343TIP3    H240665   3.972   4.712   2.019 -0.1111  0.6028  0.4488
 6344TIP3   OH240666   4.651   0.559   1.047 -0.0054  0.5908  0.0469
 6344TIP3    H140667   4.669   0.589   0.958  0.8254 -1.9097 -0.7266
 6344TIP3    H240668   4.556   0.548   1.050 -0.1949  2.0378 -0.0209
 6345TIP3   OH240669   1.503   0.330   7.311  0.0586  0.1179  0.2947
 6345TIP3    H140670   1.585   0.324   7.262 -0.4116 -1.8730 -0.3442
 6345TIP3    H240671   1.441   0.366   7.249  0.3353  1.3148  0.6797
 6346TIP3   OH240672   6.306   6.737   0.150 -0.1557 -0.5634  0.5531
 6346TIP3    H140673   6.348   6.822   0.163  0.9208 -0.9359 -0.3885
 6346TIP3    H240674   6.225   6.743   0.201 -1.3238  1.9242 -1.3281
 6347TIP3   OH240675   4.310   5.903   7.886 -0.5681  0.1219  0.0429
 6347TIP3    H140676   4.304   5.999   7.880 -1.2206  0.1159  0.5772
 6347TIP3    H240677   4.234   5.877   7.938 -1.0632 -0.8063 -1.1161
 6348TIP3   OH240678   6.229   0.474   1.712  0.2714 -0.0972  0.9396
 6348TIP3    H140679   6.269   0.560   1.701  1.2316 -0.4545  1.5605
 6348TIP3    H240680   6.302   0.415   1.728 -0.2500 -1.2706 -0.7391
 6349TIP3   OH240681   0.258   1.661   0.476 -0.4524  0.5930  0.2200
 6349TIP3    H140682   0.216   1.689   0.557 -0.7321  1.5479 -0.2310
 6349TIP3    H240683   0.201   1.592   0.442 -0.0153 -0.2390  1.1127
 6350TIP3   OH240684   0.262   4.919   1.746 -0.1929 -0.3133 -0.1898
 6350TIP3    H140685   0.342   4.868   1.759  0.0149  0.0879  0.0937
 6350TIP3    H240686   0.292   5.008   1.730 -0.6087 -0.0153  0.6380
 6351TIP3   OH240687   2.369   3.968   1.569  0.3165 -0.2665 -0.4400
 6351TIP3    H140688   2.453   3.952   1.613  0.4994 -1.6453 -1.2253
 6351TIP3    H240689   2.382   3.934   1.481 -0.3022  1.7185 -1.3602
 6352TIP3   OH240690   3.332   0.444   7.960 -0.2343  0.1388  0.3015
 6352TIP3    H140691   3.392   0.371   7.942 -1.1263 -0.1073 -1.9561
 6352TIP3    H240692   3.387   0.522   7.950  0.1680 -0.1330  0.3343
 6353TIP3   OH240693   4.480   2.443   7.106  0.1658 -0.3967 -0.1900
 6353TIP3    H140694   4.543   2.448   7.034  0.3772 -4.0801 -0.4361
 6353TIP3    H240695   4.532   2.466   7.184  0.6795  0.7759 -0.8548
 6354TIP3   OH240696   5.656   0.684   1.580 -0.1387 -0.5918  0.6043
 6354TIP3    H140697   5.749   0.661   1.584  0.2580  1.0067  2.1908
 6354TIP3    H240698   5.615   0.628   1.646  0.0122 -0.1355  1.0967
 6355TIP3   OH240699   2.000   2.633   2.379 -0.1496  0.7515  0.7743
 6355TIP3    H140700   1.977   2.713   2.427 -0.9283  0.6053  0.6564
 6355TIP3    H240701   2.083   2.605   2.417 -1.3931 -0.1236  3.0160
 6356TIP3   OH240702   2.631   1.245   8.577 -0.2696 -0.2921 -0.3774
 6356TIP3    H140703   2.567   1.187   8.617 -0.4492  0.2693  0.1684
 6356TIP3    H240704   2.615   1.239   8.483 -0.7627 -0.5707 -0.2739
 6357TIP3   OH240705   5.161   2.535   7.728  0.2648  0.4094  1.0898
 6357TIP3    H140706   5.100   2.501   7.794 -0.6790  0.6940  0.3930
 6357TIP3    H240707   5.191   2.618   7.763  0.1477  0.3271  1.3843
 6358TIP3   OH240708   0.277   5.222   2.388 -0.0258 -0.0988  0.1300
 6358TIP3    H140709   0.270   5.158   2.459  0.7295  0.0663  0.3591
 6358TIP3    H240710   0.187   5.250   2.372 -0.1244  0.4837  1.5864
 6359TIP3   OH240711   1.133   2.458   1.299  0.4604  0.0406  0.8789
 6359TIP3    H140712   1.049   2.470   1.344 -0.5227 -0.6415 -0.6973
 6359TIP3    H240713   1.193   2.516   1.346 -0.7354  0.1095  2.4171
 6360TIP3   OH240714   6.471   4.676   3.165  0.4616 -0.1162  0.0411
 6360TIP3    H140715   6.472   4.769   3.186  1.4030 -0.0846 -0.1168
 6360TIP3    H240716   6.382   4.648   3.186  0.2974  0.7204  0.5086
 6361TIP3   OH240717   4.915   2.454   7.257 -0.7749  0.0322  0.0299
 6361TIP3    H140718   4.942   2.368   7.227 -2.4761 -0.1547 -1.0632
 6361TIP3    H240719   4.916   2.509   7.179 -0.8228  0.7193  0.4993
 6362TIP3   OH240720   1.563   0.271   8.112 -0.3767  0.2966 -0.3291
 6362TIP3    H140721   1.640   0.322   8.139  0.6196 -1.1512 -0.3303
 6362TIP3    H240722   1.599   0.198   8.062 -1.8077 -0.1393 -0.7552
 6363TIP3   OH240723   5.584   0.909   0.961 -0.0397  0.2071 -0.1214
 6363TIP3    H140724   5.618   0.862   1.037  3.1712 -0.8755 -2.0218
 6363TIP3    H240725   5.540   0.842   0.909 -0.8555  0.6266  0.0098
 6364TIP3   OH240726   0.974   5.050   8.340 -0.8852 -0.7342  0.1490
 6364TIP3    H140727   0.979   5.082   8.250  0.5416 -0.3468  0.3372
 6364TIP3    H240728   0.964   4.956   8.332  2.1632 -1.1038 -0.4925
 6365TIP3   OH240729   4.758   5.953   8.751 -0.3607  0.1241 -0.2021
 6365TIP3    H140730   4.758   6.016   8.823 -2.4113 -2.4991  2.3446
 6365TIP3    H240731   4.808   5.879   8.783  1.0974 -0.0926 -2.6879
 6366TIP3   OH240732   4.253   1.882   2.475  0.4194 -0.3846 -0.2983
 6366TIP3    H140733   4.194   1.831   2.531 -0.1801 -0.2422 -0.7921
 6366TIP3    H240734   4.221   1.972   2.483  2.3272  0.2308  1.7048
 6367TIP3   OH240735   4.013   4.546   7.625  0.2369 -0.1603 -0.4034
 6367TIP3    H140736   4.015   4.629   7.578 -0.7261 -0.5127 -1.0924
 6367TIP3    H240737   4.084   4.553   7.688 -0.5084  1.6442  0.3191
 6368TIP3   OH240738   1.373   3.180   2.287 -0.2750  0.2285  0.4839
 6368TIP3    H140739   1.388   3.174   2.381 -0.5720 -1.1258  0.4711
 6368TIP3    H240740   1.279   3.164   2.276  0.1588 -2.4658 -0.1834
 6369TIP3   OH240741   6.211   4.385   0.051 -0.1743  0.0566  0.1695
 6369TIP3    H140742   6.159   4.462   0.071 -0.1610 -0.6476  3.6461
 6369TIP3    H240743   6.147   4.314   0.042 -0.0763 -0.5910  3.3148
 6370TIP3   OH240744   4.419   0.098   8.689 -0.9382  0.0653 -0.1113
 6370TIP3    H140745   4.340   0.150   8.709 -1.0726  0.1484 -0.8228
 6370TIP3    H240746   4.442   0.124   8.599  0.4933  0.7987  0.4319
 6371TIP3   OH240747   1.010   0.770   7.531  0.3201 -0.4866 -0.1352
 6371TIP3    H140748   0.946   0.832   7.567  0.8121 -0.5489  0.9113
 6371TIP3    H240749   0.958   0.697   7.499 -0.1527 -0.5019  0.6370
 6372TIP3   OH240750   2.203   3.957   1.792 -0.4770  0.1114 -0.0761
 6372TIP3    H140751   2.187   4.051   1.805 -2.1635 -0.0473 -0.7747
 6372TIP3    H240752   2.223   3.949   1.699  0.4694 -0.1433  0.1384
 6373TIP3   OH240753   0.756   6.305   2.115 -0.4199  0.3864  0.3185
 6373TIP3    H140754   0.763   6.400   2.120  0.7393  0.2657  1.8492
 6373TIP3    H240755   0.805   6.273   2.191  2.2394 -1.5263 -1.9729
 6374TIP3   OH240756   4.364   0.703   2.711 -0.5172  0.2482  0.7859
 6374TIP3    H140757   4.272   0.700   2.737 -0.9525  1.6793 -0.4390
 6374TIP3    H240758   4.398   0.617   2.734 -2.2194 -0.4029  1.0289
 6375TIP3   OH240759   6.029   5.975   7.528  0.0734 -0.4972 -0.4041
 6375TIP3    H140760   6.062   5.994   7.617 -0.6286  0.7252 -0.3929
 6375TIP3    H240761   6.100   5.926   7.487  1.6879  1.4594 -0.1351
 6376TIP3   OH240762   3.240   4.681   7.446  0.6125 -0.5257 -0.8712
 6376TIP3    H140763   3.168   4.618   7.450  0.5170 -0.3877  2.5282
 6376TIP3    H240764   3.237   4.715   7.357 -1.6310 -2.6725 -1.7321
 6377TIP3   OH240765   5.104   6.235   7.409  0.1892 -0.4669 -0.5332
 6377TIP3    H140766   5.085   6.141   7.413 -0.2707 -0.4680 -2.1811
 6377TIP3    H240767   5.189   6.240   7.367  0.3736 -0.1420 -0.1293
 6378TIP3   OH240768   2.477   3.721   0.977  0.0164  0.4868 -0.1058
 6378TIP3    H140769   2.400   3.763   1.014 -0.2107 -0.3614  0.4024
 6378TIP3    H240770   2.456   3.709   0.885  0.1088  1.5248 -0.2761
 6379TIP3   OH240771   6.287   1.628   7.035 -0.4317  0.0094  0.1504
 6379TIP3    H140772   6.346   1.651   7.106 -2.0862 -0.0240  1.6145
 6379TIP3    H240773   6.322   1.547   6.999  2.0693  1.5058 -1.0679
 6380TIP3   OH240774   5.528   1.674   0.986 -0.1350  0.2799  0.6926
 6380TIP3    H140775   5.534   1.601   1.048  3.3869 -0.0327  0.1799
 6380TIP3    H240776   5.483   1.636   0.910 -1.4301 -0.3118  1.7139
 6381TIP3   OH240777   3.402   2.863   8.304 -0.1026 -0.5578  0.1701
 6381TIP3    H140778   3.346   2.785   8.306 -0.2965 -0.4092  0.8255
 6381TIP3    H240779   3.462   2.847   8.232  1.7579 -2.6350  2.0280
 6382TIP3   OH240780   5.897   4.045   8.521 -0.2462  0.0961  0.4816
 6382TIP3    H140781   5.910   4.131   8.560 -1.5078  0.3158  0.4572
 6382TIP3    H240782   5.932   4.053   8.432 -0.4302  0.6008  0.4564
 6383TIP3   OH240783   3.837   0.084   1.364  0.1691 -0.1237  0.8019
 6383TIP3    H140784   3.818   0.007   1.418 -0.2490 -0.4305  0.2239
 6383TIP3    H240785   3.879   0.145   1.424  0.2129 -0.6764  1.3470
 6384TIP3   OH240786   4.265   6.030   3.255 -0.2199  0.2897 -0.3025
 6384TIP3    H140787   4.288   5.940   3.279 -1.7753 -0.4989 -1.5432
 6384TIP3    H240788   4.325   6.051   3.183 -1.3071 -0.6476 -1.5366
 6385TIP3   OH240789   5.242   3.607   0.964 -0.1098  0.0032 -0.2311
 6385TIP3    H140790   5.245   3.589   1.058 -3.3347 -1.5032 -0.2755
 6385TIP3    H240791   5.314   3.556   0.928  0.8535  0.1750  1.3452
 6386TIP3   OH240792   4.198   6.052   8.176 -0.7220 -0.1022 -0.0671
 6386TIP3    H140793   4.129   6.086   8.119 -0.3006 -0.2879 -0.7064
 6386TIP3    H240794   4.267   6.119   8.173 -0.0366 -0.8135 -1.0547
 6387TIP3   OH240795   1.352   1.055   2.098  0.1474  0.4079  0.0849
 6387TIP3    H140796   1.431   1.063   2.044  0.1829 -2.3572 -0.4377
 6387TIP3    H240797   1.281   1.046   2.034 -0.2940  0.7150  0.5293
 6388TIP3   OH240798   5.920   3.345   7.742 -0.0824 -0.7369  0.2870
 6388TIP3    H140799   5.871   3.361   7.822 -0.4580 -0.5621  0.0277
 6388TIP3    H240800   5.852   3.332   7.675  0.2206  0.0816 -0.1928
 6389TIP3   OH240801   1.568   2.788   0.486 -0.2936 -0.1312 -0.3245
 6389TIP3    H140802   1.568   2.846   0.409  1.5789  0.8651  0.3473
 6389TIP3    H240803   1.521   2.710   0.457 -1.1755  0.9171 -1.9102
 6390TIP3   OH240804   1.623   1.114   8.073 -0.3733 -0.6574 -0.0772
 6390TIP3    H140805   1.656   1.175   8.138 -1.4687 -1.7925  1.6400
 6390TIP3    H240806   1.701   1.078   8.031  0.3104  1.0424 -0.3527
 6391TIP3   OH240807   0.158   5.203   1.530  0.1416  0.2684 -0.0916
 6391TIP3    H140808   0.133   5.229   1.619 -2.5312 -1.1838 -0.2983
 6391TIP3    H240809   0.106   5.259   1.473  1.0162  0.4395 -0.7339
 6392TIP3   OH240810   2.899   2.716   0.853 -0.4652  0.3694  0.2836
 6392TIP3    H140811   2.809   2.748   0.856 -1.1838 -0.6404 -3.8111
 6392TIP3    H240812   2.897   2.645   0.789  3.0322 -0.6362  1.0756
 6393TIP3   OH240813   4.996   0.675   2.216  0.0612  0.0627  0.0539
 6393TIP3    H140814   5.079   0.722   2.210 -0.3862  0.8129 -0.3861
 6393TIP3    H240815   4.996   0.617   2.139  0.6295 -0.7096  0.6182
 6394TIP3   OH240816   0.886   3.065   2.069  0.6626  0.0203 -0.4415
 6394TIP3    H140817   0.793   3.042   2.073  0.2029  1.8279  0.1406
 6394TIP3    H240818   0.928   3.009   2.134 -0.0740 -0.5809 -0.4743
 6395TIP3   OH240819   2.563   5.228   8.265 -0.2791 -0.1307  0.3723
 6395TIP3    H140820   2.654   5.215   8.290 -0.3641  0.1155  0.8153
 6395TIP3    H240821   2.568   5.276   8.182 -0.0005  1.2514  1.1453
 6396TIP3   OH240822   3.536   4.870   7.741  0.3978 -0.0070 -0.2491
 6396TIP3    H140823   3.585   4.795   7.775 -2.4194 -2.4342 -1.1276
 6396TIP3    H240824   3.468   4.885   7.807  0.0650  0.8864 -0.7800
 6397TIP3   OH240825   5.385   0.565   8.222  0.0572  0.3862 -0.1266
 6397TIP3    H140826   5.354   0.489   8.172  0.3899 -0.3646  0.7706
 6397TIP3    H240827   5.469   0.587   8.182 -0.5746  1.0370 -1.1410
 6398TIP3   OH240828   1.789   2.653   1.651  0.3056 -0.0313 -0.2319
 6398TIP3    H140829   1.818   2.562   1.665 -0.3581 -0.0579  1.1458
 6398TIP3    H240830   1.778   2.660   1.556  1.7627 -0.9463 -0.5200
 6399TIP3   OH240831   5.009   0.695   7.668 -0.4083 -0.1241 -0.0890
 6399TIP3    H140832   5.040   0.738   7.589  0.9749 -1.9280 -0.5921
 6399TIP3    H240833   4.941   0.636   7.638 -3.0046  2.2321  0.7261
 6400TIP3   OH240834   4.310   6.662   7.778 -0.2855 -0.4463  0.3995
 6400TIP3    H140835   4.394   6.691   7.812 -0.6829  0.7478  0.4116
 6400TIP3    H240836   4.294   6.577   7.820  0.8089 -0.5885  0.5386
 6401TIP3   OH240837   4.129   6.278   3.292  0.3759 -0.6538  0.2659
 6401TIP3    H140838   4.208   6.332   3.287 -0.2467  0.3251  0.6806
 6401TIP3    H240839   4.161   6.188   3.287  1.5077 -0.2701  0.3437
 6402TIP3   OH240840   4.185   6.596   7.094 -0.2432  0.3657 -0.0440
 6402TIP3    H140841   4.267   6.566   7.131  2.4055  0.9243 -4.6766
 6402TIP3    H240842   4.172   6.684   7.131  0.6467 -0.1134  1.4710
 6403TIP3   OH240843   3.125   5.166   1.661 -0.0662  0.5920 -0.3469
 6403TIP3    H140844   3.096   5.079   1.688 -0.4625  0.4309 -1.2820
 6403TIP3    H240845   3.044   5.217   1.652  0.2196  1.4607  1.4769
 6404TIP3   OH240846   3.165   6.138   2.220  0.0937  0.1964  0.1158
 6404TIP3    H140847   3.185   6.173   2.134  0.5397  0.2855  0.2499
 6404TIP3    H240848   3.226   6.064   2.231  0.2785  0.4006  0.4919
 6405TIP3   OH240849   6.192   3.561   1.437  0.0620 -0.6751  0.0083
 6405TIP3    H140850   6.197   3.468   1.458 -1.8715 -0.4907  1.5040
 6405TIP3    H240851   6.213   3.605   1.520  2.3467  0.3045 -1.0005
 6406TIP3   OH240852   6.469   0.024   1.942 -0.2093  0.0675 -0.1193
 6406TIP3    H140853   6.459  -0.027   1.862  1.6087 -1.3429  0.4999
 6406TIP3    H240854   6.433  -0.031   2.011 -2.3820  1.5444  0.0285
 6407TIP3   OH240855   6.423   0.142   6.915 -0.9464 -0.0618 -0.5633
 6407TIP3    H140856   6.401   0.070   6.856 -1.8250 -1.0606  0.9328
 6407TIP3    H240857   6.425   0.103   7.002 -2.3320  1.8530  0.4113
 6408TIP3   OH240858   5.703   5.986   0.935  0.0093  0.2307 -0.4281
 6408TIP3    H140859   5.651   6.052   0.889 -1.9546 -0.9603 -0.0633
 6408TIP3    H240860   5.663   5.981   1.022  0.4297 -1.0687 -0.2866
 6409TIP3   OH240861   4.094   3.648   2.192  0.3653  0.1089 -0.0478
 6409TIP3    H140862   4.026   3.585   2.168  0.0323 -0.3996  2.0006
 6409TIP3    H240863   4.052   3.734   2.183  0.1942 -0.0551 -0.9419
 6410TIP3   OH240864   3.476   6.523   7.357  0.3483  0.0997 -0.6473
 6410TIP3    H140865   3.385   6.533   7.386  0.7724  0.7598  0.4809
 6410TIP3    H240866   3.480   6.571   7.275 -0.4724 -0.4752 -1.0423
 6411TIP3   OH240867   1.937   4.759   2.153 -0.7980 -0.3218 -0.0213
 6411TIP3    H140868   1.974   4.744   2.240 -0.8032  1.2193  0.2627
 6411TIP3    H240869   2.000   4.718   2.093  0.4423  0.6423  0.5744
 6412TIP3   OH240870   2.807   4.600   1.186  0.1315 -0.3033 -0.3154
 6412TIP3    H140871   2.858   4.539   1.133  2.5981  1.7448 -0.5132
 6412TIP3    H240872   2.871   4.640   1.245 -1.7568  0.5920  1.2475
 6413TIP3   OH240873   6.199   3.950   1.926 -0.3569 -0.3055  0.3930
 6413TIP3    H140874   6.257   3.875   1.934  0.0020 -0.2870 -1.5386
 6413TIP3    H240875   6.123   3.916   1.878 -0.9391  0.2042  0.9334
 6414TIP3   OH240876   4.753   0.961   7.492 -0.2572 -0.0487  0.0820
 6414TIP3    H140877   4.832   0.974   7.441  0.7313 -0.5209  1.4305
 6414TIP3    H240878   4.688   0.929   7.429 -0.2520  2.9020 -1.6049
 6415TIP3   OH240879   2.113   4.610   0.517 -0.4233  0.7093 -0.7352
 6415TIP3    H140880   2.022   4.580   0.519 -0.4459  0.8089  0.5218
 6415TIP3    H240881   2.154   4.559   0.447 -0.6200 -1.8731  0.8919
 6416TIP3   OH240882   1.833   0.845   7.291  0.3798  0.1498 -0.2235
 6416TIP3    H140883   1.769   0.892   7.238 -1.3337 -1.0017  0.7310
 6416TIP3    H240884   1.812   0.753   7.277  1.8081 -0.2566  0.1772
 6417TIP3   OH240885   5.690   3.839   1.508  0.5517  0.0914 -0.3888
 6417TIP3    H140886   5.767   3.790   1.536  0.6323  0.1416 -0.5214
 6417TIP3    H240887   5.672   3.900   1.580 -0.0485 -0.7032  0.1485
 6418TIP3   OH240888   2.394   4.142   1.272 -0.0469  0.3869  0.7101
 6418TIP3    H140889   2.373   4.063   1.322  0.5228  1.2181  2.3232
 6418TIP3    H240890   2.316   4.197   1.280 -0.4237  0.0559 -0.3721
 6419TIP3   OH240891   2.788   5.364   2.077 -0.2102 -0.1606  0.0240
 6419TIP3    H140892   2.775   5.441   2.131  1.6746 -0.3318  0.7892
 6419TIP3    H240893   2.831   5.301   2.134  0.6225 -0.8311 -1.2781
 6420TIP3   OH240894   4.968   5.464   8.328 -0.2745  0.8384  0.2238
 6420TIP3    H140895   4.951   5.370   8.332  0.0803  0.5706 -2.5756
 6420TIP3    H240896   4.892   5.504   8.369 -0.9365 -0.6637  0.5136
 6421TIP3   OH240897   5.979   4.772   3.173 -0.1580 -0.0509  0.0024
 6421TIP3    H140898   5.984   4.830   3.097 -0.5452  0.2110  0.1745
 6421TIP3    H240899   5.888   4.741   3.173 -0.9770  2.0712  1.9053
 6422TIP3   OH240900   6.198   5.839   1.095  0.2998  0.0080 -0.4922
 6422TIP3    H140901   6.204   5.899   1.170  0.1295 -1.3015  0.6209
 6422TIP3    H240902   6.145   5.885   1.031  1.0860  1.4792 -0.1267
 6423TIP3   OH240903   3.177   1.712   2.521 -0.2876 -0.1948 -0.0707
 6423TIP3    H140904   3.263   1.751   2.537  0.1276 -1.2062  0.1901
 6423TIP3    H240905   3.174   1.699   2.426 -0.4974  0.6053 -0.1834
 6424TIP3   OH240906   5.517   3.352   1.124  0.0458 -0.1368 -0.3296
 6424TIP3    H140907   5.442   3.297   1.148  0.4174 -0.3910  0.2668
 6424TIP3    H240908   5.577   3.291   1.081 -0.7272  0.3610 -2.2163
 6425TIP3   OH240909   0.426   4.630   6.724 -0.2518  0.6871 -0.3067
 6425TIP3    H140910   0.518   4.649   6.711 -0.1971  0.0137 -0.9501
 6425TIP3    H240911   0.420   4.603   6.816  0.5564 -1.2567 -0.7756
 6426TIP3   OH240912   2.440   5.142   8.569 -0.4051  0.0698  0.3026
 6426TIP3    H140913   2.428   5.186   8.485  1.0101 -0.0111  0.0431
 6426TIP3    H240914   2.443   5.049   8.548  0.4108  0.0734  0.3781
 6427TIP3   OH240915   4.093   2.806   0.842  0.0055  0.0360  0.4528
 6427TIP3    H140916   4.099   2.880   0.902  3.0992  0.1214  0.1707
 6427TIP3    H240917   4.029   2.834   0.776  0.3382  2.0306  0.9044
 6428TIP3   OH240918   5.295   1.646   8.831  0.1110 -0.4217 -0.6365
 6428TIP3    H140919   5.255   1.594   8.762 -1.8737  1.1868 -0.7931
 6428TIP3    H240920   5.305   1.733   8.793  1.3518 -0.1160  0.3071
 6429TIP3   OH240921   3.506   2.857   8.052 -0.1785  0.3390  0.1255
 6429TIP3    H140922   3.562   2.861   7.974 -0.6836  0.4348 -0.2340
 6429TIP3    H240923   3.432   2.802   8.026 -0.7730  1.0700  0.2692
 6430TIP3   OH240924   5.169   1.886   2.027  0.2054  0.2647  0.1140
 6430TIP3    H140925   5.179   1.869   1.933 -1.1457  1.4942 -0.3045
 6430TIP3    H240926   5.226   1.823   2.069  0.3660 -0.7467 -1.5152
 6431TIP3   OH240927   5.439   4.780   1.650  0.0193 -0.3351  0.2646
 6431TIP3    H140928   5.368   4.780   1.715 -0.5507 -1.9231 -0.3308
 6431TIP3    H240929   5.495   4.707   1.676 -0.9260 -1.8527 -1.7524
 6432TIP3   OH240930   1.103   0.845   8.454 -0.1618 -0.1683 -0.2997
 6432TIP3    H140931   1.127   0.756   8.427 -0.8875 -0.0751 -1.3135
 6432TIP3    H240932   1.007   0.845   8.453 -0.3067 -0.3048  2.8652
 6433TIP3   OH240933   4.416   6.341   0.088  0.3043  0.6249 -0.1254
 6433TIP3    H140934   4.482   6.325   0.020 -0.5526  0.7054 -0.9978
 6433TIP3    H240935   4.415   6.261   0.140 -0.2469 -0.1449 -1.2757
 6434TIP3   OH240936   2.760   0.552   2.115 -0.5408  0.3312 -0.3551
 6434TIP3    H140937   2.808   0.540   2.034 -0.1302  0.6562 -0.1644
 6434TIP3    H240938   2.790   0.637   2.149 -1.6879  0.8327 -0.5389
 6435TIP3   OH240939   3.082   5.384   8.390 -0.8944  0.0172  0.0708
 6435TIP3    H140940   3.044   5.471   8.376  0.7717  0.8464  0.4820
 6435TIP3    H240941   3.029   5.346   8.460 -1.5441  0.7757  0.0030
 6436TIP3   OH240942   6.292   4.522   2.862 -0.5148 -0.1491 -0.5063
 6436TIP3    H140943   6.285   4.560   2.949  2.0265  1.2912 -0.8356
 6436TIP3    H240944   6.376   4.477   2.861  0.4633  1.5033 -2.7193
 6437TIP3   OH240945   1.194   0.930   6.870 -0.1443 -0.5956  0.5930
 6437TIP3    H140946   1.231   0.852   6.912  1.2160 -1.0277 -1.2937
 6437TIP3    H240947   1.266   0.992   6.864 -0.7740  0.1497  0.5137
 6438TIP3   OH240948   1.407   4.354   1.350 -0.1144  0.4830  0.3933
 6438TIP3    H140949   1.387   4.369   1.442  0.0291 -0.3091  0.5582
 6438TIP3    H240950   1.392   4.439   1.308 -2.8426  0.2228  0.6588
 6439TIP3   OH240951   1.496   3.076   8.659 -0.5129 -0.4803 -0.6708
 6439TIP3    H140952   1.543   3.116   8.586 -1.0182 -0.7866 -1.1753
 6439TIP3    H240953   1.559   3.074   8.731 -0.7632  2.1756 -0.2807
 6440TIP3   OH240954   3.714   1.506   7.703 -0.2405 -0.8073 -0.3867
 6440TIP3    H140955   3.683   1.446   7.635 -1.7190 -0.5019 -0.0202
 6440TIP3    H240956   3.711   1.454   7.783 -1.2340 -0.3558 -0.1176
 6441TIP3   OH240957   5.299   5.873   7.531  0.5794 -0.9717  0.6125
 6441TIP3    H140958   5.283   5.963   7.559  2.9240 -0.5870  0.8823
 6441TIP3    H240959   5.303   5.823   7.613  0.1414 -1.1825  0.5090
 6442TIP3   OH240960   5.769   1.388   7.411  0.1259 -0.2140 -0.5319
 6442TIP3    H140961   5.675   1.400   7.422  0.1814 -0.8578  0.9366
 6442TIP3    H240962   5.799   1.353   7.496  1.8402  0.8745 -0.6342
 6443TIP3   OH240963   0.274   4.725   1.105  0.2424 -0.1547  0.0910
 6443TIP3    H140964   0.251   4.720   1.198 -1.0323  0.6100 -0.1612
 6443TIP3    H240965   0.193   4.702   1.059  0.5388  0.6141 -0.8402
 6444TIP3   OH240966   3.645   2.985   8.355  0.0351 -0.3811 -0.5186
 6444TIP3    H140967   3.555   2.979   8.324 -0.0751 -0.8604 -0.1146
 6444TIP3    H240968   3.677   2.895   8.353  0.9833 -0.0568 -2.0497
 6445TIP3   OH240969   0.614   3.166   2.072 -0.1067 -0.1607 -0.5399
 6445TIP3    H140970   0.548   3.195   2.135  0.9260 -0.1510  0.5888
 6445TIP3    H240971   0.565   3.116   2.007 -1.1236 -0.9591  0.7651
 6446TIP3   OH240972   6.465   1.021   0.384  0.6044 -0.4038 -0.1438
 6446TIP3    H140973   6.392   1.069   0.346  0.3744 -0.4652  0.2132
 6446TIP3    H240974   6.498   1.078   0.454  1.7652  0.2299 -1.1745
 6447TIP3   OH240975   0.197   0.466   2.496 -0.0658 -0.0191  0.4646
 6447TIP3    H140976   0.267   0.417   2.540 -0.2128  0.3055  1.0730
 6447TIP3    H240977   0.235   0.493   2.413  0.0084 -1.1862  0.1099
 6448TIP3   OH240978   1.102   4.697   7.464  0.5138  0.7319  0.3929
 6448TIP3    H140979   1.039   4.753   7.417  0.6473  0.8128  0.3087
 6448TIP3    H240980   1.141   4.643   7.395 -0.6282 -0.4793  0.6402
 6449TIP3   OH240981   2.851   6.028   2.096  0.0428  0.1090 -0.1936
 6449TIP3    H140982   2.927   6.040   2.153 -0.1190 -0.8654  0.2418
 6449TIP3    H240983   2.826   6.116   2.070  0.8220  0.4883  0.3202
 6450TIP3   OH240984   0.697   6.756   0.068  0.3309 -0.6967  0.1678
 6450TIP3    H140985   0.788   6.777   0.051  0.8549 -2.9636 -0.1987
 6450TIP3    H240986   0.679   6.791   0.155  1.6166 -0.4415  0.3410
 6451TIP3   OH240987   6.733   2.513   7.669  0.3155 -0.2165 -0.2187
 6451TIP3    H140988   6.743   2.603   7.638  2.3164 -0.6454 -0.9915
 6451TIP3    H240989   6.687   2.468   7.599  0.2572 -0.0259 -0.3031
 6452TIP3   OH240990   6.053   5.107   8.602 -0.3132  0.5178  0.7863
 6452TIP3    H140991   6.098   5.129   8.521 -1.2883  0.6055  0.2533
 6452TIP3    H240992   5.966   5.079   8.575 -0.4141 -0.1772  1.7514
 6453TIP3   OH240993   2.646   6.217   1.193  0.3169 -0.8136 -0.0456
 6453TIP3    H140994   2.631   6.123   1.182  0.1104 -0.9489  1.2309
 6453TIP3    H240995   2.583   6.244   1.261  2.0575 -0.2689  1.4287
 6454TIP3   OH240996   2.092   4.611   7.369  0.1114 -0.1074 -0.1955
 6454TIP3    H140997   2.073   4.703   7.352  0.8819 -0.1230 -1.2209
 6454TIP3    H240998   2.079   4.568   7.285  1.1875 -0.6865 -0.0807
 6455TIP3   OH240999   5.923   6.767   8.818 -0.2072 -0.6931  0.0181
 6455TIP3    H141000   5.933   6.749   8.912 -1.8062  0.0683  0.3587
 6455TIP3    H241001   5.953   6.857   8.807 -0.1518 -0.7360 -0.1884
 6456TIP3   OH241002   1.879   4.419   2.220 -0.3842  0.0305 -0.3722
 6456TIP3    H141003   1.805   4.457   2.267 -0.8576  0.3015 -1.3173
 6456TIP3    H241004   1.941   4.491   2.211  0.3365 -0.3728  1.0472
 6457TIP3   OH241005   6.817   4.334   7.307  0.0442 -0.0538  0.3756
 6457TIP3    H141006   6.903   4.302   7.280  0.5445  0.9683  0.6998
 6457TIP3    H241007   6.756   4.297   7.243  1.1040  1.7710 -1.8259
 6458TIP3   OH241008   2.391   3.964   7.976 -0.0262  0.2651  0.0508
 6458TIP3    H141009   2.424   4.029   7.914  0.6463 -0.8065 -0.7344
 6458TIP3    H241010   2.436   3.983   8.058 -0.3063  1.1753  0.0023
 6459TIP3   OH241011   2.490   0.115   0.403 -0.3339  0.6355  0.0599
 6459TIP3    H141012   2.427   0.044   0.417 -0.8318  0.8102 -1.1512
 6459TIP3    H241013   2.500   0.155   0.489  2.7845 -3.1046  1.7529
 6460TIP3   OH241014   5.277   3.076   2.940 -0.0597 -0.1585 -0.3556
 6460TIP3    H141015   5.289   3.029   2.858  0.2698 -0.7889  0.0462
 6460TIP3    H241016   5.253   3.008   3.003  0.5378  0.1958  0.2609
 6461TIP3   OH241017   1.477   5.777   0.536  1.2307 -0.6429  0.3857
 6461TIP3    H141018   1.526   5.804   0.613  0.4639  0.2472  0.5771
 6461TIP3    H241019   1.410   5.718   0.570 -0.8610  1.8240  0.8771
 6462TIP3   OH241020   2.012   2.693   8.845 -0.2429 -0.4972  0.0420
 6462TIP3    H141021   1.962   2.626   8.798 -2.2095 -1.4059  3.1421
 6462TIP3    H241022   2.052   2.647   8.919  1.7740  1.0597  0.0099
 6463TIP3   OH241023   3.041   4.903   0.119  0.3863 -0.8025  0.2545
 6463TIP3    H141024   3.036   4.922   0.213  1.1124  1.7127 -0.1266
 6463TIP3    H241025   2.952   4.879   0.094 -0.1139 -0.1695  1.3517
 6464TIP3   OH241026   5.669   3.868   8.484  0.1829  0.4135 -0.3035
 6464TIP3    H141027   5.696   3.782   8.454 -1.4542 -0.1606 -0.2506
 6464TIP3    H241028   5.751   3.912   8.508  1.1080 -0.8398 -1.0339
 6465TIP3   OH241029   0.814   6.513   7.966  0.0772  0.4747  0.4028
 6465TIP3    H141030   0.820   6.419   7.985 -1.1426  0.2358 -0.3010
 6465TIP3    H241031   0.851   6.522   7.878 -1.9066  0.2703 -0.4926
 6466TIP3   OH241032   6.546   1.164   8.288  0.3993 -0.0689  0.1312
 6466TIP3    H141033   6.592   1.102   8.344 -1.2014  0.5583  2.3087
 6466TIP3    H241034   6.506   1.111   8.220  1.4329 -1.0255  0.2476
 6467TIP3   OH241035   4.097   5.433   0.610  0.0874  0.0702 -0.0498
 6467TIP3    H141036   4.074   5.360   0.667 -0.0845 -0.9824 -1.4265
 6467TIP3    H241037   4.065   5.407   0.524  2.1918  0.6933 -1.0669
 6468TIP3   OH241038   6.651   3.426   8.081  0.0437  0.4818  0.2402
 6468TIP3    H141039   6.667   3.363   8.011  2.7599  0.1967  1.0231
 6468TIP3    H241040   6.610   3.374   8.150  0.5728 -0.0188  0.1852
 6469TIP3   OH241041   1.120   2.429   2.209 -0.3438 -0.2975 -0.3867
 6469TIP3    H141042   1.028   2.404   2.212 -0.0671 -1.2877  1.2206
 6469TIP3    H241043   1.153   2.409   2.297  0.8783  2.1605 -0.1772
 6470TIP3   OH241044   0.323   0.468   8.467  0.6976 -0.5389 -0.1691
 6470TIP3    H141045   0.409   0.506   8.488  0.3814 -1.0897  2.5043
 6470TIP3    H241046   0.263   0.510   8.528 -0.2947 -2.6390  0.4098
 6471TIP3   OH241047   5.462   4.279   1.289 -0.5127  0.1070 -0.3554
 6471TIP3    H141048   5.433   4.201   1.244  0.0818  0.2268 -0.9701
 6471TIP3    H241049   5.487   4.340   1.219 -0.2678  0.5683  0.1191
 6472TIP3   OH241050   0.389   6.458   1.892 -0.5328  0.1479  0.1662
 6472TIP3    H141051   0.400   6.369   1.861  1.1186  0.6768 -0.9137
 6472TIP3    H241052   0.417   6.456   1.984 -0.5013 -0.4468  0.1443
 6473TIP3   OH241053   2.517   4.190   7.893 -0.1866  0.2326  0.1936
 6473TIP3    H141054   2.557   4.274   7.916 -1.9275  1.2331 -0.2267
 6473TIP3    H241055   2.485   4.203   7.803  0.3382 -1.2060 -0.2172
 6474TIP3   OH241056   4.950   2.216   8.422 -0.2776 -0.4479 -0.4397
 6474TIP3    H141057   4.880   2.192   8.361  0.3927  0.7056 -1.7371
 6474TIP3    H241058   4.926   2.303   8.453  0.7277  0.1325 -1.2067
 6475TIP3   OH241059   4.643   3.157   7.115  0.5535  0.3487 -0.5524
 6475TIP3    H141060   4.549   3.148   7.098  0.9009  0.0890 -2.6814
 6475TIP3    H241061   4.673   3.068   7.133  0.2568  0.5661  1.1637
 6476TIP3   OH241062   4.727   5.151   8.465  0.6237 -0.1628 -0.0713
 6476TIP3    H141063   4.806   5.198   8.493  1.2481  0.0525 -2.0620
 6476TIP3    H241064   4.760   5.080   8.409 -0.5903 -0.1138 -0.8733
 6477TIP3   OH241065   4.614   6.544   1.677  0.1291 -0.3299  0.4171
 6477TIP3    H141066   4.544   6.507   1.731  0.4466  0.0367  1.0989
 6477TIP3    H241067   4.569   6.607   1.620 -0.1216 -0.2101  0.7416
 6478TIP3   OH241068   1.419   4.482   8.837  0.0497 -0.3985 -0.1324
 6478TIP3    H141069   1.508   4.456   8.814  0.9370  3.0049 -1.0756
 6478TIP3    H241070   1.366   4.452   8.764  0.7132 -0.8608 -0.4378
 6479TIP3   OH241071   1.663   1.234   2.820  0.6799 -0.2346  0.4042
 6479TIP3    H141072   1.729   1.187   2.768 -0.9732 -1.6566 -0.4870
 6479TIP3    H241073   1.603   1.166   2.849 -0.9839  1.1566  0.3324
 6480TIP3   OH241074   0.608   0.486   0.895 -0.2623  0.1631  0.3563
 6480TIP3    H141075   0.622   0.514   0.985  1.3394 -0.3678  0.3007
 6480TIP3    H241076   0.625   0.392   0.896  0.9249  0.3398 -0.6991
 6481TIP3   OH241077   5.788   2.963   8.061  0.2549 -0.1618 -0.2504
 6481TIP3    H141078   5.884   2.964   8.053  0.3008  1.7526  0.0241
 6481TIP3    H241079   5.770   3.021   8.135 -1.0412 -2.4322  1.3211
 6482TIP3   OH241080   6.116   4.896   2.248 -0.1047  0.0359 -0.1981
 6482TIP3    H141081   6.135   4.826   2.185  1.6436  0.4231 -0.1703
 6482TIP3    H241082   6.137   4.977   2.201  0.5043  0.3712  0.6246
 6483TIP3   OH241083   2.990   1.007   1.332 -0.1828  0.1491 -0.1145
 6483TIP3    H141084   2.996   1.053   1.416 -1.5264  0.1241  0.0102
 6483TIP3    H241085   2.903   0.967   1.332  0.5600 -1.5686 -0.6570
 6484TIP3   OH241086   1.069   2.239   8.059 -0.3422  0.1414 -0.3973
 6484TIP3    H141087   1.094   2.294   7.984 -1.3448  0.9697 -0.1488
 6484TIP3    H241088   0.974   2.251   8.066 -0.1851  0.5945  1.3967
 6485TIP3   OH241089   2.636   2.701   0.110  0.2722  0.0621 -0.4953
 6485TIP3    H141090   2.679   2.641   0.171  1.2602 -0.2533 -1.4696
 6485TIP3    H241091   2.548   2.666   0.099  0.1228  0.0395  0.6122
 6486TIP3   OH241092   6.530   0.599   1.732 -0.3294 -0.0694  0.7995
 6486TIP3    H141093   6.508   0.670   1.671 -1.3083 -0.5049  0.6393
 6486TIP3    H241094   6.537   0.642   1.817  0.5381  0.4564  0.4826
 6487TIP3   OH241095   0.074   6.389   7.900  0.2687  0.1932 -0.0408
 6487TIP3    H141096   0.099   6.444   7.825 -0.3097  2.2511  1.2066
 6487TIP3    H241097  -0.015   6.415   7.921 -0.1372 -1.4610  0.4626
 6488TIP3   OH241098   0.607   2.634   1.696  0.3397 -0.0881  0.5337
 6488TIP3    H141099   0.584   2.724   1.670  1.3842  0.3112  0.9256
 6488TIP3    H241100   0.524   2.587   1.694 -0.0493  0.6000 -0.8111
 6489TIP3   OH241101   5.407   1.584   0.729  0.5385  0.3223  0.2141
 6489TIP3    H141102   5.389   1.583   0.635  1.8732 -0.5844 -0.0537
 6489TIP3    H241103   5.357   1.510   0.763  2.1903 -1.0815 -0.2536
 6490TIP3   OH241104   4.557   1.629   1.384  0.5530  0.5882 -0.5509
 6490TIP3    H141105   4.549   1.697   1.318  2.0256 -0.9459 -2.4524
 6490TIP3    H241106   4.649   1.632   1.411  0.2623  0.3650  0.5515
 6491TIP3   OH241107   2.572   1.686   2.948 -0.4229 -0.4424 -0.2493
 6491TIP3    H141108   2.656   1.682   2.901  0.5396 -1.2977  1.4266
 6491TIP3    H241109   2.597   1.699   3.039 -2.1415 -0.5867  0.2714
 6492TIP3   OH241110   5.767   0.189   0.214  0.4285  0.2402  0.1526
 6492TIP3    H141111   5.684   0.141   0.211  0.8363 -0.5617  1.1401
 6492TIP3    H241112   5.785   0.211   0.122  0.7582 -2.4551 -0.5105
 6493TIP3   OH241113   3.895   1.915   8.755 -0.3124 -0.4631  0.4407
 6493TIP3    H141114   3.970   1.899   8.699  0.1496  0.3664  0.8040
 6493TIP3    H241115   3.820   1.883   8.705 -0.0018  0.9128 -0.9703
 6494TIP3   OH241116   1.690   0.235   2.566  0.2496 -0.0723  0.1607
 6494TIP3    H141117   1.728   0.258   2.651  0.0240 -0.0233  0.2491
 6494TIP3    H241118   1.645   0.314   2.537 -0.9981 -0.5499  0.7219
 6495TIP3   OH241119   2.263   4.587   1.543  0.3208 -0.2211 -0.6234
 6495TIP3    H141120   2.193   4.535   1.582  0.2568  0.5821  0.3737
 6495TIP3    H241121   2.336   4.582   1.605  1.2154 -1.1367 -1.6971
 6496TIP3   OH241122   6.342   2.613   2.416  0.3905 -0.3846 -0.3517
 6496TIP3    H141123   6.348   2.521   2.440 -1.9260 -0.3284  0.7280
 6496TIP3    H241124   6.270   2.647   2.470  0.2528  1.7118 -1.7476
 6497TIP3   OH241125   0.250   4.900   0.206  0.3181 -0.7333 -0.2131
 6497TIP3    H141126   0.292   4.937   0.284  2.2574 -1.7025 -0.7147
 6497TIP3    H241127   0.242   4.807   0.226 -1.6411 -0.5988 -0.1739
 6498TIP3   OH241128   4.909   1.211   8.077 -0.2014 -0.5964 -0.2361
 6498TIP3    H141129   4.925   1.268   8.001 -0.1728 -2.8404 -2.0166
 6498TIP3    H241130   4.816   1.192   8.073 -0.5776  0.6570  1.4128
 6499TIP3   OH241131   2.194   1.825   2.544 -0.1472  0.4287  0.4862
 6499TIP3    H141132   2.113   1.814   2.592 -0.9213 -1.5878 -1.1016
 6499TIP3    H241133   2.205   1.919   2.534 -2.0702  0.7414  1.0835
 6500TIP3   OH241134   1.683   5.357   1.178  0.1087  0.4275 -0.2256
 6500TIP3    H141135   1.600   5.376   1.222 -0.2552 -1.4122 -0.0179
 6500TIP3    H241136   1.658   5.313   1.097  0.8571 -0.2490 -0.1126
 6501TIP3   OH241137   0.453   5.329   7.634 -0.3831  0.5973 -0.8524
 6501TIP3    H141138   0.361   5.340   7.611 -0.3616  0.8608 -0.8120
 6501TIP3    H241139   0.451   5.284   7.719 -0.4758  0.8889 -0.7017
 6502TIP3   OH241140   2.310   0.560   1.076 -0.3284  0.5033  0.1050
 6502TIP3    H141141   2.380   0.531   1.136 -1.4545  0.1058  1.2785
 6502TIP3    H241142   2.357   0.597   1.001  1.1497  1.1790  1.3011
 6503TIP3   OH241143   5.089   0.068   0.486 -0.5011 -0.2877  0.3399
 6503TIP3    H141144   5.038   0.006   0.538  0.6960 -1.6872 -0.0820
 6503TIP3    H241145   5.180   0.047   0.507 -0.0599  1.0474 -0.1537
 6504TIP3   OH241146   3.220   6.715   8.845 -0.2753  0.2336  0.2268
 6504TIP3    H141147   3.264   6.683   8.767  0.6020  2.3788 -0.2327
 6504TIP3    H241148   3.272   6.680   8.918  0.4581  0.3356 -0.2349
 6505TIP3   OH241149   6.702   6.191   7.511  0.3217  0.0556 -0.5908
 6505TIP3    H141150   6.766   6.262   7.517  0.5769 -0.2088 -0.1166
 6505TIP3    H241151   6.755   6.113   7.498  0.2007 -0.3573  1.2110
 6506TIP3   OH241152   0.752   5.352   1.720  0.2916 -0.0739  0.1971
 6506TIP3    H141153   0.773   5.352   1.814  0.6071  0.5659  0.1329
 6506TIP3    H241154   0.668   5.398   1.715  0.0308 -0.5365  0.2076
 6507TIP3   OH241155   4.261   4.648   8.068 -0.3311  0.6632 -0.0516
 6507TIP3    H141156   4.192   4.628   8.005  0.3597  1.6776 -1.1570
 6507TIP3    H241157   4.254   4.579   8.134 -0.1916 -1.2063 -1.9252
 6508TIP3   OH241158   3.096   6.817   7.428 -0.1330  0.1545  0.2689
 6508TIP3    H141159   3.013   6.828   7.383 -0.2383  1.3834  0.7163
 6508TIP3    H241160   3.112   6.722   7.427 -0.3362  0.0854 -1.9326
 6509TIP3   OH241161   2.942   5.218   0.088  0.4538 -0.3908  0.1587
 6509TIP3    H141162   2.868   5.248   0.141  0.1219  0.0478 -0.5370
 6509TIP3    H241163   3.005   5.184   0.151 -0.5057 -1.1355  0.7357
 6510TIP3   OH241164   5.470   0.627   2.300  0.4415 -0.0937  0.6209
 6510TIP3    H141165   5.408   0.557   2.281 -0.2450  0.5265  0.5491
 6510TIP3    H241166   5.467   0.636   2.395  1.9305 -1.4130  0.8454
 6511TIP3   OH241167   4.934   6.137   3.063 -0.4051 -0.0610 -0.1834
 6511TIP3    H141168   4.877   6.214   3.059  0.3509  0.5308  0.1908
 6511TIP3    H241169   4.884   6.072   3.112 -0.4327  0.7402  0.8839
 6512TIP3   OH241170   1.719   3.083   0.675  0.1974 -0.4608  0.1290
 6512TIP3    H141171   1.644   3.137   0.651 -0.8663 -1.6051  0.7176
 6512TIP3    H241172   1.680   3.005   0.716  1.6758 -1.5446 -0.4364
 6513TIP3   OH241173   2.085   6.817   8.116 -0.6818  0.1014 -0.1140
 6513TIP3    H141174   2.119   6.855   8.197 -1.1307 -0.0937  0.1710
 6513TIP3    H241175   2.163   6.784   8.071 -0.1883  1.9975 -0.7426
 6514TIP3   OH241176   1.753   1.454   0.063 -0.4406  0.0412 -0.6069
 6514TIP3    H141177   1.788   1.423  -0.020 -2.7428  0.2733 -1.7395
 6514TIP3    H241178   1.717   1.540   0.043  1.3806  1.3474  1.3191
 6515TIP3   OH241179   6.092   3.913   2.660  0.5587  0.1724 -0.3174
 6515TIP3    H141180   6.105   3.861   2.740 -0.0655 -1.2547 -1.1101
 6515TIP3    H241181   6.000   3.938   2.663  0.2634 -0.7556 -1.0634
 6516TIP3   OH241182   0.578   3.730   1.724  0.1076 -0.1943  0.0611
 6516TIP3    H141183   0.583   3.780   1.643 -1.8945  0.6442  0.3720
 6516TIP3    H241184   0.634   3.654   1.710  0.8064  0.5891 -1.6056
 6517TIP3   OH241185   2.046   5.644   6.942  0.0085  0.1093  0.9426
 6517TIP3    H141186   1.956   5.639   6.908  0.2592  0.5457  0.1633
 6517TIP3    H241187   2.098   5.674   6.867  1.2144 -2.3608  0.6863
 6518TIP3   OH241188   2.924   0.907   1.950  0.0319  0.0474 -0.2643
 6518TIP3    H141189   2.888   0.868   2.030 -0.6460 -1.2906 -1.1837
 6518TIP3    H241190   2.907   1.000   1.960 -0.6758 -0.1730  0.8443
 6519TIP3   OH241191   1.565   2.059   0.860  0.2892 -0.8498 -0.1316
 6519TIP3    H141192   1.603   2.001   0.926  0.9226 -2.0262 -1.4784
 6519TIP3    H241193   1.589   2.020   0.777 -0.8537  0.3660 -1.0812
 6520TIP3   OH241194   2.001   4.615   7.919 -0.0324 -0.0021 -0.4622
 6520TIP3    H141195   1.955   4.556   7.978 -0.0390 -0.8950 -1.3354
 6520TIP3    H241196   2.083   4.637   7.965 -1.4451  1.9675  1.3089
 6521TIP3   OH241197   1.994   6.638   2.277 -0.7258 -0.0181  0.4866
 6521TIP3    H141198   1.933   6.685   2.334 -0.1561 -0.1020  1.1762
 6521TIP3    H241199   2.080   6.673   2.299 -0.4726 -0.1792 -0.2040
 6522TIP3   OH241200   0.564   6.789   8.702 -0.2602  0.1424  0.0895
 6522TIP3    H141201   0.610   6.764   8.782  0.3196 -2.1341 -0.8666
 6522TIP3    H241202   0.498   6.852   8.730  0.9140  0.5512  2.1000
 6523TIP3   OH241203   0.201   1.806   7.540 -0.1944  0.1078  0.6665
 6523TIP3    H141204   0.293   1.779   7.539  0.2455  1.5296  0.6491
 6523TIP3    H241205   0.196   1.879   7.478 -2.0782 -2.0983 -2.0156
 6524TIP3   OH241206   1.686   0.539   7.644 -0.2564  0.0308  0.1025
 6524TIP3    H141207   1.626   0.466   7.633 -0.1575 -0.0521  0.1144
 6524TIP3    H241208   1.642   0.597   7.707  0.5612 -1.0110  1.7171
 6525TIP3   OH241209   0.646   1.912   0.697 -0.1862  0.1070  0.4722
 6525TIP3    H141210   0.736   1.883   0.686  0.0911  1.0194  0.2215
 6525TIP3    H241211   0.592   1.837   0.671  0.4889 -0.6565  1.2285
 6526TIP3   OH241212   0.461   3.203   2.515  0.6036 -0.2841  0.1697
 6526TIP3    H141213   0.400   3.277   2.504  0.8241  0.0402  1.0838
 6526TIP3    H241214   0.472   3.195   2.609 -0.3928 -2.3033  0.1744
 6527TIP3   OH241215   3.004   3.102   8.469 -0.4208 -0.2016 -0.2505
 6527TIP3    H141216   2.933   3.055   8.424 -0.5177  0.8303 -1.2203
 6527TIP3    H241217   3.076   3.102   8.406  0.7449 -1.8979  1.0163
 6528TIP3   OH241218   0.885   6.280   8.743  0.2052 -0.0349  0.0777
 6528TIP3    H141219   0.822   6.329   8.796  1.1267  0.4305  0.7908
 6528TIP3    H241220   0.864   6.188   8.759 -0.0022  0.1111  0.6718
 6529TIP3   OH241221   1.808   2.698   1.386  0.2743 -0.2716  0.0418
 6529TIP3    H141222   1.799   2.605   1.364 -0.0833 -0.6887  1.7819
 6529TIP3    H241223   1.775   2.744   1.310 -1.0388 -1.6057 -0.2444
 6530TIP3   OH241224   3.612   1.821   0.210  1.2022  0.0929  0.1099
 6530TIP3    H141225   3.653   1.901   0.178  1.8389 -0.7055 -1.1264
 6530TIP3    H241226   3.677   1.782   0.268  0.6069  0.8120  1.3008
 6531TIP3   OH241227   3.902   3.445   2.161 -1.0308  0.1573  0.3180
 6531TIP3    H141228   3.817   3.482   2.141 -2.0808 -1.5136  1.4038
 6531TIP3    H241229   3.883   3.356   2.192  1.2964 -1.3200 -2.0328
 6532TIP3   OH241230   4.949   3.775   8.604 -0.4617 -0.4902 -0.1749
 6532TIP3    H141231   4.990   3.758   8.689 -0.1695 -0.2813 -0.2720
 6532TIP3    H241232   4.868   3.822   8.626 -0.5665 -0.7549  0.0088
 6533TIP3   OH241233   2.330   2.745   1.106  0.7571 -0.3115  0.5586
 6533TIP3    H141234   2.382   2.824   1.122 -0.8517  0.7454  0.8348
 6533TIP3    H241235   2.269   2.742   1.180  0.6955 -1.7521  0.4724
 6534TIP3   OH241236   4.253   1.760   7.760 -0.5731  0.1636  0.0712
 6534TIP3    H141237   4.178   1.806   7.722 -0.9232 -0.0648  0.4819
 6534TIP3    H241238   4.272   1.690   7.698 -1.0593 -0.1269  0.2504
 6535TIP3   OH241239   2.234   5.604   7.935  0.1161  0.8318 -0.2290
 6535TIP3    H141240   2.246   5.585   7.842 -0.8872  4.0556 -1.1406
 6535TIP3    H241241   2.198   5.523   7.971 -1.3944  0.1035 -3.0920
 6536TIP3   OH241242   5.932   4.121   2.362 -0.4049 -0.2014 -0.0787
 6536TIP3    H141243   5.977   4.095   2.282 -1.8297 -0.8312 -0.7094
 6536TIP3    H241244   5.893   4.206   2.341  1.9200  1.2224  1.0586
 6537TIP3   OH241245   6.047   6.494   0.470 -0.0564 -0.2291  0.3151
 6537TIP3    H141246   6.023   6.427   0.534 -0.2187  0.2548  0.7657
 6537TIP3    H241247   6.142   6.484   0.460  0.1201  0.3074  1.3524
 6538TIP3   OH241248   4.588   0.259   3.348  0.0416  0.1659 -0.2494
 6538TIP3    H141249   4.546   0.205   3.281  0.8157  0.7491 -1.2312
 6538TIP3    H241250   4.615   0.338   3.302  1.4751  0.1561  0.5133
 6539TIP3   OH241251   6.661   4.566   1.374  0.7294  0.1448 -0.3995
 6539TIP3    H141252   6.601   4.600   1.309  0.6953 -0.8551 -0.9040
 6539TIP3    H241253   6.607   4.508   1.429  0.8203  0.7440  0.3375
 6540TIP3   OH241254   5.980   2.889   1.916  0.3368 -0.4322 -0.2898
 6540TIP3    H141255   6.048   2.939   1.870  0.0481 -1.4229 -1.8370
 6540TIP3    H241256   6.023   2.859   1.996  1.4541 -0.3155 -0.8284
 6541TIP3   OH241257   5.828   3.344   0.429  0.2714 -0.0638  0.0545
 6541TIP3    H141258   5.760   3.411   0.438  0.9345  0.3732  2.8321
 6541TIP3    H241259   5.780   3.262   0.424 -0.4962  0.4245 -0.9953
 6542TIP3   OH241260   1.164   4.984   1.929  0.0478  0.4710  0.1936
 6542TIP3    H141261   1.095   4.942   1.982  1.7629 -1.2078  1.2503
 6542TIP3    H241262   1.130   5.071   1.910 -2.2574 -0.1976  0.8576
 6543TIP3   OH241263   1.284   6.527   1.936  0.2022  0.4035 -0.5814
 6543TIP3    H141264   1.369   6.484   1.933 -0.0729 -0.1471 -0.6223
 6543TIP3    H241265   1.222   6.456   1.951  0.0608  1.1531  3.7215
 6544TIP3   OH241266   1.770   4.294   0.872 -0.4046  0.7974  0.3987
 6544TIP3    H141267   1.813   4.259   0.950 -0.0682 -2.8830 -1.1982
 6544TIP3    H241268   1.843   4.317   0.814 -0.6055  0.5308  0.0345
 6545TIP3   OH241269   4.825   4.499   3.184  0.4000 -0.2651 -0.5116
 6545TIP3    H141270   4.737   4.522   3.154  0.4268 -1.4936 -1.5937
 6545TIP3    H241271   4.882   4.520   3.111  1.0079  0.3600  0.1222
 6546TIP3   OH241272   1.793   5.557   0.213 -0.3586  0.0030 -0.2173
 6546TIP3    H141273   1.750   5.560   0.298 -3.1257 -2.6073 -1.3758
 6546TIP3    H241274   1.885   5.539   0.234 -1.0746 -1.3231  2.1939
 6547TIP3   OH241275   3.194   1.489   8.062  0.8121 -0.1290  0.3686
 6547TIP3    H141276   3.229   1.528   7.981  1.0706  2.3864  1.5748
 6547TIP3    H241277   3.132   1.554   8.094  0.2864 -1.3368  1.9121
 6548TIP3   OH241278   3.157   1.090   7.923 -0.2559 -0.2664  0.4036
 6548TIP3    H141279   3.067   1.086   7.954 -0.3494  1.1569  0.3642
 6548TIP3    H241280   3.150   1.109   7.829  0.0776 -1.8185  0.0298
 6549TIP3   OH241281   3.338   4.121   8.841  0.4543 -0.0646  0.3205
 6549TIP3    H141282   3.247   4.092   8.827  1.3171 -2.6088 -0.6865
 6549TIP3    H241283   3.382   4.102   8.758  2.3521 -0.9159  1.4485
 6550TIP3   OH241284   4.481   1.075   1.200  0.1259  0.2548  0.0136
 6550TIP3    H141285   4.506   1.122   1.280 -0.1882 -0.8330  0.7592
 6550TIP3    H241286   4.386   1.080   1.199  0.0400 -1.0447  0.5305
 6551TIP3   OH241287   1.124   1.378   2.060 -0.5633 -0.0307 -0.1778
 6551TIP3    H141288   1.213   1.377   2.023  0.8204 -0.2042  2.8416
 6551TIP3    H241289   1.116   1.465   2.100 -1.3782 -0.3417  0.3530
 6552TIP3   OH241290   6.093   2.831   0.186  0.5160  0.6451  0.2647
 6552TIP3    H141291   6.106   2.803   0.277 -2.7121  0.5455  0.8420
 6552TIP3    H241292   6.162   2.786   0.137  2.7386  1.1694  2.6691
 6553TIP3   OH241293   4.238   3.726   6.777  0.0276 -0.1544 -0.4601
 6553TIP3    H141294   4.208   3.702   6.864  0.7190 -2.2321 -0.7088
 6553TIP3    H241295   4.181   3.677   6.718  1.4271 -1.1598 -1.0390
 6554TIP3   OH241296   1.512   3.393   0.263  0.1329  0.2651 -0.5968
 6554TIP3    H141297   1.586   3.333   0.255 -1.8813 -2.3198 -1.5339
 6554TIP3    H241298   1.439   3.337   0.290 -1.2838  2.8802  1.4663
 6555TIP3   OH241299   4.151   4.868   1.339 -0.6562  0.3598 -0.6197
 6555TIP3    H141300   4.066   4.901   1.368 -0.3329  1.8273 -1.2144
 6555TIP3    H241301   4.139   4.774   1.330 -1.6241  0.2506  1.2710
 6556TIP3   OH241302   4.569   4.359   1.468 -0.2418 -0.6342  0.0806
 6556TIP3    H141303   4.638   4.398   1.414  0.3446 -0.0973  1.2032
 6556TIP3    H241304   4.575   4.265   1.450 -1.3872 -0.3348 -2.3148
 6557TIP3   OH241305   0.084   2.346   1.688 -0.3630  0.0895 -0.3070
 6557TIP3    H141306   0.045   2.310   1.608  0.7655 -3.4847  0.5640
 6557TIP3    H241307   0.177   2.329   1.679 -0.3645 -2.1640  2.4438
 6558TIP3   OH241308   6.501   2.216   8.412 -0.0702 -0.2310  0.0986
 6558TIP3    H141309   6.537   2.275   8.345  0.7799  0.4155  1.1040
 6558TIP3    H241310   6.445   2.156   8.363  0.0398  0.6253 -1.1165
 6559TIP3   OH241311   2.629   2.523   2.353  0.0090  0.3670  0.0476
 6559TIP3    H141312   2.579   2.512   2.434 -0.1492 -0.1690 -0.1197
 6559TIP3    H241313   2.702   2.579   2.378 -0.0119  0.1677  0.5774
 6560TIP3   OH241314   3.288   6.478   0.662  0.4370  0.4453  0.1486
 6560TIP3    H141315   3.371   6.460   0.705  0.4354  2.2281  1.0191
 6560TIP3    H241316   3.234   6.518   0.731 -1.4310 -1.3568 -0.1881
 6561TIP3   OH241317   2.996   0.176   0.283  0.1250  0.4208  0.1616
 6561TIP3    H141318   3.033   0.145   0.366 -1.8082  1.3648  1.4557
 6561TIP3    H241319   2.904   0.151   0.286  0.4551 -1.6773 -2.8658
 6562TIP3   OH241320   4.066   0.424   1.917  0.6096  0.4448  0.7755
 6562TIP3    H141321   4.133   0.397   1.854  1.1566  1.0575  1.0922
 6562TIP3    H241322   3.989   0.373   1.892  0.8848  0.5000 -0.2445
 6563TIP3   OH241323   2.765   3.660   2.243 -0.3148  0.7773 -0.0347
 6563TIP3    H141324   2.860   3.652   2.240 -0.3195  1.0300 -1.6230
 6563TIP3    H241325   2.744   3.663   2.336  1.1114 -0.6345  0.3823
 6564TIP3   OH241326   6.406   0.094   1.120 -0.2883 -0.3158 -0.6417
 6564TIP3    H141327   6.383   0.037   1.193 -0.1209 -0.2701 -0.5535
 6564TIP3    H241328   6.415   0.181   1.158 -2.2929  0.1234 -1.0595
 6565TIP3   OH241329   5.275   3.528   1.249 -0.5064  0.5796  0.3771
 6565TIP3    H141330   5.280   3.582   1.328 -1.3709  1.8868 -0.4365
 6565TIP3    H241331   5.251   3.441   1.282 -1.0860  1.1546  1.5424
 6566TIP3   OH241332   4.640   4.238   7.825  0.7293 -0.1025 -0.4760
 6566TIP3    H141333   4.610   4.247   7.734  1.3901 -0.0051 -0.6864
 6566TIP3    H241334   4.716   4.296   7.831  2.0012 -1.7014 -0.4577
 6567TIP3   OH241335   1.887   3.973   2.247 -0.3396 -0.0090  0.3345
 6567TIP3    H141336   1.798   4.007   2.254  0.3873  2.3178 -0.5975
 6567TIP3    H241337   1.941   4.051   2.230  1.5943 -1.6061 -1.3404
 6568TIP3   OH241338   0.284   1.015   8.786 -0.3479 -0.1833  0.5472
 6568TIP3    H141339   0.238   0.937   8.755  0.3468 -0.8345  1.1173
 6568TIP3    H241340   0.362   0.981   8.830  0.9107  0.9183 -0.7503
 6569TIP3   OH241341   3.790   2.855   0.946 -0.0054 -0.1552  0.8507
 6569TIP3    H141342   3.714   2.799   0.936 -0.0719  0.0792 -0.0116
 6569TIP3    H241343   3.864   2.799   0.923 -0.1992  0.5313 -1.7245
 6570TIP3   OH241344   4.436   2.144   8.737 -0.3957  0.1300 -0.4216
 6570TIP3    H141345   4.494   2.219   8.723 -0.1380  0.4595  2.0362
 6570TIP3    H241346   4.354   2.182   8.767 -0.9512 -0.4862 -1.1268
 6571TIP3   OH241347   3.858   4.353   2.587  0.7231  0.1319 -0.6006
 6571TIP3    H141348   3.899   4.352   2.673  0.4629 -0.3503 -0.4829
 6571TIP3    H241349   3.776   4.306   2.598  1.4805 -1.4882 -1.4870
 6572TIP3   OH241350   0.156   1.496   1.784  0.1194 -0.0333 -0.0362
 6572TIP3    H141351   0.210   1.569   1.753 -0.7015  0.3900 -0.4824
 6572TIP3    H241352   0.121   1.526   1.868  0.0770 -0.0701 -0.0408
 6573TIP3   OH241353   2.614   4.078   8.294  0.0524  0.1181 -0.3596
 6573TIP3    H141354   2.709   4.085   8.290  0.1249  1.7211  1.9572
 6573TIP3    H241355   2.597   4.003   8.351 -0.0971 -0.2041 -0.8184
 6574TIP3   OH241356   6.016   5.631   8.735  0.3944  0.2963 -0.1872
 6574TIP3    H141357   6.008   5.679   8.817 -0.2024 -0.2785  0.1015
 6574TIP3    H241358   5.926   5.627   8.701  0.3788 -0.8672 -0.0463
 6575TIP3   OH241359   3.408   1.652   6.773  0.4534 -0.1065  0.2095
 6575TIP3    H141360   3.489   1.673   6.820  1.0661  1.1970 -1.3611
 6575TIP3    H241361   3.362   1.735   6.765  0.4960 -0.2317 -1.7013
 6576TIP3   OH241362   4.319   1.436   1.422 -0.2172  0.5457  0.3129
 6576TIP3    H141363   4.351   1.346   1.425 -1.0670  0.2018 -0.3999
 6576TIP3    H241364   4.359   1.478   1.497 -1.2693 -0.9292  1.7709
 6577TIP3   OH241365   4.253   0.726   0.927 -0.5319  0.1082 -0.0562
 6577TIP3    H141366   4.334   0.734   0.977 -0.9720  1.6743  0.4542
 6577TIP3    H241367   4.213   0.645   0.960  0.6496 -0.5338 -0.1144
 6578TIP3   OH241368   2.135   6.361   1.617 -0.5196 -0.0188  0.1298
 6578TIP3    H141369   2.179   6.290   1.664 -2.7957 -0.4014  1.8146
 6578TIP3    H241370   2.134   6.434   1.678 -2.6681 -0.2015  0.3625
 6579TIP3   OH241371   3.468   5.471   1.784  0.0706 -0.7425 -0.3247
 6579TIP3    H141372   3.453   5.427   1.700 -1.0664 -0.3610 -0.3377
 6579TIP3    H241373   3.430   5.558   1.772  0.8520 -0.3213  0.2375
 6580TIP3   OH241374   3.064   3.073   8.749  0.0418  0.0427  0.5813
 6580TIP3    H141375   3.120   2.998   8.767  0.2948  0.3613  1.1747
 6580TIP3    H241376   3.039   3.064   8.657 -0.1081 -0.8787  0.7054
 6581TIP3   OH241377   2.782   0.477   1.832  0.6879 -0.0118  0.5686
 6581TIP3    H141378   2.718   0.409   1.852 -0.2815  0.3704 -1.0122
 6581TIP3    H241379   2.750   0.517   1.751  2.8715  0.2810 -0.2230
 6582TIP3   OH241380   1.270   0.592   8.712  0.1857 -0.3601 -0.0084
 6582TIP3    H141381   1.346   0.632   8.756  0.5235 -0.3872 -0.5547
 6582TIP3    H241382   1.308   0.541   8.641 -0.2707 -1.4013  0.4868
 6583TIP3   OH241383   0.434   4.891   8.355 -0.3898  0.0141 -0.0587
 6583TIP3    H141384   0.529   4.883   8.349 -0.1143  1.8289  1.1180
 6583TIP3    H241385   0.400   4.815   8.308  1.6420 -0.9258 -0.0898
 6584TIP3   OH241386   5.442   2.985   1.598 -0.3417  1.1730 -0.0259
 6584TIP3    H141387   5.511   2.950   1.654  0.2248  2.0131 -0.1890
 6584TIP3    H241388   5.406   3.059   1.647  1.1719  2.8785 -1.3664
 6585TIP3   OH241389   1.420   2.681   1.315  0.2672  0.3596 -0.3225
 6585TIP3    H141390   1.381   2.637   1.391 -1.2487 -2.2637 -2.4213
 6585TIP3    H241391   1.349   2.733   1.278  0.8409  1.1932 -0.2727
 6586TIP3   OH241392   6.073   1.830   0.432 -0.0501 -0.7170  0.4660
 6586TIP3    H141393   6.123   1.755   0.400 -1.0379 -1.1567 -0.1140
 6586TIP3    H241394   6.081   1.826   0.527  1.2145 -0.6159  0.3770
 6587TIP3   OH241395   1.763   1.461   2.296  0.4884  0.2108  0.1008
 6587TIP3    H141396   1.760   1.401   2.371 -0.0279  0.5634  0.3659
 6587TIP3    H241397   1.719   1.540   2.326 -2.1873 -0.5926 -1.4175
 6588TIP3   OH241398   6.235   5.855   7.366 -0.1090 -0.9650 -0.1906
 6588TIP3    H141399   6.242   5.803   7.285 -0.5063  0.3683 -1.1179
 6588TIP3    H241400   6.326   5.870   7.392  0.2060  1.3358 -2.2587
 6589TIP3   OH241401   3.826   1.824   1.929  0.1642 -0.3805  0.1074
 6589TIP3    H141402   3.819   1.728   1.932 -0.3580 -0.3300  0.9451
 6589TIP3    H241403   3.753   1.852   1.875 -1.0094 -0.3535  1.6408
 6590TIP3   OH241404   1.676   5.378   2.597 -0.3958 -0.0277  0.3339
 6590TIP3    H141405   1.740   5.376   2.526  0.1664  0.1045  0.8253
 6590TIP3    H241406   1.697   5.457   2.646  1.8591 -2.0459  2.9959
 6591TIP3   OH241407   6.650   4.210   8.532  0.3377  0.1931 -0.0062
 6591TIP3    H141408   6.738   4.243   8.551  0.1854  1.2662 -1.0144
 6591TIP3    H241409   6.595   4.289   8.532 -0.3492 -0.2764 -0.8338
 6592TIP3   OH241410   3.328   6.359   0.416  0.7057  0.3449 -0.4485
 6592TIP3    H141411   3.304   6.379   0.507  1.2311 -0.3662 -0.1439
 6592TIP3    H241412   3.394   6.425   0.394  1.6215 -0.3348  0.1783
 6593TIP3   OH241413   4.273   5.546   2.503  0.3026 -0.1824 -0.2346
 6593TIP3    H141414   4.286   5.566   2.410 -1.3332  2.3367 -0.0199
 6593TIP3    H241415   4.184   5.574   2.521  0.2135 -1.6390  1.8862
 6594TIP3   OH241416   5.179   6.196   8.393  0.0720  0.1039 -0.7187
 6594TIP3    H141417   5.243   6.143   8.345  1.3528  0.3887  0.5923
 6594TIP3    H241418   5.110   6.134   8.417 -0.0500 -0.2663 -1.9298
 6595TIP3   OH241419   1.028   3.008   8.566  0.6902 -0.1696  0.1150
 6595TIP3    H141420   0.991   3.015   8.478 -1.0978  0.7235  0.8784
 6595TIP3    H241421   1.108   2.957   8.554 -0.7825 -2.2737 -1.6767
 6596TIP3   OH241422   5.008   3.926   1.036  0.7077  0.2971  0.2281
 6596TIP3    H141423   4.937   3.953   0.977  1.5374  0.2040 -0.8388
 6596TIP3    H241424   5.036   4.007   1.079 -0.4478  0.2407  1.1367
 6597TIP3   OH241425   6.786   3.745   3.130 -0.1331  0.5397  0.3754
 6597TIP3    H141426   6.788   3.793   3.212 -0.7179  1.6607 -0.2370
 6597TIP3    H241427   6.724   3.793   3.075 -2.1464 -1.9089  0.3041
 6598TIP3   OH241428   3.263   5.319   3.241  0.0968 -0.0736 -0.0542
 6598TIP3    H141429   3.263   5.287   3.151 -1.2544 -0.7408  0.1458
 6598TIP3    H241430   3.269   5.414   3.234  0.8306 -0.1671 -0.8021
 6599TIP3   OH241431   3.180   3.346   0.418  0.6248 -0.1185 -0.4060
 6599TIP3    H141432   3.244   3.355   0.347 -1.4936 -1.6795 -2.6734
 6599TIP3    H241433   3.218   3.279   0.476  2.6472  1.5865  0.3669
 6600TIP3   OH241434   3.417   2.998   0.335  0.3515 -0.1914  0.1389
 6600TIP3    H141435   3.336   2.969   0.294  0.3716 -0.2986  0.1754
 6600TIP3    H241436   3.484   2.938   0.303  0.4011 -0.1586  0.1800
 6601TIP3   OH241437   3.020   3.001   1.174  0.0356 -0.2108  0.7314
 6601TIP3    H141438   2.926   3.013   1.161  0.0562 -0.0458  0.7286
 6601TIP3    H241439   3.048   2.949   1.099  0.2902  1.3970 -0.3453
 6602TIP3   OH241440   0.296   1.921   3.028  0.2280  0.3135 -0.0317
 6602TIP3    H141441   0.202   1.911   3.041  0.4562 -0.9478  0.8199
 6602TIP3    H241442   0.321   1.991   3.089  0.2834 -1.3597  1.9622
 6603TIP3   OH241443   5.726   5.630   0.495  0.1887  0.0007 -0.2528
 6603TIP3    H141444   5.721   5.537   0.473  0.2192  0.4887 -2.5875
 6603TIP3    H241445   5.790   5.634   0.567  0.2731 -1.7526 -0.1839
 6604TIP3   OH241446   6.085   1.849   0.058 -0.0967 -0.7144 -0.5502
 6604TIP3    H141447   6.053   1.762   0.082 -0.4256 -0.3135  0.5430
 6604TIP3    H241448   6.048   1.866  -0.028 -2.0523 -0.6758  0.2534
 6605TIP3   OH241449   5.191   0.918   0.332  0.1004  0.1016  0.5590
 6605TIP3    H141450   5.126   0.921   0.262  0.7901  1.6302 -0.0472
 6605TIP3    H241451   5.210   1.009   0.352  1.3671 -0.3088  1.3803
 6606TIP3   OH241452   4.872   5.155   1.783 -0.3115  0.3971 -0.0446
 6606TIP3    H141453   4.793   5.149   1.729  0.5317 -0.0788 -1.2705
 6606TIP3    H241454   4.887   5.249   1.793 -0.8446  0.4902 -0.0762
 6607TIP3   OH241455   0.716   4.025   1.263  0.1573 -0.2213  0.6405
 6607TIP3    H141456   0.801   4.066   1.279  0.7419 -1.1369 -0.0368
 6607TIP3    H241457   0.653   4.094   1.285  1.0414  0.3134  1.6252
 6608TIP3   OH241458   4.254   6.252   8.390  0.3585  0.2976  0.6059
 6608TIP3    H141459   4.341   6.283   8.367  0.8410 -0.2493  1.6553
 6608TIP3    H241460   4.269   6.181   8.453 -0.8068 -0.3922  0.1399
 6609TIP3   OH241461   0.711   0.474   8.341  0.0068 -0.0674 -0.1522
 6609TIP3    H141462   0.662   0.541   8.293  1.1103  0.5626 -0.4394
 6609TIP3    H241463   0.752   0.421   8.273 -2.3679 -2.2956 -0.0016
 6610TIP3   OH241464   1.152   0.667   1.189  0.3626 -0.1931 -0.6427
 6610TIP3    H141465   1.135   0.655   1.095  1.6867  0.3706 -0.9844
 6610TIP3    H241466   1.213   0.597   1.211  0.4891  0.0139 -0.3355
 6611TIP3   OH241467   4.216   0.120   2.634 -0.5577  0.0595 -0.4133
 6611TIP3    H141468   4.294   0.144   2.585  0.2447 -1.3474  0.1280
 6611TIP3    H241469   4.187   0.201   2.676  0.0340  0.7916 -1.3966
 6612TIP3   OH241470   4.133   3.723   8.020 -0.1220  0.0092  0.2483
 6612TIP3    H141471   4.111   3.647   7.966 -0.3058  0.8168 -0.8484
 6612TIP3    H241472   4.214   3.756   7.983 -0.1682  0.4926  0.5639
 6613TIP3   OH241473   1.787   1.886   1.366 -0.1649  0.1214 -0.0843
 6613TIP3    H141474   1.854   1.857   1.304 -1.1608  0.0314 -1.1596
 6613TIP3    H241475   1.724   1.814   1.369 -1.9652  1.4723 -1.7402
 6614TIP3   OH241476   1.086   1.468   1.343 -0.5073  0.5380 -0.6417
 6614TIP3    H141477   1.145   1.492   1.414  1.3619  0.3838 -2.0656
 6614TIP3    H241478   1.016   1.418   1.385  0.9882 -0.3004  0.9647
 6615TIP3   OH241479   4.187   4.911   8.694  0.6415 -0.1008  0.1465
 6615TIP3    H141480   4.237   4.838   8.655 -1.1307 -0.6994 -1.1190
 6615TIP3    H241481   4.226   4.989   8.656  2.5249 -0.3327  1.4604
 6616TIP3   OH241482   2.848   0.716   8.205 -0.3989  0.3443 -0.0401
 6616TIP3    H141483   2.870   0.740   8.114  0.0934  2.9066  0.6783
 6616TIP3    H241484   2.919   0.658   8.232  0.8911  1.6594 -0.4921
 6617TIP3   OH241485   5.057   2.550   1.968  0.2045  0.0004  0.0277
 6617TIP3    H141486   5.124   2.567   1.902 -0.0261  1.6179  0.1608
 6617TIP3    H241487   5.099   2.573   2.051 -0.3128  0.4291  0.1739
 6618TIP3   OH241488   4.416   1.412   7.866  0.0061 -0.3358 -0.1519
 6618TIP3    H141489   4.420   1.373   7.953 -0.2606 -1.2648 -0.5501
 6618TIP3    H241490   4.341   1.370   7.824 -1.3918  1.8535  0.0086
 6619TIP3   OH241491   2.330   5.262   1.751 -0.5191  0.0335  0.1827
 6619TIP3    H141492   2.265   5.220   1.807  1.1207 -1.3900  1.1445
 6619TIP3    H241493   2.301   5.244   1.662 -0.2463 -2.6993  0.5497
 6620TIP3   OH241494   3.099   3.911   8.368 -0.0658 -0.3204 -0.4676
 6620TIP3    H141495   3.012   3.876   8.386 -0.6553  0.6039 -1.4019
 6620TIP3    H241496   3.106   3.911   8.273  0.5016  0.6635 -0.4378
 6621TIP3   OH241497   1.301   4.128   0.892  0.3932 -0.0234  0.2030
 6621TIP3    H141498   1.298   4.214   0.933 -2.3791  0.2355 -0.3947
 6621TIP3    H241499   1.237   4.076   0.940 -0.1249 -0.8581 -1.3268
 6622TIP3   OH241500   5.150   2.034   0.759 -0.2262  0.4328  0.1318
 6622TIP3    H141501   5.164   2.127   0.780 -0.1605  0.2350  1.0168
 6622TIP3    H241502   5.056   2.022   0.768 -0.3751  0.6425 -1.0115
 6623TIP3   OH241503   6.782   6.763   8.491  0.0112 -0.1888  0.4877
 6623TIP3    H141504   6.716   6.827   8.517 -0.5817 -0.4470 -0.3303
 6623TIP3    H241505   6.738   6.708   8.426  1.0277 -0.3833 -0.0612
 6624TIP3   OH241506   3.427   4.544   8.566 -0.1461 -0.1465  0.6619
 6624TIP3    H141507   3.409   4.638   8.565  0.9740  0.0840 -0.6439
 6624TIP3    H241508   3.515   4.537   8.603  0.2345 -0.5761 -0.3045
 6625TIP3   OH241509   4.853   5.720   7.352  0.1002 -0.0117 -0.0964
 6625TIP3    H141510   4.909   5.732   7.276 -0.3067 -0.7036 -0.5182
 6625TIP3    H241511   4.859   5.626   7.371  0.2227  0.1567  0.7457
 6626TIP3   OH241512   4.819   6.615   1.227 -0.4559 -0.2469 -0.5841
 6626TIP3    H141513   4.840   6.706   1.247  1.1762 -0.4169 -1.3600
 6626TIP3    H241514   4.726   6.606   1.248 -0.3641  1.2761  0.6158
 6627TIP3   OH241515   0.826   1.501   8.569  0.0037 -0.3518 -0.1729
 6627TIP3    H141516   0.789   1.412   8.563 -1.0870  0.0253  0.6587
 6627TIP3    H241517   0.808   1.529   8.658  0.0633  0.8291 -0.5114
 6628TIP3   OH241518   6.398   4.952   1.373  0.2445  0.2554  0.5008
 6628TIP3    H141519   6.358   4.910   1.449  1.0702 -0.2566  0.6699
 6628TIP3    H241520   6.367   5.043   1.377 -1.3849 -0.2713  0.2481
 6629TIP3   OH241521   3.763   2.039   0.113 -0.0468  0.5819  0.0891
 6629TIP3    H141522   3.784   2.004   0.026  1.6478 -1.1590  1.1236
 6629TIP3    H241523   3.848   2.066   0.148 -0.8231  2.0078  0.9240
 6630TIP3   OH241524   4.576   4.920   8.709  0.3244 -0.1121 -0.3026
 6630TIP3    H141525   4.580   4.921   8.805  0.4860  2.1972 -0.2748
 6630TIP3    H241526   4.656   4.966   8.682  0.1555 -0.5288 -1.5386
 6631TIP3   OH241527   4.550   3.537   7.916 -0.0740  0.2910  0.0965
 6631TIP3    H141528   4.643   3.524   7.937  0.4987  1.3819 -1.5784
 6631TIP3    H241529   4.528   3.464   7.858  0.1198  0.7162 -0.5301
 6632TIP3   OH241530   5.857   1.558   2.666  0.5293  0.2498 -0.3584
 6632TIP3    H141531   5.823   1.475   2.633 -1.8801  0.5211  1.1557
 6632TIP3    H241532   5.798   1.624   2.630 -0.5068  0.7883  2.1058
 6633TIP3   OH241533   0.237   1.853   1.089  0.4670  0.0973 -0.4667
 6633TIP3    H141534   0.267   1.926   1.034  2.1747 -0.0793  0.1557
 6633TIP3    H241535   0.261   1.774   1.040  1.7037 -0.0551  0.3130
 6634TIP3   OH241536   6.788   6.722   0.111  0.1141  0.5735  0.0646
 6634TIP3    H141537   6.857   6.664   0.143 -0.0080 -0.2375 -1.1083
 6634TIP3    H241538   6.800   6.725   0.017 -1.1333  0.8389 -0.1097
 6635TIP3   OH241539   0.094   5.146   0.984 -0.7824  0.1134  0.2092
 6635TIP3    H141540   0.021   5.088   0.961 -0.9566  0.2994  0.2871
 6635TIP3    H241541   0.168   5.087   1.001 -0.4220  0.0001 -1.6154
 6636TIP3   OH241542   4.594   4.395   7.590  0.5006 -0.6661 -0.2480
 6636TIP3    H141543   4.500   4.391   7.573  0.4942  1.0147 -0.8063
 6636TIP3    H241544   4.632   4.432   7.510  1.4353  0.1530  0.5406
 6637TIP3   OH241545   4.536   5.748   0.640 -0.4500 -0.2172  0.4289
 6637TIP3    H141546   4.468   5.792   0.692 -0.9707 -0.1189 -0.3236
 6637TIP3    H241547   4.582   5.819   0.596  2.2120  0.0435  3.2517
 6638TIP3   OH241548   3.547   3.263   2.359 -0.2687  0.2524  0.1297
 6638TIP3    H141549   3.636   3.268   2.324 -0.7346  3.3997 -0.8944
 6638TIP3    H241550   3.558   3.247   2.453  1.4622  1.6774  0.2127
 6639TIP3   OH241551   1.220   6.695   0.384 -0.6033 -0.3784 -0.0119
 6639TIP3    H141552   1.274   6.733   0.453 -0.7790 -1.6670  0.8722
 6639TIP3    H241553   1.282   6.652   0.325 -0.5575 -0.5756  0.1803
 6640TIP3   OH241554   5.728   1.162   0.273 -0.2192 -0.7722  0.0795
 6640TIP3    H141555   5.648   1.121   0.239  0.2215 -0.4819 -1.3720
 6640TIP3    H241556   5.789   1.089   0.284 -0.0360 -0.7618 -0.7617
 6641TIP3   OH241557   2.272   6.252   0.149 -0.1935  0.0146 -0.2168
 6641TIP3    H141558   2.263   6.297   0.233  0.3223 -0.3420  0.0395
 6641TIP3    H241559   2.186   6.213   0.133 -0.1876 -0.2380  0.3384
 6642TIP3   OH241560   5.037   2.115   1.605  0.0209  0.5776 -0.0954
 6642TIP3    H141561   4.965   2.157   1.651  0.7608  1.1366  0.5843
 6642TIP3    H241562   5.110   2.117   1.668  0.8606  0.7571 -1.0543
 6643TIP3   OH241563   5.795   1.518   0.999 -1.0211  0.3783  0.1496
 6643TIP3    H141564   5.748   1.531   1.081 -2.3051 -0.0673 -0.4826
 6643TIP3    H241565   5.751   1.443   0.958  1.0286 -0.8447  0.0528
 6644TIP3   OH241566   4.050   3.472   2.726 -0.1609  0.3029  0.2120
 6644TIP3    H141567   4.120   3.407   2.733 -0.8311 -0.3140  1.5658
 6644TIP3    H241568   4.096   3.556   2.730  0.5817 -0.0854  0.1298
 6645TIP3   OH241569   5.065   4.405   7.512  0.4770  0.2513  0.2013
 6645TIP3    H141570   5.019   4.345   7.572  0.3221  1.9861  1.9345
 6645TIP3    H241571   5.157   4.396   7.535  0.3662  1.3387  1.1719
 6646TIP3   OH241572   1.874   1.677   7.931 -0.2018  0.6231 -0.2145
 6646TIP3    H141573   1.856   1.688   8.025  0.5623 -0.3509  0.0639
 6646TIP3    H241574   1.912   1.761   7.904 -1.9911  1.5193 -0.0621
 6647TIP3   OH241575   4.572   4.043   0.327  0.3346 -0.3005 -0.1402
 6647TIP3    H141576   4.516   4.049   0.250 -0.2868 -1.5667  0.1898
 6647TIP3    H241577   4.555   3.956   0.363  0.8083  0.1577  1.2776
 6648TIP3   OH241578   1.381   5.463   0.840  0.1284  0.0233 -0.5303
 6648TIP3    H141579   1.334   5.474   0.923 -0.8466 -1.3496 -0.8640
 6648TIP3    H241580   1.472   5.486   0.861  0.0934 -1.1742  1.1759
 6649TIP3   OH241581   0.677   2.890   2.740  0.0235  0.2784  0.8197
 6649TIP3    H141582   0.703   2.874   2.831 -1.1124 -0.3634  1.0533
 6649TIP3    H241583   0.652   2.982   2.738 -1.3853 -0.0611  1.5539
 6650TIP3   OH241584   4.565   2.284   7.639  0.2493 -0.2874  0.7183
 6650TIP3    H141585   4.589   2.237   7.719  2.4818  0.8613  0.8000
 6650TIP3    H241586   4.498   2.346   7.667 -2.0508 -2.6548  0.7998
 6651TIP3   OH241587   4.685   6.018   2.320 -0.0110 -0.1448  0.1284
 6651TIP3    H141588   4.634   6.056   2.250 -1.2121 -1.0659  0.4697
 6651TIP3    H241589   4.761   5.979   2.276  0.0387  0.6026 -0.4646
 6652TIP3   OH241590   5.805   2.374   8.645 -0.1387  0.3168  0.0814
 6652TIP3    H141591   5.869   2.337   8.584  0.7727  1.6905  0.1603
 6652TIP3    H241592   5.781   2.458   8.607 -0.7764  0.4801  0.8148
 6653TIP3   OH241593   3.927   2.417   1.242  0.4741  0.1097  0.0171
 6653TIP3    H141594   3.911   2.439   1.151  1.0810 -1.0473 -0.3891
 6653TIP3    H241595   3.842   2.391   1.276  0.3694 -0.1517 -0.4349
 6654TIP3   OH241596   5.546   3.164   1.871  0.0033  0.2085 -0.3071
 6654TIP3    H141597   5.451   3.153   1.878  0.0338 -1.2762 -1.5470
 6654TIP3    H241598   5.582   3.082   1.905  0.6634 -0.5701 -2.6800
 6655TIP3   OH241599   3.463   2.001   8.141 -0.5727 -0.0428  0.0881
 6655TIP3    H141600   3.549   2.031   8.113 -0.0987 -2.0120 -0.7481
 6655TIP3    H241601   3.465   2.007   8.237  0.8322 -0.8689  0.1320
 6656TIP3   OH241602   6.230   5.132   7.261  0.9189 -0.0065  0.1655
 6656TIP3    H141603   6.175   5.067   7.218  0.3512  0.5282  0.0597
 6656TIP3    H241604   6.320   5.104   7.244  0.6853 -1.1103  0.6665
 6657TIP3   OH241605   2.969   4.422   1.054  0.3439  0.2433 -0.1923
 6657TIP3    H141606   3.002   4.354   1.113  1.4020 -0.0503 -1.1017
 6657TIP3    H241607   3.048   4.467   1.023 -0.2595  0.9898 -0.6777
 6658TIP3   OH241608   3.759   0.749   1.319 -0.2402  0.5130  0.3762
 6658TIP3    H141609   3.739   0.655   1.321  2.1915 -0.0830 -0.4448
 6658TIP3    H241610   3.792   0.768   1.407 -0.3593  0.5144  0.4209
 6659TIP3   OH241611   2.449   2.115   1.398 -0.0326  0.1578  0.2452
 6659TIP3    H141612   2.517   2.048   1.404 -0.7629 -0.8059 -1.4553
 6659TIP3    H241613   2.492   2.190   1.359  0.2550 -0.1549 -0.0461
 6660TIP3   OH241614   2.409   3.191   1.969 -0.5926  0.5057  0.2190
 6660TIP3    H141615   2.443   3.230   1.888 -0.5735  0.0499  0.0025
 6660TIP3    H241616   2.463   3.230   2.038  1.5665 -1.4351 -0.2503
 6661TIP3   OH241617   0.962   4.110   1.391 -0.4583 -0.2183 -0.3035
 6661TIP3    H141618   0.948   4.203   1.408 -0.4532 -0.1986 -0.4058
 6661TIP3    H241619   1.049   4.092   1.427  0.0020  0.0615 -1.2321
 6662TIP3   OH241620   3.326   2.373   7.939  0.1862  0.5375  0.2408
 6662TIP3    H141621   3.288   2.460   7.950 -1.4749  0.4367 -3.2692
 6662TIP3    H241622   3.378   2.379   7.859  0.3136 -1.5951  0.1029
 6663TIP3   OH241623   6.578   1.952   3.240 -0.0859  0.2310  0.4415
 6663TIP3    H141624   6.611   1.956   3.150  2.4555  1.4848  1.3181
 6663TIP3    H241625   6.624   1.876   3.278 -0.5487  0.1762  0.8916
 6664TIP3   OH241626   3.257   3.884   0.779 -0.4464 -0.2757 -0.0856
 6664TIP3    H141627   3.348   3.867   0.804 -0.2040  0.0953 -0.6890
 6664TIP3    H241628   3.228   3.804   0.735 -0.5391 -0.5363  0.4402
 6665TIP3   OH241629   6.452   2.485   7.863  0.0165 -0.1501  0.2791
 6665TIP3    H141630   6.402   2.427   7.805 -0.5683  0.8719 -0.2653
 6665TIP3    H241631   6.528   2.433   7.889 -0.6295 -1.2582  0.0315
 6666TIP3   OH241632   3.213   5.963   2.728  0.0462  0.1155 -0.2906
 6666TIP3    H141633   3.148   5.893   2.721  0.3418 -0.1767 -0.1248
 6666TIP3    H241634   3.297   5.917   2.733  0.1889  0.4547  0.5887
 6667TIP3   OH241635   2.011   3.977   0.183  0.2962 -0.3548  0.0235
 6667TIP3    H141636   1.960   3.902   0.214  1.4793 -1.5143 -0.6761
 6667TIP3    H241637   2.053   3.945   0.102  1.3989  0.8220  0.0958
 6668TIP3   OH241638   6.516   1.996   8.607 -0.1012 -0.4764  0.6012
 6668TIP3    H141639   6.482   2.063   8.547  0.8557 -0.5164  0.0016
 6668TIP3    H241640   6.550   1.928   8.550 -0.2182 -1.0539  1.2079
 6669TIP3   OH241641   4.839   6.398   0.951 -0.2079 -0.2372 -0.0989
 6669TIP3    H141642   4.882   6.373   1.033  0.4205 -0.5195 -0.5019
 6669TIP3    H241643   4.752   6.359   0.957 -0.4232  0.3349  0.7322
 6670TIP3   OH241644   2.124   3.831   1.492  0.0083 -0.3265 -0.0700
 6670TIP3    H141645   2.190   3.804   1.429  1.1368 -0.1183  0.9919
 6670TIP3    H241646   2.173   3.870   1.564 -1.2089 -0.9031  1.1287
 6671TIP3   OH241647   5.155   0.251   6.666 -0.4841 -0.7510 -0.0270
 6671TIP3    H141648   5.232   0.229   6.718 -0.4917 -2.6288 -0.7368
 6671TIP3    H241649   5.183   0.325   6.612  0.8155 -1.3936 -0.2609
 6672TIP3   OH241650   0.518   1.009   0.105  0.0707 -0.9833 -0.0584
 6672TIP3    H141651   0.549   1.055   0.183 -1.7002  0.7292 -0.2904
 6672TIP3    H241652   0.530   0.917   0.125  2.2602 -0.5075  1.0869
 6673TIP3   OH241653   6.607   0.462   0.576 -0.0695  0.4663 -0.8443
 6673TIP3    H141654   6.698   0.437   0.593 -0.3900 -1.3277 -1.5501
 6673TIP3    H241655   6.559   0.430   0.652 -0.2084  0.8454 -0.7692
 6674TIP3   OH241656   0.508   6.242   2.251 -0.2973 -0.1432 -0.4597
 6674TIP3    H141657   0.561   6.289   2.316 -0.6520  2.9737 -2.2203
 6674TIP3    H241658   0.559   6.245   2.171  0.1731 -4.0224 -0.4538
 6675TIP3   OH241659   3.792   2.751   8.748 -0.2598 -0.5089 -0.6276
 6675TIP3    H141660   3.855   2.804   8.698 -0.4703 -0.6736 -1.0733
 6675TIP3    H241661   3.823   2.661   8.737  1.7171 -0.3425  2.3763
 6676TIP3   OH241662   2.275   3.866   0.391 -0.1474  0.6255  0.3631
 6676TIP3    H141663   2.225   3.784   0.393  1.7486 -0.6159  0.0973
 6676TIP3    H241664   2.218   3.930   0.432 -0.4744 -1.5534  3.7486
 6677TIP3   OH241665   5.212   0.058   8.456 -0.0331 -0.4416 -0.5260
 6677TIP3    H141666   5.135   0.027   8.409 -0.9805  1.3935 -0.3061
 6677TIP3    H241667   5.252   0.122   8.397 -0.3848  0.7768  0.5069
 6678TIP3   OH241668   4.016   5.791   2.804 -0.1978 -0.7777  0.4002
 6678TIP3    H141669   4.104   5.797   2.841 -0.7050 -1.2072  1.6958
 6678TIP3    H241670   3.958   5.825   2.872 -1.2363 -2.4767  0.4183
 6679TIP3   OH241671   2.236   0.003   0.490 -0.3637  0.3169 -0.6506
 6679TIP3    H141672   2.225  -0.043   0.573  0.1069  1.8179  0.2722
 6679TIP3    H241673   2.151   0.045   0.474 -0.7628 -0.7450 -1.4438
 6680TIP3   OH241674   2.004   2.330   0.237  0.2674 -0.5244  0.5082
 6680TIP3    H141675   2.042   2.259   0.185  0.0028 -1.1486  1.1651
 6680TIP3    H241676   1.911   2.308   0.244  0.4114 -0.7697  1.7611
 6681TIP3   OH241677   2.788   2.445   7.998 -0.1352  0.4844 -0.1965
 6681TIP3    H141678   2.770   2.388   7.924 -0.4454  0.4612 -0.1034
 6681TIP3    H241679   2.762   2.532   7.969  2.3197  1.0050 -1.1347
 6682TIP3   OH241680   6.718   2.807   1.965  0.4640 -0.1725  0.2040
 6682TIP3    H141681   6.749   2.721   1.938  1.6355 -0.1354  1.3299
 6682TIP3    H241682   6.716   2.802   2.061  2.4553  1.6348  0.4183
 6683TIP3   OH241683   3.730   2.378   2.270  0.0705  0.0743  0.4816
 6683TIP3    H141684   3.745   2.292   2.309 -1.3462 -0.9133 -1.0031
 6683TIP3    H241685   3.639   2.375   2.240  0.4201  1.5737 -0.8592
 6684TIP3   OH241686   5.493   4.270   0.599  0.2176  0.1429  0.0426
 6684TIP3    H141687   5.538   4.320   0.531  2.0651  1.0037  1.7831
 6684TIP3    H241688   5.527   4.181   0.590 -0.0198  0.1028 -0.5191
 6685TIP3   OH241689   5.241   3.669   7.582  0.6684 -0.2295 -0.1313
 6685TIP3    H141690   5.268   3.581   7.608 -0.3191  0.1342  2.3177
 6685TIP3    H241691   5.204   3.657   7.494  1.7795 -1.9892 -0.4126
 6686TIP3   OH241692   3.140   1.677   1.058  0.0059 -0.5020  0.7994
 6686TIP3    H141693   3.075   1.622   1.102  0.1503 -0.6161  0.8724
 6686TIP3    H241694   3.224   1.647   1.094  0.0703 -0.0914  0.9995
 6687TIP3   OH241695   6.728   0.970   0.068 -0.8078 -0.1453 -0.4737
 6687TIP3    H141696   6.731   0.905  -0.003 -1.2617 -0.0754 -0.5596
 6687TIP3    H241697   6.729   0.917   0.148 -1.7659 -0.2925 -0.5475
 6688TIP3   OH241698   0.015   0.375   7.380  0.0655 -0.2248 -0.1986
 6688TIP3    H141699  -0.017   0.306   7.322 -2.0327  1.3103 -1.0226
 6688TIP3    H241700   0.010   0.455   7.327  1.9547  0.6675  0.8607
 6689TIP3   OH241701   1.062   5.578   0.174 -0.1520  0.4582  0.8581
 6689TIP3    H141702   1.083   5.587   0.267  2.3128  0.7068  0.3323
 6689TIP3    H241703   1.144   5.551   0.133 -0.8531  1.5410 -1.4415
 6690TIP3   OH241704   5.975   3.704   1.371  0.1737 -0.4042  0.1299
 6690TIP3    H141705   6.042   3.644   1.403  0.3897  0.7224  1.9101
 6690TIP3    H241706   5.892   3.666   1.400 -0.1027 -2.0936 -2.5511
 6691TIP3   OH241707   0.635   0.477   1.263 -0.2566  0.1268  0.0509
 6691TIP3    H141708   0.551   0.449   1.227 -1.2906  2.3411  0.5317
 6691TIP3    H241709   0.651   0.562   1.222  1.6499 -0.1453  0.1584
 6692TIP3   OH241710   2.167   4.237   1.863  0.1856  0.0011 -0.3706
 6692TIP3    H141711   2.094   4.299   1.870  0.2729  0.3823 -2.2303
 6692TIP3    H241712   2.213   4.264   1.783  1.0764 -1.5864 -0.4300
 6693TIP3   OH241713   2.710   2.993   7.082 -0.2448  0.3207 -0.1728
 6693TIP3    H141714   2.647   2.955   7.020 -0.0062  0.4346 -0.4917
 6693TIP3    H241715   2.656   3.038   7.146 -0.4702  1.0238 -0.8429
 6694TIP3   OH241716   3.981   1.674   7.942 -0.1961  0.1359  0.4499
 6694TIP3    H141717   4.070   1.692   7.972  0.1508 -2.3095  1.0887
 6694TIP3    H241718   3.987   1.680   7.847  0.3310  1.2431  0.5367
 6695TIP3   OH241719   4.946   1.760   7.781 -0.1468 -0.3134 -0.8721
 6695TIP3    H141720   4.903   1.797   7.704 -1.5045  1.3462  0.5955
 6695TIP3    H241721   4.878   1.707   7.822 -0.8902  2.1485  1.3507
 6696TIP3   OH241722   4.616   0.516   0.745  0.2777  0.8597  0.3202
 6696TIP3    H141723   4.708   0.488   0.738  0.4523  1.8113 -3.0567
 6696TIP3    H241724   4.566   0.437   0.723  0.4630  1.1224 -1.1452
 6697TIP3   OH241725   5.282   6.754   1.287  0.0085 -0.6709 -0.2216
 6697TIP3    H141726   5.190   6.763   1.311  0.2162 -0.3344  0.4618
 6697TIP3    H241727   5.280   6.734   1.193 -0.6853  1.5518 -0.7332
 6698TIP3   OH241728   6.245   4.351   8.160 -0.3898 -0.0053 -0.1382
 6698TIP3    H141729   6.186   4.368   8.086 -0.7055 -0.2939  0.0474
 6698TIP3    H241730   6.308   4.424   8.157 -1.0205  0.5530 -0.0699
 6699TIP3   OH241731   1.946   2.901   2.428  0.0088 -0.5359 -0.1369
 6699TIP3    H141732   2.016   2.963   2.447  1.1979 -1.7644 -0.3182
 6699TIP3    H241733   1.943   2.897   2.332 -0.7116 -0.0615 -0.1373
 6700TIP3   OH241734   5.494   0.138   2.001 -0.0838  0.2194 -0.6959
 6700TIP3    H141735   5.509   0.090   2.082 -1.4333  0.8251 -0.0666
 6700TIP3    H241736   5.580   0.173   1.978  0.0365  1.3940  1.3464
 6701TIP3   OH241737   1.319   4.454   8.304 -0.2786  0.1831 -0.3556
 6701TIP3    H141738   1.336   4.548   8.298 -0.5555  0.2552 -0.0437
 6701TIP3    H241739   1.265   4.444   8.383 -0.2026 -0.2446 -0.3553
 6702TIP3   OH241740   6.538   1.600   7.681 -0.7623 -0.2536  0.3789
 6702TIP3    H141741   6.603   1.546   7.637 -0.5075  0.8760 -0.6915
 6702TIP3    H241742   6.482   1.633   7.611 -0.6522  1.1774  0.9214
 6703TIP3   OH241743   1.179   5.951   7.714 -0.4063  0.4118 -0.0758
 6703TIP3    H141744   1.228   5.888   7.660  0.0424 -0.1910  0.9870
 6703TIP3    H241745   1.088   5.939   7.688 -0.1461  0.4581 -1.0163
 6704TIP3   OH241746   6.122   4.973   0.851  0.0310  0.5573  0.0550
 6704TIP3    H141747   6.185   4.958   0.781 -0.4821 -2.1664  0.0522
 6704TIP3    H241748   6.172   4.960   0.932 -0.2852 -0.7013  0.0687
 6705TIP3   OH241749   2.943   6.731   8.863  0.1248 -0.1199  0.0471
 6705TIP3    H141750   2.911   6.735   8.773 -1.0793  2.0546  0.4960
 6705TIP3    H241751   3.039   6.734   8.855  0.0514 -0.5147 -1.1522
 6706TIP3   OH241752   3.623   1.019   0.470 -0.0393 -0.1839 -0.6922
 6706TIP3    H141753   3.606   0.926   0.457  0.1233 -0.4088  0.5636
 6706TIP3    H241754   3.547   1.051   0.520 -0.6736  0.6369 -2.1113
 6707TIP3   OH241755   4.481   0.479   2.822 -0.0453  0.4301 -0.3084
 6707TIP3    H141756   4.436   0.434   2.893  1.3139  1.5114  1.3012
 6707TIP3    H241757   4.490   0.412   2.753 -1.8903 -0.4692  0.2745
 6708TIP3   OH241758   2.526   5.494   1.351  1.4877  0.4839 -0.0399
 6708TIP3    H141759   2.577   5.575   1.352  1.6067  0.4128  1.0262
 6708TIP3    H241760   2.435   5.523   1.339  1.4251  0.8587  1.2175
 6709TIP3   OH241761   0.314   5.294   8.301  0.5300  0.7227 -0.2665
 6709TIP3    H141762   0.326   5.280   8.207 -1.1473 -0.8189 -0.3203
 6709TIP3    H241763   0.319   5.206   8.339 -1.5502  0.9486  0.6878
 6710TIP3   OH241764   2.738   4.204   1.118 -0.5208 -0.3518 -1.2668
 6710TIP3    H141765   2.730   4.130   1.177  1.1289  0.6018  0.2386
 6710TIP3    H241766   2.679   4.270   1.153 -0.8516 -0.3985 -1.7237
 6711TIP3   OH241767   3.510   2.302   1.891 -0.4909 -0.3482 -0.2379
 6711TIP3    H141768   3.601   2.273   1.903 -1.1805 -2.4201  0.3981
 6711TIP3    H241769   3.499   2.372   1.955  0.4414 -0.5714  0.1884
 6712TIP3   OH241770   3.760   2.980   1.233 -0.4355  0.0587 -0.0903
 6712TIP3    H141771   3.819   2.963   1.306  1.9725 -0.8191 -2.1080
 6712TIP3    H241772   3.787   2.919   1.164 -2.2233  1.1862 -1.9455
 6713TIP3   OH241773   3.532   3.917   0.921  0.3968 -0.3219 -0.5518
 6713TIP3    H141774   3.566   4.006   0.922  0.0639 -0.1797 -1.1721
 6713TIP3    H241775   3.591   3.868   0.978  0.5956  0.2881 -0.2225
 6714TIP3   OH241776   4.781   3.051   1.480  0.0621  0.1818 -0.5659
 6714TIP3    H141777   4.805   3.113   1.549  0.3936  0.7681 -1.1888
 6714TIP3    H241778   4.744   2.976   1.526  2.5688 -0.5347  0.4163
 6715TIP3   OH241779   0.285   3.380   2.417  0.6167  0.3557  0.2226
 6715TIP3    H141780   0.282   3.447   2.484  1.0984 -0.6162  1.2575
 6715TIP3    H241781   0.195   3.350   2.407  0.9133 -2.0211  3.1596
 6716TIP3   OH241782   6.585   4.782   0.764  0.3643 -0.2273 -0.1633
 6716TIP3    H141783   6.632   4.739   0.835 -0.9134 -0.6090  0.4941
 6716TIP3    H241784   6.627   4.867   0.755  1.5415 -0.7775 -0.0087
 6717TIP3   OH241785   5.271   2.628   8.587 -0.0771  0.2476  0.0777
 6717TIP3    H141786   5.357   2.586   8.587 -0.0419  0.2860  1.0941
 6717TIP3    H241787   5.219   2.577   8.649 -0.7680  0.2745 -0.4647
 6718TIP3   OH241788   5.139   0.073   6.943  0.4718 -0.3676 -0.0148
 6718TIP3    H141789   5.068   0.109   6.889 -0.5844 -2.3389 -0.0470
 6718TIP3    H241790   5.207   0.049   6.880  0.1271 -0.7185 -0.2600
 6719TIP3   OH241791   2.082   2.683   1.457  0.5870  0.1937 -0.4225
 6719TIP3    H141792   1.990   2.704   1.439  0.2535 -0.0479  0.9292
 6719TIP3    H241793   2.082   2.647   1.545  1.9279 -0.2595 -0.5873
 6720TIP3   OH241794   3.205   3.268   2.387  0.7446  0.0608 -0.3426
 6720TIP3    H141795   3.264   3.193   2.382  1.5117  0.6307 -0.0894
 6720TIP3    H241796   3.237   3.319   2.461  0.7009  1.0207 -0.9603
 6721TIP3   OH241797   3.519   2.373   0.212 -0.5979  0.5155  0.4541
 6721TIP3    H141798   3.439   2.329   0.240 -1.5305  1.7803 -0.0952
 6721TIP3    H241799   3.587   2.340   0.271 -0.4787 -3.9752 -1.8378
 6722TIP3   OH241800   5.818   5.343   7.628 -0.4363  0.2206  0.0481
 6722TIP3    H141801   5.737   5.295   7.614  0.7596 -1.4158 -1.6517
 6722TIP3    H241802   5.815   5.414   7.564 -0.3354 -0.1168 -0.3364
 6723TIP3   OH241803   2.997   1.398   8.806 -0.1003 -1.3728  0.3100
 6723TIP3    H141804   2.992   1.343   8.728 -1.8989 -2.3149  1.0218
 6723TIP3    H241805   2.940   1.473   8.787  0.7141 -0.7875  0.1311
 6724TIP3   OH241806   2.743   5.569   6.873 -0.2239 -0.0952  0.1504
 6724TIP3    H141807   2.726   5.554   6.780 -1.6679 -0.0653  0.3938
 6724TIP3    H241808   2.693   5.648   6.893 -3.1721 -2.1850  1.8135
 6725TIP3   OH241809   1.276   1.131   0.890 -0.0044 -0.4844 -0.5835
 6725TIP3    H141810   1.328   1.064   0.844 -0.2181 -1.0799  0.0282
 6725TIP3    H241811   1.275   1.102   0.981  0.5404  0.7633 -0.1537
 6726TIP3   OH241812   1.078   4.038   8.590  0.2803  0.9960 -0.7440
 6726TIP3    H141813   1.056   3.970   8.654 -0.7565  0.8680 -1.2231
 6726TIP3    H241814   1.149   3.999   8.538 -1.4966 -0.5068 -2.1942
 6727TIP3   OH241815   5.233   0.946   1.433  0.1175  0.1334  0.5757
 6727TIP3    H141816   5.300   0.897   1.481  0.4138 -0.2207 -0.1820
 6727TIP3    H241817   5.193   0.882   1.375 -1.5528  0.1151  1.6742
 6728TIP3   OH241818   6.280   5.372   0.056  0.6667 -0.7082  0.0139
 6728TIP3    H141819   6.230   5.294   0.033 -1.9579  1.1547 -1.1870
 6728TIP3    H241820   6.274   5.427  -0.022  1.3852  1.1899  1.2305
 6729TIP3   OH241821   1.246   5.673   0.714  0.0955 -0.4160  0.5792
 6729TIP3    H141822   1.212   5.605   0.656 -1.7319  0.1269  0.9547
 6729TIP3    H241823   1.298   5.625   0.778  0.2718 -1.2609 -0.1604
 6730TIP3   OH241824   2.441   1.418   0.381  0.5667 -0.6195 -0.2959
 6730TIP3    H141825   2.532   1.446   0.389  0.2167  0.4418  0.0891
 6730TIP3    H241826   2.399   1.450   0.461  0.1258 -2.2316  0.1507
 6731TIP3   OH241827   6.094   1.383   2.626 -0.0354 -0.2305 -0.3331
 6731TIP3    H141828   6.002   1.408   2.623 -0.5178 -1.7282  0.8670
 6731TIP3    H241829   6.138   1.459   2.666 -1.2701 -0.6968  2.1200
 6732TIP3   OH241830   1.287   4.002   0.581 -0.1541 -0.2943  0.1631
 6732TIP3    H141831   1.336   3.986   0.662  0.7112 -2.1605 -0.6694
 6732TIP3    H241832   1.211   3.944   0.587 -0.8231  0.5613  0.2126
 6733TIP3   OH241833   1.374   4.294   0.658  0.1649  0.1577  0.7740
 6733TIP3    H141834   1.324   4.231   0.709 -3.3439  1.9950 -0.0299
 6733TIP3    H241835   1.409   4.356   0.722  0.9748 -0.8539  1.3226
 6734TIP3   OH241836   4.908   3.163   2.064 -0.2884  0.0508 -0.2270
 6734TIP3    H141837   4.813   3.161   2.076 -0.3424  1.8927 -0.1213
 6734TIP3    H241838   4.938   3.238   2.115  0.8496  1.2946 -2.5104
 6735TIP3   OH241839   5.238   6.487   1.098  0.5991  0.4701 -0.0962
 6735TIP3    H141840   5.223   6.394   1.119  0.9315  0.0495 -1.5846
 6735TIP3    H241841   5.274   6.486   1.010  0.0342  2.0710 -0.3813
 6736TIP3   OH241842   0.513   5.794   7.447 -0.3954 -0.0452 -0.2761
 6736TIP3    H141843   0.426   5.758   7.465 -0.9628  1.5231  0.2991
 6736TIP3    H241844   0.509   5.823   7.356 -0.4146 -0.1539 -0.3092
 6737TIP3   OH241845   6.360   3.585   0.576 -0.2107  0.0889  0.5112
 6737TIP3    H141846   6.336   3.640   0.502 -1.4965 -0.4299  0.5161
 6737TIP3    H241847   6.359   3.644   0.651  1.4682  0.7005  0.1061
 6738TIP3   OH241848   0.237   2.631   1.607 -0.3744 -0.4383  0.4588
 6738TIP3    H141849   0.157   2.593   1.570  0.7629 -1.5986 -0.9607
 6738TIP3    H241850   0.213   2.654   1.697 -2.0561 -1.5709  0.3582
 6739TIP3   OH241851   0.338   6.367   1.590 -0.1093  0.1573  0.7347
 6739TIP3    H141852   0.284   6.293   1.561  1.3117 -0.0906 -1.5900
 6739TIP3    H241853   0.275   6.435   1.613 -1.4306 -1.2824  1.5647
 6740TIP3   OH241854   5.533   5.735   1.768  0.5617 -0.4277  0.9420
 6740TIP3    H141855   5.508   5.643   1.761 -1.5548  0.2535 -3.5514
 6740TIP3    H241856   5.622   5.738   1.734  0.4566 -0.7727  0.6249
 6741TIP3   OH241857   6.470   4.436   8.553  0.8304 -0.0668  0.0581
 6741TIP3    H141858   6.527   4.512   8.560  0.3770  0.4854 -1.6663
 6741TIP3    H241859   6.383   4.468   8.579  0.3930  0.3751 -1.8034
 6742TIP3   OH241860   5.768   2.859   2.553 -0.2220  0.3167  0.0821
 6742TIP3    H141861   5.717   2.780   2.536  0.7246 -0.1531 -0.6867
 6742TIP3    H241862   5.842   2.854   2.492  0.7889  0.9345  1.2001
 6743TIP3   OH241863   5.577   0.880   0.370 -0.6181 -0.0277 -0.3625
 6743TIP3    H141864   5.509   0.843   0.426 -0.8525 -1.5860 -1.6162
 6743TIP3    H241865   5.614   0.805   0.323  1.7465  0.8334  0.0182
 6744TIP3   OH241866   2.648   1.993   0.604 -0.5002  0.6981  0.3133
 6744TIP3    H141867   2.666   1.946   0.686 -0.7540  1.1610  0.6382
 6744TIP3    H241868   2.681   1.934   0.535  3.0530  1.8095  0.8612
 6745TIP3   OH241869   5.499   5.227   1.701  0.4177 -0.4336 -0.1536
 6745TIP3    H141870   5.421   5.207   1.648  0.9166  2.7216 -2.3730
 6745TIP3    H241871   5.550   5.146   1.699 -0.8057 -1.2622 -2.3754
 6746TIP3   OH241872   2.348   0.562   1.501 -0.3598 -0.1551  0.5144
 6746TIP3    H141873   2.317   0.472   1.489  0.2932 -0.3081 -0.1062
 6746TIP3    H241874   2.427   0.567   1.448 -0.4558  0.8279  0.4477
 6747TIP3   OH241875   5.976   1.091   6.927 -0.1360  0.4104 -0.1700
 6747TIP3    H141876   5.895   1.054   6.890 -1.2760  2.0895  0.4920
 6747TIP3    H241877   6.034   1.016   6.938 -1.5002 -0.8172 -0.9431
 6748TIP3   OH241878   3.364   1.689   1.508  0.0207 -0.0692 -0.5195
 6748TIP3    H141879   3.443   1.675   1.457  0.7677 -0.7866  0.7742
 6748TIP3    H241880   3.302   1.728   1.447  2.0859  2.6790 -1.0473
 6749TIP3   OH241881   6.726   5.209   7.659 -0.0580  0.3771  0.1704
 6749TIP3    H141882   6.732   5.215   7.564 -0.8069 -0.7578  0.0196
 6749TIP3    H241883   6.632   5.198   7.676 -0.1468  2.3690  1.1851
 6750TIP3   OH241884   0.836   3.023   3.051  0.3719  0.6681 -0.3948
 6750TIP3    H141885   0.880   3.050   2.970  0.4573  0.3231 -0.4651
 6750TIP3    H241886   0.816   2.930   3.038  0.4990  0.5797  0.0324
 6751TIP3   OH241887   4.105   5.947   1.177  0.2597  0.6266  0.5203
 6751TIP3    H141888   4.024   5.896   1.168  0.1269  0.9537 -0.1854
 6751TIP3    H241889   4.173   5.892   1.137  0.6537 -0.2226  2.2445
 6752TIP3   OH241890   5.572   6.714   8.747 -0.6758  0.5105 -0.1312
 6752TIP3    H141891   5.642   6.685   8.688 -2.4275  1.0804 -2.6668
 6752TIP3    H241892   5.595   6.804   8.770 -0.7386  0.8407 -1.2913
 6753TIP3   OH241893   1.474   2.148   8.294  0.2202  0.6134 -0.4691
 6753TIP3    H141894   1.410   2.085   8.260  0.5448  0.5736 -1.0195
 6753TIP3    H241895   1.546   2.093   8.326 -0.1391  0.6437  0.4166
 6754TIP3   OH241896   5.980   2.184   2.437 -0.0540  0.0276 -0.1059
 6754TIP3    H141897   6.051   2.221   2.489  0.7394  0.5719 -1.5186
 6754TIP3    H241898   5.934   2.126   2.497  1.4685 -0.1910  0.9045
 6755TIP3   OH241899   5.333   1.392   2.140 -0.3240 -0.6468 -0.0230
 6755TIP3    H141900   5.411   1.338   2.151  0.3395  0.5886  1.9317
 6755TIP3    H241901   5.260   1.334   2.162  0.1386 -1.4399 -0.5333
 6756TIP3   OH241902   3.129   3.690   1.901  0.8912  0.0982  0.4295
 6756TIP3    H141903   3.065   3.652   1.841  1.0517 -0.1864  0.4338
 6756TIP3    H241904   3.204   3.630   1.897  0.5087 -0.4855  1.7090
 6757TIP3   OH241905   4.939   0.055   7.606  0.1689  0.1483  0.7416
 6757TIP3    H141906   4.884   0.021   7.534 -1.0332  0.0144  1.6905
 6757TIP3    H241907   4.959  -0.022   7.658  0.8162  0.2901  0.7032
 6758TIP3   OH241908   4.358   3.551   2.107 -0.3874  0.1932  0.1190
 6758TIP3    H141909   4.382   3.472   2.155  0.2206  0.3604  0.0960
 6758TIP3    H241910   4.273   3.577   2.144 -0.6272 -0.5025  0.0785
 6759TIP3   OH241911   2.305   1.879   1.595 -0.2189  0.4973  0.8472
 6759TIP3    H141912   2.247   1.867   1.670 -2.7475 -0.8459 -1.1733
 6759TIP3    H241913   2.251   1.922   1.528  1.6090  0.7042 -0.5970
 6760TIP3   OH241914   3.466   3.933   2.246  0.3202  0.7308  0.5083
 6760TIP3    H141915   3.507   3.931   2.159  1.7500 -0.7866  1.1647
 6760TIP3    H241916   3.395   3.869   2.240 -0.5012  1.6543  0.0702
 6761TIP3   OH241917   2.616   4.888   8.525  1.1515 -0.3830  0.3767
 6761TIP3    H141918   2.631   4.915   8.435 -1.6531 -0.0041 -0.0612
 6761TIP3    H241919   2.627   4.793   8.525 -0.2613 -0.5782 -0.7575
 6762TIP3   OH241920   6.692   2.433   0.493 -0.1260 -0.0278  0.1055
 6762TIP3    H141921   6.737   2.368   0.547  1.0604  1.8212  1.4925
 6762TIP3    H241922   6.604   2.438   0.529  0.4720  0.7511  1.5470
 6763TIP3   OH241923   3.651   2.665   7.279 -0.1509  0.3507  0.3505
 6763TIP3    H141924   3.694   2.585   7.309  0.3026 -0.2888 -1.8214
 6763TIP3    H241925   3.698   2.736   7.323  1.7728 -0.4403 -0.3238
 6764TIP3   OH241926   3.651   6.316   6.808  0.2251 -0.0903 -0.2220
 6764TIP3    H141927   3.690   6.387   6.859  1.6583 -0.5916 -0.5746
 6764TIP3    H241928   3.557   6.325   6.823  0.3772  1.7801 -0.1323
 6765TIP3   OH241929   2.083   5.615   1.239  0.1110  0.3341  0.0351
 6765TIP3    H141930   2.073   5.609   1.144  0.9731 -0.7835  0.0006
 6765TIP3    H241931   1.993   5.618   1.272 -0.2303 -0.8349 -0.7314
 6766TIP3   OH241932   5.709   4.699   3.050  0.1600 -0.1867 -0.2234
 6766TIP3    H141933   5.676   4.616   3.085  0.5538  0.9285  3.1621
 6766TIP3    H241934   5.630   4.749   3.028 -0.0836 -1.2733 -1.9658
 6767TIP3   OH241935   3.086   1.607   7.774 -0.1502  0.4532 -0.4620
 6767TIP3    H141936   3.026   1.670   7.814  0.6564  1.1233 -0.2900
 6767TIP3    H241937   3.173   1.641   7.793  0.3160 -0.8691 -0.1232
 6768TIP3   OH241938   0.604   2.822   0.716  0.0603  0.2718 -0.5259
 6768TIP3    H141939   0.521   2.834   0.763  0.0294  0.2170 -0.5669
 6768TIP3    H241940   0.582   2.836   0.624  0.2529  1.0583 -0.4638
 6769TIP3   OH241941   0.275   5.239   2.095  0.1536 -0.1027 -0.6282
 6769TIP3    H141942   0.340   5.197   2.039  0.7942 -0.4076  0.3144
 6769TIP3    H241943   0.303   5.218   2.184  1.1644  3.2762 -0.0228
 6770TIP3   OH241944   6.241   1.766   7.833  0.1146 -0.3613 -0.3385
 6770TIP3    H141945   6.209   1.812   7.756  0.6428  0.4856 -0.0643
 6770TIP3    H241946   6.239   1.674   7.809 -1.4357 -0.2532 -0.7227
 6771TIP3   OH241947   5.723   5.801   2.096  0.5343  0.5261  0.1332
 6771TIP3    H141948   5.811   5.822   2.129  0.2725  2.6238 -0.3604
 6771TIP3    H241949   5.730   5.811   2.001 -0.3047  0.9596  0.1135
 6772TIP3   OH241950   5.108   4.223   0.953 -0.0714  0.3527 -0.1522
 6772TIP3    H141951   5.132   4.222   0.860 -2.5553 -2.6210 -0.9203
 6772TIP3    H241952   5.049   4.299   0.961 -0.5709  0.0991 -1.2502
 6773TIP3   OH241953   2.142   3.843   8.835  0.4025 -1.0039 -0.0877
 6773TIP3    H141954   2.184   3.807   8.757 -0.2919 -1.1719 -0.3934
 6773TIP3    H241955   2.213   3.884   8.884  0.6271  0.5706 -1.6154
 6774TIP3   OH241956   0.204   5.839   8.577 -0.5141 -0.1114  0.1799
 6774TIP3    H141957   0.168   5.900   8.512 -0.0127  0.0124  0.0097
 6774TIP3    H241958   0.240   5.895   8.645 -0.5919 -0.2314  0.3187
 6775TIP3   OH241959   5.259   6.816   8.709 -0.0409  0.5273 -0.0146
 6775TIP3    H141960   5.234   6.837   8.619 -0.1019  0.1118 -0.0951
 6775TIP3    H241961   5.353   6.798   8.704  0.0946  1.1733  0.1249
 6776TIP3   OH241962   5.155   0.529   8.859  0.3164  0.0637 -0.5581
 6776TIP3    H141963   5.102   0.553   8.784 -0.2585  0.3535 -0.0641
 6776TIP3    H241964   5.099   0.545   8.935  1.0551  0.2419 -0.0344
 6777TIP3   OH241965   4.427   3.613   8.479  0.5336 -0.8139  0.8125
 6777TIP3    H141966   4.513   3.645   8.507  0.4091 -0.0436  0.3541
 6777TIP3    H241967   4.447   3.538   8.422  1.2090  1.6783 -2.5888
 6778TIP3   OH241968   2.783   5.828   7.427  1.0126  0.3424 -0.0268
 6778TIP3    H141969   2.844   5.885   7.474  1.9866  1.8694 -2.8853
 6778TIP3    H241970   2.810   5.833   7.336 -1.7749 -1.0792 -1.0810
 6779TIP3   OH241971   2.531   3.264   1.164  0.2961 -0.3668 -0.5711
 6779TIP3    H141972   2.618   3.254   1.203  0.3409  1.3036 -0.1515
 6779TIP3    H241973   2.521   3.359   1.153 -0.7376 -0.6441 -2.3134
 6780TIP3   OH241974   6.629   4.692   2.921 -0.6817  0.3839  0.1696
 6780TIP3    H141975   6.554   4.699   2.980  1.7238  2.7766  3.3084
 6780TIP3    H241976   6.622   4.769   2.864 -1.7105 -0.6272 -1.1413
 6781TIP3   OH241977   1.071   5.375   7.656  0.2639  0.1148 -0.1093
 6781TIP3    H141978   0.980   5.368   7.626  0.1888  0.4931  0.0350
 6781TIP3    H241979   1.084   5.468   7.672  0.1028 -0.1356  1.6943
 6782TIP3   OH241980   0.337   3.726   2.414  0.4705 -0.1525 -0.1682
 6782TIP3    H141981   0.245   3.738   2.394  0.8213  2.2353 -0.5692
 6782TIP3    H241982   0.337   3.669   2.492 -1.4550  1.5867  1.2064
 6783TIP3   OH241983   1.711   4.213   7.336  0.2176 -0.3344  0.0581
 6783TIP3    H141984   1.693   4.272   7.263  0.7052  0.1491  0.3188
 6783TIP3    H241985   1.806   4.200   7.334  0.4836  0.9674  1.5280
 6784TIP3   OH241986   5.293   6.436   1.359  0.2244  0.3164  0.4648
 6784TIP3    H141987   5.247   6.450   1.277 -0.9207 -1.1020  0.8177
 6784TIP3    H241988   5.296   6.341   1.369 -0.1425  0.4513  2.3052
 6785TIP3   OH241989   0.146   4.116   7.658 -0.3190  0.3087 -0.0093
 6785TIP3    H141990   0.140   4.187   7.595 -0.1279  0.6939  0.4012
 6785TIP3    H241991   0.238   4.113   7.683 -0.4560  0.4067  0.5253
 6786TIP3   OH241992   0.782   0.560   2.456 -0.1693  0.1920 -0.5785
 6786TIP3    H141993   0.850   0.620   2.426  0.6235  0.0397  0.8119
 6786TIP3    H241994   0.821   0.473   2.447 -1.0499 -0.0882 -1.9194
 6787TIP3   OH241995   3.096   0.101   0.534  0.3097  0.2622 -1.1003
 6787TIP3    H141996   3.030   0.076   0.599  1.8882 -1.6076 -0.1112
 6787TIP3    H241997   3.166   0.141   0.585  0.6466  0.7804 -1.9397
 6788TIP3   OH241998   2.757   0.063   0.381 -0.4665 -0.1540 -0.1040
 6788TIP3    H141999   2.669   0.091   0.406 -0.6707 -0.3608 -0.5688
 6788TIP3    H242000   2.761  -0.029   0.407 -0.6283 -0.3290 -0.6713
 6789TIP3   OH242001   4.354   1.074   0.821  0.2917  0.3032  0.0483
 6789TIP3    H142002   4.418   1.067   0.750  0.4081 -2.3233  0.2880
 6789TIP3    H242003   4.401   1.120   0.891  1.5889 -0.5662 -0.2001
 6790TIP3   OH242004   4.219   2.416   0.537  0.0406 -0.0282  0.3753
 6790TIP3    H142005   4.189   2.507   0.531  1.0023  0.2974  0.3687
 6790TIP3    H242006   4.314   2.423   0.544  0.1379 -1.0478  0.1494
 6791TIP3   OH242007   5.396   1.921   0.760 -0.4865 -0.8543  0.4077
 6791TIP3    H142008   5.430   1.944   0.847  2.5402  3.2083 -1.5798
 6791TIP3    H242009   5.318   1.976   0.750  1.6279  2.1434 -0.8935
 6792TIP3   OH242010   5.804   0.191   1.611  0.4714  0.7021 -0.0898
 6792TIP3    H142011   5.804   0.095   1.613 -2.4244  0.6224  0.8177
 6792TIP3    H242012   5.790   0.213   1.519 -0.4276  0.1563 -0.1021
 6793TIP3   OH242013   1.625   1.014   0.481  0.0094 -0.0825 -0.0321
 6793TIP3    H142014   1.653   1.096   0.523 -1.8034 -0.4509  2.0898
 6793TIP3    H242015   1.705   0.962   0.475  0.4669  0.1085  2.8886
 6794TIP3   OH242016   0.869   5.319   8.177  0.0692  0.1212  0.4459
 6794TIP3    H142017   0.906   5.346   8.092  1.3072 -1.3926  0.4654
 6794TIP3    H242018   0.786   5.277   8.154  0.6844 -0.8427 -0.1200
 6795TIP3   OH242019   2.754   1.035   0.143 -0.6949  0.1699  0.1815
 6795TIP3    H142020   2.689   1.078   0.088 -0.6473  1.5834  1.1971
 6795TIP3    H242021   2.838   1.057   0.102 -0.7907 -1.4329 -0.9739
 6796TIP3   OH242022   3.971   5.375   0.906 -0.1868  0.1200  0.5256
 6796TIP3    H142023   3.982   5.401   0.998 -2.2526  0.3018  0.7715
 6796TIP3    H242024   3.947   5.456   0.861 -1.2519 -0.3383  0.2442
 6797TIP3   OH242025   2.774   1.562   2.682 -0.1444 -0.1363 -0.3559
 6797TIP3    H142026   2.824   1.639   2.708  0.2645 -0.3142 -0.5994
 6797TIP3    H242027   2.827   1.487   2.712 -1.4513 -0.3423  1.5956
 6798TIP3   OH242028   5.074   3.213   7.595 -0.0534  0.4146 -0.0961
 6798TIP3    H142029   5.052   3.156   7.669 -3.3558 -0.2752 -1.4130
 6798TIP3    H242030   5.057   3.158   7.518  0.9293  1.8684 -1.3899
 6799TIP3   OH242031   3.953   5.846   7.507  0.4333  0.5202  0.1986
 6799TIP3    H142032   3.937   5.787   7.581 -0.4131  0.8924  0.3287
 6799TIP3    H242033   4.015   5.910   7.540  2.3816 -0.9879 -0.3266
 6800TIP3   OH242034   1.974   1.671   8.738 -0.0240 -0.1073  0.0813
 6800TIP3    H142035   1.982   1.633   8.825  1.2329 -2.3319 -0.8923
 6800TIP3    H242036   1.954   1.596   8.681 -1.3860  1.3582 -1.4834
 6801TIP3   OH242037   4.663   1.481   8.139 -0.0397 -0.5263  0.4605
 6801TIP3    H142038   4.587   1.425   8.120  0.0578  0.3547 -3.2839
 6801TIP3    H242039   4.714   1.431   8.203 -1.5560 -3.2144 -0.2731
 6802TIP3   OH242040   4.516   4.726   1.868  0.3195  0.1666 -0.1308
 6802TIP3    H142041   4.489   4.815   1.848  1.8426  0.3961 -1.3682
 6802TIP3    H242042   4.612   4.730   1.868  0.4617 -0.8814  2.6235
 6803TIP3   OH242043   0.788   0.388   0.626 -0.0189  0.0009 -0.4779
 6803TIP3    H142044   0.702   0.359   0.597 -1.1675  1.4295  1.2855
 6803TIP3    H242045   0.819   0.318   0.684 -2.2021  1.4729  2.7318
 6804TIP3   OH242046   0.554   1.962   8.485  0.1462 -0.7392  0.4050
 6804TIP3    H142047   0.475   1.917   8.454  0.3775 -1.1103  0.3540
 6804TIP3    H242048   0.614   1.892   8.507  0.6326 -0.4536  0.0031
 6805TIP3   OH242049   0.158   1.431   7.676 -0.2723 -0.0600 -0.0481
 6805TIP3    H142050   0.107   1.446   7.597  1.8815  0.2878 -1.4805
 6805TIP3    H242051   0.156   1.336   7.689 -2.2367  0.0460  0.6738
 6806TIP3   OH242052   6.711   0.772   2.224  0.5170  0.0023 -0.2468
 6806TIP3    H142053   6.656   0.790   2.148  2.5396 -1.3652 -2.1307
 6806TIP3    H242054   6.792   0.735   2.188  1.5442 -0.7769  2.5736
 6807TIP3   OH242055   1.729   1.671   8.176 -0.2698 -0.1263 -0.1659
 6807TIP3    H142056   1.774   1.633   8.251  0.0359  1.8841  0.7346
 6807TIP3    H242057   1.747   1.765   8.182 -1.7169  0.3071 -1.7592
 6808TIP3   OH242058   3.614   2.673   1.403 -0.1836  0.1445 -0.1481
 6808TIP3    H142059   3.621   2.695   1.496  0.1050 -2.1510  0.4269
 6808TIP3    H242060   3.698   2.700   1.365  1.2101 -2.2028  1.0589
 6809TIP3   OH242061   1.786   6.357   7.398  0.3938  0.0663  0.2005
 6809TIP3    H142062   1.749   6.429   7.450 -1.2143 -0.6663  0.1260
 6809TIP3    H242063   1.746   6.278   7.435 -1.3765 -0.4416 -2.5640
 6810TIP3   OH242064   0.752   6.015   2.300 -0.1213  0.5121 -0.2337
 6810TIP3    H142065   0.715   6.004   2.388  1.1408  1.2210  0.4196
 6810TIP3    H242066   0.817   6.085   2.310 -0.6431  1.3071 -1.9525
 6811TIP3   OH242067   2.702   1.915   0.069  0.6086  0.0834 -0.0456
 6811TIP3    H142068   2.641   1.890  -0.001 -1.0723  0.7943  1.0956
 6811TIP3    H242069   2.750   1.989   0.033 -0.1138  0.3304 -0.5298
 6812TIP3   OH242070   3.382   6.805   7.292 -0.0791 -0.3115 -0.1855
 6812TIP3    H142071   3.452   6.775   7.351  0.0074 -0.8999 -0.5715
 6812TIP3    H242072   3.301   6.776   7.334 -0.1547  1.0958  0.6774
 6813TIP3   OH242073   0.288   6.034   8.784  0.5813 -0.2902  0.5517
 6813TIP3    H142074   0.278   6.124   8.753 -0.8165 -0.2842  0.9734
 6813TIP3    H242075   0.275   6.039   8.879  1.5736 -0.7864  0.7275
 6814TIP3   OH242076   6.118   4.127   1.284 -0.0097 -0.9823  0.2438
 6814TIP3    H142077   6.073   4.043   1.280  2.1882 -2.2066 -0.7197
 6814TIP3    H242078   6.109   4.155   1.375 -3.1977 -0.7837 -0.0286
 6815TIP3   OH242079   1.652   6.020   1.671  0.3453 -0.2519 -0.6293
 6815TIP3    H142080   1.745   6.033   1.653  0.4400  0.9168  0.5348
 6815TIP3    H242081   1.612   6.105   1.655 -0.3902 -0.5387 -0.3792
 6816TIP3   OH242082   1.585   4.556   8.034 -0.1408 -0.0954 -0.8805
 6816TIP3    H142083   1.651   4.562   8.103  0.7992  0.5994 -1.8207
 6816TIP3    H242084   1.572   4.646   8.004  0.1686 -0.4802 -2.2538
 6817TIP3   OH242085   3.171   3.979   1.873 -0.3811 -0.2143  0.2748
 6817TIP3    H142086   3.200   4.007   1.960 -0.5925  0.5138  0.1188
 6817TIP3    H242087   3.153   3.886   1.882  3.5306 -1.1751  0.0390
 6818TIP3   OH242088   0.961   1.914   7.775  0.0990  0.2207 -0.0297
 6818TIP3    H142089   1.004   1.911   7.690 -1.3703 -0.7810 -0.7943
 6818TIP3    H242090   0.873   1.947   7.756 -1.0027 -2.0246  0.6841
 6819TIP3   OH242091   5.020   3.994   2.772 -0.0851  0.0398  0.4262
 6819TIP3    H142092   4.931   3.966   2.791 -0.6853  3.2131  3.1730
 6819TIP3    H242093   5.010   4.076   2.724  1.2408  1.0328  1.7439
 6820TIP3   OH242094   4.629   0.413   7.506 -0.2176 -0.1445  0.3001
 6820TIP3    H142095   4.683   0.426   7.429  1.0756 -0.5707  1.1073
 6820TIP3    H242096   4.561   0.352   7.478  0.8667 -1.1430 -0.2330
 6821TIP3   OH242097   3.479   3.083   2.115 -0.1290  0.3978 -0.4168
 6821TIP3    H142098   3.442   3.042   2.192  2.7870 -0.4487  0.6665
 6821TIP3    H242099   3.491   3.175   2.140 -1.0063  0.5767 -0.6195
 6822TIP3   OH242100   5.097   2.120   1.349  0.6992  0.5072 -0.0553
 6822TIP3    H142101   5.078   2.126   1.442 -2.5861  0.6361 -0.6325
 6822TIP3    H242102   5.110   2.211   1.321 -1.1121  0.7526 -0.1801
 6823TIP3   OH242103   5.687   0.517   8.148  0.4337  0.1114  0.1713
 6823TIP3    H142104   5.764   0.573   8.142  1.8305 -1.6464  0.7393
 6823TIP3    H242105   5.664   0.497   8.057  2.1193 -1.2111 -0.0011
 6824TIP3   OH242106   4.410   2.806   0.049  0.3887 -0.0376  0.3307
 6824TIP3    H142107   4.410   2.734  -0.014  0.7238  0.4212 -0.1936
 6824TIP3    H242108   4.483   2.862   0.023  0.2915  0.3647  0.8902
 6825TIP3   OH242109   6.752   5.647   1.445 -0.7022 -0.6232  0.5259
 6825TIP3    H142110   6.765   5.555   1.425  1.1169 -0.6848  1.8076
 6825TIP3    H242111   6.664   5.666   1.412 -0.8980 -2.6460 -0.2689
 6826TIP3   OH242112   3.275   5.061   0.691  0.2087  0.3883 -0.4447
 6826TIP3    H142113   3.273   5.148   0.652 -0.1570 -0.3304 -2.1254
 6826TIP3    H242114   3.344   5.066   0.757 -0.9169  2.3934  0.6884
 6827TIP3   OH242115   5.073   2.601   8.405  0.0866  0.3321 -0.2161
 6827TIP3    H142116   5.005   2.562   8.460 -0.9766  1.6027 -0.5778
 6827TIP3    H242117   5.129   2.648   8.466 -1.6822  2.6239 -0.1855
 6828TIP3   OH242118   3.730   6.767   1.901 -0.0068  0.0085  0.4718
 6828TIP3    H142119   3.652   6.721   1.869 -0.8628 -0.0836  2.5278
 6828TIP3    H242120   3.779   6.700   1.949  1.9600 -0.2115 -1.6434
 6829TIP3   OH242121   5.649   5.185   6.738  0.0969 -0.1702  0.2920
 6829TIP3    H142122   5.682   5.095   6.744  1.5855  0.2662 -0.7843
 6829TIP3    H242123   5.577   5.188   6.801  0.4074 -1.9422  0.7945
 6830TIP3   OH242124   5.727   6.416   7.792  0.1809  0.1870  0.4618
 6830TIP3    H142125   5.703   6.491   7.846  0.3724  1.1191 -0.6951
 6830TIP3    H242126   5.821   6.426   7.778 -0.2862  1.7215 -2.4833
 6831TIP3   OH242127   4.003   3.296   0.848  0.5489 -0.0321 -0.2653
 6831TIP3    H142128   3.968   3.385   0.840 -0.6038 -0.3123  1.2604
 6831TIP3    H242129   4.079   3.295   0.789  0.0338  1.6611 -1.0236
 6832TIP3   OH242130   5.522   2.506   8.620 -0.1642  0.0658 -0.5061
 6832TIP3    H142131   5.590   2.560   8.580  1.1533 -0.3988  0.9937
 6832TIP3    H242132   5.545   2.417   8.595 -0.3499 -0.0721 -0.1965
 6833TIP3   OH242133   4.284   4.599   7.758  0.1380 -0.4325 -0.1702
 6833TIP3    H142134   4.370   4.558   7.754 -0.1229 -1.0810  0.5716
 6833TIP3    H242135   4.301   4.693   7.746  0.8549 -0.6366 -0.7797
 6834TIP3   OH242136   3.961   1.079   8.535  0.7281 -0.0485 -0.0467
 6834TIP3    H142137   3.868   1.100   8.531  0.5348 -0.4816  1.5600
 6834TIP3    H242138   4.005   1.162   8.518 -0.0053  0.9168  2.3175
 6835TIP3   OH242139   0.013   5.728   6.729  0.7427  0.2931  0.4931
 6835TIP3    H142140   0.011   5.634   6.715  1.5171  0.2794  0.3957
 6835TIP3    H242141   0.090   5.758   6.680 -1.3006  1.4626 -2.2681
 6836TIP3   OH242142   6.003   0.418   2.038 -0.6537  0.0900 -0.3579
 6836TIP3    H142143   5.979   0.508   2.060 -0.6499  0.5293 -2.0542
 6836TIP3    H242144   5.975   0.407   1.947  1.9097 -0.6820 -1.1198
 6837TIP3   OH242145   3.338   4.712   2.954  0.0205 -0.5565 -0.5177
 6837TIP3    H142146   3.410   4.767   2.983 -1.3377  2.1854 -1.9631
 6837TIP3    H242147   3.272   4.720   3.023  0.3253 -1.4864 -0.1084
 6838TIP3   OH242148   4.905   6.099   2.620 -0.0910  0.0157  0.4148
 6838TIP3    H142149   4.951   6.036   2.564  1.0718  0.5514  0.7405
 6838TIP3    H242150   4.973   6.136   2.676 -0.2805  3.1036 -1.1570
 6839TIP3   OH242151   6.313   2.030   3.134 -0.1993  0.0965  0.2644
 6839TIP3    H142152   6.376   1.967   3.168 -1.5926  0.0122  2.8787
 6839TIP3    H242153   6.368   2.099   3.095  1.3742 -1.6184 -0.7185
 6840TIP3   OH242154   0.810   6.075   7.133  0.0796 -0.3666 -0.0425
 6840TIP3    H142155   0.855   6.158   7.152  0.0647 -0.8347  2.3026
 6840TIP3    H242156   0.880   6.011   7.122  0.0794 -0.1543 -1.5532
 6841TIP3   OH242157   1.887   2.141   0.973 -0.0478 -0.3905 -0.5560
 6841TIP3    H142158   1.831   2.159   1.048  1.8101  2.5658  0.3191
 6841TIP3    H242159   1.847   2.065   0.930 -3.1122 -0.1013  1.4655
 6842TIP3   OH242160   0.004   6.336   7.014 -0.2228 -0.1496 -0.3196
 6842TIP3    H142161  -0.078   6.368   6.976  0.4796  1.7827 -0.3621
 6842TIP3    H242162   0.050   6.416   7.041  0.4910 -1.3148  2.1629
 6843TIP3   OH242163   5.347   0.780   0.514 -0.0004 -0.5091 -0.2127
 6843TIP3    H142164   5.340   0.811   0.604 -0.8933 -0.9475 -0.1143
 6843TIP3    H242165   5.282   0.833   0.466 -0.8804 -1.5575 -0.2180
 6844TIP3   OH242166   6.270   1.836   2.169  0.5531  0.0617 -0.1041
 6844TIP3    H142167   6.273   1.925   2.206 -3.0009  0.2853 -0.0060
 6844TIP3    H242168   6.282   1.779   2.244 -1.8253  0.5317  0.7133
 6845TIP3   OH242169   2.848   1.360   1.556  0.1927  0.1152  0.0375
 6845TIP3    H142170   2.811   1.366   1.468 -1.0260 -2.5864  0.2496
 6845TIP3    H242171   2.866   1.450   1.581 -3.0762  1.3557 -1.4906
 6846TIP3   OH242172   0.581   3.881   7.882 -0.7558 -0.1205 -0.2477
 6846TIP3    H142173   0.543   3.830   7.954  1.1827  0.0707  1.0031
 6846TIP3    H242174   0.548   3.839   7.803 -1.8949 -1.1930  0.7374
 6847TIP3   OH242175   0.406   5.947   2.216 -0.3254 -0.4683 -0.3024
 6847TIP3    H142176   0.426   6.041   2.217 -3.3844  0.3140  0.5572
 6847TIP3    H242177   0.457   5.911   2.289  0.0967  0.7601  0.0342
 6848TIP3   OH242178   2.944   4.499   8.437 -0.0790 -0.0107 -0.0213
 6848TIP3    H142179   2.992   4.438   8.493 -2.9110 -1.3565  1.1294
 6848TIP3    H242180   2.905   4.444   8.369 -1.4303  0.6896  0.1380
 6849TIP3   OH242181   6.340   2.313   2.393  0.0818  0.4206 -0.3044
 6849TIP3    H142182   6.388   2.258   2.455  0.8814 -0.6186 -1.7978
 6849TIP3    H242183   6.407   2.346   2.333 -0.7383  0.9705 -0.9352
 6850TIP3   OH242184   5.231   5.597   2.066 -0.4926  0.9230 -0.1821
 6850TIP3    H142185   5.244   5.506   2.093 -1.9471  0.3334 -1.3308
 6850TIP3    H242186   5.319   5.634   2.065  0.2920 -0.8198 -0.8513
 6851TIP3   OH242187   2.023   2.987   1.409  0.0715 -0.2905 -0.2512
 6851TIP3    H142188   1.984   2.927   1.347 -0.8890  0.3964 -0.3271
 6851TIP3    H242189   1.950   3.041   1.441  0.3547 -1.1923  2.1336
 6852TIP3   OH242190   3.660   2.669   0.243  0.0729 -0.0566  0.5852
 6852TIP3    H142191   3.725   2.726   0.284 -0.5867  0.6785  0.6408
 6852TIP3    H242192   3.611   2.726   0.184 -1.2310 -0.3406  1.3554
 6853TIP3   OH242193   3.025   2.601   8.709 -0.4732  0.2424  0.1352
 6853TIP3    H142194   3.024   2.589   8.614 -1.6200 -0.2374  0.1825
 6853TIP3    H242195   2.985   2.687   8.722 -1.1179 -0.0618  0.2102
 6854TIP3   OH242196   5.080   5.071   2.173 -0.3381  0.0565  0.1059
 6854TIP3    H142197   5.062   5.161   2.147 -0.7858  0.0062  0.2364
 6854TIP3    H242198   5.020   5.054   2.245  1.0361  0.2656  1.3676
 6855TIP3   OH242199   6.592   5.299   2.559 -0.3627 -0.0776  0.2363
 6855TIP3    H142200   6.512   5.343   2.530  0.2112  0.3912 -0.7005
 6855TIP3    H242201   6.574   5.206   2.548 -1.4179 -0.0810  1.7703
 6856TIP3   OH242202   1.189   4.430   6.813 -0.1407  0.3691 -0.6263
 6856TIP3    H142203   1.265   4.485   6.793 -0.2748  0.0648 -2.0686
 6856TIP3    H242204   1.127   4.489   6.855  1.0376  0.5261  0.9930
 6857TIP3   OH242205   6.669   6.243   8.334 -0.4694 -0.3630  0.1803
 6857TIP3    H142206   6.633   6.238   8.245 -2.2483  0.9403  0.7517
 6857TIP3    H242207   6.696   6.334   8.344 -0.7585 -0.3691  1.1276
 6858TIP3   OH242208   4.944   4.124   2.290  0.0671 -0.5510  0.4126
 6858TIP3    H142209   5.025   4.103   2.337 -0.3984 -1.0942  0.9815
 6858TIP3    H242210   4.888   4.048   2.304 -0.3344 -0.4314 -0.4601
 6859TIP3   OH242211   4.887   2.854   0.593 -0.2284  0.4112 -0.0039
 6859TIP3    H142212   4.925   2.883   0.676 -2.6658  1.9025  0.6803
 6859TIP3    H242213   4.875   2.934   0.543 -2.2468  0.0046 -0.2458
 6860TIP3   OH242214   0.637   3.652   0.811  0.0343 -0.3227 -0.0984
 6860TIP3    H142215   0.624   3.642   0.716  0.4440 -1.4938 -0.0411
 6860TIP3    H242216   0.574   3.592   0.850  0.5503 -0.5778  0.3479
 6861TIP3   OH242217   2.049   5.161   1.334  0.1877 -0.0501  0.2693
 6861TIP3    H142218   2.058   5.065   1.332 -1.9433 -0.3139 -1.7656
 6861TIP3    H242219   1.995   5.178   1.411  0.0851 -0.5528  0.3178
 6862TIP3   OH242220   2.218   3.774   8.574  0.5309  0.0451 -0.1015
 6862TIP3    H142221   2.150   3.722   8.530  2.4997 -2.6102 -0.2796
 6862TIP3    H242222   2.227   3.853   8.521 -0.9883 -0.5016 -1.2338
 6863TIP3   OH242223   2.125   6.238   7.543 -0.5546  0.3064 -0.1400
 6863TIP3    H142224   2.173   6.266   7.465 -0.3929 -0.1463 -0.2059
 6863TIP3    H242225   2.134   6.311   7.605  2.4950 -0.7881  0.8674
 6864TIP3   OH242226   4.632   5.969   2.047  0.0302 -0.2002 -0.4629
 6864TIP3    H142227   4.573   6.018   1.991 -0.7488 -3.5781 -2.9343
 6864TIP3    H242228   4.718   5.979   2.006 -0.3204 -1.6364 -1.6415
 6865TIP3   OH242229   1.023   4.514   7.778 -0.3297 -0.0468 -0.9341
 6865TIP3    H142230   1.057   4.603   7.770 -0.1792  0.1615  1.2736
 6865TIP3    H242231   0.944   4.513   7.725 -0.6895  1.6142 -0.4718
 6866TIP3   OH242232   6.409   6.394   1.738 -0.3719  0.0502 -0.2554
 6866TIP3    H142233   6.474   6.337   1.779 -1.7068 -0.3520  1.4573
 6866TIP3    H242234   6.442   6.409   1.650  1.7434 -0.5577  0.3717
 6867TIP3   OH242235   5.673   6.514   8.208 -0.1230  1.0104 -0.5664
 6867TIP3    H142236   5.592   6.549   8.244 -0.1584 -0.6449  1.1118
 6867TIP3    H242237   5.739   6.580   8.228 -0.2636  0.4414  2.1444
 6868TIP3   OH242238   3.800   4.258   1.811 -0.2250 -0.3697 -0.4057
 6868TIP3    H142239   3.781   4.261   1.905  0.0453 -2.3151 -0.2401
 6868TIP3    H242240   3.886   4.217   1.805 -1.0958 -2.1986 -1.5284
 6869TIP3   OH242241   1.699   5.001   7.441 -0.0380 -0.2414  0.3673
 6869TIP3    H142242   1.654   5.072   7.487  0.7920  0.0916  0.6677
 6869TIP3    H242243   1.670   5.009   7.350 -1.3439 -0.6301  0.7141
 6870TIP3   OH242244   3.887   4.898   1.386 -0.1852 -0.1122  0.0282
 6870TIP3    H142245   3.861   4.960   1.454 -2.4203 -2.2401  1.2880
 6870TIP3    H242246   3.887   4.813   1.430 -1.9731 -1.6361 -2.5991
 6871TIP3   OH242247   3.695   6.720   0.411  0.6395  0.5843  0.0942
 6871TIP3    H142248   3.713   6.733   0.317  0.2398 -2.6684 -0.5468
 6871TIP3    H242249   3.721   6.630   0.428 -2.5643 -0.1023  2.2592
 6872TIP3   OH242250   0.228   5.290   7.307 -0.1598  0.0516 -0.5593
 6872TIP3    H142251   0.187   5.224   7.363 -0.4741 -0.6932 -1.6510
 6872TIP3    H242252   0.244   5.246   7.224  0.8332  0.9770 -0.8909
 6873TIP3   OH242253   5.835   1.513   2.932 -0.0624 -0.2055  0.8512
 6873TIP3    H142254   5.748   1.548   2.949  0.8501  0.7990  3.9081
 6873TIP3    H242255   5.849   1.530   2.839 -2.3937  1.2400  0.6807
 6874TIP3   OH242256   1.962   2.438   1.651 -0.1773  0.0612 -0.4121
 6874TIP3    H142257   1.954   2.372   1.720  0.3233  0.4490  0.0328
 6874TIP3    H242258   2.011   2.395   1.581  1.8784  0.5004  0.6632
 6875TIP3   OH242259   4.583   1.143   0.674  1.0413  0.7760  0.3976
 6875TIP3    H142260   4.643   1.208   0.709  1.7340  0.4602 -0.1891
 6875TIP3    H242261   4.627   1.059   0.686  1.3218  0.6524 -1.2055
 6876TIP3   OH242262   3.215   0.211   0.131  0.4542 -0.1518  0.5166
 6876TIP3    H142263   3.194   0.117   0.126 -2.1264  0.4039 -1.8525
 6876TIP3    H242264   3.154   0.246   0.196 -1.6917  0.4472 -1.6771
 6877TIP3   OH242265   1.781   5.547   2.054 -0.2860  0.7067  0.1628
 6877TIP3    H142266   1.791   5.639   2.033  0.3819  0.8640  1.0971
 6877TIP3    H242267   1.865   5.522   2.093 -0.7801 -0.0582  0.7652
 6878TIP3   OH242268   0.863   1.880   3.389 -0.3545 -0.0461 -0.1415
 6878TIP3    H142269   0.870   1.813   3.322  0.1291  1.1998 -1.3809
 6878TIP3    H242270   0.920   1.849   3.460  1.6996  0.1175 -1.6406
 6879TIP3   OH242271   5.462   1.901   7.724 -0.6093 -0.0910 -0.2926
 6879TIP3    H142272   5.487   1.878   7.814  2.7304  0.6106 -0.8995
 6879TIP3    H242273   5.498   1.830   7.671 -0.4748  0.6888 -1.2553
 6880TIP3   OH242274   6.289   4.930   0.660  0.1272  0.3586  0.5436
 6880TIP3    H142275   6.328   4.865   0.601  0.6651  0.4830  0.7510
 6880TIP3    H242276   6.342   5.009   0.647  0.1531  0.4341  1.0694
 6881TIP3   OH242277   5.709   6.208   8.594  0.3766 -0.2300  0.1269
 6881TIP3    H142278   5.721   6.114   8.606  1.3070 -0.0678  0.5561
 6881TIP3    H242279   5.704   6.243   8.683 -1.3570 -0.0239 -0.0297
 6882TIP3   OH242280   4.317   2.252   1.569  0.1261  0.2008  0.6213
 6882TIP3    H142281   4.227   2.281   1.552  0.3326  0.7053  0.3576
 6882TIP3    H242282   4.308   2.161   1.598 -0.4332  0.0954  0.1389
 6883TIP3   OH242283   4.351   3.261   2.202  0.1160  0.0518 -0.0709
 6883TIP3    H142284   4.412   3.198   2.241 -0.9297 -1.5043 -0.8660
 6883TIP3    H242285   4.272   3.254   2.256  0.1330  1.0202  0.0945
 6884TIP3   OH242286   4.148   4.588   1.249 -0.4506 -0.1214  0.7462
 6884TIP3    H142287   4.233   4.585   1.294 -0.2538 -0.1286  0.3752
 6884TIP3    H242288   4.169   4.617   1.160 -1.0896  2.2458  1.2895
 6885TIP3   OH242289   5.916   0.832   0.457  0.3397 -0.2704  0.0658
 6885TIP3    H142290   5.933   0.926   0.455 -0.7157  0.0211  1.9943
 6885TIP3    H242291   5.967   0.797   0.384  0.6934  1.7910 -0.7494
 6886TIP3   OH242292   1.595   1.263   0.671  0.4790  0.1691  0.4267
 6886TIP3    H142293   1.566   1.280   0.761  0.3259  0.4720  0.3211
 6886TIP3    H242294   1.634   1.345   0.642 -0.0357  0.2735  0.0045
 6887TIP3   OH242295   4.044   3.595   8.368 -0.0993  0.1933  0.1034
 6887TIP3    H142296   4.067   3.587   8.460 -0.8483 -0.8183  0.2225
 6887TIP3    H242297   3.950   3.613   8.368 -0.0259  0.6119 -0.4514
 6888TIP3   OH242298   3.334   0.254   6.794  0.0445 -0.1560  0.1731
 6888TIP3    H142299   3.265   0.217   6.848 -0.2205  0.3470  0.1832
 6888TIP3    H242300   3.367   0.180   6.742  0.4018 -0.6781  1.1165
 6889TIP3   OH242301   1.789   4.608   7.362  0.3829 -0.0987  0.3964
 6889TIP3    H142302   1.766   4.521   7.395  1.6762 -0.5627  0.1334
 6889TIP3    H242303   1.875   4.625   7.399  0.6289  0.5867 -0.4722
 6890TIP3   OH242304   4.514   4.409   8.548  0.3465  0.0548  0.0888
 6890TIP3    H142305   4.448   4.462   8.593  0.0563 -0.4948  0.3269
 6890TIP3    H242306   4.551   4.468   8.482 -0.0836  0.5018  0.2369
 6891TIP3   OH242307   4.298   3.580   0.267  0.2736  0.2642 -0.5870
 6891TIP3    H142308   4.356   3.653   0.244 -0.3665  0.9172 -0.1614
 6891TIP3    H242309   4.348   3.502   0.243  1.3790  0.8020 -0.1233
 6892TIP3   OH242310   2.917   5.801   1.769  0.5172  0.1108  0.5684
 6892TIP3    H142311   2.949   5.750   1.844 -0.3716  0.4996  1.2237
 6892TIP3    H242312   2.832   5.762   1.748  1.9074 -1.8585 -2.0652
 6893TIP3   OH242313   4.032   5.228   2.109 -0.5579  0.3650  0.1562
 6893TIP3    H142314   4.051   5.197   2.198 -0.8752 -2.1009 -0.5860
 6893TIP3    H242315   3.942   5.260   2.114 -0.4839  0.4979  0.7820
 6894TIP3   OH242316   5.872   1.942   0.244 -0.8398 -0.3041 -0.5028
 6894TIP3    H142317   5.845   1.852   0.227 -1.7985 -0.1521  0.1617
 6894TIP3    H242318   5.951   1.953   0.191 -0.5402 -1.6186 -0.3716
 6895TIP3   OH242319   4.804   6.208   8.333 -0.4773 -0.3611  0.4586
 6895TIP3    H142320   4.772   6.150   8.265  1.5447  1.5180 -2.3396
 6895TIP3    H242321   4.890   6.173   8.356 -1.1766 -1.0271  2.2147
 6896TIP3   OH242322   4.209   3.745   7.397 -0.5945  0.1741 -0.0499
 6896TIP3    H142323   4.122   3.772   7.365 -0.2127 -0.0165 -1.2844
 6896TIP3    H242324   4.209   3.650   7.388  0.0254  0.2405 -0.7929
 6897TIP3   OH242325   3.431   5.924   1.853  0.0695  0.1594  0.5277
 6897TIP3    H142326   3.432   5.836   1.891  0.7681  0.1243  0.4403
 6897TIP3    H242327   3.349   5.962   1.884  0.1243 -0.2493  1.1976
 6898TIP3   OH242328   2.825   0.148   6.897 -0.3776 -0.2821  0.3659
 6898TIP3    H142329   2.769   0.225   6.903 -0.4784 -0.2393 -0.7527
 6898TIP3    H242330   2.776   0.087   6.841  0.6930 -0.2270 -0.6647
 6899TIP3   OH242331   6.264   1.490   1.870  0.5133 -0.2040  0.2974
 6899TIP3    H142332   6.267   1.584   1.887 -0.0269 -0.5456  2.6473
 6899TIP3    H242333   6.354   1.466   1.851  0.6538  0.7888 -0.3094
 6900TIP3   OH242334   5.286   5.538   8.388  0.2203  0.3209  0.2040
 6900TIP3    H142335   5.259   5.628   8.404 -0.3168  0.5268 -1.5597
 6900TIP3    H242336   5.215   5.485   8.423 -1.1016  0.7493 -1.6918
 6901TIP3   OH242337   4.229   4.742   0.686  0.3228 -0.5270 -0.1051
 6901TIP3    H142338   4.228   4.808   0.755  1.3141 -0.1424 -0.4335
 6901TIP3    H242339   4.284   4.671   0.721  2.3831  0.4514 -1.1350
 6902TIP3   OH242340   1.133   2.808   8.313 -0.4434 -0.8717  0.3001
 6902TIP3    H142341   1.040   2.828   8.310 -0.6489 -1.4531  1.7596
 6902TIP3    H242342   1.177   2.893   8.311 -0.9625 -0.6156 -1.0081
 6903TIP3   OH242343   1.750   6.453   8.725 -0.3305 -0.0311  0.0181
 6903TIP3    H142344   1.786   6.428   8.810 -1.5485  0.7733  0.7951
 6903TIP3    H242345   1.823   6.442   8.664  0.8235  0.2450  1.3113
 6904TIP3   OH242346   2.708   4.637   6.606 -0.2341  0.5189  0.5655
 6904TIP3    H142347   2.696   4.675   6.693  0.6104  1.3660  0.3300
 6904TIP3    H242348   2.679   4.547   6.615 -1.1636  0.8887  1.4542
 6905TIP3   OH242349   2.426   1.102   8.736  0.4271  0.1506  0.0103
 6905TIP3    H142350   2.469   1.153   8.805  3.3458  0.2388 -1.6981
 6905TIP3    H242351   2.435   1.011   8.764  2.2504  0.1346 -0.4872
 6906TIP3   OH242352   4.433   1.841   1.711  0.2696 -0.2536 -0.6738
 6906TIP3    H142353   4.374   1.913   1.692  0.5360 -0.2885 -1.7100
 6906TIP3    H242354   4.477   1.867   1.792  2.5224  2.2206 -2.4919
 6907TIP3   OH242355   5.077   3.159   0.536 -0.4703 -0.2132 -0.1220
 6907TIP3    H142356   5.106   3.129   0.622 -0.1715  2.2052  0.7002
 6907TIP3    H242357   5.104   3.251   0.533 -0.8635 -0.1217 -2.6440
 6908TIP3   OH242358   3.531   2.201   7.058 -0.4740 -0.1634 -0.4946
 6908TIP3    H142359   3.555   2.109   7.045 -1.8442 -0.6190  0.0245
 6908TIP3    H242360   3.487   2.202   7.143  1.3325  1.3439  0.4889
 6909TIP3   OH242361   0.068   1.922   7.024  0.5221 -0.1454  0.3202
 6909TIP3    H142362  -0.001   1.969   7.070  0.2052  0.3668 -0.6585
 6909TIP3    H242363   0.070   1.836   7.066 -0.6766 -0.1539  0.3895
 6910TIP3   OH242364   3.862   2.029   0.835 -0.0327  0.1750 -0.5843
 6910TIP3    H142365   3.770   2.028   0.859 -0.1773  2.3876 -0.8144
 6910TIP3    H242366   3.909   2.021   0.918 -0.5096  2.6452  0.0325
 6911TIP3   OH242367   3.420   4.499   1.257  0.2566  0.3080 -0.5799
 6911TIP3    H142368   3.375   4.512   1.341  0.1909  2.0009 -0.8529
 6911TIP3    H242369   3.430   4.404   1.250  1.1206  0.1488  1.8062
 6912TIP3   OH242370   2.452   4.619   0.651  0.1695  0.2348  0.8113
 6912TIP3    H142371   2.424   4.690   0.593 -1.8616 -0.7348  0.5257
 6912TIP3    H242372   2.532   4.651   0.691  1.8396  0.9091 -2.6446
 6913TIP3   OH242373   4.366   3.860   2.264 -0.7035 -0.1756  0.0730
 6913TIP3    H142374   4.300   3.849   2.332 -0.2125 -2.2877  0.2856
 6913TIP3    H242375   4.383   3.771   2.233  1.9667  0.2796 -0.0026
 6914TIP3   OH242376   4.760   6.539   8.279 -0.6265 -0.0213  0.1078
 6914TIP3    H142377   4.841   6.589   8.288 -1.0013  0.6022  0.1526
 6914TIP3    H242378   4.778   6.455   8.320  0.6684 -0.6969 -1.7302
 6915TIP3   OH242379   0.197   4.971   8.814 -0.6346 -0.2510  0.1405
 6915TIP3    H142380   0.164   4.902   8.757  0.6107  0.1131 -1.0670
 6915TIP3    H242381   0.261   4.928   8.870 -0.3186 -0.2128 -0.1855
 6916TIP3   OH242382   4.243   1.347   8.743  0.1670 -0.2481  0.0717
 6916TIP3    H142383   4.300   1.277   8.775  0.9285 -0.3894 -1.5499
 6916TIP3    H242384   4.234   1.406   8.818  0.0669 -1.7065  1.2539
 6917TIP3   OH242385   4.447   6.710   1.529 -0.0491  0.2013  0.6894
 6917TIP3    H142386   4.361   6.669   1.536  0.3143 -0.4421  1.5703
 6917TIP3    H242387   4.468   6.704   1.436 -0.9265  0.3224  0.4702
 6918TIP3   OH242388   6.086   3.869   2.386 -0.1862  0.5493  0.4379
 6918TIP3    H142389   6.097   3.866   2.480 -0.1122  0.0829  0.4132
 6918TIP3    H242390   5.994   3.894   2.373 -0.5867 -0.7640  0.6374
 6919TIP3   OH242391   1.894   4.664   1.782 -0.1653  0.3624  0.1865
 6919TIP3    H142392   1.898   4.665   1.687  0.0554  1.3419  0.1921
 6919TIP3    H242393   1.965   4.605   1.809 -0.5030 -0.2555 -0.2560
 6920TIP3   OH242394   4.801   2.834   1.675  0.1421  0.0494  0.7932
 6920TIP3    H142395   4.883   2.882   1.662 -0.9540  2.0147  0.8200
 6920TIP3    H242396   4.749   2.890   1.733 -1.6036 -0.6869  0.0125
 6921TIP3   OH242397   1.035   3.596   1.779  0.0509 -0.3697 -0.0290
 6921TIP3    H142398   1.028   3.548   1.862 -0.7222  0.8062  0.6130
 6921TIP3    H242399   1.129   3.610   1.768  0.0857  1.1843  1.7126
 6922TIP3   OH242400   0.336   2.093   0.996 -0.1059  0.3256 -0.1520
 6922TIP3    H142401   0.342   2.140   0.913  0.7810  2.4539  1.0305
 6922TIP3    H242402   0.407   2.030   0.993 -1.4049 -1.1795 -1.8379
 6923TIP3   OH242403   2.369   2.546   8.353  0.1114 -0.4798  0.3157
 6923TIP3    H142404   2.373   2.618   8.289  0.6783  0.7554  1.6892
 6923TIP3    H242405   2.330   2.474   8.304  0.7288  0.3375 -1.4980
 6924TIP3   OH242406   1.784   4.578   0.595 -0.1726  0.6332  0.2874
 6924TIP3    H142407   1.819   4.495   0.627 -1.6116 -0.6106 -1.2563
 6924TIP3    H242408   1.782   4.634   0.673  0.6028 -0.8321  1.4089
 6925TIP3   OH242409   1.798   6.400   0.526 -0.4486  0.1685 -0.4434
 6925TIP3    H142410   1.880   6.352   0.533 -1.3109 -1.3706 -0.5438
 6925TIP3    H242411   1.810   6.458   0.451  0.1456 -0.8509 -1.1503
 6926TIP3   OH242412   4.167   1.032   7.383  0.4152  0.0380  0.5004
 6926TIP3    H142413   4.261   1.048   7.392  0.3749  0.4832  0.1201
 6926TIP3    H242414   4.161   0.937   7.368  0.7414 -0.1246  1.3108
 6927TIP3   OH242415   0.726   4.369   2.328 -0.3823  0.5754 -0.7591
 6927TIP3    H142416   0.642   4.327   2.307 -1.1583  2.1942 -1.0179
 6927TIP3    H242417   0.744   4.341   2.418 -0.6633 -0.6141 -1.0443
 6928TIP3   OH242418   5.062   1.513   0.778 -0.2686 -0.2454  0.0830
 6928TIP3    H142419   5.016   1.543   0.857  0.6760  0.1741  0.4905
 6928TIP3    H242420   5.147   1.483   0.810 -0.8565 -2.6395 -0.4303
 6929TIP3   OH242421   5.447   3.911   7.616  0.5679 -0.6034  0.6568
 6929TIP3    H142422   5.523   3.915   7.673  0.1843 -0.6686  1.1845
 6929TIP3    H242423   5.461   3.833   7.562  0.7435 -0.7740  0.9463
 6930TIP3   OH242424   4.265   4.804   1.654  0.3592 -0.2557 -0.1074
 6930TIP3    H142425   4.333   4.789   1.588  0.7071  1.6478 -0.2254
 6930TIP3    H242426   4.303   4.870   1.713 -0.6780 -0.5355  0.9098
 6931TIP3   OH242427   4.527   0.570   7.975  0.3515  0.3639  0.5211
 6931TIP3    H142428   4.474   0.521   8.039 -0.1514  0.4214  0.1513
 6931TIP3    H242429   4.488   0.658   7.974  1.2680  0.7945  1.2033
 6932TIP3   OH242430   3.289   3.432   1.161  0.1602  0.3093  0.3229
 6932TIP3    H142431   3.258   3.406   1.248 -2.5708 -0.6507 -0.8222
 6932TIP3    H242432   3.302   3.350   1.114  1.6788  0.8188 -0.1914
 6933TIP3   OH242433   4.168   3.585   8.634  0.0877 -0.0952  0.3819
 6933TIP3    H142434   4.217   3.554   8.710  0.1829  2.4606  1.4527
 6933TIP3    H242435   4.234   3.598   8.566  0.3410 -0.1351  0.6195
 6934TIP3   OH242436   5.909   4.425   7.878 -0.1429 -0.1167 -0.2952
 6934TIP3    H142437   5.877   4.383   7.957  0.2577 -0.3201 -0.2393
 6934TIP3    H242438   6.004   4.413   7.881 -0.2798 -1.8911 -1.8177
 6935TIP3   OH242439   3.951   5.310   0.423  0.1093  0.0658  0.2458
 6935TIP3    H142440   3.877   5.364   0.452  0.3921  1.2466 -1.1265
 6935TIP3    H242441   3.914   5.254   0.355  0.4452  0.5776 -0.3618
 6936TIP3   OH242442   2.821   2.125   2.688 -0.3821 -0.0688  0.1146
 6936TIP3    H142443   2.823   2.071   2.767  0.3076 -0.9714 -0.4937
 6936TIP3    H242444   2.844   2.064   2.617 -0.3178  0.8685 -0.6917
 6937TIP3   OH242445   0.459   1.783   7.623  0.6265 -0.0584 -0.0520
 6937TIP3    H142446   0.448   1.749   7.712 -0.0087 -0.3905 -0.2501
 6937TIP3    H242447   0.542   1.746   7.594  0.3805 -0.7204  0.0652
 6938TIP3   OH242448   3.369   2.056   0.694 -0.0700 -0.3720 -0.2101
 6938TIP3    H142449   3.361   1.995   0.767 -1.5854 -0.0564 -0.0838
 6938TIP3    H242450   3.378   2.000   0.617 -0.7675 -0.7516 -0.0235
 6939TIP3   OH242451   1.349   2.847   0.862  0.3573  0.2275 -0.5815
 6939TIP3    H142452   1.294   2.793   0.805 -1.5299  0.7104  0.6949
 6939TIP3    H242453   1.331   2.937   0.835 -0.6921  0.4720  0.8477
 6940TIP3   OH242454   4.600   2.753   0.532  0.1621 -0.3323 -0.3241
 6940TIP3    H142455   4.538   2.785   0.466 -0.0480  1.3403  0.6151
 6940TIP3    H242456   4.664   2.824   0.541 -1.8165  1.2397  3.8049
 6941TIP3   OH242457   6.378   4.927   8.540  0.7366  0.3949  0.2103
 6941TIP3    H142458   6.406   4.918   8.449 -0.4028  1.9786 -0.3482
 6941TIP3    H242459   6.357   5.020   8.550  1.3112  0.3555  2.2484
 6942TIP3   OH242460   0.440   5.125   1.705  0.4841 -0.1211  0.1891
 6942TIP3    H142461   0.440   5.196   1.641  0.3210 -0.7555 -0.5280
 6942TIP3    H242462   0.460   5.046   1.654 -0.3843 -0.7486  0.7919
 6943TIP3   OH242463   4.889   1.926   1.342  0.3111 -0.5587  0.0237
 6943TIP3    H142464   4.976   1.960   1.362  0.5946 -1.3954  0.2463
 6943TIP3    H242465   4.863   1.972   1.262  0.8537 -0.1238  0.0921
 6944TIP3   OH242466   5.875   5.597   0.721 -0.3566 -0.2025 -0.2043
 6944TIP3    H142467   5.875   5.636   0.808  1.3417 -0.5302 -0.0354
 6944TIP3    H242468   5.853   5.505   0.736 -0.2283 -0.2239 -0.1544
 6945TIP3   OH242469   1.731   6.385   2.954  0.6722 -0.0837 -0.4462
 6945TIP3    H142470   1.782   6.317   2.998 -0.1452 -0.9949 -0.8789
 6945TIP3    H242471   1.791   6.461   2.950  1.8765 -1.0135 -0.6450
 6946TIP3   OH242472   0.325   1.250   0.196 -0.1384  0.4823  0.5095
 6946TIP3    H142473   0.254   1.314   0.201 -1.9587 -1.5227  2.7473
 6946TIP3    H242474   0.356   1.257   0.106 -1.5381  3.1084  0.1191
 6947TIP3   OH242475   3.744   5.279   2.171 -0.0072 -0.1506 -0.0334
 6947TIP3    H142476   3.763   5.324   2.253 -0.7358  0.7277 -0.3232
 6947TIP3    H242477   3.686   5.207   2.195 -0.5624  0.3603  0.1750
 6948TIP3   OH242478   6.652   0.441   8.222  0.1957 -0.1496  0.5551
 6948TIP3    H142479   6.572   0.488   8.200  0.2151  0.2922  1.3924
 6948TIP3    H242480   6.717   0.472   8.159 -0.3744 -0.7962 -0.3741
 6949TIP3   OH242481   4.868   4.746   7.887 -0.0925  0.3862  0.7740
 6949TIP3    H142482   4.880   4.653   7.902 -2.1100 -0.2673 -1.0128
 6949TIP3    H242483   4.844   4.782   7.972 -1.3322 -1.1525  1.1201
 6950TIP3   OH242484   2.264   6.103   1.161  0.3946 -1.0580  0.0673
 6950TIP3    H142485   2.278   6.193   1.190  1.7165 -0.7945 -1.2584
 6950TIP3    H242486   2.314   6.050   1.222  1.6283 -0.6649 -0.5673
 6951TIP3   OH242487   6.583   6.270   7.764  0.2545  0.2045  0.1994
 6951TIP3    H142488   6.573   6.362   7.738  0.3607  0.5051  1.1722
 6951TIP3    H242489   6.626   6.229   7.689 -1.3288  0.5550 -0.9621
 6952TIP3   OH242490   4.042   0.616   8.349  0.0225  0.3777 -0.1744
 6952TIP3    H142491   3.978   0.687   8.338 -1.3819 -0.5681  1.3789
 6952TIP3    H242492   4.004   0.542   8.301  0.0578 -0.1317  0.5706
 6953TIP3   OH242493   0.446   5.305   1.483  0.1118 -0.5819  0.0707
 6953TIP3    H142494   0.518   5.360   1.454 -0.1289  0.6951  1.7391
 6953TIP3    H242495   0.370   5.363   1.485 -0.5377 -1.4089  0.2411
 6954TIP3   OH242496   0.188   6.501   0.217  0.0532  0.5782 -0.1192
 6954TIP3    H142497   0.151   6.458   0.140  0.2817 -1.8182  0.9900
 6954TIP3    H242498   0.279   6.471   0.219  0.0598  0.6484  1.0373
 6955TIP3   OH242499   0.946   3.758   2.898 -0.2709  0.3953  0.0057
 6955TIP3    H142500   0.996   3.689   2.943 -0.4371  1.1513  1.4166
 6955TIP3    H242501   0.855   3.733   2.910 -0.3383  0.9729  0.7204
 6956TIP3   OH242502   6.182   4.745   7.877 -0.1466  0.0429 -0.3111
 6956TIP3    H142503   6.092   4.776   7.889 -0.4120 -0.8315  0.0708
 6956TIP3    H242504   6.186   4.665   7.930  0.2838 -0.9668 -1.8223
 6957TIP3   OH242505   2.780   2.948   8.339  0.0644  0.3693  0.0182
 6957TIP3    H142506   2.761   2.857   8.361  1.3146 -0.3480 -1.6524
 6957TIP3    H242507   2.700   2.995   8.362 -1.2540 -1.4222 -0.6412
 6958TIP3   OH242508   3.801   4.385   8.420 -0.1574  0.2009 -0.3288
 6958TIP3    H142509   3.891   4.360   8.404  0.5388  1.0838  1.7439
 6958TIP3    H242510   3.778   4.342   8.503 -1.0562  1.2975  0.0291
 6959TIP3   OH242511   6.553   4.602   0.194  0.2245 -0.2930 -0.0695
 6959TIP3    H142512   6.486   4.539   0.222  0.5897  0.0056  1.5807
 6959TIP3    H242513   6.597   4.558   0.121 -2.5562  0.0414 -2.1110
 6960TIP3   OH242514   3.913   6.656   8.059  0.0744 -0.4297 -0.0501
 6960TIP3    H142515   3.929   6.631   7.968  0.0040 -2.0424  0.3611
 6960TIP3    H242516   3.837   6.604   8.085 -0.0348  0.1730  0.8808
 6961TIP3   OH242517   3.640   5.639   7.112  0.1771  0.0818  0.5089
 6961TIP3    H142518   3.726   5.661   7.076  0.0615  0.1419  0.2713
 6961TIP3    H242519   3.656   5.627   7.206  0.4758 -0.0687  0.4404
 6962TIP3   OH242520   1.468   2.326   0.591  0.3244  0.1166 -0.6475
 6962TIP3    H142521   1.384   2.334   0.635  0.6804 -0.9752  0.2748
 6962TIP3    H242522   1.533   2.330   0.661  0.9745 -0.3269 -1.2028
 6963TIP3   OH242523   1.579   6.216   1.038 -0.1618  0.0242 -0.3473
 6963TIP3    H142524   1.590   6.284   1.105  2.6276 -1.7315  1.1422
 6963TIP3    H242525   1.496   6.174   1.060 -1.0742  1.7564 -0.2552
 6964TIP3   OH242526   4.259   3.759   8.317  0.4726  0.8859 -0.4109
 6964TIP3    H142527   4.328   3.711   8.363 -0.5827  0.8495  1.2197
 6964TIP3    H242528   4.185   3.698   8.315  0.5044  0.8774 -2.2457
 6965TIP3   OH242529   5.653   4.540   2.252 -0.1360  0.1720 -0.2876
 6965TIP3    H142530   5.667   4.480   2.178  1.3833  0.6903 -0.4368
 6965TIP3    H242531   5.620   4.620   2.212  1.3559  0.6949 -0.4948
 6966TIP3   OH242532   4.665   2.458   7.377  0.4060  0.3212  0.3041
 6966TIP3    H142533   4.747   2.445   7.331  0.0845  0.3152 -0.2745
 6966TIP3    H242534   4.613   2.380   7.358 -0.4159  1.0949 -0.8084
 6967TIP3   OH242535   3.978   3.981   7.599 -0.0519  0.1496  0.1656
 6967TIP3    H142536   3.936   3.977   7.513 -0.0326 -1.3887  0.1938
 6967TIP3    H242537   3.964   3.893   7.636  3.2274 -0.4987  0.1342
 6968TIP3   OH242538   0.634   4.620   2.511 -0.3442 -0.7101 -0.6334
 6968TIP3    H142539   0.712   4.669   2.539 -0.9158  0.6832 -1.3732
 6968TIP3    H242540   0.628   4.548   2.573  2.0181 -1.3649 -1.0627
 6969TIP3   OH242541   3.568   0.820   8.739  0.0226  0.2003  0.6672
 6969TIP3    H142542   3.629   0.791   8.672 -0.5887 -0.2622  0.2897
 6969TIP3    H242543   3.533   0.739   8.776 -0.0243  0.4548  1.1923
 6970TIP3   OH242544   3.306   0.759   8.629  0.0620 -0.3677 -0.0780
 6970TIP3    H142545   3.251   0.790   8.556 -0.5234 -0.2456  0.4079
 6970TIP3    H242546   3.352   0.837   8.659 -1.5241  0.1225  1.2422
 6971TIP3   OH242547   4.476   6.694   1.254 -0.1178  0.2383  0.3373
 6971TIP3    H142548   4.458   6.601   1.247 -1.7831  0.4343  1.3507
 6971TIP3    H242549   4.434   6.733   1.177  3.3638 -0.0763 -1.9468
 6972TIP3   OH242550   3.213   6.429   1.537 -0.3374  0.1730 -0.1340
 6972TIP3    H142551   3.173   6.500   1.586 -1.4439 -0.0126 -0.7428
 6972TIP3    H242552   3.237   6.364   1.603  1.2388  1.3306  0.5003
 6973TIP3   OH242553   6.504   1.066   0.863  0.3731  0.1761 -0.5182
 6973TIP3    H142554   6.433   1.119   0.898  1.1802  1.0324 -0.1082
 6973TIP3    H242555   6.464   0.982   0.842 -0.3242 -0.0960  1.7105
 6974TIP3   OH242556   5.766   0.192   1.350 -0.1140  0.1363  0.1319
 6974TIP3    H142557   5.860   0.183   1.336  0.0968 -0.3793  1.7212
 6974TIP3    H242558   5.727   0.128   1.289  0.6884 -1.1631  0.9432
 6975TIP3   OH242559   2.986   0.134   1.072 -0.6389  0.0202  0.6841
 6975TIP3    H142560   3.035   0.122   1.153  3.1599 -0.3378 -1.4267
 6975TIP3    H242561   2.933   0.055   1.064  0.4127 -0.8422  1.8929
 6976TIP3   OH242562   4.025   4.113   1.291 -0.2285 -0.0057  0.1014
 6976TIP3    H142563   4.071   4.036   1.259 -0.1256  0.0120  0.2022
 6976TIP3    H242564   4.032   4.107   1.387 -0.0655  0.2186  0.1043
 6977TIP3   OH242565   0.788   5.016   1.453  0.0255 -0.4962  0.2336
 6977TIP3    H142566   0.850   5.003   1.526  1.0560  0.7312 -0.3826
 6977TIP3    H242567   0.829   4.972   1.379 -1.0324 -1.7596  0.3696
 6978TIP3   OH242568   1.723   3.336   1.966  0.1503 -0.3340  0.1781
 6978TIP3    H142569   1.714   3.245   1.938  0.8365 -0.1698 -0.5963
 6978TIP3    H242570   1.635   3.361   1.995 -0.9346 -0.1719 -2.9206
 6979TIP3   OH242571   3.864   0.170   0.922  0.1141 -0.4006 -0.3182
 6979TIP3    H142572   3.878   0.243   0.862 -1.2330 -0.0225 -0.1996
 6979TIP3    H242573   3.806   0.110   0.875 -1.6214  0.2834  0.8560
 6980TIP3   OH242574   5.074   1.295   1.589 -0.7635  0.0459  0.0518
 6980TIP3    H142575   5.106   1.331   1.672  0.0668 -0.1090 -0.1906
 6980TIP3    H242576   5.048   1.205   1.611 -0.2095 -0.1110  0.0709
 6981TIP3   OH242577   0.999   4.226   2.292  0.5913 -0.1745  0.4633
 6981TIP3    H142578   0.993   4.321   2.284  1.3889 -0.2422 -1.4061
 6981TIP3    H242579   1.084   4.211   2.335  1.6380 -0.0662 -1.4717
 6982TIP3   OH242580   2.162   4.125   0.962 -0.1184 -0.0222  0.0157
 6982TIP3    H142581   2.163   4.090   0.874 -0.1770 -1.0922  0.4257
 6982TIP3    H242582   2.254   4.122   0.990  0.3027  2.5401 -0.8255
 6983TIP3   OH242583   3.599   6.648   8.811  0.2271  0.4129 -0.9072
 6983TIP3    H142584   3.545   6.694   8.747 -2.3480 -0.1645  0.6839
 6983TIP3    H242585   3.583   6.555   8.793  0.9472  0.2263 -0.6055
 6984TIP3   OH242586   1.850   5.092   1.513  0.1001  0.1170 -0.7519
 6984TIP3    H142587   1.800   5.015   1.485 -0.5788  0.9934 -2.0688
 6984TIP3    H242588   1.932   5.056   1.546 -0.4561 -1.2088 -0.7396
 6985TIP3   OH242589   5.023   2.117   2.114  0.4871 -0.2134  0.3539
 6985TIP3    H142590   5.037   2.025   2.091 -2.3711 -0.2736 -1.6557
 6985TIP3    H242591   5.021   2.162   2.030 -2.7116  0.8777  0.8791
 6986TIP3   OH242592   6.585   6.219   1.835 -0.6321 -0.1612  0.0387
 6986TIP3    H142593   6.646   6.227   1.908 -1.3768 -1.6411  0.8788
 6986TIP3    H242594   6.628   6.161   1.773 -0.5441  0.0441 -0.0935
 6987TIP3   OH242595   5.230   3.970   0.423  0.4105 -0.0168  0.2096
 6987TIP3    H142596   5.166   4.041   0.421  1.1070  0.6197 -0.4338
 6987TIP3    H242597   5.283   3.988   0.501  0.2632 -0.1299  0.3365
 6988TIP3   OH242598   2.365   4.572   1.272  1.0551  0.3935  0.0553
 6988TIP3    H142599   2.447   4.526   1.256  0.1534 -1.1469 -0.3772
 6988TIP3    H242600   2.347   4.557   1.365  1.0981  0.4313  0.0695
 6989TIP3   OH242601   4.204   6.761   8.731  0.0976 -0.5335 -0.4297
 6989TIP3    H142602   4.161   6.796   8.653  0.0603  1.8354  0.5698
 6989TIP3    H242603   4.289   6.807   8.734  0.9020 -1.9806 -0.0685
 6990TIP3   OH242604   2.790   4.357   8.712 -0.2842  0.8065  0.1232
 6990TIP3    H142605   2.768   4.289   8.775  0.2956  0.1952 -0.3159
 6990TIP3    H242606   2.710   4.410   8.703 -1.1638 -0.5838 -0.5000
 6991TIP3   OH242607   0.800   6.517   7.656 -0.6900  0.0182 -0.3530
 6991TIP3    H142608   0.738   6.589   7.641 -1.3689 -0.6352 -0.7345
 6991TIP3    H242609   0.871   6.534   7.595 -0.5026  0.7479  0.0509
 6992TIP3   OH242610   6.775   1.733   8.808 -0.0958  0.3055 -0.0163
 6992TIP3    H142611   6.843   1.668   8.825 -2.4367 -2.6330 -1.0080
 6992TIP3    H242612   6.696   1.695   8.846 -1.4833  2.9835 -0.0157
 6993TIP3   OH242613   5.576   4.387   7.834  0.4549  0.6249 -0.2731
 6993TIP3    H142614   5.551   4.466   7.881 -0.8278  0.9835 -1.4832
 6993TIP3    H242615   5.589   4.321   7.903  2.8609  2.1641  0.8614
 6994TIP3   OH242616   4.568   3.765   0.412 -0.0732 -0.1225  0.4138
 6994TIP3    H142617   4.522   3.732   0.489  0.1946  0.8180  0.9912
 6994TIP3    H242618   4.620   3.690   0.381  0.5999 -0.2344  1.7397
 6995TIP3   OH242619   1.907   0.358   8.576 -0.1883  0.0765  0.0144
 6995TIP3    H142620   1.880   0.449   8.582  0.1802  0.1632  0.4464
 6995TIP3    H242621   1.899   0.325   8.666 -0.6222 -0.4017 -0.1988
 6996TIP3   OH242622   0.161   1.996   8.444 -0.3467 -0.5550 -0.6662
 6996TIP3    H142623   0.085   2.007   8.386  0.0375 -1.8995 -1.4621
 6996TIP3    H242624   0.176   2.083   8.479 -3.2711 -0.5248  0.8247
 6997TIP3   OH242625   1.233   3.913   8.032 -0.3711 -0.0571  0.3597
 6997TIP3    H142626   1.177   3.985   8.001  0.7879  0.3577 -0.8514
 6997TIP3    H242627   1.205   3.838   7.979  0.1719  0.1379 -0.2096
 6998TIP3   OH242628   5.886   3.857   0.228 -0.1066  0.2055  0.3277
 6998TIP3    H142629   5.825   3.843   0.300 -0.9219 -0.2776 -0.4364
 6998TIP3    H242630   5.836   3.910   0.165  1.2617  2.4096  0.9786
 6999TIP3   OH242631   2.037   3.179   8.738  0.4253  0.1840 -0.0316
 6999TIP3    H142632   2.075   3.219   8.816  3.2410 -1.3358 -0.4859
 6999TIP3    H242633   2.003   3.095   8.768 -0.2083  0.4096 -0.1109
 7000TIP3   OH242634   2.280   5.217   8.321 -0.1622  0.3554 -0.1064
 7000TIP3    H142635   2.356   5.167   8.293 -0.0075 -0.1337  1.1285
 7000TIP3    H242636   2.209   5.152   8.328  0.4015 -0.0610  2.9458
 7001TIP3   OH242637   3.738   2.287   6.710 -0.1965 -0.0487 -0.2569
 7001TIP3    H142638   3.653   2.317   6.743  0.1721  0.0528  0.6367
 7001TIP3    H242639   3.742   2.195   6.734 -0.9500 -0.6229 -2.2139
 7002TIP3   OH242640   5.372   2.490   8.117  0.0682  0.1955 -0.5386
 7002TIP3    H142641   5.295   2.443   8.147 -0.7483  0.4148 -2.1678
 7002TIP3    H242642   5.386   2.458   8.028  0.8981  1.3404 -0.8395
 7003TIP3   OH242643   5.176   0.430   1.813 -0.0012  0.1520 -0.2210
 7003TIP3    H142644   5.160   0.336   1.809 -1.6007  0.4217 -1.2737
 7003TIP3    H242645   5.271   0.438   1.819  0.2375 -1.5197 -1.1315
 7004TIP3   OH242646   3.561   0.226   8.610  0.4152  0.5218  0.2332
 7004TIP3    H142647   3.488   0.223   8.673  0.7385  1.3411  0.6648
 7004TIP3    H242648   3.524   0.270   8.533 -0.3510 -1.6090 -0.6935
 7005TIP3   OH242649   0.477   6.311   0.586 -0.5070  0.3819 -0.2773
 7005TIP3    H142650   0.457   6.399   0.554 -1.1125  0.1052 -0.6682
 7005TIP3    H242651   0.509   6.264   0.510  2.5841  1.0389  0.4639
 7006TIP3   OH242652   4.230   0.416   2.657  0.3432  0.2527  0.1911
 7006TIP3    H142653   4.160   0.430   2.593 -0.2643 -1.2138  0.4748
 7006TIP3    H242654   4.310   0.427   2.607 -0.1169 -1.4401 -1.0383
 7007TIP3   OH242655   5.531   2.093   7.939 -0.0208 -0.3362  0.1990
 7007TIP3    H142656   5.463   2.025   7.936  0.2544 -0.6066 -0.0634
 7007TIP3    H242657   5.602   2.052   7.988 -0.2529  0.1415  0.9519
 7008TIP3   OH242658   4.376   6.025   0.690 -0.5034 -0.0238 -0.1936
 7008TIP3    H142659   4.469   6.045   0.689 -0.4509 -0.1196  1.1892
 7008TIP3    H242660   4.359   5.988   0.603  0.5227  0.8979 -0.8138
 7009TIP3   OH242661   0.255   0.247   0.512 -0.5610  0.2003 -0.4189
 7009TIP3    H142662   0.302   0.208   0.438  1.8184 -0.1219  1.1307
 7009TIP3    H242663   0.278   0.192   0.587 -2.9746  0.4529  0.6012
 7010TIP3   OH242664   1.927   0.364   7.359  0.1256  0.1663 -0.3248
 7010TIP3    H142665   1.985   0.438   7.373 -1.1444  1.2350 -0.4996
 7010TIP3    H242666   1.932   0.346   7.265  0.2427  0.1938 -0.3235
 7011TIP3   OH242667   2.959   4.567   6.816 -0.4075  0.3218 -0.4319
 7011TIP3    H142668   3.037   4.511   6.809  0.2359  1.1768 -0.1942
 7011TIP3    H242669   2.910   4.549   6.736 -0.2979 -0.7105 -0.2809
 7012TIP3   OH242670   2.038   6.354   2.244  0.5324  0.4175 -0.0332
 7012TIP3    H142671   2.126   6.391   2.236  0.5635 -0.0447 -2.8006
 7012TIP3    H242672   1.984   6.425   2.278  1.9474  0.6571  1.8795
 7013TIP3   OH242673   5.492   0.678   2.042  0.0355 -0.1587 -0.2738
 7013TIP3    H142674   5.479   0.593   2.086 -2.4425 -0.3496 -1.2394
 7013TIP3    H242675   5.521   0.736   2.112 -2.6750 -0.7245  1.4956
 7014TIP3   OH242676   6.170   1.609   2.413 -0.2119  0.4396  0.3504
 7014TIP3    H142677   6.192   1.618   2.506  0.0477  0.2338  0.3122
 7014TIP3    H242678   6.139   1.519   2.404  0.7345  0.1276  0.0554
 7015TIP3   OH242679   5.150   1.149   1.266  0.2443 -0.7022 -0.1689
 7015TIP3    H142680   5.195   1.223   1.307 -0.2890 -0.4097 -0.1138
 7015TIP3    H242681   5.145   1.082   1.335  0.2029 -0.5705 -0.0448
 7016TIP3   OH242682   5.441   5.485   1.816  0.4186 -0.4072 -0.4999
 7016TIP3    H142683   5.507   5.482   1.885 -1.4126  0.9140  1.4551
 7016TIP3    H242684   5.447   5.400   1.773  2.4792 -0.8025  0.4633
 7017TIP3   OH242685   2.937   3.493   2.564 -0.4367 -0.6306 -0.2588
 7017TIP3    H142686   2.987   3.526   2.489  0.7287 -0.8628  0.3850
 7017TIP3    H242687   2.856   3.459   2.526  0.0359 -0.5435 -1.3894
 7018TIP3   OH242688   4.424   0.765   1.168 -0.1153 -0.9294  0.2693
 7018TIP3    H142689   4.502   0.733   1.212 -1.0082 -0.8356  1.9871
 7018TIP3    H242690   4.434   0.860   1.167 -1.0453 -0.7726  2.2207
 7019TIP3   OH242691   4.425   1.178   1.460  0.1139  0.2385  0.0792
 7019TIP3    H142692   4.488   1.178   1.532 -1.6297  0.3656  1.6833
 7019TIP3    H242693   4.392   1.088   1.457 -2.4127  0.9875  1.9264
 7020TIP3   OH242694   3.771   1.566   1.924 -0.2590  0.0105  0.2700
 7020TIP3    H142695   3.833   1.504   1.885 -1.8421 -0.0299 -2.4377
 7020TIP3    H242696   3.692   1.514   1.939 -1.4339  1.1461 -1.5400
 7021TIP3   OH242697   1.686   4.619   8.276 -0.4262  0.7942  0.1276
 7021TIP3    H142698   1.693   4.543   8.334 -0.5468  1.0565  0.4905
 7021TIP3    H242699   1.639   4.684   8.328  0.4204  1.4187  0.1217
 7022TIP3   OH242700   2.869   1.127   7.688 -0.2935 -0.4079 -0.0181
 7022TIP3    H142701   2.774   1.120   7.692 -0.1774 -1.6088  0.8382
 7022TIP3    H242702   2.884   1.218   7.661 -1.6834 -0.4942 -1.2737
 7023TIP3   OH242703   3.373   2.512   2.334  0.0604  0.1513 -0.3477
 7023TIP3    H142704   3.359   2.507   2.429 -1.0560 -0.6430 -0.5477
 7023TIP3    H242705   3.445   2.575   2.325 -0.8491  1.4507  0.9379
 7024TIP3   OH242706   3.162   0.925   0.169 -0.0795  0.0704 -0.6060
 7024TIP3    H142707   3.099   0.990   0.140  0.9444  0.8319 -1.2000
 7024TIP3    H242708   3.113   0.843   0.170 -1.1914  0.7221 -0.5764
 7025TIP3   OH242709   6.521   5.333   7.434  0.1658 -0.0455  0.2489
 7025TIP3    H142710   6.571   5.414   7.432  0.8440 -0.4447 -2.1958
 7025TIP3    H242711   6.554   5.282   7.360 -1.3207 -1.9106  0.7698
 7026TIP3   OH242712   3.588   4.772   1.575 -0.5378 -0.1263 -0.1697
 7026TIP3    H142713   3.649   4.713   1.620 -0.1266 -0.2655 -0.9002
 7026TIP3    H242714   3.544   4.819   1.646 -0.8772 -1.3085  0.4229
 7027TIP3   OH242715   4.177   6.800   8.061  0.5720 -0.0894  0.0686
 7027TIP3    H142716   4.159   6.813   7.968 -0.2996  3.2910  0.5660
 7027TIP3    H242717   4.120   6.728   8.087  0.6499 -0.9373 -1.9136
 7028TIP3   OH242718   1.430   0.292   2.731 -0.2715  0.6865  0.0632
 7028TIP3    H142719   1.375   0.338   2.667 -0.3398 -1.6415 -1.7095
 7028TIP3    H242720   1.405   0.200   2.721  2.6095 -0.2481  0.5643
 7029TIP3   OH242721   1.220   2.415   1.027 -0.2349  0.3193  0.7859
 7029TIP3    H142722   1.290   2.365   1.070 -1.2108 -0.8172  1.1002
 7029TIP3    H242723   1.174   2.458   1.099  0.7896  1.9981  0.4987
 7030TIP3   OH242724   6.176   1.237   2.115  0.5117 -0.0448 -0.3750
 7030TIP3    H142725   6.123   1.313   2.091 -0.0567  0.1670  1.4211
 7030TIP3    H242726   6.201   1.252   2.206  0.9734 -1.6782 -0.1896
 7031TIP3   OH242727   6.637   1.318   2.040 -0.1718 -0.1291  0.3550
 7031TIP3    H142728   6.620   1.274   2.123 -0.6073  0.6933  0.7105
 7031TIP3    H242729   6.727   1.351   2.049  0.4383 -1.5492 -0.2041
 7032TIP3   OH242730   3.742   0.086   0.614  0.3477  0.3233 -0.1075
 7032TIP3    H142731   3.836   0.075   0.602  0.5788  2.5194 -0.6420
 7032TIP3    H242732   3.703   0.022   0.555  1.4214 -1.9952  1.5269
 7033TIP3   OH242733   2.537   0.044   7.769 -0.3075  0.6189 -0.4820
 7033TIP3    H142734   2.613   0.086   7.729  0.4198  0.6474  0.8525
 7033TIP3    H242735   2.497   0.113   7.822  0.2920 -0.0632  0.9033
 7034TIP3   OH242736   6.615   0.155   8.197  0.1122 -0.0455  0.2310
 7034TIP3    H142737   6.520   0.162   8.186 -0.0490 -1.5625  0.4409
 7034TIP3    H242738   6.645   0.246   8.203 -1.2115  0.4819 -0.6886
 7035TIP3   OH242739   6.170   1.511   0.575  0.3025 -0.9642  0.4899
 7035TIP3    H142740   6.191   1.430   0.622 -0.7181 -1.5742 -0.0776
 7035TIP3    H242741   6.075   1.515   0.575  0.2873 -0.6654 -0.9660
 7036TIP3   OH242742   0.937   5.001   3.135 -0.7625  0.0020 -0.0620
 7036TIP3    H142743   0.945   5.044   3.050  0.0456 -0.0140 -0.0094
 7036TIP3    H242744   0.954   5.070   3.198 -0.4516 -0.1711  0.0500
 7037TIP3   OH242745   1.722   5.631   7.633  0.0937 -0.8120 -0.4102
 7037TIP3    H142746   1.718   5.578   7.713  1.1955  1.6112  1.3771
 7037TIP3    H242747   1.811   5.665   7.632 -1.0430  2.4740 -0.3654
 7038TIP3   OH242748   2.808   6.672   8.393  0.0173 -0.6833 -0.3342
 7038TIP3    H142749   2.852   6.603   8.342  0.2454  0.9796 -2.5018
 7038TIP3    H242750   2.756   6.720   8.329 -0.8039  0.6775  1.2811
 7039TIP3   OH242751   2.502   6.636   8.328  0.2910 -0.4419  0.2194
 7039TIP3    H142752   2.569   6.586   8.375  0.8359 -0.5326 -0.6286
 7039TIP3    H242753   2.435   6.653   8.394  1.4401  0.2115  1.2738
 7040TIP3   OH242754   0.150   0.875   2.990 -0.0514 -0.6316 -0.3107
 7040TIP3    H142755   0.155   0.803   2.928  0.3225  0.6520 -1.8333
 7040TIP3    H242756   0.228   0.928   2.971 -0.4841  0.3430  0.5567
 7041TIP3   OH242757   5.609   0.421   0.010  0.0005  0.3097 -0.0663
 7041TIP3    H142758   5.676   0.489   0.013  1.8209 -1.4028  1.6955
 7041TIP3    H242759   5.565   0.427   0.095 -1.6805  0.9641 -0.9416
 7042TIP3   OH242760   2.934   5.624   8.449  0.2647  0.1475 -0.4038
 7042TIP3    H142761   2.952   5.632   8.542 -0.0178 -0.2148 -0.3137
 7042TIP3    H242762   2.848   5.582   8.445  0.3762 -0.0465 -0.8296
 7043TIP3   OH242763   4.802   3.917   0.289  0.9498  0.2651  0.0331
 7043TIP3    H142764   4.853   3.929   0.369  0.9506  1.8836 -0.1739
 7043TIP3    H242765   4.724   3.971   0.302  1.6425  1.7663 -1.6061
 7044TIP3   OH242766   6.283   0.889   0.791  0.0866 -0.2984 -0.6150
 7044TIP3    H142767   6.315   0.800   0.779  1.6951  0.1639 -0.1104
 7044TIP3    H242768   6.263   0.920   0.703  0.9772 -0.6690 -0.9645
 7045TIP3   OH242769   6.011   1.913   1.531  0.2931 -0.2879 -0.1575
 7045TIP3    H142770   5.988   1.975   1.600 -1.6006 -0.8555 -0.2140
 7045TIP3    H242771   6.104   1.926   1.516  0.2673  1.3836  0.9669
 7046TIP3   OH242772   4.131   2.122   2.527  0.5586  0.0031  0.5884
 7046TIP3    H142773   4.105   2.212   2.544  0.5552  0.1740 -0.2719
 7046TIP3    H242774   4.057   2.069   2.559  0.7188  0.2719  1.4306
 7047TIP3   OH242775   5.801   5.785   0.020  0.5407  0.4593 -0.3215
 7047TIP3    H142776   5.733   5.770  -0.046  1.3650 -0.9858 -0.9030
 7047TIP3    H242777   5.755   5.790   0.103 -0.2981 -0.3006 -0.7312
 7048TIP3   OH242778   2.821   5.915   8.109  0.3051  0.0285  0.1786
 7048TIP3    H142779   2.869   5.961   8.178  2.8229 -0.0015 -1.4605
 7048TIP3    H242780   2.797   5.832   8.149  1.2873  0.2027  1.1924
 7049TIP3   OH242781   2.534   5.174   1.389 -0.3293 -0.1766 -0.0434
 7049TIP3    H142782   2.448   5.207   1.415 -0.1748  1.0040 -0.9499
 7049TIP3    H242783   2.544   5.093   1.439 -1.9809 -0.3694  0.0558
 7050TIP3   OH242784   5.448   1.112   1.663  0.0297  0.1465  0.1598
 7050TIP3    H142785   5.406   1.159   1.735 -0.4373  0.9362 -0.6131
 7050TIP3    H242786   5.404   1.144   1.584 -0.2288 -1.4918 -0.4171
 7051TIP3   OH242787   6.152   0.922   2.756  1.1102  0.1830 -0.3369
 7051TIP3    H142788   6.149   1.013   2.725  1.4519  0.8774  1.5613
 7051TIP3    H242789   6.081   0.915   2.819  0.7450 -1.0437 -0.8475
 7052TIP3   OH242790   5.276   0.812   8.069  0.3854 -0.1797 -0.3311
 7052TIP3    H142791   5.181   0.798   8.059  0.3864 -0.7786  0.4749
 7052TIP3    H242792   5.301   0.757   8.143  1.0170  1.4717  0.7359
 7053TIP3   OH242793   2.654   0.415   8.050 -0.0949  0.7632  0.0632
 7053TIP3    H142794   2.682   0.381   8.134  0.2479  1.0036  0.0528
 7053TIP3    H242795   2.736   0.423   7.999 -0.2770  0.7683 -0.2320
 7054TIP3   OH242796   5.678   4.601   8.676  0.0136  0.0514  0.3422
 7054TIP3    H142797   5.591   4.629   8.649  0.1812  0.6865  0.4557
 7054TIP3    H242798   5.675   4.601   8.772  0.1999  0.2815  0.3499
 7055TIP3   OH242799   5.765   6.712   1.625  0.2594 -0.0366 -0.0835
 7055TIP3    H142800   5.856   6.690   1.646  0.0956  0.2645  1.0557
 7055TIP3    H242801   5.730   6.633   1.585  1.4005  0.3058 -1.9000
 7056TIP3   OH242802   1.206   1.251   0.566 -0.1413  0.3473  0.1470
 7056TIP3    H142803   1.257   1.325   0.532  0.3177  0.7905  1.6974
 7056TIP3    H242804   1.248   1.174   0.528  0.0251  0.8337 -0.6777
 7057TIP3   OH242805   4.980   5.550   7.050 -0.3940  0.2165 -0.1083
 7057TIP3    H142806   5.065   5.513   7.074 -0.3632  0.9287  0.9403
 7057TIP3    H242807   4.917   5.481   7.071 -0.1546 -0.0260 -0.1710
 7058TIP3   OH242808   0.277   2.556   8.081  0.1081 -0.0812  0.2237
 7058TIP3    H142809   0.223   2.536   8.157  0.3404  0.5624  0.5668
 7058TIP3    H242810   0.216   2.588   8.015 -0.2633 -1.7570 -0.3081
 7059TIP3   OH242811   3.177   5.733   7.267 -0.4082 -0.0470  0.1292
 7059TIP3    H142812   3.102   5.775   7.309 -0.0901  1.2410 -0.5692
 7059TIP3    H242813   3.194   5.656   7.322 -1.9254 -0.1104  0.5737
 7060TIP3   OH242814   3.819   1.144   7.673 -0.4192  0.1638 -1.2355
 7060TIP3    H142815   3.860   1.199   7.740  0.3073  1.5619 -2.7824
 7060TIP3    H242816   3.726   1.146   7.694 -0.3143  1.3664 -0.8168
 7061TIP3   OH242817   5.096   4.368   8.818 -0.2539  0.2835 -0.0156
 7061TIP3    H142818   5.010   4.404   8.795 -0.5698 -0.6558 -0.3366
 7061TIP3    H242819   5.103   4.287   8.767 -0.2225 -0.9367  1.8192
 7062TIP3   OH242820   5.651   4.963   1.732 -0.1792 -0.0632  0.1010
 7062TIP3    H142821   5.707   4.962   1.653 -1.6032  2.9212 -1.1068
 7062TIP3    H242822   5.574   4.913   1.707 -0.6725  0.9626 -0.4883
 7063TIP3   OH242823   2.140   1.507   1.692 -0.7008 -0.0101  1.0097
 7063TIP3    H142824   2.230   1.476   1.684 -1.2257 -1.8779  1.8125
 7063TIP3    H242825   2.149   1.596   1.725  0.8573  0.1533  0.2458
 7064TIP3   OH242826   5.502   6.382   2.045  0.7132 -0.1763 -0.0088
 7064TIP3    H142827   5.577   6.397   1.987 -0.3731  0.5069 -1.2796
 7064TIP3    H242828   5.540   6.379   2.132  1.9312  3.1280 -0.2831
 7065TIP3   OH242829   6.719   1.419   1.299 -0.0401 -0.3282 -0.0924
 7065TIP3    H142830   6.698   1.478   1.227  2.4973  0.5884 -0.2024
 7065TIP3    H242831   6.665   1.341   1.284 -0.3344  0.2508 -2.3968
 7066TIP3   OH242832   3.543   1.272   0.123  0.6669 -0.2760 -0.0043
 7066TIP3    H142833   3.560   1.331   0.050  0.2838  1.6890  1.4204
 7066TIP3    H242834   3.459   1.301   0.159  1.0470 -0.9013  1.4745
 7067TIP3   OH242835   6.627   5.346   0.739  0.4251 -0.3627 -0.2578
 7067TIP3    H142836   6.547   5.382   0.777  1.4567  0.5629  1.1860
 7067TIP3    H242837   6.679   5.423   0.717  1.9346 -0.9196  1.1675
 7068TIP3   OH242838   5.736   1.802   7.732 -0.0079  0.4321  0.2087
 7068TIP3    H142839   5.800   1.767   7.670  1.6861  1.3096  1.3823
 7068TIP3    H242840   5.709   1.886   7.695 -0.2972  0.1870 -0.1483
 7069TIP3   OH242841   1.463   4.241   7.535  0.2888  0.2073  0.0999
 7069TIP3    H142842   1.412   4.177   7.585 -0.1484 -0.0540 -0.6743
 7069TIP3    H242843   1.539   4.192   7.503 -2.0843 -1.2009 -4.0937
 7070TIP3   OH242844   2.476   3.765   2.148 -0.3496 -0.4991 -0.3082
 7070TIP3    H142845   2.524   3.818   2.084 -1.0448 -1.4253 -1.6478
 7070TIP3    H242846   2.543   3.711   2.190  0.2653  0.8904  0.5786
 7071TIP3   OH242847   4.194   4.940   0.186  0.8155  1.1228 -0.1155
 7071TIP3    H142848   4.208   4.904   0.274  2.0524  1.4110 -0.1874
 7071TIP3    H242849   4.233   5.027   0.188 -1.3088  2.1457 -0.2385
 7072TIP3   OH242850   5.132   3.432   1.858  0.6195 -0.0512 -0.3591
 7072TIP3    H142851   5.118   3.347   1.815  0.3181 -0.3448  0.3106
 7072TIP3    H242852   5.153   3.410   1.948 -3.1125  0.6553  0.8549
 7073TIP3   OH242853   2.028   3.640   2.499 -0.0817  0.2007  0.7545
 7073TIP3    H142854   2.100   3.640   2.435 -0.6762 -1.1043  0.0290
 7073TIP3    H242855   1.967   3.575   2.464 -1.5426  1.1722  1.4376
 7074TIP3   OH242856   4.281   1.048   0.069 -0.2995 -0.6715 -0.3191
 7074TIP3    H142857   4.192   1.035   0.101  0.6087  1.4155  3.6757
 7074TIP3    H242858   4.337   1.006   0.134  1.7260  2.9082  0.5320
 7075TIP3   OH242859   4.571   5.681   7.228 -0.3721  0.1778  0.4544
 7075TIP3    H142860   4.646   5.629   7.197 -1.4790 -0.8421 -0.6410
 7075TIP3    H242861   4.603   5.725   7.307  1.0012 -1.1992  0.7125
 7076TIP3   OH242862   3.173   1.059   0.420  0.1030 -0.2310  0.0667
 7076TIP3    H142863   3.190   1.013   0.338  2.0352  1.8066 -0.7671
 7076TIP3    H242864   3.085   1.093   0.410 -0.0358 -0.7880 -0.7507
 7077TIP3   OH242865   4.219   0.467   0.144 -0.1607 -0.7146  0.2992
 7077TIP3    H142866   4.223   0.404   0.216  3.1782 -0.9637  0.0607
 7077TIP3    H242867   4.225   0.553   0.186 -1.5958 -0.6829  0.4626
 7078TIP3   OH242868   4.752   5.673   1.856  0.4603 -0.1212  0.1274
 7078TIP3    H142869   4.675   5.680   1.912  0.7834  3.1064  0.3379
 7078TIP3    H242870   4.821   5.717   1.904  2.0334 -1.4527 -0.8108
 7079TIP3   OH242871   6.290   2.685   0.784 -0.1664 -0.0485 -0.5961
 7079TIP3    H142872   6.300   2.604   0.834  0.3191  0.8340  0.7807
 7079TIP3    H242873   6.271   2.656   0.694  1.6189 -1.6912 -0.4901
 7080TIP3   OH242874   2.413   3.146   8.038 -0.2532  0.0302 -0.0332
 7080TIP3    H142875   2.470   3.145   7.961  0.4491 -0.4544  0.4856
 7080TIP3    H242876   2.348   3.078   8.021 -1.6710  1.6354 -1.3416
 7081TIP3   OH242877   6.426   4.247   1.411 -0.0191  0.0517 -0.0332
 7081TIP3    H142878   6.446   4.307   1.483  1.2681  1.2988 -1.3765
 7081TIP3    H242879   6.475   4.281   1.337 -1.8721 -0.7681 -1.7315
 7082TIP3   OH242880   1.462   4.019   8.721 -0.0444 -0.0890 -0.4539
 7082TIP3    H142881   1.458   3.924   8.734  1.7055 -0.3335 -1.3528
 7082TIP3    H242882   1.463   4.055   8.810  1.2850 -1.0600 -0.0407
 7083TIP3   OH242883   4.170   2.801   6.922 -0.0258  0.8609  0.3876
 7083TIP3    H142884   4.108   2.740   6.960  0.5623  0.5799  0.9196
 7083TIP3    H242885   4.212   2.843   6.997  1.0062  0.4494  0.0607
 7084TIP3   OH242886   5.011   3.295   2.597  0.7796  0.1629 -0.4386
 7084TIP3    H142887   5.099   3.313   2.566  1.5988  0.4017  1.8716
 7084TIP3    H242888   5.017   3.209   2.640 -0.2577 -0.0739 -0.7265
 7085TIP3   OH242889   2.801   0.124   2.946  0.2145 -0.0554 -0.4926
 7085TIP3    H142890   2.710   0.110   2.971 -0.0679 -1.8720 -2.2917
 7085TIP3    H242891   2.808   0.218   2.929 -1.4581  0.0150 -0.8871
 7086TIP3   OH242892   3.613   3.232   1.367 -0.3700  0.3487  0.2491
 7086TIP3    H142893   3.654   3.210   1.284 -0.7267  0.7171 -0.0254
 7086TIP3    H242894   3.665   3.186   1.432 -0.7462 -0.8421 -0.2640
 7087TIP3   OH242895   1.764   6.295   7.127 -0.6326  0.3875  0.7147
 7087TIP3    H142896   1.673   6.273   7.108 -0.6385 -0.9616  2.1496
 7087TIP3    H242897   1.765   6.312   7.221  0.5145  0.8623  0.6246
 7088TIP3   OH242898   5.876   2.791   0.396 -0.1028  0.1715  0.0994
 7088TIP3    H142899   5.824   2.772   0.474  1.5203 -3.0466  0.5514
 7088TIP3    H242900   5.953   2.836   0.430  0.6763 -1.3648  0.4405
 7089TIP3   OH242901   4.588   2.999   8.836  0.4127 -0.8598 -0.3266
 7089TIP3    H142902   4.678   2.988   8.804  0.8343 -0.7202  0.7379
 7089TIP3    H242903   4.592   3.078   8.890 -0.9765  0.6529 -2.3253
 7090TIP3   OH242904   3.056   2.449   0.503 -0.1505 -0.1408  0.0601
 7090TIP3    H142905   3.093   2.361   0.511 -0.9001 -0.3659  1.4292
 7090TIP3    H242906   3.070   2.473   0.411 -0.9908 -2.1686 -0.6587
 7091TIP3   OH242907   3.683   5.148   2.524 -0.4228  0.5767 -0.2523
 7091TIP3    H142908   3.772   5.130   2.556 -0.8077 -0.3133  0.3775
 7091TIP3    H242909   3.678   5.243   2.518  1.0904  0.6315 -1.8251
 7092TIP3   OH242910   5.729   4.596   7.576  0.0022 -0.2837 -0.8910
 7092TIP3    H142911   5.712   4.575   7.668  1.5305  2.2051  0.0647
 7092TIP3    H242912   5.676   4.533   7.527 -1.7960 -0.9314  1.6688
 7093TIP3   OH242913   5.242   5.574   7.304  0.4161  0.4772 -0.5100
 7093TIP3    H142914   5.216   5.663   7.328 -0.3202  0.4833 -1.3055
 7093TIP3    H242915   5.260   5.579   7.210 -0.0079 -0.2974 -0.6377
 7094TIP3   OH242916   5.587   6.317   1.510 -0.1473  0.3493 -0.2252
 7094TIP3    H142917   5.499   6.286   1.534  0.1515 -0.3776 -0.0618
 7094TIP3    H242918   5.613   6.372   1.584  0.4957 -1.3493  0.8658
 7095TIP3   OH242919   0.284   2.286   1.435  0.0647  0.0952  0.5193
 7095TIP3    H142920   0.345   2.353   1.464  2.1939 -1.2055 -0.7344
 7095TIP3    H242921   0.330   2.203   1.448 -0.7499 -0.8337 -1.9387
 7096TIP3   OH242922   0.115   4.333   1.416  0.5503 -0.8775 -0.1049
 7096TIP3    H142923   0.046   4.345   1.482 -0.1348 -3.6182 -0.1874
 7096TIP3    H242924   0.069   4.296   1.340  1.6985 -0.0364 -1.2533
 7097TIP3   OH242925   6.691   1.780   2.738 -0.2618  0.3158  0.2701
 7097TIP3    H142926   6.599   1.756   2.744 -0.6590  1.2717 -1.3316
 7097TIP3    H242927   6.729   1.752   2.821 -1.9265 -0.3532  0.8433
 7098TIP3   OH242928   2.976   6.306   2.316 -0.3350 -0.0672  0.1171
 7098TIP3    H142929   3.031   6.231   2.294  0.1288  0.3700 -0.2708
 7098TIP3    H242930   3.039   6.378   2.328 -0.7043  0.0759  1.2970
 7099TIP3   OH242931   4.945   3.863   7.474 -0.8213  0.1909  0.0757
 7099TIP3    H142932   5.025   3.916   7.469  0.7841 -2.1840 -1.1516
 7099TIP3    H242933   4.918   3.870   7.565 -0.7823  3.1467 -0.0401
 7100TIP3   OH242934   4.442   2.585   1.349 -0.1635  0.2748 -0.5266
 7100TIP3    H142935   4.455   2.526   1.423 -1.8072  1.5384  0.8794
 7100TIP3    H242936   4.352   2.568   1.321 -0.3405  1.3889 -0.7093
 7101TIP3   OH242937   2.197   0.350   7.100 -0.0736 -0.0788  0.5698
 7101TIP3    H142938   2.105   0.364   7.125  0.4277  0.5277  2.2646
 7101TIP3    H242939   2.245   0.415   7.152  1.3407 -0.6143 -0.0343
 7102TIP3   OH242940   0.388   2.094   7.759 -0.1418 -0.3746 -0.2735
 7102TIP3    H142941   0.396   2.189   7.764 -0.3757 -0.4179  2.1799
 7102TIP3    H242942   0.356   2.077   7.671 -0.0066  1.8105 -0.7900
 7103TIP3   OH242943   3.760   3.116   7.015  0.3889 -0.3581  0.1465
 7103TIP3    H142944   3.757   3.027   7.051 -0.8874 -0.4176 -0.0826
 7103TIP3    H242945   3.831   3.113   6.951  1.3342 -0.8004  1.1797
 7104TIP3   OH242946   6.664   5.824   7.291 -0.0875 -0.3609  0.8156
 7104TIP3    H142947   6.645   5.899   7.234 -2.8255 -0.6851  1.1837
 7104TIP3    H242948   6.748   5.791   7.258 -0.6380  0.5734 -1.8314
 7105TIP3   OH242949   1.223   1.485   8.610 -0.4148  0.0823 -0.2283
 7105TIP3    H142950   1.180   1.400   8.593 -0.8625  0.4445 -0.9947
 7105TIP3    H242951   1.315   1.468   8.593 -0.7416  0.2249 -2.4999
 7106TIP3   OH242952   0.952   2.991   8.045 -0.8111 -0.1621 -0.2386
 7106TIP3    H142953   0.980   3.012   7.956 -0.9186 -0.8075 -0.4314
 7106TIP3    H242954   0.860   3.016   8.048 -0.8536 -0.3041 -0.3649
 7107TIP3   OH242955   6.043   2.468   1.064  0.4407  0.3604 -0.0173
 7107TIP3    H142956   5.968   2.524   1.045 -0.6495 -1.5204 -1.8557
 7107TIP3    H242957   6.118   2.513   1.024 -0.3024  0.8010 -0.9648
 7108TIP3   OH242958   1.810   6.323   0.108 -0.2065 -0.0481  0.0787
 7108TIP3    H142959   1.847   6.248   0.154  0.3485  0.2953  0.2067
 7108TIP3    H242960   1.837   6.399   0.160  0.3786  0.3438 -0.7723
 7109TIP3   OH242961   4.791   6.444   0.303  0.0591  0.3719  0.1936
 7109TIP3    H142962   4.866   6.408   0.256 -2.1416 -1.3289 -2.3510
 7109TIP3    H242963   4.813   6.433   0.395  3.1953  0.6484 -0.4080
 7110TIP3   OH242964   1.597   2.272   8.603 -0.3872 -0.1491  0.5114
 7110TIP3    H142965   1.536   2.345   8.613 -0.7690 -0.3428 -0.3173
 7110TIP3    H242966   1.637   2.285   8.518  1.1582  0.2704  1.2742
 7111TIP3   OH242967   3.189   0.881   2.139  0.4390  0.2005 -0.3086
 7111TIP3    H142968   3.221   0.957   2.091 -3.1643  1.1549 -1.5511
 7111TIP3    H242969   3.173   0.914   2.228 -2.8097  1.6516 -1.2667
 7112TIP3   OH242970   1.617   1.906   0.369 -0.1638 -0.2262 -0.3702
 7112TIP3    H142971   1.580   1.992   0.385  0.2966 -0.1809  0.5426
 7112TIP3    H242972   1.561   1.868   0.301 -1.2934  0.2022  0.2859
 7113TIP3   OH242973   2.166   1.921   8.273  0.0563 -0.2476  0.0095
 7113TIP3    H142974   2.090   1.900   8.328 -0.2896 -0.5679 -0.5758
 7113TIP3    H242975   2.241   1.892   8.324 -0.3535 -2.1405 -0.3728
 7114TIP3   OH242976   5.803   5.329   8.381 -0.1846  0.5352 -0.1857
 7114TIP3    H142977   5.846   5.261   8.329 -0.5999 -1.7528  2.2306
 7114TIP3    H242978   5.746   5.374   8.319  0.7454 -0.7391 -2.0733
 7115TIP3   OH242979   1.732   3.733   1.412  0.6995  0.2769  0.2353
 7115TIP3    H142980   1.690   3.803   1.462  0.9005 -0.0760  0.9173
 7115TIP3    H242981   1.723   3.760   1.321 -0.7214  0.3755  0.3734
 7116TIP3   OH242982   2.834   5.217   8.351  0.3659  0.1410 -0.3175
 7116TIP3    H142983   2.838   5.190   8.443  2.6604 -1.1013 -0.7028
 7116TIP3    H242984   2.886   5.151   8.304  1.1478  1.9570 -2.1749
 7117TIP3   OH242985   3.274   4.954   2.728 -0.1462 -0.5687 -0.2277
 7117TIP3    H142986   3.249   5.037   2.687 -2.3886 -2.1793 -2.3864
 7117TIP3    H242987   3.222   4.952   2.809  0.0541  0.1773 -0.0701
 7118TIP3   OH242988   3.908   4.310   6.520  0.3531  0.6609 -0.4793
 7118TIP3    H142989   3.974   4.360   6.568  1.4754 -0.2391 -1.0616
 7118TIP3    H242990   3.955   4.270   6.448 -0.3772 -1.7476  0.3029
 7119TIP3   OH242991   0.471   6.571   7.761  0.7582 -0.2097 -0.0616
 7119TIP3    H142992   0.507   6.608   7.841  1.7920  0.8663 -0.9900
 7119TIP3    H242993   0.506   6.625   7.691 -1.5248  0.0034 -1.1528
 7120TIP3   OH242994   4.461   0.946   7.603 -0.1837  0.8928  0.9518
 7120TIP3    H142995   4.464   0.859   7.563 -2.0671  0.9151  0.6592
 7120TIP3    H242996   4.458   1.007   7.529 -0.5892  1.1072  1.1391
 7121TIP3   OH242997   4.541   1.630   7.673  0.0886  0.5469  0.3136
 7121TIP3    H142998   4.555   1.725   7.672  0.1419  0.5372  0.0314
 7121TIP3    H242999   4.457   1.617   7.628  0.4223  0.4072 -0.2732
 7122TIP3   OH243000   5.412   5.818   1.495  0.1184  0.3662 -0.1722
 7122TIP3    H143001   5.453   5.817   1.581 -1.2437  1.3854  0.5252
 7122TIP3    H243002   5.390   5.910   1.480 -3.5707 -0.2840  0.3689
 7123TIP3   OH243003   2.697   1.288   7.935  0.7165 -0.7516  0.3959
 7123TIP3    H143004   2.738   1.349   7.872 -0.2849  0.2667  0.6980
 7123TIP3    H243005   2.667   1.344   8.006 -1.0392 -1.4885  0.2708
 7124TIP3   OH243006   4.807   6.438   0.629  0.3244  0.3315 -0.0053
 7124TIP3    H143007   4.720   6.477   0.632  0.6792  1.1169  0.6952
 7124TIP3    H243008   4.841   6.448   0.719  0.2819 -1.9892  0.3226
 7125TIP3   OH243009   1.864   6.538   7.946  0.3882  0.1791 -0.1496
 7125TIP3    H143010   1.940   6.482   7.925  0.3354 -0.1633  0.5325
 7125TIP3    H243011   1.901   6.626   7.956  0.5589  0.1693 -0.6951
 7126TIP3   OH243012   4.052   4.844   7.588 -0.0321 -0.5563 -0.0356
 7126TIP3    H143013   3.973   4.882   7.625  0.8701  1.7419 -0.2379
 7126TIP3    H243014   4.055   4.878   7.498  1.6829  0.3359  0.3054
 7127TIP3   OH243015   0.195   1.105   8.445 -0.1437 -0.7464  0.5314
 7127TIP3    H143016   0.208   1.100   8.350 -1.3915  0.8053  0.2357
 7127TIP3    H243017   0.257   1.171   8.475  0.3841 -1.3726  0.8462
 7128TIP3   OH243018   1.252   0.479   7.472 -0.4124  0.3929  0.1719
 7128TIP3    H143019   1.180   0.421   7.499  1.2087 -1.2998  1.0351
 7128TIP3    H243020   1.237   0.560   7.521 -2.0729  0.3415 -0.1642
 7129TIP3   OH243021   5.235   5.084   1.747  0.2365  0.0736  0.0044
 7129TIP3    H143022   5.183   5.101   1.669  1.1260  2.5226 -0.1225
 7129TIP3    H243023   5.221   5.161   1.803  4.0586  1.1821 -0.2735
 7130TIP3   OH243024   1.788   1.273   0.414  0.5538  0.5181 -0.3944
 7130TIP3    H143025   1.764   1.351   0.463  0.2600  1.1526 -1.5314
 7130TIP3    H243026   1.767   1.293   0.323  0.3032 -0.9495 -0.6873
 7131TIP3   OH243027   5.009   5.334   2.176 -0.1537  0.5834  0.0254
 7131TIP3    H143028   4.933   5.376   2.136 -0.0004 -0.2348 -1.1871
 7131TIP3    H243029   4.990   5.333   2.270 -0.6400  2.3532 -0.0101
 7132TIP3   OH243030   1.935   0.655   7.591 -0.3783 -0.2316 -0.1198
 7132TIP3    H143031   1.856   0.603   7.609 -0.0907 -0.4953  0.3972
 7132TIP3    H243032   1.972   0.615   7.512 -1.4787  0.7394 -1.1792
 7133TIP3   OH243033   1.433   5.217   8.192  0.0848 -0.3154  0.3995
 7133TIP3    H143034   1.460   5.309   8.201  0.9932 -0.5245 -0.0743
 7133TIP3    H243035   1.339   5.218   8.211 -0.0744  0.8300 -0.3070
 7134TIP3   OH243036   4.487   6.201   7.514  0.2290  0.0738  0.4846
 7134TIP3    H143037   4.527   6.142   7.577  1.0564 -1.3103 -1.2629
 7134TIP3    H243038   4.458   6.145   7.443 -0.3128  1.6152 -0.5659
 7135TIP3   OH243039   2.812   2.800   2.155 -0.1759 -0.4894 -0.0927
 7135TIP3    H143040   2.744   2.740   2.123 -0.2750 -0.3598 -0.1252
 7135TIP3    H243041   2.827   2.861   2.083  0.0895 -0.6156 -0.1430
 7136TIP3   OH243042   5.162   5.635   0.464 -0.5733  0.3133 -0.3190
 7136TIP3    H143043   5.248   5.600   0.486 -0.9967 -1.6211 -1.4784
 7136TIP3    H243044   5.129   5.575   0.397 -1.8853  2.3206 -1.5401
 7137TIP3   OH243045   2.818   4.712   7.400  0.5722 -0.0092  0.4343
 7137TIP3    H143046   2.794   4.799   7.369 -0.1283 -0.0802  0.7462
 7137TIP3    H243047   2.735   4.664   7.401  1.0451 -0.8747 -0.3428
 7138TIP3   OH243048   5.294   4.683   1.878 -0.6742  0.2673  0.1663
 7138TIP3    H143049   5.242   4.755   1.915  1.2044  2.6303 -1.4687
 7138TIP3    H243050   5.230   4.631   1.830 -2.1896  0.4918  1.8199
 7139TIP3   OH243051   3.930   2.921   8.556  0.1729 -0.3128  0.0748
 7139TIP3    H143052   3.973   2.975   8.490 -0.8815  1.0955  0.4868
 7139TIP3    H243053   3.895   2.846   8.507  3.2072 -1.6627 -0.2327
 7140TIP3   OH243054   3.655   6.166   8.364  0.1861  0.0907  0.0426
 7140TIP3    H143055   3.599   6.103   8.407  1.2956  1.0694  3.1765
 7140TIP3    H243056   3.595   6.231   8.327 -0.8179 -0.4773  0.6500
 7141TIP3   OH243057   5.492   1.470   1.189 -0.3454  0.2549 -0.0351
 7141TIP3    H143058   5.502   1.517   1.272  2.2307  1.9168 -1.1784
 7141TIP3    H243059   5.540   1.388   1.203 -0.2687  0.3474  0.2545
 7142TIP3   OH243060   4.926   1.186   8.424 -0.0372  0.0532  0.0028
 7142TIP3    H143061   4.885   1.153   8.344  0.0219  0.2346 -0.1030
 7142TIP3    H243062   5.018   1.158   8.417 -0.1948 -0.5764  0.3623
 7143TIP3   OH243063   2.523   2.629   1.934  0.2038  0.6690  0.4810
 7143TIP3    H143064   2.503   2.666   2.020 -0.9616 -1.7499  1.3504
 7143TIP3    H243065   2.617   2.610   1.937 -0.0004 -0.3320  1.6753
 7144TIP3   OH243066   4.504   1.144   8.820 -0.3142  0.1367  0.1297
 7144TIP3    H143067   4.561   1.079   8.861  0.4368  0.3016 -0.6176
 7144TIP3    H243068   4.415   1.113   8.838  0.0006 -2.0727 -1.6217
 7145TIP3   OH243069   4.331   6.175   7.836  0.1234 -0.0410  0.0532
 7145TIP3    H143070   4.358   6.174   7.745  2.3438  0.9825  0.6489
 7145TIP3    H243071   4.238   6.198   7.833  0.5255  1.5365 -1.8683
 7146TIP3   OH243072   6.337   0.500   2.692 -0.0717  0.0431 -0.2619
 7146TIP3    H143073   6.423   0.462   2.708  0.7375  1.2933 -1.4794
 7146TIP3    H243074   6.346   0.592   2.717 -1.1971  0.0996  0.0198
 7147TIP3   OH243075   2.906   5.510   1.227  0.2231 -0.2508 -0.3571
 7147TIP3    H143076   2.914   5.540   1.318  0.3010  1.4896 -0.8968
 7147TIP3    H243077   2.968   5.438   1.219  1.3804  0.6034  0.5674
 7148TIP3   OH243078   5.760   3.732   2.758 -0.0549 -0.1090  0.4371
 7148TIP3    H143079   5.814   3.804   2.727 -0.6460 -0.1294 -0.7022
 7148TIP3    H243080   5.786   3.720   2.849  0.8759  0.7699  0.3078
 7149LIG     O143081   4.629   5.199   7.049 -0.4534  0.1996 -0.8980
 7149LIG     O243082   4.634   5.013   7.212 -0.6529 -0.3036  0.1014
 7149LIG     O343083   4.407   5.062   7.262  0.4528  0.0406 -0.1710
 7149LIG     O443084   4.896   5.257   7.195 -0.4318  0.5825 -0.5480
 7149LIG     O543085   4.704   5.432   7.308  0.1122  0.2474 -0.4754
 7149LIG     O643086   4.547   4.759   7.082  0.7258  0.0055  0.5683
 7149LIG     O743087   4.639   4.802   7.374 -0.4504  0.2226 -0.0686
 7149LIG     O843088   4.388   4.817   7.552  0.0167  0.2382  0.1644
 7149LIG     O943089   4.858   4.899   7.083  0.4694  0.3768 -0.0214
 7149LIG    O1043090   4.367   5.268   7.092 -0.5918 -0.1719  0.0144
 7149LIG    O1143091   4.363   5.226   7.522  0.1237 -0.2295 -0.9064
 7149LIG     C143092   4.713   5.104   7.130 -0.9070 -0.3111  0.0352
 7149LIG     C243093   4.774   5.195   7.239 -0.0555 -0.2337 -0.2067
 7149LIG     C343094   4.663   5.307   7.253 -0.6385 -0.3131  0.2207
 7149LIG     C443095   4.607   5.320   7.113 -0.0729  0.1386  1.1602
 7149LIG     C543096   4.499   4.982   7.182  0.3180 -0.2829  0.0521
 7149LIG     C643097   4.475   4.831   7.186  0.1966  0.0795  0.0543
 7149LIG     C743098   4.500   4.790   7.334 -0.5482  0.4331  0.2635
 7149LIG     C843099   4.391   4.863   7.417  0.4733 -0.4871  0.4816
 7149LIG     C943100   4.409   5.019   7.401 -0.0201 -0.1931  0.7067
 7149LIG    C1043101   4.799   5.020   7.033 -0.3448 -0.0982 -0.3232
 7149LIG    C1143102   4.463   5.374   7.111 -0.2558  0.2471  0.3840
 7149LIG    C1243103   4.308   5.099   7.486  0.2901  0.2902 -0.1181
 7149LIG     H143104   4.780   5.138   7.333 -2.5726  0.3874  0.4224
 7149LIG     H243105   4.580   5.269   7.315  0.2515 -0.1032  1.5903
 7149LIG     H343106   4.671   5.391   7.058 -0.8742  0.6700  0.9015
 7149LIG     H443107   4.483   4.998   7.073 -1.5859 -1.7386  0.0661
 7149LIG     H543108   4.366   4.824   7.164 -0.1580  1.3078  1.2225
 7149LIG     H643109   4.475   4.682   7.347  0.4480  0.4253  2.4762
 7149LIG     H743110   4.289   4.837   7.382  1.0595 -2.3948  0.0657
 7149LIG     H843111   4.509   5.045   7.441 -0.5520  0.1136  1.8744
 7149LIG     H943112   4.740   4.992   6.943 -0.3525  0.7528 -0.5878
 7149LIG    H1043113   4.881   5.087   6.999  0.9568 -1.2414  0.4627
 7149LIG    H1143114   4.448   5.428   7.207 -1.8198  1.1847 -0.3477
 7149LIG    H1243115   4.442   5.452   7.034  0.3266 -0.2062 -0.2560
 7149LIG    H1343116   4.210   5.117   7.435  0.2159 -1.4279 -0.6554
 7149LIG    H1443117   4.289   5.046   7.581  0.2469  0.7483  0.1306
 7149LIG    H1543118   4.936   5.308   7.265 -0.1485  0.1341 -0.3775
 7149LIG    H1643119   4.638   5.461   7.372  0.6693 -0.9514  0.6841
 7149LIG    H1743120   4.479   4.756   7.015  1.1016  0.0306  0.1868
 7149LIG    H1843121   4.646   4.747   7.452 -1.2346 -0.1994 -0.2880
 7149LIG    H1943122   4.313   4.869   7.581 -0.3593  0.6586 -1.4215
 7149LIG    H2043123   4.783   4.850   7.116  0.6858  0.7243  1.0303
 7149LIG    H2143124   4.373   5.212   7.170  1.3755 -1.3934 -0.9187
 7149LIG    H2243125   4.289   5.286   7.535 -1.0058 -1.5365 -1.0890
   6.82041   6.82041   8.86978
