Title
43125
    1CHL1    C3    1   2.753   4.045   6.152  0.1013 -0.0354  0.3612
    1CHL1    H3    2   2.654   3.996   6.147 -0.0230  0.3488 -1.6956
    1CHL1    O3    3   2.776   4.095   6.283 -0.0999 -0.5112 -0.4194
    1CHL1   H3'    4   2.867   4.078   6.308 -0.8994 -0.1831  3.3189
    1CHL1    C4    5   2.879   3.957   6.112 -0.2019  0.2200  0.4890
    1CHL1   H4A    6   2.972   4.018   6.110  1.5934 -2.3315  1.1522
    1CHL1   H4B    7   2.896   3.872   6.181  0.2719 -1.0333 -1.1060
    1CHL1    C5    8   2.878   3.907   5.964 -0.4192 -0.0635 -0.2798
    1CHL1    C6    9   2.884   3.773   5.942 -0.0673 -0.3583  0.4910
    1CHL1    H6   10   2.910   3.710   6.028 -0.8598  2.6022  3.0669
    1CHL1    C7   11   2.874   3.725   5.799  0.0995  0.7286  0.5534
    1CHL1   H7A   12   2.963   3.661   5.780 -0.7168 -0.1746 -0.2834
    1CHL1   H7B   13   2.780   3.668   5.785  0.3488  0.5897 -0.6907
    1CHL1    C8   14   2.873   3.836   5.692  0.5402  0.0087  0.1248
    1CHL1    H8   15   2.973   3.872   5.663  0.4898  0.2021  0.1877
    1CHL1   C14   16   2.821   3.775   5.561 -0.0789  0.0631  0.2744
    1CHL1   H14   17   2.713   3.757   5.582  0.2762 -3.4806 -0.3395
    1CHL1   C15   18   2.875   3.642   5.517  0.3607 -0.2834  0.1812
    1CHL1  H15A   19   2.978   3.638   5.558  0.3157  1.7178  0.5761
    1CHL1  H15B   20   2.824   3.559   5.571  1.3009 -0.2840  1.0943
    1CHL1   C16   21   2.862   3.644   5.363  0.6839  0.6179 -0.3549
    1CHL1  H16A   22   2.963   3.640   5.319  0.1578 -2.0039 -1.5446
    1CHL1  H16B   23   2.808   3.551   5.332  0.5362  0.4753  0.3069
    1CHL1   C17   24   2.776   3.772   5.323 -0.2966 -0.4787  0.3903
    1CHL1   H17   25   2.670   3.746   5.338 -0.9388  2.2460  1.1697
    1CHL1   C13   26   2.818   3.869   5.442  0.6963 -0.1440  0.6817
    1CHL1   C18   27   2.963   3.922   5.419  0.0320  0.3693  0.1112
    1CHL1  H18A   28   3.041   3.845   5.397  0.2280  0.5019  0.3330
    1CHL1  H18B   29   2.952   3.978   5.324 -0.0376  2.4062  1.2600
    1CHL1  H18C   30   2.997   4.001   5.489 -2.1730  0.1637  1.5168
    1CHL1   C12   31   2.724   3.979   5.489 -0.1358 -0.0579 -0.0743
    1CHL1  H12A   32   2.718   4.057   5.410  1.0749 -0.8557 -0.9948
    1CHL1  H12B   33   2.621   3.938   5.493 -0.9338  1.3581 -2.9652
    1CHL1   C11   34   2.766   4.050   5.617 -0.7147 -0.2340 -0.0446
    1CHL1  H11A   35   2.856   4.110   5.592 -1.8628  1.0498 -1.2963
    1CHL1  H11B   36   2.681   4.117   5.641 -2.1464 -1.3829 -1.6707
    1CHL1    C9   37   2.797   3.955   5.736  0.0127  0.3251 -0.3876
    1CHL1    H9   38   2.698   3.915   5.767  0.2063 -1.5108 -1.9295
    1CHL1   C10   39   2.838   4.013   5.867 -0.2481 -0.1568  0.4392
    1CHL1   C19   40   2.972   4.082   5.855  0.4438 -0.4110 -0.1470
    1CHL1  H19A   41   3.049   4.010   5.822 -0.3130 -1.5032  0.4008
    1CHL1  H19B   42   2.965   4.156   5.772  2.3116  0.1872  0.1814
    1CHL1  H19C   43   2.997   4.146   5.942 -0.4319  1.3839 -1.1505
    1CHL1    C1   44   2.725   4.108   5.914  0.0272 -0.0422 -0.1393
    1CHL1   H1A   45   2.729   4.195   5.845  1.6339  0.3412  0.4028
    1CHL1   H1B   46   2.628   4.057   5.897  1.2522 -2.0297 -1.5979
    1CHL1    C2   47   2.741   4.165   6.058 -0.2502  0.3781  0.3907
    1CHL1   H2A   48   2.643   4.216   6.072 -0.6800 -0.2121 -0.3533
    1CHL1   H2B   49   2.828   4.233   6.068  0.4090 -0.1997 -1.0858
    1CHL1   C20   50   2.811   3.815   5.179 -0.0114  0.0829 -1.1392
    1CHL1   H20   51   2.916   3.851   5.177  0.3344 -0.8962 -1.1038
    1CHL1   C21   52   2.709   3.924   5.149  0.1880  0.0952  0.1083
    1CHL1  H21A   53   2.706   4.002   5.228 -0.4746 -1.2432  1.4600
    1CHL1  H21B   54   2.605   3.884   5.149  0.5376 -0.9221  1.7523
    1CHL1  H21C   55   2.732   3.971   5.051 -0.4105  1.4121  0.5842
    1CHL1   C22   56   2.802   3.697   5.078  0.3287  0.2911 -0.1339
    1CHL1  H22A   57   2.852   3.605   5.116 -1.3395  0.3268  2.3114
    1CHL1  H22B   58   2.695   3.669   5.068 -0.6003  1.5824  4.2719
    1CHL1   C23   59   2.850   3.732   4.931  0.1683 -0.2075  0.2890
    1CHL1  H23A   60   2.762   3.756   4.868 -0.0675  0.0249  0.7002
    1CHL1  H23B   61   2.911   3.824   4.940  1.0248 -0.3698 -2.8411
    1CHL1   C24   62   2.932   3.630   4.865  0.2043  0.2609  0.2702
    1CHL1  H24A   63   3.027   3.620   4.922 -0.8116 -2.7008  1.6723
    1CHL1  H24B   64   2.870   3.537   4.870  0.5677  0.0755  1.7253
    1CHL1   C25   65   2.964   3.663   4.714  0.3585  0.9375  0.3978
    1CHL1   H25   66   3.044   3.739   4.718  1.5300 -0.2839  1.3321
    1CHL1   C26   67   3.026   3.539   4.654 -0.1243  0.1737 -0.3977
    1CHL1  H26A   68   3.051   3.547   4.546 -3.1864 -1.7547 -1.3534
    1CHL1  H26B   69   3.121   3.521   4.709 -1.3093 -1.1903  1.3137
    1CHL1  H26C   70   2.965   3.448   4.671 -0.3198  0.3211 -0.3020
    1CHL1   C27   71   2.844   3.705   4.622 -0.0814  0.1391 -0.6710
    1CHL1  H27A   72   2.794   3.608   4.600  0.0234  0.0039 -0.3232
    1CHL1  H27B   73   2.779   3.778   4.675  1.1017  1.2651 -0.7339
    1CHL1  H27C   74   2.880   3.751   4.528  2.4023 -0.5525 -0.1178
    2CHL1    C3   75   5.455   6.848   6.556 -0.3941  0.0173  0.1179
    2CHL1    H3   76   5.350   6.884   6.543 -0.0854  2.2326  2.6895
    2CHL1    O3   77   5.462   6.812   6.686 -0.4563 -0.1303  0.5597
    2CHL1   H3'   78   5.510   6.729   6.683 -0.7359 -0.3303 -2.8094
    2CHL1    C4   79   5.507   6.736   6.456  0.7969  0.1861 -1.0144
    2CHL1   H4A   80   5.608   6.707   6.491  0.1648  0.5440  1.2253
    2CHL1   H4B   81   5.446   6.645   6.477 -2.2760  1.9417 -1.7575
    2CHL1    C5   82   5.501   6.769   6.308 -0.4669 -0.0681  0.0891
    2CHL1    C6   83   5.425   6.707   6.212  1.6065 -0.3511 -0.6702
    2CHL1    H6   84   5.364   6.618   6.234 -0.2108  1.0848  0.4206
    2CHL1    C7   85   5.441   6.740   6.069 -0.0032  0.4644  0.6518
    2CHL1   H7A   86   5.461   6.646   6.014 -1.0277  1.5963 -1.8428
    2CHL1   H7B   87   5.345   6.782   6.032 -1.5462 -2.6422  0.8510
    2CHL1    C8   88   5.557   6.835   6.029 -0.7034  0.0197  0.2620
    2CHL1    H8   89   5.650   6.774   6.030 -0.9825 -0.4133  2.0416
    2CHL1   C14   90   5.529   6.899   5.893  0.1048 -0.5221 -0.1720
    2CHL1   H14   91   5.431   6.950   5.910  0.1604 -0.6604  0.5837
    2CHL1   C15   92   5.494   6.805   5.772 -0.5029  0.3194 -0.4685
    2CHL1  H15A   93   5.559   6.716   5.780 -0.9601  0.0660  0.5937
    2CHL1  H15B   94   5.391   6.765   5.782  0.4175 -2.5917 -1.4807
    2CHL1   C16   95   5.526   6.893   5.652  0.1021 -0.0551 -0.0212
    2CHL1  H16A   96   5.612   6.850   5.596  2.3243  2.7511  0.9635
    2CHL1  H16B   97   5.442   6.914   5.582  1.3675  0.7946 -1.3475
    2CHL1   C17   98   5.568   7.036   5.704 -0.4230 -0.1620  0.4974
    2CHL1   H17   99   5.470   7.085   5.724 -1.6137 -2.6190  1.1371
    2CHL1   C13  100   5.629   7.007   5.839  0.4202 -0.2678 -0.4082
    2CHL1   C18  101   5.770   6.956   5.814 -0.0356  0.5936 -0.1088
    2CHL1  H18A  102   5.813   6.901   5.901  0.5902  1.1843 -0.0367
    2CHL1  H18B  103   5.777   6.893   5.722  0.1328  0.8629 -0.2791
    2CHL1  H18C  104   5.832   7.047   5.809  0.7476  0.0686 -0.1569
    2CHL1   C12  105   5.621   7.118   5.945  0.1742  0.0017 -0.5399
    2CHL1  H12A  106   5.685   7.208   5.932 -1.2176  0.9463 -1.0817
    2CHL1  H12B  107   5.520   7.162   5.930  0.4570 -0.1253 -3.1758
    2CHL1   C11  108   5.647   7.058   6.091 -0.7101  0.0834  0.9842
    2CHL1  H11A  109   5.757   7.040   6.092 -0.3969  1.7409  1.8638
    2CHL1  H11B  110   5.640   7.143   6.162  2.3024  1.2850  0.0176
    2CHL1    C9  111   5.560   6.943   6.134  0.0357  0.3781 -0.0048
    2CHL1    H9  112   5.455   6.979   6.124  0.3273  0.7529 -2.1634
    2CHL1   C10  113   5.578   6.900   6.282 -0.4795  0.2870 -0.3656
    2CHL1   C19  114   5.727   6.862   6.299 -0.2464  0.2857 -0.3056
    2CHL1  H19A  115   5.749   6.830   6.403  0.3725 -0.5101 -0.6714
    2CHL1  H19B  116   5.750   6.776   6.232  0.4270 -0.6170  1.0333
    2CHL1  H19C  117   5.792   6.949   6.277  0.8701 -0.5806 -0.5560
    2CHL1    C1  118   5.544   7.014   6.383 -0.5943  0.1855 -0.3458
    2CHL1   H1A  119   5.616   7.099   6.380  1.6696 -1.4468  2.5503
    2CHL1   H1B  120   5.444   7.050   6.353 -0.5774  1.1478  0.6697
    2CHL1    C2  121   5.541   6.970   6.531 -0.4111  0.3143 -0.4392
    2CHL1   H2A  122   5.489   7.046   6.593  0.1185  0.5943 -0.3384
    2CHL1   H2B  123   5.639   6.949   6.578 -0.8076 -2.0433 -0.5406
    2CHL1   C20  124   5.649   7.121   5.605  0.5909  1.2886  0.9245
    2CHL1   H20  125   5.740   7.069   5.567  1.2053  2.3447  0.9094
    2CHL1   C21  126   5.681   7.258   5.662 -0.7934  0.1074 -0.3249
    2CHL1  H21A  127   5.727   7.317   5.579  3.4312 -0.0746  1.6148
    2CHL1  H21B  128   5.753   7.260   5.746  0.8547  0.4033 -1.6797
    2CHL1  H21C  129   5.593   7.314   5.699 -1.6134 -0.3470 -1.5321
    2CHL1   C22  130   5.554   7.137   5.475 -0.1920 -0.2446  0.4952
    2CHL1  H22A  131   5.544   7.034   5.434  1.1621 -0.6846  1.1892
    2CHL1  H22B  132   5.453   7.174   5.504  0.1592  0.1013  1.3231
    2CHL1   C23  133   5.617   7.228   5.364 -0.5648  0.4166 -0.4317
    2CHL1  H23A  134   5.628   7.335   5.389 -2.5189  0.9618 -1.7442
    2CHL1  H23B  135   5.719   7.188   5.342 -1.3062 -1.2141 -1.1240
    2CHL1   C24  136   5.546   7.223   5.226 -0.0203  0.0446  0.0052
    2CHL1  H24A  137   5.495   7.128   5.202  2.3783 -0.8977 -1.6658
    2CHL1  H24B  138   5.476   7.310   5.230  0.9359  1.0193 -2.3851
    2CHL1   C25  139   5.639   7.269   5.106 -0.5626 -0.3581 -0.2850
    2CHL1   H25  140   5.736   7.215   5.108  0.0501  0.5859 -2.1640
    2CHL1   C26  141   5.587   7.240   4.965 -0.0199  0.4319  0.3071
    2CHL1  H26A  142   5.556   7.133   4.970  1.2855  0.0975  2.1578
    2CHL1  H26B  143   5.504   7.305   4.931  0.0959 -0.0749 -1.0060
    2CHL1  H26C  144   5.670   7.245   4.891 -1.5331  1.6814 -1.4009
    2CHL1   C27  145   5.689   7.410   5.115 -0.4730 -0.7503  0.1445
    2CHL1  H27A  146   5.736   7.426   5.214  2.5789 -0.0995 -1.2982
    2CHL1  H27B  147   5.762   7.424   5.033  0.0360  0.2115  0.7514
    2CHL1  H27C  148   5.619   7.496   5.104  0.5043  0.0042 -0.3837
    3CHL1    C3  149   0.845   0.347   6.742  0.0171  0.2945  0.3866
    3CHL1    H3  150   0.744   0.314   6.777 -0.9143  0.7456 -1.7171
    3CHL1    O3  151   0.932   0.395   6.841 -0.2215 -0.5951  0.0378
    3CHL1   H3'  152   1.022   0.410   6.813 -0.4164  0.2461 -0.1664
    3CHL1    C4  153   0.910   0.236   6.663  0.2757  0.7037  0.4815
    3CHL1   H4A  154   1.013   0.271   6.641  1.0637 -0.6465  1.8195
    3CHL1   H4B  155   0.935   0.150   6.729 -0.2826  0.1353 -0.0384
    3CHL1    C5  156   0.844   0.198   6.532 -0.0119 -0.2914  0.2960
    3CHL1    C6  157   0.805   0.069   6.509 -0.4353 -0.1270  0.9801
    3CHL1    H6  158   0.825  -0.001   6.591 -1.9757 -0.3556  1.2034
    3CHL1    C7  159   0.742   0.022   6.377  0.3209 -0.1537  0.5641
    3CHL1   H7A  160   0.795  -0.067   6.335 -0.2304  0.6609 -2.0265
    3CHL1   H7B  161   0.636   0.004   6.404  0.5607 -1.3508  0.7558
    3CHL1    C8  162   0.737   0.132   6.265 -0.2596  0.0107 -0.4593
    3CHL1    H8  163   0.830   0.145   6.207 -0.7695  3.9031 -0.7400
    3CHL1   C14  164   0.632   0.096   6.163 -0.1861  0.6629 -0.0693
    3CHL1   H14  165   0.536   0.094   6.219  1.5826  1.0658  3.2046
    3CHL1   C15  166   0.647  -0.046   6.097 -0.5962  0.3144 -1.0614
    3CHL1  H15A  167   0.745  -0.048   6.045 -1.7695  1.7993 -3.5561
    3CHL1  H15B  168   0.647  -0.138   6.158 -0.7096  0.9514 -0.0820
    3CHL1   C16  169   0.549  -0.038   5.988  0.4881  0.3525 -0.9263
    3CHL1  H16A  170   0.602  -0.066   5.895  0.4451 -0.2494 -0.7754
    3CHL1  H16B  171   0.472  -0.118   6.000  1.9672 -1.0232 -0.3335
    3CHL1   C17  172   0.508   0.118   5.966 -0.4624  0.2372 -0.4801
    3CHL1   H17  173   0.408   0.129   6.013 -1.3756 -2.1840 -1.6595
    3CHL1   C13  174   0.618   0.197   6.048 -0.1766 -0.1236 -0.4471
    3CHL1   C18  175   0.750   0.209   5.965  0.3572  0.8438 -0.5014
    3CHL1  H18A  176   0.840   0.200   6.030 -0.7822 -0.7241  0.9725
    3CHL1  H18B  177   0.769   0.124   5.895  2.6220  0.5985  0.3194
    3CHL1  H18C  178   0.743   0.309   5.918 -1.4531  0.5949 -0.8649
    3CHL1   C12  179   0.583   0.333   6.112 -0.1350  0.2018  0.0037
    3CHL1  H12A  180   0.574   0.404   6.027  1.3602 -0.9198 -1.1526
    3CHL1  H12B  181   0.488   0.315   6.168  1.7832  0.7247  3.7592
    3CHL1   C11  182   0.693   0.373   6.215 -0.6752  0.3226 -1.1277
    3CHL1  H11A  183   0.791   0.391   6.165  0.9781  0.5054  1.9468
    3CHL1  H11B  184   0.665   0.473   6.254 -1.7150 -0.5920  0.5869
    3CHL1    C9  185   0.706   0.273   6.330  0.3767 -0.5970  0.4031
    3CHL1    H9  186   0.607   0.264   6.381 -0.3394  0.8380 -0.6711
    3CHL1   C10  187   0.802   0.314   6.439  0.5845  0.7184  0.3222
    3CHL1   C19  188   0.927   0.364   6.371 -0.3948 -0.0681  0.0459
    3CHL1  H19A  189   0.970   0.281   6.310  1.7348  1.2539 -0.3680
    3CHL1  H19B  190   0.917   0.456   6.309  1.4817  0.6275  0.7044
    3CHL1  H19C  191   1.004   0.388   6.447 -0.1762 -0.4942 -0.0414
    3CHL1    C1  192   0.742   0.429   6.525 -0.3728 -0.0142  0.2750
    3CHL1   H1A  193   0.720   0.521   6.466 -0.2458 -0.0481  0.1751
    3CHL1   H1B  194   0.642   0.390   6.555  0.0964 -2.0476 -0.6378
    3CHL1    C2  195   0.822   0.473   6.649 -0.0342  0.1326  0.1086
    3CHL1   H2A  196   0.753   0.543   6.702 -2.2324 -1.8847  0.0506
    3CHL1   H2B  197   0.915   0.523   6.614  0.6622 -0.5529  0.9261
    3CHL1   C20  198   0.481   0.152   5.823 -0.0036 -1.5716 -0.1529
    3CHL1   H20  199   0.574   0.155   5.762  0.8383 -1.3553  1.1039
    3CHL1   C21  200   0.418   0.292   5.825  1.1493  0.0192  0.2101
    3CHL1  H21A  201   0.497   0.369   5.835  0.6175  0.8924 -1.7317
    3CHL1  H21B  202   0.346   0.302   5.909  0.1888 -0.8795 -0.4741
    3CHL1  H21C  203   0.376   0.313   5.724  4.8419 -0.9526 -1.7099
    3CHL1   C22  204   0.374   0.056   5.758 -0.1190  0.1621 -1.0098
    3CHL1  H22A  205   0.420  -0.046   5.758 -0.4458 -0.0152  0.3887
    3CHL1  H22B  206   0.297   0.062   5.838  2.5850 -0.5556  1.8520
    3CHL1   C23  207   0.316   0.089   5.619  0.4588  0.4688 -0.1339
    3CHL1  H23A  208   0.235   0.021   5.587  1.8891  0.1643 -3.5615
    3CHL1  H23B  209   0.258   0.184   5.627  0.5373  0.6169 -1.1839
    3CHL1   C24  210   0.419   0.107   5.507 -0.0841  0.0090  0.4473
    3CHL1  H24A  211   0.472   0.202   5.528  2.0508 -1.1122  0.4591
    3CHL1  H24B  212   0.493   0.024   5.517  0.1345  0.0926 -0.4540
    3CHL1   C25  213   0.357   0.090   5.375 -0.0170  0.2572  0.5229
    3CHL1   H25  214   0.269   0.022   5.380 -1.8052  2.3461 -0.4743
    3CHL1   C26  215   0.285   0.227   5.333 -0.0386  0.0237 -0.2790
    3CHL1  H26A  216   0.244   0.220   5.230 -3.2298  0.5687  0.8394
    3CHL1  H26B  217   0.206   0.254   5.407 -1.2436 -1.2035 -1.0698
    3CHL1  H26C  218   0.365   0.304   5.336 -0.2354  0.3309 -2.1442
    3CHL1   C27  219   0.455   0.045   5.267  0.0254  0.1939 -0.5234
    3CHL1  H27A  220   0.513   0.130   5.225  1.5366 -1.3427 -1.6894
    3CHL1  H27B  221   0.513  -0.039   5.311 -2.5696 -0.4576  1.9488
    3CHL1  H27C  222   0.402   0.001   5.180  0.3322 -0.2393 -0.4942
    4CHL1    C3  223   4.984   1.199   6.927 -0.3071  0.6065  0.3487
    4CHL1    H3  224   4.887   1.237   6.890  0.2604  1.5966 -0.1531
    4CHL1    O3  225   4.983   1.200   7.064  0.5384 -0.3170 -0.3353
    4CHL1   H3'  226   5.060   1.250   7.093  1.0296 -0.5484 -1.2220
    4CHL1    C4  227   5.021   1.053   6.876  0.6797 -0.2408  0.3869
    4CHL1   H4A  228   5.117   1.024   6.922 -0.7159 -2.7905  1.9125
    4CHL1   H4B  229   4.939   0.993   6.921  0.1088  0.8279  0.8042
    4CHL1    C5  230   5.044   1.049   6.723  0.4900  0.5376 -0.1792
    4CHL1    C6  231   4.974   0.959   6.646 -0.2885 -0.7620 -0.5707
    4CHL1    H6  232   4.915   0.877   6.688 -0.1417 -1.1614 -1.1276
    4CHL1    C7  233   4.969   0.951   6.499 -0.0256 -0.0479 -0.2678
    4CHL1   H7A  234   4.960   0.848   6.457 -2.5522 -0.3790  0.8939
    4CHL1   H7B  235   4.868   0.992   6.476 -1.4041 -1.8063  2.2751
    4CHL1    C8  236   5.082   1.041   6.439  0.6743 -0.7786  0.1772
    4CHL1    H8  237   5.173   0.978   6.447 -0.2826 -2.1904  0.2619
    4CHL1   C14  238   5.065   1.081   6.293  0.1226  0.1444  0.1305
    4CHL1   H14  239   4.973   1.144   6.295 -1.1813 -1.6839  2.1391
    4CHL1   C15  240   5.024   0.970   6.189  0.5819 -0.3074 -0.2554
    4CHL1  H15A  241   5.083   0.877   6.202  0.8093  0.1145  2.2538
    4CHL1  H15B  242   4.914   0.955   6.193  0.6886 -0.9019  1.5681
    4CHL1   C16  243   5.071   1.012   6.048  0.3834 -0.2590  0.7215
    4CHL1  H16A  244   5.165   0.956   6.027  2.2096  3.1519 -1.2053
    4CHL1  H16B  245   5.000   1.008   5.963  2.3163 -0.0816 -0.9776
    4CHL1   C17  246   5.129   1.156   6.068  0.3098  0.0725  0.2968
    4CHL1   H17  247   5.047   1.230   6.057  0.5760  0.2520 -0.5533
    4CHL1   C13  248   5.175   1.152   6.217  0.3445 -0.5194 -0.9304
    4CHL1   C18  249   5.307   1.067   6.227  0.1487  0.2803  0.0182
    4CHL1  H18A  250   5.342   1.050   6.331 -1.5322  0.6835  0.6766
    4CHL1  H18B  251   5.295   0.963   6.189 -0.5689  0.5939 -0.6277
    4CHL1  H18C  252   5.382   1.124   6.166  0.9411  0.7528  1.3912
    4CHL1   C12  253   5.195   1.290   6.288  0.1856 -0.3299  0.1010
    4CHL1  H12A  254   5.285   1.339   6.245 -0.2784 -0.4690 -1.0705
    4CHL1  H12B  255   5.103   1.351   6.271 -2.2044 -3.4557  0.8805
    4CHL1   C11  256   5.205   1.271   6.443 -0.5963 -0.0815  0.0960
    4CHL1  H11A  257   5.309   1.234   6.452 -0.0792  1.1853 -0.4599
    4CHL1  H11B  258   5.202   1.376   6.479  0.0630 -0.4103  1.1332
    4CHL1    C9  259   5.101   1.174   6.516  0.1993 -0.6228  0.2575
    4CHL1    H9  260   4.998   1.214   6.505  0.0029 -0.7550  1.4337
    4CHL1   C10  261   5.126   1.163   6.665  0.7853  0.4401 -0.0105
    4CHL1   C19  262   5.284   1.122   6.688  0.1422  0.3550 -0.6319
    4CHL1  H19A  263   5.305   1.022   6.645 -0.0620 -0.2208  0.5631
    4CHL1  H19B  264   5.353   1.195   6.641 -0.1741  1.2833  0.3038
    4CHL1  H19C  265   5.300   1.118   6.798 -0.8238  0.4197 -0.4843
    4CHL1    C1  266   5.097   1.300   6.724 -0.4696  0.0528 -0.6230
    4CHL1   H1A  267   5.168   1.379   6.691  0.3322  0.3097  1.5430
    4CHL1   H1B  268   4.994   1.332   6.698 -1.0097 -0.4348  0.7809
    4CHL1    C2  269   5.097   1.294   6.878 -0.0524 -0.3044 -0.4295
    4CHL1   H2A  270   5.073   1.395   6.918 -0.4881 -0.1778 -0.9982
    4CHL1   H2B  271   5.185   1.252   6.931  1.4296  2.8911 -0.0951
    4CHL1   C20  272   5.231   1.182   5.954 -0.2103 -0.4198  0.6203
    4CHL1   H20  273   5.310   1.104   5.963  0.6821  0.6300  2.4822
    4CHL1   C21  274   5.309   1.318   5.970 -0.0661 -0.0052 -0.4150
    4CHL1  H21A  275   5.370   1.313   6.062  0.2988 -0.9029 -0.6996
    4CHL1  H21B  276   5.233   1.396   5.990  0.6800  0.6922 -0.2585
    4CHL1  H21C  277   5.374   1.350   5.886 -0.9310  0.6129 -0.8621
    4CHL1   C22  278   5.165   1.171   5.810  0.7914  0.0947 -0.2733
    4CHL1  H22A  279   5.126   1.067   5.811  1.1242 -0.0307  0.1359
    4CHL1  H22B  280   5.095   1.256   5.794  3.0855  2.6087  1.9059
    4CHL1   C23  281   5.257   1.187   5.690 -0.2050 -0.4316  0.4174
    4CHL1  H23A  282   5.301   1.289   5.692  2.2942 -1.4178 -0.8848
    4CHL1  H23B  283   5.346   1.122   5.695  0.1368 -0.0213 -0.2941
    4CHL1   C24  284   5.179   1.153   5.558 -0.6892  0.0217  0.4617
    4CHL1  H24A  285   5.145   1.047   5.556 -0.4914 -0.0978  1.9571
    4CHL1  H24B  286   5.082   1.206   5.546 -0.3811  0.5812  0.4186
    4CHL1   C25  287   5.273   1.181   5.437  0.1415 -0.6847  0.7740
    4CHL1   H25  288   5.377   1.154   5.465 -0.0024 -0.3393  1.6539
    4CHL1   C26  289   5.222   1.100   5.317  0.2182  0.0566 -0.5912
    4CHL1  H26A  290   5.118   1.133   5.295  0.2888  1.1653  0.5731
    4CHL1  H26B  291   5.286   1.102   5.226 -0.3505  1.8855 -1.0036
    4CHL1  H26C  292   5.212   0.993   5.344 -0.4360  0.7234  2.1346
    4CHL1   C27  293   5.260   1.330   5.394 -0.0590  0.9684  0.3299
    4CHL1  H27A  294   5.329   1.368   5.316 -0.3021  1.6611  0.4502
    4CHL1  H27B  295   5.157   1.342   5.354 -1.0112 -4.5500  0.3166
    4CHL1  H27C  296   5.271   1.395   5.483 -2.0380  1.5460  0.1983
    5CHL1    C3  297   5.809   2.356   6.514 -0.5053  0.1197 -0.3733
    5CHL1    H3  298   5.707   2.399   6.520  0.6308  3.0443 -0.1332
    5CHL1    O3  299   5.869   2.351   6.646  0.3791 -0.1022 -0.0512
    5CHL1   H3'  300   5.955   2.315   6.624  0.1981 -0.0043 -0.9530
    5CHL1    C4  301   5.806   2.215   6.445  0.5205  0.0643 -0.0719
    5CHL1   H4A  302   5.895   2.153   6.467 -0.6968 -1.3120  1.2479
    5CHL1   H4B  303   5.736   2.164   6.515  1.1924 -0.1385  0.4570
    5CHL1    C5  304   5.762   2.208   6.296 -0.8107  1.0334  0.7638
    5CHL1    C6  305   5.655   2.130   6.262 -0.3607 -0.9472  0.5988
    5CHL1    H6  306   5.600   2.070   6.336 -0.8949  0.2111  1.1641
    5CHL1    C7  307   5.609   2.118   6.119 -0.3589 -0.2633  0.1089
    5CHL1   H7A  308   5.600   2.012   6.087 -0.7235 -0.4073  0.6803
    5CHL1   H7B  309   5.510   2.167   6.109 -0.4770 -0.6991 -1.0723
    5CHL1    C8  310   5.714   2.177   6.022  0.6252  0.4986  1.0203
    5CHL1    H8  311   5.796   2.103   6.006  0.6053  0.9049 -1.2875
    5CHL1   C14  312   5.651   2.182   5.886 -0.0492 -0.0789  0.3082
    5CHL1   H14  313   5.572   2.259   5.894 -0.6031 -0.4910 -1.0502
    5CHL1   C15  314   5.582   2.055   5.837 -0.0877  0.1817 -0.4875
    5CHL1  H15A  315   5.653   1.975   5.865 -0.1015  0.7046  1.1599
    5CHL1  H15B  316   5.481   2.038   5.880 -0.3309  0.5955 -0.8852
    5CHL1   C16  317   5.586   2.077   5.681 -0.2358  0.0365  0.3718
    5CHL1  H16A  318   5.625   1.989   5.626 -0.0583  2.0508 -2.9492
    5CHL1  H16B  319   5.486   2.087   5.634  0.4744 -2.2008 -1.8346
    5CHL1   C17  320   5.672   2.210   5.652 -0.3514 -0.3540 -0.2117
    5CHL1   H17  321   5.605   2.299   5.648 -0.3951 -0.3928 -0.3572
    5CHL1   C13  322   5.760   2.224   5.776 -0.0235 -0.3919 -0.1047
    5CHL1   C18  323   5.879   2.127   5.764 -0.0850 -0.6319  0.6288
    5CHL1  H18A  324   5.840   2.025   5.747 -0.7001 -0.3220  0.1666
    5CHL1  H18B  325   5.952   2.152   5.684 -0.9559 -3.6747 -1.2689
    5CHL1  H18C  326   5.935   2.127   5.861 -0.2805  0.5044  0.7475
    5CHL1   C12  327   5.795   2.368   5.811 -0.2748  0.0235  0.3302
    5CHL1  H12A  328   5.856   2.418   5.733 -0.8412 -1.7222 -1.3035
    5CHL1  H12B  329   5.698   2.421   5.803 -0.7608 -0.9499 -0.3710
    5CHL1   C11  330   5.856   2.381   5.948  0.1151  0.1669 -0.2300
    5CHL1  H11A  331   5.955   2.331   5.948 -0.3295 -0.7356 -0.6093
    5CHL1  H11B  332   5.870   2.487   5.980  0.8917  0.1179 -0.3875
    5CHL1    C9  333   5.774   2.309   6.062 -0.1479 -0.1833 -0.0875
    5CHL1    H9  334   5.684   2.374   6.073 -1.8996 -2.5249  0.0185
    5CHL1   C10  335   5.840   2.302   6.203  0.0689 -0.2347  0.9050
    5CHL1   C19  336   5.981   2.245   6.180 -0.0420 -0.6950 -0.0842
    5CHL1  H19A  337   5.986   2.157   6.113 -1.2123 -1.6427  1.0266
    5CHL1  H19B  338   6.045   2.321   6.129  1.5331 -0.4004  2.1491
    5CHL1  H19C  339   6.026   2.228   6.280  0.6825  2.6397  0.2804
    5CHL1    C1  340   5.855   2.446   6.275  0.3459  0.4549  0.1896
    5CHL1   H1A  341   5.923   2.513   6.217  0.7534 -1.2069 -1.3359
    5CHL1   H1B  342   5.753   2.490   6.279  0.8253  1.5380  1.4777
    5CHL1    C2  343   5.903   2.445   6.427  0.1694 -0.3410  0.6084
    5CHL1   H2A  344   5.893   2.551   6.459  0.3772  0.3970 -1.5855
    5CHL1   H2B  345   6.012   2.422   6.435  1.0831  3.6719  1.9828
    5CHL1   C20  346   5.738   2.200   5.511 -0.4103 -0.2774 -0.6535
    5CHL1   H20  347   5.792   2.103   5.515  0.5521  0.2547 -0.5450
    5CHL1   C21  348   5.848   2.303   5.477 -0.3058 -0.5552 -0.1574
    5CHL1  H21A  349   5.793   2.397   5.455 -0.1793 -0.6523 -0.9078
    5CHL1  H21B  350   5.899   2.274   5.383 -1.1199  1.2028 -1.2017
    5CHL1  H21C  351   5.914   2.312   5.566  2.2316  2.2744 -2.1286
    5CHL1   C22  352   5.632   2.187   5.394 -0.2848 -0.0587  0.2808
    5CHL1  H22A  353   5.558   2.113   5.430 -1.1386  1.0917  0.9840
    5CHL1  H22B  354   5.575   2.282   5.396  1.8325  1.2857  1.2693
    5CHL1   C23  355   5.678   2.150   5.255  0.0329 -0.7686  0.2002
    5CHL1  H23A  356   5.736   2.233   5.209 -1.9718  0.4153 -0.3160
    5CHL1  H23B  357   5.744   2.061   5.259 -2.3987 -2.8928 -2.5442
    5CHL1   C24  358   5.565   2.121   5.162 -0.3471  0.0422 -0.5677
    5CHL1  H24A  359   5.532   2.015   5.172 -2.4626  0.3778 -2.9624
    5CHL1  H24B  360   5.478   2.187   5.182  1.9545  3.0028  0.4833
    5CHL1   C25  361   5.614   2.132   5.013 -0.0410  0.5763  0.0240
    5CHL1   H25  362   5.653   2.234   4.995  4.3064 -0.5666  1.8365
    5CHL1   C26  363   5.730   2.041   4.989 -0.0389  0.4013 -0.5558
    5CHL1  H26A  364   5.821   2.056   5.051  1.3339 -0.7792 -2.1790
    5CHL1  H26B  365   5.702   1.934   5.002 -1.7424  1.1189  2.8781
    5CHL1  H26C  366   5.768   2.061   4.887  0.6598 -0.1577 -0.4175
    5CHL1   C27  367   5.497   2.087   4.919 -0.3373  0.3009  0.5249
    5CHL1  H27A  368   5.498   1.979   4.896  0.6735  0.7703 -1.8944
    5CHL1  H27B  369   5.401   2.102   4.974  0.2546 -3.4018  2.9371
    5CHL1  H27C  370   5.494   2.152   4.829 -2.2501 -0.9437 -0.3602
    6CHL1    C3  371   4.796   0.046   6.475 -0.3003  0.3082 -0.6040
    6CHL1    H3  372   4.691   0.062   6.440 -1.7732  0.1107  3.2468
    6CHL1    O3  373   4.791   0.016   6.613 -0.8514  0.5097 -0.0206
    6CHL1   H3'  374   4.727   0.083   6.638 -0.1255  1.3760 -0.4165
    6CHL1    C4  375   4.862  -0.074   6.400  0.3688 -0.2076  0.8416
    6CHL1   H4A  376   4.948  -0.107   6.463  0.7376 -2.5261 -0.7590
    6CHL1   H4B  377   4.800  -0.166   6.398  1.6365 -1.0847 -0.4805
    6CHL1    C5  378   4.907  -0.027   6.258  0.4870  0.1650  0.9407
    6CHL1    C6  379   4.857  -0.094   6.151 -0.3074  0.1855 -0.3332
    6CHL1    H6  380   4.807  -0.189   6.175  0.8405 -0.0916  1.0954
    6CHL1    C7  381   4.868  -0.057   6.006 -0.0017  0.5568  0.0972
    6CHL1   H7A  382   4.886  -0.143   5.938  1.5204 -0.3865  1.6059
    6CHL1   H7B  383   4.778  -0.001   5.973 -0.2177  0.4153  0.4466
    6CHL1    C8  384   4.982   0.034   5.986 -0.2958 -0.3051 -0.8695
    6CHL1    H8  385   5.074  -0.026   5.996 -0.6533 -1.0958 -2.1228
    6CHL1   C14  386   4.959   0.108   5.855 -0.1470  0.2688 -0.1434
    6CHL1   H14  387   4.878   0.184   5.861  1.1414  1.6017  1.7070
    6CHL1   C15  388   4.920   0.027   5.728  0.4305 -0.1558 -0.4554
    6CHL1  H15A  389   4.975  -0.069   5.724  1.8588  0.5946  0.0591
    6CHL1  H15B  390   4.811   0.009   5.729  0.0226  1.9708 -0.7090
    6CHL1   C16  391   4.961   0.113   5.604  0.2641 -0.3839 -0.9982
    6CHL1  H16A  392   5.026   0.048   5.541  0.5518 -0.7222 -0.3664
    6CHL1  H16B  393   4.873   0.148   5.546 -0.4880 -0.0920  0.2745
    6CHL1   C17  394   5.029   0.241   5.665  0.2551 -0.4148  0.0709
    6CHL1   H17  395   4.941   0.308   5.679  0.2942 -0.4904  0.7130
    6CHL1   C13  396   5.071   0.205   5.812 -0.3020 -0.8381 -0.7425
    6CHL1   C18  397   5.206   0.125   5.804 -0.8573  0.4765  0.4202
    6CHL1  H18A  398   5.223   0.061   5.715  0.7437  1.6889 -0.2087
    6CHL1  H18B  399   5.277   0.209   5.787  0.1822 -0.4937 -0.1261
    6CHL1  H18C  400   5.236   0.077   5.900 -1.7619  0.5997  0.7749
    6CHL1   C12  401   5.076   0.318   5.916 -0.8626 -0.0034 -0.2128
    6CHL1  H12A  402   5.174   0.370   5.904  0.1461 -1.1515  2.2664
    6CHL1  H12B  403   4.984   0.380   5.914 -0.2245  1.2123  2.5410
    6CHL1   C11  404   5.101   0.259   6.063 -0.4868 -0.4961 -0.0304
    6CHL1  H11A  405   5.198   0.207   6.073 -1.7507 -2.5475  2.9635
    6CHL1  H11B  406   5.105   0.344   6.134 -1.9706 -1.0160  0.7292
    6CHL1    C9  407   4.992   0.146   6.091  0.5904 -0.0819  0.1655
    6CHL1    H9  408   4.897   0.204   6.086  0.7235  0.0529 -1.7268
    6CHL1   C10  409   4.984   0.103   6.242  0.5665 -0.0155  0.5667
    6CHL1   C19  410   5.129   0.073   6.289 -0.0710 -0.5215  0.0418
    6CHL1  H19A  411   5.162  -0.002   6.214  0.4442 -0.0857 -0.1662
    6CHL1  H19B  412   5.199   0.159   6.286 -0.8803  0.1223 -0.7053
    6CHL1  H19C  413   5.129   0.045   6.397 -0.1863 -0.6337  0.0135
    6CHL1    C1  414   4.914   0.218   6.331  1.0578  0.2351  0.0134
    6CHL1   H1A  415   4.983   0.305   6.329  0.9309  0.3420  0.2744
    6CHL1   H1B  416   4.820   0.246   6.278  0.8260  0.1245  0.3631
    6CHL1    C2  417   4.877   0.173   6.469  0.6501 -0.5314  0.4357
    6CHL1   H2A  418   4.825   0.251   6.528  2.3225  1.1430 -0.2253
    6CHL1   H2B  419   4.980   0.164   6.512  1.2216  0.8869 -0.5478
    6CHL1   C20  420   5.128   0.303   5.569 -0.7663  0.2207  0.0529
    6CHL1   H20  421   5.213   0.235   5.547 -0.7503  0.2327  0.0768
    6CHL1   C21  422   5.182   0.437   5.633  0.3595  0.4779 -0.3179
    6CHL1  H21A  423   5.231   0.417   5.731 -1.3524 -2.6858  0.0287
    6CHL1  H21B  424   5.092   0.499   5.652 -0.1284  0.0850 -1.3040
    6CHL1  H21C  425   5.259   0.486   5.571  0.8347 -0.6456 -0.6480
    6CHL1   C22  426   5.054   0.349   5.433  0.3454 -0.1916  0.3672
    6CHL1  H22A  427   4.999   0.262   5.393  3.0538 -2.3427  1.0080
    6CHL1  H22B  428   4.990   0.439   5.445  0.4544  0.0088 -0.5078
    6CHL1   C23  429   5.164   0.381   5.328  0.4872  0.0631 -0.1511
    6CHL1  H23A  430   5.232   0.463   5.362 -0.7169  0.8378  0.4365
    6CHL1  H23B  431   5.227   0.289   5.323  0.8420  0.2049  1.1865
    6CHL1   C24  432   5.110   0.399   5.194  0.1710 -0.4770  0.2315
    6CHL1  H24A  433   5.037   0.321   5.164 -0.9529  1.2417 -1.7609
    6CHL1  H24B  434   5.053   0.493   5.207  0.6735 -0.2903  1.2502
    6CHL1   C25  435   5.197   0.434   5.068  0.6475 -0.1811  0.1208
    6CHL1   H25  436   5.253   0.340   5.045 -1.7913 -1.1096 -2.6145
    6CHL1   C26  437   5.099   0.448   4.947  0.0910 -0.1872 -0.0744
    6CHL1  H26A  438   5.042   0.354   4.934 -1.7389  0.7839  0.4893
    6CHL1  H26B  439   5.032   0.533   4.974  0.8432  1.1683 -2.2099
    6CHL1  H26C  440   5.160   0.471   4.856 -1.7238  2.0898 -0.8356
    6CHL1   C27  441   5.279   0.558   5.070 -0.6750 -0.1485 -0.5141
    6CHL1  H27A  442   5.215   0.650   5.069  0.2932  0.5429 -0.6614
    6CHL1  H27B  443   5.352   0.561   5.154  0.9126 -3.2147 -1.6659
    6CHL1  H27C  444   5.341   0.574   4.979  1.8978  0.9420  1.3029
    7CHL1    C3  445   1.072   6.180   6.453 -0.1382 -0.2852  0.5062
    7CHL1    H3  446   0.984   6.126   6.413  0.1444  0.3922 -1.1288
    7CHL1    O3  447   1.111   6.101   6.563 -0.0998  0.9385 -0.0676
    7CHL1   H3'  448   1.206   6.105   6.577 -0.0768 -1.2994  0.9714
    7CHL1    C4  449   1.176   6.167   6.343 -0.5214  0.4262  0.4802
    7CHL1   H4A  450   1.279   6.197   6.370  0.4356  1.1319 -3.3343
    7CHL1   H4B  451   1.177   6.057   6.325 -0.9321  0.4610  0.2093
    7CHL1    C5  452   1.144   6.261   6.232 -0.0356  0.6664  0.1145
    7CHL1    C6  453   1.135   6.218   6.106  0.1565  0.1619 -0.1831
    7CHL1    H6  454   1.150   6.113   6.074 -0.5226  0.5115 -1.7768
    7CHL1    C7  455   1.122   6.309   5.986 -0.9313  0.1759 -1.1387
    7CHL1   H7A  456   1.191   6.273   5.907  2.8088 -0.9939  2.3407
    7CHL1   H7B  457   1.021   6.320   5.940 -1.8662 -0.3489  0.6788
    7CHL1    C8  458   1.156   6.459   6.026  0.5353  0.4068  0.1302
    7CHL1    H8  459   1.267   6.455   6.037  0.3381  1.2695  3.4450
    7CHL1   C14  460   1.115   6.558   5.917 -0.2465 -0.5899 -0.9551
    7CHL1   H14  461   1.004   6.545   5.916 -0.2739 -0.6557  0.4836
    7CHL1   C15  462   1.160   6.529   5.769 -0.4460 -0.3574  0.2208
    7CHL1  H15A  463   1.258   6.480   5.750 -0.4221  0.2633 -1.4309
    7CHL1  H15B  464   1.087   6.476   5.704 -0.3457  0.5238 -0.6364
    7CHL1   C16  465   1.166   6.674   5.705  0.2714  0.6337 -0.3874
    7CHL1  H16A  466   1.272   6.703   5.686 -0.3550  2.6775 -1.1159
    7CHL1  H16B  467   1.124   6.682   5.603  0.2097  0.8088 -0.3490
    7CHL1   C17  468   1.113   6.771   5.813  1.3824 -0.4394  0.0050
    7CHL1   H17  469   1.004   6.753   5.809  1.4589 -1.6275  1.9311
    7CHL1   C13  470   1.136   6.704   5.953 -0.1660  0.8588  0.5978
    7CHL1   C18  471   1.286   6.720   5.976 -0.1647  0.8594  0.3282
    7CHL1  H18A  472   1.344   6.685   5.888 -0.9266  4.1161 -1.6386
    7CHL1  H18B  473   1.317   6.827   5.983  0.6143  0.6797 -0.2052
    7CHL1  H18C  474   1.322   6.654   6.057  1.2158 -1.8548 -2.3059
    7CHL1   C12  475   1.041   6.737   6.069 -0.3932  0.1547  0.8055
    7CHL1  H12A  476   1.039   6.846   6.093  0.2971 -0.1211  2.2182
    7CHL1  H12B  477   0.942   6.714   6.025  0.3849  0.9786 -1.5022
    7CHL1   C11  478   1.067   6.651   6.191  0.2007  0.0235 -0.1078
    7CHL1  H11A  479   1.168   6.681   6.228 -0.5002  0.3130  1.6359
    7CHL1  H11B  480   0.980   6.668   6.258  1.1440  0.2613  1.0955
    7CHL1    C9  481   1.082   6.497   6.159 -0.4702 -0.4201 -0.2740
    7CHL1    H9  482   0.977   6.464   6.148 -0.2394 -0.5961 -2.2723
    7CHL1   C10  483   1.136   6.404   6.275 -0.6080 -0.4697  0.1701
    7CHL1   C19  484   1.271   6.456   6.326  0.4315  0.1806 -0.1227
    7CHL1  H19A  485   1.344   6.449   6.243 -1.9532  0.4573 -2.3928
    7CHL1  H19B  486   1.269   6.557   6.372 -0.6908  1.6204 -3.0301
    7CHL1  H19C  487   1.306   6.381   6.399 -0.5404 -1.4058 -1.2123
    7CHL1    C1  488   1.024   6.413   6.383  0.3657  0.7770 -0.2850
    7CHL1   H1A  489   1.022   6.514   6.429  2.5716  0.0944  1.4409
    7CHL1   H1B  490   0.923   6.407   6.336 -0.8099  2.5007  1.8267
    7CHL1    C2  491   1.037   6.320   6.506  0.3217  0.1640  0.2297
    7CHL1   H2A  492   0.948   6.312   6.572 -1.1807  2.2784 -1.4053
    7CHL1   H2B  493   1.119   6.360   6.568 -0.1422  0.6772  0.5168
    7CHL1   C20  494   1.145   6.921   5.783 -0.2192  1.0701  0.2873
    7CHL1   H20  495   1.253   6.937   5.763 -0.8713  2.4060 -2.8602
    7CHL1   C21  496   1.099   7.014   5.892 -0.1765  0.4336 -0.7500
    7CHL1  H21A  497   0.996   6.992   5.926  0.5014 -0.1276  1.0575
    7CHL1  H21B  498   1.110   7.124   5.876 -1.6503  0.5604 -1.0776
    7CHL1  H21C  499   1.160   6.983   5.979 -2.9996 -1.2363  0.7628
    7CHL1   C22  500   1.086   6.965   5.646  0.1363  0.2296 -0.3149
    7CHL1  H22A  501   1.070   6.901   5.556 -0.8301 -1.7385  1.1935
    7CHL1  H22B  502   0.980   6.978   5.677  0.7211 -1.2612  2.6003
    7CHL1   C23  503   1.145   7.093   5.588  0.0596  0.1741 -0.7100
    7CHL1  H23A  504   1.116   7.179   5.651 -0.5997 -0.1406 -0.5824
    7CHL1  H23B  505   1.256   7.096   5.580  0.0524  1.0923 -0.6087
    7CHL1   C24  506   1.111   7.123   5.438  0.6246  0.2484  0.2454
    7CHL1  H24A  507   1.170   7.051   5.378 -0.7326  0.0171 -0.8620
    7CHL1  H24B  508   1.004   7.119   5.408  1.1158 -2.2492 -1.4794
    7CHL1   C25  509   1.162   7.265   5.391  0.0422 -0.5684 -0.0755
    7CHL1   H25  510   1.259   7.283   5.441 -1.1513 -1.4140  2.7182
    7CHL1   C26  511   1.186   7.283   5.235 -0.1680  0.5752 -0.3122
    7CHL1  H26A  512   1.086   7.277   5.188  0.5466 -1.7443 -1.7199
    7CHL1  H26B  513   1.239   7.376   5.206  0.8519 -0.0179 -0.3937
    7CHL1  H26C  514   1.246   7.199   5.192  0.1050  0.0401  1.0602
    7CHL1   C27  515   1.076   7.383   5.435  0.1247 -0.6175 -1.0993
    7CHL1  H27A  516   1.082   7.397   5.545 -3.7508  1.9591 -1.0466
    7CHL1  H27B  517   1.110   7.483   5.400  1.6623 -0.2858  1.1223
    7CHL1  H27C  518   0.968   7.383   5.408  0.5043  1.2518 -2.8498
    8CHL1    C3  519   2.507   1.875   6.459  0.0149  0.2875 -0.1887
    8CHL1    H3  520   2.610   1.846   6.432 -0.1320 -0.6708  0.2617
    8CHL1    O3  521   2.481   1.863   6.605  0.3591  0.0123 -0.1318
    8CHL1   H3'  522   2.394   1.903   6.605  0.9010  1.3709 -1.9433
    8CHL1    C4  523   2.489   2.017   6.408 -0.0835  1.1995 -0.0962
    8CHL1   H4A  524   2.396   2.072   6.434 -0.9525  0.9918 -2.5418
    8CHL1   H4B  525   2.578   2.076   6.440 -1.1811  1.2895  3.1710
    8CHL1    C5  526   2.487   2.011   6.251 -0.3329  0.5863 -0.5890
    8CHL1    C6  527   2.584   2.075   6.179  0.9158 -0.0871 -0.3306
    8CHL1    H6  528   2.669   2.120   6.233 -0.8568 -0.7930  3.3920
    8CHL1    C7  529   2.583   2.073   6.033  0.3806 -0.3369  0.1734
    8CHL1   H7A  530   2.622   2.170   5.998 -0.2536  0.4885  1.6256
    8CHL1   H7B  531   2.656   1.997   5.997 -1.5177 -1.9131 -0.5440
    8CHL1    C8  532   2.439   2.046   5.969 -0.6263  0.1182  0.3028
    8CHL1    H8  533   2.378   2.137   5.989 -0.1897  0.7084 -0.9412
    8CHL1   C14  534   2.453   2.015   5.822 -0.1614  0.1415  0.0482
    8CHL1   H14  535   2.503   1.918   5.803  0.0386  0.7378 -2.9951
    8CHL1   C15  536   2.518   2.122   5.731 -0.4045  0.4514  0.1828
    8CHL1  H15A  537   2.485   2.226   5.754  3.8879  2.0449 -0.0222
    8CHL1  H15B  538   2.628   2.128   5.741  0.0220 -0.0774 -3.1552
    8CHL1   C16  539   2.472   2.086   5.589  0.4545 -0.0789 -0.3125
    8CHL1  H16A  540   2.418   2.170   5.540 -1.8799 -1.1412  0.2730
    8CHL1  H16B  541   2.554   2.059   5.519  0.4420 -3.1561  0.6905
    8CHL1   C17  542   2.367   1.971   5.606 -0.7648 -0.3190  0.2934
    8CHL1   H17  543   2.416   1.872   5.611 -2.2477 -1.0336  2.4066
    8CHL1   C13  544   2.320   1.986   5.753 -0.8889  0.3770 -0.5806
    8CHL1   C18  545   2.228   2.111   5.748  0.4532 -0.1515 -0.6309
    8CHL1  H18A  546   2.128   2.076   5.715  0.0002  0.2278  0.3129
    8CHL1  H18B  547   2.227   2.156   5.849 -1.1177  0.5957 -0.9377
    8CHL1  H18C  548   2.247   2.198   5.681 -1.7219  0.0608 -1.0547
    8CHL1   C12  549   2.259   1.854   5.820 -0.4803  0.3884  0.0764
    8CHL1  H12A  550   2.157   1.831   5.783 -0.6326  4.6193 -2.9699
    8CHL1  H12B  551   2.327   1.771   5.792 -0.4908  0.6404 -0.7299
    8CHL1   C11  552   2.247   1.882   5.969 -0.8723  0.3141 -0.2389
    8CHL1  H11A  553   2.180   1.971   5.967  0.9280  1.7424 -0.5244
    8CHL1  H11B  554   2.202   1.799   6.027  0.2221 -0.2703 -0.1871
    8CHL1    C9  555   2.381   1.923   6.036 -0.2635  0.9030  0.8242
    8CHL1    H9  556   2.448   1.838   6.010 -0.1075  1.8308 -2.2049
    8CHL1   C10  557   2.365   1.927   6.193  0.2275  0.7547  0.0157
    8CHL1   C19  558   2.226   1.988   6.228 -0.1816  0.5293  0.4188
    8CHL1  H19A  559   2.216   2.081   6.169  0.1169 -0.5114 -1.3383
    8CHL1  H19B  560   2.139   1.920   6.212  1.3337 -1.9642  2.0015
    8CHL1  H19C  561   2.225   2.019   6.335  1.6123  3.8769 -0.4081
    8CHL1    C1  562   2.377   1.786   6.253  0.4083 -0.1316  0.3916
    8CHL1   H1A  563   2.294   1.718   6.226 -1.0939  0.2296  3.6766
    8CHL1   H1B  564   2.467   1.736   6.209 -1.0819 -1.0611 -1.7841
    8CHL1    C2  565   2.398   1.786   6.405  0.0505  0.1298  0.3237
    8CHL1   H2A  566   2.422   1.681   6.434 -0.9319 -0.1975  0.0169
    8CHL1   H2B  567   2.302   1.811   6.454  0.1616 -1.6914  1.5990
    8CHL1   C20  568   2.258   1.962   5.495 -0.3039 -0.3653 -0.1025
    8CHL1   H20  569   2.208   2.061   5.492  1.4671  0.5755  0.0318
    8CHL1   C21  570   2.145   1.862   5.518  0.1590 -0.2423 -0.3800
    8CHL1  H21A  571   2.186   1.760   5.534  1.3781 -0.0715 -2.1810
    8CHL1  H21B  572   2.075   1.864   5.433  1.2524 -1.1240 -1.3255
    8CHL1  H21C  573   2.080   1.880   5.607 -0.4583 -3.4419 -0.0954
    8CHL1   C22  574   2.335   1.936   5.356 -0.1762 -0.8312  0.2305
    8CHL1  H22A  575   2.417   2.005   5.326 -0.7093  0.4427  1.5879
    8CHL1  H22B  576   2.395   1.843   5.366 -0.9362 -1.5061 -1.2288
    8CHL1   C23  577   2.237   1.922   5.240  0.3302 -0.0570 -0.8248
    8CHL1  H23A  578   2.181   1.827   5.256  1.3037 -1.0528 -2.9211
    8CHL1  H23B  579   2.167   2.007   5.234  1.3672  0.9674  0.7771
    8CHL1   C24  580   2.315   1.899   5.111  0.5621 -0.1684  0.3682
    8CHL1  H24A  581   2.394   1.976   5.099 -0.2089  0.3169 -2.0315
    8CHL1  H24B  582   2.380   1.811   5.130  0.5995 -0.4566 -1.0589
    8CHL1   C25  583   2.227   1.901   4.983 -0.2258  0.1523  0.7562
    8CHL1   H25  584   2.160   1.990   4.989 -0.1402  0.2179  0.7324
    8CHL1   C26  585   2.309   1.919   4.856  0.2062  0.2019  0.1813
    8CHL1  H26A  586   2.385   2.000   4.862 -1.3312  2.0383 -2.8383
    8CHL1  H26B  587   2.353   1.823   4.820 -0.7803 -0.9352  1.8545
    8CHL1  H26C  588   2.237   1.954   4.779 -2.1279 -1.6882  1.3684
    8CHL1   C27  589   2.144   1.773   4.967 -0.7016 -0.6572  0.4190
    8CHL1  H27A  590   2.087   1.756   5.061 -1.1248 -0.6019  0.1765
    8CHL1  H27B  591   2.074   1.786   4.882  1.4447 -3.3040 -1.9471
    8CHL1  H27C  592   2.210   1.685   4.952 -0.0709  0.0333 -1.0031
    9CHL1    C3  593   0.811   1.892   6.504  0.3430  0.8086  0.2193
    9CHL1    H3  594   0.726   1.962   6.520  0.3653  1.2065 -1.2451
    9CHL1    O3  595   0.891   1.895   6.623  0.8809  0.2040  0.3092
    9CHL1   H3'  596   0.944   1.815   6.614  1.4256  0.5084  0.6936
    9CHL1    C4  597   0.774   1.749   6.469 -0.1882 -0.3726  0.2936
    9CHL1   H4A  598   0.861   1.681   6.458 -0.6847 -1.1156  0.8524
    9CHL1   H4B  599   0.708   1.709   6.549 -1.4616  2.2745  0.6647
    9CHL1    C5  600   0.700   1.742   6.339  0.6096 -0.0182 -0.7443
    9CHL1    C6  601   0.577   1.690   6.334  0.6835 -0.7875 -0.1142
    9CHL1    H6  602   0.538   1.640   6.424  2.1257 -3.9125 -1.0734
    9CHL1    C7  603   0.492   1.687   6.213 -0.2906  0.6183  0.0643
    9CHL1   H7A  604   0.459   1.583   6.195  2.0263  0.1683 -2.1989
    9CHL1   H7B  605   0.402   1.749   6.230 -0.5956  0.1793  0.0529
    9CHL1    C8  606   0.567   1.725   6.089 -0.4694  0.3662  0.4693
    9CHL1    H8  607   0.622   1.636   6.050 -2.4494 -1.0184  0.7096
    9CHL1   C14  608   0.464   1.749   5.978  0.5799 -0.4190 -0.2710
    9CHL1   H14  609   0.412   1.838   6.020  1.3706  1.2624 -2.6133
    9CHL1   C15  610   0.362   1.644   5.944  0.1913 -0.5443 -0.3616
    9CHL1  H15A  611   0.417   1.549   5.925  0.4365 -0.4054 -0.3536
    9CHL1  H15B  612   0.279   1.628   6.016  1.6231 -0.2101  1.4104
    9CHL1   C16  613   0.305   1.696   5.805  0.2047  0.3289 -0.8851
    9CHL1  H16A  614   0.299   1.610   5.734  0.6009 -0.0472 -0.4725
    9CHL1  H16B  615   0.205   1.742   5.818 -0.5905 -1.9150  1.9104
    9CHL1   C17  616   0.407   1.804   5.756 -0.3481  0.4170  0.0739
    9CHL1   H17  617   0.367   1.904   5.782  1.8637  1.5976 -0.8112
    9CHL1   C13  618   0.534   1.797   5.847  0.0049  0.1250  0.0168
    9CHL1   C18  619   0.635   1.687   5.788 -0.2288  0.0621  0.3968
    9CHL1  H18A  620   0.664   1.715   5.685  0.2227  0.6432  0.6688
    9CHL1  H18B  621   0.732   1.688   5.843  0.2839  1.0889 -0.4757
    9CHL1  H18C  622   0.592   1.585   5.788 -2.2312  0.8177 -2.0895
    9CHL1   C12  623   0.596   1.929   5.872 -0.8535  1.2230 -0.2439
    9CHL1  H12A  624   0.647   1.970   5.782  3.3430 -1.0736  0.8089
    9CHL1  H12B  625   0.516   1.997   5.910 -0.6790  0.5133  1.4814
    9CHL1   C11  626   0.705   1.917   5.983 -0.1535 -0.0357  0.1322
    9CHL1  H11A  627   0.786   1.856   5.938  0.8853  2.2434 -1.3092
    9CHL1  H11B  628   0.753   2.015   6.007  1.1096  0.3566 -3.3332
    9CHL1    C9  629   0.656   1.845   6.117 -0.3618 -0.1258  0.4433
    9CHL1    H9  630   0.584   1.915   6.165 -0.5093  1.2781 -1.7111
    9CHL1   C10  631   0.764   1.819   6.220  0.1468  0.0929 -0.2697
    9CHL1   C19  632   0.882   1.727   6.166 -0.3840 -0.9775  0.1510
    9CHL1  H19A  633   0.923   1.764   6.070 -1.0936  3.0934  1.2262
    9CHL1  H19B  634   0.968   1.716   6.235 -1.8241 -1.9924  1.8753
    9CHL1  H19C  635   0.831   1.632   6.139 -0.2679 -1.0119  0.0555
    9CHL1    C1  636   0.821   1.958   6.263  0.1428 -0.6055 -0.1869
    9CHL1   H1A  637   0.885   1.994   6.179 -0.6683  0.6753 -0.2828
    9CHL1   H1B  638   0.737   2.030   6.276  0.4379 -0.2387 -0.3187
    9CHL1    C2  639   0.897   1.955   6.387  0.2435 -0.4722  0.0619
    9CHL1   H2A  640   0.922   2.059   6.415 -0.8792 -0.5666  1.5579
    9CHL1   H2B  641   0.994   1.901   6.379 -0.4215 -1.8001  0.4787
    9CHL1   C20  642   0.428   1.815   5.607  0.2789  0.6268 -0.3088
    9CHL1   H20  643   0.485   1.731   5.563  0.2310  0.5087 -0.1440
    9CHL1   C21  644   0.507   1.943   5.563  0.5308  0.4594  0.0365
    9CHL1  H21A  645   0.611   1.936   5.602  0.1958 -2.0814  0.6448
    9CHL1  H21B  646   0.465   2.033   5.613  0.0295 -0.0455  0.5515
    9CHL1  H21C  647   0.513   1.957   5.453 -1.7689 -2.5375 -0.5936
    9CHL1   C22  648   0.290   1.821   5.534  0.1584  0.3757  0.4213
    9CHL1  H22A  649   0.214   1.761   5.588  0.0918  1.0028  1.0368
    9CHL1  H22B  650   0.247   1.922   5.546  0.8102  0.7555 -0.3269
    9CHL1   C23  651   0.279   1.783   5.385 -0.9142  0.4391  0.4954
    9CHL1  H23A  652   0.354   1.822   5.313 -0.7742  1.7204  1.3057
    9CHL1  H23B  653   0.293   1.672   5.385 -0.0978  0.5301 -0.3467
    9CHL1   C24  654   0.149   1.837   5.310 -0.1899 -0.1692  0.4493
    9CHL1  H24A  655   0.056   1.810   5.365  0.3984 -2.4663  0.4130
    9CHL1  H24B  656   0.157   1.946   5.329 -2.6513 -0.0966  1.4440
    9CHL1   C25  657   0.129   1.799   5.160  0.0224 -0.2632  0.0152
    9CHL1   H25  658   0.125   1.689   5.149  1.3062 -0.4292  0.9024
    9CHL1   C26  659   0.001   1.858   5.093  0.0061  0.5705 -0.8576
    9CHL1  H26A  660   0.005   1.834   4.985 -1.9885 -2.7187 -0.3117
    9CHL1  H26B  661  -0.084   1.808   5.144  0.9073  1.9264  2.2434
    9CHL1  H26C  662  -0.001   1.966   5.121  3.5213  0.2663  1.2447
    9CHL1   C27  663   0.245   1.852   5.074  0.2059  0.2961  0.1874
    9CHL1  H27A  664   0.342   1.815   5.115  0.3106 -0.1265 -0.4372
    9CHL1  H27B  665   0.245   1.813   4.970 -1.3536  2.5482 -0.7361
    9CHL1  H27C  666   0.247   1.963   5.065  0.7648  0.2668 -0.0663
   10CHL1    C3  667   2.430   3.769   6.056 -0.4326  0.2686 -0.2673
   10CHL1    H3  668   2.374   3.864   6.039  0.7493  0.7351 -1.7912
   10CHL1    O3  669   2.481   3.769   6.191  0.1922 -0.3276 -0.0232
   10CHL1   H3'  670   2.572   3.740   6.184  0.1642 -1.2028  2.3483
   10CHL1    C4  671   2.335   3.654   6.050 -0.1929  0.9135 -0.2782
   10CHL1   H4A  672   2.372   3.568   6.108 -1.4984  0.6093  0.1311
   10CHL1   H4B  673   2.242   3.679   6.105 -0.7473  0.9104 -1.1991
   10CHL1    C5  674   2.300   3.606   5.915  0.3593  0.4198  0.3105
   10CHL1    C6  675   2.170   3.569   5.890  0.4072  0.2529  0.4927
   10CHL1    H6  676   2.099   3.563   5.974  3.7868 -0.2872  3.5413
   10CHL1    C7  677   2.131   3.524   5.751  0.5175  0.0094  0.4258
   10CHL1   H7A  678   2.066   3.435   5.762 -0.4979  0.8237  1.2303
   10CHL1   H7B  679   2.082   3.608   5.698  1.3519  1.1011  1.3365
   10CHL1    C8  680   2.246   3.485   5.651 -0.0873  0.4770 -0.0692
   10CHL1    H8  681   2.274   3.387   5.695 -1.6192 -0.1672 -0.4755
   10CHL1   C14  682   2.203   3.467   5.505  0.3417  0.0609 -0.0490
   10CHL1   H14  683   2.181   3.569   5.468  1.8934 -0.0942 -1.4895
   10CHL1   C15  684   2.075   3.377   5.475  0.0928  0.1491 -0.6704
   10CHL1  H15A  685   2.075   3.279   5.527  1.7685 -0.1839 -1.2423
   10CHL1  H15B  686   1.977   3.422   5.501 -0.8225 -2.5573  0.9846
   10CHL1   C16  687   2.097   3.351   5.323 -0.2210  0.6134  0.6698
   10CHL1  H16A  688   2.099   3.240   5.315 -0.4775  0.6981 -0.8139
   10CHL1  H16B  689   2.021   3.405   5.263  1.0912  0.3324 -1.3593
   10CHL1   C17  690   2.240   3.399   5.282 -0.5726  0.4648  0.3352
   10CHL1   H17  691   2.238   3.493   5.223 -1.4577  0.7465  0.7912
   10CHL1   C13  692   2.316   3.425   5.407 -0.3176 -0.0883  0.2909
   10CHL1   C18  693   2.378   3.294   5.464 -0.2721  0.8510  0.6087
   10CHL1  H18A  694   2.307   3.209   5.466 -0.7038  1.2053  0.7769
   10CHL1  H18B  695   2.470   3.258   5.413 -1.9498 -2.1139 -0.5509
   10CHL1  H18C  696   2.421   3.307   5.566 -1.4422  0.2353  1.2035
   10CHL1   C12  697   2.428   3.535   5.412  0.3829 -1.0316  0.8549
   10CHL1  H12A  698   2.521   3.519   5.354 -0.0999 -1.4362  0.1838
   10CHL1  H12B  699   2.378   3.623   5.365 -0.8488 -3.0251 -1.8353
   10CHL1   C11  700   2.477   3.562   5.555 -0.7203 -0.4274  0.2865
   10CHL1  H11A  701   2.549   3.484   5.588  1.2957  1.1127 -0.2535
   10CHL1  H11B  702   2.537   3.655   5.559 -1.0295 -0.2746  2.9432
   10CHL1    C9  703   2.362   3.584   5.662 -0.0074 -0.3327  0.1028
   10CHL1    H9  704   2.312   3.677   5.629  1.5998  1.0089  1.3165
   10CHL1   C10  705   2.413   3.603   5.807  0.4600 -0.1178  0.3402
   10CHL1   C19  706   2.501   3.472   5.840  0.5361 -0.4791 -0.0049
   10CHL1  H19A  707   2.595   3.487   5.783  0.0501  1.8606 -0.2729
   10CHL1  H19B  708   2.530   3.459   5.946  0.4785 -1.2335 -0.0720
   10CHL1  H19C  709   2.446   3.386   5.796  1.0880  0.3916 -2.5794
   10CHL1    C1  710   2.499   3.731   5.822  0.4528  0.2805 -0.2000
   10CHL1   H1A  711   2.585   3.730   5.752  0.5382  1.9540 -0.1404
   10CHL1   H1B  712   2.447   3.818   5.777  1.1294 -0.3955 -2.4285
   10CHL1    C2  713   2.551   3.764   5.964  0.6340 -0.1277  0.4034
   10CHL1   H2A  714   2.616   3.854   5.965  2.2711 -1.2000 -1.4762
   10CHL1   H2B  715   2.604   3.675   6.004  0.2240 -0.1734  0.8523
   10CHL1   C20  716   2.316   3.305   5.181  0.2714 -0.1303  0.1965
   10CHL1   H20  717   2.329   3.205   5.227  1.5967  1.2302  3.0079
   10CHL1   C21  718   2.457   3.362   5.149  0.5581 -0.8424 -0.3377
   10CHL1  H21A  719   2.519   3.368   5.242 -0.9505 -2.6992  0.8612
   10CHL1  H21B  720   2.446   3.462   5.102 -2.3446 -1.8214 -1.9229
   10CHL1  H21C  721   2.517   3.295   5.084  1.9855 -1.5609  1.5905
   10CHL1   C22  722   2.227   3.276   5.054 -0.1595 -0.1300  0.9207
   10CHL1  H22A  723   2.303   3.230   4.988 -0.6641 -0.3000  0.4397
   10CHL1  H22B  724   2.140   3.210   5.074 -2.7661  2.3038 -1.3556
   10CHL1   C23  725   2.179   3.403   4.969 -0.2102  0.1744 -0.0020
   10CHL1  H23A  726   2.140   3.480   5.039 -0.6791  1.6557 -1.7755
   10CHL1  H23B  727   2.266   3.455   4.921 -0.4834 -0.0576 -0.7632
   10CHL1   C24  728   2.075   3.357   4.862 -0.9074  0.1409 -0.6735
   10CHL1  H24A  729   2.130   3.278   4.807 -0.7381 -0.2953  0.1141
   10CHL1  H24B  730   1.982   3.315   4.905  0.9211 -2.4707  1.0445
   10CHL1   C25  731   2.033   3.475   4.777 -0.6089  0.6721 -0.3533
   10CHL1   H25  732   2.127   3.510   4.728 -1.5347  0.5864 -2.2494
   10CHL1   C26  733   1.943   3.427   4.663  0.6696 -0.3589  0.6341
   10CHL1  H26A  734   1.897   3.508   4.603 -0.2438 -0.1308  1.6273
   10CHL1  H26B  735   1.992   3.358   4.590 -2.2228  0.0202 -1.8303
   10CHL1  H26C  736   1.856   3.373   4.705  0.6251 -1.0796 -0.3545
   10CHL1   C27  737   1.967   3.586   4.848  0.5620 -0.4794 -0.5179
   10CHL1  H27A  738   1.952   3.672   4.779  4.4020 -0.6685 -1.8166
   10CHL1  H27B  739   1.859   3.565   4.865  0.4286  1.6533  1.9531
   10CHL1  H27C  740   2.000   3.607   4.952 -1.0212  0.0806 -0.0909
   11CHL1    C3  741   4.469   6.943   6.229 -0.5130 -0.1208 -0.2594
   11CHL1    H3  742   4.580   6.948   6.228 -0.3772 -2.4578 -1.1083
   11CHL1    O3  743   4.429   6.898   6.356  0.0726 -0.1262  0.2060
   11CHL1   H3'  744   4.336   6.883   6.340  0.3791 -2.9807  0.6386
   11CHL1    C4  745   4.412   7.083   6.206  1.0835 -0.2302 -0.0843
   11CHL1   H4A  746   4.303   7.072   6.223  1.2916 -1.9529  0.2761
   11CHL1   H4B  747   4.451   7.148   6.288  2.3880 -1.4737  0.3305
   11CHL1    C5  748   4.459   7.144   6.071  0.2143 -0.2294 -0.0810
   11CHL1    C6  749   4.522   7.262   6.062  0.3646 -0.6127  0.0390
   11CHL1    H6  750   4.527   7.324   6.152  0.9453 -1.9966  0.9980
   11CHL1    C7  751   4.563   7.311   5.929 -0.2949  0.6477 -0.6387
   11CHL1   H7A  752   4.538   7.419   5.933 -1.9807  0.2456  1.6696
   11CHL1   H7B  753   4.673   7.311   5.914 -0.3621 -0.9867 -1.2946
   11CHL1    C8  754   4.497   7.248   5.803  0.0683 -0.3926 -0.5520
   11CHL1    H8  755   4.391   7.280   5.796  0.5324  0.8739 -2.5058
   11CHL1   C14  756   4.574   7.292   5.680  0.0046 -0.3312  0.4028
   11CHL1   H14  757   4.678   7.255   5.690  0.3487  0.3071 -0.7172
   11CHL1   C15  758   4.584   7.447   5.647 -0.4399 -0.0350  0.5508
   11CHL1  H15A  759   4.483   7.487   5.668  0.1832  1.2691  1.2361
   11CHL1  H15B  760   4.671   7.485   5.706 -0.4169  1.0753 -0.1709
   11CHL1   C16  761   4.623   7.445   5.500 -0.0503 -1.0637 -0.3581
   11CHL1  H16A  762   4.543   7.493   5.439 -3.8534 -2.0045  3.4028
   11CHL1  H16B  763   4.720   7.493   5.474 -0.8114  0.1417 -1.0511
   11CHL1   C17  764   4.623   7.296   5.455 -0.5264 -0.0493 -0.3956
   11CHL1   H17  765   4.723   7.260   5.486  0.1399  1.3958 -0.8169
   11CHL1   C13  766   4.522   7.226   5.551 -0.0175 -0.7888  0.3754
   11CHL1   C18  767   4.376   7.270   5.518  0.6960 -0.2755  0.4818
   11CHL1  H18A  768   4.306   7.234   5.596 -0.1016 -1.4210 -0.7066
   11CHL1  H18B  769   4.376   7.380   5.512  2.9761 -0.2943 -2.0236
   11CHL1  H18C  770   4.338   7.227   5.422 -0.0956 -0.9781  1.0927
   11CHL1   C12  771   4.523   7.078   5.568  0.6131  0.5481 -0.3856
   11CHL1  H12A  772   4.490   7.018   5.481  0.9244  0.1976 -0.2660
   11CHL1  H12B  773   4.629   7.043   5.574  0.3310 -0.7652 -2.4311
   11CHL1   C11  774   4.436   7.021   5.686  0.4345  0.2660 -0.1317
   11CHL1  H11A  775   4.326   7.035   5.673  0.5186  0.7575 -0.3178
   11CHL1  H11B  776   4.458   6.912   5.695  3.3666  0.8296  0.2510
   11CHL1    C9  777   4.485   7.092   5.821 -0.0508  0.3616 -0.4346
   11CHL1    H9  778   4.587   7.046   5.821 -0.4192 -0.4805 -0.8375
   11CHL1   C10  779   4.424   7.045   5.950 -0.1218  0.5851 -0.4967
   11CHL1   C19  780   4.274   7.058   5.942  0.2293  0.0133  0.8863
   11CHL1  H19A  781   4.233   6.982   5.872 -1.7243  2.8754 -1.3400
   11CHL1  H19B  782   4.222   7.041   6.039 -0.1160  0.1834  0.7357
   11CHL1  H19C  783   4.243   7.157   5.903  0.4988 -0.0701  0.4619
   11CHL1    C1  784   4.461   6.890   5.987  0.0749 -0.1266 -0.4996
   11CHL1   H1A  785   4.417   6.813   5.921  1.5595 -1.9529  0.5293
   11CHL1   H1B  786   4.570   6.875   5.970  0.3598 -0.5867  1.4797
   11CHL1    C2  787   4.421   6.846   6.125  0.0055  0.1541  0.1817
   11CHL1   H2A  788   4.465   6.746   6.144 -0.7133  0.1787  2.1778
   11CHL1   H2B  789   4.314   6.818   6.134  0.1312 -0.0761  1.0173
   11CHL1   C20  790   4.607   7.255   5.309  0.4600 -0.2088  0.1022
   11CHL1   H20  791   4.582   7.148   5.292 -2.3203  0.7378 -2.7753
   11CHL1   C21  792   4.748   7.269   5.252  0.6820 -0.2708 -0.2954
   11CHL1  H21A  793   4.796   7.369   5.257 -0.1942  0.2323 -1.5321
   11CHL1  H21B  794   4.748   7.242   5.144  0.9308  1.2219 -0.6936
   11CHL1  H21C  795   4.822   7.201   5.299  0.1348  0.5816  1.8996
   11CHL1   C22  796   4.505   7.340   5.228 -0.7393  0.0017 -0.7153
   11CHL1  H22A  797   4.397   7.334   5.252 -0.4713  2.1014  1.4673
   11CHL1  H22B  798   4.520   7.449   5.239 -0.0861 -0.1631  0.1643
   11CHL1   C23  799   4.503   7.300   5.077 -0.9279  0.9790  0.3263
   11CHL1  H23A  800   4.439   7.375   5.025 -1.8564  0.0773  0.1311
   11CHL1  H23B  801   4.600   7.313   5.024 -0.5859  1.3095  1.0217
   11CHL1   C24  802   4.448   7.151   5.049  0.6297 -0.1548 -0.2802
   11CHL1  H24A  803   4.523   7.085   5.097 -2.0064 -1.2799  2.5806
   11CHL1  H24B  804   4.356   7.131   5.107  1.1288 -0.7076  0.3381
   11CHL1   C25  805   4.423   7.130   4.902  0.2884 -0.3524 -0.7436
   11CHL1   H25  806   4.424   7.021   4.881  1.1178 -0.2379 -1.3358
   11CHL1   C26  807   4.282   7.180   4.849 -0.7137 -0.1218  0.1227
   11CHL1  H26A  808   4.258   7.288   4.865  3.1886  0.9584 -0.2208
   11CHL1  H26B  809   4.271   7.149   4.743 -1.3298  0.5207 -0.0119
   11CHL1  H26C  810   4.207   7.131   4.915 -1.8264  1.4664  0.1123
   11CHL1   C27  811   4.542   7.174   4.817  0.1095 -0.2172 -0.2715
   11CHL1  H27A  812   4.546   7.116   4.723  0.9979  2.1270 -1.7502
   11CHL1  H27B  813   4.533   7.282   4.792 -1.9540 -0.7465 -2.1688
   11CHL1  H27C  814   4.633   7.155   4.877  0.0630 -0.1749 -0.1871
   12CHL1    C3  815   6.105   5.974   6.558  0.0473  0.4245  0.2258
   12CHL1    H3  816   6.089   6.084   6.568 -2.7436  0.3241 -1.8766
   12CHL1    O3  817   6.118   5.917   6.687 -0.3360 -0.0792 -0.6015
   12CHL1   H3'  818   6.094   5.825   6.681 -1.2443  0.1066  0.0044
   12CHL1    C4  819   5.986   5.912   6.485 -0.0314  0.7100  0.5070
   12CHL1   H4A  820   5.993   5.801   6.486 -2.4913  0.4205 -1.6143
   12CHL1   H4B  821   5.890   5.933   6.537  0.3941 -0.0233  1.6254
   12CHL1    C5  822   5.986   5.961   6.343  0.3062  0.1092  0.2703
   12CHL1    C6  823   5.877   6.021   6.294  0.3246  0.6906 -0.1341
   12CHL1    H6  824   5.789   6.047   6.355  0.3140 -0.3373  0.3081
   12CHL1    C7  825   5.860   6.060   6.149 -0.5507 -0.6157  0.5729
   12CHL1   H7A  826   5.764   6.020   6.112 -0.8550  0.7774 -0.1924
   12CHL1   H7B  827   5.854   6.171   6.154 -0.0245 -0.5808  0.5423
   12CHL1    C8  828   5.984   6.020   6.056  1.5681  0.5065 -0.0539
   12CHL1    H8  829   5.961   5.919   6.017  2.9019 -0.2868  1.1491
   12CHL1   C14  830   5.994   6.109   5.931  0.2005 -0.4924 -0.5923
   12CHL1   H14  831   6.034   6.206   5.969  5.0282 -1.3918 -2.6158
   12CHL1   C15  832   5.869   6.140   5.851  0.0447  0.5568 -0.4962
   12CHL1  H15A  833   5.800   6.054   5.836  0.7258 -0.0608 -0.1519
   12CHL1  H15B  834   5.821   6.222   5.909 -0.6211  0.2518 -0.5969
   12CHL1   C16  835   5.918   6.193   5.719  0.2463 -0.1498 -0.1680
   12CHL1  H16A  836   5.894   6.127   5.633  0.6775  1.3000 -1.4307
   12CHL1  H16B  837   5.869   6.287   5.687  0.1421  0.0149  0.4651
   12CHL1   C17  838   6.072   6.181   5.730 -0.4962  0.4357  0.3852
   12CHL1   H17  839   6.123   6.266   5.780  1.5901 -0.9936  0.8518
   12CHL1   C13  840   6.103   6.067   5.825 -0.2694  0.2341  0.4053
   12CHL1   C18  841   6.065   5.932   5.754 -0.1618 -0.2108  1.4602
   12CHL1  H18A  842   6.132   5.913   5.667  0.2743 -0.7259  1.8952
   12CHL1  H18B  843   6.080   5.839   5.813  0.5402 -0.1908  1.3213
   12CHL1  H18C  844   5.965   5.926   5.707  1.0369 -0.2821 -1.2946
   12CHL1   C12  845   6.235   6.068   5.897  1.0171 -0.3630 -0.2543
   12CHL1  H12A  846   6.320   6.031   5.835  2.9480 -0.2444  2.1942
   12CHL1  H12B  847   6.254   6.173   5.925 -0.4780  0.0864 -0.8008
   12CHL1   C11  848   6.230   5.979   6.024 -0.3831 -0.5249  0.2711
   12CHL1  H11A  849   6.198   5.878   5.992 -1.6562 -0.6661  1.8832
   12CHL1  H11B  850   6.330   5.954   6.066 -0.6311 -1.0010  0.5919
   12CHL1    C9  851   6.123   6.014   6.127  0.3177  0.8946 -0.1199
   12CHL1    H9  852   6.129   6.118   6.164 -1.9637  1.4641 -1.2300
   12CHL1   C10  853   6.121   5.943   6.265  0.2860  0.5321  0.3954
   12CHL1   C19  854   6.133   5.795   6.236  0.8469 -0.3521 -0.5791
   12CHL1  H19A  855   6.044   5.755   6.183  2.4749 -3.8087 -0.9652
   12CHL1  H19B  856   6.221   5.762   6.177 -0.1595 -1.3265 -1.5881
   12CHL1  H19C  857   6.144   5.739   6.331 -0.7251  0.4461  0.1160
   12CHL1    C1  858   6.241   5.999   6.349 -0.4528 -0.4689  0.2730
   12CHL1   H1A  859   6.335   5.965   6.302  1.1291  1.0098  2.1642
   12CHL1   H1B  860   6.246   6.109   6.338  1.7611 -0.4309  1.2322
   12CHL1    C2  861   6.239   5.951   6.489  0.2075  0.2674 -0.3174
   12CHL1   H2A  862   6.313   6.011   6.547 -1.2417  0.8436  1.0129
   12CHL1   H2B  863   6.263   5.843   6.496  0.3415  0.3368  0.4307
   12CHL1   C20  864   6.132   6.174   5.587 -0.0803  0.5010  0.5894
   12CHL1   H20  865   6.102   6.081   5.534  2.8358 -0.4121  0.3882
   12CHL1   C21  866   6.293   6.177   5.586 -0.5128  0.2886 -0.6945
   12CHL1  H21A  867   6.335   6.199   5.486 -0.7543  2.2495 -0.4068
   12CHL1  H21B  868   6.321   6.074   5.617 -1.7959  0.2770  0.5399
   12CHL1  H21C  869   6.335   6.242   5.666 -0.6481 -4.2163  3.5291
   12CHL1   C22  870   6.076   6.286   5.497  0.3307 -0.0846  0.5263
   12CHL1  H22A  871   5.967   6.305   5.487  0.7246  2.0061 -0.2698
   12CHL1  H22B  872   6.122   6.384   5.519  0.2870  0.0531  0.0255
   12CHL1   C23  873   6.093   6.251   5.348  0.2635  0.0271  0.5855
   12CHL1  H23A  874   6.184   6.192   5.324  0.4021  0.6345 -0.4290
   12CHL1  H23B  875   6.011   6.179   5.326  0.9437 -0.3102 -0.9457
   12CHL1   C24  876   6.105   6.378   5.261  0.2580  0.3609  0.2361
   12CHL1  H24A  877   6.011   6.438   5.261 -0.0048  0.0222 -1.9741
   12CHL1  H24B  878   6.184   6.443   5.304  1.1979 -0.7246  0.1982
   12CHL1   C25  879   6.135   6.353   5.110 -0.0744 -0.3903 -0.0381
   12CHL1   H25  880   6.050   6.291   5.075  0.3662  0.0696 -2.1121
   12CHL1   C26  881   6.146   6.492   5.034 -1.0711  0.5955 -0.3865
   12CHL1  H26A  882   6.161   6.492   4.924 -0.6448  0.0701 -0.3334
   12CHL1  H26B  883   6.052   6.545   5.063 -1.7622 -1.8887  2.4766
   12CHL1  H26C  884   6.229   6.552   5.077 -1.0132  0.7100 -0.6607
   12CHL1   C27  885   6.269   6.279   5.081  0.2464 -0.5188  0.2232
   12CHL1  H27A  886   6.356   6.339   5.113  0.1387 -1.7245  3.1380
   12CHL1  H27B  887   6.269   6.182   5.136  1.6025 -0.1615  0.8746
   12CHL1  H27C  888   6.277   6.251   4.974  0.0510 -4.1516  1.0199
   13CHL1    C3  889   1.398   0.684   6.397 -0.3473 -0.1352  0.4136
   13CHL1    H3  890   1.475   0.764   6.394  0.4280 -0.8329  1.2398
   13CHL1    O3  891   1.396   0.624   6.521  0.4415 -0.3081  0.1697
   13CHL1   H3'  892   1.376   0.694   6.583 -0.1333 -0.7551  0.5061
   13CHL1    C4  893   1.262   0.740   6.362  0.3897  0.1053  0.2947
   13CHL1   H4A  894   1.192   0.654   6.366 -0.9682  1.1384  4.3372
   13CHL1   H4B  895   1.229   0.797   6.452 -2.5937 -0.6585 -0.1864
   13CHL1    C5  896   1.259   0.814   6.230 -0.4448 -0.1628  0.4853
   13CHL1    C6  897   1.213   0.941   6.223 -0.2217 -0.2116 -0.3618
   13CHL1    H6  898   1.191   0.999   6.314  0.4044  0.3017 -0.5335
   13CHL1    C7  899   1.193   1.015   6.095  0.0670  1.0257  0.7289
   13CHL1   H7A  900   1.096   1.067   6.079 -0.5891 -0.9485 -2.7283
   13CHL1   H7B  901   1.278   1.084   6.079  0.4057  0.3167 -0.6720
   13CHL1    C8  902   1.206   0.922   5.972 -0.1720  0.9039  0.3356
   13CHL1    H8  903   1.114   0.859   5.967  0.4929 -0.0279 -0.3732
   13CHL1   C14  904   1.223   1.006   5.847  0.2404  0.1546  0.4670
   13CHL1   H14  905   1.323   1.055   5.849  0.0480  0.5925 -0.1302
   13CHL1   C15  906   1.130   1.133   5.823 -0.4574 -0.5091 -0.1873
   13CHL1  H15A  907   1.030   1.110   5.865 -0.9969 -0.8449 -1.5885
   13CHL1  H15B  908   1.174   1.215   5.883 -0.2508 -0.5977 -0.2146
   13CHL1   C16  909   1.134   1.144   5.668 -0.3585  0.3520  0.3899
   13CHL1  H16A  910   1.032   1.124   5.628 -1.0747  1.5158  1.5764
   13CHL1  H16B  911   1.168   1.243   5.632  2.2381  0.2498  2.3107
   13CHL1   C17  912   1.235   1.040   5.614  0.4352 -0.6905  0.5144
   13CHL1   H17  913   1.333   1.088   5.635  1.0725 -0.1244 -2.9912
   13CHL1   C13  914   1.230   0.924   5.723  0.5438  0.0353  0.4264
   13CHL1   C18  915   1.099   0.837   5.691 -0.0922 -0.2242  0.1868
   13CHL1  H18A  916   1.004   0.893   5.704  0.2969  1.1289 -2.2321
   13CHL1  H18B  917   1.096   0.806   5.584  2.6043  0.4249 -0.1611
   13CHL1  H18C  918   1.091   0.750   5.760 -2.6921  0.3457  0.6905
   13CHL1   C12  919   1.363   0.845   5.729  0.2740 -0.0782 -0.7348
   13CHL1  H12A  920   1.366   0.780   5.638 -0.9877 -2.2905  0.7160
   13CHL1  H12B  921   1.455   0.908   5.734  0.2930 -0.1511 -0.1703
   13CHL1   C11  922   1.363   0.750   5.857 -0.1694 -0.4304  0.1587
   13CHL1  H11A  923   1.291   0.671   5.829  0.4575 -0.7903 -0.4699
   13CHL1  H11B  924   1.461   0.700   5.872  0.6874  1.4837  1.2551
   13CHL1    C9  925   1.320   0.821   5.990  0.4405 -0.5840 -0.0668
   13CHL1    H9  926   1.404   0.887   6.018  1.4081 -1.6440 -0.3831
   13CHL1   C10  927   1.298   0.732   6.113 -0.5270  0.1503 -1.3639
   13CHL1   C19  928   1.197   0.624   6.087 -0.0354 -0.4809  0.3760
   13CHL1  H19A  929   1.101   0.673   6.061  1.9059  3.6870  0.2436
   13CHL1  H19B  930   1.239   0.559   6.007  1.3055  0.5797  0.1771
   13CHL1  H19C  931   1.181   0.558   6.175 -0.3554 -0.7272  0.1365
   13CHL1    C1  932   1.434   0.670   6.144  0.8221 -0.2042 -0.1374
   13CHL1   H1A  933   1.461   0.591   6.069 -2.3106 -1.5664  0.0199
   13CHL1   H1B  934   1.516   0.745   6.140  0.7615 -0.0495  1.2207
   13CHL1    C2  935   1.438   0.595   6.282 -0.1081  0.1358 -0.5418
   13CHL1   H2A  936   1.543   0.562   6.294  0.1304  0.5781 -1.3437
   13CHL1   H2B  937   1.363   0.513   6.279  1.9580 -2.1018  2.8569
   13CHL1   C20  938   1.217   1.014   5.461 -0.2150 -0.4806  0.0932
   13CHL1   H20  939   1.134   0.941   5.448 -1.6500  1.0779  0.2347
   13CHL1   C21  940   1.345   0.945   5.404  0.2023  0.2170  0.2677
   13CHL1  H21A  941   1.354   0.850   5.461 -0.5908 -0.7921 -1.2162
   13CHL1  H21B  942   1.438   1.004   5.416 -0.9343  2.0049  0.6507
   13CHL1  H21C  943   1.325   0.923   5.297 -2.1034 -0.7508  0.8404
   13CHL1   C22  944   1.177   1.131   5.367 -0.1080  0.3297 -0.3556
   13CHL1  H22A  945   1.145   1.068   5.282  1.8584 -0.5379 -0.5036
   13CHL1  H22B  946   1.085   1.177   5.408 -0.7718 -1.2405 -0.0209
   13CHL1   C23  947   1.282   1.240   5.330 -0.2274 -0.6761  0.2374
   13CHL1  H23A  948   1.318   1.287   5.425  0.1785  1.5202 -0.9248
   13CHL1  H23B  949   1.373   1.195   5.285 -0.1683 -2.0300  1.6460
   13CHL1   C24  950   1.210   1.349   5.239 -0.1552 -0.2031  0.6746
   13CHL1  H24A  951   1.203   1.295   5.142  1.3498  0.7097  0.0322
   13CHL1  H24B  952   1.110   1.359   5.286  0.0111  1.7585  0.7051
   13CHL1   C25  953   1.280   1.487   5.239  0.5079 -0.6939 -0.0932
   13CHL1   H25  954   1.294   1.521   5.344 -1.7573  1.7166 -0.4716
   13CHL1   C26  955   1.410   1.480   5.160 -0.1491  0.9254 -0.2058
   13CHL1  H26A  956   1.473   1.392   5.186 -0.4648  1.0475  1.0475
   13CHL1  H26B  957   1.391   1.481   5.050 -0.9988  0.1931 -0.0803
   13CHL1  H26C  958   1.467   1.572   5.183  0.3626 -0.2731  4.1411
   13CHL1   C27  959   1.182   1.594   5.177 -0.3329  0.0390 -0.1468
   13CHL1  H27A  960   1.165   1.550   5.076 -1.7634 -2.8375  1.2409
   13CHL1  H27B  961   1.088   1.615   5.232  0.2083  3.3044 -0.2233
   13CHL1  H27C  962   1.234   1.692   5.169 -0.6614  0.0942 -2.3131
   14CHL1    C3  963   6.396   4.171   6.164  0.0242  0.5861  0.5205
   14CHL1    H3  964   6.504   4.149   6.177  0.4049  2.0482 -0.0224
   14CHL1    O3  965   6.349   4.230   6.276 -0.1572  0.4293  0.0106
   14CHL1   H3'  966   6.255   4.214   6.286 -0.0066 -1.0132 -0.6424
   14CHL1    C4  967   6.388   4.278   6.050  0.1704  0.1478  0.2013
   14CHL1   H4A  968   6.288   4.325   6.059  0.7412  1.4121  0.1877
   14CHL1   H4B  969   6.462   4.358   6.072  0.3674  0.4448 -1.4409
   14CHL1    C5  970   6.399   4.226   5.910 -0.3162 -0.0467  0.0734
   14CHL1    C6  971   6.479   4.288   5.823  0.0697 -0.7112 -0.1130
   14CHL1    H6  972   6.543   4.370   5.859  1.1670 -2.7346  2.9694
   14CHL1    C7  973   6.499   4.247   5.679  0.2217 -0.0738  0.6959
   14CHL1   H7A  974   6.501   4.336   5.611 -1.2317 -0.2916  0.3350
   14CHL1   H7B  975   6.595   4.192   5.669  1.4614  1.7872  1.6963
   14CHL1    C8  976   6.375   4.155   5.639 -0.3580 -1.2966 -0.2342
   14CHL1    H8  977   6.286   4.221   5.632  0.5710  0.0006 -0.2025
   14CHL1   C14  978   6.414   4.086   5.508  0.6183  0.5879  0.0251
   14CHL1   H14  979   6.499   4.019   5.533 -1.1190 -0.8799  2.3933
   14CHL1   C15  980   6.463   4.180   5.398 -0.1531 -0.2043 -0.7472
   14CHL1  H15A  981   6.401   4.272   5.408  1.1239  0.4404  1.9870
   14CHL1  H15B  982   6.569   4.213   5.405 -0.7578  1.4549  1.7816
   14CHL1   C16  983   6.431   4.109   5.265  0.4026 -0.3719  0.4308
   14CHL1  H16A  984   6.366   4.169   5.199  0.4215  1.6262  2.1508
   14CHL1  H16B  985   6.528   4.088   5.215  0.4687  1.4558 -0.2705
   14CHL1   C17  986   6.364   3.977   5.304 -0.1576  0.3151 -0.1395
   14CHL1   H17  987   6.448   3.906   5.321 -1.4486 -1.7824 -1.8757
   14CHL1   C13  988   6.308   3.998   5.445  0.8551  0.4436  0.2669
   14CHL1   C18  989   6.174   4.085   5.418  0.4990 -0.0132  0.1111
   14CHL1  H18A  990   6.182   4.166   5.342  0.0959 -0.6305 -0.5982
   14CHL1  H18B  991   6.088   4.024   5.384 -0.6035  2.3451 -1.6354
   14CHL1  H18C  992   6.152   4.133   5.516  0.9021  0.3927  0.0089
   14CHL1   C12  993   6.286   3.876   5.544 -0.3491 -0.6977 -0.2353
   14CHL1  H12A  994   6.198   3.823   5.504 -1.8121  0.8163  0.8445
   14CHL1  H12B  995   6.373   3.807   5.551  0.3008 -0.0087 -1.1963
   14CHL1   C11  996   6.247   3.928   5.681 -0.7695 -0.5106 -0.4785
   14CHL1  H11A  997   6.143   3.966   5.673 -0.1598  1.0744 -1.2640
   14CHL1  H11B  998   6.251   3.838   5.745 -0.1769  0.5904  1.0723
   14CHL1    C9  999   6.341   4.042   5.739  0.0891 -0.9063  0.5143
   14CHL1    H9 1000   6.444   4.000   5.727  0.3199  0.4142 -4.2525
   14CHL1   C10 1001   6.314   4.099   5.875  0.1999 -0.7162 -0.2826
   14CHL1   C19 1002   6.164   4.155   5.874 -0.3932 -0.1416  0.0487
   14CHL1  H19A 1003   6.090   4.077   5.849  0.2217 -0.7756  0.1633
   14CHL1  H19B 1004   6.131   4.187   5.975 -0.1628 -3.3135  1.2570
   14CHL1  H19C 1005   6.156   4.233   5.795 -3.3172  2.2106  2.4125
   14CHL1    C1 1006   6.333   3.987   5.989  0.2322  0.3873 -1.5919
   14CHL1   H1A 1007   6.251   3.913   5.974 -0.1362  0.5080 -0.2903
   14CHL1   H1B 1008   6.435   3.944   5.977  0.4187  0.9751 -2.1571
   14CHL1    C2 1009   6.312   4.040   6.136 -0.6625 -0.2118 -0.1844
   14CHL1   H2A 1010   6.346   3.965   6.210  1.1754  0.7063 -0.0349
   14CHL1   H2B 1011   6.204   4.057   6.152 -0.3130  0.6916  1.3975
   14CHL1   C20 1012   6.278   3.919   5.188  0.1448 -0.8744  0.1734
   14CHL1   H20 1013   6.192   3.986   5.171  1.0004  0.4461  0.8411
   14CHL1   C21 1014   6.224   3.784   5.238 -0.3158  0.3696  0.2322
   14CHL1  H21A 1015   6.306   3.733   5.292  2.0601  2.3936 -1.2479
   14CHL1  H21B 1016   6.182   3.725   5.153 -2.3865 -1.6586  2.5198
   14CHL1  H21C 1017   6.141   3.799   5.310 -0.3354  0.7677  0.1302
   14CHL1   C22 1018   6.351   3.916   5.054 -0.1611 -0.4526  0.2785
   14CHL1  H22A 1019   6.420   4.001   5.042 -1.1597  0.0858 -2.3764
   14CHL1  H22B 1020   6.419   3.828   5.058  1.2987  0.6225 -0.0307
   14CHL1   C23 1021   6.271   3.928   4.921  0.1013  0.0521  0.3555
   14CHL1  H23A 1022   6.182   3.862   4.917 -0.4072  0.7477 -2.8487
   14CHL1  H23B 1023   6.245   4.035   4.908 -1.4243 -0.1373  1.4996
   14CHL1   C24 1024   6.351   3.893   4.793 -0.3210 -0.8498 -0.2889
   14CHL1  H24A 1025   6.433   3.968   4.784  1.4400 -2.4470  1.6145
   14CHL1  H24B 1026   6.411   3.801   4.806  1.6935  0.4623  0.0453
   14CHL1   C25 1027   6.279   3.895   4.655  0.0562 -1.0635 -0.2825
   14CHL1   H25 1028   6.217   3.986   4.659 -0.7551 -1.4668 -2.3528
   14CHL1   C26 1029   6.371   3.914   4.534 -0.2819  0.1694 -0.0333
   14CHL1  H26A 1030   6.429   4.008   4.547 -0.0205 -0.2123  1.8729
   14CHL1  H26B 1031   6.436   3.825   4.516 -1.1998 -0.5596  0.1894
   14CHL1  H26C 1032   6.312   3.918   4.441  1.1912 -0.6432 -1.0493
   14CHL1   C27 1033   6.185   3.774   4.642  0.1820  0.0991  0.6431
   14CHL1  H27A 1034   6.101   3.768   4.714  0.3625  0.0562  0.8503
   14CHL1  H27B 1035   6.148   3.792   4.539 -0.4925  2.0868  1.1739
   14CHL1  H27C 1036   6.234   3.675   4.649  0.1046  0.1082  1.3989
   15CHL1    C3 1037   6.723   3.900   6.140  0.3403  0.1773 -0.0234
   15CHL1    H3 1038   6.622   3.921   6.097  0.5205 -2.5624 -1.9897
   15CHL1    O3 1039   6.715   3.890   6.283  0.2434 -0.0598 -0.1193
   15CHL1   H3' 1040   6.805   3.879   6.315 -0.6192 -1.1150  2.1992
   15CHL1    C4 1041   6.751   3.762   6.078 -0.0344 -0.5523 -0.0857
   15CHL1   H4A 1042   6.848   3.721   6.114  1.2252  2.0881 -0.2094
   15CHL1   H4B 1043   6.671   3.694   6.113  1.1416 -1.6937  0.4467
   15CHL1    C5 1044   6.749   3.776   5.926 -0.6693 -0.6189 -0.3497
   15CHL1    C6 1045   6.677   3.698   5.848  0.3416 -0.0473 -0.3397
   15CHL1    H6 1046   6.609   3.626   5.898 -1.0587  1.0778 -0.5620
   15CHL1    C7 1047   6.682   3.697   5.703 -0.0527  0.3073  0.8129
   15CHL1   H7A 1048   6.687   3.594   5.661 -2.9912  1.0740 -1.7530
   15CHL1   H7B 1049   6.588   3.743   5.665 -1.5379 -3.3430 -0.4342
   15CHL1    C8 1050   6.802   3.785   5.646  0.6267  0.1313  0.2159
   15CHL1    H8 1051   6.896   3.728   5.657  0.6831  0.2638  0.4329
   15CHL1   C14 1052   6.768   3.821   5.502 -0.0818 -0.1320  0.7780
   15CHL1   H14 1053   6.680   3.888   5.512  0.3900  0.4987  0.7575
   15CHL1   C15 1054   6.726   3.715   5.404  0.7168 -0.0683  0.3008
   15CHL1  H15A 1055   6.808   3.642   5.388  0.1801 -0.1743 -2.2674
   15CHL1  H15B 1056   6.621   3.684   5.421  0.4101 -0.8614 -2.5568
   15CHL1   C16 1057   6.725   3.783   5.264  0.0559 -0.0026 -0.7777
   15CHL1  H16A 1058   6.780   3.709   5.201 -2.7528 -3.0980  0.1205
   15CHL1  H16B 1059   6.617   3.788   5.239 -0.6425 -1.9468  1.4803
   15CHL1   C17 1060   6.792   3.922   5.283  0.6186  0.5450  0.2558
   15CHL1   H17 1061   6.706   3.986   5.310 -1.3850 -1.5666 -0.8107
   15CHL1   C13 1062   6.869   3.907   5.413 -0.0447  0.1489 -0.3304
   15CHL1   C18 1063   7.003   3.831   5.397  0.5945  0.6030 -0.1964
   15CHL1  H18A 1064   7.051   3.830   5.497  3.7330  1.5226 -1.5840
   15CHL1  H18B 1065   7.002   3.729   5.354 -1.1703 -0.5723  2.3945
   15CHL1  H18C 1066   7.075   3.894   5.341  1.3298 -1.3664 -1.5866
   15CHL1   C12 1067   6.890   4.035   5.499  0.1010  0.8054  0.0365
   15CHL1  H12A 1068   6.970   4.094   5.450  0.4303  0.0170 -0.3981
   15CHL1  H12B 1069   6.795   4.093   5.493  2.0389  4.0799 -2.3430
   15CHL1   C11 1070   6.923   4.010   5.651  0.1108  0.2866  0.1636
   15CHL1  H11A 1071   7.027   3.972   5.651  0.8906  2.3160 -0.0312
   15CHL1  H11B 1072   6.916   4.110   5.700 -2.7698  0.2575 -0.0093
   15CHL1    C9 1073   6.825   3.916   5.724  0.3905  0.4005 -0.2088
   15CHL1    H9 1074   6.725   3.964   5.718 -1.2231 -2.6857 -0.1846
   15CHL1   C10 1075   6.847   3.883   5.880 -0.6087  0.6934 -0.6411
   15CHL1   C19 1076   6.994   3.829   5.896  0.6668  0.5482 -0.2816
   15CHL1  H19A 1077   7.002   3.736   5.837 -2.3869  1.7623 -2.9096
   15CHL1  H19B 1078   7.071   3.904   5.868  0.2839  0.9447 -0.2877
   15CHL1  H19C 1079   7.013   3.810   6.004  0.9325  2.7141  0.1027
   15CHL1    C1 1080   6.837   4.024   5.955 -0.0909  0.2807 -0.4618
   15CHL1   H1A 1081   6.925   4.085   5.925  0.1446 -0.3892 -1.1468
   15CHL1   H1B 1082   6.739   4.067   5.925 -1.1434 -0.2842  1.9211
   15CHL1    C2 1083   6.835   3.999   6.103  0.3562 -0.0297  0.6823
   15CHL1   H2A 1084   6.822   4.099   6.150  2.0936 -0.6957  2.6896
   15CHL1   H2B 1085   6.929   3.957   6.143 -0.4876 -1.9176  0.8088
   15CHL1   C20 1086   6.857   3.968   5.152  0.0431  0.2216  0.1874
   15CHL1   H20 1087   6.938   3.894   5.132 -0.0743  0.0413  0.3714
   15CHL1   C21 1088   6.921   4.102   5.178  0.7029 -0.0948 -0.4993
   15CHL1  H21A 1089   7.001   4.105   5.255  1.1308  1.3978 -0.9772
   15CHL1  H21B 1090   6.843   4.170   5.219  0.4953 -1.7385  2.0749
   15CHL1  H21C 1091   6.976   4.143   5.091  1.7224  0.1102  0.2323
   15CHL1   C22 1092   6.772   3.973   5.024  0.3885 -0.7732  0.4742
   15CHL1  H22A 1093   6.719   3.875   5.016  0.2659 -0.8705  2.1263
   15CHL1  H22B 1094   6.691   4.048   5.039  0.7423 -0.1006 -0.8474
   15CHL1   C23 1095   6.852   3.987   4.899  0.0660 -0.0548  0.4626
   15CHL1  H23A 1096   6.896   4.088   4.912  0.6548 -0.0430 -1.3063
   15CHL1  H23B 1097   6.923   3.902   4.904  1.2573  0.9776  2.0010
   15CHL1   C24 1098   6.783   3.996   4.762 -0.1007  0.1538  0.2485
   15CHL1  H24A 1099   6.759   3.896   4.719 -1.2982  1.0747 -1.3565
   15CHL1  H24B 1100   6.689   4.053   4.776 -1.2588 -1.5419 -0.2572
   15CHL1   C25 1101   6.862   4.057   4.645  0.3766  1.2267  0.3803
   15CHL1   H25 1102   6.900   4.150   4.692  1.6775  0.0056  1.9178
   15CHL1   C26 1103   6.990   3.970   4.628 -0.5648 -0.2695  0.2205
   15CHL1  H26A 1104   6.976   3.865   4.593 -1.9428  0.5477 -1.8980
   15CHL1  H26B 1105   7.056   4.016   4.551  2.1250 -1.2861  1.7878
   15CHL1  H26C 1106   7.055   3.968   4.719  0.2697 -1.1616 -0.3668
   15CHL1   C27 1107   6.780   4.071   4.515 -0.3107  0.4077 -0.3237
   15CHL1  H27A 1108   6.725   3.974   4.509 -1.6231  1.1474 -0.5446
   15CHL1  H27B 1109   6.710   4.156   4.525 -0.2828  0.3202  0.8249
   15CHL1  H27C 1110   6.853   4.092   4.434 -1.0010  0.5579 -0.9138
   16CHL1    C3 1111   3.713   2.797   6.638 -0.2603  0.6261 -0.6036
   16CHL1    H3 1112   3.712   2.699   6.689 -2.0405  0.3156 -1.1554
   16CHL1    O3 1113   3.643   2.876   6.735  0.0654 -0.0365 -0.0766
   16CHL1   H3' 1114   3.677   2.963   6.713  2.3743 -0.5270  1.1937
   16CHL1    C4 1115   3.852   2.851   6.622  0.3245 -0.6115 -0.1606
   16CHL1   H4A 1116   3.866   2.959   6.602  0.7549 -1.0737 -2.7652
   16CHL1   H4B 1117   3.903   2.833   6.719  0.3824 -0.8487 -0.2331
   16CHL1    C5 1118   3.928   2.775   6.511 -0.4781 -0.0692  0.1419
   16CHL1    C6 1119   4.045   2.724   6.541 -0.2875 -0.1101  0.6157
   16CHL1    H6 1120   4.089   2.754   6.638 -0.3141 -1.3962  1.0388
   16CHL1    C7 1121   4.140   2.657   6.441  1.2247 -0.4874 -0.3184
   16CHL1   H7A 1122   4.247   2.684   6.455  0.4966  3.1283 -0.7413
   16CHL1   H7B 1123   4.122   2.548   6.448  0.1118 -0.4653 -2.3292
   16CHL1    C8 1124   4.090   2.709   6.302  0.2534  0.0036  0.5374
   16CHL1    H8 1125   4.106   2.818   6.290  0.2631 -0.1019 -0.5075
   16CHL1   C14 1126   4.166   2.643   6.187 -0.2348 -0.0862  0.6534
   16CHL1   H14 1127   4.148   2.534   6.194 -0.2400 -0.1843 -0.6843
   16CHL1   C15 1128   4.324   2.657   6.194 -0.5409 -0.2155  0.1730
   16CHL1  H15A 1129   4.348   2.760   6.228 -1.5246 -0.0960  0.5409
   16CHL1  H15B 1130   4.366   2.587   6.270 -1.5846  0.9456  1.9040
   16CHL1   C16 1131   4.364   2.627   6.042 -0.2175  0.1402 -0.0279
   16CHL1  H16A 1132   4.426   2.714   6.010 -1.1047 -0.1752 -2.9334
   16CHL1  H16B 1133   4.422   2.533   6.034  1.9757  1.1554  2.4445
   16CHL1   C17 1134   4.228   2.614   5.960  0.3716  0.4123  0.1099
   16CHL1   H17 1135   4.211   2.505   5.955 -0.2095  0.5432 -3.4901
   16CHL1   C13 1136   4.115   2.676   6.045 -0.6477  0.4252 -0.3480
   16CHL1   C18 1137   4.121   2.827   6.031  0.5746 -0.2357  0.0109
   16CHL1  H18A 1138   4.214   2.869   6.074  0.6096 -1.0914  0.7726
   16CHL1  H18B 1139   4.120   2.866   5.926 -0.3001 -2.0648 -0.7003
   16CHL1  H18C 1140   4.041   2.880   6.088 -0.7289 -1.4289 -0.6285
   16CHL1   C12 1141   3.971   2.621   6.034 -0.1252  0.5525 -0.4518
   16CHL1  H12A 1142   3.927   2.630   5.932  0.5882  0.0769 -0.8069
   16CHL1  H12B 1143   3.971   2.511   6.048  0.8167  0.4668 -1.0105
   16CHL1   C11 1144   3.883   2.674   6.137 -0.7817 -0.0703 -0.3148
   16CHL1  H11A 1145   3.872   2.779   6.101 -0.1833 -0.4783 -1.7634
   16CHL1  H11B 1146   3.786   2.620   6.139  0.6466 -2.8178 -0.0653
   16CHL1    C9 1147   3.941   2.678   6.284  0.0043 -0.1716  0.2686
   16CHL1    H9 1148   3.923   2.572   6.311 -0.0732  0.0938  1.2942
   16CHL1   C10 1149   3.858   2.759   6.381 -0.5097  0.4333  0.7928
   16CHL1   C19 1150   3.838   2.903   6.319  0.0821  0.2942 -0.2357
   16CHL1  H19A 1151   3.758   2.911   6.243  0.6244 -1.1762 -1.0059
   16CHL1  H19B 1152   3.814   2.974   6.401  0.1636 -0.3326  0.3430
   16CHL1  H19C 1153   3.929   2.938   6.266 -0.6344  1.4758 -0.7090
   16CHL1    C1 1154   3.712   2.704   6.412 -0.3237  0.1054  0.1100
   16CHL1   H1A 1155   3.657   2.683   6.318 -1.0895  1.3103  0.2658
   16CHL1   H1B 1156   3.727   2.606   6.461  1.7727  1.2860  2.0527
   16CHL1    C2 1157   3.630   2.790   6.513 -1.0367  0.7978  0.8283
   16CHL1   H2A 1158   3.535   2.740   6.540 -1.7032  1.9823  0.7463
   16CHL1   H2B 1159   3.611   2.894   6.479 -0.2548  0.4111 -0.8860
   16CHL1   C20 1160   4.256   2.655   5.821 -0.1925 -0.2119 -0.2844
   16CHL1   H20 1161   4.285   2.762   5.828  0.4360 -0.3718 -0.4045
   16CHL1   C21 1162   4.125   2.639   5.740  0.2675  0.5878 -0.4003
   16CHL1  H21A 1163   4.110   2.530   5.733  0.0603  0.5935 -0.0731
   16CHL1  H21B 1164   4.128   2.672   5.634 -1.8310 -0.4058 -0.8188
   16CHL1  H21C 1165   4.043   2.702   5.781  0.2054 -0.2288  0.7928
   16CHL1   C22 1166   4.364   2.573   5.746  0.5499 -0.6381  0.1296
   16CHL1  H22A 1167   4.456   2.568   5.808  1.6992  1.1753 -1.3263
   16CHL1  H22B 1168   4.330   2.471   5.720  0.3593 -0.5113 -0.1164
   16CHL1   C23 1169   4.413   2.642   5.616 -0.2112 -0.2879 -0.6473
   16CHL1  H23A 1170   4.331   2.669   5.546 -0.6253  1.0059  0.2990
   16CHL1  H23B 1171   4.456   2.737   5.654 -0.4973 -0.8208  1.0936
   16CHL1   C24 1172   4.511   2.552   5.537 -0.1470  0.5384 -0.2828
   16CHL1  H24A 1173   4.601   2.534   5.601 -0.8359  0.3211  0.6444
   16CHL1  H24B 1174   4.459   2.455   5.523  2.4503 -0.6738 -2.4966
   16CHL1   C25 1175   4.564   2.602   5.403 -0.0529  0.2286 -0.6148
   16CHL1   H25 1176   4.618   2.517   5.356  0.0022  1.0861 -2.2004
   16CHL1   C26 1177   4.460   2.652   5.300 -0.4764  0.0043  0.0031
   16CHL1  H26A 1178   4.520   2.670   5.208  2.2791 -2.9341  1.0527
   16CHL1  H26B 1179   4.372   2.589   5.276 -0.1073 -0.8223  0.7982
   16CHL1  H26C 1180   4.414   2.750   5.327  0.9486  0.1947  1.8710
   16CHL1   C27 1181   4.673   2.708   5.421 -0.7303 -0.4363  0.2338
   16CHL1  H27A 1182   4.740   2.676   5.503  0.3589 -1.5862 -1.0687
   16CHL1  H27B 1183   4.725   2.703   5.322  0.1790  2.3488  0.4689
   16CHL1  H27C 1184   4.631   2.810   5.435  3.3420  1.4108  0.4694
   17CHL1    C3 1185   4.718   4.997   6.082 -0.2762 -0.9225  0.7867
   17CHL1    H3 1186   4.756   4.894   6.070  0.3877 -0.3935 -2.8631
   17CHL1    O3 1187   4.651   5.009   6.208  0.2964  0.3255  0.2551
   17CHL1   H3' 1188   4.570   5.057   6.189  0.1818 -0.5012 -1.6042
   17CHL1    C4 1189   4.837   5.097   6.064  0.7251  0.0385  0.0898
   17CHL1   H4A 1190   4.791   5.197   6.079 -0.0172 -0.2400 -0.2754
   17CHL1   H4B 1191   4.910   5.084   6.147 -0.1138  0.0593  0.8403
   17CHL1    C5 1192   4.898   5.081   5.924  0.0861  0.2851  0.0799
   17CHL1    C6 1193   5.025   5.046   5.908 -0.1696 -0.6625 -0.1137
   17CHL1    H6 1194   5.090   5.049   5.997  0.0057 -0.6850 -0.2398
   17CHL1    C7 1195   5.101   5.038   5.783  0.6898  1.0175  0.0466
   17CHL1   H7A 1196   5.199   5.092   5.781  1.7486 -0.8328 -1.1991
   17CHL1   H7B 1197   5.127   4.935   5.749 -2.2150  0.6851 -1.4554
   17CHL1    C8 1198   5.010   5.101   5.672 -0.1084  0.9981  0.7077
   17CHL1    H8 1199   5.009   5.212   5.682  0.7272  1.2022 -1.0944
   17CHL1   C14 1200   5.059   5.059   5.531  0.2543  0.0150  1.0804
   17CHL1   H14 1201   5.045   4.950   5.515  0.8877  0.2075 -1.0606
   17CHL1   C15 1202   5.211   5.083   5.497  0.5665 -0.5056  0.0428
   17CHL1  H15A 1203   5.237   5.186   5.529 -0.1846 -0.6755  1.2845
   17CHL1  H15B 1204   5.274   5.010   5.552  0.5565 -1.6832 -1.4539
   17CHL1   C16 1205   5.218   5.057   5.344 -0.5353  0.1013 -0.0426
   17CHL1  H16A 1206   5.285   5.137   5.305  0.9889 -1.6596 -1.1830
   17CHL1  H16B 1207   5.257   4.954   5.329 -1.7787 -0.4263  0.1947
   17CHL1   C17 1208   5.068   5.070   5.295  0.2284 -0.1342 -0.3787
   17CHL1   H17 1209   5.027   4.967   5.299 -0.4370  0.1533  0.2614
   17CHL1   C13 1210   4.979   5.127   5.416  0.0327 -0.1434  0.3313
   17CHL1   C18 1211   4.994   5.282   5.428 -0.1763  0.3889  0.3209
   17CHL1  H18A 1212   5.096   5.321   5.408 -0.4435  1.0647  0.2645
   17CHL1  H18B 1213   4.923   5.329   5.357 -1.3168 -1.8189 -0.0723
   17CHL1  H18C 1214   4.969   5.322   5.528 -1.2806 -0.4381  0.3958
   17CHL1   C12 1215   4.836   5.080   5.420  0.4216 -0.5105 -0.0168
   17CHL1  H12A 1216   4.783   5.138   5.342 -3.8241 -0.3085  2.6608
   17CHL1  H12B 1217   4.833   4.972   5.394 -2.2492 -0.6202  0.4696
   17CHL1   C11 1218   4.773   5.105   5.559 -0.6417 -0.0104  0.3592
   17CHL1  H11A 1219   4.755   5.215   5.556 -1.9734 -0.2041  0.8151
   17CHL1  H11B 1220   4.670   5.068   5.541 -1.6695  2.5154  0.5323
   17CHL1    C9 1221   4.859   5.059   5.680 -0.3376  0.1299 -0.8086
   17CHL1    H9 1222   4.861   4.949   5.671 -0.2952  0.1493 -1.0437
   17CHL1   C10 1223   4.799   5.093   5.813  0.8785 -0.1418  0.1048
   17CHL1   C19 1224   4.761   5.245   5.808  0.8926  0.0742 -0.1098
   17CHL1  H19A 1225   4.824   5.309   5.743 -0.4179  2.0840  0.5134
   17CHL1  H19B 1226   4.658   5.254   5.766  0.4025 -0.5997  0.8950
   17CHL1  H19C 1227   4.756   5.299   5.905  0.6659 -0.5456  0.2314
   17CHL1    C1 1228   4.673   4.997   5.837 -0.2421  0.7423 -0.0761
   17CHL1   H1A 1229   4.597   5.016   5.758 -0.6108 -0.6300 -0.0771
   17CHL1   H1B 1230   4.694   4.888   5.826 -1.3292  0.4416  0.7391
   17CHL1    C2 1231   4.610   5.018   5.975  1.1091 -0.3303 -0.2900
   17CHL1   H2A 1232   4.535   4.937   5.986  0.4612  0.2483 -0.3747
   17CHL1   H2B 1233   4.556   5.114   5.963 -0.7613 -1.2987 -0.0691
   17CHL1   C20 1234   5.047   5.127   5.156  0.2846  0.0421  0.1003
   17CHL1   H20 1235   4.945   5.169   5.146 -0.6625 -1.9176  1.0497
   17CHL1   C21 1236   5.061   5.004   5.070 -0.4962  0.1480  0.3276
   17CHL1  H21A 1237   5.149   4.944   5.102 -0.9997 -0.3267  0.8231
   17CHL1  H21B 1238   5.071   5.037   4.964 -0.2784  3.1952  1.1867
   17CHL1  H21C 1239   4.974   4.938   5.084  0.4033 -0.6821  2.3711
   17CHL1   C22 1240   5.144   5.237   5.112  0.5077  0.0073  0.4704
   17CHL1  H22A 1241   5.146   5.314   5.192  2.3169 -1.1659  1.6287
   17CHL1  H22B 1242   5.243   5.194   5.087 -0.2972 -0.2587 -2.6912
   17CHL1   C23 1243   5.111   5.308   4.978  0.2155  0.5240 -0.3982
   17CHL1  H23A 1244   5.115   5.240   4.890 -0.4693 -1.1434  0.8026
   17CHL1  H23B 1245   5.019   5.369   4.982  0.0794  0.3611 -1.0003
   17CHL1   C24 1246   5.226   5.410   4.948  0.0781  0.2162  0.6836
   17CHL1  H24A 1247   5.235   5.481   5.033 -1.8028 -0.6414  1.6801
   17CHL1  H24B 1248   5.323   5.361   4.928 -0.3605 -0.5050  0.2464
   17CHL1   C25 1249   5.192   5.489   4.817 -0.4960 -0.3318 -0.6049
   17CHL1   H25 1250   5.114   5.564   4.842  1.9075  2.4466 -1.0405
   17CHL1   C26 1251   5.310   5.562   4.760 -0.1941  0.2145 -0.4808
   17CHL1  H26A 1252   5.357   5.625   4.838  0.6720 -1.3251  0.2812
   17CHL1  H26B 1253   5.394   5.495   4.732 -2.1754 -2.7976  0.2963
   17CHL1  H26C 1254   5.282   5.616   4.667  1.7003  0.1243 -1.1460
   17CHL1   C27 1255   5.124   5.400   4.703 -0.6116  0.3417  0.3205
   17CHL1  H27A 1256   5.193   5.318   4.673 -0.2948  0.6789  0.1123
   17CHL1  H27B 1257   5.029   5.351   4.734  0.4213 -1.7658  0.3636
   17CHL1  H27C 1258   5.099   5.458   4.612 -1.3718 -0.7313 -0.1827
   18CHL1    C3 1259   4.405   4.754   5.719  0.7782 -0.4956 -0.1437
   18CHL1    H3 1260   4.424   4.863   5.731 -0.9519 -0.2260  0.3006
   18CHL1    O3 1261   4.373   4.690   5.838  0.0037  0.0331 -0.0173
   18CHL1   H3' 1262   4.284   4.719   5.859  0.2982  0.4541  0.6840
   18CHL1    C4 1263   4.281   4.740   5.627 -0.2123  0.3120 -0.1119
   18CHL1   H4A 1264   4.250   4.634   5.617  1.4033 -0.2554  0.4780
   18CHL1   H4B 1265   4.194   4.793   5.671  1.8416  3.5425  0.4424
   18CHL1    C5 1266   4.306   4.792   5.485  0.5953 -1.0309 -0.8687
   18CHL1    C6 1267   4.222   4.874   5.429  0.1304  0.6105 -0.3984
   18CHL1    H6 1268   4.126   4.880   5.484  0.6958 -0.6949  0.8168
   18CHL1    C7 1269   4.235   4.934   5.289 -0.0847  0.3729  0.1896
   18CHL1   H7A 1270   4.139   4.923   5.234 -0.0765  1.0254  0.0356
   18CHL1   H7B 1271   4.257   5.042   5.305  1.9284  0.0575 -0.2052
   18CHL1    C8 1272   4.355   4.878   5.211 -0.6600  0.2649 -0.1307
   18CHL1    H8 1273   4.328   4.786   5.156  1.5910 -1.1742  1.0383
   18CHL1   C14 1274   4.414   4.985   5.118  1.4303 -0.0805  0.2931
   18CHL1   H14 1275   4.437   5.063   5.194 -2.0473 -0.0894  1.5804
   18CHL1   C15 1276   4.310   5.063   5.027 -0.0377 -0.0687  0.3759
   18CHL1  H15A 1277   4.252   4.984   4.974  1.2608 -2.7417  2.6477
   18CHL1  H15B 1278   4.241   5.140   5.067  3.3462  4.0106 -0.9089
   18CHL1   C16 1279   4.395   5.142   4.939  0.3226 -0.4727  0.0896
   18CHL1  H16A 1280   4.352   5.122   4.839 -3.7222 -1.2035  1.7908
   18CHL1  H16B 1281   4.396   5.252   4.956  0.3238 -0.2070 -1.4994
   18CHL1   C17 1282   4.544   5.095   4.963  0.7040 -1.0515 -0.3456
   18CHL1   H17 1283   4.590   5.167   5.035 -1.3313 -0.9206  0.8897
   18CHL1   C13 1284   4.529   4.960   5.032  0.0069  0.5091  0.3183
   18CHL1   C18 1285   4.499   4.845   4.932 -0.3085  0.3249  0.6327
   18CHL1  H18A 1286   4.582   4.842   4.858  0.0114 -2.1616  1.0266
   18CHL1  H18B 1287   4.510   4.752   4.992  1.9434  0.2263  0.1709
   18CHL1  H18C 1288   4.405   4.852   4.874  1.0817  1.9351 -1.6110
   18CHL1   C12 1289   4.642   4.911   5.129 -1.1976  0.1128 -0.1225
   18CHL1  H12A 1290   4.722   4.862   5.069  0.8679 -0.1952  2.6510
   18CHL1  H12B 1291   4.694   4.999   5.173  0.5124  0.1917 -2.1319
   18CHL1   C11 1292   4.606   4.804   5.228  0.2754 -0.7026  0.4152
   18CHL1  H11A 1293   4.602   4.704   5.180  0.6557 -0.0346 -1.0536
   18CHL1  H11B 1294   4.687   4.785   5.302  0.5292 -0.4541  0.2028
   18CHL1    C9 1295   4.473   4.842   5.308 -0.0641  0.0720  0.4026
   18CHL1    H9 1296   4.511   4.936   5.354  3.5410 -1.8631  1.7763
   18CHL1   C10 1297   4.441   4.745   5.425 -0.6914 -0.3505 -0.6363
   18CHL1   C19 1298   4.431   4.604   5.377 -0.1755  0.1253 -0.0415
   18CHL1  H19A 1299   4.340   4.594   5.314 -0.7271  0.9694  0.6134
   18CHL1  H19B 1300   4.524   4.570   5.327 -0.4934 -0.2094 -0.4198
   18CHL1  H19C 1301   4.407   4.537   5.462  0.4336 -0.3084 -0.2039
   18CHL1    C1 1302   4.559   4.757   5.530  0.2003 -1.1273  0.7454
   18CHL1   H1A 1303   4.660   4.729   5.494  0.5804 -0.1802  1.0438
   18CHL1   H1B 1304   4.579   4.865   5.545  1.3239 -0.4781 -3.9284
   18CHL1    C2 1305   4.529   4.685   5.662 -0.4526 -0.2143 -0.2696
   18CHL1   H2A 1306   4.610   4.710   5.734 -1.6913  1.5971  0.5726
   18CHL1   H2B 1307   4.531   4.574   5.667  1.0884 -0.1523  2.5442
   18CHL1   C20 1308   4.628   5.110   4.830 -1.3364  0.8056  0.4391
   18CHL1   H20 1309   4.600   5.033   4.755  3.4808  0.7757 -1.7625
   18CHL1   C21 1310   4.778   5.085   4.858  1.1108 -0.0535 -0.1528
   18CHL1  H21A 1311   4.811   5.161   4.932  1.8899 -0.6711  0.1524
   18CHL1  H21B 1312   4.844   5.101   4.771 -0.5338 -0.5865 -1.5487
   18CHL1  H21C 1313   4.785   4.983   4.901 -1.0352 -0.2099 -0.0408
   18CHL1   C22 1314   4.617   5.252   4.759  0.6244 -0.1963 -0.7403
   18CHL1  H22A 1315   4.676   5.228   4.668  0.4593 -0.4453 -0.7855
   18CHL1  H22B 1316   4.513   5.271   4.725  0.9391  1.0042 -1.0652
   18CHL1   C23 1317   4.660   5.373   4.832 -0.4912  0.5781 -0.3979
   18CHL1  H23A 1318   4.585   5.418   4.900  0.7959  1.1710  0.6781
   18CHL1  H23B 1319   4.743   5.345   4.900 -0.8743 -0.6892 -0.4334
   18CHL1   C24 1320   4.717   5.478   4.730 -0.3358 -0.2356 -0.2033
   18CHL1  H24A 1321   4.823   5.455   4.705  0.2514  1.6014  0.4129
   18CHL1  H24B 1322   4.639   5.475   4.651 -0.1676  1.0305 -0.4528
   18CHL1   C25 1323   4.718   5.630   4.764  0.6513  0.2032 -0.4399
   18CHL1   H25 1324   4.622   5.652   4.816  0.7904 -0.8786  0.3134
   18CHL1   C26 1325   4.815   5.669   4.881 -0.1022 -0.4316 -0.7056
   18CHL1  H26A 1326   4.792   5.592   4.957  0.0326  1.2280  1.0978
   18CHL1  H26B 1327   4.919   5.655   4.845 -0.4490 -2.4663 -1.0508
   18CHL1  H26C 1328   4.788   5.770   4.920 -2.0754 -1.5373  1.0255
   18CHL1   C27 1329   4.731   5.709   4.636 -0.2887  0.4051  0.5829
   18CHL1  H27A 1330   4.667   5.678   4.550  0.9393  0.8919 -0.5342
   18CHL1  H27B 1331   4.713   5.818   4.643 -1.2702  0.5426 -2.4066
   18CHL1  H27C 1332   4.833   5.699   4.593 -1.0176 -1.6481 -0.8418
   19CHL1    C3 1333   5.851   3.812   5.553 -0.4671 -0.3179 -0.1505
   19CHL1    H3 1334   5.958   3.842   5.548 -0.4036 -0.7615 -1.9801
   19CHL1    O3 1335   5.810   3.861   5.678  0.2881 -0.3109  0.1794
   19CHL1   H3' 1336   5.745   3.930   5.661  1.6434  0.5622 -1.8629
   19CHL1    C4 1337   5.765   3.890   5.452  0.7174 -1.3624  0.1866
   19CHL1   H4A 1338   5.660   3.865   5.477 -0.0298  0.5729 -0.8297
   19CHL1   H4B 1339   5.780   3.999   5.462  0.5501 -1.4762  1.9962
   19CHL1    C5 1340   5.807   3.842   5.316 -0.4151 -0.3716  0.0270
   19CHL1    C6 1341   5.850   3.924   5.218 -0.0722 -0.1150 -0.1149
   19CHL1    H6 1342   5.858   4.032   5.238  2.4141 -0.0886 -0.8595
   19CHL1    C7 1343   5.867   3.881   5.073  0.6866 -0.3733  0.6946
   19CHL1   H7A 1344   5.819   3.959   5.010  0.1690  0.6056  2.2458
   19CHL1   H7B 1345   5.974   3.874   5.043  0.9240  0.2834  1.3678
   19CHL1    C8 1346   5.791   3.747   5.039 -0.1359 -0.2739  0.2556
   19CHL1    H8 1347   5.684   3.776   5.045 -0.5934 -2.0289  1.3754
   19CHL1   C14 1348   5.834   3.700   4.907  0.1626 -0.5923  0.3162
   19CHL1   H14 1349   5.945   3.696   4.902  0.1760 -0.4153  0.4913
   19CHL1   C15 1350   5.808   3.788   4.786  0.1607  0.5849  0.0043
   19CHL1  H15A 1351   5.713   3.843   4.803  0.2208  1.1878 -1.4039
   19CHL1  H15B 1352   5.891   3.857   4.757  2.0763 -1.8136 -0.5396
   19CHL1   C16 1353   5.808   3.692   4.663  0.5314  0.2899  0.7873
   19CHL1  H16A 1354   5.717   3.704   4.601  2.6769  1.4198 -2.4052
   19CHL1  H16B 1355   5.895   3.722   4.601  0.1009 -2.1122 -1.0969
   19CHL1   C17 1356   5.833   3.549   4.720  0.0012 -0.1541 -0.2398
   19CHL1   H17 1357   5.943   3.548   4.732 -0.0990  0.6865  0.9386
   19CHL1   C13 1358   5.785   3.560   4.872 -0.1915  0.3386 -0.6038
   19CHL1   C18 1359   5.626   3.570   4.878 -0.5912  0.7616  1.6513
   19CHL1  H18A 1360   5.581   3.469   4.868  0.2428  0.5966 -1.8723
   19CHL1  H18B 1361   5.586   3.610   4.974 -0.7320 -1.7401  2.6977
   19CHL1  H18C 1362   5.585   3.642   4.804  0.3349 -0.7116 -0.4014
   19CHL1   C12 1363   5.837   3.455   4.969  0.0118 -0.5854 -0.6201
   19CHL1  H12A 1364   5.800   3.352   4.953  0.0615 -0.6343 -0.4236
   19CHL1  H12B 1365   5.947   3.461   4.956  0.0033  0.4685 -0.3074
   19CHL1   C11 1366   5.804   3.500   5.113 -0.2080 -0.6494 -0.0697
   19CHL1  H11A 1367   5.695   3.476   5.111 -0.1741 -0.8636  0.4969
   19CHL1  H11B 1368   5.852   3.432   5.186  0.3806 -3.0088 -2.5061
   19CHL1    C9 1369   5.839   3.645   5.145  0.4509 -0.9939 -0.3398
   19CHL1    H9 1370   5.949   3.644   5.134  0.5675  0.0141  0.5863
   19CHL1   C10 1371   5.793   3.687   5.290  0.3069  0.1172  0.1505
   19CHL1   C19 1372   5.640   3.642   5.300 -0.4935  0.1806  0.4467
   19CHL1  H19A 1373   5.604   3.671   5.401 -0.6076  0.4510  0.3282
   19CHL1  H19B 1374   5.583   3.682   5.214 -0.8832  1.1068  1.1262
   19CHL1  H19C 1375   5.627   3.532   5.310  1.9376 -0.3120 -0.9100
   19CHL1    C1 1376   5.880   3.615   5.397  0.2016  0.9988  0.1640
   19CHL1   H1A 1377   5.872   3.505   5.389 -2.4284  0.9519  2.2040
   19CHL1   H1B 1378   5.988   3.640   5.382  0.9201 -0.3960  2.4715
   19CHL1    C2 1379   5.845   3.662   5.544  0.7658 -0.4146  0.1128
   19CHL1   H2A 1380   5.922   3.617   5.610  0.2696  1.3532  1.9735
   19CHL1   H2B 1381   5.748   3.623   5.582  0.6234 -1.3205 -1.0985
   19CHL1   C20 1382   5.793   3.432   4.630  0.2528 -0.7490 -0.7291
   19CHL1   H20 1383   5.684   3.414   4.635 -0.2372  1.9375 -0.0798
   19CHL1   C21 1384   5.872   3.306   4.668  0.3536  0.2228  0.0011
   19CHL1  H21A 1385   5.976   3.326   4.703  1.0428 -0.7054 -1.3668
   19CHL1  H21B 1386   5.877   3.233   4.584  0.4959 -0.3475  0.5040
   19CHL1  H21C 1387   5.827   3.267   4.761  1.9793  3.1373  2.1713
   19CHL1   C22 1388   5.829   3.462   4.476 -0.5305  0.1487 -0.2531
   19CHL1  H22A 1389   5.808   3.371   4.415  0.7668 -0.8224  0.6828
   19CHL1  H22B 1390   5.763   3.547   4.452 -0.3771  0.1884 -0.5376
   19CHL1   C23 1391   5.978   3.483   4.438  0.3297  0.1898 -0.0865
   19CHL1  H23A 1392   6.005   3.575   4.493  0.0965 -0.1050  0.5226
   19CHL1  H23B 1393   6.030   3.391   4.472 -0.7996 -0.2648  0.4459
   19CHL1   C24 1394   6.032   3.506   4.296 -0.0163  0.0122  0.2451
   19CHL1  H24A 1395   6.020   3.411   4.241  0.6617 -0.5981  1.1366
   19CHL1  H24B 1396   5.972   3.582   4.240  1.2562  0.2273 -0.8942
   19CHL1   C25 1397   6.181   3.542   4.279 -0.3810  0.0904 -0.5048
   19CHL1   H25 1398   6.189   3.650   4.303 -0.9516 -0.3824  2.1211
   19CHL1   C26 1399   6.271   3.466   4.375 -0.5569 -0.4519 -0.5066
   19CHL1  H26A 1400   6.374   3.486   4.341  0.5038  0.2949  2.7716
   19CHL1  H26B 1401   6.281   3.496   4.482  4.4830 -2.1450 -0.2651
   19CHL1  H26C 1402   6.238   3.360   4.368  0.6129 -0.9011  0.5306
   19CHL1   C27 1403   6.216   3.529   4.128  0.3606  0.5746 -0.3561
   19CHL1  H27A 1404   6.156   3.600   4.067 -1.2983  1.7193  2.4650
   19CHL1  H27B 1405   6.321   3.563   4.110  0.2800  0.8554 -0.2927
   19CHL1  H27C 1406   6.193   3.424   4.098 -2.4014  1.2046 -0.6528
   20CHL1    C3 1407   5.316   0.356   6.573  0.0073  0.0906 -0.3303
   20CHL1    H3 1408   5.337   0.257   6.525  0.6690 -0.5418  1.2120
   20CHL1    O3 1409   5.271   0.330   6.710 -0.4691 -0.2898  0.9765
   20CHL1   H3' 1410   5.242   0.239   6.696  1.0385 -0.9104  1.5736
   20CHL1    C4 1411   5.437   0.444   6.574  0.3632 -0.5687  0.3141
   20CHL1   H4A 1412   5.435   0.531   6.643 -0.0451 -1.5833  1.6151
   20CHL1   H4B 1413   5.514   0.381   6.623  1.8392  0.7949 -0.1389
   20CHL1    C5 1414   5.475   0.473   6.431 -0.0490 -0.3365  0.5075
   20CHL1    C6 1415   5.592   0.446   6.370  0.3616  0.0933 -1.0477
   20CHL1    H6 1416   5.669   0.391   6.426 -0.4562 -0.7676 -0.7362
   20CHL1    C7 1417   5.625   0.502   6.241  0.2208 -0.5130 -0.3197
   20CHL1   H7A 1418   5.723   0.554   6.251  2.1546 -3.8190 -0.5439
   20CHL1   H7B 1419   5.632   0.412   6.177 -2.0858 -3.5373  3.3118
   20CHL1    C8 1420   5.528   0.601   6.168 -0.5488 -0.3832  0.4694
   20CHL1    H8 1421   5.553   0.702   6.207 -0.9541 -0.6160  1.3552
   20CHL1   C14 1422   5.550   0.594   6.021  0.7959  0.6987  0.0316
   20CHL1   H14 1423   5.520   0.492   5.990 -0.4748  0.8628  0.6309
   20CHL1   C15 1424   5.693   0.613   5.974  0.0603  0.1993  0.4167
   20CHL1  H15A 1425   5.748   0.692   6.030  1.1616 -0.6482  0.5568
   20CHL1  H15B 1426   5.761   0.527   5.988  1.2432  1.2968  1.8422
   20CHL1   C16 1427   5.675   0.658   5.824  0.0239  0.1068 -0.0692
   20CHL1  H16A 1428   5.729   0.755   5.817  0.2528  0.0891  1.1904
   20CHL1  H16B 1429   5.725   0.584   5.758  4.0850  0.0612  2.6729
   20CHL1   C17 1430   5.526   0.691   5.805  0.0668  0.3412  0.0137
   20CHL1   H17 1431   5.494   0.596   5.756  1.7656 -0.8384  1.0907
   20CHL1   C13 1432   5.468   0.700   5.948 -0.4615  0.0109 -0.8870
   20CHL1   C18 1433   5.492   0.845   6.007 -0.2817  1.0120  0.2153
   20CHL1  H18A 1434   5.432   0.912   5.942 -0.9608 -0.9848 -1.3523
   20CHL1  H18B 1435   5.457   0.856   6.111 -3.2492 -1.3525 -0.3813
   20CHL1  H18C 1436   5.599   0.873   5.995  0.3173 -1.5233 -1.2692
   20CHL1   C12 1437   5.318   0.670   5.977  0.2327 -0.3700  0.6125
   20CHL1  H12A 1438   5.257   0.752   5.933  1.6591 -0.6576 -2.1487
   20CHL1  H12B 1439   5.290   0.573   5.932  1.9823 -0.5259 -0.2249
   20CHL1   C11 1440   5.289   0.657   6.122 -0.0853  0.1955 -0.0642
   20CHL1  H11A 1441   5.306   0.759   6.165 -0.1174 -0.0379  0.5062
   20CHL1  H11B 1442   5.185   0.621   6.129 -0.2862  0.8443  0.4435
   20CHL1    C9 1443   5.386   0.561   6.199 -0.2219 -0.0467  0.2819
   20CHL1    H9 1444   5.367   0.457   6.163  0.6450 -0.9052  2.1818
   20CHL1   C10 1445   5.362   0.556   6.355 -0.8654 -0.3982 -0.1670
   20CHL1   C19 1446   5.334   0.694   6.413 -0.0466 -0.3431  0.0449
   20CHL1  H19A 1447   5.253   0.756   6.370 -1.3439 -0.8535  1.6775
   20CHL1  H19B 1448   5.318   0.688   6.523  2.5538 -1.4169  0.4483
   20CHL1  H19C 1449   5.431   0.749   6.404 -0.1848  0.0294  0.7690
   20CHL1    C1 1450   5.229   0.473   6.359  0.0598 -0.0921  0.2665
   20CHL1   H1A 1451   5.144   0.535   6.323  1.6342  2.4162  0.6155
   20CHL1   H1B 1452   5.243   0.379   6.302 -1.3193  0.0864 -0.4061
   20CHL1    C2 1453   5.194   0.423   6.502 -1.2143 -0.0283 -0.3953
   20CHL1   H2A 1454   5.111   0.352   6.486 -0.5194 -0.9881  0.1212
   20CHL1   H2B 1455   5.174   0.512   6.565  2.5564  0.9496 -0.3154
   20CHL1   C20 1456   5.496   0.805   5.702 -0.8806 -0.9761 -0.3910
   20CHL1   H20 1457   5.540   0.897   5.747 -0.0671 -0.0359 -2.8802
   20CHL1   C21 1458   5.351   0.809   5.670 -0.1481 -0.2320 -1.0159
   20CHL1  H21A 1459   5.329   0.881   5.588 -1.4262  0.9115  0.2776
   20CHL1  H21B 1460   5.308   0.865   5.756 -0.1923  1.9307 -2.3911
   20CHL1  H21C 1461   5.313   0.708   5.646 -1.9336 -0.1709  1.1945
   20CHL1   C22 1462   5.577   0.798   5.575 -0.1079 -0.1013 -0.0908
   20CHL1  H22A 1463   5.564   0.896   5.524 -1.3926 -0.9439 -1.4701
   20CHL1  H22B 1464   5.686   0.795   5.594 -0.5382 -1.6132  2.7165
   20CHL1   C23 1465   5.533   0.687   5.471 -0.5448 -0.2889 -0.1056
   20CHL1  H23A 1466   5.511   0.596   5.530 -3.4030 -0.0174 -0.6346
   20CHL1  H23B 1467   5.438   0.715   5.421 -2.1424  0.0988  2.9324
   20CHL1   C24 1468   5.633   0.661   5.358  0.7498 -0.0252 -0.4843
   20CHL1  H24A 1469   5.720   0.616   5.409  0.7318 -0.3389 -0.7271
   20CHL1  H24B 1470   5.583   0.578   5.304  0.6025  0.5624 -1.2695
   20CHL1   C25 1471   5.652   0.784   5.269 -0.3393  0.5061  0.6612
   20CHL1   H25 1472   5.670   0.871   5.336 -1.3383  1.6509 -0.4935
   20CHL1   C26 1473   5.787   0.783   5.186 -0.3061  0.0316 -0.9914
   20CHL1  H26A 1474   5.784   0.725   5.091 -0.7760 -0.3970 -0.7121
   20CHL1  H26B 1475   5.805   0.889   5.154  0.1835  0.2088 -0.1585
   20CHL1  H26C 1476   5.862   0.743   5.257 -0.6584 -0.1972 -0.7486
   20CHL1   C27 1477   5.522   0.833   5.191  0.0196 -0.2632 -0.1214
   20CHL1  H27A 1478   5.542   0.933   5.148  0.9552 -1.2973 -2.2463
   20CHL1  H27B 1479   5.512   0.757   5.110  0.1870  0.4912 -0.8718
   20CHL1  H27C 1480   5.435   0.839   5.260  0.6648  3.2260  0.5713
   21CHL1    C3 1481   2.639   6.139   5.882  0.2197  0.3039 -0.0716
   21CHL1    H3 1482   2.644   6.242   5.922  0.8929 -0.1211  0.9908
   21CHL1    O3 1483   2.712   6.062   5.980  0.1122  0.0996 -0.2122
   21CHL1   H3' 1484   2.645   6.002   6.015 -1.2532  1.3823 -0.5219
   21CHL1    C4 1485   2.494   6.096   5.871 -0.5482 -0.3362  0.2459
   21CHL1   H4A 1486   2.490   5.989   5.840 -0.6223 -0.2137 -0.1768
   21CHL1   H4B 1487   2.447   6.106   5.971  1.7758 -2.0854  1.6115
   21CHL1    C5 1488   2.414   6.178   5.773  0.1331 -0.7881 -0.8628
   21CHL1    C6 1489   2.295   6.241   5.800 -0.4765  0.4973  0.2746
   21CHL1    H6 1490   2.253   6.227   5.900 -1.2158 -3.8987 -0.4458
   21CHL1    C7 1491   2.198   6.302   5.696  0.5598  0.0055 -0.3636
   21CHL1   H7A 1492   2.096   6.271   5.725 -0.2103  2.3885 -0.3276
   21CHL1   H7B 1493   2.188   6.408   5.729 -3.2050 -0.2041 -0.4747
   21CHL1    C8 1494   2.240   6.275   5.551  0.5033  0.3436 -0.0994
   21CHL1    H8 1495   2.204   6.175   5.518 -1.0108  1.2913 -1.4781
   21CHL1   C14 1496   2.178   6.378   5.459  0.0664  0.5527 -0.1510
   21CHL1   H14 1497   2.212   6.474   5.504  2.1123  0.5955 -1.6499
   21CHL1   C15 1498   2.023   6.392   5.474  0.6313  0.5930 -0.1330
   21CHL1  H15A 1499   1.960   6.302   5.459  1.0642 -0.1288  1.9671
   21CHL1  H15B 1500   1.998   6.435   5.574 -0.9494  0.4134 -0.4225
   21CHL1   C16 1501   2.000   6.487   5.354  0.5649 -0.2736 -0.0558
   21CHL1  H16A 1502   1.908   6.451   5.303 -0.1905  0.7921  0.5109
   21CHL1  H16B 1503   1.968   6.590   5.381 -0.1892 -0.4549 -0.2127
   21CHL1   C17 1504   2.119   6.476   5.253  0.3648  0.3774  0.5908
   21CHL1   H17 1505   2.173   6.573   5.254 -0.8332  1.1039 -0.8793
   21CHL1   C13 1506   2.210   6.367   5.308 -0.1977 -0.3448  0.4576
   21CHL1   C18 1507   2.160   6.222   5.253 -0.0413  0.5488 -0.1919
   21CHL1  H18A 1508   2.050   6.212   5.269  0.3033 -0.4687  1.9309
   21CHL1  H18B 1509   2.199   6.211   5.150 -1.8794 -0.3660 -0.8248
   21CHL1  H18C 1510   2.204   6.136   5.307 -0.1757  0.3029 -0.4742
   21CHL1   C12 1511   2.362   6.370   5.290 -0.1024 -0.7000  0.0683
   21CHL1  H12A 1512   2.384   6.353   5.183 -3.4880  3.2503 -1.5403
   21CHL1  H12B 1513   2.391   6.476   5.305  0.0575 -0.1055 -3.5017
   21CHL1   C11 1514   2.437   6.264   5.385  0.2939 -0.6494  0.1058
   21CHL1  H11A 1515   2.419   6.161   5.349  0.5529 -0.6707  0.0324
   21CHL1  H11B 1516   2.543   6.293   5.368  0.1758 -0.6557 -0.7045
   21CHL1    C9 1517   2.395   6.278   5.533  0.0217 -0.1032  0.1658
   21CHL1    H9 1518   2.427   6.380   5.564  1.8076  0.0389 -1.9186
   21CHL1   C10 1519   2.472   6.178   5.627 -0.0927 -0.2479 -0.7411
   21CHL1   C19 1520   2.467   6.036   5.560  0.2452 -0.0238 -0.0652
   21CHL1  H19A 1521   2.519   5.963   5.626  1.7834  2.2180  1.3713
   21CHL1  H19B 1522   2.360   6.011   5.545 -0.4086  0.4085  3.1366
   21CHL1  H19C 1523   2.515   6.032   5.460 -0.7677  2.0858 -0.6980
   21CHL1    C1 1524   2.621   6.226   5.644 -0.1217  0.8372 -0.1464
   21CHL1   H1A 1525   2.675   6.225   5.547  1.5922  2.7117  0.7333
   21CHL1   H1B 1526   2.617   6.333   5.674 -0.2792  0.3561  1.6970
   21CHL1    C2 1527   2.701   6.144   5.743 -0.2221  0.6021 -0.1693
   21CHL1   H2A 1528   2.797   6.201   5.743 -0.4184  0.9489  0.9869
   21CHL1   H2B 1529   2.719   6.042   5.704  0.2897  0.5391  0.2201
   21CHL1   C20 1530   2.072   6.464   5.102 -0.7812  0.8624  0.2826
   21CHL1   H20 1531   2.017   6.369   5.085 -0.9520  0.9800  0.1753
   21CHL1   C21 1532   2.199   6.476   5.009  0.8908 -0.0603 -0.3779
   21CHL1  H21A 1533   2.175   6.475   4.900 -0.1402  0.9464 -0.1768
   21CHL1  H21B 1534   2.264   6.389   5.032 -0.1718 -1.0049 -0.8470
   21CHL1  H21C 1535   2.261   6.563   5.039 -0.0205 -0.4183  2.9015
   21CHL1   C22 1536   1.975   6.575   5.056 -0.0332  0.2365 -0.4232
   21CHL1  H22A 1537   1.900   6.589   5.137  0.7077 -0.2044  0.3535
   21CHL1  H22B 1538   2.032   6.669   5.046  1.3315 -0.7290 -2.6514
   21CHL1   C23 1539   1.895   6.539   4.934 -0.2811  0.7647  0.0800
   21CHL1  H23A 1540   1.957   6.527   4.842 -0.2035  2.9111 -0.2104
   21CHL1  H23B 1541   1.849   6.441   4.958  1.6152 -0.2110 -0.0342
   21CHL1   C24 1542   1.782   6.640   4.901  0.6185  0.1240  0.3558
   21CHL1  H24A 1543   1.723   6.673   4.989  0.9179  1.0507  0.2179
   21CHL1  H24B 1544   1.835   6.730   4.862  2.2954 -0.5834  0.9176
   21CHL1   C25 1545   1.679   6.595   4.800 -0.6079 -0.0116  0.5202
   21CHL1   H25 1546   1.632   6.500   4.834 -0.1240  0.1352  1.6325
   21CHL1   C26 1547   1.569   6.695   4.767 -0.1312 -0.8052  0.4818
   21CHL1  H26A 1548   1.550   6.743   4.865 -0.5754 -2.2702  1.1366
   21CHL1  H26B 1549   1.600   6.781   4.704 -0.5801 -1.2681 -0.3920
   21CHL1  H26C 1550   1.481   6.651   4.715  0.9100 -0.1524 -1.9712
   21CHL1   C27 1551   1.742   6.558   4.664  0.3020  0.4619 -0.2679
   21CHL1  H27A 1552   1.834   6.498   4.677 -0.5429 -0.8703 -0.2430
   21CHL1  H27B 1553   1.669   6.502   4.601 -0.0393  0.1749  0.3668
   21CHL1  H27C 1554   1.769   6.650   4.608 -0.8163  1.6598  1.0414
   22CHL1    C3 1555   2.393   4.535   5.487  0.4237  0.2354 -0.3509
   22CHL1    H3 1556   2.306   4.482   5.443  0.6013  0.8758 -1.5022
   22CHL1    O3 1557   2.380   4.540   5.630  0.6823 -0.3281 -0.4774
   22CHL1   H3' 1558   2.436   4.610   5.666  0.0172 -0.5269  1.0084
   22CHL1    C4 1559   2.517   4.461   5.454  0.2342 -0.5365 -0.4585
   22CHL1   H4A 1560   2.605   4.515   5.495 -0.1704 -0.5766  0.4932
   22CHL1   H4B 1561   2.518   4.362   5.505  0.4543 -0.8823 -1.1125
   22CHL1    C5 1562   2.532   4.440   5.307 -0.5602 -1.2936 -0.5083
   22CHL1    C6 1563   2.534   4.314   5.247  0.7138 -0.0324 -0.1185
   22CHL1    H6 1564   2.525   4.229   5.316  2.4296 -0.0530  0.1211
   22CHL1    C7 1565   2.555   4.295   5.101 -0.2468  0.2768 -0.3727
   22CHL1   H7A 1566   2.638   4.222   5.087 -0.0101  0.2609  0.9118
   22CHL1   H7B 1567   2.460   4.264   5.053  0.0267 -0.8768 -0.2215
   22CHL1    C8 1568   2.612   4.429   5.033  0.0591  0.2818 -0.3536
   22CHL1    H8 1569   2.716   4.430   5.071 -0.0366  1.7731 -0.0688
   22CHL1   C14 1570   2.595   4.421   4.876 -0.5207  0.0182 -0.2406
   22CHL1   H14 1571   2.486   4.420   4.855 -0.7309 -0.1168  0.8060
   22CHL1   C15 1572   2.653   4.291   4.802  0.6665 -0.2266  0.0798
   22CHL1  H15A 1573   2.753   4.265   4.842 -0.2128 -1.4696  1.5969
   22CHL1  H15B 1574   2.593   4.198   4.811 -0.3969  0.1275 -2.5311
   22CHL1   C16 1575   2.658   4.346   4.660  0.3258 -0.4276  0.1753
   22CHL1  H16A 1576   2.765   4.326   4.637  0.4162  0.2580 -0.0235
   22CHL1  H16B 1577   2.584   4.303   4.589  0.2826 -1.7378  0.9808
   22CHL1   C17 1578   2.634   4.494   4.662 -0.1075 -0.5558 -0.6736
   22CHL1   H17 1579   2.525   4.508   4.646 -0.4813 -1.7902  0.5549
   22CHL1   C13 1580   2.660   4.537   4.810 -0.1543  0.3039  0.4944
   22CHL1   C18 1581   2.816   4.549   4.834 -0.0162  0.0636  0.4860
   22CHL1  H18A 1582   2.870   4.474   4.771  2.1837  3.8099 -2.6039
   22CHL1  H18B 1583   2.853   4.640   4.782 -1.4475 -0.4282 -1.5393
   22CHL1  H18C 1584   2.848   4.557   4.940  2.1723  1.4222 -0.2037
   22CHL1   C12 1585   2.604   4.680   4.860 -0.4009 -0.8554  0.5717
   22CHL1  H12A 1586   2.675   4.757   4.821  1.8987 -1.1265  3.8051
   22CHL1  H12B 1587   2.506   4.704   4.813 -0.1753 -0.5820  0.2322
   22CHL1   C11 1588   2.603   4.686   5.009  0.0974  0.0478 -0.4852
   22CHL1  H11A 1589   2.707   4.682   5.047 -1.0030 -1.3456  2.8021
   22CHL1  H11B 1590   2.550   4.771   5.057  2.3168  1.3820 -0.2807
   22CHL1    C9 1591   2.542   4.554   5.077  0.4351 -0.3291 -0.8221
   22CHL1    H9 1592   2.434   4.556   5.048  0.3360 -1.3596 -0.5591
   22CHL1   C10 1593   2.532   4.577   5.238  0.2896 -0.0730  0.1276
   22CHL1   C19 1594   2.665   4.646   5.273  0.1636 -0.0881 -0.1534
   22CHL1  H19A 1595   2.674   4.747   5.226 -2.5053 -0.6439 -2.1399
   22CHL1  H19B 1596   2.675   4.669   5.381  1.0207 -0.5216 -0.1321
   22CHL1  H19C 1597   2.758   4.590   5.251 -0.1956 -2.5580  3.6768
   22CHL1    C1 1598   2.410   4.666   5.274 -0.5212 -0.2735  0.2292
   22CHL1   H1A 1599   2.420   4.770   5.237  0.1327 -0.7628 -1.0466
   22CHL1   H1B 1600   2.317   4.621   5.233 -0.2042 -0.9728  0.2616
   22CHL1    C2 1601   2.397   4.672   5.430 -0.3707 -0.5833 -0.1319
   22CHL1   H2A 1602   2.303   4.723   5.457 -0.9069 -1.7254  0.2305
   22CHL1   H2B 1603   2.485   4.733   5.460  0.4717 -1.8153  0.0142
   22CHL1   C20 1604   2.714   4.572   4.552 -0.8167  0.2813  0.5167
   22CHL1   H20 1605   2.821   4.574   4.581 -1.0360  3.5969  1.5420
   22CHL1   C21 1606   2.668   4.726   4.541 -0.5579  0.1258 -0.8638
   22CHL1  H21A 1607   2.722   4.793   4.610 -0.5208 -0.5475 -0.2246
   22CHL1  H21B 1608   2.558   4.741   4.541 -0.4319  1.5252  1.4148
   22CHL1  H21C 1609   2.699   4.762   4.440 -1.7773  1.7079 -0.7089
   22CHL1   C22 1610   2.704   4.511   4.402 -0.4626 -0.3131 -0.2876
   22CHL1  H22A 1611   2.774   4.560   4.332 -0.0284  1.2231  1.1441
   22CHL1  H22B 1612   2.728   4.403   4.409  0.0713 -0.1088  1.5732
   22CHL1   C23 1613   2.564   4.515   4.342  0.4984 -0.1566 -0.1959
   22CHL1  H23A 1614   2.495   4.451   4.401 -0.5550  0.4264 -0.7734
   22CHL1  H23B 1615   2.522   4.618   4.345  2.6379  0.7616  0.6872
   22CHL1   C24 1616   2.558   4.456   4.201  0.1154 -0.1904  0.8365
   22CHL1  H24A 1617   2.621   4.524   4.139 -0.0083 -0.3303  0.5530
   22CHL1  H24B 1618   2.584   4.348   4.195 -0.0688 -0.2860  1.7364
   22CHL1   C25 1619   2.411   4.462   4.139 -0.5397  0.4108  0.0943
   22CHL1   H25 1620   2.371   4.565   4.128 -2.9801 -0.6071 -1.4771
   22CHL1   C26 1621   2.417   4.417   3.992 -0.0478 -0.1057  0.0036
   22CHL1  H26A 1622   2.313   4.414   3.954 -0.6788 -1.5562  1.6783
   22CHL1  H26B 1623   2.457   4.503   3.934 -1.4267 -0.6180 -1.7816
   22CHL1  H26C 1624   2.482   4.330   3.968 -1.3327 -0.3066 -3.2115
   22CHL1   C27 1625   2.310   4.375   4.218 -0.7659 -0.0025 -0.7649
   22CHL1  H27A 1626   2.303   4.405   4.325  1.5036 -0.9804 -0.2727
   22CHL1  H27B 1627   2.206   4.375   4.179 -0.5815 -1.8424 -1.3587
   22CHL1  H27C 1628   2.350   4.271   4.214 -0.5803 -0.0095  0.6466
   23CHL1    C3 1629   4.187   0.419   6.274 -1.1871  0.0984 -0.0466
   23CHL1    H3 1630   4.277   0.356   6.254 -0.3252  0.5586  2.1301
   23CHL1    O3 1631   4.148   0.379   6.407 -0.0164  0.8134 -0.5586
   23CHL1   H3' 1632   4.110   0.291   6.398 -0.6397  1.1218 -0.9923
   23CHL1    C4 1633   4.218   0.571   6.270  0.4953 -0.1097 -0.4967
   23CHL1   H4A 1634   4.123   0.612   6.312 -0.1977 -2.4733  0.4444
   23CHL1   H4B 1635   4.302   0.591   6.339 -0.1039  0.1209  0.1883
   23CHL1    C5 1636   4.246   0.639   6.137  0.3251 -0.1923  0.1317
   23CHL1    C6 1637   4.348   0.715   6.118 -0.6107 -0.1216 -0.7019
   23CHL1    H6 1638   4.413   0.733   6.204 -0.1521 -0.4327 -0.9782
   23CHL1    C7 1639   4.379   0.794   5.987 -0.6252  0.4027  0.3004
   23CHL1   H7A 1640   4.389   0.903   6.008  0.2617  0.4656 -0.3903
   23CHL1   H7B 1641   4.474   0.745   5.957 -0.4103  0.8810  0.1975
   23CHL1    C8 1642   4.276   0.784   5.879  0.4684 -0.3847  0.1649
   23CHL1    H8 1643   4.197   0.862   5.889  3.1575  2.2788  2.2509
   23CHL1   C14 1644   4.340   0.804   5.742  0.5744 -0.5358  0.7672
   23CHL1   H14 1645   4.409   0.718   5.728 -1.6932 -2.4834  0.8940
   23CHL1   C15 1646   4.423   0.933   5.733 -0.2233  0.3521 -0.0283
   23CHL1  H15A 1647   4.378   1.019   5.788  3.4199  3.1520 -1.0578
   23CHL1  H15B 1648   4.526   0.926   5.773 -0.5523 -0.2519  0.7569
   23CHL1   C16 1649   4.424   0.967   5.580  0.5042  0.6960 -0.4238
   23CHL1  H16A 1650   4.368   1.063   5.571 -0.6565  0.4567  2.8717
   23CHL1  H16B 1651   4.524   0.980   5.534  1.0630  0.4935  0.7153
   23CHL1   C17 1652   4.333   0.855   5.511 -0.2821 -0.2089  0.2883
   23CHL1   H17 1653   4.410   0.777   5.494  0.2017 -0.1656  2.0392
   23CHL1   C13 1654   4.243   0.800   5.625  0.1361 -1.0390 -0.2823
   23CHL1   C18 1655   4.124   0.899   5.634 -0.0257  0.6454  0.0947
   23CHL1  H18A 1656   4.071   0.907   5.537  0.3647  1.5052 -0.0577
   23CHL1  H18B 1657   4.049   0.848   5.699 -0.1237 -1.0319 -1.2588
   23CHL1  H18C 1658   4.134   0.999   5.681  0.4974  1.9435 -2.6019
   23CHL1   C12 1659   4.184   0.660   5.617  0.1113 -0.5196  0.5385
   23CHL1  H12A 1660   4.100   0.665   5.544  0.3273 -0.1063  0.3150
   23CHL1  H12B 1661   4.264   0.599   5.571  0.4528  0.4070 -0.1346
   23CHL1   C11 1662   4.135   0.606   5.750  0.7468  0.5735 -0.0594
   23CHL1  H11A 1663   4.029   0.632   5.771  1.1432  1.2287  1.2280
   23CHL1  H11B 1664   4.134   0.496   5.735 -0.5621  0.2867  1.7307
   23CHL1    C9 1665   4.221   0.639   5.882  0.4817 -0.1105  0.0806
   23CHL1    H9 1666   4.316   0.582   5.880  0.9556  0.4391  2.8285
   23CHL1   C10 1667   4.149   0.601   6.021 -0.2800  0.0852 -0.4827
   23CHL1   C19 1668   4.029   0.695   6.044  0.5586  0.3725 -0.0953
   23CHL1  H19A 1669   3.962   0.678   5.957  1.3969 -0.0740 -0.6688
   23CHL1  H19B 1670   3.965   0.683   6.134 -0.2731 -1.3205 -0.8683
   23CHL1  H19C 1671   4.051   0.804   6.030 -0.9387  0.6562 -0.3806
   23CHL1    C1 1672   4.115   0.445   6.025 -0.3124  0.3679 -0.0109
   23CHL1   H1A 1673   4.034   0.422   5.953 -1.8088  2.7563  0.7727
   23CHL1   H1B 1674   4.213   0.404   5.995  0.1793  0.1062  1.8166
   23CHL1    C2 1675   4.077   0.383   6.168  0.2206 -0.2868  0.4531
   23CHL1   H2A 1676   4.063   0.273   6.165  0.8329 -0.3554 -0.7729
   23CHL1   H2B 1677   3.980   0.431   6.195  0.6059  0.6410  0.2312
   23CHL1   C20 1678   4.281   0.892   5.366 -0.3195 -0.7011  0.2198
   23CHL1   H20 1679   4.208   0.973   5.389 -1.7646 -1.9998  0.4078
   23CHL1   C21 1680   4.207   0.775   5.311  0.2547 -0.8618 -0.0019
   23CHL1  H21A 1681   4.274   0.687   5.302  0.4033 -0.8934  1.2538
   23CHL1  H21B 1682   4.183   0.793   5.204  1.9241 -1.0146 -0.4272
   23CHL1  H21C 1683   4.109   0.752   5.359  0.8357 -2.2035  0.5895
   23CHL1   C22 1684   4.395   0.954   5.273 -0.0854  0.6439 -0.2807
   23CHL1  H22A 1685   4.457   1.025   5.333 -1.0857  1.3194 -0.0211
   23CHL1  H22B 1686   4.463   0.876   5.233  0.8998  1.3653 -0.0566
   23CHL1   C23 1687   4.349   1.046   5.164 -0.3165  0.5653  0.4804
   23CHL1  H23A 1688   4.297   0.980   5.092 -0.7012 -0.7211  1.8808
   23CHL1  H23B 1689   4.278   1.124   5.200  1.1061  1.7567  0.8181
   23CHL1   C24 1690   4.464   1.122   5.092 -0.0637  0.2222 -0.3997
   23CHL1  H24A 1691   4.524   1.179   5.165 -0.5637 -0.5392  0.6297
   23CHL1  H24B 1692   4.541   1.067   5.034 -0.7080 -1.3897  0.2130
   23CHL1   C25 1693   4.418   1.218   4.982  0.0715 -0.5138 -0.2852
   23CHL1   H25 1694   4.332   1.274   5.024  0.5309  0.4650 -0.6296
   23CHL1   C26 1695   4.529   1.321   4.942  0.5283  0.4396 -1.3608
   23CHL1  H26A 1696   4.569   1.285   4.845  3.4576 -0.7721  0.1883
   23CHL1  H26B 1697   4.491   1.425   4.936 -0.7763  0.5718  4.2261
   23CHL1  H26C 1698   4.614   1.315   5.013 -1.0477 -0.8237  0.5504
   23CHL1   C27 1699   4.371   1.144   4.858 -0.4980 -0.1026 -0.3653
   23CHL1  H27A 1700   4.450   1.110   4.787 -0.1412  2.1264 -1.0980
   23CHL1  H27B 1701   4.307   1.059   4.891 -1.3491  0.4015 -0.6914
   23CHL1  H27C 1702   4.309   1.211   4.796 -0.1361  0.3807 -0.2071
   24CHL1    C3 1703   4.963   4.621   5.923  0.2700 -0.6002 -0.6087
   24CHL1    H3 1704   4.895   4.703   5.893  1.6336  0.0576 -2.0205
   24CHL1    O3 1705   4.998   4.623   6.061 -0.1512  0.4022  0.0449
   24CHL1   H3' 1706   5.049   4.541   6.067  0.6906  0.8251 -0.9401
   24CHL1    C4 1707   4.907   4.481   5.882  0.0363 -0.3116  0.0617
   24CHL1   H4A 1708   4.978   4.400   5.908 -0.5218 -0.5632  0.8297
   24CHL1   H4B 1709   4.813   4.472   5.941 -0.3888 -0.9465 -0.6963
   24CHL1    C5 1710   4.889   4.459   5.732 -0.9485  0.4544 -0.3832
   24CHL1    C6 1711   4.772   4.416   5.684  0.2537 -0.8119  0.4004
   24CHL1    H6 1712   4.698   4.382   5.757 -0.6584 -0.2187 -0.2166
   24CHL1    C7 1713   4.730   4.403   5.535 -0.2220 -0.0296 -0.4147
   24CHL1   H7A 1714   4.682   4.303   5.526 -0.2374 -0.2212  1.4190
   24CHL1   H7B 1715   4.666   4.487   5.503  3.0454  3.2191  0.8245
   24CHL1    C8 1716   4.862   4.413   5.451  0.2397  0.1435 -0.2842
   24CHL1    H8 1717   4.907   4.312   5.459  0.1845  0.2189  1.1569
   24CHL1   C14 1718   4.826   4.449   5.310  0.5565  0.2191  0.0282
   24CHL1   H14 1719   4.782   4.551   5.312  2.3127  1.0103  1.6781
   24CHL1   C15 1720   4.715   4.366   5.240 -0.7832 -0.2834  0.7461
   24CHL1  H15A 1721   4.743   4.260   5.261  1.2897  0.2042  0.6369
   24CHL1  H15B 1722   4.614   4.395   5.277 -0.4682  1.3096  0.4211
   24CHL1   C16 1723   4.737   4.390   5.093 -0.6337 -0.1993  0.4460
   24CHL1  H16A 1724   4.753   4.291   5.044 -0.7900  0.1574 -0.3367
   24CHL1  H16B 1725   4.647   4.433   5.044  0.3141  0.5810 -0.6622
   24CHL1   C17 1726   4.848   4.492   5.082 -0.3477  0.6432 -1.1169
   24CHL1   H17 1727   4.790   4.584   5.104  0.0048 -0.0396  3.7806
   24CHL1   C13 1728   4.935   4.461   5.208 -0.3452 -1.0037  0.6653
   24CHL1   C18 1729   5.010   4.329   5.199  0.1329 -0.1377  0.9977
   24CHL1  H18A 1730   5.106   4.344   5.145 -1.1204  0.9124 -1.0702
   24CHL1  H18B 1731   5.036   4.297   5.303  2.0627 -1.3690  0.1942
   24CHL1  H18C 1732   4.961   4.243   5.149  1.5673 -0.0260 -0.6873
   24CHL1   C12 1733   5.025   4.580   5.248  0.2499 -0.4252  0.4167
   24CHL1  H12A 1734   5.116   4.601   5.187  0.5847  0.5509  1.2195
   24CHL1  H12B 1735   4.964   4.673   5.247 -1.1731 -1.2895  1.7735
   24CHL1   C11 1736   5.070   4.565   5.389 -0.5407  0.0502  0.7783
   24CHL1  H11A 1737   5.144   4.482   5.389 -1.0621 -0.4494 -0.7482
   24CHL1  H11B 1738   5.122   4.655   5.427 -0.0520 -0.3139  0.9853
   24CHL1    C9 1739   4.962   4.526   5.496  0.5474  0.5868 -0.7467
   24CHL1    H9 1740   4.900   4.618   5.499  0.6916  0.7982 -2.7345
   24CHL1   C10 1741   5.004   4.512   5.650  0.0010  0.6145 -0.2797
   24CHL1   C19 1742   5.110   4.399   5.662  0.1831  0.2041 -0.2219
   24CHL1  H19A 1743   5.205   4.423   5.610 -0.2426  1.8067 -0.3209
   24CHL1  H19B 1744   5.135   4.384   5.769  4.4935 -2.4034 -1.3353
   24CHL1  H19C 1745   5.062   4.308   5.619  0.5448  0.3081 -0.8706
   24CHL1    C1 1746   5.069   4.651   5.693 -0.0300  0.5475 -0.2952
   24CHL1   H1A 1747   5.170   4.667   5.651  0.4026  0.3804  0.6507
   24CHL1   H1B 1748   5.003   4.738   5.674 -0.4118  0.1227 -0.9625
   24CHL1    C2 1749   5.090   4.656   5.845  0.5290 -0.1915 -0.1956
   24CHL1   H2A 1750   5.131   4.746   5.895 -1.9234 -0.2014  2.0704
   24CHL1   H2B 1751   5.166   4.577   5.861 -0.5679 -1.5226 -1.2896
   24CHL1   C20 1752   4.919   4.503   4.949 -0.3086  0.1968 -0.2405
   24CHL1   H20 1753   5.009   4.565   4.967 -0.1230 -0.3499  0.8001
   24CHL1   C21 1754   4.833   4.586   4.849  0.0929 -0.1218 -0.1356
   24CHL1  H21A 1755   4.754   4.516   4.816  2.7881 -2.9356 -1.0454
   24CHL1  H21B 1756   4.897   4.605   4.761 -1.1829  0.4098 -0.9900
   24CHL1  H21C 1757   4.788   4.676   4.897 -0.8820  0.2480 -1.6690
   24CHL1   C22 1758   4.964   4.377   4.879  0.0357  0.2778 -0.3706
   24CHL1  H22A 1759   4.999   4.307   4.958 -0.6197 -0.5191 -0.7605
   24CHL1  H22B 1760   4.871   4.332   4.837 -0.0617 -0.4495  0.5854
   24CHL1   C23 1761   5.071   4.400   4.774 -0.5059  0.1454 -0.2671
   24CHL1  H23A 1762   5.040   4.466   4.689 -1.0770 -1.0436 -1.0166
   24CHL1  H23B 1763   5.161   4.441   4.824 -1.2222 -0.1586  1.3241
   24CHL1   C24 1764   5.116   4.275   4.710  0.6219  0.1349  0.4178
   24CHL1  H24A 1765   5.166   4.202   4.778  0.9531 -0.8321 -0.8212
   24CHL1  H24B 1766   5.026   4.222   4.671  2.2545 -0.8447 -2.2850
   24CHL1   C25 1767   5.212   4.307   4.597 -0.3152  0.0901 -0.4363
   24CHL1   H25 1768   5.214   4.205   4.554 -2.0154 -1.5532  2.9777
   24CHL1   C26 1769   5.159   4.406   4.483  0.0828  0.5798 -0.4772
   24CHL1  H26A 1770   5.119   4.504   4.518  0.1726  0.6711 -0.6320
   24CHL1  H26B 1771   5.245   4.418   4.413  0.1175 -0.4462 -0.6214
   24CHL1  H26C 1772   5.077   4.355   4.429  1.8570 -1.3922 -1.4304
   24CHL1   C27 1773   5.355   4.336   4.650  0.1723  0.3153 -0.1927
   24CHL1  H27A 1774   5.376   4.257   4.725 -1.9503  0.6015  0.7792
   24CHL1  H27B 1775   5.428   4.322   4.568  0.9879 -0.2468  0.6043
   24CHL1  H27C 1776   5.360   4.438   4.694  0.2213  1.2125 -2.1704
   25CHL1    C3 1777   1.751   6.585   6.429  0.0600 -0.2099  0.4802
   25CHL1    H3 1778   1.740   6.496   6.364 -0.9506  0.0492  0.2733
   25CHL1    O3 1779   1.742   6.537   6.561  0.2512  0.3853 -0.3173
   25CHL1   H3' 1780   1.734   6.608   6.625  1.2420 -0.6956  1.0840
   25CHL1    C4 1781   1.883   6.659   6.396  0.2861 -1.1218  0.0324
   25CHL1   H4A 1782   1.887   6.738   6.474  0.6619 -0.9577 -0.1502
   25CHL1   H4B 1783   1.969   6.593   6.424  0.7456  0.7330  3.6359
   25CHL1    C5 1784   1.898   6.709   6.254 -0.6218 -0.3865 -0.2495
   25CHL1    C6 1785   1.997   6.683   6.168  0.2253  0.5346  0.4835
   25CHL1    H6 1786   2.080   6.620   6.201  0.6746  0.0088 -1.4985
   25CHL1    C7 1787   2.009   6.742   6.025 -0.0563 -0.4236 -0.5710
   25CHL1   H7A 1788   2.108   6.790   6.009 -0.2515 -0.2671 -1.3830
   25CHL1   H7B 1789   1.994   6.659   5.953  1.3874 -0.2441 -1.1285
   25CHL1    C8 1790   1.899   6.845   5.993 -0.3324  0.4141  0.9156
   25CHL1    H8 1791   1.933   6.945   6.027  1.0887  0.3727 -0.2567
   25CHL1   C14 1792   1.875   6.839   5.841 -0.4358 -0.1416  0.4182
   25CHL1   H14 1793   1.851   6.732   5.822  2.4278 -0.9366  0.8189
   25CHL1   C15 1794   2.000   6.862   5.749 -0.0724  0.4281  0.1439
   25CHL1  H15A 1795   2.077   6.927   5.794  0.0720 -1.2443  2.4936
   25CHL1  H15B 1796   2.044   6.760   5.741 -1.3793 -0.1501  0.0077
   25CHL1   C16 1797   1.944   6.899   5.607 -0.2690 -0.1428 -0.2678
   25CHL1  H16A 1798   1.986   6.998   5.579  0.6877 -0.3142  0.5108
   25CHL1  H16B 1799   1.976   6.824   5.531 -0.2711 -0.1097 -0.3008
   25CHL1   C17 1800   1.792   6.924   5.628 -0.1556  0.0924  0.7311
   25CHL1   H17 1801   1.735   6.832   5.602 -1.5942  1.3718 -0.9105
   25CHL1   C13 1802   1.775   6.948   5.784 -0.6673  0.8780 -0.5345
   25CHL1   C18 1803   1.820   7.086   5.835  0.0437 -0.2577  0.6448
   25CHL1  H18A 1804   1.755   7.159   5.781 -0.0114  1.9830  3.5076
   25CHL1  H18B 1805   1.794   7.106   5.941  1.3154  3.0966  0.4620
   25CHL1  H18C 1806   1.923   7.111   5.799 -0.7855 -0.7936 -2.3861
   25CHL1   C12 1807   1.637   6.919   5.849 -0.0425 -0.2292  0.2815
   25CHL1  H12A 1808   1.557   6.994   5.831 -1.1219 -1.3820  0.1171
   25CHL1  H12B 1809   1.608   6.819   5.811  0.6917 -0.8236  1.2417
   25CHL1   C11 1810   1.647   6.890   6.002 -0.5071 -0.5463 -0.1744
   25CHL1  H11A 1811   1.669   6.986   6.053 -0.0624 -0.6050 -0.2548
   25CHL1  H11B 1812   1.546   6.857   6.037 -0.1223 -0.6728  0.8328
   25CHL1    C9 1813   1.765   6.804   6.051 -0.2560 -0.2579  0.0942
   25CHL1    H9 1814   1.740   6.705   6.006  0.6026  0.4441 -2.0444
   25CHL1   C10 1815   1.767   6.791   6.212  0.0831  0.3588  0.0688
   25CHL1   C19 1816   1.788   6.930   6.276  0.3023 -0.7203 -0.1160
   25CHL1  H19A 1817   1.767   6.927   6.385  1.4908  0.7447  0.1848
   25CHL1  H19B 1818   1.891   6.965   6.254 -0.4356  1.7679  0.1321
   25CHL1  H19C 1819   1.708   7.001   6.247 -1.0580 -0.7451  3.1499
   25CHL1    C1 1820   1.634   6.724   6.265  0.2887 -0.3569  0.1535
   25CHL1   H1A 1821   1.539   6.778   6.246 -1.8090 -4.5106 -2.6695
   25CHL1   H1B 1822   1.604   6.634   6.207 -1.4081 -0.5925  1.3160
   25CHL1    C2 1823   1.638   6.684   6.409 -0.4091 -0.5013 -0.0853
   25CHL1   H2A 1824   1.546   6.628   6.434  0.9914 -2.1401  1.6904
   25CHL1   H2B 1825   1.640   6.779   6.468  1.9992 -0.1002 -0.7037
   25CHL1   C20 1826   1.743   7.037   5.534  0.3385  0.1433  0.3920
   25CHL1   H20 1827   1.799   7.132   5.553  0.8614 -0.1051  0.1188
   25CHL1   C21 1828   1.592   7.057   5.553  0.3546  0.8665 -0.1354
   25CHL1  H21A 1829   1.574   7.095   5.656 -0.3456  0.5888 -0.1459
   25CHL1  H21B 1830   1.542   6.958   5.556 -0.6936  1.3931  1.4964
   25CHL1  H21C 1831   1.537   7.116   5.478 -1.1711  0.8560  0.9221
   25CHL1   C22 1832   1.767   7.004   5.387 -0.4867  0.6891 -0.1367
   25CHL1  H22A 1833   1.867   6.957   5.373 -0.3090  1.7442 -2.9797
   25CHL1  H22B 1834   1.692   6.931   5.351  0.0021  0.5090 -0.8181
   25CHL1   C23 1835   1.759   7.128   5.297  0.9010  0.0033 -0.7892
   25CHL1  H23A 1836   1.669   7.186   5.326  1.9748  0.1651  2.7534
   25CHL1  H23B 1837   1.844   7.199   5.308  1.0277  0.2311 -2.9159
   25CHL1   C24 1838   1.755   7.097   5.144 -0.0612  0.1168 -0.0892
   25CHL1  H24A 1839   1.767   7.195   5.092 -0.4052  1.2192  1.8111
   25CHL1  H24B 1840   1.837   7.024   5.131  1.3074  1.6597 -0.5195
   25CHL1   C25 1841   1.624   7.031   5.095  0.1780  0.7067 -0.3098
   25CHL1   H25 1842   1.624   6.938   5.156  2.2208  0.4747 -0.6045
   25CHL1   C26 1843   1.497   7.122   5.110  0.0555  0.1121 -0.2316
   25CHL1  H26A 1844   1.511   7.227   5.076 -1.7461  1.1901  2.0077
   25CHL1  H26B 1845   1.420   7.077   5.043  1.3278 -0.2395 -1.4999
   25CHL1  H26C 1846   1.461   7.118   5.216  0.2514 -2.6354 -0.1803
   25CHL1   C27 1847   1.629   6.993   4.953  0.1782  0.4353  0.6562
   25CHL1  H27A 1848   1.534   6.956   4.909  0.9750 -0.1314 -0.6572
   25CHL1  H27B 1849   1.647   7.092   4.905  1.6633 -1.0372 -2.1082
   25CHL1  H27C 1850   1.716   6.928   4.932  1.5454  2.5387 -0.5582
   26CHL1    C3 1851   5.469   5.117   6.276  0.9430 -0.0053 -0.3909
   26CHL1    H3 1852   5.466   5.006   6.275 -2.0272 -0.0546  1.7425
   26CHL1    O3 1853   5.427   5.157   6.406  0.4373 -0.4973 -0.3136
   26CHL1   H3' 1854   5.497   5.131   6.466  1.0901 -0.8884 -1.2268
   26CHL1    C4 1855   5.612   5.171   6.245  0.6011 -0.1627 -0.2364
   26CHL1   H4A 1856   5.600   5.280   6.263  0.5055  0.2302 -2.4052
   26CHL1   H4B 1857   5.686   5.127   6.314 -0.8630  0.1771  1.6257
   26CHL1    C5 1858   5.642   5.137   6.104  0.0969  0.2257  1.1981
   26CHL1    C6 1859   5.752   5.064   6.076 -0.5432 -0.7588 -0.2124
   26CHL1    H6 1860   5.825   5.029   6.151 -0.0063 -0.0330 -0.3851
   26CHL1    C7 1861   5.796   5.030   5.936 -0.2214 -0.7423 -0.1337
   26CHL1   H7A 1862   5.906   5.043   5.933 -0.0234 -2.2482 -0.0485
   26CHL1   H7B 1863   5.770   4.925   5.911 -0.3084 -0.3963 -1.5595
   26CHL1    C8 1864   5.736   5.118   5.828 -0.3601 -0.3817  0.0583
   26CHL1    H8 1865   5.777   5.220   5.844  1.9369 -1.1904 -0.2551
   26CHL1   C14 1866   5.773   5.074   5.684  0.6483 -0.1657  0.2142
   26CHL1   H14 1867   5.737   4.969   5.679  0.1588 -0.1154  1.8527
   26CHL1   C15 1868   5.916   5.076   5.649 -0.0687 -0.6716 -0.1645
   26CHL1  H15A 1869   5.970   5.170   5.673 -0.1164 -0.1676 -1.9095
   26CHL1  H15B 1870   5.962   4.987   5.697 -3.2598 -0.3933  4.0750
   26CHL1   C16 1871   5.910   5.060   5.498  0.1297  0.0882  0.3932
   26CHL1  H16A 1872   5.974   5.133   5.444 -0.6423  0.3029 -0.2609
   26CHL1  H16B 1873   5.935   4.955   5.472  0.3612  0.3844 -0.6632
   26CHL1   C17 1874   5.758   5.076   5.456 -0.3013 -0.2208  0.0259
   26CHL1   H17 1875   5.713   4.975   5.465 -1.2632  0.3809  3.3139
   26CHL1   C13 1876   5.698   5.156   5.579 -0.3124 -0.3022 -0.2396
   26CHL1   C18 1877   5.738   5.313   5.574 -0.0390 -0.3116 -0.0431
   26CHL1  H18A 1878   5.715   5.370   5.666 -2.5468 -0.0273 -0.7862
   26CHL1  H18B 1879   5.849   5.310   5.562 -0.0016 -4.6658 -0.1902
   26CHL1  H18C 1880   5.684   5.373   5.498  0.2523 -0.8351 -0.6821
   26CHL1   C12 1881   5.550   5.144   5.611 -0.5918 -0.4806  1.1401
   26CHL1  H12A 1882   5.503   5.197   5.525  2.1001  3.0510  1.6141
   26CHL1  H12B 1883   5.529   5.035   5.609  0.2074 -0.6411  1.0764
   26CHL1   C11 1884   5.517   5.208   5.741 -0.0054 -0.1046 -0.1242
   26CHL1  H11A 1885   5.556   5.312   5.744  3.8372 -1.3498 -1.0617
   26CHL1  H11B 1886   5.408   5.219   5.759  0.0758  0.7099 -0.0760
   26CHL1    C9 1887   5.582   5.128   5.856 -0.7309  0.4668 -0.5793
   26CHL1    H9 1888   5.545   5.025   5.839  1.1464 -0.2199 -0.8277
   26CHL1   C10 1889   5.543   5.187   5.999 -0.0994 -0.5012 -0.3266
   26CHL1   C19 1890   5.558   5.341   5.995 -0.4269 -0.5484  0.2152
   26CHL1  H19A 1891   5.659   5.357   5.951 -0.5281  2.3024  0.8617
   26CHL1  H19B 1892   5.473   5.380   5.936 -0.9231 -0.9298  0.6773
   26CHL1  H19C 1893   5.556   5.382   6.098  0.6866 -2.7777  1.2058
   26CHL1    C1 1894   5.397   5.136   6.036  0.3048  0.2268 -0.0606
   26CHL1   H1A 1895   5.320   5.164   5.961 -0.6164  0.4007  0.9234
   26CHL1   H1B 1896   5.395   5.025   6.029 -1.2958  0.0104  2.5536
   26CHL1    C2 1897   5.360   5.168   6.179  0.0771 -0.6533 -0.8384
   26CHL1   H2A 1898   5.260   5.121   6.189 -1.0642  1.9640  1.5833
   26CHL1   H2B 1899   5.351   5.278   6.193 -0.7693 -0.7538 -0.5475
   26CHL1   C20 1900   5.731   5.138   5.315  0.0113  0.0812 -0.0887
   26CHL1   H20 1901   5.762   5.244   5.329 -1.7945  0.3602  2.6614
   26CHL1   C21 1902   5.588   5.130   5.266  0.1101  0.6679  0.3495
   26CHL1  H21A 1903   5.549   5.026   5.275  0.2387  0.5566 -0.3439
   26CHL1  H21B 1904   5.576   5.152   5.158 -0.8991  0.2718  0.3736
   26CHL1  H21C 1905   5.517   5.192   5.325 -0.4894 -1.6846  2.2598
   26CHL1   C22 1906   5.814   5.078   5.203  0.5203 -0.0751  0.1344
   26CHL1  H22A 1907   5.792   5.129   5.107  1.1854  1.6779  0.8757
   26CHL1  H22B 1908   5.923   5.098   5.211  0.7258  1.0888 -3.7347
   26CHL1   C23 1909   5.790   4.932   5.181 -0.4421 -0.0014 -0.1410
   26CHL1  H23A 1910   5.786   4.877   5.277  1.0314 -1.0034 -0.6125
   26CHL1  H23B 1911   5.692   4.907   5.134 -0.4620  0.1952 -0.2031
   26CHL1   C24 1912   5.902   4.862   5.093  0.0569  0.2111 -0.4753
   26CHL1  H24A 1913   5.915   4.915   4.996 -0.2916 -0.1228 -0.7111
   26CHL1  H24B 1914   5.991   4.873   5.158 -0.0576  0.9243 -0.4361
   26CHL1   C25 1915   5.881   4.709   5.058 -0.7925 -0.3347  0.2725
   26CHL1   H25 1916   5.851   4.649   5.146 -0.8710 -0.7244 -0.0223
   26CHL1   C26 1917   5.774   4.693   4.962 -0.0118 -0.0212 -0.3936
   26CHL1  H26A 1918   5.799   4.762   4.878  2.6503 -0.1478  0.2091
   26CHL1  H26B 1919   5.751   4.586   4.941 -0.9521  0.1200 -0.1549
   26CHL1  H26C 1920   5.680   4.732   5.007  0.7503  4.1188 -1.9524
   26CHL1   C27 1921   6.018   4.655   5.002  1.1446  0.7826 -0.2467
   26CHL1  H27A 1922   6.088   4.678   5.085  0.7810  3.3058 -0.5579
   26CHL1  H27B 1923   6.009   4.545   4.988  2.9680  0.8666 -2.9803
   26CHL1  H27C 1924   6.044   4.693   4.900  0.4112 -1.0807 -1.1850
   27CHL1    C3 1925   6.658   4.597   6.141  0.3937 -0.2738 -0.4164
   27CHL1    H3 1926   6.565   4.540   6.117 -0.1705 -0.2336  1.5466
   27CHL1    O3 1927   6.656   4.590   6.282 -0.3960  0.1792 -0.0951
   27CHL1   H3' 1928   6.721   4.657   6.305 -0.9398 -0.0921  2.6435
   27CHL1    C4 1929   6.788   4.531   6.090 -0.5325 -0.2713 -0.5754
   27CHL1   H4A 1930   6.866   4.592   6.140 -1.3034  0.7553 -0.5860
   27CHL1   H4B 1931   6.798   4.432   6.138  1.7081 -0.8630 -2.1038
   27CHL1    C5 1932   6.801   4.538   5.938  0.2983 -0.6905  0.7208
   27CHL1    C6 1933   6.818   4.428   5.866 -0.0643 -0.0146 -0.0326
   27CHL1    H6 1934   6.825   4.334   5.923  1.3530  0.1004  0.0326
   27CHL1    C7 1935   6.815   4.415   5.719 -0.3888  0.2631 -0.7583
   27CHL1   H7A 1936   6.891   4.343   5.682 -1.0163 -1.9388  1.8571
   27CHL1   H7B 1937   6.718   4.375   5.681 -2.0208  0.7651  2.5440
   27CHL1    C8 1938   6.828   4.550   5.647  0.0998 -1.0188  0.4170
   27CHL1    H8 1939   6.931   4.589   5.655 -0.2065 -0.1366  0.1860
   27CHL1   C14 1940   6.783   4.540   5.504  0.1443  0.5901 -0.5501
   27CHL1   H14 1941   6.678   4.504   5.510  0.1074  0.4626 -1.6926
   27CHL1   C15 1942   6.839   4.425   5.416  0.2483 -0.7040 -0.4003
   27CHL1  H15A 1943   6.950   4.423   5.420  0.2238 -2.7167  0.3303
   27CHL1  H15B 1944   6.809   4.328   5.460 -0.8755  0.0816  0.6196
   27CHL1   C16 1945   6.799   4.457   5.277 -0.0510 -0.9122 -0.0065
   27CHL1  H16A 1946   6.874   4.448   5.196  0.0033  0.2385 -0.0927
   27CHL1  H16B 1947   6.721   4.389   5.234 -2.0942  0.2277  1.7250
   27CHL1   C17 1948   6.738   4.603   5.283 -0.7969  0.4712 -0.3665
   27CHL1   H17 1949   6.627   4.597   5.293 -0.8568  0.1605 -1.1354
   27CHL1   C13 1950   6.787   4.662   5.412 -0.3159  0.6366  0.3965
   27CHL1   C18 1951   6.937   4.705   5.390 -0.3341  0.1388  0.0483
   27CHL1  H18A 1952   6.986   4.727   5.488  0.1675 -1.7986  0.2691
   27CHL1  H18B 1953   6.999   4.635   5.331  2.0201  0.7005  1.6837
   27CHL1  H18C 1954   6.940   4.795   5.326  1.9249 -0.0573 -0.2092
   27CHL1   C12 1955   6.702   4.767   5.484 -0.5680  0.4336 -0.7245
   27CHL1  H12A 1956   6.706   4.868   5.436  0.8868  0.4889 -0.5338
   27CHL1  H12B 1957   6.596   4.736   5.492 -1.2723  2.7323 -0.4289
   27CHL1   C11 1958   6.739   4.790   5.633 -0.2531  0.1259 -0.6291
   27CHL1  H11A 1959   6.835   4.844   5.650 -1.6261  2.6434 -0.2805
   27CHL1  H11B 1960   6.666   4.862   5.676  3.1143  1.8295  2.8935
   27CHL1    C9 1961   6.738   4.658   5.716  0.4948 -0.3842 -0.3602
   27CHL1    H9 1962   6.633   4.623   5.712  0.2488  0.3381 -0.3504
   27CHL1   C10 1963   6.767   4.678   5.871 -0.2829 -0.9623  1.0606
   27CHL1   C19 1964   6.896   4.758   5.894  0.2411  0.4705  0.1961
   27CHL1  H19A 1965   6.990   4.716   5.852 -0.2994  1.4436 -2.1317
   27CHL1  H19B 1966   6.890   4.860   5.851 -0.9928  1.0891  1.7201
   27CHL1  H19C 1967   6.899   4.772   6.005 -0.0197  0.7892  0.1654
   27CHL1    C1 1968   6.645   4.750   5.941 -0.0350  0.1615 -0.0532
   27CHL1   H1A 1969   6.651   4.856   5.906 -0.7387  0.8263  1.7413
   27CHL1   H1B 1970   6.545   4.716   5.907 -0.7490  1.6475  0.4746
   27CHL1    C2 1971   6.653   4.743   6.096  0.2075 -0.0918 -0.7525
   27CHL1   H2A 1972   6.557   4.788   6.130  0.1576  0.0137 -1.0378
   27CHL1   H2B 1973   6.735   4.813   6.121 -1.5446  0.6805  3.7523
   27CHL1   C20 1974   6.765   4.671   5.146  0.5139 -0.4892  0.0761
   27CHL1   H20 1975   6.874   4.678   5.124 -0.0761  1.9478 -2.6352
   27CHL1   C21 1976   6.717   4.817   5.140 -0.7789  0.3055  0.2624
   27CHL1  H21A 1977   6.731   4.867   5.042 -0.3823  0.0603  0.1909
   27CHL1  H21B 1978   6.765   4.867   5.227 -1.2162  2.2991 -0.6037
   27CHL1  H21C 1979   6.609   4.818   5.167 -0.9167  1.8984 -0.2481
   27CHL1   C22 1980   6.723   4.594   5.019 -0.2923  0.4246  0.1963
   27CHL1  H22A 1981   6.754   4.655   4.931 -0.5767  0.7117  0.2925
   27CHL1  H22B 1982   6.779   4.499   5.003 -0.7973  0.4688 -2.2138
   27CHL1   C23 1983   6.579   4.570   5.001  1.1102  0.5179 -0.2731
   27CHL1  H23A 1984   6.540   4.510   5.087  0.0480 -0.2123 -1.2364
   27CHL1  H23B 1985   6.519   4.662   4.985  2.0781  1.3018  0.4372
   27CHL1   C24 1986   6.553   4.475   4.876 -0.2832 -0.0743  0.0802
   27CHL1  H24A 1987   6.611   4.514   4.790 -0.7087 -1.1672 -0.7224
   27CHL1  H24B 1988   6.591   4.374   4.900  0.3029 -0.1070 -0.9264
   27CHL1   C25 1989   6.403   4.468   4.827  0.0800  0.1807 -0.5687
   27CHL1   H25 1990   6.378   4.571   4.791 -3.8808 -0.3062  0.3253
   27CHL1   C26 1991   6.377   4.365   4.721  0.1498 -0.0397 -0.3207
   27CHL1  H26A 1992   6.284   4.405   4.676  0.8047  1.6917 -0.1931
   27CHL1  H26B 1993   6.462   4.395   4.657  1.5604  3.1828  2.7170
   27CHL1  H26C 1994   6.374   4.259   4.755 -1.3724  0.1758  0.3142
   27CHL1   C27 1995   6.319   4.428   4.950  0.0150  0.3443  0.1273
   27CHL1  H27A 1996   6.354   4.325   4.971  1.1125  0.1076 -2.4552
   27CHL1  H27B 1997   6.340   4.501   5.031  1.0358 -0.9040  1.0404
   27CHL1  H27C 1998   6.210   4.423   4.933 -0.1297 -1.1208  1.2377
   28CHL1    C3 1999   6.124   4.551   6.242  0.8118  0.1525 -0.2245
   28CHL1    H3 2000   6.188   4.462   6.259 -0.0187 -0.3895  0.1574
   28CHL1    O3 2001   6.133   4.621   6.364 -0.5506  0.5954  0.6934
   28CHL1   H3' 2002   6.095   4.709   6.350 -1.6839  0.2640  1.5130
   28CHL1    C4 2003   6.186   4.651   6.149 -0.4105  0.1038 -0.1410
   28CHL1   H4A 2004   6.145   4.753   6.160 -2.2813 -0.6910  0.5800
   28CHL1   H4B 2005   6.294   4.658   6.175 -0.5705  0.4594  0.4481
   28CHL1    C5 2006   6.166   4.618   6.005  0.0270  0.6235  0.7612
   28CHL1    C6 2007   6.263   4.609   5.919 -0.1717  0.9387  0.2791
   28CHL1    H6 2008   6.366   4.632   5.951  0.7152 -2.6285  0.4352
   28CHL1    C7 2009   6.251   4.577   5.769 -0.2744  0.0074 -0.2933
   28CHL1   H7A 2010   6.317   4.644   5.709  0.6764 -0.9852 -0.3880
   28CHL1   H7B 2011   6.291   4.475   5.752 -0.1098 -0.0208  0.2264
   28CHL1    C8 2012   6.107   4.580   5.716 -0.1728 -0.1142  0.6851
   28CHL1    H8 2013   6.089   4.685   5.685 -2.2314 -0.9461 -1.1883
   28CHL1   C14 2014   6.103   4.501   5.584 -0.5512  0.4349 -0.2053
   28CHL1   H14 2015   6.122   4.397   5.619 -0.4950  0.3676 -0.4304
   28CHL1   C15 2016   6.213   4.525   5.481 -0.4932  0.0275 -0.1893
   28CHL1  H15A 2017   6.224   4.632   5.455 -0.6663  0.1827  0.3657
   28CHL1  H15B 2018   6.316   4.492   5.504  0.3547  1.7014 -1.3748
   28CHL1   C16 2019   6.139   4.459   5.352  0.2482 -0.8832 -0.1787
   28CHL1  H16A 2020   6.119   4.535   5.274  4.3586  1.0398  0.3829
   28CHL1  H16B 2021   6.197   4.385   5.294  0.9728  1.7452 -3.0976
   28CHL1   C17 2022   6.005   4.406   5.395 -0.2607  0.2013 -0.2690
   28CHL1   H17 2023   6.030   4.311   5.447  1.7586 -0.1890 -1.8511
   28CHL1   C13 2024   5.967   4.497   5.517 -0.3839 -0.3136  0.4093
   28CHL1   C18 2025   5.934   4.639   5.463 -0.0739 -0.3733  0.4281
   28CHL1  H18A 2026   5.901   4.701   5.550  1.0368  1.5148 -0.4213
   28CHL1  H18B 2027   6.025   4.681   5.414 -0.1174 -0.3186  0.3948
   28CHL1  H18C 2028   5.851   4.644   5.390 -1.5220 -0.6616  2.0016
   28CHL1   C12 2029   5.871   4.432   5.620 -0.0154 -0.4295 -0.0918
   28CHL1  H12A 2030   5.763   4.439   5.598  0.4206 -0.5700 -2.5828
   28CHL1  H12B 2031   5.904   4.330   5.647 -2.9801 -1.0393  1.5547
   28CHL1   C11 2032   5.875   4.506   5.759  0.1681 -0.2024 -0.3627
   28CHL1  H11A 2033   5.836   4.608   5.739 -2.4530 -0.9856  0.3403
   28CHL1  H11B 2034   5.803   4.454   5.826  0.4990  0.4579  0.5243
   28CHL1    C9 2035   6.019   4.519   5.822  0.3682  0.3536 -0.0296
   28CHL1    H9 2036   6.055   4.414   5.830 -0.5806 -0.2576 -2.8537
   28CHL1   C10 2037   6.025   4.588   5.956  0.0441 -0.4848 -0.2063
   28CHL1   C19 2038   5.938   4.712   5.961 -0.4638  0.0285  0.1533
   28CHL1  H19A 2039   5.961   4.783   5.879  1.6018 -0.7104  0.0333
   28CHL1  H19B 2040   5.831   4.683   5.961 -1.1862  2.4776  0.3745
   28CHL1  H19C 2041   5.957   4.758   6.060 -1.0312 -1.9048  1.2140
   28CHL1    C1 2042   5.968   4.482   6.062  0.3730  0.2805 -0.3098
   28CHL1   H1A 2043   5.862   4.455   6.041 -0.4144  0.6919  2.5942
   28CHL1   H1B 2044   6.020   4.384   6.062  0.3669  0.2717  0.1032
   28CHL1    C2 2045   5.981   4.517   6.209 -0.6863 -0.1554 -0.2017
   28CHL1   H2A 2046   5.943   4.436   6.274 -0.7374 -0.9911 -1.2516
   28CHL1   H2B 2047   5.916   4.606   6.226  0.8155  0.3559  4.2383
   28CHL1   C20 2048   5.910   4.370   5.286 -0.2438  0.8110 -0.0593
   28CHL1   H20 2049   5.850   4.456   5.250 -1.2069  0.1199 -0.1204
   28CHL1   C21 2050   5.802   4.270   5.349  0.0686 -0.1803 -0.5207
   28CHL1  H21A 2051   5.720   4.324   5.401  0.8491  0.0812  0.4761
   28CHL1  H21B 2052   5.852   4.207   5.425  1.3176  0.5407 -0.7327
   28CHL1  H21C 2053   5.747   4.207   5.275  0.0526 -0.9172  0.0963
   28CHL1   C22 2054   5.969   4.308   5.157 -0.1662 -1.3125 -0.5309
   28CHL1  H22A 2055   6.055   4.373   5.129  1.6827 -2.7005  1.5025
   28CHL1  H22B 2056   5.998   4.206   5.190 -2.1274 -1.0687  2.2982
   28CHL1   C23 2057   5.884   4.288   5.036  1.7608 -0.0148 -0.2859
   28CHL1  H23A 2058   5.796   4.228   5.066  2.4032 -1.4925 -1.2397
   28CHL1  H23B 2059   5.843   4.387   5.006 -0.0742 -0.0921  1.7534
   28CHL1   C24 2060   5.948   4.229   4.916 -0.1600  0.4452  1.3096
   28CHL1  H24A 2061   6.020   4.299   4.868 -0.4285 -2.1086 -3.4026
   28CHL1  H24B 2062   6.007   4.140   4.947 -1.0158 -0.5336  0.2013
   28CHL1   C25 2063   5.847   4.196   4.798  0.9659  0.2682 -0.1723
   28CHL1   H25 2064   5.785   4.121   4.852  1.0226  0.2821 -0.0875
   28CHL1   C26 2065   5.758   4.317   4.752  0.6351 -0.3343  0.4621
   28CHL1  H26A 2066   5.813   4.413   4.739  0.1270 -0.1554 -0.4752
   28CHL1  H26B 2067   5.702   4.295   4.658  0.2084 -0.4613  0.7462
   28CHL1  H26C 2068   5.694   4.329   4.841 -0.6517 -0.5762 -0.4027
   28CHL1   C27 2069   5.923   4.136   4.681 -0.8059  0.2781  0.2233
   28CHL1  H27A 2070   5.853   4.088   4.609  0.1022 -0.1576 -0.3784
   28CHL1  H27B 2071   5.982   4.211   4.624  0.3988  0.2034  1.3378
   28CHL1  H27C 2072   5.982   4.050   4.717  1.5172  2.2691  1.5127
   29CHL1    C3 2073   6.951   5.720   2.641  0.0120  0.6798 -0.3247
   29CHL1    H3 2074   6.850   5.720   2.687  1.0560 -1.6137  2.1965
   29CHL1    O3 2075   6.953   5.780   2.512  0.4342 -0.1624 -0.6832
   29CHL1   H3' 2076   7.046   5.804   2.510  0.6194 -0.4395  1.7953
   29CHL1    C4 2077   7.026   5.825   2.729  0.4943  0.2690  0.0329
   29CHL1   H4A 2078   7.124   5.838   2.678 -0.5385  1.0345 -1.8719
   29CHL1   H4B 2079   6.988   5.927   2.710 -0.7561 -0.3831 -1.2136
   29CHL1    C5 2080   7.039   5.781   2.874  0.0158  0.1213 -0.0064
   29CHL1    C6 2081   6.981   5.839   2.976 -0.0891 -0.1127  0.6171
   29CHL1    H6 2082   6.928   5.935   2.962 -0.9066 -0.4153  1.5187
   29CHL1    C7 2083   7.000   5.799   3.117 -0.2065 -0.0174 -0.5017
   29CHL1   H7A 2084   7.035   5.889   3.173 -0.5328 -0.6361  0.7223
   29CHL1   H7B 2085   6.910   5.762   3.171  0.0625 -1.7551 -1.1873
   29CHL1    C8 2086   7.105   5.693   3.137  0.2545 -0.2517 -0.3450
   29CHL1    H8 2087   7.205   5.741   3.136  1.4555 -2.6179 -0.8643
   29CHL1   C14 2088   7.085   5.620   3.272  0.1979  0.1285 -0.3160
   29CHL1   H14 2089   6.991   5.561   3.266  1.4557 -1.8805 -1.2792
   29CHL1   C15 2090   7.072   5.704   3.400  0.3508  0.6344 -0.8617
   29CHL1  H15A 2091   7.150   5.783   3.406  1.0813 -0.0975 -0.4764
   29CHL1  H15B 2092   6.967   5.739   3.410 -0.0011 -0.1399 -1.7219
   29CHL1   C16 2093   7.103   5.606   3.518  0.3268  0.6733 -0.3085
   29CHL1  H16A 2094   7.188   5.642   3.578 -0.5232 -0.4995  1.6879
   29CHL1  H16B 2095   7.009   5.590   3.575 -0.2319  0.9179 -1.1269
   29CHL1   C17 2096   7.134   5.469   3.442 -0.3785  0.8683  0.0275
   29CHL1   H17 2097   7.038   5.414   3.430 -0.6794  1.4678 -0.3166
   29CHL1   C13 2098   7.181   5.504   3.297  0.0130 -0.1604 -0.4120
   29CHL1   C18 2099   7.336   5.546   3.300 -0.2590 -0.0114 -0.6119
   29CHL1  H18A 2100   7.395   5.458   3.332 -0.8475  0.1893  1.1054
   29CHL1  H18B 2101   7.374   5.590   3.205 -0.0890  2.7681  0.6472
   29CHL1  H18C 2102   7.351   5.622   3.379 -1.2395 -0.0329 -0.3911
   29CHL1   C12 2103   7.157   5.399   3.186 -0.3421  0.6336  0.3106
   29CHL1  H12A 2104   7.219   5.309   3.205  0.6035  1.1514 -0.2215
   29CHL1  H12B 2105   7.055   5.354   3.187  0.4932 -1.3635 -0.2114
   29CHL1   C11 2106   7.196   5.459   3.057 -0.2666  0.3276  0.8889
   29CHL1  H11A 2107   7.305   5.476   3.049 -0.2874 -0.2344 -1.6258
   29CHL1  H11B 2108   7.168   5.395   2.970 -0.9526 -0.8854  1.9569
   29CHL1    C9 2109   7.102   5.588   3.029  0.0922  0.2677  0.1423
   29CHL1    H9 2110   6.999   5.546   3.035 -0.7685  1.8522 -2.0709
   29CHL1   C10 2111   7.109   5.641   2.883 -0.4003 -0.0604  0.2708
   29CHL1   C19 2112   7.258   5.647   2.845 -0.3589  0.5253 -0.1312
   29CHL1  H19A 2113   7.281   5.718   2.762  2.3864 -0.8522 -0.6657
   29CHL1  H19B 2114   7.330   5.672   2.926  1.7588 -3.3966 -0.5758
   29CHL1  H19C 2115   7.301   5.552   2.807 -0.7958  1.4365 -3.1522
   29CHL1    C1 2116   7.033   5.540   2.792 -0.2564 -0.3457 -0.0598
   29CHL1   H1A 2117   7.076   5.438   2.792  0.1501 -0.1743 -0.1885
   29CHL1   H1B 2118   6.930   5.535   2.834 -1.0700 -0.1427 -1.9310
   29CHL1    C2 2119   7.015   5.576   2.654 -0.6046  0.2672  0.9631
   29CHL1   H2A 2120   6.952   5.498   2.606 -0.8236 -0.2371  2.0232
   29CHL1   H2B 2121   7.111   5.584   2.599 -0.5913  1.2845  1.1226
   29CHL1   C20 2122   7.219   5.387   3.532 -0.7471  0.2629  0.5264
   29CHL1   H20 2123   7.320   5.433   3.539  1.0583 -2.9570 -1.5900
   29CHL1   C21 2124   7.234   5.249   3.465 -0.5956  0.1728  0.1591
   29CHL1  H21A 2125   7.136   5.218   3.422 -0.6885 -0.6239  0.9198
   29CHL1  H21B 2126   7.251   5.179   3.550 -1.1698  1.0608  1.0285
   29CHL1  H21C 2127   7.324   5.248   3.399  0.2967  3.2662  1.1828
   29CHL1   C22 2128   7.169   5.363   3.673  0.3057  0.9347 -0.6989
   29CHL1  H22A 2129   7.124   5.458   3.710  0.5873  1.0530 -0.6541
   29CHL1  H22B 2130   7.102   5.275   3.674 -1.1227  1.9733 -0.5292
   29CHL1   C23 2131   7.278   5.322   3.772 -0.2561 -0.1280  0.0845
   29CHL1  H23A 2132   7.319   5.227   3.730  1.7076  0.8962 -0.3986
   29CHL1  H23B 2133   7.354   5.403   3.774  0.1239 -0.3758 -1.8069
   29CHL1   C24 2134   7.228   5.304   3.910  0.1445  0.2937  0.5117
   29CHL1  H24A 2135   7.160   5.389   3.926 -2.6495 -1.3470 -1.6915
   29CHL1  H24B 2136   7.181   5.203   3.915  0.5935  0.0341 -0.2372
   29CHL1   C25 2137   7.354   5.294   4.007  0.4501 -0.4557 -0.7306
   29CHL1   H25 2138   7.424   5.380   4.005  2.2748 -1.6696  2.4514
   29CHL1   C26 2139   7.287   5.277   4.153 -0.0126 -0.7945  0.1900
   29CHL1  H26A 2140   7.229   5.369   4.176 -1.2874 -0.8722 -2.4004
   29CHL1  H26B 2141   7.225   5.185   4.159 -0.0323 -0.7421  0.8839
   29CHL1  H26C 2142   7.361   5.265   4.235  0.4810  0.7188 -0.0109
   29CHL1   C27 2143   7.425   5.159   3.982 -0.3297  0.5788  1.1362
   29CHL1  H27A 2144   7.495   5.131   4.063  0.8398  0.2010  0.0372
   29CHL1  H27B 2145   7.347   5.079   3.978  1.4110 -1.2715  2.3271
   29CHL1  H27C 2146   7.486   5.159   3.889 -0.8190  0.9866  0.8065
   30CHL1    C3 2147   0.488   5.991   2.604 -0.4864 -0.0436  0.0527
   30CHL1    H3 2148   0.404   5.919   2.595 -0.3467 -0.0826 -1.2207
   30CHL1    O3 2149   0.558   5.980   2.485 -0.1286  0.0687  0.0733
   30CHL1   H3' 2150   0.653   5.990   2.496  0.7624 -1.6508 -3.9746
   30CHL1    C4 2151   0.437   6.135   2.636  0.2771 -1.3921  0.5244
   30CHL1   H4A 2152   0.516   6.213   2.623 -0.8506  0.2796  3.0069
   30CHL1   H4B 2153   0.368   6.153   2.552  0.4382 -0.4311  0.5924
   30CHL1    C5 2154   0.388   6.147   2.782 -0.5146  0.0514 -0.0581
   30CHL1    C6 2155   0.259   6.186   2.816  0.2065  0.2396  0.5065
   30CHL1    H6 2156   0.200   6.220   2.730  2.0590  3.0054  0.2013
   30CHL1    C7 2157   0.211   6.204   2.951  0.6682  0.4224  0.0773
   30CHL1   H7A 2158   0.151   6.296   2.970 -0.6281 -0.3085 -0.2962
   30CHL1   H7B 2159   0.141   6.122   2.980  3.4008 -2.0774  0.0910
   30CHL1    C8 2160   0.327   6.197   3.057  0.9804 -0.2574 -0.2048
   30CHL1    H8 2161   0.371   6.298   3.065 -0.2905  0.1481  3.1639
   30CHL1   C14 2162   0.258   6.166   3.191 -0.3519 -0.0608 -1.2327
   30CHL1   H14 2163   0.211   6.066   3.187  1.8274 -1.1299 -1.2801
   30CHL1   C15 2164   0.156   6.260   3.251  0.6554  0.2149  0.8271
   30CHL1  H15A 2165   0.166   6.365   3.214 -2.7429  0.7615  1.0820
   30CHL1  H15B 2166   0.054   6.234   3.213  1.0512  1.1669 -1.0008
   30CHL1   C16 2167   0.159   6.250   3.400 -0.2536  0.0528 -0.0265
   30CHL1  H16A 2168   0.173   6.352   3.443  1.5804  1.2708 -3.1530
   30CHL1  H16B 2169   0.063   6.215   3.442 -0.2599 -0.2903 -0.3181
   30CHL1   C17 2170   0.271   6.148   3.435  0.4986 -0.3585 -0.1817
   30CHL1   H17 2171   0.214   6.053   3.430  0.5710 -0.3571 -1.2812
   30CHL1   C13 2172   0.360   6.158   3.308 -0.9293 -0.0741 -0.7906
   30CHL1   C18 2173   0.444   6.291   3.329  0.6977 -0.2268 -1.1186
   30CHL1  H18A 2174   0.524   6.308   3.254  0.6633 -0.2053 -1.1508
   30CHL1  H18B 2175   0.380   6.381   3.343 -0.7266 -1.6450  2.8965
   30CHL1  H18C 2176   0.505   6.297   3.421 -1.6622 -0.4605  0.5477
   30CHL1   C12 2177   0.453   6.040   3.286 -0.7033 -0.3443 -0.1197
   30CHL1  H12A 2178   0.532   6.028   3.363 -1.1221  1.2263  0.5994
   30CHL1  H12B 2179   0.386   5.951   3.285 -2.2190  0.6844 -3.4545
   30CHL1   C11 2180   0.528   6.058   3.152 -0.5859 -0.6611  0.2092
   30CHL1  H11A 2181   0.610   6.131   3.165 -0.2502 -1.2142  1.3654
   30CHL1  H11B 2182   0.567   5.958   3.124 -2.2170 -0.8166 -1.7658
   30CHL1    C9 2183   0.432   6.092   3.035 -0.6803 -0.1516  0.3107
   30CHL1    H9 2184   0.367   6.002   3.026  0.7964 -1.0315 -3.1447
   30CHL1   C10 2185   0.495   6.099   2.889  0.4704 -0.4504  0.6946
   30CHL1   C19 2186   0.606   6.207   2.896  0.0437  0.6946 -0.2482
   30CHL1  H19A 2187   0.585   6.290   2.967  0.9470  1.1537 -0.5069
   30CHL1  H19B 2188   0.701   6.160   2.930  0.0998  1.6931  1.0602
   30CHL1  H19C 2189   0.622   6.250   2.795  0.0164  1.3010  0.0049
   30CHL1    C1 2190   0.542   5.954   2.851  0.0262 -0.2311 -0.2465
   30CHL1   H1A 2191   0.628   5.925   2.915  3.2434  0.8200 -3.7637
   30CHL1   H1B 2192   0.460   5.882   2.870 -0.4544  1.0486  3.3667
   30CHL1    C2 2193   0.592   5.951   2.710  0.4907  0.1203  0.2473
   30CHL1   H2A 2194   0.628   5.848   2.690 -0.2151  0.0491 -0.7154
   30CHL1   H2B 2195   0.681   6.017   2.702  1.4016 -0.9209  1.4131
   30CHL1   C20 2196   0.322   6.157   3.575 -0.9933 -0.7210 -0.6199
   30CHL1   H20 2197   0.382   6.251   3.577 -1.1901 -0.5939  0.9080
   30CHL1   C21 2198   0.410   6.035   3.611 -0.9585 -0.4061  0.4461
   30CHL1  H21A 2199   0.371   5.944   3.560 -1.1811  0.6212 -1.3124
   30CHL1  H21B 2200   0.413   6.009   3.719  0.6065 -2.1129  0.0529
   30CHL1  H21C 2201   0.515   6.042   3.575  0.2018 -1.5654  3.3268
   30CHL1   C22 2202   0.206   6.164   3.676 -0.0773  0.1068 -0.1475
   30CHL1  H22A 2203   0.137   6.245   3.645  1.0158  1.0270 -0.2505
   30CHL1  H22B 2204   0.160   6.063   3.676 -0.7448  0.3829  1.4556
   30CHL1   C23 2205   0.246   6.188   3.814 -0.2912 -0.8227 -0.1843
   30CHL1  H23A 2206   0.296   6.098   3.855  3.2437  1.0217 -0.0503
   30CHL1  H23B 2207   0.314   6.276   3.811 -1.5432  0.1438 -2.7592
   30CHL1   C24 2208   0.125   6.224   3.909 -0.3698 -0.1032 -0.4960
   30CHL1  H24A 2209   0.078   6.312   3.861 -1.1282  0.5411  1.3367
   30CHL1  H24B 2210   0.052   6.140   3.906 -1.1435  0.5416 -0.1839
   30CHL1   C25 2211   0.152   6.255   4.057  1.0344  0.0202  0.3685
   30CHL1   H25 2212   0.050   6.266   4.100 -0.9037 -0.3468 -3.6632
   30CHL1   C26 2213   0.224   6.137   4.125 -0.3801  0.0621 -0.6452
   30CHL1  H26A 2214   0.189   6.042   4.079 -0.6830 -1.4890  2.5799
   30CHL1  H26B 2215   0.332   6.147   4.104  0.1697  3.1455  2.7022
   30CHL1  H26C 2216   0.200   6.130   4.233 -2.5535  2.3955 -0.8910
   30CHL1   C27 2217   0.231   6.390   4.071  0.0226 -0.1633  0.1107
   30CHL1  H27A 2218   0.339   6.367   4.078  0.3667  1.7626  2.1014
   30CHL1  H27B 2219   0.210   6.464   3.991  3.9800 -0.2395 -1.2017
   30CHL1  H27C 2220   0.208   6.442   4.166  0.5245  0.4612 -0.1027
   31CHL1    C3 2221   6.196   6.856   3.311  0.0847  0.1261 -0.0315
   31CHL1    H3 2222   6.258   6.765   3.326 -1.2111 -0.4140  2.7670
   31CHL1    O3 2223   6.159   6.886   3.179 -0.1741  0.4169  0.3487
   31CHL1   H3' 2224   6.087   6.949   3.177 -1.4872 -1.0353 -0.8900
   31CHL1    C4 2225   6.069   6.844   3.398 -0.3542  0.2124  0.6113
   31CHL1   H4A 2226   6.009   6.937   3.389 -1.2707 -0.4527 -0.3430
   31CHL1   H4B 2227   6.019   6.753   3.358 -2.2824  2.2822 -2.0352
   31CHL1    C5 2228   6.103   6.822   3.540 -0.3024 -0.1839 -0.1660
   31CHL1    C6 2229   6.053   6.713   3.603  0.8628  0.1614  0.0596
   31CHL1    H6 2230   5.982   6.644   3.553  0.2436 -0.0543  1.2019
   31CHL1    C7 2231   6.076   6.682   3.751 -0.3168  0.3964 -0.3725
   31CHL1   H7A 2232   5.983   6.645   3.799 -1.2747  0.6604 -1.9520
   31CHL1   H7B 2233   6.152   6.602   3.766 -1.3097 -1.0908 -2.7330
   31CHL1    C8 2234   6.123   6.810   3.831  0.1131 -0.5023 -0.4761
   31CHL1    H8 2235   6.034   6.875   3.846 -0.5514 -1.9628  2.7397
   31CHL1   C14 2236   6.171   6.767   3.970 -0.0692  0.4502 -0.1856
   31CHL1   H14 2237   6.249   6.694   3.944 -1.0108 -1.4724  2.0389
   31CHL1   C15 2238   6.076   6.696   4.064  0.3085  0.2619  0.0845
   31CHL1  H15A 2239   5.978   6.746   4.076  1.0967  1.8129  0.3143
   31CHL1  H15B 2240   6.062   6.593   4.025  2.5500  0.3659 -1.1704
   31CHL1   C16 2241   6.159   6.682   4.195  0.0029  0.0900 -0.3575
   31CHL1  H16A 2242   6.087   6.687   4.279 -0.3466 -3.9474 -0.2111
   31CHL1  H16B 2243   6.195   6.578   4.209 -0.9303 -0.2901 -0.6329
   31CHL1   C17 2244   6.278   6.773   4.178  0.2339 -0.1482 -0.2967
   31CHL1   H17 2245   6.362   6.704   4.153 -0.9841 -1.1345 -1.8414
   31CHL1   C13 2246   6.239   6.864   4.058 -0.1970  0.0398  0.4970
   31CHL1   C18 2247   6.137   6.978   4.087 -0.0640 -0.2252  0.3992
   31CHL1  H18A 2248   6.100   7.025   3.993  0.1453 -0.2771  0.2893
   31CHL1  H18B 2249   6.050   6.940   4.144  0.1029  0.3512  1.0543
   31CHL1  H18C 2250   6.182   7.061   4.146  0.0598  0.1055 -0.1480
   31CHL1   C12 2251   6.363   6.920   3.974  0.0742  0.4284 -0.0100
   31CHL1  H12A 2252   6.400   7.002   4.039  2.4674 -0.4410 -0.1879
   31CHL1  H12B 2253   6.447   6.847   3.981 -0.7722 -0.7763 -1.7109
   31CHL1   C11 2254   6.339   6.971   3.830  0.7929  0.0939  0.4870
   31CHL1  H11A 2255   6.288   7.070   3.835 -2.4250 -1.2735 -1.8434
   31CHL1  H11B 2256   6.439   6.973   3.783  0.6558 -2.9935 -0.0959
   31CHL1    C9 2257   6.240   6.874   3.753  0.2891 -0.3437  0.0055
   31CHL1    H9 2258   6.306   6.787   3.734 -0.5415 -1.6903  2.8062
   31CHL1   C10 2259   6.200   6.927   3.609 -0.2480  0.0345 -0.0203
   31CHL1   C19 2260   6.127   7.060   3.631  0.1995  0.0030  0.5963
   31CHL1  H19A 2261   6.182   7.134   3.693 -1.1881  0.5197  1.2512
   31CHL1  H19B 2262   6.091   7.115   3.542  1.0075  0.7760  0.7266
   31CHL1  H19C 2263   6.036   7.038   3.691  0.1249 -1.0696  0.1184
   31CHL1    C1 2264   6.323   6.945   3.508 -0.2230  0.6285 -0.0413
   31CHL1   H1A 2265   6.383   7.027   3.552 -0.9509  0.5400  1.1548
   31CHL1   H1B 2266   6.381   6.851   3.524 -1.9867 -0.1558  2.2422
   31CHL1    C2 2267   6.281   6.970   3.367 -0.0604  0.1510 -0.6029
   31CHL1   H2A 2268   6.373   6.987   3.307 -0.3355  1.1694 -0.7561
   31CHL1   H2B 2269   6.222   7.063   3.353 -0.0702  0.2137 -0.1482
   31CHL1   C20 2270   6.324   6.835   4.316  0.9337  0.1853 -0.1698
   31CHL1   H20 2271   6.389   6.920   4.284  0.4107  0.3402 -0.8433
   31CHL1   C21 2272   6.420   6.738   4.394  0.3502 -0.3607  0.2725
   31CHL1  H21A 2273   6.362   6.650   4.429 -1.7754  0.8285 -0.0237
   31CHL1  H21B 2274   6.462   6.784   4.486  2.5468 -0.8975 -0.4010
   31CHL1  H21C 2275   6.512   6.713   4.338 -0.1221 -1.0129 -0.2322
   31CHL1   C22 2276   6.207   6.896   4.401  0.2455  0.0387  0.2779
   31CHL1  H22A 2277   6.135   6.945   4.332 -0.6864 -2.4378 -0.6258
   31CHL1  H22B 2278   6.155   6.814   4.456 -0.9764  0.4368 -0.2527
   31CHL1   C23 2279   6.259   6.987   4.508 -0.1691 -0.4344 -0.7868
   31CHL1  H23A 2280   6.323   6.926   4.575 -0.7625 -1.2175 -0.9214
   31CHL1  H23B 2281   6.314   7.074   4.466 -2.7171  1.9522  0.4794
   31CHL1   C24 2282   6.143   7.044   4.591 -0.2352  0.0182 -0.0032
   31CHL1  H24A 2283   6.113   7.134   4.533  1.0664 -1.2049 -2.7666
   31CHL1  H24B 2284   6.063   6.968   4.586 -0.4801  0.3449 -2.2682
   31CHL1   C25 2285   6.188   7.078   4.731  0.0758  0.1795  0.1241
   31CHL1   H25 2286   6.248   6.993   4.770 -2.4168 -1.1800  1.2390
   31CHL1   C26 2287   6.284   7.197   4.730  0.6245 -0.0106  0.1913
   31CHL1  H26A 2288   6.236   7.282   4.676 -1.5762 -0.6346  1.0738
   31CHL1  H26B 2289   6.307   7.233   4.832  0.8503  0.6351 -0.0769
   31CHL1  H26C 2290   6.384   7.181   4.684  1.4632  1.5224  1.3719
   31CHL1   C27 2291   6.071   7.108   4.831 -0.2886 -0.1676 -0.5632
   31CHL1  H27A 2292   5.995   7.027   4.828 -0.5970  0.1539 -1.6392
   31CHL1  H27B 2293   6.120   7.104   4.931 -2.7931 -0.4351  0.7191
   31CHL1  H27C 2294   6.028   7.209   4.815 -1.5019 -0.4413  0.7234
   32CHL1    C3 2295   6.631   6.525   3.224  0.2701  0.0337 -0.6240
   32CHL1    H3 2296   6.583   6.425   3.230  1.1279 -0.3038  0.9983
   32CHL1    O3 2297   6.643   6.577   3.094  1.0334 -0.0531  0.4827
   32CHL1   H3' 2298   6.682   6.665   3.096 -0.0173  0.4712 -0.4785
   32CHL1    C4 2299   6.536   6.613   3.303  0.1867 -0.6763 -0.7292
   32CHL1   H4A 2300   6.574   6.717   3.305 -1.7011  0.0348  0.0967
   32CHL1   H4B 2301   6.439   6.611   3.248  0.1494  3.4081 -1.1101
   32CHL1    C5 2302   6.524   6.556   3.441 -0.2721 -0.2632 -0.4518
   32CHL1    C6 2303   6.415   6.495   3.488 -0.2021 -0.2366  0.1930
   32CHL1    H6 2304   6.331   6.483   3.417  0.1979  2.7585 -0.9577
   32CHL1    C7 2305   6.401   6.430   3.618  0.5580  0.3477  0.0661
   32CHL1   H7A 2306   6.312   6.468   3.672  1.0455  2.8072 -0.7376
   32CHL1   H7B 2307   6.397   6.320   3.603 -0.1923  0.5037 -1.0592
   32CHL1    C8 2308   6.513   6.468   3.715  0.4317 -0.3682  0.2902
   32CHL1    H8 2309   6.502   6.575   3.742  0.6135  0.0616 -1.2570
   32CHL1   C14 2310   6.507   6.382   3.841 -0.1134  0.2065  0.1674
   32CHL1   H14 2311   6.522   6.280   3.799 -0.0728  0.0870  0.4668
   32CHL1   C15 2312   6.374   6.378   3.922 -0.1138  0.2226 -0.3535
   32CHL1  H15A 2313   6.344   6.483   3.939  1.5584  0.8900 -1.2949
   32CHL1  H15B 2314   6.296   6.333   3.856  0.3593 -0.2634 -0.5966
   32CHL1   C16 2315   6.411   6.299   4.050 -0.4380 -0.1117 -0.2486
   32CHL1  H16A 2316   6.374   6.338   4.147 -0.3501  2.5934 -1.2280
   32CHL1  H16B 2317   6.364   6.198   4.051 -2.8322  0.8970  2.0768
   32CHL1   C17 2318   6.571   6.296   4.052 -0.1022 -0.4362  0.0805
   32CHL1   H17 2319   6.609   6.198   4.014  1.6668  0.2627 -0.0457
   32CHL1   C13 2320   6.616   6.412   3.951  0.4192  0.1663  0.1688
   32CHL1   C18 2321   6.586   6.545   4.010 -0.0333  0.6109 -0.4407
   32CHL1  H18A 2322   6.514   6.535   4.094  0.2302  2.9275  0.1419
   32CHL1  H18B 2323   6.677   6.594   4.050 -0.2262  1.4830 -1.0300
   32CHL1  H18C 2324   6.544   6.619   3.938  0.1776  0.9468 -0.2237
   32CHL1   C12 2325   6.753   6.399   3.878 -0.0090  0.1934 -0.6881
   32CHL1  H12A 2326   6.838   6.428   3.944  0.5071 -2.0896 -0.2857
   32CHL1  H12B 2327   6.771   6.291   3.860  1.3838 -0.2438  2.5771
   32CHL1   C11 2328   6.763   6.487   3.750 -0.2605 -0.7567  0.1663
   32CHL1  H11A 2329   6.756   6.593   3.781  1.3041 -0.3595 -0.7322
   32CHL1  H11B 2330   6.863   6.487   3.702 -1.2831  0.9335 -2.1296
   32CHL1    C9 2331   6.652   6.455   3.640  0.2823 -0.0955 -0.0766
   32CHL1    H9 2332   6.674   6.351   3.608 -0.8667 -1.0795  2.1142
   32CHL1   C10 2333   6.654   6.551   3.516  0.2137 -0.3032 -0.2257
   32CHL1   C19 2334   6.697   6.692   3.546  0.1418 -0.3208 -0.3999
   32CHL1  H19A 2335   6.641   6.730   3.634 -0.0210  1.5652 -1.2701
   32CHL1  H19B 2336   6.800   6.695   3.588 -0.6067 -3.6903  2.0465
   32CHL1  H19C 2337   6.684   6.763   3.462  1.8618 -0.0288 -0.4567
   32CHL1    C1 2338   6.770   6.493   3.423  1.0388 -0.2782  0.0251
   32CHL1   H1A 2339   6.864   6.523   3.474 -0.0914  0.6089  1.6876
   32CHL1   H1B 2340   6.745   6.386   3.409 -1.4020 -0.0658  2.0923
   32CHL1    C2 2341   6.764   6.539   3.281 -0.4230  0.1829 -0.3929
   32CHL1   H2A 2342   6.844   6.476   3.235 -1.5105 -1.7942  0.3516
   32CHL1   H2B 2343   6.804   6.643   3.273 -0.3007  0.3307  1.7796
   32CHL1   C20 2344   6.623   6.305   4.193  0.0808 -0.2259 -0.1160
   32CHL1   H20 2345   6.607   6.406   4.236  1.5350  0.4334 -1.0330
   32CHL1   C21 2346   6.775   6.316   4.187  0.2343 -0.0124  0.4462
   32CHL1  H21A 2347   6.811   6.415   4.151 -0.0881 -0.6916 -1.8778
   32CHL1  H21B 2348   6.822   6.232   4.131 -0.7033 -1.7516  2.1615
   32CHL1  H21C 2349   6.817   6.303   4.289  0.8873  0.3358  0.2298
   32CHL1   C22 2350   6.575   6.191   4.288  0.3327  0.3758 -0.8101
   32CHL1  H22A 2351   6.465   6.183   4.274  0.3456 -1.0936 -0.2282
   32CHL1  H22B 2352   6.615   6.094   4.254 -2.0841 -0.5043 -1.3387
   32CHL1   C23 2353   6.616   6.222   4.439 -0.3718  0.5450  0.3645
   32CHL1  H23A 2354   6.602   6.128   4.497  2.5673 -0.9891 -1.1711
   32CHL1  H23B 2355   6.724   6.245   4.451 -0.1269 -0.9146  1.1922
   32CHL1   C24 2356   6.540   6.342   4.500 -0.0750 -0.5348  0.0647
   32CHL1  H24A 2357   6.564   6.446   4.468 -3.1012  0.3548  0.3673
   32CHL1  H24B 2358   6.436   6.319   4.468  0.3358 -0.5705 -1.3214
   32CHL1   C25 2359   6.551   6.351   4.658  0.2004  0.6646  0.7093
   32CHL1   H25 2360   6.528   6.248   4.693 -0.4254  0.0366 -1.3371
   32CHL1   C26 2361   6.703   6.374   4.697 -0.3650 -0.0239  0.4807
   32CHL1  H26A 2362   6.715   6.370   4.807 -1.2002 -0.9548  0.5557
   32CHL1  H26B 2363   6.770   6.291   4.665 -1.8999 -0.7087 -1.1324
   32CHL1  H26C 2364   6.736   6.471   4.655 -2.6919 -0.0812 -1.8033
   32CHL1   C27 2365   6.456   6.450   4.716 -0.1401 -0.0600 -0.2077
   32CHL1  H27A 2366   6.444   6.548   4.664 -2.9046 -0.7112 -0.9885
   32CHL1  H27B 2367   6.358   6.399   4.703 -1.0336  1.0443  1.7322
   32CHL1  H27C 2368   6.478   6.474   4.822 -2.5651  0.7333  0.1958
   33CHL1    C3 2369   4.185   4.215   6.051 -0.1556  0.0866 -0.7450
   33CHL1    H3 2370   4.088   4.162   6.055 -0.3751  0.5249 -0.1771
   33CHL1    O3 2371   4.212   4.262   6.179  0.1280 -0.4391 -0.7730
   33CHL1   H3' 2372   4.223   4.186   6.237 -0.5257 -0.6588 -0.9255
   33CHL1    C4 2373   4.302   4.129   6.008 -0.1212  0.0077  0.2185
   33CHL1   H4A 2374   4.392   4.194   6.019  0.7498 -1.3375  1.5300
   33CHL1   H4B 2375   4.325   4.043   6.075  1.5697  1.1350  1.1702
   33CHL1    C5 2376   4.302   4.087   5.862  0.1137  0.5518  0.0757
   33CHL1    C6 2377   4.316   3.956   5.833  0.3721  0.6437  0.9674
   33CHL1    H6 2378   4.342   3.880   5.908  1.2306  0.3065  0.3461
   33CHL1    C7 2379   4.336   3.912   5.691  0.4420 -0.5670 -0.1628
   33CHL1   H7A 2380   4.422   3.844   5.680  0.0618 -0.8954 -1.2825
   33CHL1   H7B 2381   4.250   3.849   5.660  1.0009 -2.1798  1.4281
   33CHL1    C8 2382   4.343   4.028   5.586 -0.6350  0.3700  0.3886
   33CHL1    H8 2383   4.446   4.070   5.585 -0.6677  0.4652 -1.4616
   33CHL1   C14 2384   4.324   3.973   5.441  0.6551 -0.2691 -0.6383
   33CHL1   H14 2385   4.223   3.927   5.438  1.4005 -1.9563 -0.9949
   33CHL1   C15 2386   4.406   3.851   5.399 -0.6057 -0.0903 -1.0869
   33CHL1  H15A 2387   4.515   3.868   5.412 -0.6612 -0.5928  0.1627
   33CHL1  H15B 2388   4.372   3.762   5.455  0.9786  1.0900  2.0180
   33CHL1   C16 2389   4.373   3.840   5.254  0.4763 -0.0605  0.6104
   33CHL1  H16A 2390   4.467   3.833   5.196 -0.8263 -1.1045 -1.5225
   33CHL1  H16B 2391   4.313   3.755   5.215 -0.4359  0.6695  0.3870
   33CHL1   C17 2392   4.292   3.969   5.213 -0.7597 -0.1006  0.3996
   33CHL1   H17 2393   4.181   3.960   5.219 -0.8315  0.1339 -0.4298
   33CHL1   C13 2394   4.328   4.071   5.322  0.5377  0.1786  0.2929
   33CHL1   C18 2395   4.468   4.132   5.304  0.2413  0.1335 -0.7570
   33CHL1  H18A 2396   4.517   4.164   5.398  0.4441  1.4413 -1.2918
   33CHL1  H18B 2397   4.528   4.045   5.269 -1.9730 -2.1477  0.6848
   33CHL1  H18C 2398   4.468   4.216   5.232 -4.5080  1.2306  0.1562
   33CHL1   C12 2399   4.222   4.182   5.355  0.4715  0.5046  1.1652
   33CHL1  H12A 2400   4.208   4.262   5.280 -2.8078 -1.9051 -1.1176
   33CHL1  H12B 2401   4.121   4.136   5.367  1.2677 -1.8823 -0.4835
   33CHL1   C11 2402   4.252   4.246   5.491  0.2143 -0.1056 -0.7793
   33CHL1  H11A 2403   4.349   4.297   5.476 -0.5577  2.1323  1.1762
   33CHL1  H11B 2404   4.180   4.325   5.523  1.3455  0.8083 -0.4318
   33CHL1    C9 2405   4.250   4.144   5.618 -0.1518 -0.8883  0.4967
   33CHL1    H9 2406   4.145   4.106   5.617 -1.0997  1.5675 -0.2732
   33CHL1   C10 2407   4.270   4.198   5.762 -0.7874 -0.7362  0.0724
   33CHL1   C19 2408   4.392   4.305   5.763  0.6713  0.0317 -0.4619
   33CHL1  H19A 2409   4.476   4.264   5.704  1.9269 -1.6223  2.3094
   33CHL1  H19B 2410   4.364   4.407   5.726  1.7117  0.0189 -1.3389
   33CHL1  H19C 2411   4.435   4.335   5.861  0.3879  0.7011 -0.5354
   33CHL1    C1 2412   4.153   4.282   5.808  0.2293  0.2063  0.5575
   33CHL1   H1A 2413   4.145   4.374   5.745  0.0492 -0.4511 -0.4047
   33CHL1   H1B 2414   4.057   4.226   5.805  0.2389 -0.0897  3.3790
   33CHL1    C2 2415   4.171   4.332   5.953 -0.1490 -0.0246 -0.3588
   33CHL1   H2A 2416   4.069   4.369   5.978  0.3852  0.9393  0.4557
   33CHL1   H2B 2417   4.246   4.410   5.976  0.3342 -0.5424 -0.1361
   33CHL1   C20 2418   4.316   3.997   5.062 -0.0972  0.2848  0.2189
   33CHL1   H20 2419   4.425   4.004   5.042  0.3209 -1.1664  1.7631
   33CHL1   C21 2420   4.251   4.136   5.028  0.0772  0.0562  0.0799
   33CHL1  H21A 2421   4.302   4.214   5.088 -1.6730 -0.2767  2.1151
   33CHL1  H21B 2422   4.142   4.148   5.044 -0.0574 -1.2233  0.2663
   33CHL1  H21C 2423   4.264   4.159   4.919 -1.9917  2.3013  0.2256
   33CHL1   C22 2424   4.238   3.896   4.978 -0.2484 -0.2645  0.0646
   33CHL1  H22A 2425   4.240   3.797   5.029  2.1170 -0.6608 -0.6603
   33CHL1  H22B 2426   4.137   3.940   4.965  1.1194  3.5490  0.9512
   33CHL1   C23 2427   4.301   3.886   4.841  0.0485  0.4161 -0.7651
   33CHL1  H23A 2428   4.301   3.986   4.793  0.8918  1.5413  1.4594
   33CHL1  H23B 2429   4.402   3.840   4.846  0.6116  1.7189  0.5183
   33CHL1   C24 2430   4.233   3.789   4.748  0.0036  0.0569 -0.2688
   33CHL1  H24A 2431   4.210   3.704   4.816 -0.2463  0.3359 -0.0007
   33CHL1  H24B 2432   4.132   3.827   4.720 -0.4683 -2.3725 -2.1341
   33CHL1   C25 2433   4.300   3.733   4.626  0.2056  0.1694  0.2455
   33CHL1   H25 2434   4.384   3.670   4.661 -2.2525 -1.8110  2.9797
   33CHL1   C26 2435   4.201   3.643   4.539  0.0847 -0.7797  0.5521
   33CHL1  H26A 2436   4.106   3.695   4.512 -0.3831 -2.2065 -0.7203
   33CHL1  H26B 2437   4.239   3.621   4.437 -0.1722  0.9764  0.0429
   33CHL1  H26C 2438   4.175   3.547   4.588 -3.0604  0.5050  1.6566
   33CHL1   C27 2439   4.371   3.836   4.529  0.3449  0.2939 -0.1074
   33CHL1  H27A 2440   4.466   3.872   4.574  0.1601 -0.6637  1.0889
   33CHL1  H27B 2441   4.403   3.785   4.435 -0.3524 -1.0633  0.3596
   33CHL1  H27C 2442   4.307   3.922   4.502  0.1201 -0.2096 -1.2120
   34CHL1    C3 2443   0.976   6.911   3.441 -0.6700 -0.1937 -0.3109
   34CHL1    H3 2444   0.964   7.014   3.480 -0.7902 -0.3161 -0.0235
   34CHL1    O3 2445   1.034   6.911   3.313 -0.0312 -0.0293  0.1474
   34CHL1   H3' 2446   0.993   6.989   3.275 -1.6981 -0.9086  0.0506
   34CHL1    C4 2447   1.073   6.839   3.542 -0.1327 -0.0893 -0.1371
   34CHL1   H4A 2448   1.091   6.745   3.485  0.1938  0.2217 -0.5489
   34CHL1   H4B 2449   1.168   6.896   3.551  0.7062 -1.7568  3.4924
   34CHL1    C5 2450   0.996   6.831   3.675  0.2942 -0.0883  0.4257
   34CHL1    C6 2451   1.055   6.875   3.786 -0.2007 -0.7036 -0.1820
   34CHL1    H6 2452   1.146   6.937   3.783 -2.0431  2.2492  0.1242
   34CHL1    C7 2453   0.994   6.857   3.925 -0.1814  0.8982 -1.4136
   34CHL1   H7A 2454   1.072   6.838   4.002 -1.9641  0.3259  0.3298
   34CHL1   H7B 2455   0.950   6.952   3.963 -1.4454 -0.3092  0.3584
   34CHL1    C8 2456   0.897   6.737   3.929  0.1331 -0.4801  0.3398
   34CHL1    H8 2457   0.951   6.640   3.932  0.8545 -0.0731  3.5912
   34CHL1   C14 2458   0.807   6.739   4.047 -0.5181 -0.1609 -0.6146
   34CHL1   H14 2459   0.744   6.831   4.054 -1.4421 -0.8956  2.5383
   34CHL1   C15 2460   0.874   6.751   4.187  0.3098  0.4676  0.5011
   34CHL1  H15A 2461   0.963   6.686   4.201  0.6100  0.8895  0.5502
   34CHL1  H15B 2462   0.891   6.861   4.182 -4.1166  1.3062 -3.5251
   34CHL1   C16 2463   0.762   6.713   4.278  0.1001  0.3021 -0.0992
   34CHL1  H16A 2464   0.807   6.651   4.358  1.1366 -0.2894 -1.1027
   34CHL1  H16B 2465   0.724   6.801   4.333 -1.9019  0.0081 -0.9273
   34CHL1   C17 2466   0.647   6.648   4.200  0.0633 -0.1882 -0.1900
   34CHL1   H17 2467   0.580   6.735   4.180 -1.2996 -0.9111  1.0429
   34CHL1   C13 2468   0.710   6.620   4.061  0.4148 -0.4433 -0.0882
   34CHL1   C18 2469   0.782   6.478   4.067  0.1605  0.6654  0.4778
   34CHL1  H18A 2470   0.861   6.472   3.989 -0.5466  0.6374 -0.2606
   34CHL1  H18B 2471   0.838   6.472   4.162  0.8645  2.2874  0.2079
   34CHL1  H18C 2472   0.707   6.396   4.066  0.6189  0.2218 -1.3462
   34CHL1   C12 2473   0.609   6.633   3.943 -0.7099 -0.2822  0.7382
   34CHL1  H12A 2474   0.543   6.544   3.945  0.5818 -1.3908 -1.5202
   34CHL1  H12B 2475   0.559   6.730   3.960 -2.1262 -0.9850  0.6952
   34CHL1   C11 2476   0.689   6.637   3.815 -0.2185  0.2506 -1.2540
   34CHL1  H11A 2477   0.737   6.538   3.800  2.1054  0.9208  0.9415
   34CHL1  H11B 2478   0.618   6.658   3.733 -2.0965 -2.0017 -0.3266
   34CHL1    C9 2479   0.796   6.741   3.811 -0.3480 -0.8995 -1.0247
   34CHL1    H9 2480   0.736   6.833   3.823  2.3479  0.7002  1.6471
   34CHL1   C10 2481   0.869   6.756   3.671  0.2891 -0.6451  0.1683
   34CHL1   C19 2482   0.885   6.618   3.607 -0.2417  0.1153 -0.1398
   34CHL1  H19A 2483   0.783   6.583   3.583 -0.0381 -0.8852  0.4088
   34CHL1  H19B 2484   0.939   6.614   3.511  2.4434  0.9295  1.2171
   34CHL1  H19C 2485   0.931   6.544   3.676  1.2739 -1.9028 -3.0956
   34CHL1    C1 2486   0.773   6.835   3.579 -0.2319 -0.0660  0.6494
   34CHL1   H1A 2487   0.674   6.785   3.567 -0.1141  0.3471 -4.1583
   34CHL1   H1B 2488   0.756   6.938   3.617  0.2665 -0.7307  2.8142
   34CHL1    C2 2489   0.836   6.847   3.436  0.2182 -0.4135  0.6873
   34CHL1   H2A 2490   0.767   6.909   3.376  0.3418  1.2571  2.1989
   34CHL1   H2B 2491   0.841   6.746   3.389 -0.5283  0.0971 -0.5136
   34CHL1   C20 2492   0.571   6.535   4.268 -0.7501 -0.1971 -0.0692
   34CHL1   H20 2493   0.555   6.465   4.184 -0.1865 -0.7426  0.2729
   34CHL1   C21 2494   0.428   6.583   4.308 -0.0220 -0.5254 -0.9994
   34CHL1  H21A 2495   0.372   6.631   4.225  1.0596 -0.8954 -1.9761
   34CHL1  H21B 2496   0.444   6.667   4.378 -0.0217  0.0022 -1.6173
   34CHL1  H21C 2497   0.365   6.503   4.354 -0.9005  0.8818  0.3160
   34CHL1   C22 2498   0.639   6.465   4.383 -0.5516 -0.4564  1.0837
   34CHL1  H22A 2499   0.745   6.442   4.362 -1.6148 -2.4885 -2.9479
   34CHL1  H22B 2500   0.625   6.542   4.462  0.0245  0.7747  0.0199
   34CHL1   C23 2501   0.591   6.322   4.409  0.1737 -0.0514 -0.1975
   34CHL1  H23A 2502   0.490   6.312   4.453 -0.3609 -0.6251 -1.4876
   34CHL1  H23B 2503   0.593   6.269   4.311 -0.9354 -1.4196  0.4721
   34CHL1   C24 2504   0.689   6.245   4.497 -0.7827 -0.4334 -0.5031
   34CHL1  H24A 2505   0.780   6.220   4.438 -1.8511  0.0600 -2.4132
   34CHL1  H24B 2506   0.719   6.318   4.576  1.7618 -1.2123 -0.6363
   34CHL1   C25 2507   0.634   6.122   4.566  0.0750  0.2148  0.3681
   34CHL1   H25 2508   0.543   6.153   4.621 -0.0339 -1.4849  1.2122
   34CHL1   C26 2509   0.585   6.017   4.465  0.6663  0.2514  0.1015
   34CHL1  H26A 2510   0.514   6.059   4.390 -0.1051  2.2822  1.8812
   34CHL1  H26B 2511   0.666   5.970   4.405  1.4434  3.1623 -1.2997
   34CHL1  H26C 2512   0.542   5.931   4.521  1.2091 -0.4762 -0.5749
   34CHL1   C27 2513   0.731   6.064   4.672  0.5731  0.2404  0.2083
   34CHL1  H27A 2514   0.821   6.024   4.621  0.0334  0.6065 -1.0800
   34CHL1  H27B 2515   0.765   6.147   4.737 -1.0833  3.0458 -2.2811
   34CHL1  H27C 2516   0.689   5.998   4.751  1.3799 -0.3080  0.1994
   35CHL1    C3 2517   3.852   6.618   4.078 -0.3800 -0.0491  0.3393
   35CHL1    H3 2518   3.752   6.641   4.121 -0.7268  1.0049 -0.9494
   35CHL1    O3 2519   3.866   6.685   3.952  0.3249 -0.0345  0.1283
   35CHL1   H3' 2520   3.935   6.638   3.904 -0.2933  0.4492 -1.2758
   35CHL1    C4 2521   3.956   6.662   4.182 -0.5147 -0.4242 -0.3074
   35CHL1   H4A 2522   4.055   6.648   4.134 -0.5313  0.4489 -0.6047
   35CHL1   H4B 2523   3.955   6.772   4.192 -1.6582 -0.2330 -2.1389
   35CHL1    C5 2524   3.964   6.587   4.315 -0.6090  0.1379  0.1345
   35CHL1    C6 2525   3.981   6.651   4.431 -0.7697 -0.3053 -0.4950
   35CHL1    H6 2526   3.997   6.759   4.424 -1.8834 -0.1193 -0.4469
   35CHL1    C7 2527   3.979   6.582   4.565 -0.3424  0.6804  0.8853
   35CHL1   H7A 2528   4.060   6.621   4.631  1.4041 -1.2250 -0.0158
   35CHL1   H7B 2529   3.879   6.589   4.613 -1.1966 -0.9747 -0.5206
   35CHL1    C8 2530   4.003   6.426   4.554 -0.2315 -0.8018  0.1804
   35CHL1    H8 2531   4.112   6.418   4.536  0.1173  2.2190  0.3146
   35CHL1   C14 2532   3.969   6.360   4.687  0.9592 -0.4928 -0.6011
   35CHL1   H14 2533   3.859   6.371   4.693  1.0120  2.1990 -2.6923
   35CHL1   C15 2534   4.026   6.425   4.817  0.0346  0.0267  0.0284
   35CHL1  H15A 2535   4.124   6.468   4.788 -1.2564  1.9876 -1.7138
   35CHL1  H15B 2536   3.966   6.509   4.857 -1.1281 -1.0012  0.5478
   35CHL1   C16 2537   4.026   6.306   4.918  0.2530  0.8187 -0.2935
   35CHL1  H16A 2538   4.134   6.287   4.930  0.5603  2.0769 -0.8441
   35CHL1  H16B 2539   3.974   6.321   5.015 -1.8750  2.4792 -1.5865
   35CHL1   C17 2540   3.961   6.184   4.844 -0.5777 -0.7700  0.1563
   35CHL1   H17 2541   3.851   6.197   4.851 -0.5939 -1.2533  0.9870
   35CHL1   C13 2542   3.995   6.205   4.697  0.5283  0.2936  0.5737
   35CHL1   C18 2543   4.151   6.183   4.667  0.0818 -0.2279 -0.2033
   35CHL1  H18A 2544   4.204   6.250   4.740 -1.6575  0.1026  0.8166
   35CHL1  H18B 2545   4.177   6.078   4.689 -0.7819 -0.6758 -1.2755
   35CHL1  H18C 2546   4.182   6.212   4.565  1.0919  3.2984  0.9380
   35CHL1   C12 2547   3.911   6.144   4.583  0.8576  0.3291 -0.2075
   35CHL1  H12A 2548   3.935   6.037   4.568 -2.2130 -0.5378  0.4227
   35CHL1  H12B 2549   3.810   6.148   4.631  1.6817  0.2716  1.6428
   35CHL1   C11 2550   3.927   6.219   4.443  0.5240  0.9040  0.4404
   35CHL1  H11A 2551   4.028   6.184   4.413 -0.9208 -0.9722 -2.9342
   35CHL1  H11B 2552   3.862   6.175   4.364  0.4434 -1.3350  1.6677
   35CHL1    C9 2553   3.920   6.369   4.440  0.5964 -0.0522 -0.0273
   35CHL1    H9 2554   3.813   6.394   4.460  0.0876 -1.2159 -1.1753
   35CHL1   C10 2555   3.956   6.427   4.301  0.3235 -0.5704 -0.1109
   35CHL1   C19 2556   4.092   6.377   4.249 -0.5537  0.4162  0.1302
   35CHL1  H19A 2557   4.137   6.433   4.164  0.0124 -0.1106  0.0754
   35CHL1  H19B 2558   4.167   6.372   4.331 -0.1324  1.1264 -0.2059
   35CHL1  H19C 2559   4.080   6.271   4.216  1.6265 -0.7226  2.6496
   35CHL1    C1 2560   3.840   6.394   4.191 -0.4415 -0.0051 -0.4095
   35CHL1   H1A 2561   3.842   6.285   4.170  0.3496  0.1001 -0.9135
   35CHL1   H1B 2562   3.740   6.422   4.231 -0.3227  0.0570 -0.1497
   35CHL1    C2 2563   3.863   6.467   4.058 -0.4395  0.5100  0.4170
   35CHL1   H2A 2564   3.794   6.430   3.980  0.8006 -0.2694 -0.3473
   35CHL1   H2B 2565   3.966   6.449   4.019 -1.3088 -0.3647 -1.6336
   35CHL1   C20 2566   3.997   6.048   4.912 -0.2325  0.5009 -0.6613
   35CHL1   H20 2567   4.108   6.040   4.908 -0.1000 -0.1796  2.4182
   35CHL1   C21 2568   3.936   5.925   4.831 -0.0383  0.6341 -0.5293
   35CHL1  H21A 2569   3.961   5.824   4.870 -0.0789  0.5969 -0.5992
   35CHL1  H21B 2570   3.972   5.922   4.727  0.1398 -1.5816 -0.4572
   35CHL1  H21C 2571   3.825   5.931   4.830 -0.2129 -1.6955 -2.3304
   35CHL1   C22 2572   3.969   6.046   5.065  0.0322 -0.1142  0.7243
   35CHL1  H22A 2573   4.031   6.127   5.109  0.4371  0.1986 -0.3739
   35CHL1  H22B 2574   3.861   6.059   5.086  0.1897  0.2702  1.3092
   35CHL1   C23 2575   4.016   5.923   5.142 -0.0257 -0.5544 -0.4105
   35CHL1  H23A 2576   3.952   5.835   5.118 -0.2362 -1.1916  2.1981
   35CHL1  H23B 2577   4.122   5.892   5.128  0.0906 -0.5840  0.5029
   35CHL1   C24 2578   3.995   5.944   5.290  0.5110  0.0529  0.0192
   35CHL1  H24A 2579   4.070   6.012   5.334  0.6536 -1.7603  2.8414
   35CHL1  H24B 2580   3.900   5.995   5.316 -0.1407 -0.8924 -0.4307
   35CHL1   C25 2581   4.001   5.817   5.374  0.6010  0.7090 -0.4562
   35CHL1   H25 2582   3.926   5.745   5.336  0.5316  1.7227 -2.3639
   35CHL1   C26 2583   4.137   5.749   5.374 -0.1210  0.0802 -0.7049
   35CHL1  H26A 2584   4.211   5.821   5.415  0.1521  0.7562 -2.3126
   35CHL1  H26B 2585   4.143   5.658   5.438 -0.4058 -0.2764 -1.1812
   35CHL1  H26C 2586   4.152   5.705   5.274  0.3517  0.7728 -0.9503
   35CHL1   C27 2587   3.969   5.847   5.522  0.4084 -0.8173  0.7933
   35CHL1  H27A 2588   3.956   5.749   5.573  0.3421  0.3133  3.0709
   35CHL1  H27B 2589   4.050   5.911   5.565 -1.1944  1.7881  0.1833
   35CHL1  H27C 2590   3.877   5.909   5.524  0.9865  0.2268 -1.6417
   36CHL1    C3 2591   5.319   0.792   3.383 -0.6063  0.3443  0.7955
   36CHL1    H3 2592   5.426   0.762   3.394  0.5347  2.8885 -1.9976
   36CHL1    O3 2593   5.280   0.784   3.243 -0.5761  0.4500  0.0272
   36CHL1   H3' 2594   5.187   0.758   3.241 -1.1417  2.3251 -1.5403
   36CHL1    C4 2595   5.220   0.706   3.463 -0.3385 -0.3900  0.4252
   36CHL1   H4A 2596   5.111   0.722   3.447 -0.6531 -2.5156  0.2268
   36CHL1   H4B 2597   5.245   0.604   3.427  0.8265 -0.1222  0.4333
   36CHL1    C5 2598   5.240   0.734   3.606 -0.2556 -0.9203 -0.2550
   36CHL1    C6 2599   5.269   0.638   3.686  0.2057 -0.2036 -0.2533
   36CHL1    H6 2600   5.265   0.536   3.645 -4.3343 -1.0652  1.7072
   36CHL1    C7 2601   5.268   0.644   3.836 -0.9615  0.0188 -0.2946
   36CHL1   H7A 2602   5.213   0.561   3.885  2.5116 -0.4467  3.3120
   36CHL1   H7B 2603   5.367   0.646   3.886 -1.4942  2.2531  0.7900
   36CHL1    C8 2604   5.198   0.771   3.886  0.8581 -0.0676  0.3918
   36CHL1    H8 2605   5.087   0.765   3.885  0.8562 -1.2184  1.9374
   36CHL1   C14 2606   5.227   0.795   4.035  0.5862 -0.0610 -0.2002
   36CHL1   H14 2607   5.337   0.810   4.042  1.2405 -2.8039 -2.5989
   36CHL1   C15 2608   5.190   0.684   4.138  0.5192  0.1945 -0.4802
   36CHL1  H15A 2609   5.093   0.636   4.111  0.0065  0.0979  1.4124
   36CHL1  H15B 2610   5.267   0.604   4.133 -0.3444 -0.5998 -3.2841
   36CHL1   C16 2611   5.194   0.744   4.280 -0.0851  0.4519 -0.0417
   36CHL1  H16A 2612   5.096   0.721   4.327  0.9771 -2.6338  0.8969
   36CHL1  H16B 2613   5.281   0.707   4.338  1.4993  0.4492 -2.2824
   36CHL1   C17 2614   5.210   0.901   4.253  0.5610  0.1184 -0.1238
   36CHL1   H17 2615   5.321   0.915   4.256  0.8275 -1.8046  2.1184
   36CHL1   C13 2616   5.180   0.921   4.105 -0.7634  0.2453  0.4706
   36CHL1   C18 2617   5.025   0.934   4.088  0.4803 -0.4952 -0.7180
   36CHL1  H18A 2618   5.001   0.906   3.983  0.0922 -0.9043 -0.5281
   36CHL1  H18B 2619   4.972   0.851   4.141 -2.7595  0.4456 -2.1976
   36CHL1  H18C 2620   4.991   1.037   4.111 -0.6523 -0.9954 -0.0529
   36CHL1   C12 2621   5.242   1.042   4.027 -0.2698  0.3428 -0.0365
   36CHL1  H12A 2622   5.201   1.135   4.072  1.4924  0.7526  0.8199
   36CHL1  H12B 2623   5.349   1.057   4.051 -0.5629  2.9948 -0.0777
   36CHL1   C11 2624   5.208   1.034   3.873 -0.4472 -0.2713  0.2805
   36CHL1  H11A 2625   5.099   1.055   3.871 -0.4544 -0.1703 -2.6512
   36CHL1  H11B 2626   5.269   1.113   3.823 -1.2838 -0.0589 -0.4323
   36CHL1    C9 2627   5.244   0.897   3.804  0.0567 -0.0505 -1.1868
   36CHL1    H9 2628   5.354   0.894   3.814 -0.0201 -0.2358 -0.3048
   36CHL1   C10 2629   5.214   0.878   3.659 -1.0403  1.0390  0.3001
   36CHL1   C19 2630   5.073   0.928   3.632 -0.5415 -0.1619  0.5656
   36CHL1  H19A 2631   5.006   0.891   3.713 -2.3253  2.4761  0.4177
   36CHL1  H19B 2632   5.053   1.036   3.646 -1.9677 -0.3458  0.1204
   36CHL1  H19C 2633   5.037   0.897   3.532  1.3960  1.9924 -0.8832
   36CHL1    C1 2634   5.316   0.960   3.574  0.1784 -0.1257  0.8501
   36CHL1   H1A 2635   5.287   1.063   3.601 -0.7774  0.3415 -1.7039
   36CHL1   H1B 2636   5.421   0.933   3.598  1.1136 -1.9160 -3.9484
   36CHL1    C2 2637   5.294   0.943   3.422 -0.6678 -0.2645 -0.2891
   36CHL1   H2A 2638   5.369   1.000   3.363 -1.0504  2.0250  1.3102
   36CHL1   H2B 2639   5.192   0.966   3.386 -0.4545  3.3275  1.0552
   36CHL1   C20 2640   5.154   0.997   4.359 -0.3369  0.2908  0.7017
   36CHL1   H20 2641   5.044   0.988   4.358 -0.4460  1.5445  1.0093
   36CHL1   C21 2642   5.209   1.142   4.335  0.3102  0.2521  0.0366
   36CHL1  H21A 2643   5.317   1.131   4.311  0.1241 -1.0190 -0.2908
   36CHL1  H21B 2644   5.191   1.197   4.430  0.7845  2.1902 -0.9300
   36CHL1  H21C 2645   5.156   1.189   4.249  0.0377 -2.3554 -1.3210
   36CHL1   C22 2646   5.197   0.948   4.506  0.1300  0.3175  0.8449
   36CHL1  H22A 2647   5.154   1.015   4.584 -1.1079  1.7991 -1.0139
   36CHL1  H22B 2648   5.156   0.845   4.512 -1.2348  0.7079 -0.8174
   36CHL1   C23 2649   5.355   0.933   4.518 -0.0779 -0.3282  0.3052
   36CHL1  H23A 2650   5.375   0.849   4.449  1.3827  1.1995 -1.2343
   36CHL1  H23B 2651   5.400   1.029   4.484 -2.2278 -0.1933 -2.4330
   36CHL1   C24 2652   5.408   0.897   4.664 -0.2790  0.0699 -0.0199
   36CHL1  H24A 2653   5.376   0.973   4.738  0.2259  0.0663  0.2057
   36CHL1  H24B 2654   5.368   0.796   4.684  0.1399 -0.1998 -0.5209
   36CHL1   C25 2655   5.564   0.895   4.672  0.5947 -0.7032 -0.4082
   36CHL1   H25 2656   5.590   0.990   4.619 -2.1916  0.1594 -0.3925
   36CHL1   C26 2657   5.613   0.939   4.812 -0.6203  0.3065 -0.0793
   36CHL1  H26A 2658   5.589   0.855   4.881 -0.0256  1.1568  1.1858
   36CHL1  H26B 2659   5.723   0.945   4.801 -0.6292  4.3889  0.3855
   36CHL1  H26C 2660   5.590   1.034   4.864  1.8964 -0.5848  2.9888
   36CHL1   C27 2661   5.637   0.775   4.609  1.2554  0.0012  0.3518
   36CHL1  H27A 2662   5.745   0.800   4.607  1.1584  0.5793 -2.7982
   36CHL1  H27B 2663   5.614   0.677   4.657 -0.2855 -0.9209 -2.0850
   36CHL1  H27C 2664   5.612   0.758   4.503  2.7456  1.5846 -0.3051
   37CHL1    C3 2665   3.597   6.896   4.228  0.4989 -0.5922  0.7414
   37CHL1    H3 2666   3.685   6.841   4.187  0.2209 -0.7992  0.4216
   37CHL1    O3 2667   3.589   7.033   4.180  0.0313  0.1749  0.0221
   37CHL1   H3' 2668   3.609   7.013   4.088 -0.3227  0.5790 -0.1464
   37CHL1    C4 2669   3.464   6.836   4.192  0.7029 -0.6232  0.2361
   37CHL1   H4A 2670   3.378   6.898   4.229  0.8019 -0.4585  0.1931
   37CHL1   H4B 2671   3.452   6.839   4.082 -2.3270  1.7160  0.4702
   37CHL1    C5 2672   3.461   6.696   4.244 -0.3075  0.4417 -0.2911
   37CHL1    C6 2673   3.457   6.586   4.166  1.0926 -0.1633 -0.3011
   37CHL1    H6 2674   3.440   6.597   4.058  0.8744 -1.1795 -0.3866
   37CHL1    C7 2675   3.445   6.446   4.216  0.3993 -0.9281  0.1687
   37CHL1   H7A 2676   3.354   6.388   4.187 -0.8804  0.9032  0.3408
   37CHL1   H7B 2677   3.533   6.388   4.182  1.8286  0.6460  1.0045
   37CHL1    C8 2678   3.427   6.440   4.361 -0.6487 -0.1937 -0.5463
   37CHL1    H8 2679   3.323   6.475   4.374 -0.7563 -0.3847 -0.8621
   37CHL1   C14 2680   3.453   6.295   4.414  0.7682  0.2395 -0.3379
   37CHL1   H14 2681   3.560   6.280   4.389  1.3420  1.7558  0.9925
   37CHL1   C15 2682   3.360   6.182   4.347 -0.1526  0.2023 -0.0124
   37CHL1  H15A 2683   3.251   6.200   4.351 -0.3431 -1.0402  1.1277
   37CHL1  H15B 2684   3.388   6.155   4.243 -0.9697 -2.0463  0.2926
   37CHL1   C16 2685   3.384   6.062   4.440 -0.3433 -0.0130  0.2648
   37CHL1  H16A 2686   3.282   6.033   4.474  0.3403 -2.2984  0.5599
   37CHL1  H16B 2687   3.434   5.976   4.391  0.2554  0.3679  0.2016
   37CHL1   C17 2688   3.469   6.118   4.563 -0.1087 -0.3031 -0.2773
   37CHL1   H17 2689   3.576   6.125   4.535 -0.1449  2.3950 -0.0173
   37CHL1   C13 2690   3.436   6.268   4.561 -0.6106  0.1496  0.4366
   37CHL1   C18 2691   3.294   6.293   4.608 -0.0975 -0.1060 -0.0230
   37CHL1  H18A 2692   3.285   6.260   4.713  0.8893  1.1863  0.4881
   37CHL1  H18B 2693   3.262   6.399   4.598  0.5125  0.2761  1.8444
   37CHL1  H18C 2694   3.221   6.235   4.546  0.3599 -0.2792 -0.4049
   37CHL1   C12 2695   3.539   6.361   4.629  0.4805 -0.2620  0.0749
   37CHL1  H12A 2696   3.516   6.360   4.738  0.1353  0.7129  0.0193
   37CHL1  H12B 2697   3.646   6.337   4.613  0.5584 -0.0957  0.3251
   37CHL1   C11 2698   3.515   6.513   4.589  0.6225  1.1395  0.0215
   37CHL1  H11A 2699   3.423   6.549   4.640  0.2213  0.9346 -0.5505
   37CHL1  H11B 2700   3.593   6.571   4.643 -0.0445  1.1751  0.9568
   37CHL1    C9 2701   3.522   6.535   4.436 -0.2613  0.4029  0.1517
   37CHL1    H9 2702   3.623   6.512   4.398 -0.2602 -1.1053  0.9961
   37CHL1   C10 2703   3.488   6.680   4.398 -0.0638 -0.4404  0.1175
   37CHL1   C19 2704   3.364   6.739   4.472 -0.0470 -0.1617 -0.2173
   37CHL1  H19A 2705   3.395   6.743   4.578 -1.0077 -1.0124  0.1161
   37CHL1  H19B 2706   3.333   6.840   4.436 -0.8123 -0.9908 -1.9813
   37CHL1  H19C 2707   3.276   6.671   4.466 -1.0055  1.0049  0.1038
   37CHL1    C1 2708   3.612   6.764   4.443  0.0182  0.2782 -0.6027
   37CHL1   H1A 2709   3.604   6.775   4.553  2.5658  1.1535 -0.4354
   37CHL1   H1B 2710   3.704   6.703   4.431 -0.2390 -0.6187  1.5847
   37CHL1    C2 2711   3.629   6.902   4.371 -1.1682 -0.0077 -0.2004
   37CHL1   H2A 2712   3.731   6.941   4.390 -1.4222  0.3193  0.5235
   37CHL1   H2B 2713   3.564   6.971   4.429  1.9305  2.8485  0.1465
   37CHL1   C20 2714   3.458   6.028   4.688 -0.1544 -1.1208  0.0710
   37CHL1   H20 2715   3.361   6.046   4.738 -0.0655 -0.3265 -0.0334
   37CHL1   C21 2716   3.564   6.069   4.792 -0.4533  0.2783 -0.8324
   37CHL1  H21A 2717   3.545   6.173   4.826  0.7737  0.4192 -0.5388
   37CHL1  H21B 2718   3.664   6.051   4.748 -1.0794  1.6824 -2.9641
   37CHL1  H21C 2719   3.570   6.005   4.883  0.2599  1.3720 -0.0962
   37CHL1   C22 2720   3.475   5.880   4.653  0.2212  0.2880  0.7239
   37CHL1  H22A 2721   3.403   5.837   4.580 -0.3160 -2.6446  2.7720
   37CHL1  H22B 2722   3.570   5.879   4.596  0.4089 -2.4575  0.9518
   37CHL1   C23 2723   3.480   5.786   4.773  0.1298 -0.1415 -1.0811
   37CHL1  H23A 2724   3.466   5.679   4.746 -0.4741 -0.4369  0.3293
   37CHL1  H23B 2725   3.577   5.785   4.826 -0.0291 -1.7436 -0.7531
   37CHL1   C24 2726   3.362   5.816   4.871  0.5266  0.9288 -0.1814
   37CHL1  H24A 2727   3.368   5.918   4.916 -3.7834  1.0740  0.5003
   37CHL1  H24B 2728   3.271   5.823   4.808 -0.3455  0.5425  0.9887
   37CHL1   C25 2729   3.351   5.719   4.994  0.0564  0.1141 -0.0105
   37CHL1   H25 2730   3.320   5.620   4.953 -1.9224 -0.2092  2.0644
   37CHL1   C26 2731   3.472   5.717   5.088 -0.1651  0.2852  0.9220
   37CHL1  H26A 2732   3.500   5.821   5.115  1.3225 -0.2156  1.4093
   37CHL1  H26B 2733   3.455   5.659   5.182  2.9374 -0.1052  1.3741
   37CHL1  H26C 2734   3.561   5.677   5.034  0.4409  0.7909  1.5288
   37CHL1   C27 2735   3.229   5.766   5.073  0.3076 -0.0809 -0.0173
   37CHL1  H27A 2736   3.257   5.865   5.114  0.2443 -0.0943  0.0581
   37CHL1  H27B 2737   3.136   5.743   5.018 -0.1083 -0.5575  0.8528
   37CHL1  H27C 2738   3.222   5.691   5.155  0.3391 -0.6431 -0.5187
   38CHL1    C3 2739   6.550   5.577   2.666 -0.0906 -0.3210 -0.4474
   38CHL1    H3 2740   6.659   5.594   2.651  0.1967  0.5386  2.1299
   38CHL1    O3 2741   6.478   5.606   2.543 -0.1903 -0.1276  0.1554
   38CHL1   H3' 2742   6.386   5.620   2.568  0.2830 -0.7784  2.4586
   38CHL1    C4 2743   6.527   5.433   2.724  0.0238 -0.0291  0.2850
   38CHL1   H4A 2744   6.418   5.416   2.725 -0.0873  0.6494  0.1985
   38CHL1   H4B 2745   6.575   5.366   2.650 -0.0343  0.1534  0.0833
   38CHL1    C5 2746   6.594   5.425   2.862  0.9119  0.7375 -0.0276
   38CHL1    C6 2747   6.679   5.326   2.899 -0.2372  0.2628  0.2575
   38CHL1    H6 2748   6.704   5.257   2.816 -4.1170 -2.7067  1.2729
   38CHL1    C7 2749   6.762   5.302   3.018 -0.1229 -0.7538 -0.5539
   38CHL1   H7A 2750   6.769   5.193   3.039 -1.1885 -0.6112  0.7316
   38CHL1   H7B 2751   6.864   5.348   3.016 -1.0735  1.5007 -1.1421
   38CHL1    C8 2752   6.679   5.370   3.128 -0.5848 -0.1447 -0.5429
   38CHL1    H8 2753   6.584   5.315   3.139 -0.3597 -0.6110 -0.9034
   38CHL1   C14 2754   6.744   5.360   3.263 -0.6641  1.3839  0.2236
   38CHL1   H14 2755   6.837   5.421   3.262  0.2628  0.0922  1.9427
   38CHL1   C15 2756   6.792   5.216   3.306  0.1763  0.0292 -0.6240
   38CHL1  H15A 2757   6.708   5.148   3.282 -1.7878  2.6319 -1.5570
   38CHL1  H15B 2758   6.887   5.196   3.252  2.3460  2.5288  1.9300
   38CHL1   C16 2759   6.818   5.227   3.460  0.3242  0.5038  0.6607
   38CHL1  H16A 2760   6.761   5.150   3.515  0.2461  0.9048  1.1497
   38CHL1  H16B 2761   6.928   5.217   3.474  0.4777  1.0538 -0.0976
   38CHL1   C17 2762   6.763   5.366   3.504  0.0164  0.0135 -0.5423
   38CHL1   H17 2763   6.850   5.435   3.515  0.2671 -0.4280  0.4233
   38CHL1   C13 2764   6.669   5.408   3.386  0.5020  0.3471  0.0772
   38CHL1   C18 2765   6.521   5.346   3.390 -0.0562  0.1929  0.0804
   38CHL1  H18A 2766   6.465   5.355   3.294 -0.0052 -1.6995 -0.1632
   38CHL1  H18B 2767   6.521   5.236   3.400 -0.5220  0.0900 -0.8706
   38CHL1  H18C 2768   6.467   5.397   3.473  1.5622 -2.1911  2.7744
   38CHL1   C12 2769   6.662   5.561   3.352  0.0386 -0.4481  0.2017
   38CHL1  H12A 2770   6.610   5.613   3.436  2.0412 -0.3965  1.4746
   38CHL1  H12B 2771   6.766   5.600   3.359  0.6856 -2.2092  0.9392
   38CHL1   C11 2772   6.592   5.591   3.220  0.5432  0.0844  0.6330
   38CHL1  H11A 2773   6.485   5.565   3.230 -0.2426  1.8250 -2.2635
   38CHL1  H11B 2774   6.597   5.694   3.181 -0.2321 -0.0999  0.0161
   38CHL1    C9 2775   6.643   5.514   3.099 -0.5032  0.1286  0.9129
   38CHL1    H9 2776   6.741   5.561   3.073 -0.0415 -1.0544  0.3899
   38CHL1   C10 2777   6.557   5.524   2.966 -0.2726 -0.1024  0.0396
   38CHL1   C19 2778   6.410   5.495   3.009 -0.2153  0.4733 -0.2163
   38CHL1  H19A 2779   6.406   5.408   3.078 -2.7254  1.1150  0.5660
   38CHL1  H19B 2780   6.367   5.574   3.074  1.1331  1.0937 -0.0473
   38CHL1  H19C 2781   6.338   5.482   2.925  1.4245 -1.5708 -1.3940
   38CHL1    C1 2782   6.577   5.669   2.899 -0.1729 -0.2200  0.7755
   38CHL1   H1A 2783   6.541   5.744   2.973 -0.1132 -0.2571  0.8416
   38CHL1   H1B 2784   6.686   5.685   2.890  0.1320 -1.9294  1.2345
   38CHL1    C2 2785   6.503   5.685   2.764  0.1477  0.1995  0.4770
   38CHL1   H2A 2786   6.508   5.783   2.712  0.4376  0.6202  1.2869
   38CHL1   H2B 2787   6.397   5.662   2.787  0.3595  1.2933  2.9009
   38CHL1   C20 2788   6.699   5.365   3.640  0.4106  1.0144  0.4061
   38CHL1   H20 2789   6.621   5.287   3.625  2.8588 -1.2952 -1.4342
   38CHL1   C21 2790   6.647   5.503   3.678  0.8452 -0.6374  0.1467
   38CHL1  H21A 2791   6.625   5.497   3.786  0.4433 -0.1966  0.0893
   38CHL1  H21B 2792   6.549   5.530   3.632  1.7313  0.1189 -1.4017
   38CHL1  H21C 2793   6.721   5.586   3.670 -0.4758  0.7218  1.6105
   38CHL1   C22 2794   6.801   5.319   3.748 -0.6059 -0.3127 -0.5501
   38CHL1  H22A 2795   6.860   5.230   3.718  0.4421 -0.2162  1.1315
   38CHL1  H22B 2796   6.874   5.402   3.764 -0.0526 -0.8552 -0.2280
   38CHL1   C23 2797   6.732   5.268   3.884  0.1302 -0.2559  0.3240
   38CHL1  H23A 2798   6.717   5.362   3.942  1.6776  0.6169 -0.6229
   38CHL1  H23B 2799   6.641   5.211   3.856 -0.0090 -1.2238  2.5448
   38CHL1   C24 2800   6.826   5.182   3.968  0.4846  0.1046  0.0889
   38CHL1  H24A 2801   6.848   5.090   3.910 -0.3255  0.2323 -0.4187
   38CHL1  H24B 2802   6.916   5.246   3.980  0.8543 -0.0255 -1.7179
   38CHL1   C25 2803   6.771   5.141   4.104  0.4135  1.1333  0.0202
   38CHL1   H25 2804   6.762   5.238   4.158 -0.7423  1.5835 -0.9373
   38CHL1   C26 2805   6.635   5.065   4.102 -0.2127  0.3076 -0.5204
   38CHL1  H26A 2806   6.560   5.129   4.050 -0.2986  0.4253 -0.2546
   38CHL1  H26B 2807   6.644   4.974   4.040  0.1922 -0.3688  0.4988
   38CHL1  H26C 2808   6.614   5.037   4.207 -1.4225  0.1294 -0.7993
   38CHL1   C27 2809   6.883   5.068   4.176 -0.0469 -0.0117 -0.7799
   38CHL1  H27A 2810   6.845   5.047   4.278  1.6612 -1.1170 -0.3397
   38CHL1  H27B 2811   6.916   4.969   4.136  2.2076  0.4352 -0.1355
   38CHL1  H27C 2812   6.973   5.131   4.185  1.4812 -2.2816  0.9535
   39CHL1    C3 2813   6.281   6.189   3.094  0.0788 -0.4650  0.8071
   39CHL1    H3 2814   6.391   6.182   3.077 -0.1748 -2.6313 -0.3039
   39CHL1    O3 2815   6.233   6.257   2.976 -0.0098 -0.1468 -0.0738
   39CHL1   H3' 2816   6.282   6.339   2.966 -1.5252  0.6548 -1.5938
   39CHL1    C4 2817   6.203   6.060   3.107  0.1316  0.3602  0.8313
   39CHL1   H4A 2818   6.094   6.082   3.094  0.0660 -0.8235 -1.0779
   39CHL1   H4B 2819   6.226   5.998   3.017  0.9408  0.7827  0.7399
   39CHL1    C5 2820   6.239   5.982   3.232 -1.3025  1.0608 -0.2854
   39CHL1    C6 2821   6.295   5.863   3.234  0.8356  0.2505 -0.3513
   39CHL1    H6 2822   6.318   5.819   3.136  0.6833 -1.1842  0.2304
   39CHL1    C7 2823   6.310   5.775   3.358  0.2862  0.0081  0.2643
   39CHL1   H7A 2824   6.255   5.680   3.337 -0.0830  0.2003  0.3577
   39CHL1   H7B 2825   6.414   5.750   3.387 -0.5792 -0.5700  3.2482
   39CHL1    C8 2826   6.233   5.832   3.476  0.3738 -0.3719 -0.7071
   39CHL1    H8 2827   6.130   5.798   3.452  1.0858 -1.6909 -2.0818
   39CHL1   C14 2828   6.286   5.769   3.604 -0.3674  0.0224 -0.3050
   39CHL1   H14 2829   6.394   5.795   3.600 -0.2011 -0.6998 -0.6909
   39CHL1   C15 2830   6.268   5.623   3.626 -0.3894 -0.3345  0.6714
   39CHL1  H15A 2831   6.163   5.593   3.606 -0.3914  1.7155 -3.3873
   39CHL1  H15B 2832   6.332   5.550   3.572 -2.1535 -1.3144 -0.2176
   39CHL1   C16 2833   6.290   5.610   3.780 -0.3416  0.2846 -0.0372
   39CHL1  H16A 2834   6.203   5.555   3.822 -0.5251  0.3951 -0.2730
   39CHL1  H16B 2835   6.376   5.544   3.802 -1.2608 -1.1583 -0.6793
   39CHL1   C17 2836   6.302   5.750   3.847 -0.1517 -0.0044  1.1507
   39CHL1   H17 2837   6.410   5.775   3.838  0.4235 -2.3023  0.9645
   39CHL1   C13 2838   6.230   5.840   3.739  0.0104 -0.5825  0.4039
   39CHL1   C18 2839   6.077   5.827   3.760 -0.0833  0.5992 -0.1773
   39CHL1  H18A 2840   6.004   5.872   3.690 -1.2987  0.4724  0.9630
   39CHL1  H18B 2841   6.055   5.718   3.760  0.9828  0.0103 -6.3163
   39CHL1  H18C 2842   6.037   5.877   3.851 -1.0573  0.9815 -0.8030
   39CHL1   C12 2843   6.262   5.988   3.737  0.1949 -0.5068  0.1636
   39CHL1  H12A 2844   6.225   6.034   3.830  1.5021 -1.2026  1.0641
   39CHL1  H12B 2845   6.372   6.007   3.736  0.3618 -1.1161  2.1972
   39CHL1   C11 2846   6.203   6.054   3.619  0.3849  0.2122  0.9459
   39CHL1  H11A 2847   6.094   6.033   3.622  0.2592  0.9062  1.2583
   39CHL1  H11B 2848   6.219   6.164   3.619  0.6607  0.2001 -0.5506
   39CHL1    C9 2849   6.250   5.988   3.481 -0.6663 -0.7336 -0.7591
   39CHL1    H9 2850   6.360   6.004   3.488 -1.0396  1.6178  0.9985
   39CHL1   C10 2851   6.212   6.063   3.353 -0.1160 -0.4424 -0.1742
   39CHL1   C19 2852   6.057   6.099   3.361  0.2488 -0.6524  0.3099
   39CHL1  H19A 2853   6.008   6.005   3.394  0.6765 -0.5273  1.3140
   39CHL1  H19B 2854   6.038   6.182   3.432 -0.1132 -1.4094  1.1174
   39CHL1  H19C 2855   6.012   6.139   3.267 -0.1803  2.1200  1.5953
   39CHL1    C1 2856   6.284   6.204   3.345  0.3166 -0.1342 -0.2125
   39CHL1   H1A 2857   6.260   6.266   3.434  2.1478 -2.8376  2.3472
   39CHL1   H1B 2858   6.390   6.173   3.352  0.1636 -0.4223  1.3038
   39CHL1    C2 2859   6.259   6.282   3.219  0.0093 -1.0062  0.7354
   39CHL1   H2A 2860   6.322   6.373   3.209 -0.5550 -0.7792 -1.1307
   39CHL1   H2B 2861   6.155   6.321   3.214  0.7829  1.3889  1.6807
   39CHL1   C20 2862   6.261   5.757   3.991  0.2463 -0.1972 -0.0226
   39CHL1   H20 2863   6.155   5.788   3.986 -0.6142 -3.0489 -2.2956
   39CHL1   C21 2864   6.322   5.884   4.055  0.3306 -0.1857 -0.0313
   39CHL1  H21A 2865   6.274   5.978   4.020  1.6204  0.1678 -0.9210
   39CHL1  H21B 2866   6.427   5.888   4.020  0.0146  1.6785 -0.9063
   39CHL1  H21C 2867   6.335   5.870   4.165 -0.4001 -3.1663 -0.2246
   39CHL1   C22 2868   6.274   5.636   4.080  0.0598  0.1960 -0.9134
   39CHL1  H22A 2869   6.224   5.657   4.178  0.5827  0.1459 -0.6332
   39CHL1  H22B 2870   6.215   5.554   4.033 -3.7283  0.7859  2.2281
   39CHL1   C23 2871   6.424   5.585   4.104 -0.2320 -0.0916  0.6973
   39CHL1  H23A 2872   6.475   5.585   4.005 -0.0381 -1.2572  0.7840
   39CHL1  H23B 2873   6.482   5.655   4.168 -0.0270 -1.5469  2.1652
   39CHL1   C24 2874   6.447   5.442   4.163  0.1239 -0.1155 -0.3733
   39CHL1  H24A 2875   6.387   5.380   4.092 -2.4853  2.0875 -0.2388
   39CHL1  H24B 2876   6.551   5.403   4.154  1.1684  2.1144  1.0053
   39CHL1   C25 2877   6.397   5.406   4.311 -0.3376 -0.0804  0.4091
   39CHL1   H25 2878   6.295   5.447   4.329  0.7431  2.8365  0.2283
   39CHL1   C26 2879   6.397   5.254   4.328  0.1084 -0.0320  0.0202
   39CHL1  H26A 2880   6.358   5.226   4.428  0.1943 -0.0668  0.0447
   39CHL1  H26B 2881   6.338   5.196   4.254 -1.8146  2.0050 -0.1562
   39CHL1  H26C 2882   6.500   5.216   4.313 -1.2547 -4.0292 -0.3480
   39CHL1   C27 2883   6.486   5.468   4.417 -0.2708 -0.2645 -0.3215
   39CHL1  H27A 2884   6.523   5.566   4.381  1.8319 -1.6044 -2.1381
   39CHL1  H27B 2885   6.430   5.491   4.510  0.7519  1.3234 -0.0657
   39CHL1  H27C 2886   6.571   5.401   4.439  2.3057  3.2517  1.2471
   40CHL1    C3 2887   2.432   5.466   2.722 -0.2000 -1.0648  0.5742
   40CHL1    H3 2888   2.384   5.561   2.754  0.1253 -0.2864 -1.1730
   40CHL1    O3 2889   2.439   5.460   2.579  0.3953 -0.2507 -0.0376
   40CHL1   H3' 2890   2.363   5.409   2.552 -0.9754  0.9184  1.4148
   40CHL1    C4 2891   2.572   5.456   2.771 -0.3739 -0.7003 -0.5674
   40CHL1   H4A 2892   2.635   5.380   2.718  2.5040  0.6213  0.7175
   40CHL1   H4B 2893   2.617   5.555   2.752 -1.4458 -0.2063 -0.5935
   40CHL1    C5 2894   2.581   5.423   2.920  0.7508 -1.0861  0.0932
   40CHL1    C6 2895   2.663   5.493   2.999 -0.0026 -0.8427 -0.1147
   40CHL1    H6 2896   2.713   5.581   2.957  1.1357 -0.7783  1.3039
   40CHL1    C7 2897   2.686   5.461   3.143  0.4442 -0.2133 -0.1152
   40CHL1   H7A 2898   2.796   5.458   3.152  0.4902  2.1897  0.7065
   40CHL1   H7B 2899   2.644   5.546   3.201 -0.7349 -1.0847  0.3379
   40CHL1    C8 2900   2.636   5.324   3.188 -0.0996  0.0549  0.6885
   40CHL1    H8 2901   2.704   5.247   3.146 -2.0131 -1.0436 -0.5288
   40CHL1   C14 2902   2.622   5.311   3.338 -0.1769 -0.1463 -0.2950
   40CHL1   H14 2903   2.543   5.380   3.374 -0.7405 -0.9872  0.1023
   40CHL1   C15 2904   2.745   5.361   3.410 -0.0265 -1.0405  0.5094
   40CHL1  H15A 2905   2.842   5.341   3.361  0.0140 -0.3295  0.2854
   40CHL1  H15B 2906   2.750   5.472   3.413  0.7553 -0.8843 -2.9937
   40CHL1   C16 2907   2.719   5.297   3.550  0.7301  0.2477 -0.9223
   40CHL1  H16A 2908   2.814   5.242   3.570  0.1106 -0.9901 -1.2778
   40CHL1  H16B 2909   2.703   5.374   3.628  0.2805 -1.0384  0.2972
   40CHL1   C17 2910   2.603   5.186   3.540 -0.0925 -0.2247  0.9517
   40CHL1   H17 2911   2.509   5.239   3.565 -0.2162 -0.3410  0.7393
   40CHL1   C13 2912   2.593   5.169   3.384  0.2876  0.2272 -0.3624
   40CHL1   C18 2913   2.707   5.067   3.344 -0.0840 -0.0275 -0.2049
   40CHL1  H18A 2914   2.800   5.096   3.398 -0.4172 -0.4883  0.6308
   40CHL1  H18B 2915   2.682   4.965   3.381  2.7713  0.0083  2.2798
   40CHL1  H18C 2916   2.726   5.065   3.235  1.6673 -0.8396  0.0765
   40CHL1   C12 2917   2.456   5.136   3.330 -0.0239  0.5626  0.5287
   40CHL1  H12A 2918   2.413   5.040   3.367 -0.2942  1.4290  2.6281
   40CHL1  H12B 2919   2.387   5.208   3.378 -0.3263  0.7996 -0.2564
   40CHL1   C11 2920   2.449   5.154   3.174 -0.1480  0.3787 -0.1057
   40CHL1  H11A 2921   2.501   5.062   3.139 -1.4449 -0.1936 -0.6001
   40CHL1  H11B 2922   2.343   5.136   3.143  0.1074 -1.5196 -0.0050
   40CHL1    C9 2923   2.500   5.291   3.126  0.1783 -0.0434  0.4878
   40CHL1    H9 2924   2.430   5.370   3.160  0.0259  0.4743 -0.9872
   40CHL1   C10 2925   2.500   5.303   2.974 -0.5586  0.7961  0.5693
   40CHL1   C19 2926   2.572   5.180   2.912 -0.8944  0.5223  0.7194
   40CHL1  H19A 2927   2.673   5.173   2.958  0.0031  0.7829 -1.1379
   40CHL1  H19B 2928   2.519   5.083   2.917  0.1094 -0.0358  0.6431
   40CHL1  H19C 2929   2.594   5.195   2.805 -1.9984  1.9416  0.6621
   40CHL1    C1 2930   2.357   5.323   2.912 -0.1578  0.6855  0.0901
   40CHL1   H1A 2931   2.294   5.234   2.936 -0.4082  0.9890  0.5857
   40CHL1   H1B 2932   2.320   5.409   2.973 -0.1353 -1.5240  3.5146
   40CHL1    C2 2933   2.342   5.348   2.759 -0.4483 -0.1133 -0.2224
   40CHL1   H2A 2934   2.235   5.373   2.742 -0.1617  1.3605 -0.0053
   40CHL1   H2B 2935   2.360   5.258   2.696 -0.1811  0.4413 -0.9565
   40CHL1   C20 2936   2.614   5.074   3.641 -0.2604  0.0909  0.0740
   40CHL1   H20 2937   2.693   5.007   3.601  0.1875  0.3831  0.4653
   40CHL1   C21 2938   2.478   5.006   3.648  0.0135  0.1741  1.4148
   40CHL1  H21A 2939   2.428   4.985   3.551  1.3365  2.1275  0.2371
   40CHL1  H21B 2940   2.410   5.074   3.703 -1.4368 -1.0270  1.1846
   40CHL1  H21C 2941   2.490   4.925   3.723  1.4661 -0.4172  0.5895
   40CHL1   C22 2942   2.651   5.123   3.771  0.4026  0.2495 -0.5458
   40CHL1  H22A 2943   2.751   5.171   3.767 -0.5697  2.3150 -1.0368
   40CHL1  H22B 2944   2.579   5.200   3.805 -0.0221 -0.2330 -0.3252
   40CHL1   C23 2945   2.672   5.017   3.883  0.5692 -0.0077 -0.8688
   40CHL1  H23A 2946   2.583   4.954   3.906  0.3092  1.1778  1.8116
   40CHL1  H23B 2947   2.743   4.942   3.843  1.6124 -0.7565  2.1240
   40CHL1   C24 2948   2.728   5.076   4.015 -0.4162 -0.2292  0.5704
   40CHL1  H24A 2949   2.822   5.134   4.002  0.6267 -1.9360  0.0364
   40CHL1  H24B 2950   2.659   5.155   4.049  0.6987  1.5315 -1.0268
   40CHL1   C25 2951   2.757   4.966   4.126 -0.2296 -1.2140  0.2502
   40CHL1   H25 2952   2.664   4.906   4.139 -0.8480 -0.9632 -2.3060
   40CHL1   C26 2953   2.871   4.876   4.087  0.3777  0.3276 -0.2795
   40CHL1  H26A 2954   2.959   4.930   4.044 -1.5496  2.6580 -1.5236
   40CHL1  H26B 2955   2.904   4.805   4.166 -1.3266  1.1341  1.2099
   40CHL1  H26C 2956   2.838   4.808   4.005  1.6882 -0.0902 -0.4964
   40CHL1   C27 2957   2.788   5.032   4.258 -0.5545 -0.3169  0.0857
   40CHL1  H27A 2958   2.694   5.085   4.285 -0.4432  0.3913 -0.8740
   40CHL1  H27B 2959   2.809   4.955   4.336 -0.1661 -1.1575 -0.8305
   40CHL1  H27C 2960   2.870   5.105   4.271 -2.7784  1.9372  3.2976
   41CHL1    C3 2961   5.788   1.083   3.419  0.5803 -0.2922  0.5828
   41CHL1    H3 2962   5.886   1.040   3.448 -0.5675 -1.8903  2.3964
   41CHL1    O3 2963   5.768   1.056   3.284  0.1556  0.0432 -0.1914
   41CHL1   H3' 2964   5.687   1.106   3.270 -0.0742  0.9442  3.4371
   41CHL1    C4 2965   5.677   1.012   3.490  0.0067  0.1025 -0.2107
   41CHL1   H4A 2966   5.582   1.048   3.446 -0.1626  0.5224  0.4835
   41CHL1   H4B 2967   5.672   0.907   3.455  0.6231 -0.1503  0.4437
   41CHL1    C5 2968   5.675   1.038   3.644 -0.8613 -0.3474  0.5433
   41CHL1    C6 2969   5.661   0.936   3.734  0.5429  0.1446  0.3414
   41CHL1    H6 2970   5.678   0.834   3.698 -1.2686 -0.6115  1.5220
   41CHL1    C7 2971   5.651   0.959   3.880 -0.4654 -0.3756 -0.0785
   41CHL1   H7A 2972   5.574   0.890   3.921  0.5382 -2.1690 -1.1136
   41CHL1   H7B 2973   5.750   0.941   3.925  0.2810 -1.3522 -2.0069
   41CHL1    C8 2974   5.629   1.113   3.918 -0.0614  0.9330 -0.4717
   41CHL1    H8 2975   5.520   1.126   3.906  0.0650  2.6935  0.1026
   41CHL1   C14 2976   5.675   1.125   4.065 -0.6549  0.0679  0.8558
   41CHL1   H14 2977   5.783   1.102   4.053 -0.3065  1.9203  0.0675
   41CHL1   C15 2978   5.628   1.035   4.175 -0.0883  0.4705 -0.0324
   41CHL1  H15A 2979   5.520   1.009   4.176 -0.6423  2.3640 -1.8976
   41CHL1  H15B 2980   5.680   0.937   4.179 -0.5251  0.2237 -0.2572
   41CHL1   C16 2981   5.658   1.109   4.308  0.0278 -0.7922 -0.1191
   41CHL1  H16A 2982   5.571   1.145   4.368  1.5390 -0.7535  2.1820
   41CHL1  H16B 2983   5.707   1.041   4.382 -4.3399 -1.5219  2.4698
   41CHL1   C17 2984   5.731   1.242   4.264  0.3046 -0.2876 -0.2766
   41CHL1   H17 2985   5.836   1.225   4.232  0.7844  0.5424  0.7958
   41CHL1   C13 2986   5.673   1.268   4.123 -0.0260  0.3394  0.4842
   41CHL1   C18 2987   5.528   1.317   4.129 -1.0090 -0.3444  0.7158
   41CHL1  H18A 2988   5.487   1.324   4.026  0.6555  4.4599  0.1119
   41CHL1  H18B 2989   5.469   1.248   4.193  1.3602 -0.9571  2.4170
   41CHL1  H18C 2990   5.519   1.422   4.163  2.5621 -0.3080  1.9517
   41CHL1   C12 2991   5.775   1.341   4.035 -0.4204  0.3622 -0.3258
   41CHL1  H12A 2992   5.780   1.446   4.070 -0.9120  1.1329 -2.4427
   41CHL1  H12B 2993   5.880   1.305   4.031  0.3665  2.5520 -0.8825
   41CHL1   C11 2994   5.722   1.346   3.895 -0.3824 -0.3848  0.2538
   41CHL1  H11A 2995   5.622   1.395   3.892 -0.7779 -1.2257 -0.4747
   41CHL1  H11B 2996   5.797   1.404   3.837  0.3339 -1.9595 -0.4407
   41CHL1    C9 2997   5.707   1.205   3.833  0.1194  0.0766 -0.7063
   41CHL1    H9 2998   5.813   1.175   3.846 -0.7862 -2.6392  1.3004
   41CHL1   C10 2999   5.679   1.188   3.683 -0.1552 -0.3606  0.0407
   41CHL1   C19 3000   5.537   1.251   3.640  0.1801 -0.2308 -0.0707
   41CHL1  H19A 3001   5.508   1.254   3.533 -0.2827  0.7762  0.0747
   41CHL1  H19B 3002   5.462   1.202   3.706  3.3433 -2.1482  2.3865
   41CHL1  H19C 3003   5.538   1.356   3.675  0.4539 -0.6532  1.2634
   41CHL1    C1 3004   5.792   1.258   3.593  0.6025 -0.5643  0.2896
   41CHL1   H1A 3005   5.781   1.366   3.612 -2.1211 -0.8296  0.6189
   41CHL1   H1B 3006   5.889   1.224   3.637 -0.0706 -2.2013  0.5866
   41CHL1    C2 3007   5.776   1.234   3.443  0.5722 -0.3911  0.8623
   41CHL1   H2A 3008   5.868   1.282   3.404 -1.5707  1.8085 -1.8877
   41CHL1   H2B 3009   5.685   1.294   3.422  1.0166  0.1841  0.5694
   41CHL1   C20 3010   5.744   1.355   4.372 -0.3537  0.6098 -0.0558
   41CHL1   H20 3011   5.769   1.448   4.316 -0.0100  0.1087 -0.7620
   41CHL1   C21 3012   5.861   1.312   4.469  0.4005 -0.3192  0.2226
   41CHL1  H21A 3013   5.952   1.293   4.409 -0.1402 -2.3992 -0.0341
   41CHL1  H21B 3014   5.844   1.216   4.522 -3.9490 -1.4239 -2.5727
   41CHL1  H21C 3015   5.880   1.392   4.543  0.8197 -0.0491 -0.1764
   41CHL1   C22 3016   5.622   1.371   4.467 -0.4524  0.2231  0.1435
   41CHL1  H22A 3017   5.530   1.370   4.405  0.2628  0.2192 -0.9352
   41CHL1  H22B 3018   5.628   1.280   4.531  3.2585  0.6787  0.6459
   41CHL1   C23 3019   5.624   1.489   4.557 -0.4498 -0.5671 -0.1229
   41CHL1  H23A 3020   5.686   1.445   4.638 -1.1271 -2.1544 -0.4407
   41CHL1  H23B 3021   5.664   1.580   4.508 -1.3009 -0.3943 -0.5083
   41CHL1   C24 3022   5.486   1.512   4.623  0.2492  0.0435  0.7588
   41CHL1  H24A 3023   5.424   1.544   4.537 -0.1051 -1.0981  0.5685
   41CHL1  H24B 3024   5.437   1.419   4.658 -1.2381 -0.4585 -2.3039
   41CHL1   C25 3025   5.484   1.625   4.725  0.2184 -0.9386 -0.0699
   41CHL1   H25 3026   5.540   1.710   4.679  0.9683 -1.6103 -0.4187
   41CHL1   C26 3027   5.336   1.669   4.758 -0.0422  0.3835 -0.0579
   41CHL1  H26A 3028   5.292   1.574   4.795  0.3204  1.2535  2.9317
   41CHL1  H26B 3029   5.344   1.747   4.837  1.2537  1.4377 -1.1980
   41CHL1  H26C 3030   5.289   1.709   4.666  0.8051 -1.3409 -1.2826
   41CHL1   C27 3031   5.552   1.599   4.864  0.2275  0.4173 -0.1352
   41CHL1  H27A 3032   5.518   1.667   4.944 -0.5083 -1.2307  1.0206
   41CHL1  H27B 3033   5.524   1.495   4.890  0.0838  0.9719  2.0903
   41CHL1  H27C 3034   5.663   1.599   4.855  0.3056 -2.5580 -0.2451
   42CHL1    C3 3035   3.509   5.012   3.007 -0.6422 -0.3470 -0.8995
   42CHL1    H3 3036   3.582   4.930   3.025 -0.9983 -0.6281 -0.7269
   42CHL1    O3 3037   3.523   5.057   2.878 -0.0590 -0.2271  0.1358
   42CHL1   H3' 3038   3.607   5.103   2.868 -1.1302  1.6111 -1.1787
   42CHL1    C4 3039   3.374   4.959   3.034  0.7627 -0.3974 -0.2664
   42CHL1   H4A 3040   3.304   5.045   3.023 -0.5186 -1.0505  2.0867
   42CHL1   H4B 3041   3.343   4.877   2.966 -2.5115  0.0130  0.5282
   42CHL1    C5 3042   3.366   4.920   3.184 -0.3867  0.5688 -0.2616
   42CHL1    C6 3043   3.337   4.790   3.207  0.6237  0.3366 -0.7217
   42CHL1    H6 3044   3.321   4.721   3.124 -1.4849 -1.0792  0.7489
   42CHL1    C7 3045   3.339   4.733   3.346  0.4085 -0.2515 -0.4925
   42CHL1   H7A 3046   3.252   4.664   3.358  0.2025 -0.2524 -1.8671
   42CHL1   H7B 3047   3.435   4.677   3.355  0.3487 -0.6334 -1.9254
   42CHL1    C8 3048   3.326   4.849   3.454 -0.1647  0.0610 -0.4775
   42CHL1    H8 3049   3.222   4.888   3.448  0.2053  0.9936 -1.0879
   42CHL1   C14 3050   3.352   4.790   3.593 -0.5200  0.0829  0.6543
   42CHL1   H14 3051   3.457   4.754   3.591 -1.2522 -2.2014  0.6435
   42CHL1   C15 3052   3.274   4.658   3.638  0.6626  0.4491 -0.3371
   42CHL1  H15A 3053   3.176   4.646   3.587  0.2151  0.1354  0.5763
   42CHL1  H15B 3054   3.331   4.566   3.614 -0.4348 -0.8304  1.7195
   42CHL1   C16 3055   3.264   4.666   3.796 -0.3218  0.1728  0.1042
   42CHL1  H16A 3056   3.156   4.692   3.806 -0.2633  0.3609  0.2516
   42CHL1  H16B 3057   3.289   4.579   3.860  0.3193  0.1965 -0.1043
   42CHL1   C17 3058   3.351   4.790   3.836 -0.2148 -0.4225  0.0996
   42CHL1   H17 3059   3.457   4.757   3.838  0.5804  1.9435  0.1590
   42CHL1   C13 3060   3.344   4.880   3.715 -0.0980 -0.2071  0.2730
   42CHL1   C18 3061   3.216   4.966   3.725 -0.1951  0.3931  0.4163
   42CHL1  H18A 3062   3.199   5.039   3.643  0.0717  0.9378  0.8302
   42CHL1  H18B 3063   3.129   4.900   3.743  0.3095 -0.5220 -0.4176
   42CHL1  H18C 3064   3.230   5.038   3.809 -3.1212  0.9161  0.5484
   42CHL1   C12 3065   3.454   4.986   3.694 -0.1289 -0.1730 -0.2098
   42CHL1  H12A 3066   3.448   5.068   3.769  1.0980  0.9827 -1.3436
   42CHL1  H12B 3067   3.556   4.942   3.698  0.1963  0.6724  1.6366
   42CHL1   C11 3068   3.447   5.058   3.551 -0.1034 -0.3242 -0.1171
   42CHL1  H11A 3069   3.362   5.130   3.550  0.4867  0.3698 -0.8451
   42CHL1  H11B 3070   3.545   5.105   3.528 -1.0564  1.1126 -1.4229
   42CHL1    C9 3071   3.430   4.958   3.431 -0.0119 -0.2215 -0.0837
   42CHL1    H9 3072   3.529   4.908   3.424  0.2679  0.0010  1.7853
   42CHL1   C10 3073   3.411   5.030   3.293  0.2127 -0.2744 -0.4135
   42CHL1   C19 3074   3.291   5.128   3.300 -0.9189  0.0113  0.6801
   42CHL1  H19A 3075   3.246   5.163   3.205 -2.4210 -2.2353  0.4699
   42CHL1  H19B 3076   3.216   5.068   3.357  0.2718 -2.2667 -0.0147
   42CHL1  H19C 3077   3.316   5.213   3.367 -3.2011  0.4420  1.0677
   42CHL1    C1 3078   3.544   5.100   3.257  0.1074 -0.2781  0.2392
   42CHL1   H1A 3079   3.566   5.183   3.326 -0.8240  0.2523 -0.0823
   42CHL1   H1B 3080   3.621   5.023   3.278  0.6367  0.2928  0.3894
   42CHL1    C2 3081   3.545   5.137   3.106  0.3859  1.0878 -0.1777
   42CHL1   H2A 3082   3.647   5.173   3.081  1.8104 -1.3395  1.6072
   42CHL1   H2B 3083   3.475   5.221   3.090 -0.4971  0.0680 -1.9164
   42CHL1   C20 3084   3.333   4.852   3.978  0.1219  0.2767  0.1680
   42CHL1   H20 3085   3.250   4.926   3.970  1.1427  1.2678 -2.0963
   42CHL1   C21 3086   3.455   4.935   4.032  0.4340  0.2360 -0.2216
   42CHL1  H21A 3087   3.473   5.009   3.950 -1.2135  2.0977  1.0219
   42CHL1  H21B 3088   3.549   4.881   4.058 -0.1430  0.6002  2.9178
   42CHL1  H21C 3089   3.415   4.994   4.117 -0.4523 -2.3578  1.2688
   42CHL1   C22 3090   3.290   4.744   4.072 -0.9065  0.0294  0.1322
   42CHL1  H22A 3091   3.277   4.790   4.172 -0.8297  0.2353  0.0479
   42CHL1  H22B 3092   3.192   4.701   4.043 -0.1859 -1.5055 -0.0866
   42CHL1   C23 3093   3.391   4.631   4.107  0.0845  0.4553  0.2168
   42CHL1  H23A 3094   3.425   4.574   4.018 -0.7153 -0.4914  0.4951
   42CHL1  H23B 3095   3.478   4.674   4.162 -1.1463  1.8984  1.1085
   42CHL1   C24 3096   3.326   4.542   4.213  0.0932  0.4779 -0.6001
   42CHL1  H24A 3097   3.393   4.540   4.301  0.8059  0.8884 -1.1300
   42CHL1  H24B 3098   3.231   4.591   4.245  0.0114 -0.3155  0.4290
   42CHL1   C25 3099   3.287   4.402   4.160  0.1001  0.0836 -0.0441
   42CHL1   H25 3100   3.352   4.372   4.075  0.4071  0.0485  0.2011
   42CHL1   C26 3101   3.310   4.291   4.267  0.1530 -0.0765 -0.3532
   42CHL1  H26A 3102   3.405   4.297   4.324  0.0025 -2.4520  0.2829
   42CHL1  H26B 3103   3.227   4.301   4.341  0.9913  0.5926  0.5243
   42CHL1  H26C 3104   3.302   4.188   4.226  0.0006 -0.5361  0.7898
   42CHL1   C27 3105   3.149   4.373   4.105  0.8842 -0.2316 -0.0025
   42CHL1  H27A 3106   3.144   4.273   4.057 -3.0684  0.1334 -0.7579
   42CHL1  H27B 3107   3.072   4.388   4.184 -0.7697  0.5891 -1.6741
   42CHL1  H27C 3108   3.128   4.445   4.023 -0.9741 -0.2789  0.3878
   43CHL1    C3 3109   5.382   4.537   2.976 -0.0463 -0.0952  0.1515
   43CHL1    H3 3110   5.273   4.556   2.965 -0.1293  0.1873  1.3080
   43CHL1    O3 3111   5.440   4.522   2.846  0.2047 -0.2972 -0.4418
   43CHL1   H3' 3112   5.535   4.523   2.854  0.3883 -0.5482 -2.1728
   43CHL1    C4 3113   5.437   4.655   3.050 -0.5556 -0.1285 -0.3960
   43CHL1   H4A 3114   5.547   4.643   3.059 -0.5668 -2.1069 -2.0980
   43CHL1   H4B 3115   5.427   4.747   2.989  3.1567  0.6601 -0.0335
   43CHL1    C5 3116   5.385   4.668   3.192 -0.6227  0.2983  0.0417
   43CHL1    C6 3117   5.336   4.776   3.249 -0.3588 -0.3256 -0.0400
   43CHL1    H6 3118   5.317   4.865   3.187  1.3772  0.3754  0.3789
   43CHL1    C7 3119   5.288   4.799   3.393  0.0856 -0.2013  0.2806
   43CHL1   H7A 3120   5.328   4.890   3.443  1.4303  0.0472 -1.1299
   43CHL1   H7B 3121   5.178   4.798   3.383  0.2289  1.3569 -2.7345
   43CHL1    C8 3122   5.329   4.675   3.483 -0.0307 -0.0449  0.2079
   43CHL1    H8 3123   5.439   4.681   3.492  0.0348  0.0533 -0.5660
   43CHL1   C14 3124   5.254   4.666   3.615  0.5306 -0.2517  0.0896
   43CHL1   H14 3125   5.153   4.625   3.590  0.1685 -0.1870  1.3895
   43CHL1   C15 3126   5.220   4.795   3.690  0.2280  0.2764 -0.0194
   43CHL1  H15A 3127   5.310   4.859   3.680  1.3981 -1.2976  0.0749
   43CHL1  H15B 3128   5.137   4.853   3.643  1.5163  1.4141 -0.9921
   43CHL1   C16 3129   5.198   4.753   3.833  0.1277  0.3184 -0.4135
   43CHL1  H16A 3130   5.265   4.810   3.900  0.7326  0.3775 -1.0607
   43CHL1  H16B 3131   5.101   4.784   3.880  1.6104 -0.1469  3.3267
   43CHL1   C17 3132   5.221   4.600   3.840  0.3035  0.2760  1.3219
   43CHL1   H17 3133   5.132   4.536   3.821  1.8422 -1.6216  0.1364
   43CHL1   C13 3134   5.315   4.570   3.713 -0.1238 -0.3934  0.1103
   43CHL1   C18 3135   5.463   4.605   3.741  0.3900 -0.0039  0.1532
   43CHL1  H18A 3136   5.527   4.607   3.651  0.9939  0.8973  0.5825
   43CHL1  H18B 3137   5.465   4.703   3.793 -3.0577  1.1571 -1.6080
   43CHL1  H18C 3138   5.511   4.528   3.805 -1.4220 -2.5495 -1.4025
   43CHL1   C12 3139   5.298   4.425   3.651 -0.2460  0.5932 -0.1992
   43CHL1  H12A 3140   5.349   4.349   3.713  1.7814  1.2994 -0.9211
   43CHL1  H12B 3141   5.187   4.421   3.645 -0.3992  1.1590  1.6534
   43CHL1   C11 3142   5.361   4.415   3.507 -0.0675 -0.5302 -0.1654
   43CHL1  H11A 3143   5.469   4.406   3.531  0.8500  0.4772 -3.4464
   43CHL1  H11B 3144   5.327   4.321   3.458 -1.0545  0.7596 -2.0894
   43CHL1    C9 3145   5.319   4.533   3.409  0.4702  0.3271 -0.5854
   43CHL1    H9 3146   5.212   4.522   3.382  0.5488  1.2930 -1.3229
   43CHL1   C10 3147   5.390   4.534   3.268 -0.0181  0.3811  0.3761
   43CHL1   C19 3148   5.546   4.502   3.293  0.0578 -0.0450  0.4282
   43CHL1  H19A 3149   5.597   4.567   3.366  2.7092 -0.8065 -0.6377
   43CHL1  H19B 3150   5.556   4.399   3.334  1.7877 -0.7142 -1.5326
   43CHL1  H19C 3151   5.608   4.501   3.201  0.6241  0.4902  0.8024
   43CHL1    C1 3152   5.329   4.423   3.186  0.4332 -0.0809  0.8278
   43CHL1   H1A 3153   5.349   4.324   3.231  0.0626  0.1335  1.4693
   43CHL1   H1B 3154   5.222   4.439   3.159  0.3006 -1.3746  0.4935
   43CHL1    C2 3155   5.396   4.410   3.051 -0.0748  0.4084 -0.3152
   43CHL1   H2A 3156   5.356   4.311   3.021 -0.9789  0.9214 -0.8508
   43CHL1   H2B 3157   5.504   4.394   3.070 -0.3745  1.5576  2.9464
   43CHL1   C20 3158   5.272   4.557   3.978  0.5545  0.7363 -0.0011
   43CHL1   H20 3159   5.364   4.613   4.004  1.6504 -1.2373  0.6185
   43CHL1   C21 3160   5.309   4.402   3.970 -0.6269  0.1956  0.5306
   43CHL1  H21A 3161   5.219   4.352   3.926 -0.3884  0.4210 -0.2308
   43CHL1  H21B 3162   5.329   4.370   4.074  2.2534  1.4239  0.4588
   43CHL1  H21C 3163   5.398   4.390   3.905 -1.3581 -0.4207 -0.3739
   43CHL1   C22 3164   5.193   4.592   4.108  0.1266 -0.0199 -0.1440
   43CHL1  H22A 3165   5.258   4.569   4.195 -1.1822 -2.0745  0.3606
   43CHL1  H22B 3166   5.181   4.702   4.105 -2.3881 -0.2529 -0.6900
   43CHL1   C23 3167   5.063   4.527   4.117  0.1758  0.9465  0.5435
   43CHL1  H23A 3168   5.002   4.559   4.030  0.6362  0.9048  0.2020
   43CHL1  H23B 3169   5.071   4.416   4.104  0.4798  1.0933 -0.6194
   43CHL1   C24 3170   4.968   4.560   4.232  0.0723  0.5114 -0.5297
   43CHL1  H24A 3171   5.023   4.570   4.329  0.9275  1.1965 -1.0653
   43CHL1  H24B 3172   4.917   4.657   4.217 -1.7199 -0.0931  1.1868
   43CHL1   C25 3173   4.864   4.443   4.248 -0.5820  0.4782  0.0229
   43CHL1   H25 3174   4.925   4.351   4.256  1.8273  1.8541 -1.2818
   43CHL1   C26 3175   4.788   4.451   4.383  0.7509  0.0523  0.7760
   43CHL1  H26A 3176   4.757   4.352   4.423  0.9142 -0.4936 -0.4120
   43CHL1  H26B 3177   4.856   4.488   4.464  0.5340  1.1516  0.4820
   43CHL1  H26C 3178   4.708   4.528   4.377  0.3336 -0.1489  2.7763
   43CHL1   C27 3179   4.774   4.429   4.128 -0.3222 -0.6154  0.4962
   43CHL1  H27A 3180   4.705   4.342   4.138 -2.6164  0.9376 -0.8355
   43CHL1  H27B 3181   4.723   4.525   4.109  0.5128 -0.1912  0.3442
   43CHL1  H27C 3182   4.833   4.399   4.038  1.0340  1.2107  0.7268
   44CHL1    C3 3183   2.655   6.468   4.025 -0.9402 -0.2341 -0.5308
   44CHL1    H3 3184   2.703   6.369   4.009 -0.7202  0.1061 -2.1982
   44CHL1    O3 3185   2.704   6.546   3.917 -0.5219  0.0601  0.4589
   44CHL1   H3' 3186   2.799   6.551   3.928 -0.4136  2.6003 -0.7847
   44CHL1    C4 3187   2.513   6.454   4.033 -0.5162  0.2337 -0.0272
   44CHL1   H4A 3188   2.454   6.546   4.057 -0.5975  0.1266  0.1875
   44CHL1   H4B 3189   2.471   6.424   3.934 -0.9644  1.3229 -0.1915
   44CHL1    C5 3190   2.479   6.361   4.148  0.5330 -0.1863  0.3334
   44CHL1    C6 3191   2.409   6.250   4.128 -0.1569  0.4751 -0.1058
   44CHL1    H6 3192   2.388   6.215   4.025 -1.9334  0.0694  0.3573
   44CHL1    C7 3193   2.359   6.167   4.237 -0.3067 -0.3355 -0.7069
   44CHL1   H7A 3194   2.256   6.134   4.211 -0.4736  0.5529 -1.2256
   44CHL1   H7B 3195   2.407   6.068   4.242 -2.0413 -1.1827  0.3650
   44CHL1    C8 3196   2.368   6.228   4.383  0.1413 -0.3189  0.7204
   44CHL1    H8 3197   2.295   6.311   4.391  1.0589  0.4852  0.8758
   44CHL1   C14 3198   2.353   6.132   4.496 -0.0539 -0.1545 -0.4317
   44CHL1   H14 3199   2.440   6.065   4.481 -1.3772 -1.8709 -0.7528
   44CHL1   C15 3200   2.240   6.029   4.491  0.5254 -0.6067 -0.3834
   44CHL1  H15A 3201   2.139   6.065   4.462  0.6031  0.1815  0.2989
   44CHL1  H15B 3202   2.265   5.944   4.424  0.4020  0.4481 -1.7987
   44CHL1   C16 3203   2.241   5.976   4.632  0.4345  0.1030  0.0102
   44CHL1  H16A 3204   2.138   5.974   4.672  1.1050 -0.2915  1.8023
   44CHL1  H16B 3205   2.277   5.871   4.630  1.8033  0.5211  1.1284
   44CHL1   C17 3206   2.339   6.055   4.715  0.3783  0.2509 -0.3074
   44CHL1   H17 3207   2.441   6.011   4.703  0.1503 -0.1326 -0.9170
   44CHL1   C13 3208   2.361   6.190   4.636  0.3156 -0.1182 -0.4116
   44CHL1   C18 3209   2.238   6.278   4.659 -0.2958 -0.6292 -0.6385
   44CHL1  H18A 3210   2.136   6.236   4.666  0.1736 -1.7490 -0.3050
   44CHL1  H18B 3211   2.262   6.333   4.753  0.6279  0.1596 -1.3084
   44CHL1  H18C 3212   2.225   6.360   4.585 -1.9685 -2.3846 -2.3912
   44CHL1   C12 3213   2.491   6.248   4.656 -0.2282 -0.9567  0.0058
   44CHL1  H12A 3214   2.497   6.291   4.758 -0.0571  2.2688 -1.2383
   44CHL1  H12B 3215   2.577   6.179   4.639 -0.9110 -1.8542  0.1524
   44CHL1   C11 3216   2.509   6.356   4.544 -0.1245  0.4613 -0.7008
   44CHL1  H11A 3217   2.426   6.430   4.557 -0.6310  0.1452 -2.0422
   44CHL1  H11B 3218   2.610   6.403   4.550 -0.8482  2.2670 -1.6670
   44CHL1    C9 3219   2.500   6.300   4.396 -0.0741 -0.3898  1.0609
   44CHL1    H9 3220   2.581   6.225   4.379 -1.7790 -2.2559  0.7266
   44CHL1   C10 3221   2.521   6.418   4.283 -0.7651 -0.8834  0.0452
   44CHL1   C19 3222   2.437   6.542   4.316 -0.4967  0.1061 -0.8318
   44CHL1  H19A 3223   2.440   6.577   4.422  0.5969  0.8742 -1.0952
   44CHL1  H19B 3224   2.453   6.630   4.250 -1.1655  0.2727 -0.7807
   44CHL1  H19C 3225   2.331   6.516   4.297 -0.3463 -0.7652 -0.5225
   44CHL1    C1 3226   2.672   6.455   4.276  0.0484  0.3817 -0.0805
   44CHL1   H1A 3227   2.696   6.514   4.367 -0.1136 -1.2242  1.0605
   44CHL1   H1B 3228   2.735   6.363   4.273  1.8156  1.5548 -0.1723
   44CHL1    C2 3229   2.709   6.541   4.155  0.3181  0.0177  0.3579
   44CHL1   H2A 3230   2.819   6.550   4.149  0.3465  2.2669  2.5522
   44CHL1   H2B 3231   2.662   6.642   4.158 -1.2033 -0.4525 -2.9471
   44CHL1   C20 3232   2.303   6.052   4.866 -0.4686 -0.1758  0.6538
   44CHL1   H20 3233   2.232   6.137   4.879 -0.2961 -0.0547  0.8157
   44CHL1   C21 3234   2.422   6.084   4.957 -0.5547 -0.1483  0.5984
   44CHL1  H21A 3235   2.497   6.002   4.942 -1.1875 -0.4739 -0.9715
   44CHL1  H21B 3236   2.391   6.099   5.062 -0.7941 -0.7177  0.6113
   44CHL1  H21C 3237   2.473   6.180   4.935  0.0082 -0.2014  1.5867
   44CHL1   C22 3238   2.230   5.927   4.923  0.7141 -0.0654 -0.4618
   44CHL1  H22A 3239   2.244   5.938   5.033 -0.5262  0.0505 -0.3039
   44CHL1  H22B 3240   2.123   5.941   4.895  0.9913  0.0759 -1.4891
   44CHL1   C23 3241   2.281   5.789   4.890 -0.6967  0.4077 -0.1871
   44CHL1  H23A 3242   2.256   5.769   4.784  0.5047 -0.3952 -0.3290
   44CHL1  H23B 3243   2.391   5.781   4.898 -0.9357 -2.0007  2.0364
   44CHL1   C24 3244   2.226   5.686   4.988  0.3504 -0.2832  0.4248
   44CHL1  H24A 3245   2.259   5.724   5.087 -1.8616 -0.8689  1.4539
   44CHL1  H24B 3246   2.117   5.705   4.993  0.4853  0.1678  2.7559
   44CHL1   C25 3247   2.247   5.540   4.949  0.4108 -1.2555 -0.1597
   44CHL1   H25 3248   2.357   5.529   4.938  0.5411 -0.6998  0.5121
   44CHL1   C26 3249   2.207   5.451   5.074 -0.7714  0.1695  0.4683
   44CHL1  H26A 3250   2.278   5.456   5.159 -0.9133  1.3175  0.5454
   44CHL1  H26B 3251   2.109   5.482   5.116 -0.3363  0.5431  1.2370
   44CHL1  H26C 3252   2.205   5.348   5.034  0.6426  0.6348 -0.9223
   44CHL1   C27 3253   2.167   5.505   4.835  0.1145  0.6047  0.1258
   44CHL1  H27A 3254   2.188   5.401   4.800 -0.3340  0.3735  0.5424
   44CHL1  H27B 3255   2.060   5.506   4.863  0.1051  0.6505  0.0897
   44CHL1  H27C 3256   2.186   5.566   4.744  3.2977 -0.5011 -0.0691
   45CHL1    C3 3257   0.477   0.622   3.585 -0.9880  0.1156 -0.2247
   45CHL1    H3 3258   0.520   0.521   3.602  0.1003  0.8814  1.9888
   45CHL1    O3 3259   0.506   0.670   3.458  0.0270  0.3969  0.1187
   45CHL1   H3' 3260   0.431   0.646   3.404 -0.4859 -0.1521  1.0501
   45CHL1    C4 3261   0.323   0.608   3.614 -0.4328 -0.5661  1.0013
   45CHL1   H4A 3262   0.289   0.711   3.594  0.8231 -0.4320 -0.6642
   45CHL1   H4B 3263   0.284   0.533   3.541  2.7433 -0.1930 -1.2860
   45CHL1    C5 3264   0.308   0.558   3.752 -0.4179  0.6604 -0.3642
   45CHL1    C6 3265   0.223   0.454   3.781 -0.2236  0.9691 -0.1314
   45CHL1    H6 3266   0.170   0.415   3.693 -0.2557  0.6718  0.0188
   45CHL1    C7 3267   0.190   0.400   3.917  0.1508 -1.4601 -0.3699
   45CHL1   H7A 3268   0.081   0.387   3.932 -0.0204  2.2111  3.3098
   45CHL1   H7B 3269   0.248   0.307   3.934  0.0457 -1.7800 -1.6937
   45CHL1    C8 3270   0.232   0.494   4.029  0.1292 -0.1767 -0.2055
   45CHL1    H8 3271   0.163   0.581   4.036 -0.7630 -0.8299 -0.5843
   45CHL1   C14 3272   0.234   0.427   4.163  0.0314 -0.3654 -0.4850
   45CHL1   H14 3273   0.315   0.351   4.163  0.6250  0.2666 -0.2880
   45CHL1   C15 3274   0.106   0.357   4.202 -0.9570 -0.0855  0.6727
   45CHL1  H15A 3275   0.011   0.410   4.180 -1.4593 -0.8787  0.9082
   45CHL1  H15B 3276   0.094   0.256   4.158 -1.1420  0.7325 -1.2724
   45CHL1   C16 3277   0.119   0.342   4.360 -0.2594  0.6247  0.5321
   45CHL1  H16A 3278   0.035   0.394   4.411 -0.6426  0.6476 -0.1075
   45CHL1  H16B 3279   0.119   0.235   4.392 -0.6700  0.7825  1.0834
   45CHL1   C17 3280   0.258   0.411   4.396  0.3746  0.6587  0.0353
   45CHL1   H17 3281   0.337   0.333   4.384  0.3511  0.5901  0.3176
   45CHL1   C13 3282   0.283   0.514   4.279  0.1293 -0.5453  0.0260
   45CHL1   C18 3283   0.183   0.627   4.308 -0.0103 -0.6538 -0.2036
   45CHL1  H18A 3284   0.161   0.678   4.211 -1.3173 -0.4044  0.2075
   45CHL1  H18B 3285   0.081   0.599   4.340 -0.7424  0.5771 -1.3163
   45CHL1  H18C 3286   0.219   0.706   4.377  0.7986 -1.2743  0.0889
   45CHL1   C12 3287   0.418   0.569   4.250 -0.5494 -0.3774  0.1657
   45CHL1  H12A 3288   0.456   0.625   4.338 -2.1751 -0.5151  1.0130
   45CHL1  H12B 3289   0.493   0.489   4.233 -0.0085  0.0778  0.3756
   45CHL1   C11 3290   0.417   0.652   4.119 -0.6023  0.4273  0.0471
   45CHL1  H11A 3291   0.344   0.735   4.121 -3.4282 -1.8515 -0.7442
   45CHL1  H11B 3292   0.525   0.677   4.107 -0.5501  0.0928 -0.1998
   45CHL1    C9 3293   0.373   0.569   3.993  0.7707 -0.1246 -1.3306
   45CHL1    H9 3294   0.453   0.492   3.987  3.2891  2.2950 -1.0948
   45CHL1   C10 3295   0.376   0.642   3.857 -0.1447 -0.1534  0.1454
   45CHL1   C19 3296   0.304   0.779   3.873 -0.0934  0.3291 -0.2881
   45CHL1  H19A 3297   0.285   0.824   3.774 -1.2051  1.1007  0.2604
   45CHL1  H19B 3298   0.209   0.767   3.930 -0.5293  0.4935 -0.9740
   45CHL1  H19C 3299   0.376   0.847   3.925 -0.0128 -0.9528  1.3735
   45CHL1    C1 3300   0.521   0.662   3.823 -0.2421  0.6416 -0.1774
   45CHL1   H1A 3301   0.562   0.736   3.895  0.1548 -2.3694  2.9253
   45CHL1   H1B 3302   0.578   0.566   3.826 -0.4682  0.4848 -0.7125
   45CHL1    C2 3303   0.538   0.721   3.683 -0.1079 -0.1099 -0.1069
   45CHL1   H2A 3304   0.648   0.726   3.667  0.0979 -2.5265  0.0778
   45CHL1   H2B 3305   0.501   0.825   3.675  0.1130 -0.1003 -1.1193
   45CHL1   C20 3306   0.260   0.463   4.539 -0.2730  0.3043  1.1468
   45CHL1   H20 3307   0.179   0.538   4.545 -0.2713  0.5251 -0.9645
   45CHL1   C21 3308   0.398   0.518   4.584  0.7741  1.0197  0.0594
   45CHL1  H21A 3309   0.421   0.618   4.542  1.3559 -0.1107 -2.4783
   45CHL1  H21B 3310   0.469   0.448   4.536  0.0844  0.5980 -0.3602
   45CHL1  H21C 3311   0.410   0.516   4.695  1.4918 -0.3421 -0.0229
   45CHL1   C22 3312   0.230   0.349   4.645  0.2110 -0.8945  0.6275
   45CHL1  H22A 3313   0.163   0.269   4.607 -1.2384  1.3481 -1.9235
   45CHL1  H22B 3314   0.329   0.316   4.682  0.2680 -0.0368  1.2687
   45CHL1   C23 3315   0.166   0.419   4.766  0.1757 -0.0393  0.3588
   45CHL1  H23A 3316   0.238   0.492   4.810  4.9863 -2.5037 -2.5493
   45CHL1  H23B 3317   0.073   0.459   4.722 -0.2724 -1.7000 -0.2592
   45CHL1   C24 3318   0.133   0.318   4.878  0.4898  0.2977 -0.0535
   45CHL1  H24A 3319   0.069   0.243   4.827  0.5631  0.8944 -1.0289
   45CHL1  H24B 3320   0.227   0.277   4.922  0.3714  2.5454  2.6281
   45CHL1   C25 3321   0.063   0.380   5.006 -0.6667 -0.0982  0.4947
   45CHL1   H25 3322   0.041   0.298   5.077  0.3922  0.0862  1.0666
   45CHL1   C26 3323   0.156   0.469   5.086  0.1233 -0.1439 -0.0575
   45CHL1  H26A 3324   0.120   0.490   5.189  3.4335  0.2641  1.1309
   45CHL1  H26B 3325   0.260   0.436   5.107  1.7198  3.2061 -1.9203
   45CHL1  H26C 3326   0.167   0.562   5.027 -0.6507  0.3401  0.5487
   45CHL1   C27 3327  -0.076   0.439   4.978 -0.1719 -0.3412 -0.3998
   45CHL1  H27A 3328  -0.115   0.476   5.075  3.5332  0.2534  1.0476
   45CHL1  H27B 3329  -0.071   0.510   4.892  0.2035 -1.4133 -1.2875
   45CHL1  H27C 3330  -0.131   0.352   4.937 -3.0889  1.1973  0.0002
   46CHL1    C3 3331   5.171   1.493   3.485  0.5103 -0.0295 -0.8591
   46CHL1    H3 3332   5.063   1.515   3.468  0.4510  0.6988  0.3248
   46CHL1    O3 3333   5.251   1.466   3.366 -0.1018 -0.0141 -0.0690
   46CHL1   H3' 3334   5.286   1.553   3.344 -1.2814  0.9027  1.4717
   46CHL1    C4 3335   5.234   1.613   3.560 -0.1072 -0.7112 -0.2741
   46CHL1   H4A 3336   5.343   1.597   3.574 -0.6577 -2.3144  3.0561
   46CHL1   H4B 3337   5.222   1.708   3.503 -1.5276  0.2451  1.4870
   46CHL1    C5 3338   5.152   1.628   3.687 -0.6036 -0.4346 -0.3782
   46CHL1    C6 3339   5.080   1.739   3.712  0.0193 -0.5437  0.1106
   46CHL1    H6 3340   5.080   1.814   3.632  0.7256 -0.3517  0.2821
   46CHL1    C7 3341   5.017   1.764   3.849  0.0170 -0.1444 -0.4774
   46CHL1   H7A 3342   5.016   1.872   3.873 -0.8578 -0.1629 -0.3998
   46CHL1   H7B 3343   4.913   1.724   3.846  0.1367 -0.6937  1.4338
   46CHL1    C8 3344   5.091   1.693   3.963 -0.0829  0.0333  0.7393
   46CHL1    H8 3345   5.190   1.742   3.977  0.1547  0.1468 -1.1099
   46CHL1   C14 3346   5.016   1.709   4.090  0.7487  0.6508  0.0809
   46CHL1   H14 3347   4.910   1.678   4.075  0.8477 -1.7135  3.1756
   46CHL1   C15 3348   5.008   1.854   4.142  0.6106  0.5442  0.2542
   46CHL1  H15A 3349   5.103   1.911   4.135 -0.3813  2.2367  0.0261
   46CHL1  H15B 3350   4.937   1.915   4.081  0.9962 -0.9524 -1.7719
   46CHL1   C16 3351   4.966   1.833   4.289  0.2930 -0.3533  0.1101
   46CHL1  H16A 3352   5.040   1.882   4.355 -1.6032  1.9928  0.6548
   46CHL1  H16B 3353   4.871   1.887   4.312  0.8072  0.9445 -0.7075
   46CHL1   C17 3354   4.967   1.682   4.316  0.4203  0.0979  0.1742
   46CHL1   H17 3355   4.871   1.634   4.288  1.5485 -2.0675 -0.2496
   46CHL1   C13 3356   5.069   1.626   4.216  0.5064 -1.0076  0.4835
   46CHL1   C18 3357   5.221   1.671   4.252  0.0898  0.0247 -0.0328
   46CHL1  H18A 3358   5.221   1.779   4.276  1.0651  0.0279 -0.0118
   46CHL1  H18B 3359   5.240   1.609   4.342 -1.4700 -1.1526 -0.4775
   46CHL1  H18C 3360   5.298   1.653   4.174  1.2411 -1.3883  1.3627
   46CHL1   C12 3361   5.051   1.479   4.169 -0.1170 -0.2709  0.1780
   46CHL1  H12A 3362   5.082   1.410   4.250 -0.4626 -0.7904 -0.1303
   46CHL1  H12B 3363   4.943   1.455   4.156  0.1498 -1.1823 -0.4442
   46CHL1   C11 3364   5.126   1.443   4.039 -0.2277  0.0450  1.0070
   46CHL1  H11A 3365   5.234   1.442   4.064  0.3359 -0.4593 -1.2373
   46CHL1  H11B 3366   5.101   1.338   4.012  2.2485 -0.9252  2.1510
   46CHL1    C9 3367   5.094   1.539   3.919  0.4242 -1.0140  0.7576
   46CHL1    H9 3368   4.985   1.523   3.904  0.2547  0.4849  0.1839
   46CHL1   C10 3369   5.171   1.514   3.787  0.0487 -0.4837  0.5082
   46CHL1   C19 3370   5.327   1.494   3.827  0.2759 -0.3254  0.0598
   46CHL1  H19A 3371   5.333   1.399   3.884 -1.3452 -0.0478  0.7362
   46CHL1  H19B 3372   5.408   1.486   3.751 -0.1727  1.3476 -0.6441
   46CHL1  H19C 3373   5.360   1.579   3.890  1.4138 -1.2478  0.7638
   46CHL1    C1 3374   5.119   1.391   3.714  0.4893 -0.1138 -0.8722
   46CHL1   H1A 3375   5.131   1.299   3.776 -0.0447 -0.1402 -0.8092
   46CHL1   H1B 3376   5.009   1.403   3.708  0.3564  3.9436  3.7603
   46CHL1    C2 3377   5.181   1.366   3.572 -0.2437  0.2217  0.2683
   46CHL1   H2A 3378   5.113   1.298   3.517 -1.4062 -0.1010  2.0221
   46CHL1   H2B 3379   5.285   1.328   3.581 -0.7968 -1.3432  0.3544
   46CHL1   C20 3380   4.985   1.640   4.463  0.5434 -0.0647  0.4986
   46CHL1   H20 3381   5.081   1.680   4.500 -0.1956  0.9516  1.3702
   46CHL1   C21 3382   4.996   1.488   4.471 -0.2920 -0.7247  0.0752
   46CHL1  H21A 3383   5.098   1.454   4.444  0.4867  1.3919  0.1084
   46CHL1  H21B 3384   4.912   1.451   4.409 -1.2252 -1.0536  1.5022
   46CHL1  H21C 3385   4.974   1.454   4.574  1.6307 -0.7653  0.5204
   46CHL1   C22 3386   4.881   1.693   4.566 -0.1723  0.0948 -0.3065
   46CHL1  H22A 3387   4.783   1.651   4.537 -0.8844 -0.1799  2.2302
   46CHL1  H22B 3388   4.912   1.643   4.661  4.4490 -0.4366 -1.7963
   46CHL1   C23 3389   4.888   1.839   4.593 -0.3221  0.8961 -0.0878
   46CHL1  H23A 3390   4.995   1.865   4.579  0.2637 -1.4484 -0.4235
   46CHL1  H23B 3391   4.836   1.892   4.510 -2.3477 -1.1641 -0.2171
   46CHL1   C24 3392   4.834   1.884   4.729 -0.0069  0.1624 -0.0306
   46CHL1  H24A 3393   4.734   1.837   4.743 -0.4515  1.8776  3.8533
   46CHL1  H24B 3394   4.904   1.853   4.809 -0.8956  0.0947  0.7446
   46CHL1   C25 3395   4.824   2.037   4.745 -0.1480  0.1223 -0.2558
   46CHL1   H25 3396   4.750   2.067   4.667  0.7440 -0.7328 -1.4675
   46CHL1   C26 3397   4.783   2.068   4.886 -0.6769  0.1271 -0.5319
   46CHL1  H26A 3398   4.780   2.178   4.897 -1.2953  0.2697 -1.9212
   46CHL1  H26B 3399   4.679   2.037   4.909  0.1586 -1.1588  1.9299
   46CHL1  H26C 3400   4.852   2.023   4.961 -2.6602 -0.8118  0.7948
   46CHL1   C27 3401   4.958   2.108   4.724 -0.5746  0.1097 -0.5833
   46CHL1  H27A 3402   4.949   2.216   4.749  1.7295 -0.2245  2.2150
   46CHL1  H27B 3403   5.038   2.073   4.793  1.4457  4.4039 -0.3931
   46CHL1  H27C 3404   4.989   2.080   4.621 -1.1376 -1.6974 -0.2896
   47CHL1    C3 3405   3.317   1.998   3.577 -0.3001 -0.0130 -0.7676
   47CHL1    H3 3406   3.354   1.894   3.562  2.1826  0.6899  0.1306
   47CHL1    O3 3407   3.322   2.061   3.447 -0.6971  0.5309  0.2269
   47CHL1   H3' 3408   3.396   2.020   3.402 -2.3264  0.2162 -2.3733
   47CHL1    C4 3409   3.176   1.997   3.635  0.2231  0.6155 -0.8664
   47CHL1   H4A 3410   3.122   2.093   3.622 -2.2723 -0.3907  1.0225
   47CHL1   H4B 3411   3.114   1.922   3.582 -1.5252  1.4198 -0.0375
   47CHL1    C5 3412   3.173   1.955   3.786 -0.2089  0.0080 -0.3842
   47CHL1    C6 3413   3.095   1.854   3.829  0.1789  0.3540 -0.2603
   47CHL1    H6 3414   3.021   1.799   3.769 -1.2425 -0.5230  2.1135
   47CHL1    C7 3415   3.075   1.816   3.972  0.0734  0.5976 -0.7329
   47CHL1   H7A 3416   2.966   1.799   3.987  0.3794  0.7350  2.0726
   47CHL1   H7B 3417   3.126   1.722   3.998 -0.1054  0.4040 -1.0636
   47CHL1    C8 3418   3.130   1.918   4.069  0.3190 -0.2334  0.8985
   47CHL1    H8 3419   3.072   2.013   4.060  3.4457  1.7122 -0.4567
   47CHL1   C14 3420   3.130   1.870   4.214 -0.1158  0.1408 -0.2495
   47CHL1   H14 3421   3.199   1.783   4.216 -1.3492 -0.8844  2.2075
   47CHL1   C15 3422   2.996   1.820   4.259  0.3623  0.2427 -1.2332
   47CHL1  H15A 3423   2.914   1.892   4.238  1.7257  2.6302  0.9923
   47CHL1  H15B 3424   2.964   1.723   4.216  0.2113 -0.1443 -0.2644
   47CHL1   C16 3425   3.017   1.810   4.413 -0.6775  0.2658 -0.1219
   47CHL1  H16A 3426   2.933   1.870   4.455 -0.2499 -0.2308  1.5203
   47CHL1  H16B 3427   3.026   1.709   4.458 -1.8160  0.5369  0.7493
   47CHL1   C17 3428   3.159   1.885   4.450  0.0849 -0.0770  0.2705
   47CHL1   H17 3429   3.245   1.816   4.451  0.2135  0.0788  1.5650
   47CHL1   C13 3430   3.179   1.968   4.317 -0.1219 -0.0703 -0.3337
   47CHL1   C18 3431   3.086   2.097   4.312 -0.0962  0.6252  0.5234
   47CHL1  H18A 3432   3.057   2.129   4.210 -1.2118 -1.8526 -0.0267
   47CHL1  H18B 3433   2.993   2.074   4.369  1.4998 -0.1207  2.9612
   47CHL1  H18C 3434   3.137   2.177   4.368  0.8259  0.7495 -0.4635
   47CHL1   C12 3435   3.328   1.995   4.286 -0.5229  0.9330 -0.4132
   47CHL1  H12A 3436   3.390   2.062   4.349  1.0165  0.3675 -1.2680
   47CHL1  H12B 3437   3.387   1.901   4.286 -0.1438  1.1568  0.7602
   47CHL1   C11 3438   3.349   2.040   4.141 -0.1451  0.6515 -0.4414
   47CHL1  H11A 3439   3.310   2.144   4.136  0.9389  1.1044  0.3785
   47CHL1  H11B 3440   3.458   2.042   4.119  0.0692  0.9025  0.6013
   47CHL1    C9 3441   3.269   1.960   4.027  0.5463 -0.0535  0.4063
   47CHL1    H9 3442   3.329   1.867   4.020  2.1971  1.0162 -0.2962
   47CHL1   C10 3443   3.266   2.028   3.885 -0.5017  0.7215 -0.5953
   47CHL1   C19 3444   3.215   2.170   3.896 -0.2129  0.1301  0.4216
   47CHL1  H19A 3445   3.190   2.218   3.799  2.0907  0.1622 -0.2114
   47CHL1  H19B 3446   3.126   2.173   3.962 -2.0567  0.9427 -1.9539
   47CHL1  H19C 3447   3.300   2.230   3.933  1.2079  0.3102 -2.7986
   47CHL1    C1 3448   3.407   2.015   3.819 -0.1087  0.2044 -0.4342
   47CHL1   H1A 3449   3.479   2.065   3.887 -0.6940 -0.4326  0.6935
   47CHL1   H1B 3450   3.438   1.908   3.816  1.7155  0.6834  0.1313
   47CHL1    C2 3451   3.418   2.065   3.671 -0.0227  0.5725  0.0408
   47CHL1   H2A 3452   3.517   2.043   3.625 -0.8684 -0.6967 -1.2731
   47CHL1   H2B 3453   3.403   2.175   3.666  1.6970  0.7571 -2.1223
   47CHL1   C20 3454   3.152   1.959   4.583 -0.0165 -0.0570 -0.5717
   47CHL1   H20 3455   3.088   2.049   4.574  0.1959  0.5808  2.8501
   47CHL1   C21 3456   3.291   2.008   4.626  0.7711 -0.1742 -0.4173
   47CHL1  H21A 3457   3.344   2.073   4.554  1.5153  1.8832  1.8605
   47CHL1  H21B 3458   3.353   1.916   4.630 -0.0875 -0.7410  0.2740
   47CHL1  H21C 3459   3.285   2.049   4.729 -1.4857 -1.0395 -0.1394
   47CHL1   C22 3460   3.076   1.883   4.687 -0.2476  0.4217 -0.9779
   47CHL1  H22A 3461   3.061   1.934   4.784 -2.1192 -0.7376 -0.5999
   47CHL1  H22B 3462   2.973   1.870   4.647 -1.0004  4.3543 -0.6966
   47CHL1   C23 3463   3.135   1.748   4.729 -0.5698  0.7716 -0.0617
   47CHL1  H23A 3464   3.094   1.680   4.651 -2.3403  1.0612  0.5740
   47CHL1  H23B 3465   3.246   1.743   4.721 -0.6398 -4.1049 -1.1019
   47CHL1   C24 3466   3.080   1.695   4.873  0.1072 -0.6621 -0.5201
   47CHL1  H24A 3467   3.097   1.783   4.937  0.1934  0.6139 -2.2206
   47CHL1  H24B 3468   2.973   1.665   4.865  0.4406 -3.2339  2.8158
   47CHL1   C25 3469   3.158   1.574   4.936 -0.1164  0.8334 -0.3324
   47CHL1   H25 3470   3.153   1.503   4.850 -0.5250 -1.4175  1.4502
   47CHL1   C26 3471   3.303   1.597   4.973 -0.0139  0.7194 -0.0654
   47CHL1  H26A 3472   3.309   1.674   5.054 -1.9995  0.0157  0.7991
   47CHL1  H26B 3473   3.340   1.496   5.001  0.3955  1.1775  1.1012
   47CHL1  H26C 3474   3.369   1.633   4.891 -0.6293  3.3469  0.5057
   47CHL1   C27 3475   3.086   1.504   5.052  0.1677  0.0675 -0.2710
   47CHL1  H27A 3476   3.081   1.588   5.125 -0.5176  2.3028 -2.7307
   47CHL1  H27B 3477   2.979   1.481   5.029 -0.2210  1.8050 -0.3481
   47CHL1  H27C 3478   3.137   1.415   5.095  1.3121  0.3848 -0.9554
   48CHL1    C3 3479   2.778   6.134   3.621  0.7354 -0.3530  0.2483
   48CHL1    H3 3480   2.880   6.126   3.665  0.5789 -3.1488  0.2657
   48CHL1    O3 3481   2.781   6.213   3.505  0.1625 -0.2852 -0.0972
   48CHL1   H3' 3482   2.690   6.223   3.477 -0.0196  0.4828  0.7123
   48CHL1    C4 3483   2.744   5.988   3.579 -0.2121  0.3460 -0.5532
   48CHL1   H4A 3484   2.654   5.985   3.514 -0.2365 -2.9916 -0.5660
   48CHL1   H4B 3485   2.825   5.949   3.514  1.6482 -0.3906  2.0114
   48CHL1    C5 3486   2.718   5.877   3.687  0.1663 -0.1970  0.2492
   48CHL1    C6 3487   2.772   5.752   3.688 -0.6060  0.2028 -0.2141
   48CHL1    H6 3488   2.846   5.719   3.613 -1.3946  1.5568 -1.6571
   48CHL1    C7 3489   2.739   5.642   3.786  0.2761 -0.2159  0.2876
   48CHL1   H7A 3490   2.705   5.553   3.730 -0.1496  0.3446 -0.3623
   48CHL1   H7B 3491   2.837   5.618   3.833  0.9602  0.1874 -0.8986
   48CHL1    C8 3492   2.637   5.682   3.896 -0.4109  0.6124 -0.2218
   48CHL1    H8 3493   2.534   5.660   3.859 -0.6336  0.6437  0.3667
   48CHL1   C14 3494   2.668   5.606   4.025 -0.2861  0.1171 -0.3379
   48CHL1   H14 3495   2.772   5.631   4.055 -0.5834 -0.2011  1.0334
   48CHL1   C15 3496   2.684   5.450   4.022  0.7318 -0.4028  0.4686
   48CHL1  H15A 3497   2.595   5.411   3.968  3.1749 -0.2861 -4.1641
   48CHL1  H15B 3498   2.768   5.416   3.958  0.7800  1.4848 -0.5676
   48CHL1   C16 3499   2.679   5.417   4.162  0.2499 -0.8609 -1.0118
   48CHL1  H16A 3500   2.598   5.343   4.177 -1.5511  1.2632  0.4994
   48CHL1  H16B 3501   2.774   5.370   4.196  0.0997 -0.0563  0.6061
   48CHL1   C17 3502   2.635   5.546   4.245 -0.3304  0.2247  0.2167
   48CHL1   H17 3503   2.732   5.592   4.275  0.0296  0.7650 -1.6679
   48CHL1   C13 3504   2.578   5.638   4.139  0.3939 -0.2317  0.7865
   48CHL1   C18 3505   2.427   5.602   4.094 -0.1305  0.1645  0.3013
   48CHL1  H18A 3506   2.422   5.494   4.071 -2.4339  0.6095 -1.6695
   48CHL1  H18B 3507   2.363   5.617   4.184  0.2295  0.5998  0.4911
   48CHL1  H18C 3508   2.386   5.664   4.011  1.0167 -0.2603 -0.6070
   48CHL1   C12 3509   2.585   5.788   4.171 -0.2801  0.6993  0.4052
   48CHL1  H12A 3510   2.505   5.822   4.241 -1.7726  1.7864 -1.6940
   48CHL1  H12B 3511   2.689   5.804   4.206  0.1289 -1.0659  0.1145
   48CHL1   C11 3512   2.556   5.877   4.042 -0.6920 -0.2438 -0.2324
   48CHL1  H11A 3513   2.446   5.872   4.028 -0.9920  3.0167  0.1781
   48CHL1  H11B 3514   2.593   5.974   4.080  1.5452 -1.4702  0.9326
   48CHL1    C9 3515   2.643   5.835   3.919  0.4998  0.9012 -0.1981
   48CHL1    H9 3516   2.746   5.853   3.955  0.7620  3.3863 -1.9290
   48CHL1   C10 3517   2.629   5.922   3.796  0.2593  0.0484 -0.4159
   48CHL1   C19 3518   2.480   5.922   3.745 -0.1843 -0.0670  0.3021
   48CHL1  H19A 3519   2.468   5.978   3.649  1.1253 -0.4937 -0.1334
   48CHL1  H19B 3520   2.430   5.825   3.729 -1.0343  0.1320  1.6228
   48CHL1  H19C 3521   2.421   5.971   3.825 -0.6440  0.3413 -0.2799
   48CHL1    C1 3522   2.674   6.072   3.840 -0.9570  0.7587  0.6569
   48CHL1   H1A 3523   2.595   6.106   3.911 -2.4141 -3.8764  1.6733
   48CHL1   H1B 3524   2.777   6.078   3.881 -0.0938 -1.2641 -1.0239
   48CHL1    C2 3525   2.671   6.178   3.723  0.4295 -0.1674  0.3288
   48CHL1   H2A 3526   2.706   6.276   3.762 -1.2046  1.8386 -2.8418
   48CHL1   H2B 3527   2.567   6.183   3.685  1.2440  0.0429 -2.0513
   48CHL1   C20 3528   2.559   5.505   4.368 -0.2030  0.6077  0.0775
   48CHL1   H20 3529   2.470   5.446   4.337  0.0846  0.6899 -0.9426
   48CHL1   C21 3530   2.502   5.631   4.433 -0.5033  0.2361 -0.0482
   48CHL1  H21A 3531   2.451   5.608   4.529 -2.7507 -0.4612 -1.3171
   48CHL1  H21B 3532   2.424   5.674   4.366 -1.9302 -0.4985  1.0837
   48CHL1  H21C 3533   2.587   5.701   4.441 -0.0432 -0.4137  0.8279
   48CHL1   C22 3534   2.648   5.435   4.471 -0.2554 -0.0360  0.3812
   48CHL1  H22A 3535   2.701   5.363   4.406  0.4755 -0.2081  1.1534
   48CHL1  H22B 3536   2.720   5.510   4.511  2.7097 -2.2924 -0.3574
   48CHL1   C23 3537   2.563   5.370   4.582  0.0954 -0.1354  0.0852
   48CHL1  H23A 3538   2.518   5.455   4.637 -1.0262  0.8768 -2.2551
   48CHL1  H23B 3539   2.487   5.300   4.541  1.8866 -2.3191  0.2892
   48CHL1   C24 3540   2.652   5.281   4.684 -0.1245 -0.1594  0.5636
   48CHL1  H24A 3541   2.711   5.208   4.624 -1.8966  0.8857 -2.7667
   48CHL1  H24B 3542   2.722   5.347   4.739  0.3936 -0.2623  0.0407
   48CHL1   C25 3543   2.564   5.191   4.780  0.2443  0.5283 -0.2074
   48CHL1   H25 3544   2.493   5.136   4.715  0.7188  1.6917 -1.7568
   48CHL1   C26 3545   2.649   5.084   4.857  0.1293 -0.0671 -0.1724
   48CHL1  H26A 3546   2.709   5.026   4.784  0.2243  0.1677 -0.2781
   48CHL1  H26B 3547   2.715   5.138   4.929  1.2134  1.5485 -2.2933
   48CHL1  H26C 3548   2.586   5.014   4.917 -1.3880  1.4921  0.1157
   48CHL1   C27 3549   2.478   5.273   4.876  0.0373 -0.4199  0.5298
   48CHL1  H27A 3550   2.399   5.329   4.822 -0.2432  0.0580  1.4136
   48CHL1  H27B 3551   2.422   5.205   4.943 -0.3837  1.1688  1.8663
   48CHL1  H27C 3552   2.533   5.344   4.942  1.6863 -1.5543  0.4329
   49CHL1    C3 3553   0.831   1.218   3.645  1.1484 -0.6420  0.3585
   49CHL1    H3 3554   0.938   1.213   3.676  1.3056  0.1814 -0.0081
   49CHL1    O3 3555   0.826   1.253   3.506  0.2545 -0.4085  0.0076
   49CHL1   H3' 3556   0.732   1.267   3.491  0.3158  0.5186  0.3900
   49CHL1    C4 3557   0.762   1.081   3.668 -0.3939  0.0851  0.1809
   49CHL1   H4A 3558   0.657   1.095   3.633 -0.1281 -1.1434 -1.1785
   49CHL1   H4B 3559   0.815   1.006   3.606  0.8651 -0.1791  1.5283
   49CHL1    C5 3560   0.762   1.046   3.820  0.2055  0.5014  0.0197
   49CHL1    C6 3561   0.809   0.926   3.873 -0.2469 -0.1186 -0.4822
   49CHL1    H6 3562   0.845   0.847   3.805  0.1750  0.2995 -0.7484
   49CHL1    C7 3563   0.803   0.895   4.015 -0.1502  0.1789 -0.1666
   49CHL1   H7A 3564   0.765   0.793   4.033 -1.8005  0.7065 -0.5074
   49CHL1   H7B 3565   0.902   0.898   4.066 -0.1939  0.0786 -0.0761
   49CHL1    C8 3566   0.705   0.984   4.095  0.2188 -0.7494 -0.3765
   49CHL1    H8 3567   0.602   0.959   4.061  0.5997 -0.3501 -1.9226
   49CHL1   C14 3568   0.724   0.957   4.244  0.3287  0.5281  0.4338
   49CHL1   H14 3569   0.825   0.989   4.277 -0.1253  0.2202  2.2241
   49CHL1   C15 3570   0.708   0.816   4.306 -0.2303  0.0473  0.1775
   49CHL1  H15A 3571   0.610   0.777   4.273 -0.1981  0.9518 -1.0248
   49CHL1  H15B 3572   0.789   0.741   4.289  0.8218  0.5843  2.4063
   49CHL1   C16 3573   0.713   0.840   4.454 -0.2008  0.1691 -0.1086
   49CHL1  H16A 3574   0.643   0.768   4.501 -1.4525  1.0051 -0.6161
   49CHL1  H16B 3575   0.816   0.829   4.494 -0.7642 -0.1033  1.3440
   49CHL1   C17 3576   0.668   0.989   4.480  0.1753  0.6830 -0.8427
   49CHL1   H17 3577   0.750   1.060   4.503  0.4266 -0.0197  0.5263
   49CHL1   C13 3578   0.634   1.041   4.337  0.0938 -0.1652 -0.4847
   49CHL1   C18 3579   0.482   1.015   4.305 -0.2647  0.4593  0.1411
   49CHL1  H18A 3580   0.428   1.103   4.346 -1.8135  0.1424 -1.0999
   49CHL1  H18B 3581   0.467   1.023   4.195 -0.1975  1.2415  0.1827
   49CHL1  H18C 3582   0.443   0.918   4.341  0.5834 -1.1933 -3.0215
   49CHL1   C12 3583   0.679   1.193   4.308 -0.2642 -1.0328 -0.5615
   49CHL1  H12A 3584   0.607   1.257   4.364  0.6167 -0.0773 -0.4957
   49CHL1  H12B 3585   0.781   1.208   4.350 -1.1502  1.1275  0.9824
   49CHL1   C11 3586   0.673   1.238   4.161 -0.2962  0.1558 -0.6953
   49CHL1  H11A 3587   0.563   1.233   4.147 -0.5719 -1.2776  1.4507
   49CHL1  H11B 3588   0.714   1.341   4.158  0.7266 -0.2220 -0.2323
   49CHL1    C9 3589   0.734   1.133   4.061  0.1391  0.1718 -0.0360
   49CHL1    H9 3590   0.844   1.139   4.074  0.4718 -3.0457 -0.5066
   49CHL1   C10 3591   0.714   1.164   3.913 -0.0418 -0.0897 -0.0204
   49CHL1   C19 3592   0.557   1.174   3.888 -0.6947  0.5785 -0.2007
   49CHL1  H19A 3593   0.520   1.260   3.947 -0.0501  0.4968  0.3318
   49CHL1  H19B 3594   0.542   1.204   3.782 -0.5314  1.4215  0.0058
   49CHL1  H19C 3595   0.496   1.083   3.907  1.8805 -1.6452 -1.8334
   49CHL1    C1 3596   0.774   1.297   3.872  0.5358 -0.5768 -0.9263
   49CHL1   H1A 3597   0.723   1.376   3.932 -2.9516 -2.0076 -1.7431
   49CHL1   H1B 3598   0.879   1.283   3.905  0.0281  0.3605  1.2441
   49CHL1    C2 3599   0.770   1.333   3.729  0.2966  0.1709  0.3378
   49CHL1   H2A 3600   0.822   1.429   3.708  3.1171 -1.1147  0.9660
   49CHL1   H2B 3601   0.666   1.353   3.696 -0.1404 -2.6801 -0.2272
   49CHL1   C20 3602   0.567   0.999   4.590  0.2368  0.3562  0.6745
   49CHL1   H20 3603   0.468   0.965   4.552  1.1402  0.6850 -2.1423
   49CHL1   C21 3604   0.539   1.144   4.627 -0.4748  0.4705  0.0547
   49CHL1  H21A 3605   0.496   1.208   4.547  1.5317  0.9765 -0.6770
   49CHL1  H21B 3606   0.632   1.190   4.667  0.3059 -0.8969 -0.0914
   49CHL1  H21C 3607   0.466   1.155   4.710 -1.0054  1.7568 -0.5692
   49CHL1   C22 3608   0.609   0.930   4.723  0.6732 -0.3581  0.0353
   49CHL1  H22A 3609   0.659   0.834   4.698 -0.0920 -1.2094  1.6195
   49CHL1  H22B 3610   0.693   0.991   4.762  0.3743  1.3046 -1.7417
   49CHL1   C23 3611   0.493   0.907   4.822 -0.0505  0.0516 -0.5714
   49CHL1  H23A 3612   0.442   1.001   4.853 -1.0127 -0.7757  0.4247
   49CHL1  H23B 3613   0.423   0.848   4.759  0.3791 -0.1233 -0.8837
   49CHL1   C24 3614   0.540   0.836   4.947 -0.7291 -0.0072  0.1255
   49CHL1  H24A 3615   0.607   0.754   4.911 -2.0223 -1.7154  1.3976
   49CHL1  H24B 3616   0.615   0.896   5.003 -0.7748 -0.2486  0.4543
   49CHL1   C25 3617   0.425   0.772   5.036  0.1351 -0.5663 -0.1774
   49CHL1   H25 3618   0.374   0.709   4.960  1.7329 -3.0125  0.6572
   49CHL1   C26 3619   0.479   0.690   5.147 -0.1910  0.0003 -0.2503
   49CHL1  H26A 3620   0.394   0.642   5.201 -1.2568 -2.4721 -3.7906
   49CHL1  H26B 3621   0.550   0.612   5.112  1.1150  1.1061 -0.1244
   49CHL1  H26C 3622   0.526   0.759   5.221  0.6825 -1.1258  0.2841
   49CHL1   C27 3623   0.322   0.880   5.088 -0.0938 -0.1820 -0.3213
   49CHL1  H27A 3624   0.378   0.931   5.168 -1.1274  0.1852  0.1815
   49CHL1  H27B 3625   0.303   0.948   5.002  0.8713 -0.0059 -0.3980
   49CHL1  H27C 3626   0.228   0.834   5.126 -0.0408  1.1677  1.5166
   50CHL1    C3 3627   6.259   1.516   3.369 -0.4713  0.3853  0.1168
   50CHL1    H3 3628   6.278   1.625   3.379  1.6251 -0.0108  1.1609
   50CHL1    O3 3629   6.273   1.480   3.237  0.1800 -0.2928  0.2239
   50CHL1   H3' 3630   6.280   1.385   3.234 -1.5193 -0.5293  2.0455
   50CHL1    C4 3631   6.363   1.442   3.449  0.7451 -0.1107  0.2304
   50CHL1   H4A 3632   6.337   1.335   3.432 -0.4813  0.4769 -1.8702
   50CHL1   H4B 3633   6.464   1.445   3.404  1.7385 -0.8391  2.2762
   50CHL1    C5 3634   6.351   1.484   3.600 -0.1951  0.6975 -0.2274
   50CHL1    C6 3635   6.460   1.543   3.661 -0.2724  0.4576 -0.1385
   50CHL1    H6 3636   6.548   1.578   3.606  0.3478  2.3055  1.9155
   50CHL1    C7 3637   6.447   1.596   3.802  0.3767 -1.2465 -0.2935
   50CHL1   H7A 3638   6.541   1.578   3.860  0.0037 -3.7107 -0.3506
   50CHL1   H7B 3639   6.439   1.707   3.803 -0.4343 -1.2616  2.6260
   50CHL1    C8 3640   6.332   1.543   3.882  0.4375  0.2266 -0.3502
   50CHL1    H8 3641   6.353   1.439   3.912 -0.0581 -0.5354 -2.4889
   50CHL1   C14 3642   6.311   1.624   4.010 -0.4661 -0.7619 -0.1693
   50CHL1   H14 3643   6.294   1.731   3.982  0.6240 -1.0366 -2.0704
   50CHL1   C15 3644   6.427   1.639   4.104  0.0207 -0.2116  0.2975
   50CHL1  H15A 3645   6.494   1.551   4.112 -1.5855 -1.6425 -1.1504
   50CHL1  H15B 3646   6.485   1.726   4.068  2.0859 -1.0067  1.5296
   50CHL1   C16 3647   6.364   1.674   4.238 -0.2386 -0.4916 -0.6873
   50CHL1  H16A 3648   6.388   1.592   4.310 -0.1200  0.1200 -0.0209
   50CHL1  H16B 3649   6.395   1.770   4.284 -0.7461 -0.7565  0.2324
   50CHL1   C17 3650   6.204   1.672   4.225 -0.6658 -0.0356 -0.1679
   50CHL1   H17 3651   6.180   1.775   4.190 -0.9534 -0.2849 -0.7167
   50CHL1   C13 3652   6.189   1.584   4.099  0.2327  0.1124 -0.2147
   50CHL1   C18 3653   6.202   1.441   4.153  0.0044 -0.2114 -0.1720
   50CHL1  H18A 3654   6.300   1.432   4.206  0.0443 -0.9911 -0.3621
   50CHL1  H18B 3655   6.125   1.418   4.229  1.1994 -2.6866  0.3914
   50CHL1  H18C 3656   6.200   1.368   4.069  0.7354  0.2308 -0.5928
   50CHL1   C12 3657   6.053   1.597   4.017 -0.3500 -0.5380  0.5541
   50CHL1  H12A 3658   5.966   1.564   4.077 -0.7105  1.2883  1.0975
   50CHL1  H12B 3659   6.047   1.707   4.001 -1.0265 -0.7726 -0.9914
   50CHL1   C11 3660   6.067   1.512   3.888  0.0318 -0.2102 -0.0798
   50CHL1  H11A 3661   6.056   1.405   3.916  2.0767 -0.6370 -0.7606
   50CHL1  H11B 3662   5.979   1.555   3.835  0.1558  2.2026  1.5133
   50CHL1    C9 3663   6.198   1.545   3.803  0.4846 -0.1337 -0.1930
   50CHL1    H9 3664   6.178   1.652   3.779  3.1074  0.5747  0.4296
   50CHL1   C10 3665   6.214   1.466   3.674  0.0782 -0.2406 -0.0815
   50CHL1   C19 3666   6.187   1.315   3.710 -0.5849  0.6348  0.6825
   50CHL1  H19A 3667   6.225   1.257   3.623  1.9678  1.1850  1.3240
   50CHL1  H19B 3668   6.241   1.279   3.801 -2.7933  0.7392  2.1076
   50CHL1  H19C 3669   6.080   1.295   3.732 -0.1660 -2.4175  0.4262
   50CHL1    C1 3670   6.107   1.526   3.573 -0.5338  0.0610  0.3098
   50CHL1   H1A 3671   6.006   1.493   3.607  0.2111 -0.0061  2.6447
   50CHL1   H1B 3672   6.103   1.637   3.578 -1.1826  0.1054 -0.9114
   50CHL1    C2 3673   6.122   1.477   3.424 -0.5096 -0.4408 -0.2033
   50CHL1   H2A 3674   6.043   1.525   3.362  0.7294 -0.3828 -1.8024
   50CHL1   H2B 3675   6.108   1.367   3.409  0.4573 -0.3908 -1.7481
   50CHL1   C20 3676   6.140   1.646   4.355 -0.3136 -0.8348 -0.2431
   50CHL1   H20 3677   6.149   1.541   4.388  0.3260 -1.2515 -1.6617
   50CHL1   C21 3678   5.992   1.695   4.344 -0.1519  0.3168 -0.2518
   50CHL1  H21A 3679   5.930   1.662   4.430  0.5209 -1.1093 -0.2782
   50CHL1  H21B 3680   5.945   1.650   4.254  2.0100 -1.4826 -0.5826
   50CHL1  H21C 3681   5.986   1.805   4.330 -1.7153 -0.0447 -3.2274
   50CHL1   C22 3682   6.204   1.724   4.476 -0.2384 -0.3423  0.0903
   50CHL1  H22A 3683   6.315   1.733   4.473 -0.1687 -0.6878  1.1798
   50CHL1  H22B 3684   6.168   1.829   4.476 -0.6249 -0.3494  4.0545
   50CHL1   C23 3685   6.178   1.670   4.622  0.4956  0.3397  0.6338
   50CHL1  H23A 3686   6.071   1.667   4.652  0.6389 -3.3793  1.2003
   50CHL1  H23B 3687   6.201   1.562   4.630  1.0512  0.3683 -0.3938
   50CHL1   C24 3688   6.249   1.749   4.732 -0.2280  0.3133 -0.5770
   50CHL1  H24A 3689   6.358   1.760   4.712 -0.3464  1.4209 -0.6365
   50CHL1  H24B 3690   6.210   1.851   4.749 -0.8436 -0.0141  0.0428
   50CHL1   C25 3691   6.235   1.673   4.869 -0.4677  0.2966 -0.5544
   50CHL1   H25 3692   6.280   1.574   4.848 -1.2833 -0.2336  0.1542
   50CHL1   C26 3693   6.328   1.730   4.978  0.5624 -0.4564  0.1310
   50CHL1  H26A 3694   6.326   1.657   5.063  0.1526 -0.3284  0.2332
   50CHL1  H26B 3695   6.431   1.742   4.940 -0.3556  2.9931 -1.6447
   50CHL1  H26C 3696   6.299   1.832   5.011  0.7290 -0.6732  0.9918
   50CHL1   C27 3697   6.091   1.665   4.918  1.1364  0.5658  0.2275
   50CHL1  H27A 3698   6.060   1.771   4.915 -0.7003  0.0942  1.2612
   50CHL1  H27B 3699   6.021   1.601   4.860  0.5431 -1.5185  3.0445
   50CHL1  H27C 3700   6.081   1.629   5.022 -1.6629 -2.2988 -0.8716
   51CHL1    C3 3701   0.978   0.540   3.498  0.4859  0.3819 -0.9326
   51CHL1    H3 3702   0.934   0.641   3.511 -0.0895 -0.2265  4.0211
   51CHL1    O3 3703   1.020   0.526   3.368 -0.2722 -0.1284  0.7057
   51CHL1   H3' 3704   1.114   0.548   3.372 -0.3913  0.2938  1.2665
   51CHL1    C4 3705   1.089   0.504   3.602 -0.0468  0.1149  0.1706
   51CHL1   H4A 3706   1.123   0.402   3.577 -0.2908  0.3523 -1.2547
   51CHL1   H4B 3707   1.182   0.559   3.579  0.1419 -0.2529  0.0569
   51CHL1    C5 3708   1.041   0.512   3.743  0.9039 -0.6958  0.6025
   51CHL1    C6 3709   1.096   0.598   3.830 -0.0601 -0.1421 -0.7659
   51CHL1    H6 3710   1.174   0.667   3.793 -1.3279  1.8117  0.0806
   51CHL1    C7 3711   1.065   0.598   3.979  0.3522 -0.2472  0.1089
   51CHL1   H7A 3712   1.154   0.611   4.043  0.0772  0.8181  0.2921
   51CHL1   H7B 3713   0.995   0.681   4.003 -0.1674 -0.2801 -1.2006
   51CHL1    C8 3714   0.985   0.472   4.020  0.2736  0.0446  0.0293
   51CHL1    H8 3715   1.060   0.390   4.024 -1.0981 -1.1971  1.6317
   51CHL1   C14 3716   0.921   0.505   4.151 -1.2156 -0.6169  0.4206
   51CHL1   H14 3717   0.840   0.581   4.140 -0.1636  0.5297  0.4242
   51CHL1   C15 3718   1.016   0.563   4.264 -0.5968  0.4631  0.4215
   51CHL1  H15A 3719   1.112   0.507   4.263  0.0932  1.5807  1.2171
   51CHL1  H15B 3720   1.033   0.672   4.254  2.0159  0.0826 -0.0122
   51CHL1   C16 3721   0.948   0.521   4.396  0.0535  0.2349 -0.6793
   51CHL1  H16A 3722   1.028   0.495   4.469  1.5855  1.0824 -1.9824
   51CHL1  H16B 3723   0.896   0.604   4.448 -1.6177 -2.5762  2.5021
   51CHL1   C17 3724   0.836   0.416   4.364  0.7297  0.8536  0.3546
   51CHL1   H17 3725   0.749   0.482   4.342  1.2292  1.0829 -0.9934
   51CHL1   C13 3726   0.860   0.376   4.216  0.3769 -0.6433  0.4908
   51CHL1   C18 3727   0.956   0.256   4.227 -0.1513  0.0059  0.0519
   51CHL1  H18A 3728   1.043   0.282   4.291 -1.0104  3.3287  0.0097
   51CHL1  H18B 3729   0.900   0.166   4.261 -1.6590  0.6525 -0.6434
   51CHL1  H18C 3730   0.998   0.226   4.129 -0.2162  1.0133 -0.2951
   51CHL1   C12 3731   0.734   0.345   4.127 -0.6089 -0.3691  0.3822
   51CHL1  H12A 3732   0.685   0.250   4.156 -2.5753  0.0390 -1.3238
   51CHL1  H12B 3733   0.665   0.431   4.124  0.9747  0.9880  1.2220
   51CHL1   C11 3734   0.767   0.342   3.973 -1.0243  0.3001  0.2346
   51CHL1  H11A 3735   0.795   0.235   3.977 -1.5184  0.1888  2.5010
   51CHL1  H11B 3736   0.667   0.344   3.924 -0.6451 -0.9240 -0.6468
   51CHL1    C9 3737   0.875   0.444   3.918 -0.0938  0.1335  0.2531
   51CHL1    H9 3738   0.817   0.538   3.906 -0.6324 -0.5131 -3.4573
   51CHL1   C10 3739   0.921   0.423   3.780 -0.0077 -0.8576 -0.2727
   51CHL1   C19 3740   0.956   0.276   3.758  0.0519 -0.2484 -0.0944
   51CHL1  H19A 3741   1.039   0.250   3.827  0.0925 -1.7079 -0.6647
   51CHL1  H19B 3742   0.875   0.202   3.774 -0.3796  0.3085  0.3318
   51CHL1  H19C 3743   0.991   0.246   3.657 -1.2450 -1.4711 -0.2037
   51CHL1    C1 3744   0.806   0.457   3.684  0.2923  0.3542  0.0665
   51CHL1   H1A 3745   0.723   0.384   3.695  1.2535 -1.0239 -1.3348
   51CHL1   H1B 3746   0.780   0.564   3.701  1.7789  0.8405 -0.5873
   51CHL1    C2 3747   0.854   0.454   3.526  0.6546 -0.4271 -0.3565
   51CHL1   H2A 3748   0.784   0.505   3.456 -0.5639 -0.5350  0.7521
   51CHL1   H2B 3749   0.867   0.349   3.492  1.4155 -0.2172 -0.7448
   51CHL1   C20 3750   0.807   0.318   4.473 -0.0322 -0.0730  0.2140
   51CHL1   H20 3751   0.891   0.248   4.492 -0.1894  0.1415  1.8255
   51CHL1   C21 3752   0.678   0.239   4.439  0.0548 -0.6356  0.3443
   51CHL1  H21A 3753   0.650   0.169   4.520 -1.3997 -1.1198 -0.5346
   51CHL1  H21B 3754   0.683   0.186   4.341  0.6615 -1.0015  0.5674
   51CHL1  H21C 3755   0.600   0.318   4.432  0.3104 -0.3860  0.2866
   51CHL1   C22 3756   0.788   0.388   4.609 -0.2142 -0.0051 -0.9261
   51CHL1  H22A 3757   0.883   0.431   4.645  0.1667 -0.2133 -1.6567
   51CHL1  H22B 3758   0.741   0.488   4.599 -0.8515 -0.0119  1.3157
   51CHL1   C23 3759   0.724   0.320   4.727  0.2421  0.0965 -1.0133
   51CHL1  H23A 3760   0.618   0.304   4.696  0.5425 -0.6714 -1.6731
   51CHL1  H23B 3761   0.758   0.216   4.744  0.3945  0.4790  1.3131
   51CHL1   C24 3762   0.736   0.382   4.869  1.1834  0.1809 -0.0120
   51CHL1  H24A 3763   0.843   0.395   4.895  0.7343  1.3518  1.4321
   51CHL1  H24B 3764   0.697   0.485   4.854 -3.5580 -1.7678 -3.7004
   51CHL1   C25 3765   0.659   0.302   4.973 -0.1801  0.1836  0.8706
   51CHL1   H25 3766   0.668   0.195   4.946 -2.2899  0.3525 -0.7937
   51CHL1   C26 3767   0.715   0.329   5.113  0.0162  0.3794  0.3953
   51CHL1  H26A 3768   0.726   0.437   5.140 -0.0369  0.6157 -0.4898
   51CHL1  H26B 3769   0.665   0.275   5.196  1.3563 -0.8730  0.4219
   51CHL1  H26C 3770   0.816   0.283   5.114 -0.5674 -0.9256  1.1986
   51CHL1   C27 3771   0.506   0.334   4.970 -0.0628  0.6838  0.1148
   51CHL1  H27A 3772   0.456   0.320   5.068 -0.7883  2.8216  0.1133
   51CHL1  H27B 3773   0.488   0.434   4.925 -0.4168  0.8419  0.5964
   51CHL1  H27C 3774   0.461   0.262   4.899 -1.6397  1.4437  0.2972
   52CHL1    C3 3775   0.963   4.558   5.956 -0.1550  0.6176 -0.3543
   52CHL1    H3 3776   1.070   4.566   5.927  0.6372 -2.2200  1.3619
   52CHL1    O3 3777   0.954   4.551   6.094 -0.3487 -0.3199  0.0172
   52CHL1   H3' 3778   1.005   4.473   6.115 -0.9384 -0.3495  1.4002
   52CHL1    C4 3779   0.880   4.678   5.913  0.0113  0.4508  0.6034
   52CHL1   H4A 3780   0.777   4.673   5.954 -0.7172  0.8897 -1.0843
   52CHL1   H4B 3781   0.927   4.767   5.959  0.8979  1.4092 -1.9890
   52CHL1    C5 3782   0.877   4.681   5.760  0.9193  0.0459  0.0442
   52CHL1    C6 3783   0.924   4.794   5.703  0.0996  0.6237  0.8080
   52CHL1    H6 3784   0.963   4.873   5.770  0.4649  1.0313  0.1238
   52CHL1    C7 3785   0.916   4.819   5.556 -0.1178  0.1721 -0.4801
   52CHL1   H7A 3786   0.873   4.920   5.539 -0.0102  0.2398 -0.3579
   52CHL1   H7B 3787   1.011   4.811   5.498  0.5844  1.6794  0.3745
   52CHL1    C8 3788   0.816   4.725   5.487 -0.6372 -0.3228  0.0338
   52CHL1    H8 3789   0.716   4.759   5.523 -0.2779  1.9245 -0.9035
   52CHL1   C14 3790   0.815   4.737   5.336  0.2441 -1.0281  0.3649
   52CHL1   H14 3791   0.919   4.708   5.310 -0.0638 -0.8440 -1.1083
   52CHL1   C15 3792   0.787   4.872   5.261  0.1831  0.4768 -0.2621
   52CHL1  H15A 3793   0.701   4.911   5.319 -0.2437 -3.2569  1.9722
   52CHL1  H15B 3794   0.873   4.941   5.251  0.7151 -0.1974 -0.4590
   52CHL1   C16 3795   0.738   4.834   5.121  0.2440  0.2510 -0.0046
   52CHL1  H16A 3796   0.630   4.852   5.102  0.3076  0.6062 -0.0392
   52CHL1  H16B 3797   0.791   4.883   5.037  0.8434  1.3894  0.9903
   52CHL1   C17 3798   0.753   4.682   5.115  0.7196  1.0234  0.2066
   52CHL1   H17 3799   0.861   4.675   5.092  0.8166  0.6752  0.7558
   52CHL1   C13 3800   0.729   4.633   5.261  0.2200 -0.2887  0.2548
   52CHL1   C18 3801   0.583   4.634   5.302  0.6218  0.5770  0.1518
   52CHL1  H18A 3802   0.566   4.623   5.412  0.7152  0.3042  0.1390
   52CHL1  H18B 3803   0.537   4.728   5.264 -1.1748 -1.3365 -2.7965
   52CHL1  H18C 3804   0.527   4.553   5.250 -1.1491  2.6539 -1.3921
   52CHL1   C12 3805   0.780   4.496   5.295 -0.4812  0.7622  0.2111
   52CHL1  H12A 3806   0.717   4.428   5.234  0.4679 -0.2454  0.3132
   52CHL1  H12B 3807   0.883   4.480   5.256 -1.4515 -2.4781 -1.3850
   52CHL1   C11 3808   0.778   4.466   5.445  0.6707  0.2474 -0.4056
   52CHL1  H11A 3809   0.673   4.448   5.474  0.4719  2.3159  0.3373
   52CHL1  H11B 3810   0.836   4.373   5.464 -0.4467 -0.1656  1.1537
   52CHL1    C9 3811   0.850   4.578   5.527 -0.6435 -0.2128  0.0266
   52CHL1    H9 3812   0.959   4.559   5.515 -0.6569  0.5328 -1.4037
   52CHL1   C10 3813   0.821   4.563   5.684  0.0457  0.1678 -0.2036
   52CHL1   C19 3814   0.666   4.552   5.708 -0.0358 -0.5728  0.6778
   52CHL1  H19A 3815   0.620   4.637   5.653  2.0173 -0.1668 -0.5259
   52CHL1  H19B 3816   0.629   4.458   5.660 -1.5096  0.8573 -1.1692
   52CHL1  H19C 3817   0.639   4.552   5.815  0.5589 -0.3322  0.8305
   52CHL1    C1 3818   0.892   4.442   5.741  0.0298 -0.2091  0.4756
   52CHL1   H1A 3819   0.846   4.350   5.700  1.5991 -1.4022  1.2549
   52CHL1   H1B 3820   0.998   4.439   5.706 -0.1430  1.6151 -0.3165
   52CHL1    C2 3821   0.904   4.429   5.888 -0.2013 -0.0254 -0.6320
   52CHL1   H2A 3822   0.975   4.348   5.915  0.7798  0.2574 -2.2268
   52CHL1   H2B 3823   0.803   4.410   5.929  1.0078 -0.5492  2.3231
   52CHL1   C20 3824   0.684   4.607   4.995 -0.1634 -0.0469 -0.0863
   52CHL1   H20 3825   0.693   4.497   5.008  1.8743  0.2761  1.7643
   52CHL1   C21 3826   0.754   4.652   4.868 -0.3917  0.8583 -0.0258
   52CHL1  H21A 3827   0.849   4.594   4.873 -0.5932  0.6503  2.0968
   52CHL1  H21B 3828   0.784   4.759   4.867 -1.8101  1.2759  0.0601
   52CHL1  H21C 3829   0.713   4.626   4.768  2.2892 -0.8684 -0.8093
   52CHL1   C22 3830   0.529   4.638   4.974 -0.3789 -0.2113 -0.6788
   52CHL1  H22A 3831   0.467   4.644   5.066  0.2948 -0.1270 -0.2272
   52CHL1  H22B 3832   0.520   4.734   4.918 -1.1315 -0.6594 -1.3555
   52CHL1   C23 3833   0.447   4.549   4.883 -0.7858 -0.4236 -0.4751
   52CHL1  H23A 3834   0.481   4.566   4.779 -1.5341  0.9086 -0.5145
   52CHL1  H23B 3835   0.471   4.446   4.917  3.2445  0.6578  0.4981
   52CHL1   C24 3836   0.301   4.582   4.893 -0.4410 -0.3192  0.2354
   52CHL1  H24A 3837   0.263   4.548   4.991  2.5894 -2.2838  0.8816
   52CHL1  H24B 3838   0.302   4.691   4.870 -0.7473 -0.2564  0.5167
   52CHL1   C25 3839   0.216   4.509   4.780 -0.0910  0.2902  0.3620
   52CHL1   H25 3840   0.283   4.486   4.695  1.6462 -2.4310  2.3344
   52CHL1   C26 3841   0.160   4.373   4.832  0.4074 -0.6980 -0.0822
   52CHL1  H26A 3842   0.236   4.293   4.819  3.6885  2.0383  0.8641
   52CHL1  H26B 3843   0.140   4.387   4.940 -0.1308 -0.4002 -0.2148
   52CHL1  H26C 3844   0.065   4.347   4.780 -0.4225  1.1671  0.4201
   52CHL1   C27 3845   0.110   4.612   4.728  0.1929  0.5414 -0.2135
   52CHL1  H27A 3846   0.034   4.627   4.808 -1.7235 -1.1810 -1.5900
   52CHL1  H27B 3847   0.161   4.703   4.690  0.9698 -0.3275 -1.3017
   52CHL1  H27C 3848   0.051   4.577   4.641 -0.8205 -0.0897  0.6904
   53CHL1    C3 3849   4.051   1.960   3.278  0.7571 -0.2740 -0.2748
   53CHL1    H3 3850   4.076   1.852   3.270  0.6186 -0.3689  0.5063
   53CHL1    O3 3851   4.058   2.030   3.152  0.0494  0.1214  0.5376
   53CHL1   H3' 3852   4.151   2.019   3.130  0.8618  0.6887  3.2630
   53CHL1    C4 3853   3.904   1.969   3.321  0.1924 -0.9702 -0.1657
   53CHL1   H4A 3854   3.871   2.074   3.309  1.3731 -0.6129 -0.4786
   53CHL1   H4B 3855   3.842   1.911   3.250 -0.0784 -2.6634  1.3758
   53CHL1    C5 3856   3.891   1.914   3.463 -0.0056 -0.0842  0.9961
   53CHL1    C6 3857   3.808   1.816   3.495  0.0749 -0.3150  0.5656
   53CHL1    H6 3858   3.745   1.761   3.423  2.2488 -1.3611 -0.6345
   53CHL1    C7 3859   3.773   1.777   3.634  0.4308 -0.0701  0.0196
   53CHL1   H7A 3860   3.663   1.779   3.648  0.5169 -0.0057  0.7367
   53CHL1   H7B 3861   3.821   1.679   3.653 -1.8753 -1.1762  0.3902
   53CHL1    C8 3862   3.826   1.882   3.742 -0.0040  0.0757 -0.1342
   53CHL1    H8 3863   3.760   1.971   3.729 -1.2454 -1.0894 -2.3580
   53CHL1   C14 3864   3.818   1.825   3.881 -0.1413 -0.6348 -0.6407
   53CHL1   H14 3865   3.893   1.743   3.873  2.3519  1.1356  2.2096
   53CHL1   C15 3866   3.694   1.763   3.940  0.2930 -0.1516 -0.4373
   53CHL1  H15A 3867   3.609   1.828   3.912 -1.1226  0.5550  4.4870
   53CHL1  H15B 3868   3.685   1.659   3.902  1.7838 -0.7648  0.7778
   53CHL1   C16 3869   3.701   1.772   4.090  0.3864 -0.4540 -0.7606
   53CHL1  H16A 3870   3.622   1.831   4.141 -0.7728 -1.4202 -1.4014
   53CHL1  H16B 3871   3.692   1.676   4.146  1.2377  0.2737  0.7038
   53CHL1   C17 3872   3.839   1.838   4.119 -0.1917 -0.2851  0.0572
   53CHL1   H17 3873   3.919   1.760   4.123  0.7436  0.6214 -0.4152
   53CHL1   C13 3874   3.873   1.914   3.993  0.0122 -0.6836  0.0624
   53CHL1   C18 3875   3.794   2.050   4.003 -0.5948  0.3560  0.2348
   53CHL1  H18A 3876   3.855   2.126   4.058  0.1405 -0.5121  0.6528
   53CHL1  H18B 3877   3.781   2.095   3.903  0.9028 -0.4043 -0.3274
   53CHL1  H18C 3878   3.697   2.033   4.055 -1.2106 -1.0474 -1.2705
   53CHL1   C12 3879   4.030   1.942   3.963  0.2256  0.9049 -0.0792
   53CHL1  H12A 3880   4.072   2.007   4.043  1.1021 -1.4422  1.4865
   53CHL1  H12B 3881   4.080   1.842   3.964  0.1186  0.8311 -1.2235
   53CHL1   C11 3882   4.039   2.003   3.829  0.3376 -0.2652  0.4796
   53CHL1  H11A 3883   3.987   2.101   3.823  3.0279  1.1660 -1.6190
   53CHL1  H11B 3884   4.139   2.048   3.813  0.7490 -1.3845 -0.2036
   53CHL1    C9 3885   3.973   1.920   3.711  0.0971 -0.4338  0.4913
   53CHL1    H9 3886   4.034   1.827   3.704 -0.1807 -0.7422  1.8479
   53CHL1   C10 3887   3.979   1.982   3.568 -0.1133  0.7136  0.4034
   53CHL1   C19 3888   3.948   2.135   3.579  0.2921 -0.8828 -0.3972
   53CHL1  H19A 3889   3.842   2.137   3.611 -0.7048 -2.4678 -3.2160
   53CHL1  H19B 3890   4.016   2.183   3.654 -0.1104 -1.4781  0.3620
   53CHL1  H19C 3891   3.955   2.182   3.478  3.8548 -0.3952 -0.0613
   53CHL1    C1 3892   4.127   1.979   3.512 -0.1128 -0.5109  0.0134
   53CHL1   H1A 3893   4.184   2.035   3.589 -0.9731  0.4992 -0.0631
   53CHL1   H1B 3894   4.162   1.874   3.501  1.0518 -0.5252  2.8681
   53CHL1    C2 3895   4.149   2.032   3.371  0.6055  0.1703 -0.4411
   53CHL1   H2A 3896   4.257   2.027   3.345  0.5809 -2.2569 -0.2778
   53CHL1   H2B 3897   4.111   2.136   3.376  0.5368  0.1440 -0.4174
   53CHL1   C20 3898   3.844   1.907   4.257  0.2833  0.4397  0.3724
   53CHL1   H20 3899   3.777   1.996   4.257  0.8886  0.9063  1.0836
   53CHL1   C21 3900   3.989   1.954   4.289 -0.0317  0.1966 -0.6149
   53CHL1  H21A 3901   4.014   2.052   4.242  0.9026  0.1783 -0.1843
   53CHL1  H21B 3902   4.056   1.866   4.279  0.2696  0.4383 -0.7293
   53CHL1  H21C 3903   3.983   1.974   4.398 -0.7901 -1.6869 -0.2716
   53CHL1   C22 3904   3.796   1.822   4.383  1.2652 -0.1335  0.5758
   53CHL1  H22A 3905   3.702   1.771   4.352 -0.5950  3.5997 -0.4943
   53CHL1  H22B 3906   3.876   1.747   4.398 -0.2728 -1.6393  1.7177
   53CHL1   C23 3907   3.767   1.885   4.519  0.8642  0.2124 -0.0382
   53CHL1  H23A 3908   3.835   1.966   4.551 -1.5183  1.2045  2.8896
   53CHL1  H23B 3909   3.671   1.941   4.514  2.0178  2.2809 -0.3605
   53CHL1   C24 3910   3.754   1.776   4.627 -0.0800 -0.1705  0.5033
   53CHL1  H24A 3911   3.692   1.692   4.587  0.1995 -0.3782  0.5030
   53CHL1  H24B 3912   3.854   1.738   4.658  0.0309  1.2518  2.0041
   53CHL1   C25 3913   3.695   1.829   4.760  0.1788 -0.1821  0.0088
   53CHL1   H25 3914   3.587   1.854   4.755  0.2447 -0.1587 -2.8453
   53CHL1   C26 3915   3.682   1.704   4.855 -0.1383 -0.3377  0.3043
   53CHL1  H26A 3916   3.644   1.740   4.953 -1.1718  0.6801 -0.4356
   53CHL1  H26B 3917   3.612   1.624   4.823  0.4134 -0.8045  0.2601
   53CHL1  H26C 3918   3.779   1.657   4.878 -0.5428 -0.8081  1.0957
   53CHL1   C27 3919   3.775   1.937   4.834  0.1186 -0.1998 -0.0294
   53CHL1  H27A 3920   3.739   1.952   4.938 -1.2264 -0.9683 -0.3673
   53CHL1  H27B 3921   3.881   1.907   4.850  0.0435 -0.1250  0.6714
   53CHL1  H27C 3922   3.765   2.027   4.770 -1.1870 -1.0552 -1.0747
   54CHL1    C3 3923   2.306   1.317   3.714  1.2241 -0.1455 -0.1453
   54CHL1    H3 3924   2.267   1.214   3.730 -0.8533  0.6332  0.1561
   54CHL1    O3 3925   2.348   1.315   3.580  0.0129  0.3593 -0.0324
   54CHL1   H3' 3926   2.346   1.403   3.542 -0.0530  0.4180  0.1077
   54CHL1    C4 3927   2.197   1.424   3.714 -0.3134 -0.0837  0.0660
   54CHL1   H4A 3928   2.243   1.522   3.689 -1.4648  0.4317 -0.0868
   54CHL1   H4B 3929   2.126   1.392   3.635 -0.7568  0.4649  0.2396
   54CHL1    C5 3930   2.135   1.444   3.846 -0.2403  0.4360  0.8579
   54CHL1    C6 3931   2.009   1.412   3.861  0.0527  0.7172  1.0141
   54CHL1    H6 3932   1.949   1.385   3.773  1.0115 -1.9911  1.0774
   54CHL1    C7 3933   1.946   1.434   3.994  0.4165  0.1197 -0.7448
   54CHL1   H7A 3934   1.861   1.502   3.972 -0.1456  0.5545  2.3836
   54CHL1   H7B 3935   1.907   1.341   4.040 -1.1501 -0.2026 -2.5955
   54CHL1    C8 3936   2.027   1.517   4.091 -0.8085  0.4073 -0.4606
   54CHL1    H8 3937   2.028   1.624   4.061 -0.1492  0.9354  1.2908
   54CHL1   C14 3938   1.964   1.505   4.236 -0.7845 -0.2876  0.5896
   54CHL1   H14 3939   1.978   1.401   4.272 -0.8322  0.1490  1.9255
   54CHL1   C15 3940   1.816   1.539   4.246 -0.9468 -0.1246 -0.1540
   54CHL1  H15A 3941   1.801   1.638   4.199  1.5332  0.5795  0.4018
   54CHL1  H15B 3942   1.747   1.468   4.195 -1.4855  0.5566 -0.3938
   54CHL1   C16 3943   1.792   1.542   4.395  0.1469 -0.0570 -0.6401
   54CHL1  H16A 3944   1.748   1.638   4.428 -0.4027 -0.4225 -0.3010
   54CHL1  H16B 3945   1.736   1.454   4.433  0.2649 -0.8348 -2.1832
   54CHL1   C17 3946   1.936   1.536   4.456 -0.5933  0.5413 -0.8091
   54CHL1   H17 3947   1.954   1.428   4.478 -0.6637  0.6735 -0.1004
   54CHL1   C13 3948   2.038   1.569   4.350  0.2295 -0.0980  0.2738
   54CHL1   C18 3949   2.045   1.720   4.334  0.2169 -0.5939 -0.0822
   54CHL1  H18A 3950   2.112   1.757   4.254 -1.0104  3.1651  0.4573
   54CHL1  H18B 3951   1.947   1.754   4.293 -0.0712 -1.6844 -0.3508
   54CHL1  H18C 3952   2.077   1.775   4.425  0.8259 -2.0825  0.6453
   54CHL1   C12 3953   2.180   1.500   4.347 -0.3758  0.1483  0.1636
   54CHL1  H12A 3954   2.239   1.544   4.431  1.0621  0.3438 -0.9153
   54CHL1  H12B 3955   2.174   1.391   4.370  1.7065  0.4707  2.7233
   54CHL1   C11 3956   2.254   1.515   4.211 -0.4495 -0.1942 -0.3654
   54CHL1  H11A 3957   2.258   1.622   4.182 -0.4591  0.3799  1.6102
   54CHL1  H11B 3958   2.354   1.469   4.223 -0.5565 -0.1214  0.8897
   54CHL1    C9 3959   2.171   1.462   4.089  0.5106 -0.4884 -0.0173
   54CHL1    H9 3960   2.150   1.357   4.119 -0.3190 -0.2589  0.2303
   54CHL1   C10 3961   2.242   1.471   3.953 -0.5906  0.2623  0.1271
   54CHL1   C19 3962   2.309   1.616   3.931  0.2375  0.5578  0.2546
   54CHL1  H19A 3963   2.391   1.618   4.006  0.5115  0.0000 -0.0216
   54CHL1  H19B 3964   2.353   1.612   3.829  1.5644 -3.1013  0.8304
   54CHL1  H19C 3965   2.228   1.690   3.949  0.8983  1.9237 -1.9262
   54CHL1    C1 3966   2.360   1.365   3.955  0.9203  0.2016  0.2888
   54CHL1   H1A 3967   2.436   1.385   4.034 -1.2314  3.1597  1.8362
   54CHL1   H1B 3968   2.319   1.266   3.983  2.3784 -0.1647  1.2398
   54CHL1    C2 3969   2.421   1.346   3.816 -0.1265  0.3188 -0.0383
   54CHL1   H2A 3970   2.491   1.260   3.811 -2.0996 -1.3370 -0.4068
   54CHL1   H2B 3971   2.474   1.438   3.781 -0.0084 -0.7627 -2.9781
   54CHL1   C20 3972   1.948   1.608   4.593  0.0256  0.1148 -0.7320
   54CHL1   H20 3973   1.923   1.716   4.584  1.0003  0.3556 -0.6987
   54CHL1   C21 3974   2.094   1.608   4.648 -0.3077  0.2849 -0.8700
   54CHL1  H21A 3975   2.154   1.691   4.604 -1.0389  1.7108  0.7227
   54CHL1  H21B 3976   2.145   1.511   4.628 -2.4615 -1.4666  1.4316
   54CHL1  H21C 3977   2.098   1.620   4.758 -2.5589  1.0468 -0.8240
   54CHL1   C22 3978   1.851   1.548   4.697  0.4259 -0.7106  0.2739
   54CHL1  H22A 3979   1.866   1.596   4.795 -0.4958  0.4766 -0.1514
   54CHL1  H22B 3980   1.746   1.581   4.685  0.8016  0.3640 -0.2124
   54CHL1   C23 3981   1.850   1.399   4.724 -0.7126 -0.1535 -0.6035
   54CHL1  H23A 3982   1.754   1.369   4.772 -0.6176 -0.2976 -0.4994
   54CHL1  H23B 3983   1.847   1.344   4.628 -0.8307 -0.9814 -0.1450
   54CHL1   C24 3984   1.961   1.356   4.827 -0.0482  0.5982  0.6003
   54CHL1  H24A 3985   2.059   1.358   4.776  0.3151  2.4351  1.2731
   54CHL1  H24B 3986   1.955   1.438   4.903 -3.3899 -0.9186  2.1483
   54CHL1   C25 3987   1.929   1.216   4.884  0.2002 -0.3386 -0.1706
   54CHL1   H25 3988   1.825   1.190   4.858 -0.6622  1.1598  1.6090
   54CHL1   C26 3989   2.026   1.106   4.838 -0.2144 -0.3388  0.1862
   54CHL1  H26A 3990   2.025   1.089   4.728  0.0639  0.7725 -0.0024
   54CHL1  H26B 3991   2.128   1.143   4.863  0.4032  0.1459 -2.6701
   54CHL1  H26C 3992   2.001   1.006   4.881 -0.9318 -0.3752 -0.2914
   54CHL1   C27 3993   1.908   1.210   5.034  0.3381  0.3298 -0.4563
   54CHL1  H27A 3994   1.894   1.103   5.061  1.8946  0.2076 -0.0048
   54CHL1  H27B 3995   2.000   1.245   5.086  0.7878  0.2064 -1.1510
   54CHL1  H27C 3996   1.824   1.267   5.079  0.3751  0.3121 -0.3636
   55CHL1    C3 3997   2.059   2.782   3.138  0.1791  0.3492  0.0278
   55CHL1    H3 3998   2.147   2.743   3.193 -0.5816 -1.1195  0.2456
   55CHL1    O3 3999   2.097   2.754   3.004  0.7208  0.6177  0.1930
   55CHL1   H3' 4000   2.018   2.741   2.951  2.1655 -1.4864 -1.5958
   55CHL1    C4 4001   1.929   2.713   3.170  0.4241 -0.6190 -0.2267
   55CHL1   H4A 4002   1.846   2.745   3.103  0.1213  3.1392  1.7115
   55CHL1   H4B 4003   1.936   2.602   3.157  2.6405 -0.6163  0.4769
   55CHL1    C5 4004   1.890   2.740   3.315 -0.2108  0.1169 -0.0773
   55CHL1    C6 4005   1.876   2.641   3.407  0.6185 -0.0985  0.4203
   55CHL1    H6 4006   1.891   2.537   3.376  0.1699  0.1868 -0.8126
   55CHL1    C7 4007   1.837   2.657   3.554  0.2987  0.2722 -0.1301
   55CHL1   H7A 4008   1.757   2.585   3.579  1.0147 -1.0530 -1.4903
   55CHL1   H7B 4009   1.919   2.646   3.629  1.2970  0.4950 -1.1502
   55CHL1    C8 4010   1.786   2.802   3.576  0.1811 -0.6573 -0.8454
   55CHL1    H8 4011   1.683   2.799   3.533 -0.0763 -1.9061 -0.1832
   55CHL1   C14 4012   1.778   2.831   3.727 -0.2771 -0.1161  0.5311
   55CHL1   H14 4013   1.884   2.833   3.760 -0.2321  0.6923  0.3591
   55CHL1   C15 4014   1.696   2.727   3.812  0.0102 -1.0407 -0.1224
   55CHL1  H15A 4015   1.601   2.700   3.763 -0.2941 -2.3308  1.1110
   55CHL1  H15B 4016   1.755   2.634   3.827  1.2889 -0.3003 -0.3730
   55CHL1   C16 4017   1.652   2.813   3.936  0.5193 -0.2195  0.3749
   55CHL1  H16A 4018   1.544   2.804   3.958  0.8742 -4.6452  1.2403
   55CHL1  H16B 4019   1.695   2.770   4.029  0.9376  0.7643  0.6422
   55CHL1   C17 4020   1.713   2.955   3.919  0.0263  0.0220  0.3344
   55CHL1   H17 4021   1.820   2.944   3.946  0.0347  0.2607  0.4044
   55CHL1   C13 4022   1.731   2.972   3.760  0.2112  0.1836 -0.4084
   55CHL1   C18 4023   1.584   2.991   3.698 -0.3988 -0.5256 -0.1236
   55CHL1  H18A 4024   1.539   3.091   3.711 -1.1815 -0.1685 -4.2256
   55CHL1  H18B 4025   1.587   2.983   3.587 -0.1304  2.1503 -0.3697
   55CHL1  H18C 4026   1.514   2.916   3.742  1.1129 -1.9827 -0.0997
   55CHL1   C12 4027   1.834   3.071   3.704  0.7397 -1.0049 -0.5508
   55CHL1  H12A 4028   1.809   3.178   3.719  3.2806 -0.5410  0.8018
   55CHL1  H12B 4029   1.931   3.050   3.753  1.3405  2.1996 -0.1551
   55CHL1   C11 4030   1.845   3.054   3.553  0.5705  0.3309 -0.2392
   55CHL1  H11A 4031   1.751   3.085   3.503  0.1316 -0.2676  0.1993
   55CHL1  H11B 4032   1.928   3.120   3.522 -1.2821  2.8844 -0.1600
   55CHL1    C9 4033   1.872   2.908   3.512 -0.1015  0.4387 -0.3467
   55CHL1    H9 4034   1.974   2.871   3.538 -1.5464 -2.9685  1.0272
   55CHL1   C10 4035   1.871   2.891   3.355 -0.1138  0.1460  0.7667
   55CHL1   C19 4036   1.744   2.936   3.285  0.3089 -0.2629 -0.7597
   55CHL1  H19A 4037   1.662   2.868   3.317 -0.3272 -0.4759 -2.7162
   55CHL1  H19B 4038   1.709   3.037   3.315 -1.0786 -0.8149 -0.3984
   55CHL1  H19C 4039   1.747   2.924   3.174  3.2468 -0.1105 -0.7720
   55CHL1    C1 4040   1.997   2.972   3.285  0.3678 -0.5749  0.5036
   55CHL1   H1A 4041   1.974   3.080   3.273 -0.5829 -0.9239 -1.2394
   55CHL1   H1B 4042   2.076   2.957   3.361  0.2242  1.5416  1.1315
   55CHL1    C2 4043   2.039   2.936   3.142 -0.3237  0.0096  0.0982
   55CHL1   H2A 4044   2.138   2.983   3.124 -0.0463 -0.1970  1.0848
   55CHL1   H2B 4045   1.964   2.982   3.074  1.1691  1.3550 -0.7133
   55CHL1   C20 4046   1.649   3.066   4.001 -0.0103 -0.1408 -0.0978
   55CHL1   H20 4047   1.558   3.102   3.949  0.6503  0.5386 -0.8117
   55CHL1   C21 4048   1.748   3.188   4.018  0.4992  0.3020 -0.3084
   55CHL1  H21A 4049   1.803   3.206   3.923  1.0800 -0.2092 -0.0697
   55CHL1  H21B 4050   1.825   3.169   4.095 -1.1010  0.3244  1.3684
   55CHL1  H21C 4051   1.708   3.286   4.052 -0.9072 -0.0359 -0.8951
   55CHL1   C22 4052   1.607   3.032   4.146  0.1982 -0.4373  0.5697
   55CHL1  H22A 4053   1.531   2.951   4.146  0.2789 -0.5257  1.4175
   55CHL1  H22B 4054   1.697   2.995   4.200  1.0822 -0.3212 -0.7678
   55CHL1   C23 4055   1.547   3.146   4.223 -0.3419  0.4066 -0.0038
   55CHL1  H23A 4056   1.605   3.240   4.237  1.9436 -0.5818 -2.2068
   55CHL1  H23B 4057   1.468   3.187   4.155  1.1788  0.8338 -1.5939
   55CHL1   C24 4058   1.473   3.106   4.349 -0.3108  0.0251  0.0731
   55CHL1  H24A 4059   1.398   3.029   4.322 -2.7034  2.0052  0.6131
   55CHL1  H24B 4060   1.543   3.061   4.423 -3.0890 -0.6804  2.4593
   55CHL1   C25 4061   1.393   3.212   4.427  0.1953 -0.6162 -0.8846
   55CHL1   H25 4062   1.319   3.247   4.351  1.5709  1.4679 -1.3305
   55CHL1   C26 4063   1.322   3.143   4.551  0.2402 -0.7109 -0.0623
   55CHL1  H26A 4064   1.314   3.220   4.632 -1.5891 -1.3134  0.3903
   55CHL1  H26B 4065   1.217   3.110   4.536  0.5032 -1.6675  0.1574
   55CHL1  H26C 4066   1.374   3.055   4.594 -0.1641 -0.3150  1.3182
   55CHL1   C27 4067   1.485   3.328   4.474  0.1469 -0.9445  0.3183
   55CHL1  H27A 4068   1.507   3.395   4.388 -0.1209 -0.1388  0.8621
   55CHL1  H27B 4069   1.433   3.395   4.546  2.9873  0.6577  1.0134
   55CHL1  H27C 4070   1.576   3.288   4.523 -0.3467 -0.4093  1.7160
   56CHL1    C3 4071   0.186   2.522   2.818 -0.0367 -0.8233  0.0120
   56CHL1    H3 4072   0.297   2.516   2.805  0.3103  2.4536  0.5547
   56CHL1    O3 4073   0.104   2.460   2.720 -0.1217  0.1422  0.1287
   56CHL1   H3' 4074   0.146   2.373   2.714  3.9097  1.9439 -2.2552
   56CHL1    C4 4075   0.158   2.447   2.951  0.5416  0.3912  0.5597
   56CHL1   H4A 4076   0.048   2.435   2.957  0.5068  1.1752  2.2409
   56CHL1   H4B 4077   0.205   2.349   2.930 -0.5436  0.0744 -0.4537
   56CHL1    C5 4078   0.224   2.521   3.068 -0.3588  0.0809 -0.2716
   56CHL1    C6 4079   0.316   2.463   3.148 -0.4958  0.1978  0.5038
   56CHL1    H6 4080   0.346   2.358   3.134 -2.2174 -0.1417 -1.0102
   56CHL1    C7 4081   0.383   2.524   3.264  0.5363  0.6562 -0.0640
   56CHL1   H7A 4082   0.361   2.463   3.354  1.5574  0.5553  0.1349
   56CHL1   H7B 4083   0.492   2.531   3.242  0.3151  1.3004 -1.0245
   56CHL1    C8 4084   0.326   2.658   3.307 -0.0860  0.0079  0.2447
   56CHL1    H8 4085   0.231   2.630   3.357 -1.6477  1.2382 -1.9229
   56CHL1   C14 4086   0.423   2.738   3.397 -0.3345 -0.2039 -0.0487
   56CHL1   H14 4087   0.510   2.778   3.340  1.3743 -1.9322  1.1842
   56CHL1   C15 4088   0.494   2.669   3.512 -0.2932 -0.0116  0.3357
   56CHL1  H15A 4089   0.423   2.602   3.565  1.7244 -2.4445  0.1901
   56CHL1  H15B 4090   0.582   2.614   3.473  0.3038 -0.4445  2.2109
   56CHL1   C16 4091   0.531   2.786   3.599  0.4696 -0.4295  0.0378
   56CHL1  H16A 4092   0.492   2.773   3.702  2.5617 -0.1238  0.9094
   56CHL1  H16B 4093   0.642   2.795   3.601  0.5722 -1.6444  0.9210
   56CHL1   C17 4094   0.467   2.916   3.550  0.3631  0.7152 -0.3444
   56CHL1   H17 4095   0.540   2.972   3.487  0.3828  0.5136 -0.4997
   56CHL1   C13 4096   0.353   2.864   3.454 -0.6631  0.0074 -0.4371
   56CHL1   C18 4097   0.232   2.829   3.541 -0.1191 -0.6964 -0.6039
   56CHL1  H18A 4098   0.189   2.920   3.588 -0.0617 -1.0536  0.1531
   56CHL1  H18B 4099   0.152   2.779   3.482 -1.4238 -0.0348  0.5256
   56CHL1  H18C 4100   0.264   2.770   3.629  1.8470 -0.0410 -0.8386
   56CHL1   C12 4101   0.321   2.960   3.341 -0.3215  0.1858 -0.4671
   56CHL1  H12A 4102   0.271   3.053   3.377 -0.9759 -0.8507  1.4378
   56CHL1  H12B 4103   0.406   3.002   3.282 -1.0809  1.5924 -0.6026
   56CHL1   C11 4104   0.228   2.886   3.245  0.1001 -0.2579 -0.0108
   56CHL1  H11A 4105   0.137   2.861   3.303  1.0780 -0.2032  1.6174
   56CHL1  H11B 4106   0.203   2.953   3.160  0.9427 -0.1292 -0.1606
   56CHL1    C9 4107   0.282   2.750   3.192 -0.0197 -0.5720 -0.6061
   56CHL1    H9 4108   0.378   2.779   3.145  0.9630  0.2451  1.7548
   56CHL1   C10 4109   0.191   2.678   3.088 -0.3774 -0.2333  0.2467
   56CHL1   C19 4110   0.039   2.690   3.129 -0.3398  0.0486  0.4219
   56CHL1  H19A 4111  -0.001   2.793   3.129  0.4060  0.3418 -0.2432
   56CHL1  H19B 4112  -0.021   2.626   3.061  1.6183  0.3724 -1.7164
   56CHL1  H19C 4113   0.029   2.640   3.228 -0.4121  0.8978  0.8489
   56CHL1    C1 4114   0.217   2.742   2.942 -0.1770  0.1933 -0.8715
   56CHL1   H1A 4115   0.195   2.850   2.955  0.3368  0.0732  1.3030
   56CHL1   H1B 4116   0.325   2.722   2.926  0.2140 -2.0096  3.2248
   56CHL1    C2 4117   0.138   2.670   2.834 -0.1401  0.3801 -0.0908
   56CHL1   H2A 4118   0.151   2.729   2.740  0.1169  1.6902  0.7319
   56CHL1   H2B 4119   0.028   2.671   2.852 -0.0594  2.6102  0.7023
   56CHL1   C20 4120   0.437   3.016   3.666  0.3576 -0.0119 -0.2786
   56CHL1   H20 4121   0.354   2.974   3.728 -1.3310  0.8847 -1.8256
   56CHL1   C21 4122   0.380   3.149   3.618 -0.3369 -0.0204 -0.0482
   56CHL1  H21A 4123   0.390   3.228   3.696  0.1957 -0.5637  0.4408
   56CHL1  H21B 4124   0.273   3.151   3.588 -0.1492  1.6945 -0.7259
   56CHL1  H21C 4125   0.437   3.198   3.535 -0.5809  2.0021  0.9193
   56CHL1   C22 4126   0.565   3.034   3.746  0.7833  0.5341  0.0901
   56CHL1  H22A 4127   0.604   2.937   3.785 -1.3787 -0.1833  0.6052
   56CHL1  H22B 4128   0.644   3.075   3.680 -1.4135 -0.4922 -3.4981
   56CHL1   C23 4129   0.542   3.110   3.879  0.3592 -0.5962  0.5810
   56CHL1  H23A 4130   0.479   3.200   3.860  0.4136 -0.4553  1.0542
   56CHL1  H23B 4131   0.477   3.043   3.939 -0.0571 -0.9064 -0.2009
   56CHL1   C24 4132   0.671   3.152   3.948 -0.5840 -0.7020  0.3189
   56CHL1  H24A 4133   0.738   3.063   3.942 -2.3362 -2.3055  2.5006
   56CHL1  H24B 4134   0.721   3.233   3.891 -2.5967  1.8981  2.0114
   56CHL1   C25 4135   0.648   3.211   4.089 -0.0837 -0.0357 -0.4944
   56CHL1   H25 4136   0.566   3.284   4.069  0.3018  1.5012  2.8717
   56CHL1   C26 4137   0.606   3.119   4.203  0.3714 -0.2227  0.1539
   56CHL1  H26A 4138   0.500   3.090   4.192  0.3035 -0.1010  0.4754
   56CHL1  H26B 4139   0.667   3.027   4.212  2.9326  1.4480  1.2095
   56CHL1  H26C 4140   0.624   3.173   4.299  1.1580  0.9460 -0.6261
   56CHL1   C27 4141   0.768   3.289   4.146 -0.3890 -0.1832 -0.4640
   56CHL1  H27A 4142   0.859   3.228   4.162 -0.6668 -0.9795 -1.8084
   56CHL1  H27B 4143   0.796   3.372   4.078 -0.3786  0.9323  0.8345
   56CHL1  H27C 4144   0.743   3.347   4.238 -2.8340 -1.7577 -0.0316
   57SAPC     N 4145   3.500   1.744   8.022  0.5172 -0.0985 -0.2105
   57SAPC   C12 4146   3.488   1.625   7.928 -0.2799 -0.4261 -0.1753
   57SAPC  H12A 4147   3.546   1.545   7.971 -0.8824  0.4124  2.3686
   57SAPC  H12B 4148   3.524   1.665   7.834  0.3527  1.6786  0.8801
   57SAPC   C13 4149   3.638   1.796   8.023 -0.4725  0.4458  0.0835
   57SAPC  H13A 4150   3.650   1.879   8.091 -1.2876  1.4116 -0.9032
   57SAPC  H13B 4151   3.718   1.726   8.040  1.6095  2.0570 -2.2511
   57SAPC  H13C 4152   3.668   1.832   7.926 -0.3345 -1.5086 -0.6361
   57SAPC   C14 4153   3.407   1.856   7.990 -0.0438  0.8933 -0.1347
   57SAPC  H14A 4154   3.313   1.807   7.970  1.3782 -3.0356  1.5782
   57SAPC  H14B 4155   3.393   1.922   8.074 -1.1990 -0.6126  0.9122
   57SAPC  H14C 4156   3.448   1.905   7.903  2.5508  1.1911  1.1501
   57SAPC   C15 4157   3.459   1.696   8.163  0.8323 -0.4118  0.5998
   57SAPC  H15A 4158   3.452   1.778   8.233 -0.1418  1.4161 -1.4932
   57SAPC  H15B 4159   3.358   1.658   8.161  0.6553  0.0505 -1.1851
   57SAPC  H15C 4160   3.519   1.623   8.216 -0.0965  0.4410  2.9704
   57SAPC   C11 4161   3.354   1.563   7.910  0.1885  0.6305  0.6186
   57SAPC  H11A 4162   3.310   1.530   8.006 -0.6326  0.1466  0.0970
   57SAPC  H11B 4163   3.369   1.473   7.846  0.6157 -0.9831  2.8575
   57SAPC     P 4164   3.249   1.696   7.707  0.4082 -0.0135 -0.7373
   57SAPC   O13 4165   3.204   1.584   7.621  0.0981  0.3922  0.1824
   57SAPC   O14 4166   3.173   1.823   7.697  0.5422  0.3075  0.2181
   57SAPC   O12 4167   3.251   1.649   7.854  0.1215 -0.0923 -0.0326
   57SAPC   O11 4168   3.400   1.719   7.665 -0.8120 -0.5295  0.1042
   57SAPC    C1 4169   3.448   1.841   7.612  0.1564  0.4733  0.4218
   57SAPC    HA 4170   3.412   1.917   7.684  0.6032 -0.7210  1.9711
   57SAPC    HB 4171   3.559   1.846   7.620  0.3465  0.6174 -1.7068
   57SAPC    C2 4172   3.406   1.859   7.467  0.4094  0.7568  0.7459
   57SAPC    HS 4173   3.299   1.884   7.458  0.3238 -0.3463 -2.8005
   57SAPC   O21 4174   3.444   1.740   7.386 -0.4697 -0.1225 -0.2928
   57SAPC   C21 4175   3.351   1.681   7.319 -0.3000  0.2887  0.2726
   57SAPC   O22 4176   3.233   1.721   7.305 -0.0727  0.1839  0.1397
   57SAPC   C22 4177   3.410   1.565   7.240 -0.3640 -0.5350 -0.5982
   57SAPC   H2R 4178   3.480   1.506   7.303 -1.6291  1.8425  3.3858
   57SAPC   H2S 4179   3.323   1.511   7.198 -0.3498 -0.0034 -1.3248
   57SAPC    C3 4180   3.477   1.977   7.399 -0.4225 -0.3533  0.4596
   57SAPC    HX 4181   3.581   1.938   7.395 -0.1890  0.2361 -3.9209
   57SAPC    HY 4182   3.475   2.074   7.452  0.6919 -0.7699  1.3077
   57SAPC   O31 4183   3.412   1.993   7.272  0.1228  0.1110  0.5643
   57SAPC   C31 4184   3.408   2.104   7.211  0.1442  0.2147  0.0708
   57SAPC   O32 4185   3.461   2.208   7.243 -0.8254  0.4953 -0.6059
   57SAPC   C32 4186   3.328   2.081   7.080  0.2912 -0.0945 -0.6292
   57SAPC   H2X 4187   3.241   2.017   7.106  1.0854 -0.8239  0.2872
   57SAPC   H2Y 4188   3.402   2.031   7.015  0.0158 -0.2967 -0.7885
   57SAPC   C23 4189   3.497   1.614   7.115 -0.2801 -0.1974  0.6013
   57SAPC   H3R 4190   3.544   1.532   7.056  1.3261 -0.5156  2.2350
   57SAPC   H3S 4191   3.588   1.657   7.163  0.2015  0.3522 -0.7584
   57SAPC   C24 4192   3.434   1.732   7.032 -0.1263 -0.2523 -0.3667
   57SAPC   H4R 4193   3.521   1.768   6.972  0.4471 -0.8507  0.0807
   57SAPC   H4S 4194   3.406   1.811   7.104 -0.9887 -0.3372 -0.6009
   57SAPC   C25 4195   3.327   1.685   6.936  0.3118 -0.1007  0.4676
   57SAPC   H5R 4196   3.223   1.689   6.973 -0.2722 -3.1517 -0.4873
   57SAPC   C26 4197   3.335   1.653   6.807 -0.1567 -0.5731  0.0244
   57SAPC   H6R 4198   3.240   1.636   6.754 -1.7306  0.8719  2.2243
   57SAPC   C27 4199   3.464   1.651   6.729 -0.2654 -0.6352  0.1859
   57SAPC   H7R 4200   3.542   1.609   6.796  0.3722 -1.3078 -0.9460
   57SAPC   H7S 4201   3.491   1.754   6.698  0.4239 -1.2066 -1.1840
   57SAPC   C28 4202   3.452   1.570   6.599  0.1578 -0.0557  0.3011
   57SAPC   H8R 4203   3.392   1.619   6.521  1.2240 -1.0007 -1.1800
   57SAPC   C29 4204   3.534   1.468   6.569 -0.2002  0.0991 -0.0131
   57SAPC   H9R 4205   3.501   1.416   6.479  0.8457 -0.6423  0.0221
   57SAPC  C210 4206   3.619   1.390   6.658  0.2851 -0.0029 -0.4669
   57SAPC  H10R 4207   3.570   1.293   6.679  0.6985  0.4525  3.3662
   57SAPC  H10S 4208   3.640   1.441   6.755 -0.4143  4.5294 -2.4580
   57SAPC  C211 4209   3.746   1.380   6.576 -0.6253  0.4636 -0.2493
   57SAPC  H11R 4210   3.822   1.443   6.624  0.6019  0.6566 -2.3359
   57SAPC  C212 4211   3.781   1.290   6.476  0.0898 -0.5382 -0.2355
   57SAPC  H12R 4212   3.885   1.290   6.440  0.2714  0.5752  0.2563
   57SAPC  C213 4213   3.693   1.177   6.423  0.3942  0.2529 -0.5955
   57SAPC  H13R 4214   3.609   1.157   6.492  0.9065  0.8965  0.2445
   57SAPC  H13S 4215   3.748   1.081   6.418 -1.0485 -0.5800 -0.9159
   57SAPC  C214 4216   3.641   1.220   6.285 -0.5133  0.0126  0.5071
   57SAPC  H14R 4217   3.568   1.301   6.301 -0.4402  0.1251  0.2746
   57SAPC  C215 4218   3.667   1.179   6.157  0.8142  0.3669 -0.0258
   57SAPC  H15R 4219   3.612   1.213   6.068  1.0254 -1.0658 -0.7365
   57SAPC  C216 4220   3.751   1.060   6.108 -0.1334 -0.2515  0.2938
   57SAPC  H16R 4221   3.694   0.975   6.065  1.8894 -2.0524  0.9501
   57SAPC  H16S 4222   3.819   1.013   6.183  1.4964 -1.5133 -1.8377
   57SAPC  C217 4223   3.844   1.106   5.991 -0.4909  0.3102  0.2356
   57SAPC  H17R 4224   3.908   1.027   5.946 -0.9139 -0.9759  1.8195
   57SAPC  H17S 4225   3.913   1.179   6.038  0.1351  0.1636 -0.4319
   57SAPC  C218 4226   3.776   1.180   5.876 -0.0023 -0.1872  1.0920
   57SAPC  H18R 4227   3.735   1.276   5.912  1.7327  1.9820 -2.1695
   57SAPC  H18S 4228   3.700   1.109   5.836  0.7122  0.0357 -0.7800
   57SAPC  C219 4229   3.879   1.216   5.761  0.6345  0.0821 -0.7891
   57SAPC  H19R 4230   3.932   1.121   5.740 -0.5882 -0.8451  0.1905
   57SAPC  H19S 4231   3.956   1.286   5.800  0.6468 -0.9579  1.1744
   57SAPC  C220 4232   3.807   1.290   5.645 -0.0457  0.3585 -0.0939
   57SAPC  H20R 4233   3.879   1.295   5.561  1.9821  3.3827  1.6472
   57SAPC  H20S 4234   3.789   1.392   5.684 -1.0118 -0.1186  0.7577
   57SAPC  H20T 4235   3.710   1.247   5.612 -1.0240  0.6354  2.2123
   57SAPC   C33 4236   3.274   2.206   7.012 -0.0123  0.3548  0.2430
   57SAPC   H3X 4237   3.353   2.283   7.002  1.1489 -0.0739  4.2987
   57SAPC   H3Y 4238   3.189   2.262   7.057 -0.0600 -0.8554  1.7420
   57SAPC   C34 4239   3.234   2.173   6.860  0.1805  0.1899  0.1002
   57SAPC   H4X 4240   3.187   2.263   6.815 -0.0460  0.1560  0.2693
   57SAPC   H4Y 4241   3.160   2.092   6.874 -0.0759  0.7883  2.7298
   57SAPC   C35 4242   3.341   2.131   6.756 -0.3758  0.1916  0.3743
   57SAPC   H5X 4243   3.399   2.045   6.795 -1.6920 -0.6346  0.5518
   57SAPC   H5Y 4244   3.412   2.215   6.738 -2.8057  2.7353  1.8412
   57SAPC   C36 4245   3.285   2.088   6.615 -0.1775  0.0754 -0.6085
   57SAPC   H6X 4246   3.371   2.089   6.545 -1.0314  0.0818 -1.7024
   57SAPC   H6Y 4247   3.212   2.166   6.585 -1.2869 -1.2624 -1.5264
   57SAPC   C37 4248   3.216   1.950   6.611 -0.0167  0.0363  0.3971
   57SAPC   H7X 4249   3.127   1.958   6.677 -1.7351 -0.8402 -1.6893
   57SAPC   H7Y 4250   3.281   1.871   6.654  0.1098  0.5516  1.1688
   57SAPC   C38 4251   3.175   1.902   6.471 -0.1072  0.1430  1.0193
   57SAPC   H8X 4252   3.256   1.912   6.396  0.2653 -0.8592  1.2804
   57SAPC   H8Y 4253   3.094   1.968   6.432  0.6208  0.0976 -0.6686
   57SAPC   C39 4254   3.122   1.755   6.474  0.1905  0.6157 -0.1121
   57SAPC   H9X 4255   3.068   1.738   6.569  2.3261  0.4162  1.1431
   57SAPC   H9Y 4256   3.201   1.676   6.474 -1.1797 -0.8489 -1.8119
   57SAPC  C310 4257   3.024   1.729   6.358 -0.7175 -0.2958 -0.0110
   57SAPC  H10X 4258   2.921   1.755   6.388 -0.0429 -0.0146  2.2318
   57SAPC  H10Y 4259   3.013   1.620   6.339  0.1205 -0.1063 -1.8126
   57SAPC  C311 4260   3.066   1.797   6.233  0.0622  0.1450  0.4896
   57SAPC  H11X 4261   3.175   1.778   6.218 -0.2150 -0.9680 -0.2426
   57SAPC  H11Y 4262   3.049   1.906   6.246  0.6366  1.0343 -4.2718
   57SAPC  C312 4263   2.981   1.758   6.113 -0.7344  0.1563 -0.4990
   57SAPC  H12X 4264   2.871   1.763   6.128 -0.5069  0.8728  1.1081
   57SAPC  H12Y 4265   3.008   1.652   6.096  0.2325 -0.0897  2.0694
   57SAPC  C313 4266   3.002   1.849   5.988  0.8268 -0.3961  0.6446
   57SAPC  H13X 4267   3.111   1.848   5.969  0.6391  0.6098 -0.5860
   57SAPC  H13Y 4268   2.971   1.948   6.028  2.5538  0.5330 -0.2005
   57SAPC  C314 4269   2.926   1.815   5.861 -0.0238  0.2846 -0.3828
   57SAPC  H14X 4270   2.815   1.822   5.861 -0.1301 -0.1176 -3.5290
   57SAPC  H14Y 4271   2.946   1.710   5.832 -0.6577  0.5361 -1.8118
   57SAPC  C315 4272   2.985   1.906   5.738  0.0276 -0.3095 -0.4291
   57SAPC  H15X 4273   2.953   1.851   5.646  3.3107  1.8482 -3.0931
   57SAPC  H15Y 4274   3.096   1.894   5.737  0.3445  2.1633 -1.9399
   57SAPC  C316 4275   2.939   2.054   5.736  0.5350  0.5719  0.8274
   57SAPC  H16X 4276   2.997   2.124   5.799 -0.2968  2.5553 -0.4750
   57SAPC  H16Y 4277   2.837   2.055   5.779  0.2411 -1.1957  0.2554
   57SAPC  C317 4278   2.922   2.121   5.601 -0.0394  0.5866  0.6462
   57SAPC  H17X 4279   2.891   2.226   5.621 -0.9627  0.3908  0.3021
   57SAPC  H17Y 4280   2.835   2.078   5.546 -0.6915  2.1743  0.3832
   57SAPC  C318 4281   3.049   2.122   5.521 -0.6814 -0.4198  0.3300
   57SAPC  H18X 4282   3.123   2.182   5.579 -0.9797  0.9780 -0.7084
   57SAPC  H18Y 4283   3.040   2.177   5.426 -0.1213  0.4085  0.7436
   57SAPC  H18Z 4284   3.099   2.023   5.512  0.5476  0.3244 -1.4165
   58SAPC     N 4285   4.478   6.798   6.769  0.6464 -0.0724 -0.1024
   58SAPC   C12 4286   4.598   6.762   6.690 -0.2819 -0.3119  0.1778
   58SAPC  H12A 4287   4.674   6.744   6.764 -0.9101  2.7528  1.7282
   58SAPC  H12B 4288   4.627   6.850   6.634  2.0567 -1.6227 -0.8122
   58SAPC   C13 4289   4.349   6.792   6.695  0.3188 -0.6063  0.1683
   58SAPC  H13A 4290   4.257   6.809   6.750 -1.8732 -0.5721 -3.1871
   58SAPC  H13B 4291   4.361   6.848   6.604  0.8731 -1.1704 -0.1150
   58SAPC  H13C 4292   4.333   6.701   6.639  0.9256  0.5903 -2.0350
   58SAPC   C14 4293   4.469   6.696   6.876  0.2434  0.0034  0.3266
   58SAPC  H14A 4294   4.374   6.698   6.927 -0.8147  1.6040 -1.5899
   58SAPC  H14B 4295   4.481   6.594   6.842 -1.7977 -0.5098  1.0400
   58SAPC  H14C 4296   4.537   6.730   6.953  0.8576  2.0476 -1.0484
   58SAPC   C15 4297   4.485   6.929   6.834 -0.2948 -0.1889  0.6554
   58SAPC  H15A 4298   4.397   6.959   6.888  0.5933  1.1930  1.3732
   58SAPC  H15B 4299   4.573   6.942   6.895  0.8814  0.9217 -1.1821
   58SAPC  H15C 4300   4.503   7.009   6.764  0.3892 -1.0210 -0.1682
   58SAPC   C11 4301   4.604   6.646   6.591  0.1509 -0.3139 -0.3035
   58SAPC  H11A 4302   4.704   6.652   6.542  0.6876  0.0024  0.7956
   58SAPC  H11B 4303   4.525   6.655   6.514  1.8974 -1.4821 -2.3645
   58SAPC     P 4304   4.704   6.468   6.760 -0.1602  0.0186  0.0532
   58SAPC   O13 4305   4.795   6.578   6.798  0.4284 -0.7026  0.0738
   58SAPC   O14 4306   4.648   6.376   6.866 -0.4271 -0.6589 -0.0854
   58SAPC   O12 4307   4.587   6.524   6.671  0.0900 -0.0582 -0.0715
   58SAPC   O11 4308   4.781   6.374   6.658  0.2897 -0.1820  0.2523
   58SAPC    C1 4309   4.735   6.250   6.609  0.0573  0.0522 -0.2214
   58SAPC    HA 4310   4.793   6.167   6.656 -1.7578 -2.3818 -2.0077
   58SAPC    HB 4311   4.627   6.240   6.632 -0.2389  1.9409 -0.6500
   58SAPC    C2 4312   4.759   6.239   6.454 -0.7240 -0.2650 -0.6705
   58SAPC    HS 4313   4.717   6.149   6.404 -0.4563  0.1012 -1.5778
   58SAPC   O21 4314   4.902   6.235   6.428  0.1323  0.4285 -0.2942
   58SAPC   C21 4315   4.955   6.120   6.431  0.8809 -0.0648  0.2392
   58SAPC   O22 4316   4.908   6.022   6.484  0.1302 -0.2950  0.3158
   58SAPC   C22 4317   5.083   6.125   6.359 -0.2756  0.3585  0.3811
   58SAPC   H2R 4318   5.061   6.136   6.251  0.1058 -2.2646 -0.0329
   58SAPC   H2S 4319   5.141   6.214   6.393  1.4820  0.4357 -2.4681
   58SAPC    C3 4320   4.684   6.363   6.389 -0.0445 -0.0463  0.0419
   58SAPC    HX 4321   4.740   6.451   6.426  0.7187 -0.6780  0.4097
   58SAPC    HY 4322   4.581   6.376   6.429 -0.3463  0.7284 -0.9640
   58SAPC   O31 4323   4.674   6.351   6.248  0.2196  0.1998 -0.2433
   58SAPC   C31 4324   4.607   6.446   6.180  0.3812  0.3003 -0.3852
   58SAPC   O32 4325   4.547   6.542   6.230 -0.3790 -0.3561  0.1859
   58SAPC   C32 4326   4.626   6.427   6.034  0.5796 -0.7938  0.1775
   58SAPC   H2X 4327   4.590   6.324   6.009  0.9475 -0.7912 -0.3751
   58SAPC   H2Y 4328   4.736   6.438   6.021  0.7492 -0.0404  2.0294
   58SAPC   C23 4329   5.181   6.012   6.381  0.2231  0.9394  0.3324
   58SAPC   H3R 4330   5.170   5.974   6.485 -0.6390  0.6821  0.1535
   58SAPC   H3S 4331   5.290   6.031   6.378  0.7231 -1.5132  0.8017
   58SAPC   C24 4332   5.165   5.891   6.284 -0.5962  0.1602 -0.8586
   58SAPC   H4R 4333   5.060   5.860   6.303 -0.0770 -0.4789  1.2780
   58SAPC   H4S 4334   5.227   5.806   6.319 -0.0719  1.1613  0.7479
   58SAPC   C25 4335   5.203   5.932   6.143  0.5600 -0.1267  0.3303
   58SAPC   H5R 4336   5.311   5.950   6.132  0.7104 -0.2429  1.4635
   58SAPC   C26 4337   5.120   5.958   6.039  0.5274  0.3089  0.2105
   58SAPC   H6R 4338   5.158   5.992   5.942 -1.9854 -1.0591 -1.3807
   58SAPC   C27 4339   4.971   5.948   6.044  0.3097 -0.0045 -0.2191
   58SAPC   H7R 4340   4.934   5.985   6.142  2.9552  0.3007  0.7393
   58SAPC   H7S 4341   4.952   5.839   6.042  2.3026 -0.4228 -2.9522
   58SAPC   C28 4342   4.907   6.032   5.926 -0.1014 -0.0002  0.1818
   58SAPC   H8R 4343   4.899   6.140   5.941 -1.2059 -0.0076 -0.2711
   58SAPC   C29 4344   4.850   5.970   5.812 -0.6461 -0.0908  0.3941
   58SAPC   H9R 4345   4.808   6.037   5.736  0.5977 -1.2753 -1.4044
   58SAPC  C210 4346   4.844   5.824   5.776 -0.2834 -0.1904  0.1503
   58SAPC  H10R 4347   4.872   5.761   5.863 -0.9416  0.6894  1.0210
   58SAPC  H10S 4348   4.903   5.807   5.684 -0.0484  1.1448  0.0344
   58SAPC  C211 4349   4.708   5.769   5.744  0.0231 -0.9243  0.1549
   58SAPC  H11R 4350   4.627   5.793   5.815  0.6742  0.6270  0.4169
   58SAPC  C212 4351   4.677   5.698   5.634  0.3400  0.6984 -0.1985
   58SAPC  H12R 4352   4.572   5.672   5.613  0.0965  1.1673  0.4035
   58SAPC  C213 4353   4.772   5.642   5.522 -0.2610 -0.2297  0.1418
   58SAPC  H13R 4354   4.756   5.532   5.519 -0.1613 -0.2677  0.7490
   58SAPC  H13S 4355   4.876   5.645   5.562 -0.4667  3.1901  0.7381
   58SAPC  C214 4356   4.748   5.713   5.392  0.2504 -0.6171 -0.2433
   58SAPC  H14R 4357   4.666   5.786   5.393 -2.2677 -3.2254 -1.2527
   58SAPC  C215 4358   4.829   5.684   5.283  0.2192  0.1568  1.0603
   58SAPC  H15R 4359   4.822   5.749   5.194 -1.5020 -1.4665 -0.0613
   58SAPC  C216 4360   4.954   5.596   5.268 -0.4760  0.0846 -0.7291
   58SAPC  H16R 4361   4.933   5.515   5.195  0.6424  0.1399 -1.1311
   58SAPC  H16S 4362   4.983   5.552   5.366 -2.3286  1.6766  0.6157
   58SAPC  C217 4363   5.072   5.657   5.198  0.2776  0.0615  0.5803
   58SAPC  H17R 4364   5.036   5.686   5.097  0.7503 -2.0188 -0.2444
   58SAPC  H17S 4365   5.157   5.587   5.185 -0.0742 -1.0330  3.4397
   58SAPC  C218 4366   5.140   5.765   5.277 -0.6586  0.0631  0.4619
   58SAPC  H18R 4367   5.188   5.729   5.370 -1.8134 -0.7546  0.7540
   58SAPC  H18S 4368   5.066   5.845   5.299 -0.2509  0.2988  0.9701
   58SAPC  C219 4369   5.247   5.848   5.195 -0.0261  0.2215 -0.5935
   58SAPC  H19R 4370   5.307   5.772   5.141  1.4799  0.7030  0.3139
   58SAPC  H19S 4371   5.319   5.898   5.264 -3.1310  1.8036  1.7665
   58SAPC  C220 4372   5.194   5.950   5.093  0.1454  0.3218  0.4608
   58SAPC  H20R 4373   5.123   5.901   5.023 -2.5243  0.9687  2.5577
   58SAPC  H20S 4374   5.273   5.998   5.031  0.2204 -0.3688  0.0019
   58SAPC  H20T 4375   5.146   6.031   5.151 -1.6628  0.4547 -1.1321
   58SAPC   C33 4376   4.549   6.510   5.935 -1.2870 -0.4144  0.0962
   58SAPC   H3X 4377   4.571   6.614   5.969 -1.5159 -0.2404 -0.2922
   58SAPC   H3Y 4378   4.443   6.487   5.956 -0.7947 -0.1818  3.4640
   58SAPC   C34 4379   4.592   6.495   5.792  0.3931 -0.6070  0.8147
   58SAPC   H4X 4380   4.569   6.393   5.754  0.0514  0.2494 -1.3790
   58SAPC   H4Y 4381   4.701   6.513   5.789  0.3545 -0.3564  0.8804
   58SAPC   C35 4382   4.511   6.577   5.690  0.4211  0.4738 -0.2476
   58SAPC   H5X 4383   4.487   6.680   5.722  0.7834  0.2661  0.7227
   58SAPC   H5Y 4384   4.413   6.525   5.682 -0.3945  2.0961 -1.4171
   58SAPC   C36 4385   4.579   6.582   5.552 -0.2765 -0.6041  0.0868
   58SAPC   H6X 4386   4.496   6.601   5.481  0.4528  1.6627 -0.2241
   58SAPC   H6Y 4387   4.625   6.485   5.523 -0.5613 -0.4791 -0.7922
   58SAPC   C37 4388   4.687   6.693   5.544  0.3572 -0.3731  0.1977
   58SAPC   H7X 4389   4.753   6.668   5.630  0.5257 -1.6418 -0.2794
   58SAPC   H7Y 4390   4.652   6.798   5.553  1.6005  0.3830 -2.5710
   58SAPC   C38 4391   4.781   6.693   5.425  0.5440 -0.2387  0.6537
   58SAPC   H8X 4392   4.815   6.589   5.407 -1.1498 -1.0117  1.5866
   58SAPC   H8Y 4393   4.865   6.759   5.454 -0.5709  0.6392  2.0784
   58SAPC   C39 4394   4.708   6.744   5.302  0.2312 -0.1073  0.2393
   58SAPC   H9X 4395   4.651   6.834   5.331  0.9378  0.8183 -1.1187
   58SAPC   H9Y 4396   4.632   6.669   5.270 -1.0173  1.1830  0.0662
   58SAPC  C310 4397   4.807   6.784   5.185 -0.5161  0.4283 -0.2120
   58SAPC  H10X 4398   4.882   6.703   5.172 -1.8146 -1.2788  2.1842
   58SAPC  H10Y 4399   4.850   6.882   5.216 -0.3366  0.0910  0.6197
   58SAPC  C311 4400   4.740   6.823   5.049  0.0412  0.5811  0.6103
   58SAPC  H11X 4401   4.639   6.861   5.074 -0.3914 -0.6151  0.7848
   58SAPC  H11Y 4402   4.742   6.734   4.982 -0.9537  0.6195  0.5187
   58SAPC  C312 4403   4.820   6.936   4.985  0.5985  0.0941  0.7245
   58SAPC  H12X 4404   4.825   7.026   5.050 -0.2796 -0.2237  1.2562
   58SAPC  H12Y 4405   4.770   6.975   4.894  3.2418  0.5224 -0.6271
   58SAPC  C313 4406   4.963   6.897   4.937 -0.1668  0.2143  0.2798
   58SAPC  H13X 4407   4.974   6.897   4.826  2.3122  1.4571  0.4669
   58SAPC  H13Y 4408   4.990   6.797   4.975 -1.1779  0.8483  2.8617
   58SAPC  C314 4409   5.066   6.993   4.998  0.0006 -0.5421  0.0550
   58SAPC  H14X 4410   5.051   7.010   5.107  0.0980  0.5863 -0.0955
   58SAPC  H14Y 4411   5.048   7.089   4.946  1.7813 -1.0921 -1.7139
   58SAPC  C315 4412   5.214   6.957   4.977 -0.7834  0.4640  0.0404
   58SAPC  H15X 4413   5.273   7.050   4.995  1.4010 -0.6890 -0.7827
   58SAPC  H15Y 4414   5.216   6.924   4.871  1.3455  1.0889 -0.1608
   58SAPC  C316 4415   5.270   6.848   5.072  0.0900 -0.3796  0.2839
   58SAPC  H16X 4416   5.364   6.814   5.024  0.9686  2.1217  0.0791
   58SAPC  H16Y 4417   5.195   6.766   5.079 -1.1611  0.7606  0.6983
   58SAPC  C317 4418   5.294   6.893   5.214  0.4021  0.0395  0.2156
   58SAPC  H17X 4419   5.200   6.920   5.267 -0.3530 -1.8749 -0.0679
   58SAPC  H17Y 4420   5.360   6.982   5.216  0.9007 -0.2140 -2.1171
   58SAPC  C318 4421   5.352   6.779   5.291  0.6429 -0.0990 -0.1385
   58SAPC  H18X 4422   5.301   6.680   5.290 -1.1669  0.7516  1.7428
   58SAPC  H18Y 4423   5.377   6.815   5.393  0.2804  1.2371 -0.5067
   58SAPC  H18Z 4424   5.450   6.769   5.240  0.0362  1.4484 -1.6936
   59SAPC     N 4425   3.891   4.536   6.604 -0.1833  0.6810  0.0291
   59SAPC   C12 4426   3.878   4.388   6.606  0.0048  0.1781 -0.2930
   59SAPC  H12A 4427   3.959   4.337   6.556 -1.3780 -1.9365 -0.4732
   59SAPC  H12B 4428   3.794   4.351   6.551  1.0648 -1.4780 -0.8773
   59SAPC   C13 4429   4.021   4.569   6.669 -0.6523  0.4535  1.1047
   59SAPC  H13A 4430   4.104   4.534   6.608 -0.6561  0.2627  1.2105
   59SAPC  H13B 4431   4.031   4.677   6.670 -0.0120  0.4886 -1.2963
   59SAPC  H13C 4432   4.041   4.521   6.763  1.4889  3.2502  2.2141
   59SAPC   C14 4433   3.902   4.586   6.459 -0.3457  0.1391 -0.4878
   59SAPC  H14A 4434   3.981   4.529   6.412 -0.7227 -0.4566 -0.4094
   59SAPC  H14B 4435   3.807   4.577   6.409 -0.3906 -0.8386 -0.2527
   59SAPC  H14C 4436   3.932   4.690   6.456  0.6823 -0.1271  0.1032
   59SAPC   C15 4437   3.790   4.614   6.678  0.9442  0.1255 -0.0809
   59SAPC  H15A 4438   3.796   4.719   6.655  0.1177  0.6389  1.7977
   59SAPC  H15B 4439   3.689   4.581   6.656  0.6895  0.7422  0.1230
   59SAPC  H15C 4440   3.809   4.594   6.783 -0.0597  0.9550  0.2754
   59SAPC   C11 4441   3.860   4.324   6.743 -0.0993  0.4381 -0.0357
   59SAPC  H11A 4442   3.830   4.218   6.727  0.5520  0.3902 -1.0211
   59SAPC  H11B 4443   3.774   4.375   6.792  1.3919  1.8105  1.2443
   59SAPC     P 4444   4.103   4.245   6.803  0.2406  0.2236 -0.2394
   59SAPC   O13 4445   4.169   4.307   6.683  0.5431  0.2823 -0.4215
   59SAPC   O14 4446   4.186   4.235   6.926  0.5669  0.7005 -0.3444
   59SAPC   O12 4447   3.971   4.335   6.830  0.4320 -0.3078 -0.3740
   59SAPC   O11 4448   4.058   4.107   6.766  0.1694 -0.3246  0.2857
   59SAPC    C1 4449   4.026   4.012   6.868  0.0929 -0.4146 -0.1898
   59SAPC    HA 4450   4.114   3.979   6.928 -0.2752  0.4131  0.8519
   59SAPC    HB 4451   3.954   4.041   6.947  0.1520  1.0862 -0.6524
   59SAPC    C2 4452   3.980   3.876   6.803 -0.5051 -0.4244  0.4067
   59SAPC    HS 4453   3.998   3.789   6.870  0.2950 -0.2175  0.4817
   59SAPC   O21 4454   4.046   3.864   6.678  0.4388  0.4401  0.3349
   59SAPC   C21 4455   4.173   3.834   6.682  0.6416  0.3690  0.0778
   59SAPC   O22 4456   4.249   3.832   6.777  0.3244 -0.0246 -0.6201
   59SAPC   C22 4457   4.202   3.763   6.543 -0.5423  0.0461 -0.3123
   59SAPC   H2R 4458   4.121   3.690   6.522 -0.7161 -0.5729  2.1944
   59SAPC   H2S 4459   4.209   3.841   6.464 -1.1211  2.7586  2.1694
   59SAPC    C3 4460   3.826   3.878   6.779 -0.6179 -0.5349 -0.8599
   59SAPC    HX 4461   3.802   3.984   6.755 -1.7959  0.6381  4.3451
   59SAPC    HY 4462   3.781   3.868   6.880  1.2801  1.8531  0.3069
   59SAPC   O31 4463   3.787   3.775   6.685  0.0707 -0.2323 -0.0538
   59SAPC   C31 4464   3.698   3.808   6.591  0.6591  1.1087  0.1464
   59SAPC   O32 4465   3.642   3.916   6.584  0.0092  0.0174  0.0118
   59SAPC   C32 4466   3.686   3.697   6.487  0.2838 -0.5677 -0.0669
   59SAPC   H2X 4467   3.578   3.672   6.479  0.3596 -0.3491 -2.1361
   59SAPC   H2Y 4468   3.735   3.604   6.524 -0.7549 -0.2249  2.3723
   59SAPC   C23 4469   4.333   3.669   6.551 -0.3483  0.4648  0.2237
   59SAPC   H3R 4470   4.330   3.583   6.622 -1.3688 -0.0529 -0.4247
   59SAPC   H3S 4471   4.417   3.741   6.552 -0.1101  0.3536 -2.7077
   59SAPC   C24 4472   4.345   3.597   6.418  0.5325  0.1771 -0.4520
   59SAPC   H4R 4473   4.352   3.668   6.334  2.0627 -1.0678 -1.4529
   59SAPC   H4S 4474   4.259   3.531   6.394  2.3351 -1.6285 -2.4626
   59SAPC   C25 4475   4.464   3.507   6.419 -0.3458 -0.3747 -0.1227
   59SAPC   H5R 4476   4.491   3.464   6.517  0.1757 -1.5017 -0.7315
   59SAPC   C26 4477   4.544   3.460   6.318  0.3291 -0.2792  0.0101
   59SAPC   H6R 4478   4.625   3.391   6.344  0.9365  1.6420  3.9603
   59SAPC   C27 4479   4.532   3.502   6.172 -0.1384 -0.8467 -0.0546
   59SAPC   H7R 4480   4.635   3.536   6.148 -0.4270  0.5409  0.5643
   59SAPC   H7S 4481   4.462   3.587   6.153 -0.6651 -1.2022  0.2772
   59SAPC   C28 4482   4.499   3.389   6.083 -0.4895  0.2843 -0.0952
   59SAPC   H8R 4483   4.479   3.296   6.138  5.8667 -1.1846  0.4284
   59SAPC   C29 4484   4.511   3.393   5.949 -0.7704  0.7016  0.1760
   59SAPC   H9R 4485   4.452   3.320   5.892  0.8214 -1.8479  1.6050
   59SAPC  C210 4486   4.555   3.517   5.872 -0.0210 -0.2806  0.2441
   59SAPC  H10R 4487   4.659   3.505   5.833 -0.3477  1.8515 -1.4633
   59SAPC  H10S 4488   4.553   3.608   5.936 -0.0391 -0.2567  0.2096
   59SAPC  C211 4489   4.470   3.539   5.745  0.6298 -0.4296 -0.2929
   59SAPC  H11R 4490   4.360   3.530   5.747  0.6526 -1.6523 -2.2363
   59SAPC  C212 4491   4.521   3.539   5.618 -0.6494  0.0897  0.3680
   59SAPC  H12R 4492   4.454   3.535   5.531  0.7453  1.1352 -0.7936
   59SAPC  C213 4493   4.665   3.526   5.567 -0.4145  0.6821  0.6906
   59SAPC  H13R 4494   4.678   3.418   5.549  1.8576  1.4000 -3.3069
   59SAPC  H13S 4495   4.731   3.561   5.649  0.9778 -0.9309  0.3076
   59SAPC  C214 4496   4.680   3.600   5.437  0.8170  0.0830 -0.6166
   59SAPC  H14R 4497   4.730   3.696   5.453 -0.8780  0.6817  1.4825
   59SAPC  C215 4498   4.640   3.574   5.314  0.0106  0.6027 -0.1480
   59SAPC  H15R 4499   4.646   3.655   5.240  2.6791 -0.3557 -1.1104
   59SAPC  C216 4500   4.578   3.440   5.269 -0.6735  0.1484 -0.0729
   59SAPC  H16R 4501   4.574   3.438   5.158  1.3816  1.7572 -0.2426
   59SAPC  H16S 4502   4.478   3.421   5.313 -0.9764  0.3382 -0.6608
   59SAPC  C217 4503   4.677   3.321   5.296 -0.5648 -0.2244 -0.2390
   59SAPC  H17R 4504   4.677   3.290   5.403  2.1383 -2.9844 -0.8756
   59SAPC  H17S 4505   4.780   3.347   5.267 -0.1207 -1.5208  0.0767
   59SAPC  C218 4506   4.645   3.200   5.205 -0.3519 -0.0224 -0.2156
   59SAPC  H18R 4507   4.649   3.227   5.098 -0.3521  0.6831 -0.0400
   59SAPC  H18S 4508   4.539   3.168   5.210  0.3397 -2.7703 -1.0523
   59SAPC  C219 4509   4.746   3.088   5.228 -0.3246 -0.6828  0.0824
   59SAPC  H19R 4510   4.753   3.047   5.331 -0.8651  2.1023  1.3410
   59SAPC  H19S 4511   4.838   3.146   5.203 -1.5477  1.2889 -0.0434
   59SAPC  C220 4512   4.725   2.976   5.129 -0.0225  0.4539  0.0349
   59SAPC  H20R 4513   4.624   2.933   5.143 -0.1092  0.6994  0.1795
   59SAPC  H20S 4514   4.794   2.891   5.150 -2.0663 -1.5303 -0.8534
   59SAPC  H20T 4515   4.733   2.995   5.020  0.2550  1.2465  0.1843
   59SAPC   C33 4516   3.733   3.743   6.348  0.1169 -0.2124 -0.5131
   59SAPC   H3X 4517   3.671   3.830   6.318  1.0165  0.9447  0.8709
   59SAPC   H3Y 4518   3.708   3.654   6.287 -2.2974  0.2456 -0.2752
   59SAPC   C34 4519   3.878   3.804   6.339  0.3133  1.0628 -0.0618
   59SAPC   H4X 4520   3.944   3.756   6.413 -0.0792  1.2393  0.4083
   59SAPC   H4Y 4521   3.875   3.909   6.375  2.0933  1.8426 -1.9898
   59SAPC   C35 4522   3.949   3.815   6.203 -0.1056  0.7334  0.7694
   59SAPC   H5X 4523   3.973   3.712   6.171 -0.1292 -0.3265  3.8501
   59SAPC   H5Y 4524   4.047   3.865   6.215 -0.6155  1.6611  1.1830
   59SAPC   C36 4525   3.859   3.894   6.108  0.3758  0.2862  0.2034
   59SAPC   H6X 4526   3.863   3.999   6.146 -2.6032  0.6240 -0.1992
   59SAPC   H6Y 4527   3.753   3.862   6.118  0.3595 -0.1291 -1.1345
   59SAPC   C37 4528   3.910   3.897   5.956 -0.4951 -0.4733 -0.1660
   59SAPC   H7X 4529   3.920   3.794   5.915 -0.2985 -0.5112 -0.0290
   59SAPC   H7Y 4530   4.012   3.941   5.962 -0.0766 -1.5738  1.7026
   59SAPC   C38 4531   3.822   3.986   5.875  0.6367  0.5181  0.5521
   59SAPC   H8X 4532   3.814   4.084   5.926  0.5874  1.5364 -1.3152
   59SAPC   H8Y 4533   3.728   3.928   5.871  1.3996 -0.8753  1.9523
   59SAPC   C39 4534   3.860   4.004   5.728  0.3391 -0.4639  0.4738
   59SAPC   H9X 4535   3.970   4.006   5.710 -0.1620  1.8452 -3.3626
   59SAPC   H9Y 4536   3.824   4.102   5.690  0.7021  0.1798  1.7392
   59SAPC  C310 4537   3.800   3.892   5.639  0.0036  0.3711 -0.1298
   59SAPC  H10X 4538   3.697   3.863   5.670 -0.2357  2.1531  0.8542
   59SAPC  H10Y 4539   3.871   3.810   5.664  0.2595  0.4356 -0.6379
   59SAPC  C311 4540   3.829   3.913   5.488  0.4527  0.1606 -0.0483
   59SAPC  H11X 4541   3.921   3.970   5.462 -0.5643  1.1073 -1.7865
   59SAPC  H11Y 4542   3.747   3.976   5.447  0.7439  0.7393  0.2576
   59SAPC  C312 4543   3.853   3.787   5.403  0.6180 -0.1837 -0.2587
   59SAPC  H12X 4544   3.769   3.715   5.407 -0.0883  0.6195 -0.3618
   59SAPC  H12Y 4545   3.943   3.733   5.438  2.6265  1.7901 -2.0456
   59SAPC  C313 4546   3.869   3.837   5.264  0.2171  0.7444  0.0467
   59SAPC  H13X 4547   3.960   3.899   5.257  1.2000 -0.5867  0.5971
   59SAPC  H13Y 4548   3.775   3.892   5.240 -0.4085 -0.3258 -0.0394
   59SAPC  C314 4549   3.885   3.715   5.163  0.1329 -0.4653 -0.0117
   59SAPC  H14X 4550   3.808   3.639   5.188 -1.4535  1.5336  1.5252
   59SAPC  H14Y 4551   3.986   3.669   5.168 -0.3826 -1.9254 -2.0172
   59SAPC  C315 4552   3.866   3.774   5.019 -0.1855  0.3164  0.0507
   59SAPC  H15X 4553   3.961   3.827   4.992 -0.1091  0.4017  0.4847
   59SAPC  H15Y 4554   3.803   3.865   5.016 -0.0118  0.5770  2.5225
   59SAPC  C316 4555   3.836   3.667   4.908  0.1482  0.0596  0.0305
   59SAPC  H16X 4556   3.725   3.663   4.908  0.0673  1.3026 -1.6211
   59SAPC  H16Y 4557   3.873   3.563   4.923 -1.3097 -0.4032  0.5196
   59SAPC  C317 4558   3.879   3.708   4.768  0.6259 -0.3106  0.2652
   59SAPC  H17X 4559   3.824   3.647   4.693  0.6868  0.9295 -0.8305
   59SAPC  H17Y 4560   3.989   3.696   4.760  0.4290 -1.6462 -1.0896
   59SAPC  C318 4561   3.843   3.847   4.728 -0.2272 -0.3794 -0.5704
   59SAPC  H18X 4562   3.735   3.857   4.703  0.4793  2.0181 -3.2645
   59SAPC  H18Y 4563   3.902   3.873   4.638 -0.9060  1.3016 -0.5700
   59SAPC  H18Z 4564   3.873   3.932   4.794  1.5860 -0.2154 -1.5547
   60SAPC     N 4565   3.192   3.687   7.325 -0.5769  0.1487  0.7812
   60SAPC   C12 4566   3.071   3.682   7.243  0.1373  0.5963  0.2767
   60SAPC  H12A 4567   3.069   3.758   7.166  0.1449 -0.1861 -0.5141
   60SAPC  H12B 4568   2.982   3.698   7.303 -1.6103 -0.4032 -1.8731
   60SAPC   C13 4569   3.176   3.598   7.441 -0.6005  0.3508 -0.2528
   60SAPC  H13A 4570   3.083   3.614   7.494 -0.1612  1.9009  0.0839
   60SAPC  H13B 4571   3.180   3.495   7.406  2.7209  0.6738 -1.1162
   60SAPC  H13C 4572   3.263   3.609   7.503 -0.2986 -0.9236 -0.4116
   60SAPC   C14 4573   3.318   3.638   7.248  0.5430 -0.0311 -0.3238
   60SAPC  H14A 4574   3.366   3.712   7.187  0.0788  1.0327  0.5590
   60SAPC  H14B 4575   3.394   3.609   7.319  2.4842 -1.2801 -2.7522
   60SAPC  H14C 4576   3.298   3.551   7.188 -1.5131  2.1169 -3.0312
   60SAPC   C15 4577   3.214   3.825   7.368  0.1569 -0.2294  0.7434
   60SAPC  H15A 4578   3.228   3.894   7.287  2.0395  0.7811  1.8466
   60SAPC  H15B 4579   3.132   3.857   7.430 -0.8241  1.7142 -1.4497
   60SAPC  H15C 4580   3.308   3.823   7.422 -0.0398 -1.1057  1.0818
   60SAPC   C11 4581   3.032   3.548   7.173 -0.8947 -0.1011 -0.3797
   60SAPC  H11A 4582   2.935   3.561   7.121 -1.3164 -1.0093  0.1722
   60SAPC  H11B 4583   3.025   3.466   7.247 -0.5376 -0.9006 -1.2009
   60SAPC     P 4584   3.142   3.568   6.927 -0.1013  0.1142  0.0052
   60SAPC   O13 4585   3.089   3.705   6.919 -0.4936 -0.2131 -0.1152
   60SAPC   O14 4586   3.284   3.564   6.890  0.1686  0.4773  0.5473
   60SAPC   O12 4587   3.132   3.510   7.075 -0.0675  0.0177  0.0759
   60SAPC   O11 4588   3.051   3.479   6.834 -0.3929 -0.1604  0.6100
   60SAPC    C1 4589   3.024   3.347   6.876  0.0561 -0.7431  0.2129
   60SAPC    HA 4590   3.103   3.305   6.941  0.2253  0.4026  0.7696
   60SAPC    HB 4591   2.932   3.353   6.938 -0.2479 -0.5435 -0.2529
   60SAPC    C2 4592   3.017   3.240   6.760 -0.0069 -0.2622 -0.3608
   60SAPC    HS 4593   3.117   3.192   6.752 -0.7839 -3.1920  3.6451
   60SAPC   O21 4594   2.979   3.307   6.642 -0.3837  0.6867  0.0117
   60SAPC   C21 4595   3.065   3.371   6.567 -0.0299  0.2726  0.1248
   60SAPC   O22 4596   3.186   3.380   6.587  0.8826  0.0291  0.7323
   60SAPC   C22 4597   3.007   3.411   6.432 -0.2251  0.1000 -0.0944
   60SAPC   H2R 4598   2.919   3.346   6.415  1.0731 -2.0101  0.7880
   60SAPC   H2S 4599   2.972   3.516   6.435  1.7686  0.7863  0.4624
   60SAPC    C3 4600   2.906   3.128   6.782  0.4235  0.2674 -0.6011
   60SAPC    HX 4601   2.811   3.181   6.806  1.9571  2.5429  0.9506
   60SAPC    HY 4602   2.945   3.078   6.873  0.2568  2.4964  0.7789
   60SAPC   O31 4603   2.889   3.035   6.677 -0.2253 -0.3183  0.2622
   60SAPC   C31 4604   2.816   2.933   6.712  0.4376  0.2535  0.3008
   60SAPC   O32 4605   2.754   2.922   6.814  0.1459 -0.5221  0.3028
   60SAPC   C32 4606   2.814   2.828   6.599  0.1475 -0.4805 -0.3032
   60SAPC   H2X 4607   2.917   2.786   6.605 -0.2113 -1.5258 -1.1121
   60SAPC   H2Y 4608   2.811   2.879   6.500 -0.9036 -0.1656 -0.1240
   60SAPC   C23 4609   3.102   3.408   6.314 -0.2829 -0.1000 -0.4126
   60SAPC   H3R 4610   3.128   3.304   6.285 -0.5811 -0.8677  1.9078
   60SAPC   H3S 4611   3.199   3.455   6.341 -1.9457  2.8410  0.8516
   60SAPC   C24 4612   3.045   3.488   6.193 -0.4169 -0.4464  0.4990
   60SAPC   H4R 4613   3.135   3.522   6.138  1.1598 -3.3774  1.0466
   60SAPC   H4S 4614   3.000   3.580   6.236 -0.8906 -0.7190  0.5934
   60SAPC   C25 4615   2.945   3.410   6.106  0.1816  0.1193 -0.0520
   60SAPC   H5R 4616   2.845   3.398   6.149  0.0521 -1.4638 -0.7207
   60SAPC   C26 4617   2.961   3.361   5.980 -0.0972  0.0877 -0.1402
   60SAPC   H6R 4618   2.872   3.314   5.937  0.2792  0.2634 -1.1357
   60SAPC   C27 4619   3.087   3.366   5.889 -0.5397  0.9800  0.0515
   60SAPC   H7R 4620   3.140   3.270   5.906 -1.3479  0.7871  1.6632
   60SAPC   H7S 4621   3.159   3.440   5.929  0.4917  0.1585 -0.2534
   60SAPC   C28 4622   3.060   3.393   5.739 -0.3287  0.0274 -1.0520
   60SAPC   H8R 4623   2.990   3.476   5.722 -0.9493  0.2844  2.2059
   60SAPC   C29 4624   3.075   3.305   5.646  0.2384 -0.4951  0.2681
   60SAPC   H9R 4625   3.052   3.337   5.543 -2.8280 -1.7502  0.4493
   60SAPC  C210 4626   3.132   3.168   5.655  0.2205 -0.3221 -1.1106
   60SAPC  H10R 4627   3.062   3.111   5.591 -0.4096  1.1099 -1.7519
   60SAPC  H10S 4628   3.132   3.129   5.759 -0.9484  0.1300 -0.9228
   60SAPC  C211 4629   3.273   3.168   5.607 -0.0821  0.0876 -0.6738
   60SAPC  H11R 4630   3.330   3.260   5.629 -1.9858  0.5202  3.3924
   60SAPC  C212 4631   3.334   3.064   5.545 -0.0128  1.0230 -0.4435
   60SAPC  H12R 4632   3.440   3.071   5.517  0.6814 -1.6085  1.1171
   60SAPC  C213 4633   3.265   2.932   5.497  0.1413 -0.7580  0.2501
   60SAPC  H13R 4634   3.178   2.906   5.561 -1.1924  0.0636 -1.1575
   60SAPC  H13S 4635   3.335   2.848   5.519 -0.7651 -1.4513  0.5232
   60SAPC  C214 4636   3.212   2.932   5.353 -0.1935  0.4014 -0.3784
   60SAPC  H14R 4637   3.143   3.010   5.317  0.4126  1.5205  0.7867
   60SAPC  C215 4638   3.236   2.829   5.270 -0.1412  0.4967 -0.1426
   60SAPC  H15R 4639   3.195   2.845   5.169  1.1193  1.6146 -0.5171
   60SAPC  C216 4640   3.315   2.700   5.288  0.3148 -0.2444 -0.2505
   60SAPC  H16R 4641   3.340   2.688   5.396  1.3417  0.8390 -0.3482
   60SAPC  H16S 4642   3.413   2.705   5.237  0.0688  0.0652 -0.7085
   60SAPC  C217 4643   3.235   2.578   5.241 -0.5133  0.2825 -0.0140
   60SAPC  H17R 4644   3.204   2.584   5.135  0.8011  0.3460 -0.4144
   60SAPC  H17S 4645   3.136   2.578   5.292  0.1559 -0.5947  1.3374
   60SAPC  C218 4646   3.298   2.439   5.257 -0.2512  0.5865  0.3547
   60SAPC  H18R 4647   3.383   2.439   5.185  0.2757 -0.9896  0.9400
   60SAPC  H18S 4648   3.220   2.369   5.221  1.1752 -1.4710  1.0847
   60SAPC  C219 4649   3.347   2.397   5.395  0.0253  0.6179 -0.3147
   60SAPC  H19R 4650   3.251   2.362   5.440  1.3241 -0.5825  1.6667
   60SAPC  H19S 4651   3.385   2.486   5.450  1.6788  0.5592 -1.2994
   60SAPC  C220 4652   3.445   2.278   5.401  0.0803  0.0947 -0.0364
   60SAPC  H20R 4653   3.550   2.304   5.374  0.3540  0.0861  0.9503
   60SAPC  H20S 4654   3.422   2.197   5.329 -0.6008 -0.6845  1.0149
   60SAPC  H20T 4655   3.452   2.226   5.500  1.8580 -0.2267 -0.2886
   60SAPC   C33 4656   2.716   2.713   6.610  0.8587  0.9528 -0.9364
   60SAPC   H3X 4657   2.618   2.759   6.636  0.8511 -0.0383  0.9099
   60SAPC   H3Y 4658   2.742   2.648   6.696 -0.9539  1.7423  0.2541
   60SAPC   C34 4659   2.708   2.622   6.485 -0.3741 -0.5124 -0.7716
   60SAPC   H4X 4660   2.618   2.558   6.498 -1.9876  1.5952 -1.0909
   60SAPC   H4Y 4661   2.797   2.560   6.461 -0.5916 -0.6105 -1.3278
   60SAPC   C35 4662   2.683   2.691   6.350  1.1718 -1.0127  0.4683
   60SAPC   H5X 4663   2.784   2.689   6.303  1.3532  0.3205  0.7858
   60SAPC   H5Y 4664   2.652   2.796   6.366 -2.4737 -1.6249 -1.3655
   60SAPC   C36 4665   2.586   2.616   6.257 -0.8020 -0.1867 -0.8462
   60SAPC   H6X 4666   2.485   2.620   6.303 -1.0638 -1.2307 -1.3065
   60SAPC   H6Y 4667   2.620   2.510   6.258 -0.3203 -0.1471  2.9505
   60SAPC   C37 4668   2.581   2.669   6.115 -0.2837 -0.6704 -0.6155
   60SAPC   H7X 4669   2.682   2.678   6.070 -0.8539 -0.5423 -1.9051
   60SAPC   H7Y 4670   2.541   2.773   6.111 -1.5408 -0.8366  3.2458
   60SAPC   C38 4671   2.505   2.575   6.014  1.1620  0.5108 -0.2877
   60SAPC   H8X 4672   2.399   2.570   6.048  1.0504  1.6713 -0.4106
   60SAPC   H8Y 4673   2.550   2.474   6.008 -1.0917 -0.7349  1.6927
   60SAPC   C39 4674   2.513   2.622   5.871  0.0454 -0.0384 -0.2555
   60SAPC   H9X 4675   2.612   2.670   5.858  0.1290  0.6386  2.3585
   60SAPC   H9Y 4676   2.431   2.694   5.849 -1.5111 -1.4011  0.8472
   60SAPC  C310 4677   2.515   2.509   5.768 -0.6600 -0.0552  0.7535
   60SAPC  H10X 4678   2.429   2.445   5.799 -0.0557  0.2393  3.2831
   60SAPC  H10Y 4679   2.602   2.441   5.779 -0.8818 -0.4912 -0.0941
   60SAPC  C311 4680   2.500   2.564   5.625 -0.1448 -0.8453  0.1957
   60SAPC  H11X 4681   2.602   2.587   5.587 -0.4154  2.3675  1.1064
   60SAPC  H11Y 4682   2.439   2.656   5.621  0.6682 -0.3510 -1.8130
   60SAPC  C312 4683   2.417   2.471   5.536  0.0510  0.0231  0.0813
   60SAPC  H12X 4684   2.312   2.450   5.562 -0.3154 -0.7720 -1.9153
   60SAPC  H12Y 4685   2.472   2.375   5.534  1.3808  0.7337  0.7681
   60SAPC  C313 4686   2.414   2.509   5.378  0.4085 -0.2470  0.2671
   60SAPC  H13X 4687   2.515   2.539   5.342  0.3428 -1.2682 -0.8223
   60SAPC  H13Y 4688   2.347   2.597   5.366 -0.8299 -1.1081  0.6432
   60SAPC  C314 4689   2.352   2.395   5.290  0.5886  0.1195 -0.4789
   60SAPC  H14X 4690   2.244   2.406   5.314  0.6535 -0.6059  0.1611
   60SAPC  H14Y 4691   2.382   2.295   5.327  3.1386  0.8698 -0.3524
   60SAPC  C315 4692   2.393   2.415   5.144  0.1058 -0.0036 -0.2615
   60SAPC  H15X 4693   2.504   2.413   5.143  0.1278 -2.2945 -1.8808
   60SAPC  H15Y 4694   2.350   2.509   5.104 -2.7334 -0.8703  0.5115
   60SAPC  C316 4695   2.327   2.308   5.066 -0.1357  0.7611  0.5367
   60SAPC  H16X 4696   2.253   2.241   5.115  1.5352 -0.2987  1.7513
   60SAPC  H16Y 4697   2.404   2.235   5.034 -0.1227 -0.1514  2.4995
   60SAPC  C317 4698   2.258   2.367   4.934  0.8071  0.2990  0.4192
   60SAPC  H17X 4699   2.326   2.447   4.897 -0.5335  1.4120  0.3027
   60SAPC  H17Y 4700   2.164   2.414   4.968 -0.0620 -1.4132  0.4905
   60SAPC  C318 4701   2.230   2.258   4.823 -0.2213  0.4576  0.8101
   60SAPC  H18X 4702   2.167   2.175   4.861  2.7020 -1.2880  2.2618
   60SAPC  H18Y 4703   2.330   2.222   4.791  0.2249 -0.6410  3.2286
   60SAPC  H18Z 4704   2.186   2.307   4.734  0.1168 -1.1090 -0.2553
   61SAPC     N 4705   2.399   1.423   7.391  0.3683  0.2141 -0.1074
   61SAPC   C12 4706   2.326   1.534   7.476 -1.2069 -0.1489  0.0964
   61SAPC  H12A 4707   2.338   1.510   7.580 -1.7602  0.2826  0.2626
   61SAPC  H12B 4708   2.219   1.527   7.460 -1.3072  0.0688  0.6764
   61SAPC   C13 4709   2.357   1.278   7.432  0.2296 -0.3966 -0.2753
   61SAPC  H13A 4710   2.364   1.258   7.538 -3.5155 -3.9874 -0.4376
   61SAPC  H13B 4711   2.255   1.261   7.400  0.4027 -0.8695 -0.5865
   61SAPC  H13C 4712   2.420   1.208   7.379 -0.4371 -0.6843 -0.7105
   61SAPC   C14 4713   2.358   1.439   7.249  0.5090  0.5666 -0.0525
   61SAPC  H14A 4714   2.257   1.407   7.229  0.3948 -0.1706  1.5996
   61SAPC  H14B 4715   2.373   1.540   7.213 -2.1140  0.7510 -0.8612
   61SAPC  H14C 4716   2.415   1.374   7.183  1.4437  1.0726  0.2499
   61SAPC   C15 4717   2.540   1.433   7.415 -0.4308 -0.0125  0.6622
   61SAPC  H15A 4718   2.598   1.378   7.341  0.7161  2.4781 -0.4384
   61SAPC  H15B 4719   2.557   1.538   7.398  0.6524 -0.1976  0.4758
   61SAPC  H15C 4720   2.570   1.417   7.517  0.9538 -0.8160  0.1603
   61SAPC   C11 4721   2.378   1.679   7.447  0.2815  0.5058 -1.1458
   61SAPC  H11A 4722   2.302   1.748   7.490  0.7012  0.1055  0.3182
   61SAPC  H11B 4723   2.379   1.701   7.339  0.6570  0.3976 -1.1655
   61SAPC     P 4724   2.591   1.821   7.459  0.2776 -0.0260  0.4189
   61SAPC   O13 4725   2.511   1.944   7.483  0.1092 -0.0484  0.2713
   61SAPC   O14 4726   2.730   1.825   7.519  0.4131  0.4686  0.6602
   61SAPC   O12 4727   2.513   1.691   7.503 -0.5370 -0.5192  0.0290
   61SAPC   O11 4728   2.607   1.808   7.300  0.8080  0.5261  0.1356
   61SAPC    C1 4729   2.700   1.732   7.231 -0.5383  1.3229 -0.6110
   61SAPC    HA 4730   2.745   1.654   7.296 -2.1331  0.7227 -0.1669
   61SAPC    HB 4731   2.646   1.691   7.143 -1.6494 -2.2632  1.5112
   61SAPC    C2 4732   2.824   1.817   7.188 -0.8816  0.0061 -0.1593
   61SAPC    HS 4733   2.870   1.857   7.280  2.9120  1.7753 -2.5671
   61SAPC   O21 4734   2.792   1.934   7.112  0.2864 -0.0212  0.0147
   61SAPC   C21 4735   2.891   2.011   7.058  0.4447 -0.1346  0.7104
   61SAPC   O22 4736   3.008   2.025   7.095  0.6560  0.5169 -0.2361
   61SAPC   C22 4737   2.829   2.097   6.942  0.3881  0.2189  0.9237
   61SAPC   H2R 4738   2.719   2.086   6.956  0.6038 -0.9467  1.8898
   61SAPC   H2S 4739   2.849   2.201   6.974  0.4963 -0.1925  2.2532
   61SAPC    C3 4740   2.928   1.733   7.117  0.3283  0.1206 -0.5016
   61SAPC    HX 4741   2.931   1.647   7.187 -2.7556 -1.6630 -2.3286
   61SAPC    HY 4742   3.030   1.770   7.139  0.6184 -0.6930 -0.4399
   61SAPC   O31 4743   2.910   1.685   6.978  0.0875 -0.0100  0.4759
   61SAPC   C31 4744   2.929   1.558   6.947  0.4691  0.6228  0.5590
   61SAPC   O32 4745   2.943   1.465   7.028 -0.2624 -0.1901 -0.6177
   61SAPC   C32 4746   2.931   1.543   6.795  0.1312  0.8457  0.0770
   61SAPC   H2X 4747   2.975   1.636   6.754 -2.4081  1.5407 -1.2573
   61SAPC   H2Y 4748   2.826   1.543   6.761 -0.1581  0.1176  0.9250
   61SAPC   C23 4749   2.871   2.046   6.801  0.4270 -0.1854 -0.0278
   61SAPC   H3R 4750   2.861   1.936   6.807 -1.6727 -0.0147  0.1296
   61SAPC   H3S 4751   2.978   2.072   6.786  0.0938  2.0852  1.0621
   61SAPC   C24 4752   2.794   2.106   6.687  0.0818 -0.1583 -0.5063
   61SAPC   H4R 4753   2.793   2.217   6.692 -0.7168  0.0210 -3.3124
   61SAPC   H4S 4754   2.688   2.077   6.697  0.1440 -0.2308 -0.0296
   61SAPC   C25 4755   2.849   2.054   6.558  0.6339  0.4323 -0.2658
   61SAPC   H5R 4756   2.873   1.947   6.552 -3.6030 -0.6136 -1.9498
   61SAPC   C26 4757   2.877   2.126   6.448  0.3680 -0.1673  0.3055
   61SAPC   H6R 4758   2.909   2.070   6.359  1.5953 -0.9190  1.1955
   61SAPC   C27 4759   2.845   2.268   6.417  0.0473  0.5765  0.3295
   61SAPC   H7R 4760   2.788   2.315   6.500  0.7185 -1.1123  1.8190
   61SAPC   H7S 4761   2.764   2.261   6.342 -0.2901 -0.7695  0.7919
   61SAPC   C28 4762   2.970   2.339   6.376 -0.1269  0.0893  0.8092
   61SAPC   H8R 4763   3.015   2.389   6.464 -1.6220  2.0323  0.5316
   61SAPC   C29 4764   3.017   2.363   6.253  0.1747  0.0770 -0.4993
   61SAPC   H9R 4765   3.121   2.397   6.249  0.4217 -0.7252 -1.3584
   61SAPC  C210 4766   2.978   2.292   6.123  1.0610 -0.0857  0.2384
   61SAPC  H10R 4767   2.965   2.183   6.139  0.6623 -0.1151 -0.2642
   61SAPC  H10S 4768   3.063   2.305   6.053 -1.0669  1.4404 -2.2565
   61SAPC  C211 4769   2.850   2.356   6.059 -0.1116  0.1248 -0.1049
   61SAPC  H11R 4770   2.753   2.347   6.110 -1.0557  3.0430 -1.1476
   61SAPC  C212 4771   2.849   2.437   5.952  0.0892  0.3119 -0.0033
   61SAPC  H12R 4772   2.757   2.479   5.910 -0.0794 -3.6764 -4.4487
   61SAPC  C213 4773   2.964   2.480   5.869  0.7207 -0.0832  0.0865
   61SAPC  H13R 4774   2.936   2.452   5.764 -3.1308 -0.3000  1.0149
   61SAPC  H13S 4775   3.059   2.427   5.893  0.2720  0.6046  3.9180
   61SAPC  C214 4776   2.978   2.628   5.883  0.3712  0.3521 -0.1563
   61SAPC  H14R 4777   3.046   2.670   5.959 -0.1402 -0.2899  0.6718
   61SAPC  C215 4778   2.937   2.715   5.791 -0.2163 -0.0322  0.2039
   61SAPC  H15R 4779   2.953   2.821   5.818  1.1032 -0.2755  0.4793
   61SAPC  C216 4780   2.862   2.695   5.661 -0.2249 -0.0943 -0.2421
   61SAPC  H16R 4781   2.787   2.776   5.649  0.4707  0.9348  1.8263
   61SAPC  H16S 4782   2.809   2.597   5.661 -1.0580  0.3044  1.5991
   61SAPC  C217 4783   2.962   2.695   5.544  0.1082 -0.5504  0.5011
   61SAPC  H17R 4784   3.045   2.625   5.566  0.9334 -0.1873 -1.3219
   61SAPC  H17S 4785   2.987   2.803   5.536 -2.6057  0.1381  0.3876
   61SAPC  C218 4786   2.894   2.661   5.413 -0.0684 -0.0652  0.0708
   61SAPC  H18R 4787   2.963   2.682   5.329 -1.2609  1.7314 -0.5185
   61SAPC  H18S 4788   2.809   2.730   5.395  0.4014 -0.0090 -2.2966
   61SAPC  C219 4789   2.841   2.518   5.400 -0.2389 -0.5453  0.4187
   61SAPC  H19R 4790   2.765   2.505   5.480  0.5465  1.7168  1.5906
   61SAPC  H19S 4791   2.923   2.447   5.423  0.3135 -1.6376 -3.8936
   61SAPC  C220 4792   2.781   2.486   5.266  0.1667 -0.6116 -0.0172
   61SAPC  H20R 4793   2.757   2.378   5.266 -1.6128 -0.2774 -2.2202
   61SAPC  H20S 4794   2.849   2.502   5.180 -0.4217 -0.4586 -0.4558
   61SAPC  H20T 4795   2.685   2.541   5.252  0.5557 -0.1458 -0.9242
   61SAPC   C33 4796   3.014   1.429   6.735 -0.0426 -0.2326 -0.3523
   61SAPC   H3X 4797   2.978   1.328   6.763  0.3465  0.1785  1.7560
   61SAPC   H3Y 4798   3.118   1.434   6.775 -0.4436  0.1626  0.6751
   61SAPC   C34 4799   2.999   1.423   6.586  0.3886  0.3855  0.3230
   61SAPC   H4X 4800   3.008   1.519   6.531  0.6476 -0.5963 -1.4203
   61SAPC   H4Y 4801   2.902   1.379   6.554  0.6404  1.1777 -1.6794
   61SAPC   C35 4802   3.099   1.324   6.528  0.4201 -0.0522 -0.2022
   61SAPC   H5X 4803   3.086   1.221   6.567  1.9656 -0.0762  0.2864
   61SAPC   H5Y 4804   3.197   1.364   6.561  0.2228  0.2451  0.0338
   61SAPC   C36 4805   3.085   1.318   6.376  0.3091  0.5244  0.5477
   61SAPC   H6X 4806   2.999   1.378   6.339  0.4626 -0.1953 -1.0846
   61SAPC   H6Y 4807   3.070   1.211   6.349  0.2235  1.0096 -1.5214
   61SAPC   C37 4808   3.209   1.374   6.293  0.0949 -0.2997 -0.6270
   61SAPC   H7X 4809   3.301   1.335   6.341 -0.4202 -1.8539 -0.8367
   61SAPC   H7Y 4810   3.202   1.485   6.295  1.4235 -0.1916 -1.2528
   61SAPC   C38 4811   3.215   1.317   6.155 -0.0108  0.7947  1.4293
   61SAPC   H8X 4812   3.183   1.211   6.164  1.6196  0.2601  1.2774
   61SAPC   H8Y 4813   3.320   1.317   6.117 -0.9263 -0.3096 -1.4038
   61SAPC   C39 4814   3.129   1.394   6.049 -0.0619  0.3576 -0.1843
   61SAPC   H9X 4815   3.143   1.504   6.060 -0.4583  0.3346  0.6315
   61SAPC   H9Y 4816   3.022   1.374   6.071 -0.1470 -1.6398 -2.0279
   61SAPC  C310 4817   3.154   1.345   5.906 -1.0000  0.1317  0.6334
   61SAPC  H10X 4818   3.143   1.235   5.921  2.0665 -0.1357  1.7858
   61SAPC  H10Y 4819   3.263   1.356   5.887 -1.3630  0.3373 -1.4638
   61SAPC  C311 4820   3.061   1.383   5.790  0.4844 -0.1696  0.2837
   61SAPC  H11X 4821   3.052   1.492   5.775  0.3593 -0.1997  0.1341
   61SAPC  H11Y 4822   2.962   1.346   5.825  0.3445 -0.3522 -0.2896
   61SAPC  C312 4823   3.090   1.305   5.664  0.5928 -0.0159 -0.2555
   61SAPC  H12X 4824   3.089   1.196   5.685 -3.0303 -0.0463 -0.0624
   61SAPC  H12Y 4825   3.193   1.328   5.627  0.5026  0.9386  0.0461
   61SAPC  C313 4826   2.983   1.338   5.564 -0.0399  0.1940 -0.1420
   61SAPC  H13X 4827   2.983   1.448   5.546 -0.9027  0.1701 -0.3488
   61SAPC  H13Y 4828   2.889   1.308   5.614  1.3957 -1.4589  1.7082
   61SAPC  C314 4829   2.998   1.253   5.439  0.3213  0.1515 -0.8166
   61SAPC  H14X 4830   3.003   1.144   5.459 -1.2732  0.0599 -0.7477
   61SAPC  H14Y 4831   3.089   1.296   5.393 -0.1054  1.5316 -0.4180
   61SAPC  C315 4832   2.879   1.277   5.348  0.4674 -1.3609 -0.0611
   61SAPC  H15X 4833   2.868   1.386   5.327  1.4707 -0.8262  1.9466
   61SAPC  H15Y 4834   2.788   1.255   5.408  0.1598 -2.2216 -0.8093
   61SAPC  C316 4835   2.864   1.194   5.218 -0.0368 -0.3255  0.1295
   61SAPC  H16X 4836   2.884   1.088   5.246 -0.2544  0.0079  1.6204
   61SAPC  H16Y 4837   2.949   1.214   5.150 -0.1473 -0.9740 -0.2116
   61SAPC  C317 4838   2.746   1.213   5.144 -0.1197  0.3556  0.1642
   61SAPC  H17X 4839   2.724   1.322   5.143  0.0327  0.3858 -0.9366
   61SAPC  H17Y 4840   2.659   1.170   5.199  0.4348 -1.1771 -0.0931
   61SAPC  C318 4841   2.737   1.138   5.009 -0.0638 -0.1448  0.1009
   61SAPC  H18X 4842   2.802   1.182   4.930 -1.0199 -1.8413 -1.7229
   61SAPC  H18Y 4843   2.633   1.155   4.973  0.1248  2.0811  0.4396
   61SAPC  H18Z 4844   2.765   1.031   5.023  2.6950  0.6483  1.4053
   62SAPC     N 4845   4.168   0.798   7.363 -0.0268  0.2328  0.5846
   62SAPC   C12 4846   4.305   0.848   7.329 -0.1138 -0.1344  0.3722
   62SAPC  H12A 4847   4.371   0.813   7.408  0.0871 -0.0373  0.2473
   62SAPC  H12B 4848   4.304   0.956   7.324  1.2633 -0.1260 -0.2262
   62SAPC   C13 4849   4.175   0.650   7.364 -0.2849 -0.4169 -0.0970
   62SAPC  H13A 4850   4.079   0.604   7.385  0.6627 -2.0581  0.7597
   62SAPC  H13B 4851   4.219   0.618   7.272 -0.1499  0.6948 -0.4375
   62SAPC  H13C 4852   4.230   0.625   7.454 -1.7396 -4.3136 -0.0808
   62SAPC   C14 4853   4.115   0.846   7.490  0.2296 -0.0058  0.0933
   62SAPC  H14A 4854   4.182   0.830   7.572  1.8026  1.0649 -0.9351
   62SAPC  H14B 4855   4.086   0.950   7.482 -1.1445 -0.4871 -2.0735
   62SAPC  H14C 4856   4.027   0.792   7.522 -0.6007  1.1924 -0.0513
   62SAPC   C15 4857   4.073   0.849   7.257 -0.2389  0.5772  0.1513
   62SAPC  H15A 4858   4.101   0.815   7.158 -1.1123  1.0779 -0.2825
   62SAPC  H15B 4859   3.969   0.833   7.279 -0.0712 -0.6885  0.0489
   62SAPC  H15C 4860   4.074   0.957   7.254  3.0715  0.6466 -0.2112
   62SAPC   C11 4861   4.374   0.798   7.202  0.0506 -0.4436  0.0083
   62SAPC  H11A 4862   4.451   0.877   7.189  0.0677 -0.5976 -0.8458
   62SAPC  H11B 4863   4.319   0.815   7.107  0.5211 -1.3572 -0.4432
   62SAPC     P 4864   4.568   0.630   7.272 -0.2593 -0.7984  0.1984
   62SAPC   O13 4865   4.613   0.748   7.345 -0.3575 -0.0038 -0.5592
   62SAPC   O14 4866   4.575   0.501   7.341  0.3415  0.0813  0.0605
   62SAPC   O12 4867   4.421   0.662   7.212 -0.6764 -0.5114  0.4730
   62SAPC   O11 4868   4.664   0.622   7.145  0.3272  0.8309  0.2554
   62SAPC    C1 4869   4.606   0.635   7.016 -0.9867 -0.0220  1.0765
   62SAPC    HA 4870   4.520   0.566   7.004  0.1461 -1.1731 -1.0105
   62SAPC    HB 4871   4.578   0.743   7.010  0.5084  0.4734  2.3290
   62SAPC    C2 4872   4.714   0.604   6.907 -0.4413  0.3726 -0.6993
   62SAPC    HS 4873   4.729   0.494   6.901  0.3286  0.3875  0.5510
   62SAPC   O21 4874   4.841   0.661   6.944  0.3507 -0.2905  0.4257
   62SAPC   C21 4875   4.945   0.597   6.888  0.8914 -0.0286  0.5600
   62SAPC   O22 4876   4.942   0.497   6.816 -0.4275 -0.0629 -0.7046
   62SAPC   C22 4877   5.076   0.662   6.941  0.1592  0.7631  0.1262
   62SAPC   H2R 4878   5.064   0.763   6.986  1.8953 -0.0482  2.6300
   62SAPC   H2S 4879   5.115   0.589   7.014  0.6446  1.0216  0.1256
   62SAPC    C3 4880   4.664   0.657   6.771 -0.0504 -0.1832 -0.1422
   62SAPC    HX 4881   4.642   0.763   6.798 -0.7809 -0.7700  1.7463
   62SAPC    HY 4882   4.567   0.609   6.748 -0.0574 -0.6460  0.8060
   62SAPC   O31 4883   4.760   0.659   6.663 -0.5744  0.3577  0.8928
   62SAPC   C31 4884   4.764   0.556   6.590  0.0516  0.7172 -0.9308
   62SAPC   O32 4885   4.702   0.451   6.616  0.1397 -0.0381  0.6265
   62SAPC   C32 4886   4.865   0.583   6.478 -0.1497 -0.2323 -0.2416
   62SAPC   H2X 4887   4.890   0.481   6.442  2.1567  0.1534  0.0880
   62SAPC   H2Y 4888   4.961   0.619   6.521 -0.7036  1.0292 -0.0188
   62SAPC   C23 4889   5.184   0.662   6.825  0.5956 -1.0232  0.4974
   62SAPC   H3R 4890   5.146   0.729   6.744 -1.0991 -0.0421  2.0366
   62SAPC   H3S 4891   5.193   0.561   6.778  3.9757 -0.2415 -0.7973
   62SAPC   C24 4892   5.319   0.698   6.889 -0.9506 -0.6495  0.1253
   62SAPC   H4R 4893   5.406   0.681   6.822 -0.6604  0.4562  0.1922
   62SAPC   H4S 4894   5.325   0.615   6.962 -4.5237 -0.9313  0.2513
   62SAPC   C25 4895   5.316   0.832   6.957  0.7566 -0.3728  0.0124
   62SAPC   H5R 4896   5.226   0.862   7.013  1.0462  1.8818 -0.6409
   62SAPC   C26 4897   5.422   0.912   6.960 -0.2632 -0.1035  0.4544
   62SAPC   H6R 4898   5.418   1.008   7.013 -0.1754  1.2175 -1.8277
   62SAPC   C27 4899   5.556   0.894   6.884  1.1435 -0.3142 -0.0031
   62SAPC   H7R 4900   5.606   0.988   6.916 -1.6419  1.8696 -1.5133
   62SAPC   H7S 4901   5.532   0.921   6.779 -1.9646  0.4294  0.7848
   62SAPC   C28 4902   5.645   0.782   6.904  0.1609 -0.3842 -0.8309
   62SAPC   H8R 4903   5.645   0.736   7.005  0.6064  2.2350  0.4522
   62SAPC   C29 4904   5.715   0.732   6.805  1.0169  0.2410 -0.3838
   62SAPC   H9R 4905   5.778   0.645   6.830  1.0893  0.3552 -0.1702
   62SAPC  C210 4906   5.704   0.763   6.653  0.3812  0.3815  0.1636
   62SAPC  H10R 4907   5.693   0.874   6.650  0.7308  0.4046 -2.4196
   62SAPC  H10S 4908   5.612   0.712   6.618 -0.1166  1.5458 -0.2717
   62SAPC  C211 4909   5.804   0.700   6.557 -0.5200 -0.1378 -0.3637
   62SAPC  H11R 4910   5.833   0.596   6.577  1.4128  0.4669  0.1913
   62SAPC  C212 4911   5.850   0.751   6.438 -0.3894 -0.4577 -0.0567
   62SAPC  H12R 4912   5.918   0.683   6.385  1.1171  0.2369  0.9093
   62SAPC  C213 4913   5.805   0.880   6.373 -0.5932  0.7097  0.8959
   62SAPC  H13R 4914   5.723   0.932   6.427 -2.3548 -1.2389  0.2138
   62SAPC  H13S 4915   5.749   0.867   6.278 -1.8196  4.0331  1.0129
   62SAPC  C214 4916   5.927   0.972   6.340  0.0435 -0.4781 -0.7254
   62SAPC  H14R 4917   5.960   1.038   6.421  1.8002 -0.4218 -1.4392
   62SAPC  C215 4918   5.978   1.002   6.215  0.1249  0.3780  0.0672
   62SAPC  H15R 4919   6.059   1.076   6.205 -1.4842  2.7643  2.9438
   62SAPC  C216 4920   5.945   0.925   6.084 -0.3845 -0.0239 -0.6248
   62SAPC  H16R 4921   5.860   0.976   6.035 -1.2519  0.3569  1.2035
   62SAPC  H16S 4922   5.913   0.824   6.119  0.5709  0.3008  1.3648
   62SAPC  C217 4923   6.069   0.928   5.989 -0.2195 -0.1807 -0.4176
   62SAPC  H17R 4924   6.170   0.895   6.022  0.7756 -0.1732 -3.1498
   62SAPC  H17S 4925   6.073   1.036   5.965 -0.4188 -0.0579  0.0898
   62SAPC  C218 4926   6.036   0.830   5.873  0.9542 -0.4259 -0.1402
   62SAPC  H18R 4927   5.932   0.848   5.836  1.0821 -2.4703 -1.6265
   62SAPC  H18S 4928   6.014   0.732   5.921 -1.8962  0.2798  0.2042
   62SAPC  C219 4929   6.128   0.831   5.743 -0.7901 -0.2640 -0.6863
   62SAPC  H19R 4930   6.235   0.832   5.771 -0.2956 -2.8699 -2.1386
   62SAPC  H19S 4931   6.114   0.934   5.705  0.2626  0.4121  0.6999
   62SAPC  C220 4932   6.092   0.728   5.638  0.3706  0.5576  0.6713
   62SAPC  H20R 4933   5.982   0.739   5.622  0.2971 -2.0789 -1.2201
   62SAPC  H20S 4934   6.125   0.632   5.682  0.3231  0.3369  0.2250
   62SAPC  H20T 4935   6.151   0.757   5.548 -0.2279  0.5238  0.2626
   62SAPC   C33 4936   4.803   0.658   6.360 -0.6787 -0.4833  0.4910
   62SAPC   H3X 4937   4.886   0.698   6.299  0.0263 -0.6425  1.3177
   62SAPC   H3Y 4938   4.747   0.749   6.393 -0.3661  1.2457 -3.2714
   62SAPC   C34 4939   4.715   0.558   6.274  0.0020  0.1493 -0.1216
   62SAPC   H4X 4940   4.614   0.560   6.321 -1.3299  2.7929 -2.7816
   62SAPC   H4Y 4941   4.760   0.458   6.255  0.5601  0.3826 -0.0481
   62SAPC   C35 4942   4.689   0.622   6.136 -0.1966 -0.1816  0.5787
   62SAPC   H5X 4943   4.675   0.730   6.157  3.7910  0.8694 -1.2115
   62SAPC   H5Y 4944   4.600   0.583   6.081  1.0467 -1.0124 -0.9225
   62SAPC   C36 4945   4.804   0.598   6.042  0.1296 -0.3225 -0.2579
   62SAPC   H6X 4946   4.792   0.494   6.005 -2.7010 -0.9607  2.0805
   62SAPC   H6Y 4947   4.901   0.611   6.095  1.5267  1.7439 -3.0692
   62SAPC   C37 4948   4.810   0.704   5.928 -0.1242  0.7845  0.4694
   62SAPC   H7X 4949   4.774   0.802   5.967 -0.0732  1.0349 -0.1004
   62SAPC   H7Y 4950   4.735   0.660   5.859 -0.0041 -0.9085  1.3562
   62SAPC   C38 4951   4.953   0.712   5.863  0.5124  0.2043  0.2186
   62SAPC   H8X 4952   4.992   0.616   5.822 -0.4647 -0.2378  0.2749
   62SAPC   H8Y 4953   5.031   0.745   5.934  0.8564 -1.1033  0.4790
   62SAPC   C39 4954   4.958   0.821   5.754 -0.5019 -0.1322  0.4004
   62SAPC   H9X 4955   5.060   0.857   5.733 -1.3447  2.9059  1.0372
   62SAPC   H9Y 4956   4.899   0.906   5.795  0.1084 -0.5401  2.2252
   62SAPC  C310 4957   4.893   0.780   5.626 -0.0565 -0.6004  0.1228
   62SAPC  H10X 4958   4.783   0.778   5.643 -0.1270  1.8108  0.3135
   62SAPC  H10Y 4959   4.925   0.678   5.594 -0.6706 -0.6352 -0.3946
   62SAPC  C311 4960   4.902   0.884   5.512 -0.0198 -0.0724  0.0776
   62SAPC  H11X 4961   5.006   0.901   5.476 -0.2221  0.7678 -0.1287
   62SAPC  H11Y 4962   4.865   0.985   5.539 -0.2974  0.5533 -2.4029
   62SAPC  C312 4963   4.820   0.857   5.384 -0.5363 -0.1025 -0.5816
   62SAPC  H12X 4964   4.719   0.894   5.411 -1.1441 -1.7594 -0.5264
   62SAPC  H12Y 4965   4.825   0.747   5.372  1.9208 -0.7916  4.1864
   62SAPC  C313 4966   4.874   0.938   5.261 -0.2551  0.5785 -1.0705
   62SAPC  H13X 4967   4.976   0.901   5.237  0.0529  0.4671  0.3493
   62SAPC  H13Y 4968   4.888   1.048   5.274 -1.7007  1.0483 -2.9856
   62SAPC  C314 4969   4.780   0.919   5.144 -0.1606  0.5378  0.3167
   62SAPC  H14X 4970   4.811   0.973   5.052 -0.2617 -0.6992 -0.4755
   62SAPC  H14Y 4971   4.676   0.945   5.170 -0.9784 -0.4221 -1.7673
   62SAPC  C315 4972   4.782   0.773   5.101  0.2578  0.3570 -0.3591
   62SAPC  H15X 4973   4.739   0.708   5.181  0.9288  1.1172  0.6466
   62SAPC  H15Y 4974   4.887   0.739   5.098  0.4960  0.8200  1.3157
   62SAPC  C316 4975   4.703   0.759   4.974  0.5592  0.0425  0.3273
   62SAPC  H16X 4976   4.709   0.843   4.902  0.5040 -0.5640 -0.3895
   62SAPC  H16Y 4977   4.598   0.739   5.005  1.2578 -1.7554  1.6674
   62SAPC  C317 4978   4.754   0.639   4.895 -0.6013 -0.3376  0.1923
   62SAPC  H17X 4979   4.748   0.546   4.955  2.9094  0.1346  1.5173
   62SAPC  H17Y 4980   4.861   0.654   4.870 -0.0536 -1.6058  1.5815
   62SAPC  C318 4981   4.683   0.611   4.761 -0.1236 -0.5297  0.1854
   62SAPC  H18X 4982   4.734   0.529   4.706 -1.8868 -0.3684 -1.7946
   62SAPC  H18Y 4983   4.690   0.696   4.690  0.3882 -1.1730 -0.5499
   62SAPC  H18Z 4984   4.579   0.588   4.793  0.1890 -2.4717 -0.1088
   63SAPC     N 4985   5.848   4.437   6.603  0.3594  0.3170 -0.2503
   63SAPC   C12 4986   5.761   4.319   6.563  0.3977  0.5820  0.8524
   63SAPC  H12A 4987   5.661   4.336   6.599 -0.2898 -1.5158  0.0603
   63SAPC  H12B 4988   5.793   4.227   6.609  1.1526 -0.1489 -1.0348
   63SAPC   C13 4989   5.843   4.463   6.751 -0.1086 -0.5442  0.3967
   63SAPC  H13A 4990   5.879   4.376   6.805  0.4136  0.5514  1.8826
   63SAPC  H13B 4991   5.912   4.541   6.780  0.5442 -0.8297 -0.3380
   63SAPC  H13C 4992   5.743   4.489   6.783  0.0978  0.5548  0.1847
   63SAPC   C14 4993   5.986   4.389   6.563  0.4853 -0.1206  0.7795
   63SAPC  H14A 4994   6.031   4.334   6.644  0.6971 -1.5871 -0.3004
   63SAPC  H14B 4995   5.971   4.339   6.468 -0.4309  2.7845 -0.7374
   63SAPC  H14C 4996   6.057   4.468   6.546 -1.7916  2.2507  1.5873
   63SAPC   C15 4997   5.815   4.567   6.534 -0.2867  0.1025 -0.1462
   63SAPC  H15A 4998   5.709   4.589   6.533 -0.3593 -0.1562 -2.2042
   63SAPC  H15B 4999   5.864   4.654   6.574 -1.2180  0.6563 -0.1884
   63SAPC  H15C 5000   5.842   4.562   6.430  2.5017  1.7116  0.4157
   63SAPC   C11 5001   5.755   4.276   6.409 -0.0286 -0.2941  0.5565
   63SAPC  H11A 5002   5.726   4.365   6.349  2.4306  0.3025  0.1506
   63SAPC  H11B 5003   5.669   4.206   6.400  0.0690 -0.4611  0.8754
   63SAPC     P 5004   5.918   4.071   6.367 -0.1894  0.1305  0.2989
   63SAPC   O13 5005   6.064   4.075   6.369  0.1574 -0.3376  1.0772
   63SAPC   O14 5006   5.853   4.006   6.487 -0.0544  0.0178 -0.9187
   63SAPC   O12 5007   5.874   4.221   6.358  0.1561  0.0156  0.2165
   63SAPC   O11 5008   5.872   4.015   6.230  0.3114  0.0158 -0.2120
   63SAPC    C1 5009   5.886   4.084   6.108 -0.1659  0.1966 -0.0392
   63SAPC    HA 5010   5.944   4.178   6.110 -1.1080  0.8740 -2.0847
   63SAPC    HB 5011   5.939   4.011   6.043  0.8095 -2.6953  3.6681
   63SAPC    C2 5012   5.747   4.109   6.039 -0.6187  0.3393 -0.4712
   63SAPC    HS 5013   5.701   4.181   6.110  0.7840 -0.2224  1.0528
   63SAPC   O21 5014   5.680   3.984   6.044 -0.3796  0.2504 -0.3470
   63SAPC   C21 5015   5.546   3.995   6.057 -0.3201  0.5798 -0.1251
   63SAPC   O22 5016   5.485   4.099   6.038 -0.6427 -0.2350  0.3214
   63SAPC   C22 5017   5.487   3.859   6.088  0.3061  0.2138  0.3827
   63SAPC   H2R 5018   5.564   3.786   6.058  0.3569  0.1821  0.5901
   63SAPC   H2S 5019   5.490   3.854   6.199 -0.7080  2.0186  0.5376
   63SAPC    C3 5020   5.766   4.166   5.892  0.3320  1.2486  0.1730
   63SAPC    HX 5021   5.817   4.097   5.820  0.2742  1.3732  0.0129
   63SAPC    HY 5022   5.835   4.251   5.910  2.8661 -0.3086 -1.4452
   63SAPC   O31 5023   5.639   4.220   5.835  0.0831  1.1093 -0.2325
   63SAPC   C31 5024   5.592   4.159   5.728 -0.2458 -0.1088 -0.1316
   63SAPC   O32 5025   5.643   4.059   5.678  0.7787  0.3990  0.7514
   63SAPC   C32 5026   5.468   4.236   5.681 -0.4899 -0.2730  0.3977
   63SAPC   H2X 5027   5.498   4.335   5.642 -0.2426 -0.0639  1.1002
   63SAPC   H2Y 5028   5.411   4.245   5.776  0.9378 -1.9830  1.4776
   63SAPC   C23 5029   5.353   3.811   6.027 -0.1803 -1.1062  1.1794
   63SAPC   H3R 5030   5.298   3.895   5.979 -1.2418 -2.3533  0.1347
   63SAPC   H3S 5031   5.287   3.773   6.108 -0.1940 -0.2410  1.5824
   63SAPC   C24 5032   5.378   3.687   5.927  0.3129  0.3553 -0.0729
   63SAPC   H4R 5033   5.273   3.656   5.911  0.1207  1.7256 -1.7534
   63SAPC   H4S 5034   5.437   3.613   5.986  0.7647  0.1541 -0.7547
   63SAPC   C25 5035   5.447   3.730   5.803 -0.3277  0.1475 -0.1522
   63SAPC   H5R 5036   5.528   3.802   5.819 -0.9151  1.3849 -2.2429
   63SAPC   C26 5037   5.402   3.712   5.675  0.0319  0.6647 -0.3237
   63SAPC   H6R 5038   5.460   3.761   5.596  0.4844  0.6592 -0.0012
   63SAPC   C27 5039   5.291   3.624   5.634  0.5303 -0.5632  0.3168
   63SAPC   H7R 5040   5.198   3.676   5.604 -0.1358 -2.0833 -0.3776
   63SAPC   H7S 5041   5.255   3.561   5.718  1.0720 -1.1052  0.1497
   63SAPC   C28 5042   5.346   3.536   5.528  0.1172 -0.7278  0.5792
   63SAPC   H8R 5043   5.449   3.505   5.547 -0.3339 -1.9560  1.1083
   63SAPC   C29 5044   5.286   3.533   5.402  0.2326 -0.8661 -0.5918
   63SAPC   H9R 5045   5.334   3.465   5.330  3.2345 -1.4366  1.7389
   63SAPC  C210 5046   5.156   3.594   5.357 -0.2165  0.7401 -0.0420
   63SAPC  H10R 5047   5.129   3.675   5.427 -0.8256 -1.8796  3.0213
   63SAPC  H10S 5048   5.088   3.511   5.388 -1.3816  2.0965  1.1811
   63SAPC  C211 5049   5.140   3.636   5.209  0.1761  0.4019 -0.0602
   63SAPC  H11R 5050   5.176   3.737   5.185  3.8596 -0.8078 -0.2442
   63SAPC  C212 5051   5.095   3.551   5.111  0.0714  0.1586 -0.0313
   63SAPC  H12R 5052   5.080   3.588   5.009  0.2249 -1.8471 -0.8175
   63SAPC  C213 5053   5.055   3.405   5.129  0.2593  0.2608  0.1287
   63SAPC  H13R 5054   4.945   3.411   5.122  0.3148  0.8472 -0.2544
   63SAPC  H13S 5055   5.070   3.359   5.229 -3.3070 -1.5497 -0.0147
   63SAPC  C214 5056   5.104   3.302   5.023  1.0371 -0.8897  0.7175
   63SAPC  H14R 5057   5.197   3.257   5.061  0.5449 -2.5949  0.0224
   63SAPC  C215 5058   5.054   3.248   4.912  0.9892 -0.2598  0.0032
   63SAPC  H15R 5059   5.115   3.180   4.851  0.0410 -1.3999  0.2790
   63SAPC  C216 5060   4.923   3.305   4.849  0.1102  0.6327  0.5001
   63SAPC  H16R 5061   4.945   3.376   4.767 -0.0044  0.7606  0.5782
   63SAPC  H16S 5062   4.877   3.369   4.928  0.6263  0.6953  0.7519
   63SAPC  C217 5063   4.834   3.187   4.805  0.3887 -1.1002 -0.2164
   63SAPC  H17R 5064   4.733   3.224   4.780 -1.3300 -3.5354  2.4373
   63SAPC  H17S 5065   4.824   3.112   4.887  1.1615  0.3009  1.2135
   63SAPC  C218 5066   4.878   3.114   4.681 -0.3070 -0.0724 -0.1359
   63SAPC  H18R 5067   4.968   3.050   4.696 -0.2305 -0.6109 -2.5408
   63SAPC  H18S 5068   4.894   3.188   4.600  1.1252  0.8702  0.9400
   63SAPC  C219 5069   4.770   3.023   4.621  0.4505  0.1813 -0.8023
   63SAPC  H19R 5070   4.683   3.089   4.600 -0.2076 -0.7628 -1.1428
   63SAPC  H19S 5071   4.741   2.944   4.694  1.7099  0.3903 -0.0508
   63SAPC  C220 5072   4.813   2.948   4.491 -0.5237  0.3982  0.4933
   63SAPC  H20R 5073   4.899   2.883   4.519 -2.2837 -3.1629 -1.6358
   63SAPC  H20S 5074   4.846   3.013   4.407 -0.5731 -2.4927 -1.9186
   63SAPC  H20T 5075   4.728   2.885   4.456 -0.7507 -0.2160  2.0921
   63SAPC   C33 5076   5.395   4.153   5.574 -0.3736  0.0608 -0.0156
   63SAPC   H3X 5077   5.292   4.184   5.547  0.1281  1.6458 -0.2172
   63SAPC   H3Y 5078   5.394   4.046   5.603 -2.8983  0.4460  1.6073
   63SAPC   C34 5079   5.468   4.166   5.435 -0.0508 -0.2162 -0.3053
   63SAPC   H4X 5080   5.572   4.135   5.462  0.4005  2.1975  1.0323
   63SAPC   H4Y 5081   5.462   4.270   5.398  1.1058 -1.0090 -2.9746
   63SAPC   C35 5082   5.404   4.078   5.334  0.5087  0.3166 -0.0056
   63SAPC   H5X 5083   5.299   4.115   5.329 -0.2022 -1.5579 -0.1465
   63SAPC   H5Y 5084   5.393   3.969   5.355  1.3979 -0.4487 -2.9102
   63SAPC   C36 5085   5.458   4.094   5.195  0.2924 -0.0462  0.5737
   63SAPC   H6X 5086   5.569   4.085   5.203  0.3129  0.6734  1.1797
   63SAPC   H6Y 5087   5.430   4.186   5.140 -0.0605  0.3436  1.3962
   63SAPC   C37 5088   5.430   3.974   5.098 -0.7677 -0.0168  0.3388
   63SAPC   H7X 5089   5.455   3.877   5.145 -1.3889 -0.9776 -1.2565
   63SAPC   H7Y 5090   5.502   3.984   5.013 -2.2824 -0.5224 -1.0573
   63SAPC   C38 5091   5.289   3.956   5.039  0.4328 -0.0515  0.0026
   63SAPC   H8X 5092   5.250   4.052   4.999 -0.3239 -0.7581 -0.9935
   63SAPC   H8Y 5093   5.224   3.920   5.122 -1.5150  1.0284 -1.0080
   63SAPC   C39 5094   5.298   3.846   4.934 -0.0460  0.3737 -0.5938
   63SAPC   H9X 5095   5.201   3.792   4.935 -0.7867  1.6353  1.4380
   63SAPC   H9Y 5096   5.387   3.785   4.959 -0.5587 -0.4670 -0.7588
   63SAPC  C310 5097   5.328   3.894   4.792  0.1366 -0.0112 -0.3372
   63SAPC  H10X 5098   5.434   3.926   4.785  0.3607 -0.7118 -0.2452
   63SAPC  H10Y 5099   5.268   3.985   4.772  2.2659  1.6682  0.5350
   63SAPC  C311 5100   5.298   3.795   4.676  0.7517  0.2896  0.2172
   63SAPC  H11X 5101   5.189   3.772   4.682 -0.0818  1.7787 -4.6375
   63SAPC  H11Y 5102   5.355   3.703   4.702  0.2947 -0.1154 -0.1746
   63SAPC  C312 5103   5.328   3.851   4.534 -0.0205 -0.9837  0.0195
   63SAPC  H12X 5104   5.256   3.931   4.505 -0.0895 -0.6654  1.0318
   63SAPC  H12Y 5105   5.305   3.763   4.471 -0.3492 -1.3631  0.6616
   63SAPC  C313 5106   5.477   3.891   4.506  0.4098 -0.0624 -0.0796
   63SAPC  H13X 5107   5.541   3.804   4.534  0.1040 -0.6214 -1.0393
   63SAPC  H13Y 5108   5.502   3.978   4.570 -2.2818 -1.1237  2.6338
   63SAPC  C314 5109   5.504   3.922   4.355 -0.0211 -0.1455  0.0604
   63SAPC  H14X 5110   5.432   4.002   4.325 -1.4027 -0.8177  1.4418
   63SAPC  H14Y 5111   5.475   3.832   4.297 -1.2472  0.4910 -0.3631
   63SAPC  C315 5112   5.647   3.968   4.311  0.0883 -0.1602 -0.2655
   63SAPC  H15X 5113   5.714   3.886   4.345 -1.7181 -1.7866 -0.4523
   63SAPC  H15Y 5114   5.682   4.061   4.361 -1.4334 -0.7264  1.9450
   63SAPC  C316 5115   5.661   3.993   4.163 -0.2013  0.1067 -0.3878
   63SAPC  H16X 5116   5.604   4.084   4.135 -0.1211  0.0339 -0.7961
   63SAPC  H16Y 5117   5.626   3.898   4.115  0.0194 -1.1591  1.7989
   63SAPC  C317 5118   5.804   4.012   4.115 -0.0055  0.0956  0.3462
   63SAPC  H17X 5119   5.855   4.094   4.171  1.4964  1.4457 -2.7710
   63SAPC  H17Y 5120   5.807   4.057   4.014  1.0421  0.6934  0.6199
   63SAPC  C318 5121   5.885   3.882   4.097  0.2224 -0.0168  0.0991
   63SAPC  H18X 5122   5.845   3.802   4.031 -0.1005 -2.3699  2.9117
   63SAPC  H18Y 5123   5.868   3.829   4.194 -0.6561 -0.9743 -0.5596
   63SAPC  H18Z 5124   5.990   3.902   4.066  0.3109  0.9274  0.9656
   64SAPC     N 5125   4.441   5.182   6.662 -0.0517 -0.4277  0.0829
   64SAPC   C12 5126   4.433   5.334   6.632 -0.4445 -0.0970 -0.1571
   64SAPC  H12A 5127   4.440   5.399   6.718  2.8396 -1.2628  0.6019
   64SAPC  H12B 5128   4.331   5.350   6.599 -1.0566 -2.1440  0.5732
   64SAPC   C13 5129   4.380   5.108   6.539 -0.2752 -0.7279  0.6346
   64SAPC  H13A 5130   4.424   5.133   6.444 -2.2435 -0.4326 -0.2599
   64SAPC  H13B 5131   4.386   5.003   6.563  0.2260 -0.2221  3.0545
   64SAPC  H13C 5132   4.276   5.138   6.531 -0.0733 -0.6132 -2.7022
   64SAPC   C14 5133   4.573   5.132   6.690 -0.4521 -0.4142 -0.2414
   64SAPC  H14A 5134   4.585   5.025   6.698  1.7877 -0.4603 -2.6584
   64SAPC  H14B 5135   4.641   5.158   6.610 -0.0500 -1.8482 -0.3895
   64SAPC  H14C 5136   4.611   5.170   6.784 -0.9301  0.2531 -0.3093
   64SAPC   C15 5137   4.352   5.154   6.784 -0.2284 -0.6749  0.6144
   64SAPC  H15A 5138   4.247   5.173   6.763 -0.6897 -1.7378  1.8009
   64SAPC  H15B 5139   4.360   5.052   6.817 -0.8438 -1.1374 -0.6023
   64SAPC  H15C 5140   4.386   5.216   6.866 -0.3574 -0.7669  0.7381
   64SAPC   C11 5141   4.530   5.392   6.532 -0.4260  0.3557 -0.1747
   64SAPC  H11A 5142   4.629   5.407   6.580 -0.9472 -0.0417  1.0655
   64SAPC  H11B 5143   4.485   5.493   6.519 -1.6195 -0.2412 -0.8426
   64SAPC     P 5144   4.454   5.340   6.283 -0.4067  0.6193  0.0202
   64SAPC   O13 5145   4.443   5.208   6.220 -0.7748 -0.5833 -0.1847
   64SAPC   O14 5146   4.327   5.399   6.325 -0.1313  0.6065 -0.1668
   64SAPC   O12 5147   4.547   5.326   6.404 -0.4521 -0.5532 -0.4655
   64SAPC   O11 5148   4.536   5.441   6.194  0.2657  0.4248 -0.1542
   64SAPC    C1 5149   4.677   5.447   6.183  0.5513  0.4922  0.9099
   64SAPC    HA 5150   4.725   5.348   6.197 -0.0058  0.2252  0.9457
   64SAPC    HB 5151   4.708   5.482   6.082 -0.8976 -1.7774 -0.4084
   64SAPC    C2 5152   4.739   5.540   6.292 -0.0991 -0.6242 -0.1045
   64SAPC    HS 5153   4.700   5.530   6.396 -0.6218 -0.3778 -0.2698
   64SAPC   O21 5154   4.728   5.674   6.247  0.1316 -0.3842  0.7380
   64SAPC   C21 5155   4.640   5.749   6.308 -0.1830 -0.6561  0.1502
   64SAPC   O22 5156   4.581   5.722   6.413  0.1093  0.2523  0.1075
   64SAPC   C22 5157   4.629   5.880   6.230 -0.2033  0.4645  0.0212
   64SAPC   H2R 5158   4.725   5.931   6.255  0.1431 -0.5425  0.8337
   64SAPC   H2S 5159   4.625   5.862   6.121 -0.2861 -0.1652  0.1249
   64SAPC    C3 5160   4.896   5.518   6.307 -0.0762  0.4207 -0.0369
   64SAPC    HX 5161   4.894   5.408   6.321 -1.4170  0.2594 -1.2708
   64SAPC    HY 5162   4.928   5.577   6.396  1.3730 -1.7029  0.9276
   64SAPC   O31 5163   4.975   5.560   6.187  0.0033  0.3576  0.1684
   64SAPC   C31 5164   5.096   5.506   6.190  0.5634  0.0984 -0.2083
   64SAPC   O32 5165   5.148   5.460   6.290  0.3428 -0.1550  0.2543
   64SAPC   C32 5166   5.158   5.514   6.054  0.5214 -0.5084 -0.1729
   64SAPC   H2X 5167   5.196   5.410   6.043 -0.7309 -1.1364  1.0471
   64SAPC   H2Y 5168   5.242   5.585   6.046  1.8124 -1.9696 -0.1002
   64SAPC   C23 5169   4.514   5.973   6.263  0.0907  0.1613  0.2114
   64SAPC   H3R 5170   4.532   6.020   6.362 -1.4102 -1.0939  1.1166
   64SAPC   H3S 5171   4.426   5.905   6.267  1.6633 -1.9619  0.6639
   64SAPC   C24 5172   4.504   6.076   6.151 -0.1665 -0.0966  0.7981
   64SAPC   H4R 5173   4.488   6.027   6.053 -0.4734  1.0112  0.2765
   64SAPC   H4S 5174   4.598   6.132   6.134 -0.7124  1.6910  3.0762
   64SAPC   C25 5175   4.391   6.177   6.172 -0.2023 -0.6181  0.5115
   64SAPC   H5R 5176   4.419   6.245   6.254  1.1230 -0.7149  0.1537
   64SAPC   C26 5177   4.275   6.205   6.110 -0.3108 -0.1682  0.0999
   64SAPC   H6R 5178   4.209   6.282   6.155 -0.7765  0.0164 -0.8762
   64SAPC   C27 5179   4.233   6.135   5.983  0.2698  0.1982  0.4239
   64SAPC   H7R 5180   4.130   6.096   6.001  0.6865 -0.6554  1.0182
   64SAPC   H7S 5181   4.299   6.049   5.959  1.4534  1.3304 -0.5112
   64SAPC   C28 5182   4.237   6.241   5.873 -0.2011  0.1879 -0.3909
   64SAPC   H8R 5183   4.230   6.348   5.897 -2.6198  0.7937 -3.1264
   64SAPC   C29 5184   4.255   6.212   5.749  0.2529 -0.2240 -0.1827
   64SAPC   H9R 5185   4.250   6.302   5.686  0.6647 -0.5297 -0.6599
   64SAPC  C210 5186   4.277   6.077   5.687  0.6192  0.3901 -0.1619
   64SAPC  H10R 5187   4.232   6.074   5.586 -1.5651  2.0513  0.6805
   64SAPC  H10S 5188   4.218   6.009   5.753  1.1406  1.0949  1.0775
   64SAPC  C211 5189   4.422   6.037   5.706  1.4601  0.5740 -0.2162
   64SAPC  H11R 5190   4.446   5.976   5.794  2.2430  0.9072 -0.1884
   64SAPC  C212 5191   4.506   6.047   5.602  0.0566 -0.0445 -0.6005
   64SAPC  H12R 5192   4.608   6.007   5.613 -0.4958 -0.7700  3.8913
   64SAPC  C213 5193   4.484   6.119   5.473  0.5329 -0.6075  0.2300
   64SAPC  H13R 5194   4.518   6.223   5.489 -0.8484 -0.1168  0.1260
   64SAPC  H13S 5195   4.379   6.131   5.438  0.9817 -1.6313 -1.6035
   64SAPC  C214 5196   4.586   6.063   5.374  0.4159  0.8254 -0.1268
   64SAPC  H14R 5197   4.691   6.059   5.408  0.2166 -2.1903  0.4466
   64SAPC  C215 5198   4.566   6.018   5.249  0.2725  0.6850  0.4434
   64SAPC  H15R 5199   4.652   5.978   5.194 -0.2450 -0.2746  0.3090
   64SAPC  C216 5200   4.441   6.000   5.172  0.4923 -0.0460 -0.0642
   64SAPC  H16R 5201   4.355   6.007   5.242  0.2030 -1.4780 -0.2443
   64SAPC  H16S 5202   4.433   5.895   5.137 -1.2680  0.2680 -0.7314
   64SAPC  C217 5203   4.406   6.085   5.047 -0.1345  0.4849 -1.2087
   64SAPC  H17R 5204   4.392   6.192   5.076 -1.2027 -0.7563  3.7410
   64SAPC  H17S 5205   4.311   6.056   4.996 -0.7184  1.5016 -0.7397
   64SAPC  C218 5206   4.520   6.071   4.941 -0.2235 -0.5613 -0.5104
   64SAPC  H18R 5207   4.532   5.969   4.901 -0.5524 -0.2017 -1.5475
   64SAPC  H18S 5208   4.615   6.092   4.995 -1.7031  0.0463  2.0415
   64SAPC  C219 5209   4.503   6.174   4.827 -0.8056  0.3386 -0.0129
   64SAPC  H19R 5210   4.510   6.270   4.882  0.6264  0.1963  0.0903
   64SAPC  H19S 5211   4.409   6.163   4.770 -0.1312 -0.1761 -1.0635
   64SAPC  C220 5212   4.620   6.158   4.722 -0.3130 -0.3321 -0.6574
   64SAPC  H20R 5213   4.703   6.211   4.772  0.3033 -0.9384 -1.0232
   64SAPC  H20S 5214   4.603   6.216   4.629 -0.0037  1.5677  0.4186
   64SAPC  H20T 5215   4.642   6.050   4.708 -3.0425 -1.0227 -0.3295
   64SAPC   C33 5216   5.061   5.541   5.939 -0.4678 -0.0135 -0.0686
   64SAPC   H3X 5217   5.052   5.651   5.926  0.8008 -0.2321 -4.7491
   64SAPC   H3Y 5218   4.961   5.502   5.968  0.1256 -0.8786  0.8636
   64SAPC   C34 5219   5.102   5.485   5.806 -0.4614 -0.9084  0.1386
   64SAPC   H4X 5220   5.022   5.485   5.729  0.9054  1.5442 -1.4214
   64SAPC   H4Y 5221   5.142   5.382   5.819 -1.7568 -1.3502  0.7653
   64SAPC   C35 5222   5.227   5.556   5.741 -0.1985  0.2342  0.3731
   64SAPC   H5X 5223   5.314   5.566   5.809  0.7588  0.8208 -0.9099
   64SAPC   H5Y 5224   5.213   5.665   5.721 -1.5283  0.0103 -0.0428
   64SAPC   C36 5225   5.262   5.483   5.611  0.0606  0.3888  0.3621
   64SAPC   H6X 5226   5.175   5.493   5.543  0.6377  1.3935 -0.2466
   64SAPC   H6Y 5227   5.289   5.375   5.620 -0.9127  0.2735  2.6051
   64SAPC   C37 5228   5.380   5.560   5.542  0.6911 -0.2208 -0.2090
   64SAPC   H7X 5229   5.470   5.559   5.608  1.5000 -0.4981 -1.2853
   64SAPC   H7Y 5230   5.363   5.669   5.531  0.1118 -0.4331 -1.6468
   64SAPC   C38 5231   5.413   5.510   5.401 -1.2593  0.5490 -0.1685
   64SAPC   H8X 5232   5.322   5.520   5.339 -0.2767 -2.9501 -2.4439
   64SAPC   H8Y 5233   5.434   5.401   5.412  0.3894  0.9326  0.9402
   64SAPC   C39 5234   5.535   5.581   5.339 -0.4910  0.0634 -0.3530
   64SAPC   H9X 5235   5.618   5.595   5.411 -0.9165  1.6998 -0.1475
   64SAPC   H9Y 5236   5.514   5.687   5.316  0.5045  0.1636 -0.8691
   64SAPC  C310 5237   5.591   5.517   5.212 -0.0167  0.0484 -0.6039
   64SAPC  H10X 5238   5.508   5.496   5.141  0.4662 -1.1133 -0.8482
   64SAPC  H10Y 5239   5.638   5.420   5.236  0.4906  0.5865  0.6726
   64SAPC  C311 5240   5.703   5.603   5.149  0.3582 -0.5386  0.0771
   64SAPC  H11X 5241   5.791   5.619   5.214  0.8326  0.6828 -0.8178
   64SAPC  H11Y 5242   5.669   5.706   5.125  2.2219 -0.4111 -2.4970
   64SAPC  C312 5243   5.761   5.553   5.008 -0.4775 -0.5891 -0.2882
   64SAPC  H12X 5244   5.806   5.452   5.022 -0.3486 -0.3579  1.1408
   64SAPC  H12Y 5245   5.848   5.619   4.989 -1.6465  1.0564 -0.1596
   64SAPC  C313 5246   5.661   5.544   4.894  0.2577 -0.3098 -0.2979
   64SAPC  H13X 5247   5.609   5.641   4.898  1.0180  0.1391 -0.9145
   64SAPC  H13Y 5248   5.597   5.457   4.920 -0.1495  0.4756  1.5139
   64SAPC  C314 5249   5.732   5.533   4.762 -0.0024  0.0857  0.2681
   64SAPC  H14X 5250   5.670   5.507   4.674 -0.3385  1.2584  0.1408
   64SAPC  H14Y 5251   5.817   5.461   4.765  0.5063  0.5463 -1.9607
   64SAPC  C315 5252   5.786   5.671   4.718 -0.8837  0.8917  0.4811
   64SAPC  H15X 5253   5.848   5.712   4.801 -0.0495 -1.9687  1.3573
   64SAPC  H15Y 5254   5.697   5.736   4.705  0.2514  2.1695 -1.5126
   64SAPC  C316 5255   5.852   5.672   4.579  0.5964 -1.2885 -0.2832
   64SAPC  H16X 5256   5.875   5.779   4.560 -1.4315 -1.2636 -3.2389
   64SAPC  H16Y 5257   5.773   5.651   4.504 -0.8661  0.9451  0.5249
   64SAPC  C317 5258   5.979   5.578   4.566  0.2662  0.4198 -0.0302
   64SAPC  H17X 5259   5.944   5.474   4.581  1.6212 -0.0153  0.2220
   64SAPC  H17Y 5260   6.047   5.606   4.649  1.1074 -2.2711  0.2732
   64SAPC  C318 5261   6.046   5.611   4.433 -0.6254  0.0338  0.0208
   64SAPC  H18X 5262   6.135   5.545   4.435 -1.0676 -0.6045 -0.7390
   64SAPC  H18Y 5263   6.070   5.717   4.410  0.4596 -0.3555 -0.7246
   64SAPC  H18Z 5264   5.982   5.580   4.347  1.7505 -1.9084 -1.1783
   65SAPC     N 5265   1.126   3.583   2.308  0.5494  0.1929  0.2744
   65SAPC   C12 5266   1.150   3.731   2.287  0.6906 -0.6528 -0.1457
   65SAPC  H12A 5267   1.206   3.768   2.372 -1.1829 -0.5847  1.1189
   65SAPC  H12B 5268   1.057   3.787   2.280  1.7957  1.2635 -0.3310
   65SAPC   C13 5269   1.256   3.513   2.331 -0.9026 -0.0697  0.6468
   65SAPC  H13A 5270   1.333   3.550   2.265 -1.8961  0.8620 -0.0245
   65SAPC  H13B 5271   1.287   3.519   2.434  0.9177 -2.0811  0.2912
   65SAPC  H13C 5272   1.251   3.408   2.306 -2.1618  0.6793 -2.8000
   65SAPC   C14 5273   1.045   3.546   2.429  0.1169  0.4495 -0.0172
   65SAPC  H14A 5274   1.026   3.440   2.436 -1.1518  0.7318  1.1545
   65SAPC  H14B 5275   1.083   3.578   2.524  3.0526 -1.5283 -0.3854
   65SAPC  H14C 5276   0.943   3.581   2.434 -0.6046 -1.7556  2.6367
   65SAPC   C15 5277   1.057   3.521   2.191 -0.3202 -0.2272 -0.6364
   65SAPC  H15A 5278   1.033   3.418   2.209  0.2582  0.0964  2.5869
   65SAPC  H15B 5279   0.962   3.564   2.163 -0.8737 -1.4070 -0.6391
   65SAPC  H15C 5280   1.115   3.526   2.100 -2.1252 -0.3599 -1.8466
   65SAPC   C11 5281   1.231   3.765   2.158 -0.4691  0.8022 -0.8713
   65SAPC  H11A 5282   1.220   3.875   2.146 -0.9400  0.7987 -0.5088
   65SAPC  H11B 5283   1.191   3.714   2.068  1.9506 -1.2334 -0.8996
   65SAPC     P 5284   1.475   3.779   2.262 -0.6482  0.5012  0.3762
   65SAPC   O13 5285   1.542   3.677   2.341  0.0838  0.2132  0.2136
   65SAPC   O14 5286   1.565   3.864   2.178 -0.7544  0.5783 -0.3153
   65SAPC   O12 5287   1.369   3.728   2.162  0.4069 -0.0903  0.0845
   65SAPC   O11 5288   1.392   3.871   2.354  0.2264 -0.4332 -0.1354
   65SAPC    C1 5289   1.413   3.879   2.498 -0.2346  0.9263 -0.6771
   65SAPC    HA 5290   1.404   3.782   2.553 -1.2547  0.0485 -2.3241
   65SAPC    HB 5291   1.521   3.899   2.513  0.0109 -1.6477  2.0226
   65SAPC    C2 5292   1.336   3.995   2.565  0.0471 -0.2741 -0.0807
   65SAPC    HS 5293   1.374   4.022   2.666  1.9798  0.8406 -1.0575
   65SAPC   O21 5294   1.205   3.942   2.584 -0.3440 -0.3100  0.2333
   65SAPC   C21 5295   1.121   4.019   2.656  0.7501  0.5503  0.2973
   65SAPC   O22 5296   1.149   4.116   2.724 -0.1088  0.1498  0.1060
   65SAPC   C22 5297   0.986   3.956   2.641  0.1532 -0.0035 -0.0361
   65SAPC   H2R 5298   0.948   3.998   2.545  0.9328  0.0571 -0.3201
   65SAPC   H2S 5299   1.009   3.848   2.649 -0.9241 -0.1025  3.5714
   65SAPC    C3 5300   1.342   4.115   2.460  0.5307 -0.5201 -0.0555
   65SAPC    HX 5301   1.287   4.078   2.371 -1.4011  1.4208  0.2324
   65SAPC    HY 5302   1.447   4.127   2.426  0.3878 -1.1426 -0.7360
   65SAPC   O31 5303   1.294   4.250   2.509  0.0889 -0.3771  0.4545
   65SAPC   C31 5304   1.389   4.312   2.582 -0.1610  0.1274 -0.8422
   65SAPC   O32 5305   1.503   4.273   2.609  0.7910  0.0776 -0.0421
   65SAPC   C32 5306   1.330   4.445   2.620 -0.2298 -0.4346  0.5250
   65SAPC   H2X 5307   1.233   4.415   2.667  0.1595 -0.2894  1.4467
   65SAPC   H2Y 5308   1.325   4.509   2.530  3.4562  1.7925  1.6803
   65SAPC   C23 5309   0.885   3.996   2.750  0.5973  0.6978 -0.1516
   65SAPC   H3R 5310   0.929   3.979   2.851  2.4939  0.3998 -0.9970
   65SAPC   H3S 5311   0.806   3.919   2.739  0.8026  0.5370 -0.5196
   65SAPC   C24 5312   0.807   4.126   2.728 -0.0395  0.1919 -0.0582
   65SAPC   H4R 5313   0.747   4.128   2.635 -0.5461  3.0772  0.2310
   65SAPC   H4S 5314   0.885   4.205   2.724  3.2367 -2.7977  0.1800
   65SAPC   C25 5315   0.713   4.141   2.847 -0.6352  0.4048 -0.4168
   65SAPC   H5R 5316   0.628   4.073   2.837 -1.5682  1.6039 -0.8551
   65SAPC   C26 5317   0.728   4.217   2.959 -0.7491  0.0319  0.4056
   65SAPC   H6R 5318   0.661   4.208   3.046  1.4284 -0.3213  2.1508
   65SAPC   C27 5319   0.854   4.294   2.977 -0.5850 -0.0800  0.2971
   65SAPC   H7R 5320   0.930   4.273   2.898 -1.4632 -0.0251 -0.5747
   65SAPC   H7S 5321   0.915   4.251   3.060  1.4505 -0.5277 -1.3393
   65SAPC   C28 5322   0.832   4.443   3.000 -0.3651  1.2377 -0.0499
   65SAPC   H8R 5323   0.838   4.506   2.910  0.3665  1.9366  0.4695
   65SAPC   C29 5324   0.822   4.509   3.118  0.0466  0.9670  0.3400
   65SAPC   H9R 5325   0.795   4.616   3.123 -0.2649  0.8449  2.1199
   65SAPC  C210 5326   0.852   4.453   3.248 -0.1827  0.8112 -0.8310
   65SAPC  H10R 5327   0.939   4.505   3.292  0.6546 -0.7696 -0.5385
   65SAPC  H10S 5328   0.888   4.348   3.255 -0.7812  0.5057 -1.9096
   65SAPC  C211 5329   0.733   4.461   3.344  0.0822  0.0883 -0.2299
   65SAPC  H11R 5330   0.637   4.464   3.292  1.4973  1.5132 -2.9411
   65SAPC  C212 5331   0.750   4.489   3.477  0.1609 -0.8478  0.5682
   65SAPC  H12R 5332   0.652   4.498   3.526 -0.8284  2.1869 -1.6244
   65SAPC  C213 5333   0.875   4.500   3.559  0.0355  0.6593  0.8458
   65SAPC  H13R 5334   0.859   4.530   3.665  3.6085  2.2517  1.0921
   65SAPC  H13S 5335   0.931   4.586   3.517  0.0286 -0.4019 -1.4695
   65SAPC  C214 5336   0.950   4.373   3.566  0.3774  0.1059  0.3060
   65SAPC  H14R 5337   0.979   4.330   3.469 -0.1120 -0.8697  0.5782
   65SAPC  C215 5338   1.004   4.327   3.677  0.4063  0.2635  0.5950
   65SAPC  H15R 5339   1.068   4.241   3.657  2.0420  0.5982  3.8082
   65SAPC  C216 5340   0.983   4.380   3.817 -0.9137 -0.3896 -0.0386
   65SAPC  H16R 5341   0.875   4.396   3.837 -0.7677  0.8591 -0.2218
   65SAPC  H16S 5342   1.043   4.473   3.821 -1.0513 -0.2579 -0.8532
   65SAPC  C217 5343   1.046   4.290   3.923 -0.6061 -0.6950 -0.6264
   65SAPC  H17R 5344   1.157   4.281   3.912 -0.2065  3.6522 -2.1271
   65SAPC  H17S 5345   1.006   4.187   3.923 -0.2140 -0.8705 -1.8338
   65SAPC  C218 5346   1.031   4.367   4.049  0.2743  0.9627  0.7163
   65SAPC  H18R 5347   0.926   4.405   4.058 -1.2489 -2.0536 -2.0648
   65SAPC  H18S 5348   1.095   4.458   4.051  1.9324 -0.1433 -0.4508
   65SAPC  C219 5349   1.052   4.279   4.173  0.9869 -0.6006 -0.8145
   65SAPC  H19R 5350   0.970   4.205   4.181 -0.6768  1.3507  1.8895
   65SAPC  H19S 5351   1.044   4.346   4.261  2.2169 -0.5720 -0.7092
   65SAPC  C220 5352   1.196   4.228   4.182 -0.0028 -0.3035 -0.2442
   65SAPC  H20R 5353   1.273   4.305   4.200 -0.6793  0.1215  0.9071
   65SAPC  H20S 5354   1.217   4.178   4.085 -0.2610 -0.1274 -0.3927
   65SAPC  H20T 5355   1.196   4.148   4.260 -1.3791  0.3930  0.5141
   65SAPC   C33 5356   1.409   4.527   2.718 -0.9645 -0.0265 -0.7943
   65SAPC   H3X 5357   1.389   4.636   2.722 -1.9802 -0.1816  3.2194
   65SAPC   H3Y 5358   1.520   4.517   2.708 -0.9180 -1.2485  0.5855
   65SAPC   C34 5359   1.376   4.489   2.866  0.1620  0.0363 -0.1667
   65SAPC   H4X 5360   1.422   4.391   2.889  0.9934  0.4035 -0.2013
   65SAPC   H4Y 5361   1.265   4.489   2.870 -0.0107 -2.5646 -2.2226
   65SAPC   C35 5362   1.437   4.605   2.954 -0.4240  1.0151 -0.0050
   65SAPC   H5X 5363   1.387   4.697   2.916  2.1885  2.6283  0.2001
   65SAPC   H5Y 5364   1.546   4.612   2.933 -0.7617 -0.2394 -2.5110
   65SAPC   C36 5365   1.397   4.584   3.102  0.2469 -0.2968 -0.6421
   65SAPC   H6X 5366   1.423   4.480   3.130 -1.5338  0.1800  3.4959
   65SAPC   H6Y 5367   1.287   4.586   3.121  0.6340  1.7974  2.0479
   65SAPC   C37 5368   1.458   4.682   3.196 -0.9269  0.0810  0.6053
   65SAPC   H7X 5369   1.411   4.782   3.189 -0.6051  0.1934  0.0155
   65SAPC   H7Y 5370   1.565   4.702   3.174 -0.8652 -0.4708  0.3807
   65SAPC   C38 5371   1.459   4.621   3.338  0.3026  0.0627  0.3337
   65SAPC   H8X 5372   1.518   4.527   3.332  0.1306 -0.0398  0.2471
   65SAPC   H8Y 5373   1.357   4.587   3.365  1.0214 -1.9686  0.6875
   65SAPC   C39 5374   1.520   4.700   3.458 -0.0889 -0.1381 -0.0096
   65SAPC   H9X 5375   1.467   4.793   3.487  1.1909 -0.2533  3.1095
   65SAPC   H9Y 5376   1.616   4.738   3.416 -0.6933 -0.5673 -1.8774
   65SAPC  C310 5377   1.531   4.609   3.578  0.2526  0.7755  0.1252
   65SAPC  H10X 5378   1.592   4.518   3.564 -2.7327 -1.3565 -0.0630
   65SAPC  H10Y 5379   1.429   4.578   3.612  1.0567  0.1778  2.1475
   65SAPC  C311 5380   1.599   4.686   3.694  0.4885  0.3128  0.1076
   65SAPC  H11X 5381   1.529   4.766   3.727  1.4794  1.1867  0.1281
   65SAPC  H11Y 5382   1.685   4.749   3.663 -0.8162  1.7010 -0.8568
   65SAPC  C312 5383   1.648   4.596   3.815  0.0318  0.7500  0.6347
   65SAPC  H12X 5384   1.741   4.647   3.845 -1.3027  2.3632  2.2534
   65SAPC  H12Y 5385   1.673   4.500   3.764  0.6033  1.4349 -0.4065
   65SAPC  C313 5386   1.564   4.561   3.940  0.0125 -0.5865  0.5754
   65SAPC  H13X 5387   1.460   4.535   3.910  0.1053 -0.6482  0.3009
   65SAPC  H13Y 5388   1.564   4.653   4.001  1.4117 -0.1180 -0.0887
   65SAPC  C314 5389   1.623   4.451   4.027 -0.6490  0.1014  0.5615
   65SAPC  H14X 5390   1.724   4.479   4.063 -1.8539  4.6261  1.0195
   65SAPC  H14Y 5391   1.642   4.359   3.969  3.1257  1.2789 -0.2896
   65SAPC  C315 5392   1.545   4.419   4.154  0.2572 -0.3309 -1.0126
   65SAPC  H15X 5393   1.437   4.407   4.128 -0.7641  1.8195  1.6820
   65SAPC  H15Y 5394   1.541   4.512   4.216 -0.7287 -0.1478 -1.3215
   65SAPC  C316 5395   1.592   4.310   4.243 -0.6155  0.2901 -0.3921
   65SAPC  H16X 5396   1.634   4.229   4.180 -0.0871  0.7451 -0.6282
   65SAPC  H16Y 5397   1.503   4.284   4.305 -0.4094  0.7562  0.1018
   65SAPC  C317 5398   1.715   4.367   4.316  0.0722 -0.3697  0.3843
   65SAPC  H17X 5399   1.684   4.463   4.363  2.0150  0.5111  0.0037
   65SAPC  H17Y 5400   1.794   4.386   4.241  0.1341 -0.2083  0.4902
   65SAPC  C318 5401   1.769   4.277   4.430  0.6163 -0.6519  0.7205
   65SAPC  H18X 5402   1.863   4.324   4.467 -0.8330  2.3494  0.8717
   65SAPC  H18Y 5403   1.780   4.174   4.390 -0.6909 -0.0605 -1.2968
   65SAPC  H18Z 5404   1.699   4.277   4.516  0.1358 -2.4416  0.3722
   66SAPC     N 5405   0.612   5.050   2.051  0.3091  0.8048  0.2508
   66SAPC   C12 5406   0.588   4.940   2.142  0.9201 -0.1728 -0.2014
   66SAPC  H12A 5407   0.674   4.942   2.207  0.7806  0.8416 -0.0430
   66SAPC  H12B 5408   0.595   4.844   2.093  0.8294 -0.6514  0.7051
   66SAPC   C13 5409   0.501   5.047   1.953  0.4738  0.0100 -0.1116
   66SAPC  H13A 5410   0.402   5.054   1.994  0.5261 -0.7541  0.1611
   66SAPC  H13B 5411   0.505   5.138   1.895 -1.1298  0.5494  0.5844
   66SAPC  H13C 5412   0.507   4.958   1.891  0.0479  1.1093 -1.7990
   66SAPC   C14 5413   0.616   5.173   2.135 -0.1866 -0.1974  0.3951
   66SAPC  H14A 5414   0.685   5.152   2.216 -0.4443  1.1603  0.9961
   66SAPC  H14B 5415   0.658   5.260   2.086  0.0674  1.3110  3.1127
   66SAPC  H14C 5416   0.522   5.200   2.180  0.5088  0.7181  1.3372
   66SAPC   C15 5417   0.743   5.041   1.993  0.1934 -0.3206  0.5231
   66SAPC  H15A 5418   0.766   5.124   1.928  1.4274 -1.1471 -0.1257
   66SAPC  H15B 5419   0.814   5.045   2.075  0.4156  2.2715  0.2883
   66SAPC  H15C 5420   0.758   4.952   1.934 -2.6212 -1.1641  0.9071
   66SAPC   C11 5421   0.455   4.923   2.214 -0.0857  0.4487  0.4197
   66SAPC  H11A 5422   0.415   5.024   2.239  3.2417  1.9987  0.0001
   66SAPC  H11B 5423   0.459   4.866   2.309 -0.2785 -2.4499 -1.2085
   66SAPC     P 5424   0.367   4.724   2.074  0.3172 -0.1762 -0.1837
   66SAPC   O13 5425   0.236   4.667   2.084 -0.1819  0.2883 -0.2621
   66SAPC   O14 5426   0.426   4.739   1.939  0.4873  0.5744 -0.5491
   66SAPC   O12 5427   0.356   4.868   2.126 -0.2470  0.3287 -0.2520
   66SAPC   O11 5428   0.476   4.659   2.163 -0.2773  0.5132  0.5317
   66SAPC    C1 5429   0.520   4.525   2.156  0.2924 -0.2899  0.0911
   66SAPC    HA 5430   0.437   4.453   2.135 -0.1177  0.3538 -0.5567
   66SAPC    HB 5431   0.587   4.518   2.068 -0.9313  2.1158 -1.1218
   66SAPC    C2 5432   0.594   4.489   2.288  0.5245 -0.2456  0.1240
   66SAPC    HS 5433   0.632   4.385   2.283  1.6052  0.1881 -2.5861
   66SAPC   O21 5434   0.507   4.520   2.402  0.1049  0.1873  0.3513
   66SAPC   C21 5435   0.404   4.440   2.426 -0.3593 -0.5120  0.0758
   66SAPC   O22 5436   0.382   4.340   2.360  0.2394  0.3672 -0.0811
   66SAPC   C22 5437   0.314   4.483   2.542  0.9959 -0.1682  0.0107
   66SAPC   H2R 5438   0.277   4.382   2.567  0.0939 -0.0161 -0.6595
   66SAPC   H2S 5439   0.368   4.531   2.627  0.0468 -0.4908  0.8186
   66SAPC    C3 5440   0.725   4.573   2.297 -0.2142 -0.3435 -0.0092
   66SAPC    HX 5441   0.693   4.675   2.328  0.0941 -0.3179  0.2233
   66SAPC    HY 5442   0.780   4.575   2.201 -0.5934 -2.0486 -0.2857
   66SAPC   O31 5443   0.816   4.515   2.393 -0.2592 -0.5048  0.3096
   66SAPC   C31 5444   0.915   4.599   2.436 -0.5942  0.2480  0.2722
   66SAPC   O32 5445   0.929   4.711   2.397 -0.7856 -0.5794 -0.4371
   66SAPC   C32 5446   0.997   4.526   2.547 -0.4045 -0.5663  0.3270
   66SAPC   H2X 5447   1.103   4.554   2.525 -0.1080 -1.3621  0.7089
   66SAPC   H2Y 5448   0.990   4.416   2.544 -2.4787 -0.4913  0.8800
   66SAPC   C23 5449   0.200   4.569   2.490 -0.0611  0.1482  0.6556
   66SAPC   H3R 5450   0.107   4.536   2.542 -0.5879 -0.5416 -0.6701
   66SAPC   H3S 5451   0.183   4.558   2.381 -1.3286  0.6958  0.7809
   66SAPC   C24 5452   0.236   4.716   2.497  0.2972  0.1555  0.3622
   66SAPC   H4R 5453   0.333   4.730   2.446  0.4698 -1.3798  0.2387
   66SAPC   H4S 5454   0.249   4.733   2.606  1.2559  0.4744  0.2069
   66SAPC   C25 5455   0.136   4.806   2.434 -0.1999 -0.1041  0.3663
   66SAPC   H5R 5456   0.181   4.848   2.343 -0.0910  1.1214  0.9629
   66SAPC   C26 5457   0.008   4.837   2.472  0.1292  0.0238 -0.6212
   66SAPC   H6R 5458  -0.056   4.897   2.406  0.2697  0.1036 -0.6861
   66SAPC   C27 5459  -0.049   4.797   2.602  0.2563 -0.0680  0.2197
   66SAPC   H7R 5460  -0.000   4.716   2.660 -0.9060 -0.4027  0.7624
   66SAPC   H7S 5461  -0.145   4.748   2.574  0.6167 -0.0085 -1.1781
   66SAPC   C28 5462  -0.083   4.924   2.679 -0.2200 -0.0877 -0.3178
   66SAPC   H8R 5463  -0.156   4.987   2.626 -1.0654 -0.2629  0.6086
   66SAPC   C29 5464  -0.024   4.962   2.788 -0.6730 -0.4923 -0.5594
   66SAPC   H9R 5465  -0.055   5.063   2.818  0.3675 -0.8345  1.8495
   66SAPC  C210 5466   0.082   4.896   2.870 -0.2273 -0.4514  0.2527
   66SAPC  H10R 5467   0.131   4.806   2.827  1.3428 -0.4092  1.8291
   66SAPC  H10S 5468   0.036   4.857   2.964 -2.5945  0.1319 -0.5912
   66SAPC  C211 5469   0.198   4.990   2.887  0.3489 -0.1155  0.4823
   66SAPC  H11R 5470   0.257   5.008   2.796 -0.4954 -0.9874 -0.2604
   66SAPC  C212 5471   0.246   5.023   3.004 -0.3231 -0.2469  0.2502
   66SAPC  H12R 5472   0.333   5.090   3.012 -2.2819  2.4039  0.7055
   66SAPC  C213 5473   0.179   5.016   3.139  0.3863  0.4133  0.7656
   66SAPC  H13R 5474   0.074   4.982   3.129  0.7961 -0.1758 -2.3965
   66SAPC  H13S 5475   0.167   5.124   3.164  2.0811  1.5870 -2.7718
   66SAPC  C214 5476   0.266   4.942   3.237 -0.3746 -0.2201  0.4267
   66SAPC  H14R 5477   0.371   4.973   3.222 -0.4693 -0.3160 -0.5539
   66SAPC  C215 5478   0.233   4.854   3.332 -0.3008  0.6387 -1.0245
   66SAPC  H15R 5479   0.308   4.807   3.398  0.7359 -0.4051 -2.8839
   66SAPC  C216 5480   0.089   4.810   3.368 -0.1929  0.3687  1.0079
   66SAPC  H16R 5481   0.085   4.703   3.339  2.2390  0.5204 -0.1493
   66SAPC  H16S 5482   0.021   4.863   3.298  1.1564  1.4651  0.4753
   66SAPC  C217 5483   0.071   4.862   3.510  0.6473  0.4434 -1.0464
   66SAPC  H17R 5484   0.082   4.972   3.514  0.9163  0.4007 -0.4872
   66SAPC  H17S 5485   0.134   4.806   3.583 -2.1559 -2.9392 -0.9741
   66SAPC  C218 5486  -0.075   4.837   3.560 -0.4520 -0.3822  0.0709
   66SAPC  H18R 5487  -0.069   4.729   3.588 -0.7195 -0.4578 -0.1568
   66SAPC  H18S 5488  -0.145   4.846   3.474 -1.0576 -3.0416  0.2008
   66SAPC  C219 5489  -0.114   4.920   3.685  0.0431  0.3839  0.2778
   66SAPC  H19R 5490  -0.084   5.026   3.672 -0.2220  0.4020 -0.2304
   66SAPC  H19S 5491  -0.048   4.885   3.767 -1.6694 -2.9066  0.3984
   66SAPC  C220 5492  -0.256   4.897   3.721  0.4822 -0.1958 -0.3217
   66SAPC  H20R 5493  -0.327   4.918   3.638  0.9460  0.5657 -0.5335
   66SAPC  H20S 5494  -0.291   4.941   3.816  0.8534 -0.0504 -0.2494
   66SAPC  H20T 5495  -0.269   4.787   3.733 -0.9706  0.0554  0.6240
   66SAPC   C33 5496   0.967   4.576   2.691 -0.5249  0.1250 -0.2325
   66SAPC   H3X 5497   1.025   4.512   2.762  1.5768  0.3630 -1.6425
   66SAPC   H3Y 5498   0.860   4.561   2.713 -0.3653  1.6069  1.8167
   66SAPC   C34 5499   1.003   4.725   2.715  0.3957  0.0053 -0.4571
   66SAPC   H4X 5500   0.964   4.775   2.624  0.5850 -0.6667 -0.9217
   66SAPC   H4Y 5501   1.114   4.729   2.714  0.4438 -0.1198  1.5659
   66SAPC   C35 5502   0.950   4.784   2.843  0.4318 -0.0550  0.7458
   66SAPC   H5X 5503   0.857   4.733   2.877  0.4854 -1.6775 -1.3512
   66SAPC   H5Y 5504   0.949   4.895   2.832  0.9930 -0.0348  0.8722
   66SAPC   C36 5505   1.046   4.755   2.961 -0.1448 -0.2686 -0.4141
   66SAPC   H6X 5506   1.146   4.799   2.943  1.3605 -2.0328  2.8022
   66SAPC   H6Y 5507   1.059   4.647   2.979  2.3714  0.2225  1.1156
   66SAPC   C37 5508   1.000   4.825   3.084 -0.2323 -0.6841 -0.2630
   66SAPC   H7X 5509   0.891   4.804   3.094 -0.4597 -0.6544 -2.3508
   66SAPC   H7Y 5510   1.012   4.936   3.093 -0.3732 -0.7992  2.0319
   66SAPC   C38 5511   1.076   4.777   3.206 -0.7650 -0.3730 -0.6350
   66SAPC   H8X 5512   1.181   4.813   3.203 -1.1313  0.9149 -5.1511
   66SAPC   H8Y 5513   1.087   4.667   3.200  3.4088 -0.2080  0.9224
   66SAPC   C39 5514   1.022   4.815   3.348 -0.6687 -0.3684  0.2421
   66SAPC   H9X 5515   0.931   4.758   3.378  0.1988 -1.6152  0.5806
   66SAPC   H9Y 5516   0.994   4.922   3.357 -0.5129 -0.3663  0.7459
   66SAPC  C310 5517   1.134   4.787   3.449  0.4850 -0.5053 -0.0366
   66SAPC  H10X 5518   1.224   4.849   3.431  0.1937 -0.2368 -0.6066
   66SAPC  H10Y 5519   1.162   4.679   3.451 -0.7930 -0.8426  1.0737
   66SAPC  C311 5520   1.098   4.852   3.576  0.0229 -0.3339 -0.6618
   66SAPC  H11X 5521   1.000   4.819   3.616 -0.1976  1.4818  0.4070
   66SAPC  H11Y 5522   1.089   4.963   3.573 -2.2194 -0.3996  1.1127
   66SAPC  C312 5523   1.189   4.818   3.692  0.1003  0.2791  0.0559
   66SAPC  H12X 5524   1.285   4.874   3.682  0.8270 -1.0078 -0.3540
   66SAPC  H12Y 5525   1.223   4.714   3.677 -0.6050  0.2344 -1.3818
   66SAPC  C313 5526   1.135   4.841   3.836 -0.1383  0.2501 -0.5943
   66SAPC  H13X 5527   1.045   4.776   3.848  0.8167 -1.1121 -0.6018
   66SAPC  H13Y 5528   1.092   4.944   3.841 -1.3818 -0.3009  2.4721
   66SAPC  C314 5529   1.233   4.817   3.953  0.4421 -0.1489  0.5223
   66SAPC  H14X 5530   1.315   4.891   3.948  0.4034 -0.1743 -2.5065
   66SAPC  H14Y 5531   1.288   4.723   3.930 -1.0000 -0.5866 -1.5050
   66SAPC  C315 5532   1.171   4.811   4.098 -0.7011  0.1911 -0.3763
   66SAPC  H15X 5533   1.082   4.746   4.104 -1.2243  0.7870 -1.4426
   66SAPC  H15Y 5534   1.140   4.917   4.111 -1.9462 -0.2239  0.1772
   66SAPC  C316 5535   1.269   4.788   4.216  0.0657  0.6096  0.4415
   66SAPC  H16X 5536   1.231   4.844   4.304 -0.5699 -2.0374  1.9462
   66SAPC  H16Y 5537   1.365   4.828   4.177  0.7415 -0.7197  0.6830
   66SAPC  C317 5538   1.278   4.644   4.269 -0.1995 -0.1066 -0.1091
   66SAPC  H17X 5539   1.376   4.624   4.319  1.1659 -0.5831 -2.7847
   66SAPC  H17Y 5540   1.297   4.569   4.190  1.0400 -0.6223  0.6375
   66SAPC  C318 5541   1.161   4.592   4.348 -1.3924  0.5133  0.5185
   66SAPC  H18X 5542   1.182   4.488   4.381  1.3275  0.8638  0.1169
   66SAPC  H18Y 5543   1.065   4.592   4.293 -2.0162  0.0141  1.5542
   66SAPC  H18Z 5544   1.152   4.658   4.437  0.7285  1.6438 -0.0485
   67SAPC     N 5545   6.278   4.608   2.377  0.3872 -0.5283  0.0004
   67SAPC   C12 5546   6.357   4.735   2.406  0.0420  0.0669  0.3524
   67SAPC  H12A 5547   6.393   4.784   2.316 -0.6160 -1.1158 -0.5923
   67SAPC  H12B 5548   6.443   4.704   2.463  1.0721  1.3351 -0.4556
   67SAPC   C13 5549   6.370   4.515   2.301  0.3569  0.1914 -0.0474
   67SAPC  H13A 5550   6.395   4.565   2.209  1.8016  1.1001  0.7948
   67SAPC  H13B 5551   6.458   4.491   2.360  0.1374  0.1180  0.2533
   67SAPC  H13C 5552   6.310   4.429   2.276  0.6127 -0.8912  2.6489
   67SAPC   C14 5553   6.232   4.551   2.505 -0.7571 -0.0127  0.3793
   67SAPC  H14A 5554   6.317   4.528   2.566 -0.4510 -2.7566 -0.9117
   67SAPC  H14B 5555   6.181   4.630   2.558 -1.3342  0.0034 -0.1784
   67SAPC  H14C 5556   6.164   4.467   2.504 -1.1613  0.3010 -0.8589
   67SAPC   C15 5557   6.155   4.637   2.300  0.2859  0.4708 -0.1750
   67SAPC  H15A 5558   6.110   4.556   2.245 -1.7361  1.6665 -0.3909
   67SAPC  H15B 5559   6.080   4.674   2.369 -1.3089 -0.5858 -1.2679
   67SAPC  H15C 5560   6.171   4.720   2.233 -0.3893 -0.0316 -0.9806
   67SAPC   C11 5561   6.300   4.853   2.492  0.5186 -0.6941 -0.0296
   67SAPC  H11A 5562   6.388   4.918   2.514  0.9744 -0.8913 -1.2050
   67SAPC  H11B 5563   6.271   4.820   2.594  0.4607  0.9905  0.5351
   67SAPC     P 5564   6.063   4.968   2.501 -0.1971  0.1684 -0.1712
   67SAPC   O13 5565   6.029   5.102   2.449  0.5608 -0.5599 -0.2946
   67SAPC   O14 5566   5.968   4.857   2.506 -0.1395 -0.2163 -0.0695
   67SAPC   O12 5567   6.195   4.924   2.436  0.0192  0.6378  0.2568
   67SAPC   O11 5568   6.111   4.990   2.655  0.7475  0.1497  0.4288
   67SAPC    C1 5569   6.186   5.103   2.687  0.2451 -0.6753  0.6651
   67SAPC    HA 5570   6.279   5.102   2.627 -0.0044 -0.2506  0.2631
   67SAPC    HB 5571   6.128   5.190   2.650  0.1297 -0.8858  0.3425
   67SAPC    C2 5572   6.224   5.113   2.837 -0.2597  0.7235 -0.2003
   67SAPC    HS 5573   6.303   5.186   2.863  1.9876 -1.8368  0.6650
   67SAPC   O21 5574   6.265   4.980   2.882  0.2379 -0.2127 -0.1048
   67SAPC   C21 5575   6.372   4.941   2.820  0.3687 -0.2534  0.0412
   67SAPC   O22 5576   6.444   5.004   2.745  0.1817 -0.6463 -0.3650
   67SAPC   C22 5577   6.387   4.793   2.861  0.0784  0.1363 -0.3299
   67SAPC   H2R 5578   6.299   4.746   2.909  2.0635 -1.9185  1.5214
   67SAPC   H2S 5579   6.413   4.735   2.769 -0.8469  1.1700 -1.2726
   67SAPC    C3 5580   6.098   5.160   2.923  0.0297  0.0726  0.4506
   67SAPC    HX 5581   6.025   5.076   2.921  2.1268 -1.8459  1.1651
   67SAPC    HY 5582   6.049   5.249   2.878 -0.2641 -0.7251 -0.8601
   67SAPC   O31 5583   6.143   5.180   3.062 -0.5407 -0.1030  0.2682
   67SAPC   C31 5584   6.131   5.084   3.151 -0.2038  0.3409  0.0631
   67SAPC   O32 5585   6.072   4.980   3.139  0.2613 -0.6182  0.3415
   67SAPC   C32 5586   6.179   5.136   3.284  0.2416  0.0710 -0.0609
   67SAPC   H2X 5587   6.202   5.244   3.273 -0.1974  0.4832  2.5243
   67SAPC   H2Y 5588   6.264   5.079   3.328 -1.7581 -2.1217  1.2202
   67SAPC   C23 5589   6.508   4.782   2.952  0.2759  0.4387 -0.2939
   67SAPC   H3R 5590   6.597   4.841   2.923 -0.2982  0.6273 -1.7449
   67SAPC   H3S 5591   6.535   4.674   2.960  0.5340  0.3763 -1.8119
   67SAPC   C24 5592   6.465   4.832   3.090  0.2760  0.6617 -0.0997
   67SAPC   H4R 5593   6.362   4.795   3.110  0.7031 -2.0672 -2.2699
   67SAPC   H4S 5594   6.458   4.942   3.083  0.8846  0.6559 -0.8519
   67SAPC   C25 5595   6.558   4.808   3.211 -0.0478  0.0588 -0.0160
   67SAPC   H5R 5596   6.663   4.817   3.179 -1.0254  0.0824 -3.7070
   67SAPC   C26 5597   6.529   4.762   3.337  0.2298 -0.6171 -0.1252
   67SAPC   H6R 5598   6.615   4.745   3.404 -0.6813 -1.2594  0.9141
   67SAPC   C27 5599   6.397   4.715   3.387 -0.0435  0.0598 -0.2028
   67SAPC   H7R 5600   6.317   4.730   3.311 -0.2237  1.5399  0.2390
   67SAPC   H7S 5601   6.376   4.775   3.478  0.3602 -0.2609  0.1072
   67SAPC   C28 5602   6.401   4.562   3.413 -0.5106 -0.3284 -0.6332
   67SAPC   H8R 5603   6.412   4.491   3.330  0.3596 -3.0938  1.7020
   67SAPC   C29 5604   6.401   4.499   3.533 -0.1055 -0.0333 -0.1798
   67SAPC   H9R 5605   6.402   4.390   3.538 -0.1122 -0.0001  0.7508
   67SAPC  C210 5606   6.396   4.570   3.667  0.3118  0.4695 -0.6297
   67SAPC  H10R 5607   6.336   4.664   3.665 -0.7054 -0.1179  0.7807
   67SAPC  H10S 5608   6.499   4.595   3.701  1.0903 -2.2280 -0.8255
   67SAPC  C211 5609   6.338   4.475   3.769 -0.7417  0.3703 -0.1448
   67SAPC  H11R 5610   6.278   4.391   3.732 -0.7870  0.0854  0.5606
   67SAPC  C212 5611   6.342   4.493   3.903  0.2052 -0.0599 -0.7269
   67SAPC  H12R 5612   6.309   4.405   3.960 -1.2991  1.2733  0.5514
   67SAPC  C213 5613   6.404   4.618   3.972 -0.1864  0.2334  0.1925
   67SAPC  H13R 5614   6.508   4.636   3.938  0.1502  0.3396  1.2677
   67SAPC  H13S 5615   6.414   4.595   4.080 -0.5950  1.4489  0.4984
   67SAPC  C214 5616   6.317   4.740   3.954  0.4590  0.7551  0.4296
   67SAPC  H14R 5617   6.273   4.763   3.856 -0.8050 -0.7599  0.6054
   67SAPC  C215 5618   6.267   4.816   4.048  0.3301 -0.4855  0.2340
   67SAPC  H15R 5619   6.201   4.898   4.013  0.3076 -0.2215  0.8721
   67SAPC  C216 5620   6.268   4.808   4.197  0.3260  0.5460 -0.3925
   67SAPC  H16R 5621   6.261   4.909   4.242  2.0895  0.2994  0.5157
   67SAPC  H16S 5622   6.367   4.770   4.230 -0.5264  0.7150  2.6624
   67SAPC  C217 5623   6.154   4.726   4.238  1.1303  0.5674 -0.2414
   67SAPC  H17R 5624   6.159   4.622   4.199  0.4260 -0.0115  1.1259
   67SAPC  H17S 5625   6.058   4.777   4.213 -1.2981 -2.5743  1.8184
   67SAPC  C218 5626   6.157   4.714   4.388 -0.3386 -0.5321 -0.1290
   67SAPC  H18R 5627   6.174   4.810   4.442 -0.0778  0.3325 -1.6761
   67SAPC  H18S 5628   6.246   4.650   4.405  1.1018  1.6624  1.2276
   67SAPC  C219 5629   6.030   4.643   4.438  0.3976  0.1877 -0.6361
   67SAPC  H19R 5630   6.025   4.546   4.385 -0.7671  0.0770 -0.3417
   67SAPC  H19S 5631   5.957   4.718   4.403 -0.6642 -1.1577 -1.3744
   67SAPC  C220 5632   6.020   4.626   4.583 -0.7991 -0.0825 -0.2096
   67SAPC  H20R 5633   5.917   4.606   4.619 -0.2816 -1.7923  0.4253
   67SAPC  H20S 5634   6.060   4.711   4.643 -1.3295 -0.1706  0.2823
   67SAPC  H20T 5635   6.071   4.536   4.623 -0.7026 -0.2539 -0.7209
   67SAPC   C33 5636   6.071   5.127   3.392  0.4020 -0.1492  0.5571
   67SAPC   H3X 5637   6.051   5.022   3.425  1.5074 -0.9480 -1.1829
   67SAPC   H3Y 5638   5.973   5.166   3.357 -0.6552 -2.8069  0.3241
   67SAPC   C34 5639   6.101   5.200   3.529  0.5573  0.1747  0.5468
   67SAPC   H4X 5640   6.009   5.190   3.590  1.2881 -0.3761  1.5831
   67SAPC   H4Y 5641   6.128   5.300   3.488 -2.3310 -0.3833 -3.3908
   67SAPC   C35 5642   6.218   5.150   3.615 -0.8829  0.3418 -0.0870
   67SAPC   H5X 5643   6.314   5.151   3.557 -1.2635  0.0888 -0.7323
   67SAPC   H5Y 5644   6.191   5.049   3.651  1.3368 -0.5577 -0.7826
   67SAPC   C36 5645   6.229   5.226   3.748  0.2858  0.0465 -0.5753
   67SAPC   H6X 5646   6.210   5.332   3.721 -2.1539 -0.6081 -1.7058
   67SAPC   H6Y 5647   6.330   5.202   3.788 -0.4465  0.3532  1.5503
   67SAPC   C37 5648   6.122   5.190   3.854  0.7082 -0.5307 -0.5165
   67SAPC   H7X 5649   6.136   5.082   3.876  1.0703  0.0179  2.3532
   67SAPC   H7Y 5650   6.020   5.214   3.819  0.5359 -0.4703  0.0156
   67SAPC   C38 5651   6.115   5.288   3.976 -0.4594  0.5687  0.8197
   67SAPC   H8X 5652   6.085   5.392   3.951 -2.5436 -0.1170  0.2982
   67SAPC   H8Y 5653   6.220   5.304   4.010 -0.6293 -1.6520  2.5564
   67SAPC   C39 5654   6.024   5.241   4.086  0.2390  0.1111  0.5011
   67SAPC   H9X 5655   5.917   5.231   4.056  0.6259  0.5379 -1.1124
   67SAPC   H9Y 5656   6.032   5.306   4.176 -0.6502 -1.6636  1.9173
   67SAPC  C310 5657   6.058   5.101   4.145  0.2669  0.4412 -0.2411
   67SAPC  H10X 5658   6.166   5.089   4.169  0.0184 -2.5475 -0.2673
   67SAPC  H10Y 5659   6.023   5.030   4.066  0.4021  3.5066 -3.2688
   67SAPC  C311 5660   5.979   5.074   4.277 -0.9062  0.3957 -0.1279
   67SAPC  H11X 5661   5.976   4.964   4.293 -0.5739  0.1112 -1.8841
   67SAPC  H11Y 5662   5.878   5.120   4.272 -1.5257 -0.7167  1.3208
   67SAPC  C312 5663   6.052   5.126   4.395  0.2332 -0.2131 -0.0458
   67SAPC  H12X 5664   6.039   5.236   4.411  0.1100  0.1436 -2.3228
   67SAPC  H12Y 5665   6.162   5.114   4.382  0.0493 -1.2508 -0.7574
   67SAPC  C313 5666   5.988   5.063   4.523  0.7471  0.7272 -0.1803
   67SAPC  H13X 5667   6.053   5.084   4.610  0.1821 -0.7876  0.6423
   67SAPC  H13Y 5668   5.996   4.953   4.511 -2.2109  0.1935  1.6748
   67SAPC  C314 5669   5.841   5.097   4.555  0.1910  0.3510  0.6299
   67SAPC  H14X 5670   5.780   5.051   4.474  0.3535  1.2113  0.0073
   67SAPC  H14Y 5671   5.829   5.207   4.567  4.2036  0.9946  0.3121
   67SAPC  C315 5672   5.806   5.046   4.692  0.2375  0.1698 -0.7226
   67SAPC  H15X 5673   5.863   5.113   4.761 -1.9445 -0.4892  1.8980
   67SAPC  H15Y 5674   5.851   4.945   4.709 -1.2279 -0.1069  2.2333
   67SAPC  C316 5675   5.658   5.060   4.730 -0.1051  0.9761  0.1894
   67SAPC  H16X 5676   5.604   4.988   4.665  0.4680 -0.9877  1.7834
   67SAPC  H16Y 5677   5.621   5.161   4.706  0.3223  1.2270  0.5765
   67SAPC  C317 5678   5.620   5.027   4.871 -0.3465  0.3550  0.3594
   67SAPC  H17X 5679   5.697   5.074   4.936  2.0104 -1.1023 -1.1889
   67SAPC  H17Y 5680   5.641   4.920   4.890  4.5808  1.0056 -0.0618
   67SAPC  C318 5681   5.478   5.050   4.916  0.4818  0.3690 -0.3647
   67SAPC  H18X 5682   5.463   5.158   4.937  0.4960  0.5586 -1.2987
   67SAPC  H18Y 5683   5.457   4.992   5.009 -2.4580  0.1959 -1.0259
   67SAPC  H18Z 5684   5.410   5.019   4.834  0.2649  1.2419 -0.5231
   68SAPC     N 5685   5.379   3.304   1.970 -0.1906 -0.1513 -0.6235
   68SAPC   C12 5686   5.368   3.354   2.114  0.9620  0.0795  0.3038
   68SAPC  H12A 5687   5.268   3.394   2.117  0.5296 -0.8513 -1.0864
   68SAPC  H12B 5688   5.434   3.439   2.129 -0.9948  1.6587  0.3898
   68SAPC   C13 5689   5.341   3.409   1.874 -0.2345 -0.5761  0.1003
   68SAPC  H13A 5690   5.413   3.488   1.892  0.5714 -0.6920 -2.3034
   68SAPC  H13B 5691   5.363   3.380   1.773  3.7760  0.6016  0.4718
   68SAPC  H13C 5692   5.238   3.440   1.868 -0.6265 -2.0931 -1.7874
   68SAPC   C14 5693   5.520   3.260   1.936  0.3207 -0.9531  0.0897
   68SAPC  H14A 5694   5.552   3.188   2.010 -3.8063  0.9539  4.2026
   68SAPC  H14B 5695   5.539   3.223   1.837  1.2813  0.7452 -0.3896
   68SAPC  H14C 5696   5.585   3.343   1.959 -0.9527 -0.2021  1.1284
   68SAPC   C15 5697   5.290   3.191   1.949  0.2501 -1.0412  0.4204
   68SAPC  H15A 5698   5.302   3.148   1.850  3.2373 -2.3565  1.2451
   68SAPC  H15B 5699   5.307   3.111   2.019  0.3254 -1.2801  0.1325
   68SAPC  H15C 5700   5.186   3.220   1.957 -0.4736 -3.1001 -0.8665
   68SAPC   C11 5701   5.366   3.247   2.226 -0.3569 -0.2253  0.2503
   68SAPC  H11A 5702   5.264   3.204   2.215 -0.6661  0.6425 -0.4611
   68SAPC  H11B 5703   5.364   3.287   2.329 -1.1051  1.1142 -0.2578
   68SAPC     P 5704   5.607   3.194   2.267  0.0421 -0.2706  0.1145
   68SAPC   O13 5705   5.715   3.140   2.180 -0.0335  0.1737 -0.2337
   68SAPC   O14 5706   5.618   3.341   2.293  0.3520 -0.1836  0.7993
   68SAPC   O12 5707   5.472   3.155   2.194  0.5812 -0.0922  0.4068
   68SAPC   O11 5708   5.608   3.115   2.402  0.2016  0.8214  0.5564
   68SAPC    C1 5709   5.500   3.026   2.430 -0.5209 -0.4256  0.2064
   68SAPC    HA 5710   5.407   3.084   2.449 -0.8008 -1.2449  1.4154
   68SAPC    HB 5711   5.489   2.963   2.339  0.9293 -0.7935  0.2560
   68SAPC    C2 5712   5.533   2.943   2.555  0.2670 -0.0336  0.1314
   68SAPC    HS 5713   5.452   2.872   2.581 -0.6373  1.1556  0.6748
   68SAPC   O21 5714   5.561   3.029   2.668  0.3100  0.2721  0.3160
   68SAPC   C21 5715   5.455   3.059   2.744 -0.1459  0.0091 -0.0264
   68SAPC   O22 5716   5.341   3.018   2.733  0.0866 -0.1586 -0.2033
   68SAPC   C22 5717   5.500   3.139   2.866 -0.0722 -0.0678  0.4121
   68SAPC   H2R 5718   5.541   3.235   2.828  1.7234 -1.5125 -1.5511
   68SAPC   H2S 5719   5.416   3.159   2.936 -1.2980  0.9378 -1.2667
   68SAPC    C3 5720   5.668   2.867   2.529 -0.1378  0.0086 -1.1177
   68SAPC    HX 5721   5.732   2.917   2.454 -0.3689  0.4415 -1.0264
   68SAPC    HY 5722   5.629   2.774   2.484 -2.5646  0.2055  0.4014
   68SAPC   O31 5723   5.734   2.834   2.659 -0.4509 -0.2098  0.4284
   68SAPC   C31 5724   5.829   2.740   2.645  0.2913  0.4792 -0.1722
   68SAPC   O32 5725   5.852   2.676   2.539  0.1640 -0.4050 -0.8816
   68SAPC   C32 5726   5.911   2.752   2.780 -0.2133  0.7669  0.3366
   68SAPC   H2X 5727   5.846   2.791   2.861 -0.2087  0.0054  0.7086
   68SAPC   H2Y 5728   5.982   2.837   2.767  1.5660 -0.8973 -1.3652
   68SAPC   C23 5729   5.618   3.072   2.949 -0.6838 -0.5136  0.6458
   68SAPC   H3R 5730   5.696   3.055   2.871 -1.5372 -0.2600 -0.2891
   68SAPC   H3S 5731   5.587   2.976   2.996 -2.0374 -0.1380  0.5593
   68SAPC   C24 5732   5.675   3.152   3.069  0.4923 -0.0708 -0.1800
   68SAPC   H4R 5733   5.698   3.252   3.026  0.1464  0.8292  1.6313
   68SAPC   H4S 5734   5.778   3.120   3.092  0.6915  1.9101  2.1243
   68SAPC   C25 5735   5.583   3.154   3.193  0.1685  0.5247  0.2062
   68SAPC   H5R 5736   5.477   3.170   3.167  0.5720  1.8982 -0.6865
   68SAPC   C26 5737   5.616   3.106   3.314  0.5021  0.0625 -0.0987
   68SAPC   H6R 5738   5.545   3.102   3.397  0.7320 -1.9759  0.0502
   68SAPC   C27 5739   5.757   3.076   3.367 -0.4767 -0.1958 -0.9431
   68SAPC   H7R 5740   5.773   3.143   3.455  0.1493  0.6545 -1.6916
   68SAPC   H7S 5741   5.840   3.107   3.301  0.7069  2.8912  1.6972
   68SAPC   C28 5742   5.767   2.931   3.418 -0.5732  0.5157  0.1770
   68SAPC   H8R 5743   5.799   2.858   3.342 -0.2558  1.6419 -0.8123
   68SAPC   C29 5744   5.732   2.874   3.537 -0.2258 -0.2116  0.3618
   68SAPC   H9R 5745   5.748   2.765   3.544 -0.0954 -0.6860 -4.1210
   68SAPC  C210 5746   5.683   2.949   3.656  0.0229 -0.2741  0.0237
   68SAPC  H10R 5747   5.583   2.908   3.681  0.8264 -3.7628 -1.8882
   68SAPC  H10S 5748   5.683   3.057   3.631  1.1246 -0.7279 -2.1349
   68SAPC  C211 5749   5.768   2.923   3.778 -0.0665 -0.3414  0.1795
   68SAPC  H11R 5750   5.868   2.878   3.770 -0.5148 -2.6421  4.6415
   68SAPC  C212 5751   5.730   2.967   3.902 -0.2900  0.2670  0.1088
   68SAPC  H12R 5752   5.789   2.937   3.990 -0.6904  0.2353  0.3674
   68SAPC  C213 5753   5.610   3.045   3.941 -0.0293 -0.1742  0.0062
   68SAPC  H13R 5754   5.526   2.980   3.971 -1.2491  1.3614  0.0384
   68SAPC  H13S 5755   5.575   3.103   3.852  2.6968 -0.0341 -1.0795
   68SAPC  C214 5756   5.629   3.157   4.035 -0.2748  0.2061  0.4787
   68SAPC  H14R 5757   5.649   3.254   3.987  2.5001  0.3055  1.6265
   68SAPC  C215 5758   5.615   3.149   4.165  0.5517 -0.6676 -0.4989
   68SAPC  H15R 5759   5.650   3.228   4.233  0.1386 -1.7690  1.0410
   68SAPC  C216 5760   5.592   3.014   4.233  0.1144 -1.0896 -0.1991
   68SAPC  H16R 5761   5.576   2.929   4.163 -1.2819 -1.8793  1.0304
   68SAPC  H16S 5762   5.498   3.028   4.290 -0.1231 -0.2434 -0.7814
   68SAPC  C217 5763   5.698   2.986   4.345  0.5159 -0.5211 -0.1738
   68SAPC  H17R 5764   5.802   3.014   4.319 -0.6958  3.8507 -1.2326
   68SAPC  H17S 5765   5.697   2.876   4.362 -0.7971 -0.2095  2.1623
   68SAPC  C218 5766   5.666   3.057   4.485 -0.4660 -0.7666 -0.0433
   68SAPC  H18R 5767   5.633   3.161   4.462  1.5377 -0.0255  0.1770
   68SAPC  H18S 5768   5.751   3.057   4.556 -0.1712  4.0366 -0.0347
   68SAPC  C219 5769   5.564   2.979   4.560  0.9450  0.1868 -0.1022
   68SAPC  H19R 5770   5.593   2.873   4.579  0.8477  0.5642  2.5381
   68SAPC  H19S 5771   5.472   2.986   4.498  1.1292  1.3197 -0.2714
   68SAPC  C220 5772   5.519   3.034   4.696  0.2410  0.2073 -0.2540
   68SAPC  H20R 5773   5.596   3.011   4.773  0.7169 -0.3827 -0.8930
   68SAPC  H20S 5774   5.418   2.993   4.713  0.7489 -0.3868  1.6275
   68SAPC  H20T 5775   5.504   3.144   4.695 -1.6654 -0.0345 -0.8286
   68SAPC   C33 5776   5.994   2.619   2.817  0.9086  0.3649 -0.6059
   68SAPC   H3X 5777   6.012   2.563   2.723 -1.0415  1.4547 -1.6920
   68SAPC   H3Y 5778   5.924   2.560   2.880  2.1226 -2.2421 -1.5595
   68SAPC   C34 5779   6.124   2.655   2.888  0.3407  0.1215 -0.6459
   68SAPC   H4X 5780   6.191   2.720   2.828  0.2041  0.9109  0.0429
   68SAPC   H4Y 5781   6.172   2.557   2.905 -1.5717 -1.1759 -2.2607
   68SAPC   C35 5782   6.096   2.726   3.023  0.4072 -0.2217 -0.3103
   68SAPC   H5X 5783   6.020   2.664   3.075  0.3075  1.3807  1.5580
   68SAPC   H5Y 5784   6.055   2.825   2.996  0.0558 -0.5743 -1.1016
   68SAPC   C36 5785   6.219   2.732   3.114  0.1105 -0.9946 -0.6693
   68SAPC   H6X 5786   6.279   2.822   3.090 -1.0787 -0.0510 -0.2614
   68SAPC   H6Y 5787   6.270   2.635   3.099  2.3454 -0.1720  1.0521
   68SAPC   C37 5788   6.200   2.736   3.268 -0.2948 -0.0409  0.4330
   68SAPC   H7X 5789   6.301   2.726   3.313 -0.2356 -0.6493  0.1699
   68SAPC   H7Y 5790   6.150   2.643   3.300  1.3729 -1.5812 -1.1705
   68SAPC   C38 5791   6.124   2.867   3.316 -0.0051 -0.0004  0.4823
   68SAPC   H8X 5792   6.031   2.871   3.256  0.9126  0.7652 -0.9494
   68SAPC   H8Y 5793   6.189   2.953   3.288  0.0648 -0.0926  0.3643
   68SAPC   C39 5794   6.103   2.859   3.469  0.0971  0.0386  0.4042
   68SAPC   H9X 5795   6.048   2.763   3.483 -0.8097  0.8168  2.7764
   68SAPC   H9Y 5796   6.042   2.946   3.501  0.6494  1.2478 -1.6538
   68SAPC  C310 5797   6.230   2.875   3.547 -0.4760 -0.3166 -0.7835
   68SAPC  H10X 5798   6.268   2.980   3.550  2.1553 -1.2053  1.5367
   68SAPC  H10Y 5799   6.311   2.808   3.512 -0.6214 -0.7786 -0.2544
   68SAPC  C311 5800   6.218   2.841   3.696  0.3559  1.2446 -0.5186
   68SAPC  H11X 5801   6.202   2.732   3.686 -0.9090  1.4210 -0.5462
   68SAPC  H11Y 5802   6.121   2.881   3.734  0.1319 -0.0819  0.3695
   68SAPC  C312 5803   6.340   2.870   3.777  0.4254 -0.6016  0.4989
   68SAPC  H12X 5804   6.341   2.978   3.802  1.2250 -0.8552  1.6205
   68SAPC  H12Y 5805   6.440   2.842   3.736 -0.2004 -2.1093 -0.0934
   68SAPC  C313 5806   6.329   2.794   3.915  0.0345 -0.0583  0.3503
   68SAPC  H13X 5807   6.295   2.689   3.900 -0.4855 -0.1744  2.1028
   68SAPC  H13Y 5808   6.256   2.843   3.983 -1.1666  1.0140 -1.6478
   68SAPC  C314 5809   6.461   2.786   3.992 -0.1227 -0.4022 -0.4886
   68SAPC  H14X 5810   6.490   2.892   4.004 -1.2905  0.0297 -1.3130
   68SAPC  H14Y 5811   6.524   2.720   3.929  0.9432 -3.0430  3.0209
   68SAPC  C315 5812   6.455   2.731   4.131  0.3334 -0.1667 -0.3585
   68SAPC  H15X 5813   6.407   2.630   4.121  1.1076 -0.4616 -1.2192
   68SAPC  H15Y 5814   6.397   2.804   4.191  2.4107  0.7238  0.6318
   68SAPC  C316 5815   6.594   2.715   4.191 -0.2772  0.9345 -0.7896
   68SAPC  H16X 5816   6.647   2.813   4.190  0.3727  0.6096  0.2250
   68SAPC  H16Y 5817   6.649   2.648   4.122 -0.9759  0.4774 -0.9149
   68SAPC  C317 5818   6.609   2.654   4.338 -0.0450 -0.1368 -0.3801
   68SAPC  H17X 5819   6.550   2.560   4.333  1.1175 -0.8498 -1.4248
   68SAPC  H17Y 5820   6.555   2.725   4.404 -0.0491  0.8232 -1.3942
   68SAPC  C318 5821   6.743   2.621   4.400  0.1725  0.3150  0.5528
   68SAPC  H18X 5822   6.789   2.542   4.337 -2.0960 -1.5940  1.1274
   68SAPC  H18Y 5823   6.734   2.584   4.504  0.7457 -0.7445  0.2385
   68SAPC  H18Z 5824   6.809   2.709   4.415  0.0520  0.8157 -1.5629
   69SAPC     N 5825   4.584   0.138   2.788  0.2376  0.3294 -0.2400
   69SAPC   C12 5826   4.561   0.207   2.917 -0.0739 -0.5026 -0.5556
   69SAPC  H12A 5827   4.507   0.142   2.984 -0.6410  0.6014  0.0939
   69SAPC  H12B 5828   4.488   0.287   2.912  1.7822  1.4110  1.1023
   69SAPC   C13 5829   4.690   0.026   2.804  0.5191 -0.0085 -0.2840
   69SAPC  H13A 5830   4.663  -0.041   2.884 -1.8565  0.4713 -0.6162
   69SAPC  H13B 5831   4.680  -0.032   2.714 -0.2200  2.7257 -2.0787
   69SAPC  H13C 5832   4.789   0.066   2.817 -0.5180  2.9979 -0.9671
   69SAPC   C14 5833   4.455   0.071   2.740 -0.4545  0.0775 -0.1297
   69SAPC  H14A 5834   4.375   0.136   2.705 -1.0618  0.4980  1.9360
   69SAPC  H14B 5835   4.482   0.005   2.659 -0.9105  0.9327 -1.0012
   69SAPC  H14C 5836   4.412   0.002   2.810 -1.5790 -0.6865 -1.5113
   69SAPC   C15 5837   4.639   0.234   2.685 -0.1668  1.2348 -0.0557
   69SAPC  H15A 5838   4.556   0.261   2.621 -1.6958 -0.4796  1.1163
   69SAPC  H15B 5839   4.684   0.325   2.724 -0.5109  0.7804  1.4654
   69SAPC  H15C 5840   4.719   0.191   2.626  0.7840  3.5217 -0.5377
   69SAPC   C11 5841   4.687   0.253   2.997 -0.1324  0.3085  0.2719
   69SAPC  H11A 5842   4.741   0.160   3.022  1.6399  1.0785 -0.5321
   69SAPC  H11B 5843   4.656   0.292   3.097 -2.3148 -0.4763 -0.0467
   69SAPC     P 5844   4.882   0.416   2.990 -0.3221 -0.2904 -0.2187
   69SAPC   O13 5845   5.006   0.372   2.927 -0.2706 -0.7320  0.1379
   69SAPC   O14 5846   4.853   0.558   2.987 -0.3576  0.2631 -0.2505
   69SAPC   O12 5847   4.764   0.345   2.928  0.0265 -0.4233  0.9038
   69SAPC   O11 5848   4.894   0.368   3.139  0.8348 -0.4525 -0.7341
   69SAPC    C1 5849   5.005   0.295   3.198 -0.0234 -0.3338  0.6544
   69SAPC    HA 5850   5.027   0.195   3.155  0.0001  0.2513 -0.7607
   69SAPC    HB 5851   5.095   0.358   3.185 -0.2519 -0.2731 -0.8264
   69SAPC    C2 5852   4.979   0.262   3.345 -0.8200  1.0051  0.1440
   69SAPC    HS 5853   5.061   0.194   3.375 -1.0632 -0.4683 -2.2983
   69SAPC   O21 5854   4.848   0.211   3.380 -0.1244 -0.2275 -0.2981
   69SAPC   C21 5855   4.845   0.074   3.371  0.1491 -0.2149  0.0048
   69SAPC   O22 5856   4.932  -0.004   3.343 -0.0708 -0.0849 -0.0330
   69SAPC   C22 5857   4.703   0.020   3.403  0.1736 -0.1121  0.4231
   69SAPC   H2R 5858   4.632   0.069   3.332  2.6947  2.4982 -0.4925
   69SAPC   H2S 5859   4.709  -0.091   3.393 -0.5709 -0.0633 -0.8067
   69SAPC    C3 5860   5.014   0.386   3.422  0.3064 -0.2975 -0.3794
   69SAPC    HX 5861   4.970   0.472   3.368 -0.3014 -0.4561 -0.1388
   69SAPC    HY 5862   5.124   0.398   3.428 -0.0080  2.1603  2.5381
   69SAPC   O31 5863   4.976   0.369   3.561  0.1493  0.1122  0.0955
   69SAPC   C31 5864   4.887   0.455   3.610  0.0962  0.6081 -0.4295
   69SAPC   O32 5865   4.852   0.555   3.553 -0.4714  0.3304  0.2276
   69SAPC   C32 5866   4.839   0.408   3.740  0.4858  0.2530 -0.1753
   69SAPC   H2X 5867   4.923   0.356   3.790  2.0309  5.4789  3.5132
   69SAPC   H2Y 5868   4.749   0.348   3.712  0.5866  1.1318 -2.6788
   69SAPC   C23 5869   4.656   0.055   3.548  0.5652 -0.7699 -0.2729
   69SAPC   H3R 5870   4.560   0.003   3.567  0.3732  0.0242  1.0482
   69SAPC   H3S 5871   4.634   0.164   3.548 -0.8367 -1.0454 -0.1285
   69SAPC   C24 5872   4.760   0.043   3.653 -0.6428 -0.3064 -0.6501
   69SAPC   H4R 5873   4.725   0.073   3.754  1.2753 -1.0868  0.2873
   69SAPC   H4S 5874   4.853   0.101   3.641 -0.4140  0.0566  2.3230
   69SAPC   C25 5875   4.805  -0.103   3.662 -1.0067 -0.9899  0.0560
   69SAPC   H5R 5876   4.721  -0.168   3.633 -0.4715 -2.1570  1.0688
   69SAPC   C26 5877   4.920  -0.157   3.705 -1.0612 -0.1232 -0.4620
   69SAPC   H6R 5878   4.916  -0.265   3.687 -3.1080  0.2676 -2.8197
   69SAPC   C27 5879   5.046  -0.085   3.753  0.8102 -0.1099  0.0133
   69SAPC   H7R 5880   5.080  -0.139   3.844  1.5068 -2.6666 -1.6621
   69SAPC   H7S 5881   5.010   0.006   3.805 -1.7075  1.1207 -3.4976
   69SAPC   C28 5882   5.154  -0.050   3.649 -0.0250  0.1818 -0.3735
   69SAPC   H8R 5883   5.123  -0.084   3.549  2.4408 -1.0808 -0.7952
   69SAPC   C29 5884   5.267   0.026   3.668 -0.3344  0.5005  0.2126
   69SAPC   H9R 5885   5.337   0.036   3.584 -1.2882  1.5099 -0.5043
   69SAPC  C210 5886   5.323   0.077   3.795  0.4298  0.1664 -0.6001
   69SAPC  H10R 5887   5.410   0.138   3.763 -0.0439  1.6954  0.9143
   69SAPC  H10S 5888   5.352  -0.016   3.848  0.3970 -1.1915 -2.8054
   69SAPC  C211 5889   5.230   0.170   3.870 -0.0070  0.9177 -0.3572
   69SAPC  H11R 5890   5.165   0.222   3.799 -1.4239 -1.1456 -0.6749
   69SAPC  C212 5891   5.244   0.204   3.998  0.4681 -0.8657  0.2461
   69SAPC  H12R 5892   5.180   0.275   4.053  2.4970 -0.0022  1.5910
   69SAPC  C213 5893   5.354   0.153   4.090  0.1495 -0.4282  1.1707
   69SAPC  H13R 5894   5.422   0.240   4.109  1.6948 -1.5910  1.1915
   69SAPC  H13S 5895   5.426   0.080   4.046 -0.7080 -0.6406  0.0838
   69SAPC  C214 5896   5.299   0.104   4.225  0.3262  0.3194  0.2666
   69SAPC  H14R 5897   5.289   0.187   4.297  0.2666 -0.3037  0.9847
   69SAPC  C215 5898   5.270  -0.025   4.256 -0.0503  0.4431  0.1925
   69SAPC  H15R 5899   5.233  -0.033   4.359 -2.4015 -0.3856 -0.6595
   69SAPC  C216 5900   5.276  -0.152   4.165 -0.1887 -0.7062 -0.2961
   69SAPC  H16R 5901   5.356  -0.219   4.204  0.2193 -0.0737 -0.0446
   69SAPC  H16S 5902   5.324  -0.119   4.071 -0.7280  0.7770 -0.0742
   69SAPC  C217 5903   5.135  -0.220   4.156  0.4158 -0.4665  0.2195
   69SAPC  H17R 5904   5.075  -0.133   4.124  0.7250 -0.3469 -0.0426
   69SAPC  H17S 5905   5.105  -0.239   4.261  3.5844  1.8108  1.7140
   69SAPC  C218 5906   5.124  -0.337   4.064  0.2497  0.4424  0.0383
   69SAPC  H18R 5907   5.157  -0.426   4.122 -0.1364 -0.3928 -0.9890
   69SAPC  H18S 5908   5.192  -0.323   3.977  0.4855  1.4214  0.3724
   69SAPC  C219 5909   4.976  -0.359   4.021 -0.8013 -0.1795  0.1107
   69SAPC  H19R 5910   4.940  -0.256   4.001  0.2034  0.2324  0.3491
   69SAPC  H19S 5911   4.925  -0.400   4.111  0.6019  0.0653  1.0479
   69SAPC  C220 5912   4.964  -0.453   3.904  0.5404 -0.3531 -0.1280
   69SAPC  H20R 5913   4.859  -0.466   3.871  0.4812 -0.6328  0.1676
   69SAPC  H20S 5914   5.001  -0.553   3.933  0.4979 -0.2347  0.3381
   69SAPC  H20T 5915   5.033  -0.423   3.822  0.3727  2.2596  0.5963
   69SAPC   C33 5916   4.798   0.523   3.831  0.0922 -0.4978 -0.6503
   69SAPC   H3X 5917   4.720   0.586   3.784 -0.7769  1.1570  2.7451
   69SAPC   H3Y 5918   4.887   0.586   3.855  0.5463 -1.2935 -0.2279
   69SAPC   C34 5919   4.735   0.474   3.963 -0.2911 -0.0461 -0.8392
   69SAPC   H4X 5920   4.810   0.440   4.038 -0.9174 -1.3446 -0.7884
   69SAPC   H4Y 5921   4.673   0.385   3.941 -0.3768 -0.1386 -0.2447
   69SAPC   C35 5922   4.657   0.584   4.028 -0.1208  0.5693 -0.8870
   69SAPC   H5X 5923   4.581   0.545   4.099  2.0273  3.3278  3.3486
   69SAPC   H5Y 5924   4.613   0.650   3.949  2.0687 -0.9922 -3.5792
   69SAPC   C36 5925   4.752   0.669   4.120 -0.2762 -0.1346  0.5211
   69SAPC   H6X 5926   4.848   0.690   4.068  0.4663 -1.6209  1.2357
   69SAPC   H6Y 5927   4.779   0.605   4.206 -0.5238  0.4027  1.0063
   69SAPC   C37 5928   4.697   0.800   4.182 -0.2101 -0.0784  0.2762
   69SAPC   H7X 5929   4.661   0.866   4.099 -1.9557 -2.5898 -1.0966
   69SAPC   H7Y 5930   4.773   0.866   4.229  0.4031  0.7289 -1.7218
   69SAPC   C38 5931   4.582   0.774   4.282 -0.4332 -0.5974  0.4229
   69SAPC   H8X 5932   4.625   0.724   4.371 -1.1415  0.3788  1.3420
   69SAPC   H8Y 5933   4.506   0.703   4.244 -1.6484 -0.8767  3.1336
   69SAPC   C39 5934   4.510   0.908   4.326  0.1079  0.0264  0.0511
   69SAPC   H9X 5935   4.448   0.956   4.247 -1.3288 -0.9720  0.5225
   69SAPC   H9Y 5936   4.587   0.981   4.360  1.1895 -0.5015 -1.1745
   69SAPC  C310 5937   4.413   0.883   4.444  0.6092 -0.3974 -0.3486
   69SAPC  H10X 5938   4.462   0.839   4.533  1.7992  2.1389  0.3320
   69SAPC  H10Y 5939   4.335   0.816   4.403 -1.1435  1.4625 -0.2461
   69SAPC  C311 5940   4.346   1.018   4.486 -0.1219  0.0583  1.1348
   69SAPC  H11X 5941   4.414   1.104   4.503 -0.1631  0.4856 -0.6895
   69SAPC  H11Y 5942   4.283   1.000   4.576  0.6198  1.8943  2.0735
   69SAPC  C312 5943   4.243   1.083   4.384 -0.0063 -0.5303 -0.3139
   69SAPC  H12X 5944   4.294   1.099   4.286  1.6036  0.0150  0.5833
   69SAPC  H12Y 5945   4.219   1.189   4.407  0.9082  0.7709 -4.4546
   69SAPC  C313 5946   4.118   1.007   4.366  0.8700 -0.1830  0.5026
   69SAPC  H13X 5947   4.145   0.899   4.371  0.6248 -0.3728 -1.6662
   69SAPC  H13Y 5948   4.071   1.029   4.268  1.8897  1.1805  0.2847
   69SAPC  C314 5949   4.018   1.025   4.475 -0.3528 -0.6851 -1.0785
   69SAPC  H14X 5950   3.918   1.028   4.427  0.2238 -3.5113 -2.6360
   69SAPC  H14Y 5951   4.026   1.128   4.516  2.3740 -0.5966 -1.6043
   69SAPC  C315 5952   4.005   0.924   4.593 -0.4048 -0.2253  0.3428
   69SAPC  H15X 5953   4.103   0.931   4.645 -1.2881  1.1936  1.8970
   69SAPC  H15Y 5954   4.002   0.824   4.545 -2.1040  0.1821 -0.4740
   69SAPC  C316 5955   3.890   0.959   4.692  0.0153 -0.3849  0.1636
   69SAPC  H16X 5956   3.794   0.999   4.652 -0.8382 -1.2881  1.2326
   69SAPC  H16Y 5957   3.932   1.052   4.737  1.0828 -0.9433  0.3480
   69SAPC  C317 5958   3.855   0.854   4.801  1.0308  0.1026 -0.1038
   69SAPC  H17X 5959   3.824   0.921   4.884  0.8443  1.1067 -0.9501
   69SAPC  H17Y 5960   3.955   0.807   4.813  2.6471  2.6773 -2.1596
   69SAPC  C318 5961   3.749   0.760   4.750 -0.3760  1.0426 -1.4993
   69SAPC  H18X 5962   3.653   0.805   4.715 -0.5198  0.6549 -1.6064
   69SAPC  H18Y 5963   3.724   0.684   4.827  2.2708 -0.3341 -1.8898
   69SAPC  H18Z 5964   3.786   0.713   4.657  0.3002  0.5303 -0.9714
   70SAPC     N 5965   2.026   6.189   2.239  0.4942  0.1879 -0.1114
   70SAPC   C12 5966   2.108   6.251   2.353 -0.1451 -0.5325 -0.4520
   70SAPC  H12A 5967   2.082   6.356   2.356  0.2512 -0.2965 -3.0019
   70SAPC  H12B 5968   2.212   6.235   2.329 -0.6568 -4.0983 -0.7962
   70SAPC   C13 5969   1.881   6.186   2.280 -0.0959 -1.1202  0.2428
   70SAPC  H13A 5970   1.842   6.282   2.310  1.4906  0.4352 -2.3116
   70SAPC  H13B 5971   1.807   6.151   2.209  1.8722 -1.8648 -1.5518
   70SAPC  H13C 5972   1.879   6.121   2.366  0.0319 -0.2623  0.9036
   70SAPC   C14 5973   2.052   6.285   2.118  0.4140  0.1351  0.3704
   70SAPC  H14A 5974   2.044   6.388   2.152 -1.5696 -0.0569  0.5860
   70SAPC  H14B 5975   2.153   6.259   2.089  0.4807  0.3717  0.3843
   70SAPC  H14C 5976   1.973   6.255   2.051  0.1592  2.6244 -0.5441
   70SAPC   C15 5977   2.060   6.056   2.184  0.0447  0.2947  0.1564
   70SAPC  H15A 5978   2.034   5.973   2.249 -1.0654  0.4588 -0.0569
   70SAPC  H15B 5979   2.008   6.051   2.089  0.0866  1.5005  0.0625
   70SAPC  H15C 5980   2.166   6.049   2.166  0.4391  0.7759  2.1209
   70SAPC   C11 5981   2.093   6.192   2.495  0.1979 -0.1237 -0.1035
   70SAPC  H11A 5982   2.152   6.255   2.565 -1.2157  1.4173 -0.2399
   70SAPC  H11B 5983   2.125   6.086   2.499  2.2481  0.4216 -0.6542
   70SAPC     P 5984   1.912   6.345   2.610  0.2257 -0.1700 -0.2873
   70SAPC   O13 5985   1.991   6.453   2.560 -0.0636  0.2384 -0.2810
   70SAPC   O14 5986   1.765   6.352   2.606 -0.2294  0.5618 -0.3714
   70SAPC   O12 5987   1.965   6.207   2.545  1.0088 -0.7090 -0.3821
   70SAPC   O11 5988   1.959   6.333   2.756 -0.3085  0.1486 -0.7176
   70SAPC    C1 5989   1.876   6.282   2.856  0.1862 -0.0026  0.4601
   70SAPC    HA 5990   1.911   6.305   2.959  3.1305 -1.3111 -0.1626
   70SAPC    HB 5991   1.768   6.307   2.846  0.6491  1.6265 -0.7136
   70SAPC    C2 5992   1.869   6.129   2.855 -0.1967  0.0281  0.4668
   70SAPC    HS 5993   1.808   6.101   2.766  2.2552  0.9311 -1.6424
   70SAPC   O21 5994   1.806   6.096   2.979  0.0911  0.6641 -0.3768
   70SAPC   C21 5995   1.767   5.973   2.986  0.1417 -0.6369  0.9172
   70SAPC   O22 5996   1.768   5.898   2.885  0.4330 -0.3091  0.1601
   70SAPC   C22 5997   1.696   5.942   3.125  0.5044  1.1996 -0.3227
   70SAPC   H2R 5998   1.589   5.968   3.115  0.0827 -0.5789 -0.8537
   70SAPC   H2S 5999   1.701   5.831   3.132 -0.6678  1.1905  0.6470
   70SAPC    C3 6000   2.012   6.053   2.836  0.4004  0.2169 -0.5461
   70SAPC    HX 6001   2.049   6.090   2.739  0.2381 -0.4526 -0.8687
   70SAPC    HY 6002   1.991   5.944   2.830 -0.3583  0.0920  2.4630
   70SAPC   O31 6003   2.107   6.064   2.943 -0.0408  0.3835  0.5795
   70SAPC   C31 6004   2.234   6.037   2.904  0.1301  0.3990  0.6716
   70SAPC   O32 6005   2.265   6.006   2.789 -0.0004  0.5232 -0.3320
   70SAPC   C32 6006   2.330   6.050   3.020  0.9739 -0.0574  0.0102
   70SAPC   H2X 6007   2.294   6.130   3.089 -1.6271 -1.7987  0.7997
   70SAPC   H2Y 6008   2.423   6.089   2.974  0.6481  0.1813 -0.4518
   70SAPC   C23 6009   1.761   6.014   3.250 -0.0794  0.2617  0.7033
   70SAPC   H3R 6010   1.872   6.019   3.252 -0.1452  2.6580  1.5099
   70SAPC   H3S 6011   1.737   5.955   3.342 -2.0046 -0.1669 -0.0178
   70SAPC   C24 6012   1.698   6.154   3.272 -0.3577 -0.5501 -0.1329
   70SAPC   H4R 6013   1.597   6.140   3.316  0.0510 -2.2700  0.3422
   70SAPC   H4S 6014   1.683   6.217   3.181  0.1176  1.3336  1.0439
   70SAPC   C25 6015   1.780   6.244   3.368  0.6199 -0.3622  0.8668
   70SAPC   H5R 6016   1.877   6.269   3.323 -0.2786  1.1661 -0.3008
   70SAPC   C26 6017   1.761   6.284   3.497 -0.3384 -0.0242 -0.3490
   70SAPC   H6R 6018   1.837   6.353   3.537  1.5704 -0.9664 -2.1144
   70SAPC   C27 6019   1.630   6.264   3.580 -0.0383  0.6217 -0.6061
   70SAPC   H7R 6020   1.563   6.187   3.537 -2.1088  1.7285  0.4648
   70SAPC   H7S 6021   1.565   6.353   3.569 -4.9333 -2.8544 -3.5365
   70SAPC   C28 6022   1.664   6.236   3.726  0.2127 -0.5894  0.2140
   70SAPC   H8R 6023   1.674   6.318   3.798  1.8771 -0.4393 -0.1394
   70SAPC   C29 6024   1.682   6.111   3.767 -0.3097 -0.6484  0.5963
   70SAPC   H9R 6025   1.717   6.092   3.870  1.0862 -0.0458  0.2577
   70SAPC  C210 6026   1.674   5.984   3.686  0.8171 -0.2091 -0.3272
   70SAPC  H10R 6027   1.745   5.995   3.601  0.1053 -0.7984 -1.0088
   70SAPC  H10S 6028   1.567   5.981   3.654  0.5568 -1.0503  0.5889
   70SAPC  C211 6029   1.700   5.860   3.764  0.0612  1.0742  0.3129
   70SAPC  H11R 6030   1.665   5.864   3.868 -1.0546  0.7602 -0.0266
   70SAPC  C212 6031   1.752   5.745   3.711 -0.0106  0.0670  0.0467
   70SAPC  H12R 6032   1.772   5.656   3.774  0.5398 -0.6850 -1.1497
   70SAPC  C213 6033   1.813   5.723   3.576  0.3608  0.0600  0.0714
   70SAPC  H13R 6034   1.924   5.732   3.586  0.1168  2.6906  1.1488
   70SAPC  H13S 6035   1.773   5.801   3.507 -0.0973  2.0545  2.4649
   70SAPC  C214 6036   1.780   5.585   3.520 -0.7033 -0.3959  1.1229
   70SAPC  H14R 6037   1.691   5.529   3.554 -1.8034  0.8680  0.4434
   70SAPC  C215 6038   1.853   5.520   3.428  0.0493  0.5502  0.4311
   70SAPC  H15R 6039   1.810   5.424   3.395 -0.8684  0.6348  1.3195
   70SAPC  C216 6040   1.982   5.557   3.361 -0.0174 -0.5827 -0.0344
   70SAPC  H16R 6041   2.048   5.469   3.374  0.4025 -0.0070  2.0177
   70SAPC  H16S 6042   2.034   5.643   3.407  0.6919 -0.3483 -1.2372
   70SAPC  C217 6043   1.973   5.614   3.220  0.6609  0.1991  0.3624
   70SAPC  H17R 6044   2.074   5.653   3.196  0.8901 -0.7749 -0.3165
   70SAPC  H17S 6045   1.907   5.704   3.217  0.8136  0.2854 -0.4275
   70SAPC  C218 6046   1.924   5.513   3.121  0.4363  0.5809  0.3761
   70SAPC  H18R 6047   1.826   5.476   3.156  0.5787  0.4295  0.6226
   70SAPC  H18S 6048   1.992   5.426   3.133  0.0697  0.6910  5.9735
   70SAPC  C219 6049   1.936   5.557   2.971  0.3036 -0.2622 -0.4425
   70SAPC  H19R 6050   1.848   5.619   2.943 -0.9062 -1.5076  0.4530
   70SAPC  H19S 6051   1.927   5.457   2.922 -2.6794 -0.4831  0.3475
   70SAPC  C220 6052   2.055   5.637   2.932  0.2287 -0.6037  0.0076
   70SAPC  H20R 6053   2.059   5.743   2.965 -1.0163 -0.4865 -0.1505
   70SAPC  H20S 6054   2.067   5.638   2.821 -0.0792 -0.4593 -0.0279
   70SAPC  H20T 6055   2.148   5.587   2.965  0.3610 -0.2664  0.1509
   70SAPC   C33 6056   2.358   5.927   3.107 -0.3721  0.3149 -0.2102
   70SAPC   H3X 6057   2.431   5.866   3.049 -0.2065 -0.1955  0.5169
   70SAPC   H3Y 6058   2.262   5.871   3.110 -0.1762 -0.1193 -1.3911
   70SAPC   C34 6059   2.403   5.969   3.243 -0.1231 -0.4126  0.0003
   70SAPC   H4X 6060   2.338   6.054   3.272  2.1991  1.6115 -0.4430
   70SAPC   H4Y 6061   2.509   6.000   3.234  0.2835 -1.6685  0.2072
   70SAPC   C35 6062   2.391   5.856   3.347  0.3280 -0.2512  0.0507
   70SAPC   H5X 6063   2.296   5.806   3.319  0.3073  0.2934 -0.9150
   70SAPC   H5Y 6064   2.379   5.897   3.450  1.0323  0.4736 -0.1431
   70SAPC   C36 6065   2.500   5.745   3.343  0.2748  0.1936 -0.5441
   70SAPC   H6X 6066   2.592   5.806   3.342  0.3515  0.1060  0.2243
   70SAPC   H6Y 6067   2.501   5.684   3.251 -1.1666  0.4717 -0.7758
   70SAPC   C37 6068   2.488   5.663   3.466  0.4572 -0.0380  0.8248
   70SAPC   H7X 6069   2.575   5.595   3.477 -1.6113 -2.7845  1.4201
   70SAPC   H7Y 6070   2.510   5.724   3.557  1.4778  2.1706 -0.8017
   70SAPC   C38 6071   2.360   5.585   3.489 -0.0851 -0.0224 -0.0325
   70SAPC   H8X 6072   2.335   5.514   3.407 -0.4058 -0.9342  0.8333
   70SAPC   H8Y 6073   2.269   5.647   3.500 -0.5441 -0.8727  1.2719
   70SAPC   C39 6074   2.363   5.495   3.611  0.3164 -0.2244 -0.5200
   70SAPC   H9X 6075   2.357   5.566   3.697  0.0873 -1.1528  0.2490
   70SAPC   H9Y 6076   2.458   5.438   3.620  0.4304 -0.0339 -0.4812
   70SAPC  C310 6077   2.242   5.399   3.613  0.3569 -0.8219 -0.3045
   70SAPC  H10X 6078   2.282   5.320   3.547 -1.6158 -2.3956  0.3015
   70SAPC  H10Y 6079   2.159   5.447   3.557  1.9531 -0.7557 -2.7196
   70SAPC  C311 6080   2.209   5.346   3.753 -0.7450  0.1640  0.8907
   70SAPC  H11X 6081   2.293   5.296   3.807 -0.6673 -2.6605 -1.5920
   70SAPC  H11Y 6082   2.138   5.265   3.724 -0.3875  0.4525 -0.9146
   70SAPC  C312 6083   2.144   5.446   3.848 -0.5087  0.6765 -0.2246
   70SAPC  H12X 6084   2.062   5.492   3.790  0.6776  2.5027 -0.5401
   70SAPC  H12Y 6085   2.221   5.518   3.882  1.3238 -1.0290 -0.5561
   70SAPC  C313 6086   2.078   5.376   3.965 -0.9639  0.5445 -0.2696
   70SAPC  H13X 6087   2.027   5.284   3.929 -0.5072  0.2860 -0.2634
   70SAPC  H13Y 6088   1.996   5.437   4.009 -1.1358 -0.9484  1.6394
   70SAPC  C314 6089   2.183   5.331   4.075  0.1563 -0.5758  0.8191
   70SAPC  H14X 6090   2.230   5.424   4.113  1.9958 -1.1801  0.1167
   70SAPC  H14Y 6091   2.265   5.272   4.028 -2.3110 -3.8486  0.2327
   70SAPC  C315 6092   2.142   5.244   4.184 -0.1505 -0.0986 -0.5879
   70SAPC  H15X 6093   2.098   5.149   4.148  2.0133 -2.4710  2.4727
   70SAPC  H15Y 6094   2.061   5.287   4.247 -0.1044  0.6775 -1.0399
   70SAPC  C316 6095   2.256   5.204   4.289  0.0984  0.6260  0.1513
   70SAPC  H16X 6096   2.317   5.295   4.309  1.2350 -0.2318  0.7786
   70SAPC  H16Y 6097   2.318   5.129   4.235  0.5016  1.9854 -1.3560
   70SAPC  C317 6098   2.214   5.143   4.425 -0.4016  0.4522  0.0477
   70SAPC  H17X 6099   2.310   5.104   4.463  0.3199  1.8856 -0.2241
   70SAPC  H17Y 6100   2.140   5.062   4.408  0.2375 -0.1315 -0.0204
   70SAPC  C318 6101   2.152   5.249   4.526 -0.1843  0.0869  0.4953
   70SAPC  H18X 6102   2.218   5.338   4.531 -0.9464  0.6689  0.3910
   70SAPC  H18Y 6103   2.138   5.203   4.626 -0.7115  1.2588  0.9763
   70SAPC  H18Z 6104   2.053   5.282   4.489  0.0177  0.6842  0.4810
   71SAPC     N 6105   6.086   3.295   2.025  0.6956  0.1090  0.0739
   71SAPC   C12 6106   6.119   3.361   2.158 -0.5315 -0.6581 -0.3772
   71SAPC  H12A 6107   6.090   3.465   2.163 -1.1100 -0.8078 -0.5024
   71SAPC  H12B 6108   6.225   3.366   2.176 -0.5811  3.3474 -0.2288
   71SAPC   C13 6109   5.935   3.312   1.998 -0.8182  0.0023 -0.1374
   71SAPC  H13A 6110   5.917   3.279   1.896 -3.1178 -1.4298  0.6517
   71SAPC  H13B 6111   5.878   3.253   2.068  0.7567 -1.3733  0.0399
   71SAPC  H13C 6112   5.915   3.418   1.991  0.9493  0.2764 -2.1992
   71SAPC   C14 6113   6.151   3.363   1.905 -0.1296 -0.0581 -0.4854
   71SAPC  H14A 6114   6.258   3.377   1.916 -0.2554  0.7748 -0.2269
   71SAPC  H14B 6115   6.136   3.305   1.816  1.1541 -0.1310 -0.6815
   71SAPC  H14C 6116   6.116   3.465   1.890 -1.2978 -0.8441 -4.0131
   71SAPC   C15 6117   6.113   3.154   2.006 -0.4742  0.5966  0.9276
   71SAPC  H15A 6118   6.070   3.112   1.916  1.2098  2.2222 -0.7338
   71SAPC  H15B 6119   6.220   3.145   1.995 -0.5119  0.4366  0.6741
   71SAPC  H15C 6120   6.081   3.111   2.099 -2.3563  0.9034  0.4583
   71SAPC   C11 6121   6.067   3.292   2.293  0.0356  0.0879 -0.1183
   71SAPC  H11A 6122   5.956   3.291   2.282  0.0633 -1.3396 -0.4071
   71SAPC  H11B 6123   6.105   3.362   2.371  2.1577 -2.4946  1.3282
   71SAPC     P 6124   6.245   3.148   2.429  0.4175  0.2948 -0.1163
   71SAPC   O13 6125   6.298   3.009   2.418  0.5501 -0.0452 -0.1945
   71SAPC   O14 6126   6.348   3.256   2.407  0.2980 -0.0479 -0.0659
   71SAPC   O12 6127   6.129   3.163   2.316  0.1665 -0.2194 -0.4122
   71SAPC   O11 6128   6.177   3.172   2.569 -0.0555  0.3908 -0.2208
   71SAPC    C1 6129   6.148   3.055   2.653  0.7772  0.2969 -0.2034
   71SAPC    HA 6130   6.038   3.041   2.661  0.6603 -0.1047 -1.9816
   71SAPC    HB 6131   6.183   2.954   2.622  1.0278  0.2687  0.1590
   71SAPC    C2 6132   6.191   3.075   2.802  0.0305  0.4620  0.1159
   71SAPC    HS 6133   6.175   2.981   2.858 -0.4571 -0.0939 -0.9384
   71SAPC   O21 6134   6.128   3.190   2.867 -0.3544  1.0215 -0.3028
   71SAPC   C21 6135   6.005   3.184   2.881  1.2645  0.5647  0.7198
   71SAPC   O22 6136   5.932   3.089   2.868 -0.2028 -0.0461  0.7235
   71SAPC   C22 6137   5.948   3.323   2.926  0.0701  0.7170  0.4614
   71SAPC   H2R 6138   6.014   3.405   2.891  2.3439  0.6693  4.1340
   71SAPC   H2S 6139   5.848   3.333   2.877 -0.0059  1.7171  0.7923
   71SAPC    C3 6140   6.341   3.093   2.808 -0.3738 -1.0786  0.4449
   71SAPC    HX 6141   6.358   3.191   2.758  0.3704 -2.0612 -1.3055
   71SAPC    HY 6142   6.396   3.026   2.738  1.2735  1.7525 -1.1912
   71SAPC   O31 6143   6.393   3.091   2.939  0.5810  0.6965 -0.2598
   71SAPC   C31 6144   6.476   3.182   2.978  0.2461  0.2596  0.1910
   71SAPC   O32 6145   6.515   3.282   2.920  0.2229  0.5712  0.0658
   71SAPC   C32 6146   6.520   3.146   3.123 -0.6814 -0.2665 -0.5400
   71SAPC   H2X 6147   6.631   3.149   3.122 -0.6720  1.0281  0.9265
   71SAPC   H2Y 6148   6.490   3.042   3.148  3.3218 -1.7157 -1.0664
   71SAPC   C23 6149   5.961   3.329   3.080 -0.0024 -0.2648  0.0573
   71SAPC   H3R 6150   5.965   3.231   3.132 -1.4599 -0.8268 -0.8269
   71SAPC   H3S 6151   5.871   3.380   3.120  1.1524  1.3451  0.7393
   71SAPC   C24 6152   6.080   3.419   3.120 -0.3784  0.8271 -0.9676
   71SAPC   H4R 6153   6.056   3.520   3.082  1.2193  1.4176 -0.4857
   71SAPC   H4S 6154   6.168   3.375   3.068  0.7769  0.9020  0.8401
   71SAPC   C25 6155   6.108   3.425   3.275  0.0452 -0.2900 -0.1948
   71SAPC   H5R 6156   6.072   3.346   3.343  0.2904 -0.0747  0.1887
   71SAPC   C26 6157   6.171   3.528   3.334  0.2800 -0.1534  0.0540
   71SAPC   H6R 6158   6.172   3.531   3.444  0.3968 -2.3615  0.1696
   71SAPC   C27 6159   6.246   3.637   3.260  0.0192  0.4593 -0.4717
   71SAPC   H7R 6160   6.193   3.732   3.280  0.7646  0.7398  0.2256
   71SAPC   H7S 6161   6.231   3.616   3.152 -0.8443  0.5972 -0.3850
   71SAPC   C28 6162   6.386   3.666   3.303 -0.2300 -0.9073  0.1033
   71SAPC   H8R 6163   6.388   3.672   3.413 -3.1295  2.6157  0.1512
   71SAPC   C29 6164   6.493   3.672   3.224  0.3260  0.4401  0.4973
   71SAPC   H9R 6165   6.593   3.696   3.261  0.3367  0.8097  0.2416
   71SAPC  C210 6166   6.485   3.642   3.070 -0.2351  0.2485  0.8842
   71SAPC  H10R 6167   6.387   3.667   3.026 -0.1380 -0.1978  0.4103
   71SAPC  H10S 6168   6.489   3.532   3.055  1.4582  0.3966 -0.0606
   71SAPC  C211 6169   6.606   3.688   2.981 -0.3120 -0.8328 -0.5609
   71SAPC  H11R 6170   6.699   3.634   3.003 -1.2175 -1.5890  1.8048
   71SAPC  C212 6171   6.608   3.790   2.895  0.3708  0.1821 -0.2947
   71SAPC  H12R 6172   6.696   3.811   2.831 -0.0627  1.0849 -0.6010
   71SAPC  C213 6173   6.489   3.882   2.862  0.9217  0.1065  0.5293
   71SAPC  H13R 6174   6.523   3.983   2.832 -0.3819 -0.2285 -2.3531
   71SAPC  H13S 6175   6.434   3.900   2.957  2.4685 -0.5587  1.6030
   71SAPC  C214 6176   6.391   3.833   2.756 -0.8806 -0.0701 -0.2246
   71SAPC  H14R 6177   6.441   3.758   2.693  0.2783  0.0136  0.5481
   71SAPC  C215 6178   6.257   3.861   2.747 -0.0085  0.0291  0.2970
   71SAPC  H15R 6179   6.194   3.831   2.662  0.1322  0.7523 -0.0787
   71SAPC  C216 6180   6.197   3.968   2.830 -0.2247 -0.3263  0.1646
   71SAPC  H16R 6181   6.157   4.052   2.770  3.3082  1.5957  0.2011
   71SAPC  H16S 6182   6.273   4.020   2.892  1.4232 -2.9886  0.5465
   71SAPC  C217 6183   6.076   3.925   2.921 -0.7904 -0.2322 -0.2741
   71SAPC  H17R 6184   6.114   3.869   3.009 -1.1965 -0.0019  0.0507
   71SAPC  H17S 6185   5.999   3.872   2.862 -0.6085  1.3197 -2.0292
   71SAPC  C218 6186   5.998   4.046   2.982 -1.0931  0.1352  0.4628
   71SAPC  H18R 6187   5.957   4.104   2.896 -1.2770  0.7583  0.9698
   71SAPC  H18S 6188   6.073   4.111   3.032 -0.4494  1.4170 -1.9759
   71SAPC  C219 6189   5.885   4.013   3.070 -0.4106 -0.9551 -1.3775
   71SAPC  H19R 6190   5.930   3.966   3.160  0.4428  1.3444 -0.5393
   71SAPC  H19S 6191   5.817   3.940   3.021 -0.8285 -0.9547 -0.8165
   71SAPC  C220 6192   5.800   4.135   3.098 -0.7122  0.0369  0.3852
   71SAPC  H20R 6193   5.862   4.210   3.152  0.1634 -1.5138  1.5973
   71SAPC  H20S 6194   5.711   4.122   3.164 -0.9951  1.4604  0.3142
   71SAPC  H20T 6195   5.758   4.190   3.011  0.1227 -1.1792 -0.8194
   71SAPC   C33 6196   6.472   3.260   3.224 -0.0896  0.0996  0.1796
   71SAPC   H3X 6197   6.362   3.274   3.221  0.0082  1.0086  0.4743
   71SAPC   H3Y 6198   6.521   3.355   3.191 -0.8709 -0.2216 -2.0551
   71SAPC   C34 6199   6.516   3.236   3.369  0.1125 -0.4978 -0.0832
   71SAPC   H4X 6200   6.625   3.213   3.370  0.3402  0.5325  0.9337
   71SAPC   H4Y 6201   6.458   3.152   3.411  1.0449  0.0595  2.5792
   71SAPC   C35 6202   6.485   3.375   3.451  0.3027 -0.4866  0.0291
   71SAPC   H5X 6203   6.384   3.410   3.421  1.1745  1.3803 -0.9075
   71SAPC   H5Y 6204   6.552   3.450   3.404 -0.9409 -0.7267 -2.2553
   71SAPC   C36 6205   6.500   3.353   3.601 -0.0377 -0.2520  0.2356
   71SAPC   H6X 6206   6.598   3.309   3.628 -0.5903 -0.9158  1.2815
   71SAPC   H6Y 6207   6.408   3.294   3.624 -0.8694  1.3665  1.2945
   71SAPC   C37 6208   6.488   3.486   3.690  0.3888  0.0125  0.5468
   71SAPC   H7X 6209   6.400   3.551   3.668 -1.2899 -2.4734 -0.5635
   71SAPC   H7Y 6210   6.582   3.541   3.672  0.4184  0.2190  1.2973
   71SAPC   C38 6211   6.470   3.448   3.840  0.1609  0.4045  0.0608
   71SAPC   H8X 6212   6.373   3.399   3.862  0.5709 -1.5902 -2.2113
   71SAPC   H8Y 6213   6.478   3.539   3.904  1.8992 -0.0153  0.4999
   71SAPC   C39 6214   6.572   3.355   3.903  0.1111  0.2387 -0.8887
   71SAPC   H9X 6215   6.676   3.393   3.895  0.3512  0.1690  1.3358
   71SAPC   H9Y 6216   6.575   3.256   3.853  2.4682  0.0168 -0.4275
   71SAPC  C310 6217   6.544   3.325   4.057  0.1452  0.2469 -0.0954
   71SAPC  H10X 6218   6.439   3.293   4.079  0.3233  0.3664  0.9888
   71SAPC  H10Y 6219   6.577   3.412   4.117  1.0980  0.1524 -0.4750
   71SAPC  C311 6220   6.625   3.198   4.091 -0.3951  0.0802 -0.4027
   71SAPC  H11X 6221   6.732   3.213   4.063  0.1894 -0.0236  1.6215
   71SAPC  H11Y 6222   6.600   3.111   4.027  2.1881 -1.4430  0.5139
   71SAPC  C312 6223   6.606   3.162   4.238  0.4501  0.0594 -0.2991
   71SAPC  H12X 6224   6.630   3.257   4.292  1.7806  0.2241 -1.1327
   71SAPC  H12Y 6225   6.689   3.091   4.254  1.5060  1.5507  1.2177
   71SAPC  C313 6226   6.473   3.106   4.282  0.3706  0.0968  0.1477
   71SAPC  H13X 6227   6.431   3.063   4.189  0.0337 -0.9909  0.7866
   71SAPC  H13Y 6228   6.418   3.197   4.314 -0.8048  0.3086 -2.2728
   71SAPC  C314 6229   6.459   3.006   4.401 -0.2979 -0.1408  0.5050
   71SAPC  H14X 6230   6.501   3.048   4.494 -1.5183 -0.1103  1.0683
   71SAPC  H14Y 6231   6.522   2.922   4.363  0.7721  1.3979 -1.3153
   71SAPC  C315 6232   6.313   2.954   4.425  0.7514  1.0107 -0.2209
   71SAPC  H15X 6233   6.299   2.871   4.497 -0.4668 -0.3646 -1.9724
   71SAPC  H15Y 6234   6.268   2.926   4.328 -1.2690 -1.4778  1.3139
   71SAPC  C316 6235   6.225   3.062   4.489  0.3163  0.0836  0.1482
   71SAPC  H16X 6236   6.231   3.161   4.440 -0.7556  1.0733  1.9194
   71SAPC  H16Y 6237   6.260   3.088   4.591 -0.7807 -1.2224  0.8830
   71SAPC  C317 6238   6.078   3.024   4.474  0.1817 -0.2013 -0.0240
   71SAPC  H17X 6239   6.052   3.047   4.368  3.6811 -1.8206 -1.4047
   71SAPC  H17Y 6240   6.024   3.098   4.537  0.1181 -0.9819  0.8584
   71SAPC  C318 6241   6.028   2.887   4.513 -0.2943  0.3621 -0.4112
   71SAPC  H18X 6242   6.102   2.834   4.577 -1.9534 -0.3938  0.9829
   71SAPC  H18Y 6243   6.010   2.815   4.430 -1.0241 -2.5406  2.0704
   71SAPC  H18Z 6244   5.927   2.887   4.559 -0.7943  0.0945 -1.4792
   72SAPC     N 6245   2.774   3.809   2.231 -0.2258 -0.4773 -0.1769
   72SAPC   C12 6246   2.779   3.949   2.278 -0.3606  0.3830 -0.0855
   72SAPC  H12A 6247   2.724   4.008   2.207  2.3658 -0.2499 -2.9220
   72SAPC  H12B 6248   2.882   3.980   2.270 -0.4623  0.3913 -1.6943
   72SAPC   C13 6249   2.799   3.798   2.084 -0.3006 -0.2957  0.3074
   72SAPC  H13A 6250   2.896   3.840   2.065  0.1492 -2.0196 -1.5311
   72SAPC  H13B 6251   2.809   3.694   2.055  0.7671  0.2102 -1.2438
   72SAPC  H13C 6252   2.737   3.854   2.016  1.2192 -0.3045 -1.1585
   72SAPC   C14 6253   2.870   3.723   2.305  0.0189 -0.0679  0.2296
   72SAPC  H14A 6254   2.848   3.700   2.408  3.9980  0.2617  1.3300
   72SAPC  H14B 6255   2.875   3.627   2.255  1.1045 -0.7356  1.5503
   72SAPC  H14C 6256   2.972   3.758   2.297 -0.6897  1.7119 -1.8435
   72SAPC   C15 6257   2.641   3.745   2.252 -0.0767 -0.0795  0.1647
   72SAPC  H15A 6258   2.619   3.735   2.357  2.8196 -0.7105  0.7920
   72SAPC  H15B 6259   2.571   3.821   2.222 -1.0930 -0.4729  1.4608
   72SAPC  H15C 6260   2.630   3.654   2.193  1.6836  1.0650 -2.0848
   72SAPC   C11 6261   2.746   3.978   2.427 -0.1501 -0.9700  0.5917
   72SAPC  H11A 6262   2.651   3.924   2.452 -2.0054  0.8557 -2.0665
   72SAPC  H11B 6263   2.725   4.082   2.457 -1.0130 -1.0407  0.2649
   72SAPC     P 6264   2.991   3.999   2.506 -0.5141  0.2125  0.2512
   72SAPC   O13 6265   3.079   3.883   2.529 -0.3296  0.5584 -0.0876
   72SAPC   O14 6266   3.007   4.070   2.380 -0.1159 -0.6584 -0.4106
   72SAPC   O12 6267   2.847   3.929   2.512  0.4189 -0.1693  0.0425
   72SAPC   O11 6268   3.002   4.095   2.629 -0.0307 -0.0197  0.0314
   72SAPC    C1 6269   2.927   4.104   2.748 -0.3693  0.5010  0.1711
   72SAPC    HA 6270   2.918   4.213   2.766 -0.6034  0.4826  0.1706
   72SAPC    HB 6271   2.825   4.059   2.742  0.1129 -0.7161  0.8494
   72SAPC    C2 6272   3.010   4.051   2.864  0.3109 -0.5229 -0.0482
   72SAPC    HS 6273   3.047   3.946   2.856  1.8415 -0.0973  0.9879
   72SAPC   O21 6274   2.926   4.059   2.991 -0.6369  0.5407  0.4830
   72SAPC   C21 6275   2.864   3.950   3.017 -0.8797  0.6969  0.4972
   72SAPC   O22 6276   2.859   3.848   2.947  0.6295  0.3015  0.1651
   72SAPC   C22 6277   2.777   3.973   3.142  0.1898  0.2028 -0.0665
   72SAPC   H2R 6278   2.796   4.072   3.189 -0.5938  1.3805 -2.1102
   72SAPC   H2S 6279   2.672   3.977   3.106 -0.1333  0.5614  0.8880
   72SAPC    C3 6280   3.145   4.133   2.888 -0.0835 -0.4541 -0.4496
   72SAPC    HX 6281   3.126   4.242   2.901  4.6330  0.3724  1.4796
   72SAPC    HY 6282   3.198   4.127   2.791 -0.6756  1.1710 -0.8975
   72SAPC   O31 6283   3.212   4.087   3.005 -0.4098  0.0054 -0.5650
   72SAPC   C31 6284   3.291   3.977   2.993 -0.6573  1.0320  0.5738
   72SAPC   O32 6285   3.319   3.912   2.891 -0.6035 -0.9464  0.0188
   72SAPC   C32 6286   3.340   3.938   3.142  0.0262  0.3048 -0.0209
   72SAPC   H2X 6287   3.310   3.833   3.163 -1.3784  1.1621  2.8333
   72SAPC   H2Y 6288   3.281   3.992   3.220  0.7315  1.1841 -0.0734
   72SAPC   C23 6289   2.810   3.862   3.247  0.1112 -0.1993 -0.3654
   72SAPC   H3R 6290   2.769   3.766   3.210  0.8159  0.0163 -1.7889
   72SAPC   H3S 6291   2.760   3.890   3.342 -2.0352 -0.4912 -1.3423
   72SAPC   C24 6292   2.962   3.848   3.295  0.2750 -0.9552  0.3202
   72SAPC   H4R 6293   2.997   3.945   3.336  1.0679 -1.7972  1.6978
   72SAPC   H4S 6294   3.026   3.818   3.209  1.0248 -1.7505  1.1419
   72SAPC   C25 6295   2.996   3.731   3.385  0.5554  0.2453 -0.4139
   72SAPC   H5R 6296   2.949   3.635   3.361 -0.9360  1.0522 -0.8479
   72SAPC   C26 6297   3.087   3.732   3.485  1.2808 -0.0095 -0.0533
   72SAPC   H6R 6298   3.113   3.630   3.517 -0.3213  0.1045  1.7859
   72SAPC   C27 6299   3.165   3.840   3.544  0.5213  0.5818 -0.1986
   72SAPC   H7R 6300   3.126   3.944   3.542  2.7316  1.4758 -0.5395
   72SAPC   H7S 6301   3.256   3.862   3.483  2.1076  2.1642  2.5460
   72SAPC   C28 6302   3.210   3.813   3.678  0.0572  0.7992  0.0886
   72SAPC   H8R 6303   3.305   3.758   3.682  0.4814  1.2873 -2.0843
   72SAPC   C29 6304   3.163   3.858   3.794  0.4857 -0.1186 -0.3503
   72SAPC   H9R 6305   3.225   3.832   3.881 -2.2058 -0.5573  1.5894
   72SAPC  C210 6306   3.047   3.957   3.817 -0.1283 -0.3324  0.4633
   72SAPC  H10R 6307   2.993   3.942   3.913  0.1177  0.6857  0.7720
   72SAPC  H10S 6308   2.977   3.942   3.732  0.8603 -1.1650 -0.2288
   72SAPC  C211 6309   3.112   4.093   3.821 -0.4996  0.3059  0.1335
   72SAPC  H11R 6310   3.215   4.093   3.860 -0.6987 -0.5438  0.6689
   72SAPC  C212 6311   3.048   4.208   3.792 -0.2057  0.2426  0.4914
   72SAPC  H12R 6312   3.101   4.303   3.809  0.0005  0.3928 -0.8638
   72SAPC  C213 6313   2.906   4.234   3.734  0.6672 -0.7267  0.2579
   72SAPC  H13R 6314   2.873   4.142   3.682  0.5830  0.1146 -1.2474
   72SAPC  H13S 6315   2.906   4.302   3.645  1.2479 -1.1287 -0.0566
   72SAPC  C214 6316   2.812   4.276   3.845  0.4368  0.5117 -0.4959
   72SAPC  H14R 6317   2.780   4.195   3.911  0.3938  1.2998  0.4756
   72SAPC  C215 6318   2.795   4.399   3.890  0.4252 -0.1654 -0.0552
   72SAPC  H15R 6319   2.720   4.413   3.969 -2.9038 -1.7885 -2.6417
   72SAPC  C216 6320   2.855   4.526   3.849 -0.5891 -0.0970 -0.2114
   72SAPC  H16R 6321   2.925   4.504   3.766 -0.4065 -2.3721  0.4869
   72SAPC  H16S 6322   2.924   4.564   3.928  0.2252  0.4181 -1.1355
   72SAPC  C217 6323   2.748   4.626   3.799  0.7360  0.3825  0.0124
   72SAPC  H17R 6324   2.790   4.728   3.793 -0.2465  0.7141 -2.1724
   72SAPC  H17S 6325   2.663   4.624   3.870  0.0949 -1.3203 -0.7398
   72SAPC  C218 6326   2.687   4.597   3.662 -0.0092  0.6658  0.3288
   72SAPC  H18R 6327   2.612   4.671   3.626  2.5676  1.0024 -5.2540
   72SAPC  H18S 6328   2.639   4.497   3.669  1.8376 -0.1847  1.7599
   72SAPC  C219 6329   2.786   4.607   3.542 -0.4634  0.4939 -0.2617
   72SAPC  H19R 6330   2.725   4.601   3.449 -0.8613  1.4577 -0.0798
   72SAPC  H19S 6331   2.857   4.522   3.542 -0.4968  0.3682 -3.2774
   72SAPC  C220 6332   2.864   4.740   3.529 -0.2559 -0.4172  0.4946
   72SAPC  H20R 6333   2.787   4.821   3.532  0.4442  0.3414 -0.8806
   72SAPC  H20S 6334   2.924   4.743   3.436  1.1680 -2.9121  1.2588
   72SAPC  H20T 6335   2.928   4.753   3.618 -0.0900  0.4498  0.2608
   72SAPC   C33 6336   3.496   3.947   3.167  0.4815  0.0609  0.4290
   72SAPC   H3X 6337   3.546   3.872   3.102  1.5701  1.3391 -0.2642
   72SAPC   H3Y 6338   3.515   3.931   3.275 -1.9336  0.7060  1.0173
   72SAPC   C34 6339   3.559   4.085   3.137 -0.6840  0.0726 -0.8694
   72SAPC   H4X 6340   3.524   4.167   3.204  0.1277 -0.0120 -0.3273
   72SAPC   H4Y 6341   3.527   4.116   3.035 -2.5274 -2.4201 -1.1397
   72SAPC   C35 6342   3.709   4.099   3.144 -0.6478  0.0999  0.3014
   72SAPC   H5X 6343   3.763   4.042   3.065 -1.5326 -0.7285  0.2752
   72SAPC   H5Y 6344   3.734   4.054   3.242 -0.4624  0.4030  0.3945
   72SAPC   C36 6345   3.756   4.246   3.145 -0.2542  0.1693  0.4364
   72SAPC   H6X 6346   3.734   4.290   3.045 -1.5167 -1.9304 -0.2596
   72SAPC   H6Y 6347   3.865   4.249   3.166 -0.3962  0.4087  1.1994
   72SAPC   C37 6348   3.687   4.352   3.240 -0.0623  0.5410  0.3307
   72SAPC   H7X 6349   3.577   4.348   3.248 -0.3940  1.9711 -2.4961
   72SAPC   H7Y 6350   3.710   4.453   3.200  1.5038  0.2097  0.3007
   72SAPC   C38 6351   3.756   4.347   3.380 -0.0818  0.7426 -0.4634
   72SAPC   H8X 6352   3.866   4.334   3.369 -0.5557 -2.9170 -2.6256
   72SAPC   H8Y 6353   3.721   4.253   3.428  1.3232  1.1226  1.4067
   72SAPC   C39 6354   3.723   4.471   3.455  0.2121 -0.8772  0.4455
   72SAPC   H9X 6355   3.613   4.479   3.445  0.3233  0.6599  0.2377
   72SAPC   H9Y 6356   3.758   4.555   3.392 -0.1786 -2.2641 -1.7221
   72SAPC  C310 6357   3.776   4.476   3.602  0.0296 -0.7798 -0.1443
   72SAPC  H10X 6358   3.887   4.466   3.596 -0.1625 -2.4468 -2.9220
   72SAPC  H10Y 6359   3.722   4.396   3.657  2.4123 -0.9343  2.1605
   72SAPC  C311 6360   3.726   4.606   3.670 -0.7692  0.0948  0.9256
   72SAPC  H11X 6361   3.723   4.579   3.778  0.2047 -0.3350  0.8486
   72SAPC  H11Y 6362   3.620   4.631   3.646 -1.1434 -0.8197  1.5633
   72SAPC  C312 6363   3.825   4.715   3.670  0.0648 -0.8171  0.1505
   72SAPC  H12X 6364   3.832   4.778   3.579  1.4928 -0.7332  0.2808
   72SAPC  H12Y 6365   3.924   4.666   3.680  0.6879  0.5398  1.0502
   72SAPC  C313 6366   3.809   4.820   3.784 -0.4666 -0.2185  0.5429
   72SAPC  H13X 6367   3.867   4.791   3.874  1.7076 -1.0658 -1.0340
   72SAPC  H13Y 6368   3.702   4.832   3.810 -0.4669  2.3915 -0.4003
   72SAPC  C314 6369   3.849   4.967   3.748 -0.5148 -0.7016 -0.0353
   72SAPC  H14X 6370   3.771   5.010   3.681 -0.4089  3.6465  2.2986
   72SAPC  H14Y 6371   3.951   4.967   3.704 -0.5133  1.3279 -0.1370
   72SAPC  C315 6372   3.855   5.053   3.877  0.0444 -0.0242 -0.7134
   72SAPC  H15X 6373   3.755   5.037   3.922 -0.0472  1.0678 -0.5020
   72SAPC  H15Y 6374   3.852   5.164   3.870 -1.1164 -0.0674 -1.0731
   72SAPC  C316 6375   3.965   5.018   3.987 -0.0538 -0.4294  0.4638
   72SAPC  H16X 6376   4.053   4.994   3.925 -0.0525  1.7333 -0.4612
   72SAPC  H16Y 6377   3.928   4.929   4.043  3.1520 -1.9216  0.3800
   72SAPC  C317 6378   3.991   5.125   4.096 -0.0765 -0.0646  0.1920
   72SAPC  H17X 6379   3.905   5.127   4.166 -0.3888  0.0755 -0.1905
   72SAPC  H17Y 6380   4.001   5.222   4.041 -0.9349  0.2526  0.5789
   72SAPC  C318 6381   4.121   5.091   4.167  0.6512 -0.2048  0.0326
   72SAPC  H18X 6382   4.159   5.164   4.242  3.1107  0.0616 -1.3383
   72SAPC  H18Y 6383   4.207   5.092   4.097  2.1241 -0.7452  1.7483
   72SAPC  H18Z 6384   4.112   4.996   4.223  0.2558 -0.3264 -0.2358
   73SLPC     N 6385   1.040   1.803   7.221 -0.0736  0.3220  0.0693
   73SLPC   C13 6386   1.173   1.836   7.290 -0.4115 -0.0206  0.6742
   73SLPC  H13A 6387   1.227   1.911   7.234  0.9406 -2.4405 -1.4812
   73SLPC  H13B 6388   1.162   1.860   7.395  2.1892  0.0321  1.0062
   73SLPC  H13C 6389   1.230   1.745   7.285 -1.4551 -0.6154 -0.8868
   73SLPC   C14 6390   0.958   1.923   7.199 -0.3361  0.4073 -0.2903
   73SLPC  H14A 6391   0.949   1.981   7.290 -3.8175 -0.6382  0.1752
   73SLPC  H14B 6392   0.993   1.986   7.118  1.6333  0.2483  0.3735
   73SLPC  H14C 6393   0.859   1.887   7.177  0.4202 -0.1017 -3.2081
   73SLPC   C15 6394   0.956   1.713   7.311 -0.1331 -0.3069  0.2700
   73SLPC  H15A 6395   0.935   1.761   7.405  0.3250  0.5628 -0.0637
   73SLPC  H15B 6396   0.870   1.677   7.256  0.5048  0.4657 -1.3016
   73SLPC  H15C 6397   1.019   1.630   7.341  1.2221  0.8575  0.7347
   73SLPC   C12 6398   1.065   1.735   7.090  0.7017  0.6103  0.4114
   73SLPC  H12A 6399   0.973   1.738   7.033  1.0325 -1.4065 -0.3319
   73SLPC  H12B 6400   1.088   1.633   7.118  0.9393  0.7348  0.6730
   73SLPC   C11 6401   1.179   1.790   7.005 -0.4418 -0.2729  0.0352
   73SLPC  H11A 6402   1.184   1.901   7.008  0.9309 -0.2398 -1.5611
   73SLPC  H11B 6403   1.167   1.756   6.899 -4.8377 -2.8774  1.1076
   73SLPC     P 6404   1.379   1.608   7.017 -0.7269 -0.1817 -0.1170
   73SLPC   O13 6405   1.435   1.557   7.141 -0.0461  0.1946 -0.0998
   73SLPC   O14 6406   1.291   1.522   6.939  0.3165  0.3135 -0.2940
   73SLPC   O12 6407   1.301   1.740   7.055 -0.5035 -0.4007  0.1503
   73SLPC   O11 6408   1.492   1.659   6.925  1.0007  0.2762  0.2231
   73SLPC    C1 6409   1.491   1.633   6.784  1.3079 -0.0758 -0.1766
   73SLPC    HA 6410   1.592   1.596   6.758  1.3361  1.4602 -2.6044
   73SLPC    HB 6411   1.419   1.558   6.744 -0.6387  1.1412  0.8389
   73SLPC    C2 6412   1.472   1.769   6.712  0.5881 -1.0384 -0.0942
   73SLPC    HS 6413   1.371   1.812   6.729 -0.4741 -3.0465 -1.0295
   73SLPC   O21 6414   1.483   1.747   6.570 -0.5091  0.4128 -0.3558
   73SLPC   C21 6415   1.364   1.718   6.509 -0.5675 -0.4028 -0.4514
   73SLPC   O22 6416   1.256   1.706   6.561  0.3252 -0.0859 -0.3819
   73SLPC   C22 6417   1.393   1.693   6.362  0.5476  0.3228  0.2986
   73SLPC   H2R 6418   1.460   1.773   6.323 -0.3780  0.9026 -0.1334
   73SLPC   H2S 6419   1.441   1.593   6.361  1.1306  0.5907 -1.0801
   73SLPC    C3 6420   1.572   1.876   6.759  0.2628  0.1740  0.1744
   73SLPC    HX 6421   1.676   1.852   6.726  0.2884 -1.4494  1.2965
   73SLPC    HY 6422   1.562   1.877   6.869 -2.2623  0.5134 -0.0178
   73SLPC   O31 6423   1.536   2.007   6.708  0.1835 -0.3855  0.0484
   73SLPC   C31 6424   1.485   2.099   6.794 -0.0760  0.4393  0.4350
   73SLPC   O32 6425   1.463   2.082   6.912  0.0207 -0.0326  0.0035
   73SLPC   C32 6426   1.462   2.234   6.723  0.0820 -0.5639  0.4143
   73SLPC   H2X 6427   1.562   2.280   6.704 -0.2884 -0.6533 -2.0434
   73SLPC   H2Y 6428   1.403   2.292   6.797 -0.2502  2.0915 -1.7508
   73SLPC   C23 6429   1.262   1.692   6.272  0.7961 -0.2483 -0.5207
   73SLPC   H3R 6430   1.226   1.796   6.265  1.5506 -0.0987 -3.1775
   73SLPC   H3S 6431   1.188   1.624   6.318 -0.3931  0.3057 -1.5751
   73SLPC   C24 6432   1.285   1.640   6.129  0.1432  0.0916 -0.1185
   73SLPC   H4R 6433   1.367   1.700   6.084  0.8710  0.0153  1.0428
   73SLPC   H4S 6434   1.191   1.670   6.080 -0.6126 -0.3448  1.0245
   73SLPC   C25 6435   1.304   1.489   6.112 -0.4711  0.0421 -0.3660
   73SLPC   H5R 6436   1.218   1.441   6.163  1.4229 -3.4649 -0.1296
   73SLPC   H5S 6437   1.384   1.444   6.176 -0.0160  0.3808 -0.6927
   73SLPC   C26 6438   1.324   1.450   5.965  0.2593  0.3261  0.0496
   73SLPC   H6R 6439   1.234   1.464   5.901 -0.9811  0.6770  1.8068
   73SLPC   H6S 6440   1.325   1.339   5.968 -0.3880  0.1736 -2.5798
   73SLPC   C27 6441   1.452   1.493   5.905 -0.4833  0.0787 -0.4414
   73SLPC   H7R 6442   1.535   1.466   5.974  0.1804  3.3608  0.1943
   73SLPC   H7S 6443   1.456   1.601   5.881 -1.6183  0.3534  0.5292
   73SLPC   C28 6444   1.479   1.414   5.770  0.6121  0.2773  0.5734
   73SLPC   H8R 6445   1.422   1.470   5.693  0.9990  1.1325  0.8847
   73SLPC   H8S 6446   1.441   1.312   5.790  0.4554 -0.1284 -1.5682
   73SLPC   C29 6447   1.622   1.393   5.721 -0.0839  0.4216 -0.0867
   73SLPC   H9R 6448   1.666   1.486   5.683 -1.4389  1.9874  1.9345
   73SLPC  C210 6449   1.691   1.273   5.719 -0.6493 -0.1989 -0.7372
   73SLPC  H10R 6450   1.798   1.279   5.694 -0.2062 -1.1974  0.7852
   73SLPC  C211 6451   1.651   1.140   5.768  0.4617  0.2846  0.1888
   73SLPC  H11R 6452   1.606   1.076   5.689 -1.3294  2.0156 -0.2857
   73SLPC  H11S 6453   1.567   1.145   5.841  0.1040  2.1908 -0.2781
   73SLPC  C212 6454   1.772   1.069   5.828  0.0396 -0.1871 -0.4746
   73SLPC  H12R 6455   1.864   1.067   5.769  0.6990  1.9327  0.3679
   73SLPC  C213 6456   1.782   1.016   5.954  0.0323 -0.0323  0.1657
   73SLPC  H13R 6457   1.881   0.978   5.983  0.4232  1.0140  0.2544
   73SLPC  C214 6458   1.677   1.011   6.061 -0.0335 -0.5436 -0.5875
   73SLPC  H14R 6459   1.686   0.915   6.115  1.5607 -0.5659 -0.8389
   73SLPC  H14S 6460   1.573   1.020   6.024 -0.9056 -0.9788  1.6187
   73SLPC  C215 6461   1.689   1.130   6.165  0.1069  0.5642  0.4626
   73SLPC  H15R 6462   1.669   1.226   6.112 -2.0238  0.0768  0.2768
   73SLPC  H15S 6463   1.787   1.135   6.217  0.2269  3.5148  0.1290
   73SLPC  C216 6464   1.576   1.112   6.265  0.2081  0.4546  0.8085
   73SLPC  H16R 6465   1.585   1.008   6.304 -0.9204 -0.1688 -0.5027
   73SLPC  H16S 6466   1.485   1.112   6.201  0.8041  0.0915 -0.0603
   73SLPC  C217 6467   1.549   1.201   6.378  0.3619 -0.5381 -0.2457
   73SLPC  H17R 6468   1.520   1.303   6.347 -1.0355 -0.4068  1.3112
   73SLPC  H17S 6469   1.643   1.228   6.430  2.4839  0.2319 -4.1274
   73SLPC  C218 6470   1.437   1.135   6.467 -0.3069  0.1169 -0.2726
   73SLPC  H18R 6471   1.345   1.138   6.405 -1.1581 -0.5574  0.9120
   73SLPC  H18S 6472   1.420   1.174   6.570 -2.4238 -1.8060  0.1946
   73SLPC  H18T 6473   1.440   1.026   6.489 -0.2879  0.2288  0.3005
   73SLPC   C33 6474   1.370   2.243   6.591 -0.5749  0.4171  0.5895
   73SLPC   H3X 6475   1.352   2.351   6.573  2.5029  1.0721  0.9524
   73SLPC   H3Y 6476   1.269   2.203   6.613 -0.2465 -0.4205  0.6177
   73SLPC   C34 6477   1.431   2.180   6.462 -0.1934 -0.5124 -0.3936
   73SLPC   H4X 6478   1.465   2.080   6.497 -0.5815 -0.5133 -0.0081
   73SLPC   H4Y 6479   1.525   2.228   6.427 -0.1159 -0.6941 -0.4378
   73SLPC   C35 6480   1.326   2.170   6.355 -0.1332  0.2660 -0.2861
   73SLPC   H5X 6481   1.279   2.269   6.334 -0.9935  0.3351  1.6508
   73SLPC   H5Y 6482   1.259   2.092   6.397 -1.6943  1.1462 -1.0476
   73SLPC   C36 6483   1.355   2.110   6.218  0.1431 -0.4506 -0.0137
   73SLPC   H6X 6484   1.408   2.012   6.226 -1.3216 -1.2726 -0.0271
   73SLPC   H6Y 6485   1.415   2.187   6.166 -0.8333  0.4458  0.1509
   73SLPC   C37 6486   1.233   2.085   6.141 -0.5522 -0.1833 -0.4158
   73SLPC   H7X 6487   1.169   2.176   6.137  0.0378  0.3220  1.0772
   73SLPC   H7Y 6488   1.176   2.007   6.196 -2.9699  0.9373 -1.2047
   73SLPC   C38 6489   1.269   2.041   6.000  0.1393 -0.0157  0.0574
   73SLPC   H8X 6490   1.344   1.959   6.002 -1.2699 -1.5096  4.3419
   73SLPC   H8Y 6491   1.323   2.120   5.944  1.1611 -1.5097 -1.1594
   73SLPC   C39 6492   1.147   1.989   5.925 -0.4801 -0.2292  0.3359
   73SLPC   H9X 6493   1.077   2.075   5.912 -0.1253  0.2233  1.3330
   73SLPC   H9Y 6494   1.105   1.913   5.995  1.4264  0.3401  2.1789
   73SLPC  C310 6495   1.206   1.932   5.795 -0.1173 -0.7159  0.3416
   73SLPC  H10X 6496   1.303   1.881   5.815  0.7500 -0.1808 -2.1743
   73SLPC  H10Y 6497   1.236   2.014   5.726 -1.3136 -0.6559 -0.1389
   73SLPC  C311 6498   1.115   1.840   5.708  0.2850 -0.4375 -0.3525
   73SLPC  H11X 6499   1.163   1.817   5.611 -2.2589 -0.1772 -1.7338
   73SLPC  H11Y 6500   1.018   1.890   5.687  1.2916  2.3796  1.1924
   73SLPC  C312 6501   1.098   1.710   5.778  0.1248  1.0490  0.0000
   73SLPC  H12X 6502   1.064   1.735   5.881 -1.6320  0.5064 -0.4203
   73SLPC  H12Y 6503   1.189   1.646   5.776  0.0051  0.8950 -1.0224
   73SLPC  C313 6504   0.994   1.626   5.702  0.2371  0.6400 -0.8399
   73SLPC  H13X 6505   0.898   1.678   5.683 -1.4092 -1.0944  1.9919
   73SLPC  H13Y 6506   0.977   1.543   5.774 -0.1606  2.6775  1.5741
   73SLPC  C314 6507   1.039   1.546   5.577 -0.3899 -0.2483 -0.2502
   73SLPC  H14X 6508   1.116   1.469   5.602  1.6481  1.5043 -0.8257
   73SLPC  H14Y 6509   1.087   1.613   5.503 -2.1213  0.3678 -0.8674
   73SLPC  C315 6510   0.917   1.488   5.498  0.4723 -0.1058  0.2882
   73SLPC  H15X 6511   0.850   1.428   5.564 -0.7117  1.1764  0.2943
   73SLPC  H15Y 6512   0.963   1.415   5.427 -2.8756 -2.2524  0.0953
   73SLPC  C316 6513   0.822   1.586   5.431 -0.4675 -0.4061  0.4443
   73SLPC  H16X 6514   0.872   1.657   5.362 -2.8566  0.9829  0.0306
   73SLPC  H16Y 6515   0.768   1.648   5.505  0.2422 -1.3476  1.8182
   73SLPC  C317 6516   0.715   1.520   5.347  0.6829  0.0469  1.1254
   73SLPC  H17X 6517   0.681   1.420   5.382 -2.5987  0.4651 -0.4470
   73SLPC  H17Y 6518   0.763   1.515   5.248 -0.6333 -0.0286  0.4655
   73SLPC  C318 6519   0.586   1.604   5.326 -0.6696  0.6124 -0.1628
   73SLPC  H18X 6520   0.619   1.710   5.316 -0.8127  0.5810 -0.9994
   73SLPC  H18Y 6521   0.531   1.598   5.422  2.6324  2.6172  2.0605
   73SLPC  H18Z 6522   0.519   1.583   5.240 -1.1771  4.7820 -1.0329
   74SLPC     N 6523   4.175   3.465   7.102  0.5189 -0.4852 -0.7145
   74SLPC   C13 6524   4.280   3.500   7.006 -0.8693  0.1663 -0.3766
   74SLPC  H13A 6525   4.240   3.556   6.923 -1.1958 -2.0934 -1.8345
   74SLPC  H13B 6526   4.358   3.559   7.051 -0.6966 -1.0723  1.0652
   74SLPC  H13C 6527   4.324   3.413   6.961  0.1211 -0.8398  2.2949
   74SLPC   C14 6528   4.124   3.592   7.159  0.2638 -0.0980 -0.3948
   74SLPC  H14A 6529   4.193   3.636   7.229 -0.8004 -0.0229  0.6339
   74SLPC  H14B 6530   4.094   3.672   7.093 -0.0146  0.0485 -0.0911
   74SLPC  H14C 6531   4.043   3.563   7.224 -0.2822  1.2610 -0.4443
   74SLPC   C15 6532   4.221   3.379   7.206  0.4577  0.3941 -0.5806
   74SLPC  H15A 6533   4.270   3.422   7.292 -0.2369 -2.2009  1.2340
   74SLPC  H15B 6534   4.140   3.326   7.253 -0.6341  2.5249  0.0551
   74SLPC  H15C 6535   4.272   3.292   7.167  0.8196  0.6596 -0.7069
   74SLPC   C12 6536   4.053   3.391   7.037  0.5996 -0.4173  0.4391
   74SLPC  H12A 6537   4.096   3.302   6.994  0.2299 -0.3404 -0.0912
   74SLPC  H12B 6538   4.017   3.453   6.957  0.3945 -0.9871  0.0831
   74SLPC   C11 6539   3.940   3.333   7.123  0.3369  0.2299 -0.4367
   74SLPC  H11A 6540   3.983   3.264   7.199  1.1861  0.7164 -0.4569
   74SLPC  H11B 6541   3.878   3.280   7.048 -2.7057 -1.4296  2.9378
   74SLPC     P 6542   3.724   3.492   7.159  0.4603 -0.8823  0.1696
   74SLPC   O13 6543   3.607   3.415   7.217  0.4092 -0.1131 -0.2667
   74SLPC   O14 6544   3.728   3.636   7.200 -0.0322  0.0204  0.0310
   74SLPC   O12 6545   3.866   3.425   7.203  0.3963 -0.3404 -0.8722
   74SLPC   O11 6546   3.721   3.481   7.005  0.3245 -0.3280 -0.3947
   74SLPC    C1 6547   3.597   3.463   6.938  0.1999 -0.1656  0.2648
   74SLPC    HA 6548   3.511   3.429   7.000 -0.3479 -0.7156 -0.7898
   74SLPC    HB 6549   3.572   3.550   6.875 -2.0270 -1.2633 -0.4669
   74SLPC    C2 6550   3.604   3.347   6.831  0.6889  0.0965  0.0973
   74SLPC    HS 6551   3.595   3.252   6.888 -1.1130  0.1168 -0.0717
   74SLPC   O21 6552   3.727   3.354   6.764  0.1055 -0.0880  0.2208
   74SLPC   C21 6553   3.782   3.247   6.704 -0.7375  0.6372  0.0235
   74SLPC   O22 6554   3.728   3.135   6.704  0.4759  0.1009  0.2421
   74SLPC   C22 6555   3.922   3.265   6.657  0.0835 -0.2609  0.1468
   74SLPC   H2R 6556   3.979   3.301   6.745  0.8778 -0.9871 -0.0502
   74SLPC   H2S 6557   3.949   3.158   6.640  0.3506 -0.6023  2.4150
   74SLPC    C3 6558   3.484   3.361   6.728 -0.7175  0.6288  0.2108
   74SLPC    HX 6559   3.505   3.460   6.682 -1.2097  1.1586  1.0935
   74SLPC    HY 6560   3.393   3.365   6.793 -1.7716 -0.3590 -1.1540
   74SLPC   O31 6561   3.486   3.268   6.623 -1.0307  0.4976 -0.2997
   74SLPC   C31 6562   3.412   3.162   6.657 -0.2111  0.0953 -0.2185
   74SLPC   O32 6563   3.378   3.141   6.773  0.0771  0.6656  0.7695
   74SLPC   C32 6564   3.354   3.092   6.533  0.3534  0.2465 -0.4019
   74SLPC   H2X 6565   3.435   3.063   6.462 -0.0687  1.2099 -1.3049
   74SLPC   H2Y 6566   3.311   3.175   6.472 -0.9414 -1.7332 -2.3265
   74SLPC   C23 6567   3.938   3.358   6.531 -0.2167 -0.6961  0.3339
   74SLPC   H3R 6568   4.042   3.384   6.502 -1.1460  1.0245 -1.7116
   74SLPC   H3S 6569   3.889   3.455   6.552  1.6845  0.4688 -0.3711
   74SLPC   C24 6570   3.879   3.311   6.400 -0.1436 -0.1120  0.2828
   74SLPC   H4R 6571   3.904   3.204   6.383 -0.0865  0.1534 -1.4453
   74SLPC   H4S 6572   3.925   3.363   6.314 -1.0148 -0.8720 -0.6692
   74SLPC   C25 6573   3.725   3.318   6.394 -0.3732  0.9762 -0.3371
   74SLPC   H5R 6574   3.699   3.425   6.401 -0.2112  0.9809  0.2215
   74SLPC   H5S 6575   3.678   3.253   6.471 -0.1107 -0.1403 -1.0884
   74SLPC   C26 6576   3.670   3.281   6.256 -0.0501  0.1151 -0.1730
   74SLPC   H6R 6577   3.690   3.175   6.227  0.5484  0.5415 -1.4027
   74SLPC   H6S 6578   3.719   3.344   6.178 -0.3867  1.1178  0.4043
   74SLPC   C27 6579   3.513   3.302   6.253  0.0557 -0.4855 -0.2851
   74SLPC   H7R 6580   3.485   3.409   6.261 -0.3432 -0.6550  0.7297
   74SLPC   H7S 6581   3.468   3.261   6.346  1.3070  0.0804  0.6126
   74SLPC   C28 6582   3.452   3.238   6.127  0.4380  0.3055  0.3584
   74SLPC   H8R 6583   3.342   3.252   6.127  0.2396 -0.3874 -3.1118
   74SLPC   H8S 6584   3.454   3.127   6.128 -1.3090  0.2523  1.2563
   74SLPC   C29 6585   3.515   3.296   6.002 -0.1428  0.2345 -0.3721
   74SLPC   H9R 6586   3.509   3.405   5.996  0.1034  0.2981  0.4180
   74SLPC  C210 6587   3.590   3.229   5.913  0.6685 -0.1508  0.3375
   74SLPC  H10R 6588   3.619   3.279   5.820  0.5796  0.0291  0.4067
   74SLPC  C211 6589   3.611   3.081   5.915  0.3842  0.7856  0.4879
   74SLPC  H11R 6590   3.558   3.036   5.828  3.2845 -0.9802 -0.4906
   74SLPC  H11S 6591   3.574   3.022   6.001 -1.3207 -0.5158 -1.0707
   74SLPC  C212 6592   3.760   3.055   5.904 -0.4129  0.4734  0.4289
   74SLPC  H12R 6593   3.831   3.063   5.988 -0.2652  0.6293  0.2888
   74SLPC  C213 6594   3.829   3.001   5.798  0.0489  0.1602  0.3432
   74SLPC  H13R 6595   3.930   2.963   5.820 -1.2160 -2.1201  2.7120
   74SLPC  C214 6596   3.775   2.962   5.667  0.5105  0.7348  0.1231
   74SLPC  H14R 6597   3.668   2.986   5.648  0.6923  0.8786 -0.8011
   74SLPC  H14S 6598   3.785   2.852   5.656  0.3338  0.7013  0.2937
   74SLPC  C215 6599   3.853   3.025   5.555  0.0393 -0.1963  0.1288
   74SLPC  H15R 6600   3.950   2.973   5.541  1.0942  1.7509 -0.1509
   74SLPC  H15S 6601   3.874   3.133   5.571  0.3116 -0.2471  0.1217
   74SLPC  C216 6602   3.789   3.030   5.414  0.4625 -0.2537  0.1623
   74SLPC  H16R 6603   3.865   3.061   5.339  0.4317  0.1602  0.2982
   74SLPC  H16S 6604   3.696   3.091   5.422 -0.6843 -1.7560 -1.0430
   74SLPC  C217 6605   3.732   2.892   5.364  0.0963 -0.3676  0.0544
   74SLPC  H17R 6606   3.654   2.865   5.439 -1.2622 -0.0478 -1.2047
   74SLPC  H17S 6607   3.807   2.810   5.356 -0.9069 -1.2208 -0.9527
   74SLPC  C218 6608   3.651   2.913   5.234  0.3676  0.2941 -0.2615
   74SLPC  H18R 6609   3.609   2.815   5.204 -0.1690  0.1041  1.0788
   74SLPC  H18S 6610   3.713   2.955   5.151  0.7123 -1.5809 -1.0093
   74SLPC  H18T 6611   3.564   2.978   5.256 -1.0437 -2.0283  1.4008
   74SLPC   C33 6612   3.243   2.985   6.554  0.2391 -0.1123 -0.6118
   74SLPC   H3X 6613   3.190   3.026   6.642  0.9965  1.9446 -1.0508
   74SLPC   H3Y 6614   3.285   2.885   6.578  1.9698 -0.2671 -3.8065
   74SLPC   C34 6615   3.141   2.972   6.435  0.2251 -0.0375  0.2677
   74SLPC   H4X 6616   3.085   3.066   6.415 -0.5215 -0.4088  0.5668
   74SLPC   H4Y 6617   3.080   2.885   6.468  1.5667 -0.0282  3.0695
   74SLPC   C35 6618   3.205   2.926   6.306  0.1635 -0.1024 -0.0551
   74SLPC   H5X 6619   3.244   2.821   6.305  1.5055  0.3759 -0.5170
   74SLPC   H5Y 6620   3.292   2.991   6.283  0.3808 -1.1868 -2.6972
   74SLPC   C36 6621   3.107   2.932   6.178  0.0486  0.4635  0.0358
   74SLPC   H6X 6622   3.056   3.030   6.165  0.9688  0.7603 -1.6603
   74SLPC   H6Y 6623   3.035   2.848   6.180 -0.6577  1.0684  0.9163
   74SLPC   C37 6624   3.192   2.922   6.047  0.3504 -0.1563  0.4261
   74SLPC   H7X 6625   3.244   3.020   6.037 -0.2159  0.4182  2.5706
   74SLPC   H7Y 6626   3.122   2.922   5.961  0.5849  1.9731  0.1705
   74SLPC   C38 6627   3.289   2.809   6.032  0.4301  0.5479 -0.0346
   74SLPC   H8X 6628   3.247   2.707   6.048  2.5632 -0.6495 -1.5049
   74SLPC   H8Y 6629   3.370   2.837   6.103  0.4367  1.8969 -0.5463
   74SLPC   C39 6630   3.360   2.805   5.894 -0.0409  0.6406 -0.2752
   74SLPC   H9X 6631   3.409   2.902   5.868  0.5101  0.3806 -0.2253
   74SLPC   H9Y 6632   3.272   2.795   5.827 -0.2866 -0.2253  0.1635
   74SLPC  C310 6633   3.449   2.676   5.873 -0.2465 -0.1256 -0.2367
   74SLPC  H10X 6634   3.398   2.581   5.900 -0.8118  0.3192  0.2775
   74SLPC  H10Y 6635   3.538   2.677   5.940  0.7211 -3.7329 -1.2197
   74SLPC  C311 6636   3.505   2.663   5.733 -0.2525  0.5013  0.3081
   74SLPC  H11X 6637   3.532   2.763   5.692 -0.0915 -0.1609 -1.2557
   74SLPC  H11Y 6638   3.422   2.627   5.667 -0.5693  0.4648  0.7223
   74SLPC  C312 6639   3.623   2.570   5.726 -0.0850 -0.1010 -0.2013
   74SLPC  H12X 6640   3.583   2.468   5.745 -1.3838  0.7209  1.7385
   74SLPC  H12Y 6641   3.700   2.601   5.800  1.5784  0.3574 -2.0371
   74SLPC  C313 6642   3.680   2.560   5.586 -0.0265  0.3623  0.2104
   74SLPC  H13X 6643   3.711   2.663   5.560  0.5034  0.1668  0.0398
   74SLPC  H13Y 6644   3.604   2.537   5.509 -0.4145 -1.5053  1.0889
   74SLPC  C314 6645   3.788   2.450   5.558  0.4168 -0.5101 -0.3485
   74SLPC  H14X 6646   3.744   2.349   5.573  1.4027 -0.8466  0.3580
   74SLPC  H14Y 6647   3.859   2.458   5.643 -1.2885 -0.0064  1.0990
   74SLPC  C315 6648   3.876   2.479   5.435  0.1955 -0.0774  0.1717
   74SLPC  H15X 6649   3.916   2.582   5.448 -1.7073  0.5919  1.1721
   74SLPC  H15Y 6650   3.794   2.483   5.360 -0.5335  1.4713  1.0051
   74SLPC  C316 6651   3.968   2.370   5.385 -0.3600 -0.4967  0.1400
   74SLPC  H16X 6652   4.014   2.394   5.287  0.2727 -0.4430  0.4472
   74SLPC  H16Y 6653   3.909   2.277   5.375 -2.8966  0.9732  0.5210
   74SLPC  C317 6654   4.070   2.354   5.492  0.1170  0.0798  0.5102
   74SLPC  H17X 6655   4.024   2.304   5.580  0.6633 -0.6293  0.4130
   74SLPC  H17Y 6656   4.101   2.448   5.541 -0.4889 -1.1549  3.4590
   74SLPC  C318 6657   4.204   2.274   5.458  0.0996 -0.0961  0.4157
   74SLPC  H18X 6658   4.242   2.322   5.365  0.3972  0.4880  0.8363
   74SLPC  H18Y 6659   4.173   2.170   5.434 -0.9721  0.2701  0.1770
   74SLPC  H18Z 6660   4.271   2.280   5.547  0.0293 -2.8840  0.7717
   75SLPC     N 6661   2.900   0.429   7.492  0.3542  0.3174 -0.4777
   75SLPC   C13 6662   3.041   0.481   7.494 -0.2051  0.1663  0.3456
   75SLPC  H13A 6663   3.045   0.588   7.509 -0.0967  0.2703 -0.4017
   75SLPC  H13B 6664   3.085   0.442   7.585 -0.6017  1.9860  1.3697
   75SLPC  H13C 6665   3.089   0.463   7.399 -0.2873  2.1619 -0.1222
   75SLPC   C14 6666   2.813   0.504   7.591  0.2645 -0.7166 -0.2992
   75SLPC  H14A 6667   2.708   0.481   7.598  0.0595  0.6237  2.2603
   75SLPC  H14B 6668   2.850   0.492   7.692  0.8064  1.5372 -0.1727
   75SLPC  H14C 6669   2.822   0.611   7.579 -0.3118 -0.3629  1.9610
   75SLPC   C15 6670   2.891   0.287   7.537  0.1790  0.9937 -0.1233
   75SLPC  H15A 6671   2.940   0.276   7.633 -0.0896  2.6423  0.2259
   75SLPC  H15B 6672   2.790   0.249   7.536  0.8102 -0.8323  0.5629
   75SLPC  H15C 6673   2.952   0.231   7.468 -0.7175  1.3041 -1.1890
   75SLPC   C12 6674   2.838   0.443   7.346 -0.1195  0.0059  0.2127
   75SLPC  H12A 6675   2.740   0.396   7.347 -0.8202  1.4104  0.7967
   75SLPC  H12B 6676   2.908   0.393   7.282  0.9026 -0.2993  1.5270
   75SLPC   C11 6677   2.840   0.587   7.285  0.4288 -0.2150  0.5284
   75SLPC  H11A 6678   2.801   0.571   7.182  1.1596  2.2251 -0.1969
   75SLPC  H11B 6679   2.945   0.618   7.266 -0.3595  1.6698 -1.1348
   75SLPC     P 6680   2.614   0.712   7.327  0.1607  0.0758  0.5512
   75SLPC   O13 6681   2.529   0.593   7.361 -0.4934  0.2850 -0.0403
   75SLPC   O14 6682   2.576   0.841   7.389  0.2372 -0.7002 -0.5863
   75SLPC   O12 6683   2.768   0.686   7.360  0.0510  0.2345 -0.0326
   75SLPC   O11 6684   2.617   0.725   7.174 -0.0065  0.4147  0.2374
   75SLPC    C1 6685   2.491   0.760   7.102 -1.2734  0.2070  0.6026
   75SLPC    HA 6686   2.412   0.810   7.163 -1.5418  0.4742  0.0417
   75SLPC    HB 6687   2.522   0.835   7.027 -2.2854  0.1679  0.1218
   75SLPC    C2 6688   2.430   0.638   7.032  0.4055 -0.1346  0.5120
   75SLPC    HS 6689   2.405   0.559   7.105  0.5133 -0.1970  0.4805
   75SLPC   O21 6690   2.520   0.572   6.945  0.5072  0.7511  0.2897
   75SLPC   C21 6691   2.474   0.454   6.906 -0.4332  0.4520 -0.4279
   75SLPC   O22 6692   2.376   0.394   6.949 -0.3638  0.7805  0.2948
   75SLPC   C22 6693   2.582   0.395   6.815  0.1141 -0.1221 -0.2558
   75SLPC   H2R 6694   2.681   0.443   6.830 -0.2847  0.3075  1.1439
   75SLPC   H2S 6695   2.607   0.298   6.863  0.4971  0.5995  1.0229
   75SLPC    C3 6696   2.299   0.694   6.963 -0.2358 -0.1022 -0.1541
   75SLPC    HX 6697   2.233   0.716   7.049 -0.1314 -0.9937  0.1649
   75SLPC    HY 6698   2.256   0.614   6.900  0.6290 -0.3974 -0.3888
   75SLPC   O31 6699   2.317   0.813   6.881  0.4059 -0.4104  0.0821
   75SLPC   C31 6700   2.341   0.799   6.750  0.3445  0.3334  0.1923
   75SLPC   O32 6701   2.336   0.693   6.689  0.2325  0.6701 -0.0313
   75SLPC   C32 6702   2.384   0.935   6.698 -0.2573 -0.0755  0.0748
   75SLPC   H2X 6703   2.302   1.008   6.717 -0.6905 -0.5839  0.1946
   75SLPC   H2Y 6704   2.380   0.910   6.590 -2.0113  1.0569 -0.1640
   75SLPC   C23 6705   2.522   0.375   6.678 -0.0232  0.2516  0.0660
   75SLPC   H3R 6706   2.490   0.474   6.639 -1.1751  0.6771  1.9731
   75SLPC   H3S 6707   2.424   0.322   6.683  1.2724 -2.9607 -3.5001
   75SLPC   C24 6708   2.612   0.311   6.571  0.5693 -0.1101 -0.3627
   75SLPC   H4R 6709   2.612   0.202   6.592  0.6435 -0.1825 -0.7411
   75SLPC   H4S 6710   2.714   0.356   6.563  0.4439  1.1687  3.3048
   75SLPC   C25 6711   2.555   0.351   6.427 -0.6651 -0.4095 -0.2666
   75SLPC   H5R 6712   2.579   0.458   6.409  2.4485 -1.3320 -2.3654
   75SLPC   H5S 6713   2.446   0.330   6.424 -0.6053 -0.9303  0.6378
   75SLPC   C26 6714   2.623   0.274   6.322 -0.2772 -0.1415  0.5052
   75SLPC   H6R 6715   2.602   0.166   6.336  0.5658 -0.3793  0.0015
   75SLPC   H6S 6716   2.733   0.288   6.326 -0.3495  0.7426 -0.1813
   75SLPC   C27 6717   2.583   0.322   6.182  0.0367 -0.2247  0.5019
   75SLPC   H7R 6718   2.476   0.350   6.174  0.3692  0.4436 -2.5300
   75SLPC   H7S 6719   2.604   0.243   6.107  0.9116  1.5545 -1.2290
   75SLPC   C28 6720   2.668   0.450   6.145  0.1219 -0.2734  0.1185
   75SLPC   H8R 6721   2.766   0.439   6.196 -0.6199  2.9932  2.6269
   75SLPC   H8S 6722   2.632   0.540   6.199 -1.1572  0.1947 -1.4407
   75SLPC   C29 6723   2.649   0.468   5.998  0.2655 -0.0526 -1.1208
   75SLPC   H9R 6724   2.726   0.422   5.935 -1.0375 -0.9435 -2.0954
   75SLPC  C210 6725   2.559   0.550   5.941  0.3092 -0.0243  0.1841
   75SLPC  H10R 6726   2.578   0.553   5.833  1.2966  0.9035  0.3637
   75SLPC  C211 6727   2.429   0.608   5.998 -0.0232  0.3408 -0.3517
   75SLPC  H11R 6728   2.449   0.710   6.036 -0.5496  0.9129 -1.5757
   75SLPC  H11S 6729   2.416   0.548   6.091  0.8277  1.6357  0.6428
   75SLPC  C212 6730   2.308   0.602   5.901 -0.0924 -0.4901 -0.2562
   75SLPC  H12R 6731   2.244   0.513   5.908  0.6217 -0.8779  2.6814
   75SLPC  C213 6732   2.273   0.697   5.815 -0.2469 -0.1687 -0.6624
   75SLPC  H13R 6733   2.196   0.679   5.739 -1.0450  0.7035 -0.0746
   75SLPC  C214 6734   2.350   0.824   5.787 -0.2644 -0.0209  0.5967
   75SLPC  H14R 6735   2.434   0.844   5.857 -3.2371  2.5552  3.8000
   75SLPC  H14S 6736   2.276   0.906   5.790  0.9845  1.1505  3.6190
   75SLPC  C215 6737   2.416   0.809   5.650  0.5162 -0.6207 -0.6843
   75SLPC  H15R 6738   2.329   0.794   5.583  0.0848  1.5652 -0.7070
   75SLPC  H15S 6739   2.479   0.718   5.643 -1.3677 -2.2589  1.7559
   75SLPC  C216 6740   2.498   0.928   5.603  0.2109  0.2565  0.0302
   75SLPC  H16R 6741   2.517   0.916   5.494  1.0558 -0.1875  0.2224
   75SLPC  H16S 6742   2.590   0.913   5.663  0.0131 -1.0817  0.0439
   75SLPC  C217 6743   2.435   1.071   5.629  0.4436  0.6097  0.4766
   75SLPC  H17R 6744   2.426   1.094   5.738  3.5476 -0.2162  0.9878
   75SLPC  H17S 6745   2.339   1.073   5.573  0.0982 -2.1774  0.8057
   75SLPC  C218 6746   2.535   1.174   5.582 -0.3228  0.9076  0.0323
   75SLPC  H18R 6747   2.575   1.136   5.486  0.1233 -0.9804  0.9115
   75SLPC  H18S 6748   2.618   1.170   5.655 -1.1636 -2.5265  0.9662
   75SLPC  H18T 6749   2.480   1.270   5.567 -1.1131  0.2399 -1.6052
   75SLPC   C33 6750   2.531   0.965   6.730  0.4304  0.0254 -0.5492
   75SLPC   H3X 6751   2.589   0.877   6.695  0.2162 -0.5262  0.4395
   75SLPC   H3Y 6752   2.538   0.967   6.841 -0.9649  2.4667 -0.4351
   75SLPC   C34 6753   2.591   1.101   6.668  0.2837 -0.1597 -0.1945
   75SLPC   H4X 6754   2.701   1.112   6.676  0.3196  2.3326 -2.5170
   75SLPC   H4Y 6755   2.545   1.184   6.725  0.0656  1.0271 -2.0410
   75SLPC   C35 6756   2.558   1.124   6.521  0.1401  0.2374 -0.1914
   75SLPC   H5X 6757   2.449   1.143   6.513  0.1074  0.0909 -0.1020
   75SLPC   H5Y 6758   2.574   1.031   6.462  0.1441 -0.4172  0.8265
   75SLPC   C36 6759   2.642   1.239   6.469  0.1599 -0.7451  0.3303
   75SLPC   H6X 6760   2.746   1.199   6.463  0.8400  0.7597  1.3097
   75SLPC   H6Y 6761   2.635   1.316   6.549 -2.6396  1.4905 -1.8048
   75SLPC   C37 6762   2.603   1.303   6.339  0.5267 -0.0192 -0.1792
   75SLPC   H7X 6763   2.493   1.319   6.335  0.2782 -0.7644  2.0772
   75SLPC   H7Y 6764   2.622   1.229   6.260 -0.2860 -0.0574 -0.3475
   75SLPC   C38 6765   2.675   1.431   6.309 -0.5106  0.8143  0.1107
   75SLPC   H8X 6766   2.784   1.418   6.325 -0.8317 -1.1675  0.9794
   75SLPC   H8Y 6767   2.647   1.505   6.386  2.1801  0.0459  1.9819
   75SLPC   C39 6768   2.638   1.492   6.170 -0.8765 -0.1515 -0.5052
   75SLPC   H9X 6769   2.682   1.593   6.161 -0.1156 -0.6134 -2.5956
   75SLPC   H9Y 6770   2.528   1.503   6.163 -0.9677 -0.8260 -0.2422
   75SLPC  C310 6771   2.688   1.402   6.046 -0.4896 -0.4567 -0.0868
   75SLPC  H10X 6772   2.622   1.315   6.067 -0.3800 -0.1525  1.7247
   75SLPC  H10Y 6773   2.789   1.379   6.087 -0.6260 -1.3515 -0.2251
   75SLPC  C311 6774   2.684   1.480   5.913 -0.2111 -0.1366 -0.2207
   75SLPC  H11X 6775   2.761   1.428   5.853  1.1202 -0.3827  1.6319
   75SLPC  H11Y 6776   2.718   1.583   5.938  2.0721 -0.8053 -0.3474
   75SLPC  C312 6777   2.545   1.499   5.838 -0.2669  0.3429  0.4595
   75SLPC  H12X 6778   2.470   1.550   5.903 -1.3164 -0.0371 -0.4327
   75SLPC  H12Y 6779   2.500   1.403   5.807  0.8416 -0.7041  1.9424
   75SLPC  C313 6780   2.554   1.600   5.718 -0.2828  0.4192 -0.0295
   75SLPC  H13X 6781   2.550   1.699   5.769  1.3932  0.6585 -0.3097
   75SLPC  H13Y 6782   2.464   1.585   5.655 -0.4848 -2.4596  0.8375
   75SLPC  C314 6783   2.672   1.586   5.615 -1.7453 -0.3162  0.2644
   75SLPC  H14X 6784   2.651   1.511   5.536  1.9765 -0.8858 -0.3750
   75SLPC  H14Y 6785   2.765   1.564   5.671 -2.0110  1.5967  1.5734
   75SLPC  C315 6786   2.700   1.717   5.540  0.7786 -0.0200 -0.0283
   75SLPC  H15X 6787   2.716   1.804   5.608  2.4071  1.0057 -1.6248
   75SLPC  H15Y 6788   2.609   1.725   5.477  1.5824  0.1547 -1.1987
   75SLPC  C316 6789   2.811   1.695   5.434 -0.1605 -0.0071 -0.0236
   75SLPC  H16X 6790   2.772   1.627   5.355 -2.8839  1.5059 -0.1014
   75SLPC  H16Y 6791   2.900   1.654   5.487  0.6656 -0.3415 -1.6141
   75SLPC  C317 6792   2.845   1.833   5.368  0.6930  0.7860 -0.3460
   75SLPC  H17X 6793   2.856   1.891   5.462 -0.6409 -0.0804  0.3745
   75SLPC  H17Y 6794   2.758   1.873   5.313  1.4487 -0.4942 -2.6415
   75SLPC  C318 6795   2.963   1.839   5.278 -0.3213  0.4428  0.3017
   75SLPC  H18X 6796   2.972   1.947   5.253 -0.0887  0.8716  2.0955
   75SLPC  H18Y 6797   2.932   1.792   5.182 -1.4558 -0.3711  1.0557
   75SLPC  H18Z 6798   3.062   1.797   5.306  0.9151  2.2614 -1.0643
   76SLPC     N 6799   1.755   2.588   7.291 -0.7398 -0.0022 -0.5443
   76SLPC   C13 6800   1.731   2.694   7.397  0.1465 -0.6272 -0.0116
   76SLPC  H13A 6801   1.664   2.768   7.357 -1.0094 -0.7277  1.6194
   76SLPC  H13B 6802   1.673   2.644   7.473  0.4042 -1.7253 -0.5191
   76SLPC  H13C 6803   1.816   2.753   7.428  0.0654 -0.3062 -0.3961
   76SLPC   C14 6804   1.624   2.550   7.240  0.6079 -0.3864  0.1941
   76SLPC  H14A 6805   1.635   2.481   7.158 -1.1702  1.3139 -1.5613
   76SLPC  H14B 6806   1.560   2.514   7.320 -1.4665  4.4598  1.0843
   76SLPC  H14C 6807   1.566   2.635   7.209  0.9582  0.5677  2.0438
   76SLPC   C15 6808   1.819   2.465   7.343 -0.3055 -0.7378 -0.6438
   76SLPC  H15A 6809   1.905   2.492   7.403 -0.2119  1.3520 -1.6214
   76SLPC  H15B 6810   1.744   2.420   7.406  1.4283 -2.0916  0.5510
   76SLPC  H15C 6811   1.842   2.392   7.267  1.3084 -1.9256  0.8889
   76SLPC   C12 6812   1.840   2.645   7.183 -0.4463 -0.4764 -0.4993
   76SLPC  H12A 6813   1.927   2.691   7.226 -0.1625 -0.8803 -0.6373
   76SLPC  H12B 6814   1.794   2.732   7.139 -0.3603  0.3028  0.9085
   76SLPC   C11 6815   1.875   2.554   7.067  0.0901  0.1205  0.5470
   76SLPC  H11A 6816   1.917   2.457   7.100 -1.6220 -1.0549 -0.6065
   76SLPC  H11B 6817   1.955   2.610   7.013  0.4762  0.2807  1.2720
   76SLPC     P 6818   1.701   2.630   6.889 -0.2690  0.0734  0.0457
   76SLPC   O13 6819   1.571   2.579   6.843 -1.1135 -0.2223  0.6570
   76SLPC   O14 6820   1.714   2.763   6.957  0.0673 -0.2217 -0.2609
   76SLPC   O12 6821   1.767   2.522   6.982 -0.1516  0.5625  0.0026
   76SLPC   O11 6822   1.796   2.638   6.769  0.7400 -0.4676  0.1635
   76SLPC    C1 6823   1.883   2.534   6.726  0.6560  0.6284  0.1442
   76SLPC    HA 6824   1.988   2.568   6.714  1.3225 -1.7531 -1.4731
   76SLPC    HB 6825   1.888   2.446   6.794  1.9306 -0.3195 -1.1175
   76SLPC    C2 6826   1.821   2.468   6.596 -0.0623  0.5271 -0.0057
   76SLPC    HS 6827   1.716   2.437   6.618 -0.2122 -0.8101 -2.3145
   76SLPC   O21 6828   1.897   2.355   6.545  0.5004 -0.6238 -0.4905
   76SLPC   C21 6829   1.883   2.244   6.603 -0.4033 -0.3733  0.1858
   76SLPC   O22 6830   1.813   2.218   6.703 -0.3366 -0.6283  0.4497
   76SLPC   C22 6831   1.960   2.138   6.539 -0.3249 -0.2108  0.1288
   76SLPC   H2R 6832   2.018   2.173   6.451  1.0565 -1.7231  0.3952
   76SLPC   H2S 6833   2.039   2.106   6.611 -0.7651 -0.1144  0.6620
   76SLPC    C3 6834   1.802   2.578   6.484  0.3202  0.0985  0.1251
   76SLPC    HX 6835   1.903   2.623   6.478  0.1134  0.6488  0.6597
   76SLPC    HY 6836   1.734   2.659   6.519 -1.1788 -1.1670  0.2707
   76SLPC   O31 6837   1.757   2.523   6.359  0.2694  0.1174  0.2184
   76SLPC   C31 6838   1.627   2.543   6.346 -0.3572  0.3713  0.0327
   76SLPC   O32 6839   1.545   2.585   6.422 -0.0850  0.1031 -0.4952
   76SLPC   C32 6840   1.591   2.485   6.207  0.3093 -0.8665 -0.2559
   76SLPC   H2X 6841   1.582   2.375   6.208  0.5966 -0.8865  0.4140
   76SLPC   H2Y 6842   1.676   2.515   6.141  0.5103 -0.2796  0.2594
   76SLPC   C23 6843   1.883   2.016   6.489 -0.2041 -0.3165  0.2983
   76SLPC   H3R 6844   1.831   1.966   6.574  0.6966 -2.4829 -0.3622
   76SLPC   H3S 6845   1.962   1.951   6.446 -2.1198 -2.3492 -0.3648
   76SLPC   C24 6846   1.781   2.052   6.383  0.7180 -0.3039 -0.2880
   76SLPC   H4R 6847   1.710   2.131   6.416  1.9372  0.5025  0.4911
   76SLPC   H4S 6848   1.725   1.959   6.360  3.3580 -1.5563 -2.0701
   76SLPC   C25 6849   1.841   2.101   6.249  0.4765  0.0154  0.3802
   76SLPC   H5R 6850   1.928   2.044   6.211  0.6154  1.1044 -0.9916
   76SLPC   H5S 6851   1.873   2.207   6.262 -0.4156  0.7674 -2.7511
   76SLPC   C26 6852   1.736   2.102   6.134 -1.0100 -0.0133  1.1948
   76SLPC   H6R 6853   1.650   2.159   6.176  0.7214  0.7898  3.8928
   76SLPC   H6S 6854   1.712   1.996   6.109 -3.9887  0.5931  1.1378
   76SLPC   C27 6855   1.777   2.176   6.004  0.4937  0.4841  1.0583
   76SLPC   H7R 6856   1.868   2.126   5.963  1.0587  0.4596  2.2827
   76SLPC   H7S 6857   1.809   2.280   6.024 -0.4391  0.8640  0.5972
   76SLPC   C28 6858   1.672   2.186   5.889  0.1854 -0.3169 -0.1145
   76SLPC   H8R 6859   1.574   2.201   5.939  1.1532  3.3318  1.0053
   76SLPC   H8S 6860   1.662   2.088   5.838 -4.6606 -1.1869  1.9594
   76SLPC   C29 6861   1.689   2.299   5.797 -0.4278  0.2892  0.7937
   76SLPC   H9R 6862   1.697   2.400   5.840 -0.6380  1.3842 -1.5716
   76SLPC  C210 6863   1.725   2.290   5.667 -0.2570  0.4428  0.2054
   76SLPC  H10R 6864   1.752   2.380   5.610  1.7674  0.9756  1.8934
   76SLPC  C211 6865   1.742   2.179   5.568 -0.3905  0.0125 -0.3678
   76SLPC  H11R 6866   1.664   2.209   5.495 -0.6098 -0.5491 -0.3720
   76SLPC  H11S 6867   1.708   2.084   5.615 -2.1693  1.5388  1.6432
   76SLPC  C212 6868   1.885   2.177   5.521  0.2818 -0.5108 -0.4930
   76SLPC  H12R 6869   1.956   2.145   5.598  0.6322  1.0164 -0.1342
   76SLPC  C213 6870   1.926   2.215   5.399 -0.1860 -0.3594 -0.4952
   76SLPC  H13R 6871   2.034   2.227   5.383 -0.0696 -1.6959 -0.7945
   76SLPC  C214 6872   1.835   2.263   5.285 -0.2198  0.2554 -0.2544
   76SLPC  H14R 6873   1.798   2.368   5.284  0.7132  0.6089  0.5559
   76SLPC  H14S 6874   1.744   2.200   5.298  1.2782 -1.8821  0.4018
   76SLPC  C215 6875   1.903   2.242   5.156  0.1513 -0.2476 -0.1396
   76SLPC  H15R 6876   1.934   2.135   5.150 -1.2859 -0.6588 -0.5523
   76SLPC  H15S 6877   1.996   2.301   5.141  0.2558 -0.6318 -1.0633
   76SLPC  C216 6878   1.817   2.270   5.034  0.1429 -0.1080 -0.2595
   76SLPC  H16R 6879   1.896   2.254   4.958  1.1767  0.7216  0.6114
   76SLPC  H16S 6880   1.774   2.372   5.030 -0.1627 -0.2029  0.4993
   76SLPC  C217 6881   1.692   2.184   5.002 -0.7696 -0.1161 -0.4099
   76SLPC  H17R 6882   1.621   2.190   5.087  1.1274  1.0289  1.1549
   76SLPC  H17S 6883   1.728   2.080   4.992 -2.6702 -0.9357  0.6998
   76SLPC  C218 6884   1.628   2.227   4.866  0.0485  0.0264 -0.2647
   76SLPC  H18R 6885   1.579   2.327   4.865  1.8498  1.2162  4.3750
   76SLPC  H18S 6886   1.549   2.155   4.837 -0.0699 -0.8682  2.0295
   76SLPC  H18T 6887   1.697   2.212   4.781 -0.8692 -0.3441 -0.9595
   76SLPC   C33 6888   1.455   2.543   6.152 -0.0472  0.3000 -0.0762
   76SLPC   H3X 6889   1.455   2.654   6.153 -1.6224  0.3243 -0.5074
   76SLPC   H3Y 6890   1.382   2.523   6.233 -0.8983  2.9532 -0.0825
   76SLPC   C34 6891   1.411   2.493   6.009  0.4358 -0.2421 -0.7022
   76SLPC   H4X 6892   1.454   2.392   5.989  1.1585 -0.1437  0.2747
   76SLPC   H4Y 6893   1.464   2.547   5.927  3.1658 -1.4527  0.1500
   76SLPC   C35 6894   1.263   2.520   5.993  0.2191 -0.6228 -0.0806
   76SLPC   H5X 6895   1.242   2.625   6.023  1.2288 -0.1427 -1.0060
   76SLPC   H5Y 6896   1.212   2.451   6.064  0.0729  1.0744  1.5215
   76SLPC   C36 6897   1.210   2.493   5.845 -0.3339  0.2550 -1.4932
   76SLPC   H6X 6898   1.249   2.570   5.775  2.4302  0.3543  0.0182
   76SLPC   H6Y 6899   1.099   2.502   5.855 -0.2439 -0.6992  1.1261
   76SLPC   C37 6900   1.231   2.356   5.786  0.2647 -0.2693  0.3334
   76SLPC   H7X 6901   1.158   2.279   5.818  1.3268 -1.0446  0.9227
   76SLPC   H7Y 6902   1.322   2.322   5.838 -1.3718 -0.9863  2.9152
   76SLPC   C38 6903   1.238   2.371   5.640 -0.3201 -0.1760 -0.1826
   76SLPC   H8X 6904   1.324   2.438   5.615 -2.0079  1.3359 -2.3559
   76SLPC   H8Y 6905   1.144   2.427   5.621  0.5371  2.4601  2.4174
   76SLPC   C39 6906   1.246   2.249   5.552  0.5883  0.4756  0.1536
   76SLPC   H9X 6907   1.148   2.202   5.570 -0.8093  3.6422  1.6107
   76SLPC   H9Y 6908   1.324   2.175   5.581 -1.4528 -2.1214 -0.6762
   76SLPC  C310 6909   1.253   2.275   5.401  0.0706  0.0500 -0.4192
   76SLPC  H10X 6910   1.321   2.359   5.373  2.7635 -1.7623  0.3330
   76SLPC  H10Y 6911   1.151   2.315   5.379  0.6120 -0.0214 -3.4653
   76SLPC  C311 6912   1.265   2.141   5.327  0.2093 -0.0673  0.1836
   76SLPC  H11X 6913   1.207   2.066   5.384 -0.0021  0.0850  0.1752
   76SLPC  H11Y 6914   1.371   2.110   5.333  0.0768 -0.2543  2.5612
   76SLPC  C312 6915   1.208   2.137   5.180 -0.2530 -0.2379  0.0807
   76SLPC  H12X 6916   1.278   2.199   5.120  0.8850 -0.0209  1.5859
   76SLPC  H12Y 6917   1.114   2.195   5.191 -0.2803 -0.1411 -0.5979
   76SLPC  C313 6918   1.163   2.006   5.125 -0.1920 -0.1214  0.1613
   76SLPC  H13X 6919   1.110   1.948   5.203  2.8659 -2.6870  0.5317
   76SLPC  H13Y 6920   1.255   1.945   5.114  1.1531  1.6776  0.9433
   76SLPC  C314 6921   1.086   2.015   4.992 -0.0535  0.5548  0.8298
   76SLPC  H14X 6922   1.103   2.117   4.950 -0.5882  1.3242  2.3721
   76SLPC  H14Y 6923   0.980   2.018   5.025 -0.0424  0.5394  0.8671
   76SLPC  C315 6924   1.098   1.900   4.894 -0.4349 -0.6201 -0.1080
   76SLPC  H15X 6925   1.099   1.799   4.940 -1.8828 -0.6278 -0.0319
   76SLPC  H15Y 6926   1.191   1.902   4.833  1.2048  1.3615  2.2755
   76SLPC  C316 6927   0.985   1.907   4.786 -0.1218 -0.3242  0.1122
   76SLPC  H16X 6928   0.884   1.887   4.828 -0.0138  0.2592  0.6701
   76SLPC  H16Y 6929   0.994   1.818   4.721 -2.8689  0.0730 -0.9669
   76SLPC  C317 6930   0.978   2.036   4.704 -0.3306  0.7748  0.4104
   76SLPC  H17X 6931   0.950   2.125   4.765  1.1340  4.0343 -3.2049
   76SLPC  H17Y 6932   0.900   2.023   4.626  1.5506  0.6208 -1.5437
   76SLPC  C318 6933   1.113   2.064   4.634  0.6443 -0.4526 -0.2025
   76SLPC  H18X 6934   1.206   2.077   4.693  0.2170 -0.7473  0.5629
   76SLPC  H18Y 6935   1.112   2.152   4.566 -1.4008  0.0586  0.3999
   76SLPC  H18Z 6936   1.149   1.984   4.566  0.9709 -0.2287 -0.2943
   77SLPC     N 6937   1.453   1.200   7.261 -0.0356  0.6234 -0.0484
   77SLPC   C13 6938   1.383   1.179   7.398 -0.0739  0.5623  0.7563
   77SLPC  H13A 6939   1.303   1.107   7.407 -0.3529  0.8136  0.3244
   77SLPC  H13B 6940   1.459   1.148   7.469 -0.4269 -0.1633  0.8213
   77SLPC  H13C 6941   1.339   1.272   7.431 -1.5780  0.1845 -0.1012
   77SLPC   C14 6942   1.347   1.257   7.174 -0.4350 -0.1388 -0.0820
   77SLPC  H14A 6943   1.252   1.207   7.170 -0.3538 -0.3123  0.1233
   77SLPC  H14B 6944   1.325   1.358   7.203  1.0712  0.0453  0.5530
   77SLPC  H14C 6945   1.377   1.258   7.070 -0.1961  1.8687 -0.0318
   77SLPC   C15 6946   1.501   1.068   7.213  0.3265 -0.2708 -0.0581
   77SLPC  H15A 6947   1.591   1.036   7.262 -0.5644 -1.2172  1.0322
   77SLPC  H15B 6948   1.428   0.990   7.232 -1.9265  1.4132 -1.3313
   77SLPC  H15C 6949   1.508   1.071   7.105  1.4902  0.6914  0.0310
   77SLPC   C12 6950   1.566   1.294   7.283  0.6691 -0.4768  0.5317
   77SLPC  H12A 6951   1.539   1.378   7.346  2.1706  0.6767 -0.2904
   77SLPC  H12B 6952   1.592   1.327   7.184  1.4286 -1.8192  0.2648
   77SLPC   C11 6953   1.697   1.244   7.345  0.4041  0.6249 -0.5528
   77SLPC  H11A 6954   1.675   1.191   7.441  3.0261  0.5191  0.0647
   77SLPC  H11B 6955   1.760   1.326   7.385  0.0717  0.6474 -0.0674
   77SLPC     P 6956   1.873   1.242   7.154  0.0144 -0.0394 -0.2272
   77SLPC   O13 6957   1.957   1.329   7.240  0.0083  0.1021 -0.0776
   77SLPC   O14 6958   1.941   1.142   7.067 -0.2317  0.1667 -0.8478
   77SLPC   O12 6959   1.770   1.165   7.254  0.0334  0.1587 -0.3923
   77SLPC   O11 6960   1.775   1.332   7.073 -0.5917  0.4153  0.8005
   77SLPC    C1 6961   1.701   1.285   6.959 -0.1443  0.1785  0.0240
   77SLPC    HA 6962   1.660   1.183   6.977  3.4023 -1.3763  0.0135
   77SLPC    HB 6963   1.614   1.349   6.931 -1.7716 -1.6200  0.7319
   77SLPC    C2 6964   1.783   1.265   6.834 -0.1375 -0.0769  0.4329
   77SLPC    HS 6965   1.885   1.223   6.838  0.8061  2.0226  0.1220
   77SLPC   O21 6966   1.802   1.399   6.778 -0.0090 -0.1125  0.2397
   77SLPC   C21 6967   1.912   1.462   6.792  0.5530  0.5081 -0.0827
   77SLPC   O22 6968   2.017   1.434   6.839 -0.1310 -0.3643  0.1936
   77SLPC   C22 6969   1.894   1.600   6.727  0.3797 -0.0093 -0.0482
   77SLPC   H2R 6970   1.796   1.603   6.676  0.1637 -3.6253 -0.1361
   77SLPC   H2S 6971   1.891   1.677   6.807 -0.0727 -1.8108  1.7372
   77SLPC    C3 6972   1.700   1.167   6.740 -0.8810 -0.0979  0.8286
   77SLPC    HX 6973   1.612   1.221   6.699 -0.3618  1.0046  1.1225
   77SLPC    HY 6974   1.668   1.085   6.808  1.3838 -0.5444  1.4208
   77SLPC   O31 6975   1.788   1.130   6.630  0.8277  0.1117  0.5333
   77SLPC   C31 6976   1.814   0.998   6.637  0.2890 -0.2835  0.5611
   77SLPC   O32 6977   1.802   0.925   6.737  0.1866  0.2591  1.0393
   77SLPC   C32 6978   1.867   0.949   6.501  0.0421 -0.4917  0.0716
   77SLPC   H2X 6979   1.840   1.020   6.420 -0.2598  0.5936  1.0926
   77SLPC   H2Y 6980   1.802   0.862   6.476 -0.5495  0.2976 -1.2668
   77SLPC   C23 6981   2.005   1.642   6.630  0.3803  0.1566  0.3087
   77SLPC   H3R 6982   2.101   1.630   6.685  1.9598 -2.0128 -2.6025
   77SLPC   H3S 6983   1.993   1.740   6.580  0.2003 -0.6229 -1.2288
   77SLPC   C24 6984   2.032   1.553   6.513  0.0519 -0.1181  0.1135
   77SLPC   H4R 6985   2.086   1.463   6.550 -0.2488  0.7851  2.9587
   77SLPC   H4S 6986   2.117   1.592   6.452  2.0830  0.4646  3.1013
   77SLPC   C25 6987   1.909   1.517   6.428  0.1312  0.2335  0.8455
   77SLPC   H5R 6988   1.836   1.454   6.484  0.4661 -0.7536  0.1999
   77SLPC   H5S 6989   1.948   1.455   6.345  0.5068  0.2984  0.9752
   77SLPC   C26 6990   1.826   1.633   6.380  0.2601 -0.5613  1.1525
   77SLPC   H6R 6991   1.891   1.721   6.367 -0.5954 -0.0045  0.4985
   77SLPC   H6S 6992   1.755   1.663   6.460  0.5920  0.6485  1.0038
   77SLPC   C27 6993   1.756   1.611   6.242  0.1558 -0.0166 -0.6094
   77SLPC   H7R 6994   1.684   1.692   6.216  2.2207  1.6935 -1.3459
   77SLPC   H7S 6995   1.692   1.522   6.259 -1.5671  1.0784 -0.9878
   77SLPC   C28 6996   1.850   1.584   6.129  0.2553  0.0632 -0.1920
   77SLPC   H8R 6997   1.785   1.545   6.047 -0.0466  1.4405 -0.6293
   77SLPC   H8S 6998   1.927   1.505   6.146 -0.1174 -0.0243  1.1525
   77SLPC   C29 6999   1.927   1.707   6.083  0.1373  0.1747 -0.0803
   77SLPC   H9R 7000   1.988   1.744   6.167 -1.6637  2.1059  0.5041
   77SLPC  C210 7001   1.926   1.779   5.970 -0.0138 -0.2032  0.1963
   77SLPC  H10R 7002   1.995   1.865   5.967 -1.6837  1.2067  0.8689
   77SLPC  C211 7003   1.848   1.753   5.850  0.1496 -0.8226  0.1145
   77SLPC  H11R 7004   1.808   1.651   5.863 -1.7352 -0.1765 -0.3168
   77SLPC  H11S 7005   1.912   1.752   5.759 -1.1876  0.2755 -0.8782
   77SLPC  C212 7006   1.719   1.836   5.822 -0.0824  0.6736 -0.6299
   77SLPC  H12R 7007   1.703   1.906   5.905  2.5140 -2.3162  2.6999
   77SLPC  C213 7008   1.643   1.831   5.712  0.4102 -0.3287  0.1660
   77SLPC  H13R 7009   1.552   1.894   5.707  0.8070  0.2686  0.3142
   77SLPC  C214 7010   1.665   1.740   5.594 -1.3720 -0.1205  0.4687
   77SLPC  H14R 7011   1.591   1.657   5.597  0.9637 -2.3474  0.2589
   77SLPC  H14S 7012   1.766   1.694   5.601  0.1734  2.0077 -3.8351
   77SLPC  C215 7013   1.657   1.827   5.461 -0.1790  0.0911 -0.0583
   77SLPC  H15R 7014   1.744   1.896   5.468 -0.4345  0.4102  0.0535
   77SLPC  H15S 7015   1.561   1.883   5.459 -0.5591 -0.2203  3.2786
   77SLPC  C216 7016   1.675   1.739   5.341 -0.1155 -0.4025  0.9252
   77SLPC  H16R 7017   1.635   1.804   5.259 -0.6136 -1.1631  0.5557
   77SLPC  H16S 7018   1.603   1.655   5.351  0.0219 -0.7918 -0.9033
   77SLPC  C217 7019   1.821   1.708   5.318  0.3954 -0.1147 -0.1574
   77SLPC  H17R 7020   1.873   1.709   5.416 -0.3199 -2.6733  0.3166
   77SLPC  H17S 7021   1.857   1.796   5.262 -1.6182  1.2574  0.5799
   77SLPC  C218 7022   1.848   1.575   5.240  1.3186  0.2288  0.2563
   77SLPC  H18R 7023   1.952   1.572   5.201  1.4678 -2.6666  0.6832
   77SLPC  H18S 7024   1.795   1.587   5.143  0.9012  2.3547  0.6995
   77SLPC  H18T 7025   1.824   1.478   5.288 -0.0662 -0.2989 -1.3962
   77SLPC   C33 7026   2.014   0.910   6.510  0.5350 -0.2817  0.4616
   77SLPC   H3X 7027   2.025   0.821   6.576  1.4301 -0.4680  0.0797
   77SLPC   H3Y 7028   2.078   0.990   6.553 -0.0932  0.2669  0.3878
   77SLPC   C34 7029   2.074   0.868   6.367  0.4529  0.5004 -0.1972
   77SLPC   H4X 7030   2.035   0.933   6.286  0.0191  1.4204  0.7272
   77SLPC   H4Y 7031   2.043   0.765   6.337  1.3253  0.8048 -2.2755
   77SLPC   C35 7032   2.224   0.871   6.364 -0.2437 -0.4522 -0.6938
   77SLPC   H5X 7033   2.255   0.792   6.436  0.5728  1.0398  0.6579
   77SLPC   H5Y 7034   2.264   0.967   6.403  2.6231 -1.8871  0.0967
   77SLPC   C36 7035   2.292   0.855   6.224  0.4271 -0.2500 -0.4995
   77SLPC   H6X 7036   2.271   0.749   6.201 -1.1212 -0.1950  0.4369
   77SLPC   H6Y 7037   2.400   0.858   6.249  0.1981  0.6226  0.5170
   77SLPC   C37 7038   2.255   0.960   6.119  0.4984  0.0859 -0.2156
   77SLPC   H7X 7039   2.145   0.949   6.111  0.3897  0.8269  0.1313
   77SLPC   H7Y 7040   2.307   0.944   6.023  1.4759  1.3899  0.0645
   77SLPC   C38 7041   2.297   1.104   6.143  0.0122 -0.2525  0.1104
   77SLPC   H8X 7042   2.405   1.114   6.165  0.5568  2.5086 -3.0609
   77SLPC   H8Y 7043   2.256   1.143   6.239  1.3680  4.2502 -0.8774
   77SLPC   C39 7044   2.257   1.207   6.033  0.0322  0.2655 -0.5313
   77SLPC   H9X 7045   2.302   1.166   5.940 -0.1139 -1.2383  0.0428
   77SLPC   H9Y 7046   2.305   1.306   6.044 -1.0020  0.4983  3.0824
   77SLPC  C310 7047   2.103   1.219   6.018  0.5379  0.2848 -0.6735
   77SLPC  H10X 7048   2.067   1.252   6.118 -0.2092  0.9354 -1.1498
   77SLPC  H10Y 7049   2.057   1.127   5.975 -0.4607  0.6883 -0.4849
   77SLPC  C311 7050   2.055   1.330   5.928  0.0690  0.2819  1.2881
   77SLPC  H11X 7051   2.067   1.426   5.984 -0.6230  0.0142  1.9057
   77SLPC  H11Y 7052   1.945   1.330   5.920  0.1057 -0.2563  0.7103
   77SLPC  C312 7053   2.117   1.326   5.786 -0.1639  0.6857  0.9440
   77SLPC  H12X 7054   2.090   1.224   5.749 -0.3583 -0.0328  2.9164
   77SLPC  H12Y 7055   2.228   1.328   5.793  0.0436  0.2186 -1.3478
   77SLPC  C313 7056   2.059   1.444   5.713 -0.2538 -0.1281 -0.7047
   77SLPC  H13X 7057   2.083   1.532   5.777  0.8983 -0.8026 -0.1660
   77SLPC  H13Y 7058   1.949   1.447   5.708 -0.2254  1.9811 -0.8660
   77SLPC  C314 7059   2.115   1.487   5.578  0.5046 -0.3239 -0.1422
   77SLPC  H14X 7060   2.218   1.523   5.595  0.3777 -0.0933  0.1418
   77SLPC  H14Y 7061   2.063   1.580   5.547 -1.5480 -0.5539  2.2712
   77SLPC  C315 7062   2.100   1.385   5.467 -0.2109 -0.3400  0.3206
   77SLPC  H15X 7063   2.117   1.438   5.371 -0.9643 -0.1329  0.2944
   77SLPC  H15Y 7064   2.003   1.334   5.478 -0.2195 -0.4054 -0.0550
   77SLPC  C316 7065   2.207   1.278   5.456 -0.6065  0.2187  0.1456
   77SLPC  H16X 7066   2.188   1.186   5.515 -0.9506  0.3283  0.2097
   77SLPC  H16Y 7067   2.302   1.324   5.491 -0.0537 -0.8014 -0.0006
   77SLPC  C317 7068   2.221   1.229   5.319 -0.3229  0.2602 -0.2826
   77SLPC  H17X 7069   2.134   1.263   5.259  0.4977  2.9657 -0.0767
   77SLPC  H17Y 7070   2.222   1.119   5.326  0.8528  0.2254 -0.7762
   77SLPC  C318 7071   2.345   1.286   5.258  0.2710  0.3415  0.1858
   77SLPC  H18X 7072   2.338   1.266   5.149  1.6970 -0.2959  0.1798
   77SLPC  H18Y 7073   2.444   1.239   5.280 -0.1517  0.6255  3.1217
   77SLPC  H18Z 7074   2.349   1.397   5.259 -2.1579  0.6384 -3.5685
   78SLPC     N 7075   5.964   4.946   7.223  0.3649  0.3425  0.0431
   78SLPC   C13 7076   6.088   4.916   7.144  0.1963 -0.3214 -0.0086
   78SLPC  H13A 7077   6.108   4.810   7.148  1.1944 -0.1694 -0.8231
   78SLPC  H13B 7078   6.069   4.936   7.040  1.1570 -2.1451 -0.5702
   78SLPC  H13C 7079   6.175   4.969   7.180 -0.6917  0.6319  0.8016
   78SLPC   C14 7080   5.973   4.875   7.354  0.9905 -0.3423 -0.1055
   78SLPC  H14A 7081   5.880   4.869   7.408  0.4877 -3.3705 -1.1203
   78SLPC  H14B 7082   6.013   4.775   7.340  2.1779  0.1825 -0.5881
   78SLPC  H14C 7083   6.035   4.936   7.417  0.6216  1.2068 -1.1780
   78SLPC   C15 7084   5.852   4.882   7.148  0.9338 -0.8900 -0.0562
   78SLPC  H15A 7085   5.812   4.946   7.071 -0.8945 -2.8338 -0.8299
   78SLPC  H15B 7086   5.884   4.792   7.097 -0.5515  0.8948 -4.7312
   78SLPC  H15C 7087   5.770   4.860   7.215  1.0726  0.4207  0.5670
   78SLPC   C12 7088   5.953   5.091   7.248 -0.6984 -0.0880  0.1245
   78SLPC  H12A 7089   6.042   5.129   7.296  0.0831 -0.3972 -1.0619
   78SLPC  H12B 7090   5.874   5.104   7.321  0.3484 -3.9543  2.2401
   78SLPC   C11 7091   5.935   5.196   7.131  0.1068 -0.1345 -0.0946
   78SLPC  H11A 7092   6.029   5.205   7.073 -2.0237  0.1542 -3.8059
   78SLPC  H11B 7093   5.916   5.299   7.169  0.2176  0.0129 -0.4410
   78SLPC     P 7094   5.776   5.264   6.928  0.0690  0.7286  0.6002
   78SLPC   O13 7095   5.804   5.188   6.799  0.1224 -0.0806  0.1795
   78SLPC   O14 7096   5.633   5.297   6.950  0.1937  0.2409  0.0882
   78SLPC   O12 7097   5.824   5.172   7.048 -0.5720 -0.2001 -0.0367
   78SLPC   O11 7098   5.863   5.391   6.952 -0.4333 -0.0624  0.7090
   78SLPC    C1 7099   5.823   5.529   6.951 -0.2241  0.6064  0.1523
   78SLPC    HA 7100   5.746   5.559   7.025 -0.4556  1.3662 -0.3930
   78SLPC    HB 7101   5.911   5.585   6.987 -1.1938 -0.2174  4.2931
   78SLPC    C2 7102   5.762   5.570   6.808 -0.0577 -0.3234 -1.2357
   78SLPC    HS 7103   5.661   5.525   6.799 -0.2428 -0.7613  1.8332
   78SLPC   O21 7104   5.849   5.527   6.707  0.6511  0.5175 -0.1498
   78SLPC   C21 7105   5.800   5.468   6.600 -0.9416  0.0748  0.1696
   78SLPC   O22 7106   5.682   5.440   6.578 -0.4034 -0.0620 -0.0005
   78SLPC   C22 7107   5.919   5.438   6.515  0.0877  0.3215  0.9189
   78SLPC   H2R 7108   5.978   5.532   6.511 -1.4724  1.4576  2.5883
   78SLPC   H2S 7109   5.989   5.357   6.544  2.3851  0.9456 -2.3669
   78SLPC    C3 7110   5.753   5.726   6.803  0.4588 -0.1518 -0.5628
   78SLPC    HX 7111   5.852   5.771   6.825  0.0436  1.4875 -1.8709
   78SLPC    HY 7112   5.680   5.766   6.875  0.8914  1.2210 -0.8562
   78SLPC   O31 7113   5.716   5.770   6.668 -0.5389 -0.0712 -0.1880
   78SLPC   C31 7114   5.590   5.792   6.650 -0.1727  0.5949 -0.1717
   78SLPC   O32 7115   5.503   5.767   6.734  0.0416 -0.8750 -0.5632
   78SLPC   C32 7116   5.575   5.843   6.511  0.7050  0.0032  0.0706
   78SLPC   H2X 7117   5.645   5.930   6.504 -0.1713  0.5984 -1.8466
   78SLPC   H2Y 7118   5.471   5.882   6.507  0.1028 -1.4645  0.7218
   78SLPC   C23 7119   5.871   5.409   6.367 -0.7021  0.1549 -0.4053
   78SLPC   H3R 7120   5.775   5.452   6.332  0.6675  4.4984  0.4497
   78SLPC   H3S 7121   5.878   5.299   6.361  2.5780  0.2449 -0.2101
   78SLPC   C24 7122   5.979   5.454   6.264  0.2725  0.6759 -0.4789
   78SLPC   H4R 7123   6.075   5.402   6.285  0.1222  1.1366  1.5776
   78SLPC   H4S 7124   6.007   5.561   6.257 -1.4770  1.3919  2.1715
   78SLPC   C25 7125   5.932   5.416   6.129 -0.1707  0.6477  0.1590
   78SLPC   H5R 7126   5.829   5.447   6.103 -0.0103  0.0411 -1.2514
   78SLPC   H5S 7127   5.932   5.305   6.120  1.4415  0.6380  0.0044
   78SLPC   C26 7128   6.021   5.478   6.015  0.1805  0.0946 -0.4024
   78SLPC   H6R 7129   6.121   5.429   6.020 -0.2792 -1.0387 -1.6626
   78SLPC   H6S 7130   6.021   5.588   6.033  0.6430 -0.1020  0.9910
   78SLPC   C27 7131   5.952   5.454   5.880 -0.8344 -0.0758 -0.0200
   78SLPC   H7R 7132   5.845   5.483   5.875 -1.2796 -1.5631  0.6323
   78SLPC   H7S 7133   5.953   5.343   5.875  0.2736 -0.0780  0.0195
   78SLPC   C28 7134   6.023   5.506   5.758 -0.4318  0.5084  0.2343
   78SLPC   H8R 7135   6.050   5.612   5.774  1.9253  0.1000 -0.6505
   78SLPC   H8S 7136   5.949   5.502   5.674 -0.3214  0.7537  0.1243
   78SLPC   C29 7137   6.153   5.428   5.744 -0.8500 -0.2255  0.1877
   78SLPC   H9R 7138   6.199   5.411   5.843 -0.1529 -0.8831 -0.2326
   78SLPC  C210 7139   6.219   5.389   5.626 -0.2979 -0.6284 -1.0055
   78SLPC  H10R 7140   6.299   5.313   5.633 -0.0646 -0.2542  1.4506
   78SLPC  C211 7141   6.159   5.426   5.497  0.3108 -0.0747 -0.7593
   78SLPC  H11R 7142   6.130   5.533   5.488  1.6279  0.2047 -2.1993
   78SLPC  H11S 7143   6.071   5.363   5.472 -1.6124  2.0416  0.3408
   78SLPC  C212 7144   6.263   5.389   5.394  0.1144 -0.7217  0.8089
   78SLPC  H12R 7145   6.360   5.344   5.419 -0.4191 -1.2453  2.0176
   78SLPC  C213 7146   6.234   5.403   5.260  0.0791  0.2650  0.3627
   78SLPC  H13R 7147   6.314   5.388   5.186 -1.0500 -1.6348 -0.5356
   78SLPC  C214 7148   6.096   5.426   5.200  0.1825  0.3972  0.3065
   78SLPC  H14R 7149   6.084   5.529   5.160 -0.1415  1.2904  2.5774
   78SLPC  H14S 7150   6.012   5.403   5.269  1.8127 -1.4444  1.7895
   78SLPC  C215 7151   6.083   5.326   5.079 -0.6979 -0.0996  0.3865
   78SLPC  H15R 7152   5.975   5.332   5.052 -1.1219 -2.3292  1.3079
   78SLPC  H15S 7153   6.111   5.224   5.114 -0.4652  0.1258  0.8624
   78SLPC  C216 7154   6.162   5.366   4.957 -0.1800  0.2283 -0.6230
   78SLPC  H16R 7155   6.268   5.334   4.957  0.0146  0.8493 -1.0034
   78SLPC  H16S 7156   6.148   5.475   4.938 -3.2090 -0.1743 -1.2407
   78SLPC  C217 7157   6.094   5.309   4.830 -0.6119 -0.0465 -0.0178
   78SLPC  H17R 7158   5.995   5.356   4.812 -0.9818  0.1333  2.1943
   78SLPC  H17S 7159   6.076   5.201   4.847 -0.1511 -0.2495 -0.7832
   78SLPC  C218 7160   6.189   5.332   4.709 -0.3715 -0.4018 -1.2061
   78SLPC  H18R 7161   6.293   5.301   4.734 -0.7831 -2.0395 -1.3572
   78SLPC  H18S 7162   6.203   5.441   4.700  1.4250 -0.5493 -0.6471
   78SLPC  H18T 7163   6.163   5.298   4.607  1.2325 -1.5035 -1.3011
   78SLPC   C33 7164   5.602   5.733   6.402 -0.0627 -0.3858  0.3150
   78SLPC   H3X 7165   5.554   5.636   6.425  1.0228 -0.8329  0.7650
   78SLPC   H3Y 7166   5.711   5.711   6.402  0.2489  0.9473 -1.2939
   78SLPC   C34 7167   5.570   5.785   6.267  0.0761  0.5887  0.0881
   78SLPC   H4X 7168   5.647   5.863   6.245  0.3645 -0.1625 -1.7651
   78SLPC   H4Y 7169   5.473   5.835   6.249  0.5390  1.1092 -1.0750
   78SLPC   C35 7170   5.593   5.682   6.147  0.2060  0.4711 -0.4230
   78SLPC   H5X 7171   5.517   5.603   6.164 -0.2532  0.9290 -0.3139
   78SLPC   H5Y 7172   5.687   5.632   6.180 -1.6016 -1.8562  1.5144
   78SLPC   C36 7173   5.594   5.763   6.013 -0.1874  0.6583  0.1209
   78SLPC   H6X 7174   5.653   5.855   6.033 -0.3018  0.2311  2.7366
   78SLPC   H6Y 7175   5.486   5.788   6.003 -0.4057 -0.7022 -1.1556
   78SLPC   C37 7176   5.642   5.678   5.894  0.5528  0.4922 -0.1304
   78SLPC   H7X 7177   5.592   5.580   5.880  0.3829  0.5971 -0.2546
   78SLPC   H7Y 7178   5.745   5.655   5.930  0.0549 -0.2849  0.8138
   78SLPC   C38 7179   5.644   5.753   5.767 -0.4141  0.4431 -0.4673
   78SLPC   H8X 7180   5.653   5.862   5.788  2.2675  0.0099  1.0828
   78SLPC   H8Y 7181   5.547   5.735   5.716  0.2660 -2.3693 -0.9165
   78SLPC   C39 7182   5.760   5.712   5.672 -0.5363 -0.4001 -0.3071
   78SLPC   H9X 7183   5.771   5.604   5.649  0.2190 -0.4638  0.2951
   78SLPC   H9Y 7184   5.853   5.734   5.729 -0.8154  0.4848 -0.1730
   78SLPC  C310 7185   5.765   5.802   5.550  0.2063  0.0939 -0.0251
   78SLPC  H10X 7186   5.769   5.908   5.583  1.1245  0.4034 -1.0995
   78SLPC  H10Y 7187   5.671   5.793   5.491  0.6358 -1.3101 -0.5276
   78SLPC  C311 7188   5.893   5.786   5.460  0.2115 -0.8509 -0.2669
   78SLPC  H11X 7189   5.892   5.683   5.419 -0.4048 -0.7015 -0.6429
   78SLPC  H11Y 7190   5.985   5.802   5.520  0.0847 -0.1392 -0.2566
   78SLPC  C312 7191   5.906   5.880   5.341  0.2396  0.7026  0.5975
   78SLPC  H12X 7192   5.946   5.982   5.357 -1.5051  1.7083 -1.0039
   78SLPC  H12Y 7193   5.818   5.875   5.273 -1.6112 -1.2601  2.9215
   78SLPC  C313 7194   6.014   5.827   5.240  0.3384  0.0970  0.2433
   78SLPC  H13X 7195   5.996   5.718   5.228  0.3416  0.1631 -0.3969
   78SLPC  H13Y 7196   6.115   5.851   5.279 -0.0747  0.8791  0.8845
   78SLPC  C314 7197   5.992   5.896   5.101 -0.3890 -0.1094 -1.0609
   78SLPC  H14X 7198   5.979   6.005   5.117 -2.3477 -0.4431 -0.1134
   78SLPC  H14Y 7199   5.893   5.864   5.063 -1.0440  0.4015  0.1410
   78SLPC  C315 7200   6.111   5.879   5.004  0.2768  0.6275  0.5199
   78SLPC  H15X 7201   6.121   5.776   4.964  2.3316  0.3538  1.6086
   78SLPC  H15Y 7202   6.206   5.909   5.054 -0.8599 -0.6521  3.7361
   78SLPC  C316 7203   6.099   5.976   4.883 -0.0489  0.3487  0.5980
   78SLPC  H16X 7204   6.098   6.082   4.916  0.2505  0.3505  0.6049
   78SLPC  H16Y 7205   6.005   5.946   4.833 -0.2971 -0.5146  1.5442
   78SLPC  C317 7206   6.220   5.975   4.784 -0.2102  0.5610 -0.3336
   78SLPC  H17X 7207   6.313   6.014   4.831 -0.9425  2.6562 -0.5231
   78SLPC  H17Y 7208   6.215   6.047   4.699  0.8735 -0.9104 -1.6928
   78SLPC  C318 7209   6.248   5.837   4.725  0.1256  0.1449 -0.0601
   78SLPC  H18X 7210   6.154   5.794   4.683  0.9746 -0.6983 -1.1632
   78SLPC  H18Y 7211   6.286   5.761   4.797 -0.8808 -2.2056 -1.8382
   78SLPC  H18Z 7212   6.315   5.833   4.636 -1.8287 -1.5671 -1.5760
   79SLPC     N 7213   4.512   2.648   7.441 -0.1224 -0.8177  0.2884
   79SLPC   C13 7214   4.493   2.573   7.568 -0.3715 -0.6682  0.8610
   79SLPC  H13A 7215   4.498   2.468   7.545 -0.0828 -1.0459  2.4897
   79SLPC  H13B 7216   4.570   2.603   7.638 -0.1436 -1.4755  0.9700
   79SLPC  H13C 7217   4.398   2.596   7.615 -0.5657 -1.4554  0.8687
   79SLPC   C14 7218   4.637   2.619   7.373  0.3811 -1.0222  0.3061
   79SLPC  H14A 7219   4.646   2.512   7.362 -1.3406 -1.1328 -0.3018
   79SLPC  H14B 7220   4.637   2.673   7.279  0.0258  2.0149  1.9110
   79SLPC  H14C 7221   4.721   2.658   7.430 -1.2924 -0.6366  2.6461
   79SLPC   C15 7222   4.502   2.795   7.481  0.0566 -0.1685 -0.9221
   79SLPC  H15A 7223   4.588   2.821   7.541  0.5648 -2.6534 -0.4662
   79SLPC  H15B 7224   4.491   2.862   7.396 -0.1913 -2.0411 -2.4454
   79SLPC  H15C 7225   4.418   2.809   7.548 -0.5574 -2.9661 -0.9841
   79SLPC   C12 7226   4.398   2.616   7.354  0.3143 -0.4627  0.4195
   79SLPC  H12A 7227   4.308   2.660   7.394 -0.6014 -1.6980 -0.1933
   79SLPC  H12B 7228   4.382   2.509   7.351  0.2681 -0.5062 -4.2202
   79SLPC   C11 7229   4.399   2.655   7.207  0.2589 -0.5580  0.1997
   79SLPC  H11A 7230   4.301   2.614   7.175 -0.0419  1.2848 -1.4525
   79SLPC  H11B 7231   4.482   2.609   7.148 -0.8861  0.5824 -2.4975
   79SLPC     P 7232   4.490   2.873   7.104 -0.1054 -0.3289  0.0861
   79SLPC   O13 7233   4.445   3.013   7.073 -0.3232  1.1003 -0.0729
   79SLPC   O14 7234   4.618   2.865   7.177 -0.3571 -0.5572  0.0562
   79SLPC   O12 7235   4.382   2.795   7.192  0.2156 -0.2836  0.9821
   79SLPC   O11 7236   4.493   2.795   6.961 -0.1888 -0.2411 -0.1878
   79SLPC    C1 7237   4.362   2.769   6.910  0.1802 -0.3231 -0.8945
   79SLPC    HA 7238   4.330   2.674   6.958 -2.0217  0.6929 -0.1774
   79SLPC    HB 7239   4.282   2.844   6.932  0.4602 -0.0258 -0.8873
   79SLPC    C2 7240   4.366   2.772   6.756 -0.3525  0.4513  0.1761
   79SLPC    HS 7241   4.262   2.766   6.720 -0.8901  0.1548  1.7050
   79SLPC   O21 7242   4.448   2.668   6.688 -0.5237 -0.6040  0.2859
   79SLPC   C21 7243   4.406   2.551   6.707 -0.4565 -0.1624 -0.4505
   79SLPC   O22 7244   4.297   2.524   6.761 -0.2116 -0.4662 -0.3818
   79SLPC   C22 7245   4.500   2.450   6.654 -0.4700  0.3189  0.7790
   79SLPC   H2R 7246   4.604   2.489   6.661 -0.3182  0.7303 -2.2480
   79SLPC   H2S 7247   4.497   2.367   6.728  1.5957  0.6673  1.3269
   79SLPC    C3 7248   4.424   2.914   6.721 -0.2772 -0.3405  0.3998
   79SLPC    HX 7249   4.534   2.912   6.739 -0.6183 -2.1110  2.5982
   79SLPC    HY 7250   4.371   2.978   6.794 -2.7351 -0.2119 -1.3843
   79SLPC   O31 7251   4.413   2.950   6.576  0.4291  0.4814 -0.3661
   79SLPC   C31 7252   4.302   3.020   6.554 -0.2519 -0.5894  0.0094
   79SLPC   O32 7253   4.205   3.034   6.626 -0.5701  0.0127  0.1738
   79SLPC   C32 7254   4.316   3.078   6.415 -0.3623  0.7130  0.4726
   79SLPC   H2X 7255   4.357   3.001   6.346  0.9539  1.3650  0.5021
   79SLPC   H2Y 7256   4.389   3.159   6.434  0.2084 -0.2777  2.7570
   79SLPC   C23 7257   4.474   2.420   6.506  0.3022 -0.4226  0.6928
   79SLPC   H3R 7258   4.484   2.517   6.453  2.0987 -0.9758 -0.0560
   79SLPC   H3S 7259   4.368   2.388   6.500  0.3957 -1.0331  1.8553
   79SLPC   C24 7260   4.561   2.321   6.428  0.0077  0.2584 -0.5146
   79SLPC   H4R 7261   4.549   2.229   6.489  0.4652 -0.3704 -1.3517
   79SLPC   H4S 7262   4.668   2.349   6.436 -0.3051  1.6395 -0.8802
   79SLPC   C25 7263   4.510   2.297   6.283  0.3562 -0.4197  0.3628
   79SLPC   H5R 7264   4.526   2.393   6.229  1.7603 -1.1603 -0.6194
   79SLPC   H5S 7265   4.401   2.282   6.291  0.2698  0.2410  0.5023
   79SLPC   C26 7266   4.586   2.188   6.211 -0.6109  0.1005 -0.6707
   79SLPC   H6R 7267   4.587   2.085   6.253 -0.4890  0.7166  0.9093
   79SLPC   H6S 7268   4.692   2.218   6.200 -0.3929 -0.8695 -1.3181
   79SLPC   C27 7269   4.524   2.159   6.066  0.6316 -0.4028 -0.3153
   79SLPC   H7R 7270   4.498   2.252   6.011 -0.9158 -1.9342 -2.3534
   79SLPC   H7S 7271   4.426   2.111   6.085  1.5406 -1.5731  1.7682
   79SLPC   C28 7272   4.599   2.057   5.975  0.4989  0.0740  0.0844
   79SLPC   H8R 7273   4.536   2.015   5.894  1.2119 -2.0431  0.5497
   79SLPC   H8S 7274   4.608   1.966   6.039 -0.0525  0.5543  0.8640
   79SLPC   C29 7275   4.734   2.121   5.930 -0.6348 -0.8714  0.4008
   79SLPC   H9R 7276   4.820   2.108   5.998  2.1017  1.3074 -2.3728
   79SLPC  C210 7277   4.769   2.181   5.811 -0.2898 -0.1181 -0.2235
   79SLPC  H10R 7278   4.873   2.217   5.807  0.3089 -1.5451  1.1872
   79SLPC  C211 7279   4.670   2.207   5.700  0.4528 -0.0534 -0.2419
   79SLPC  H11R 7280   4.595   2.280   5.736 -0.3537  0.0056 -1.9274
   79SLPC  H11S 7281   4.619   2.115   5.662  1.2826 -1.6407  2.2440
   79SLPC  C212 7282   4.742   2.269   5.581  0.5976 -0.2391 -0.3610
   79SLPC  H12R 7283   4.803   2.357   5.609  0.1757  0.1606 -0.6840
   79SLPC  C213 7284   4.718   2.245   5.449  0.4710  0.5295  0.4521
   79SLPC  H13R 7285   4.762   2.310   5.371 -1.1388 -0.9533 -1.8406
   79SLPC  C214 7286   4.650   2.125   5.389  0.5045 -0.8784  0.3813
   79SLPC  H14R 7287   4.590   2.073   5.467  0.9504 -2.3668 -0.2366
   79SLPC  H14S 7288   4.728   2.058   5.346 -0.6118 -2.3351  0.5256
   79SLPC  C215 7289   4.529   2.157   5.287 -0.8436 -0.4805 -0.3844
   79SLPC  H15R 7290   4.444   2.213   5.332  0.5423  1.5006 -0.0717
   79SLPC  H15S 7291   4.484   2.061   5.256 -1.9744 -0.3101  0.6358
   79SLPC  C216 7292   4.582   2.225   5.161 -0.0683  0.1209 -0.1463
   79SLPC  H16R 7293   4.651   2.154   5.111 -2.1161 -1.5126 -0.7787
   79SLPC  H16S 7294   4.644   2.315   5.185 -0.3761 -0.1542  1.9045
   79SLPC  C217 7295   4.477   2.269   5.058 -0.2505  0.4860  0.6790
   79SLPC  H17R 7296   4.406   2.186   5.036 -1.0125  1.4012 -0.3921
   79SLPC  H17S 7297   4.523   2.302   4.962 -2.2960 -0.4212 -0.6902
   79SLPC  C218 7298   4.407   2.399   5.090  0.3260  0.3201 -0.9703
   79SLPC  H18R 7299   4.463   2.492   5.069 -3.9639  3.7084  0.9784
   79SLPC  H18S 7300   4.373   2.393   5.195 -0.2227  1.0544 -1.1041
   79SLPC  H18T 7301   4.320   2.404   5.021 -0.3739  1.0977 -0.0641
   79SLPC   C33 7302   4.184   3.135   6.345 -0.6974  0.5884 -0.7279
   79SLPC   H3X 7303   4.146   3.222   6.403 -0.8385  0.2641 -0.3245
   79SLPC   H3Y 7304   4.108   3.056   6.364 -0.8002  1.1531  1.4304
   79SLPC   C34 7305   4.204   3.163   6.196  0.5976 -0.5078  0.0644
   79SLPC   H4X 7306   4.235   3.068   6.148  0.8747 -1.0015  1.1917
   79SLPC   H4Y 7307   4.293   3.229   6.191  0.2802 -0.1496 -1.7013
   79SLPC   C35 7308   4.083   3.215   6.121  0.2845  0.2135  0.1352
   79SLPC   H5X 7309   4.040   3.298   6.181  1.9642 -0.2092  2.0523
   79SLPC   H5Y 7310   4.008   3.134   6.109  0.8174 -0.3695  0.6342
   79SLPC   C36 7311   4.107   3.272   5.983  0.4658  0.1606 -0.4496
   79SLPC   H6X 7312   4.125   3.190   5.909 -1.0057  0.7345 -1.4870
   79SLPC   H6Y 7313   4.191   3.344   5.981 -0.6549  1.4861 -1.6518
   79SLPC   C37 7314   3.979   3.341   5.931 -0.5495  0.2466  0.3326
   79SLPC   H7X 7315   3.926   3.376   6.022 -0.3768 -2.2583  1.4618
   79SLPC   H7Y 7316   3.898   3.278   5.888 -0.6330  1.0239 -0.7112
   79SLPC   C38 7317   4.011   3.442   5.825  0.2291 -0.0935 -0.1456
   79SLPC   H8X 7318   4.078   3.512   5.879  0.7746 -1.7427  1.4052
   79SLPC   H8Y 7319   3.912   3.488   5.802 -1.8858 -4.6550 -1.2131
   79SLPC   C39 7320   4.040   3.388   5.683 -0.2088  0.4706 -0.1740
   79SLPC   H9X 7321   3.950   3.332   5.649 -0.7569  0.4101  1.2879
   79SLPC   H9Y 7322   4.117   3.308   5.687  0.5499  1.2036  0.3551
   79SLPC  C310 7323   4.058   3.504   5.585 -0.2978 -0.2008  0.1526
   79SLPC  H10X 7324   4.148   3.564   5.607 -0.4081  0.3266 -0.7901
   79SLPC  H10Y 7325   3.974   3.577   5.587  0.3668  0.6819 -1.7648
   79SLPC  C311 7326   4.087   3.462   5.439 -0.3200  0.3903 -0.3684
   79SLPC  H11X 7327   4.184   3.408   5.435  0.2831  1.0533  2.5426
   79SLPC  H11Y 7328   4.118   3.556   5.388  1.4646 -0.2955 -0.6145
   79SLPC  C312 7329   3.981   3.393   5.356 -0.3817  0.0254  0.2214
   79SLPC  H12X 7330   3.901   3.460   5.317 -0.2745  0.1392  0.1978
   79SLPC  H12Y 7331   3.928   3.322   5.422 -2.1488 -0.6261 -1.7668
   79SLPC  C313 7332   4.023   3.305   5.229  0.6648  0.0663 -0.4243
   79SLPC  H13X 7333   3.928   3.272   5.183 -0.1320  0.7051  0.7058
   79SLPC  H13Y 7334   4.076   3.218   5.273 -0.0005 -0.0363  0.1908
   79SLPC  C314 7335   4.108   3.382   5.136 -0.3240 -0.8549  0.1296
   79SLPC  H14X 7336   4.202   3.429   5.169  0.9450 -1.4328 -2.4203
   79SLPC  H14Y 7337   4.043   3.464   5.100  2.3666  1.3453  0.0318
   79SLPC  C315 7338   4.149   3.286   5.021  0.6013 -0.3998  0.4410
   79SLPC  H15X 7339   4.069   3.210   5.008  1.4097 -1.3814  1.0166
   79SLPC  H15Y 7340   4.226   3.214   5.057 -1.2520 -3.1371 -0.7272
   79SLPC  C316 7341   4.194   3.351   4.888 -0.2182 -0.2415 -0.0171
   79SLPC  H16X 7342   4.272   3.430   4.894  0.8735 -1.4101  2.9633
   79SLPC  H16Y 7343   4.110   3.389   4.827  0.9890  0.1344 -1.5062
   79SLPC  C317 7344   4.255   3.238   4.807  0.2759  0.2233  0.5615
   79SLPC  H17X 7345   4.184   3.155   4.792  1.1962 -0.1335 -2.7110
   79SLPC  H17Y 7346   4.335   3.194   4.870 -0.7523 -2.2998  0.2205
   79SLPC  C318 7347   4.316   3.274   4.671 -0.4548 -0.3845  0.2570
   79SLPC  H18X 7348   4.233   3.316   4.611  0.6181  0.0733 -0.9552
   79SLPC  H18Y 7349   4.367   3.195   4.612  0.9019  0.3385  0.4231
   79SLPC  H18Z 7350   4.387   3.359   4.682 -1.0418 -0.1493  3.3678
   80SLPC     N 7351   1.667   6.799   7.170 -0.2852  0.3029 -0.3722
   80SLPC   C13 7352   1.786   6.822   7.259  0.7686 -0.3878 -0.6815
   80SLPC  H13A 7353   1.800   6.737   7.324  2.0515  1.9132  2.2605
   80SLPC  H13B 7354   1.877   6.841   7.204  0.9705 -0.3341 -0.3284
   80SLPC  H13C 7355   1.772   6.911   7.318  1.0294 -2.1099  2.1604
   80SLPC   C14 7356   1.551   6.782   7.261  0.0820  0.0935  0.0873
   80SLPC  H14A 7357   1.465   6.772   7.196 -0.3914  0.6729  0.6022
   80SLPC  H14B 7358   1.552   6.696   7.327  0.3079  0.1433  0.1477
   80SLPC  H14C 7359   1.546   6.873   7.320 -0.3372  0.4463 -0.4789
   80SLPC   C15 7360   1.691   6.677   7.083 -0.9992 -0.1001  0.0193
   80SLPC  H15A 7361   1.768   6.700   7.011 -1.4623 -1.3719 -0.9161
   80SLPC  H15B 7362   1.723   6.590   7.139 -0.0516  0.2079 -0.0219
   80SLPC  H15C 7363   1.598   6.646   7.038 -0.8305 -1.4916  0.5837
   80SLPC   C12 7364   1.630   6.929   7.090 -0.2588  0.0124  0.5759
   80SLPC  H12A 7365   1.593   7.002   7.161 -0.5060 -1.6026  2.1926
   80SLPC  H12B 7366   1.543   6.899   7.035  1.7140 -2.6239 -1.4007
   80SLPC   C11 7367   1.738   6.990   7.000 -0.0437  0.8974 -0.3576
   80SLPC  H11A 7368   1.827   7.021   7.060 -0.6628  1.5335  0.2411
   80SLPC  H11B 7369   1.695   7.079   6.950 -1.5520  0.2500 -0.2609
   80SLPC     P 7370   1.681   6.863   6.778  0.0648  0.2068 -0.0230
   80SLPC   O13 7371   1.712   6.726   6.727 -0.0214  0.0710 -0.0163
   80SLPC   O14 7372   1.543   6.890   6.814  0.3146 -0.5566  0.6387
   80SLPC   O12 7373   1.774   6.890   6.903  0.7322 -0.3362 -0.1425
   80SLPC   O11 7374   1.734   6.961   6.674  0.6193 -0.5343  0.7418
   80SLPC    C1 7375   1.877   6.970   6.668 -0.3993 -0.1630 -0.8782
   80SLPC    HA 7376   1.932   6.893   6.725  1.2022  0.0032 -2.0961
   80SLPC    HB 7377   1.922   6.959   6.567  2.1348  0.0079  0.1591
   80SLPC    C2 7378   1.933   7.115   6.708  0.0242 -0.9544 -0.1693
   80SLPC    HS 7379   1.896   7.146   6.808 -0.2789  0.0212 -0.5657
   80SLPC   O21 7380   1.890   7.216   6.614 -0.4224  0.3881 -0.7076
   80SLPC   C21 7381   1.765   7.254   6.623  0.2017 -0.2981 -0.0373
   80SLPC   O22 7382   1.692   7.240   6.720  0.3654 -0.4803 -0.2171
   80SLPC   C22 7383   1.731   7.330   6.490  0.3616 -0.1482  0.2230
   80SLPC   H2R 7384   1.678   7.247   6.438  0.0072 -0.1972  0.6541
   80SLPC   H2S 7385   1.669   7.418   6.518 -0.1597 -0.3212 -0.3658
   80SLPC    C3 7386   2.087   7.111   6.735 -0.8867 -0.2317 -0.3683
   80SLPC    HX 7387   2.119   7.063   6.829 -0.6051 -0.9306 -0.8107
   80SLPC    HY 7388   2.128   7.213   6.749  1.6293 -1.1892 -0.1095
   80SLPC   O31 7389   2.152   7.041   6.634 -0.4374  0.1203  0.5850
   80SLPC   C31 7390   2.184   7.113   6.531  0.0604  0.5836 -0.1890
   80SLPC   O32 7391   2.169   7.234   6.515 -0.1212  0.0199 -0.5634
   80SLPC   C32 7392   2.232   7.009   6.424  0.6094  0.2122 -0.1235
   80SLPC   H2X 7393   2.148   6.937   6.412 -1.5897  1.9914  3.0224
   80SLPC   H2Y 7394   2.315   6.958   6.476 -1.2220 -1.7298  1.0877
   80SLPC   C23 7395   1.849   7.374   6.395  0.7506  0.3902 -0.0500
   80SLPC   H3R 7396   1.902   7.282   6.363  1.0183  0.8594 -0.9876
   80SLPC   H3S 7397   1.919   7.431   6.460  1.0533 -1.2783  1.1647
   80SLPC   C24 7398   1.795   7.437   6.268  0.2312  0.0166 -0.4531
   80SLPC   H4R 7399   1.757   7.536   6.301 -0.0430 -1.0046  2.5234
   80SLPC   H4S 7400   1.712   7.379   6.223 -2.1802  2.4337  0.6368
   80SLPC   C25 7401   1.900   7.482   6.167 -0.3519  0.0548  0.7012
   80SLPC   H5R 7402   1.937   7.382   6.134  0.1299 -0.0513  1.5553
   80SLPC   H5S 7403   1.982   7.546   6.205  0.7241 -0.9593  0.1295
   80SLPC   C26 7404   1.829   7.552   6.047  0.4974 -0.1386 -0.7665
   80SLPC   H6R 7405   1.770   7.633   6.095  1.0451  1.3456 -2.4923
   80SLPC   H6S 7406   1.758   7.476   6.006  1.2280 -0.4234 -1.5392
   80SLPC   C27 7407   1.916   7.616   5.933 -0.1501  0.1172  0.3464
   80SLPC   H7R 7408   1.970   7.529   5.888 -2.9502 -2.2486  1.2292
   80SLPC   H7S 7409   1.985   7.696   5.967 -0.4274 -0.1075  1.4806
   80SLPC   C28 7410   1.819   7.668   5.824  0.9426  0.5934 -0.0331
   80SLPC   H8R 7411   1.843   7.775   5.807 -1.5952  1.1285 -0.5873
   80SLPC   H8S 7412   1.714   7.670   5.861  1.0368  3.0360  0.2642
   80SLPC   C29 7413   1.824   7.583   5.701  0.0036  0.5282 -0.0830
   80SLPC   H9R 7414   1.777   7.485   5.714  1.0149 -0.8333 -4.8808
   80SLPC  C210 7415   1.861   7.610   5.577 -0.2825 -0.2278  0.4361
   80SLPC  H10R 7416   1.867   7.537   5.496  1.2048 -0.3598  0.6312
   80SLPC  C211 7417   1.929   7.735   5.538  0.6747  0.0094 -0.1876
   80SLPC  H11R 7418   2.010   7.709   5.467  0.5385  0.2958 -0.4517
   80SLPC  H11S 7419   1.984   7.771   5.627 -2.4548 -0.3030  2.0545
   80SLPC  C212 7420   1.840   7.845   5.486  0.4303  0.2140  0.0346
   80SLPC  H12R 7421   1.792   7.907   5.563  1.0324  0.5269  0.1692
   80SLPC  C213 7422   1.820   7.884   5.358  0.4412 -0.5512 -0.2888
   80SLPC  H13R 7423   1.750   7.966   5.334  2.1962  1.4970  1.2773
   80SLPC  C214 7424   1.878   7.822   5.228  0.1360 -0.2859 -0.1673
   80SLPC  H14R 7425   1.952   7.749   5.267  1.7687  2.3288  2.0128
   80SLPC  H14S 7426   1.932   7.900   5.169  3.6299 -0.3173  2.6511
   80SLPC  C215 7427   1.773   7.766   5.132  0.0114 -0.6373 -0.9319
   80SLPC  H15R 7428   1.827   7.730   5.041 -0.0751 -1.0433 -0.8240
   80SLPC  H15S 7429   1.706   7.850   5.104 -0.4713  0.4437  2.9312
   80SLPC  C216 7430   1.702   7.642   5.185 -0.0199  0.0270  0.6281
   80SLPC  H16R 7431   1.666   7.658   5.288 -0.6998 -0.1321  0.4198
   80SLPC  H16S 7432   1.773   7.558   5.171 -0.3599  0.1146 -2.4964
   80SLPC  C217 7433   1.581   7.613   5.098 -0.2716 -0.8695 -0.2267
   80SLPC  H17R 7434   1.554   7.505   5.108 -0.3668 -0.9801 -1.4826
   80SLPC  H17S 7435   1.619   7.613   4.993 -1.4262  1.0600 -0.6924
   80SLPC  C218 7436   1.458   7.689   5.118  0.6937 -0.3244  0.2942
   80SLPC  H18R 7437   1.471   7.799   5.104  0.5325  0.5282  5.1630
   80SLPC  H18S 7438   1.408   7.670   5.215 -0.1608  1.5405  0.2715
   80SLPC  H18T 7439   1.388   7.664   5.036  0.6276  0.9016 -0.0496
   80SLPC   C33 7440   2.272   7.086   6.294  0.3870  0.6416  0.3431
   80SLPC   H3X 7441   2.340   7.010   6.250  3.6155  2.5930  1.5822
   80SLPC   H3Y 7442   2.314   7.189   6.302  0.2206  0.7951 -0.5899
   80SLPC   C34 7443   2.156   7.115   6.193  0.0445  0.5342 -0.0726
   80SLPC   H4X 7444   2.086   7.181   6.249 -1.6001 -0.9612 -0.2736
   80SLPC   H4Y 7445   2.105   7.022   6.161 -1.4945  0.3128  2.6789
   80SLPC   C35 7446   2.195   7.190   6.063  0.4740 -0.4952 -0.9149
   80SLPC   H5X 7447   2.244   7.286   6.088  0.3511 -0.8506  0.8052
   80SLPC   H5Y 7448   2.096   7.211   6.018  0.7872  0.1338 -1.3237
   80SLPC   C36 7449   2.290   7.114   5.971 -0.1190  0.3854 -0.1433
   80SLPC   H6X 7450   2.237   7.024   5.933 -1.3679  1.5700 -1.3274
   80SLPC   H6Y 7451   2.380   7.086   6.029 -0.3612 -0.4978 -0.1755
   80SLPC   C37 7452   2.322   7.189   5.847 -0.1342 -0.0164  0.0814
   80SLPC   H7X 7453   2.378   7.119   5.782  0.0306  1.4543 -1.4510
   80SLPC   H7Y 7454   2.383   7.278   5.875  0.5458 -0.7474  0.9709
   80SLPC   C38 7455   2.202   7.238   5.766  0.2361  0.2646  0.4969
   80SLPC   H8X 7456   2.158   7.333   5.804  3.5325  0.9907  2.9611
   80SLPC   H8Y 7457   2.126   7.158   5.758  1.9878 -1.2602 -2.1333
   80SLPC   C39 7458   2.249   7.270   5.619  1.0217  0.1802 -0.3196
   80SLPC   H9X 7459   2.274   7.176   5.565 -3.2681 -1.0278 -0.5470
   80SLPC   H9Y 7460   2.341   7.330   5.637  1.7319 -1.7048  3.2660
   80SLPC  C310 7461   2.143   7.342   5.536  0.7914  0.0537  0.5257
   80SLPC  H10X 7462   2.107   7.435   5.584 -2.1079 -0.1484 -1.0264
   80SLPC  H10Y 7463   2.056   7.274   5.520  0.0497  1.4502 -1.8095
   80SLPC  C311 7464   2.190   7.378   5.395 -0.2911  0.2600  0.6705
   80SLPC  H11X 7465   2.234   7.288   5.348  4.0903  2.4283  0.1425
   80SLPC  H11Y 7466   2.266   7.459   5.402 -0.2618  0.1904  1.1822
   80SLPC  C312 7467   2.074   7.424   5.303 -1.0243 -0.5775  0.1407
   80SLPC  H12X 7468   2.035   7.524   5.332  1.2715  1.0643 -2.0040
   80SLPC  H12Y 7469   1.994   7.351   5.329  0.9775 -3.5852 -1.6226
   80SLPC  C313 7470   2.097   7.388   5.154  0.0143 -0.9214  0.4356
   80SLPC  H13X 7471   2.002   7.420   5.106  0.3510  0.4616  0.6449
   80SLPC  H13Y 7472   2.110   7.282   5.126 -0.4132 -0.8240 -0.1486
   80SLPC  C314 7473   2.205   7.467   5.074 -0.1161 -0.5462  0.2716
   80SLPC  H14X 7474   2.221   7.436   4.969 -1.0237  2.7535 -0.9885
   80SLPC  H14Y 7475   2.301   7.452   5.127 -0.8868  1.1904  2.3315
   80SLPC  C315 7476   2.184   7.618   5.083  0.1103  0.0817  0.3657
   80SLPC  H15X 7477   2.186   7.639   5.192 -0.3941 -0.0332  0.4018
   80SLPC  H15Y 7478   2.080   7.648   5.056 -0.3306 -1.1052  0.6491
   80SLPC  C316 7479   2.283   7.714   5.011 -0.4713 -0.1563  0.2517
   80SLPC  H16X 7480   2.265   7.705   4.901 -1.5745  0.0778  0.4006
   80SLPC  H16Y 7481   2.386   7.683   5.036 -0.1084  1.4029  0.8091
   80SLPC  C317 7482   2.261   7.859   5.054 -0.1409 -0.7694  0.3273
   80SLPC  H17X 7483   2.279   7.864   5.164 -1.3626  0.0178  0.5032
   80SLPC  H17Y 7484   2.156   7.886   5.034 -0.4257 -1.2921  1.0681
   80SLPC  C318 7485   2.347   7.970   4.990 -0.4715 -0.0572  0.0064
   80SLPC  H18X 7486   2.364   7.967   4.881 -0.4230  0.7318 -0.0176
   80SLPC  H18Y 7487   2.446   7.975   5.039 -0.7074  3.6131  0.4204
   80SLPC  H18Z 7488   2.293   8.065   5.010  0.7874  0.5786  0.5268
   81SLPC     N 7489   1.659   2.226   2.511  0.5882 -1.0944 -0.3197
   81SLPC   C13 7490   1.787   2.174   2.566  0.1730 -0.0752 -0.2283
   81SLPC  H13A 7491   1.859   2.253   2.584 -0.0758  0.1628 -0.2825
   81SLPC  H13B 7492   1.784   2.135   2.667  1.8986  0.1119 -0.0641
   81SLPC  H13C 7493   1.821   2.095   2.501 -0.4612 -1.4897  1.0902
   81SLPC   C14 7494   1.574   2.119   2.471  0.7334  0.7090  0.0252
   81SLPC  H14A 7495   1.626   2.063   2.395  0.1550  0.1082  0.0652
   81SLPC  H14B 7496   1.548   2.064   2.559 -0.2643  0.7820 -0.2089
   81SLPC  H14C 7497   1.484   2.145   2.416 -0.0682 -1.8935 -0.0029
   81SLPC   C15 7498   1.678   2.303   2.387  0.8686  0.1040  0.2095
   81SLPC  H15A 7499   1.754   2.262   2.322 -0.5872 -0.5426 -1.1443
   81SLPC  H15B 7500   1.596   2.313   2.318  0.9661 -0.8608 -0.0478
   81SLPC  H15C 7501   1.716   2.401   2.415  1.1429  0.0894 -0.1055
   81SLPC   C12 7502   1.587   2.312   2.619  0.5456  0.2784  0.6934
   81SLPC  H12A 7503   1.543   2.236   2.682 -2.1801 -1.2672 -2.7068
   81SLPC  H12B 7504   1.500   2.359   2.575  1.4559  2.9419  1.5646
   81SLPC   C11 7505   1.653   2.420   2.691 -0.2231  0.0298 -0.0112
   81SLPC  H11A 7506   1.737   2.380   2.753  0.3243 -0.7040 -1.1838
   81SLPC  H11B 7507   1.575   2.459   2.759 -0.0361 -1.4530  1.1085
   81SLPC     P 7508   1.645   2.646   2.555 -0.1008  0.2613  0.0828
   81SLPC   O13 7509   1.740   2.734   2.487  0.3234 -0.0928  0.0481
   81SLPC   O14 7510   1.525   2.608   2.474 -0.1084 -0.1268  0.2648
   81SLPC   O12 7511   1.717   2.517   2.596 -0.3454  0.7286 -0.1634
   81SLPC   O11 7512   1.600   2.714   2.697 -0.2740  0.6894  0.1843
   81SLPC    C1 7513   1.491   2.801   2.709  0.8185 -0.2098 -0.0026
   81SLPC    HA 7514   1.491   2.874   2.625  0.5962  0.2246  0.3699
   81SLPC    HB 7515   1.391   2.753   2.719  0.9785 -0.3387  1.1611
   81SLPC    C2 7516   1.500   2.879   2.841  0.2755 -0.3928 -0.3519
   81SLPC    HS 7517   1.401   2.930   2.845  1.2295  1.5633 -0.5772
   81SLPC   O21 7518   1.614   2.967   2.835 -0.0140 -0.6450 -0.0632
   81SLPC   C21 7519   1.588   3.087   2.883 -0.7680 -0.2924  0.0171
   81SLPC   O22 7520   1.488   3.119   2.938 -0.0810 -0.1186 -0.1091
   81SLPC   C22 7521   1.706   3.186   2.876  0.0785 -0.8133  1.1437
   81SLPC   H2R 7522   1.794   3.129   2.839 -1.4026 -2.8534  0.5550
   81SLPC   H2S 7523   1.674   3.266   2.806  0.2174 -0.9658  0.9017
   81SLPC    C3 7524   1.507   2.781   2.962  0.5806  0.2007  0.3699
   81SLPC    HX 7525   1.613   2.748   2.967  0.5809  0.2960  1.2923
   81SLPC    HY 7526   1.454   2.686   2.937  1.5422  0.2356 -1.9990
   81SLPC   O31 7527   1.469   2.838   3.085  0.4121  0.6011 -0.7674
   81SLPC   C31 7528   1.342   2.853   3.100 -0.3947 -0.8245  0.1455
   81SLPC   O32 7529   1.250   2.808   3.031  0.4404  0.0093 -0.1360
   81SLPC   C32 7530   1.316   2.940   3.221 -0.3666  0.0247  0.3978
   81SLPC   H2X 7531   1.420   2.966   3.251 -0.5116 -0.4162  1.3081
   81SLPC   H2Y 7532   1.257   2.887   3.299 -2.1665 -1.3810 -1.7792
   81SLPC   C23 7533   1.739   3.244   3.010  0.4787 -0.2749  0.8995
   81SLPC   H3R 7534   1.740   3.169   3.091 -1.3433  0.0072  1.2191
   81SLPC   H3S 7535   1.672   3.326   3.044 -0.0493 -0.2345 -0.1909
   81SLPC   C24 7536   1.869   3.319   3.008  0.1250 -0.0611  0.0479
   81SLPC   H4R 7537   1.856   3.405   2.939  2.3873 -0.7692 -1.3842
   81SLPC   H4S 7538   1.943   3.245   2.969  0.5608  0.1609  0.4310
   81SLPC   C25 7539   1.912   3.369   3.148  0.0306  0.0295 -0.1064
   81SLPC   H5R 7540   1.911   3.285   3.220 -2.4062  0.8065  0.8736
   81SLPC   H5S 7541   1.838   3.445   3.182 -1.3968 -2.5016  2.9824
   81SLPC   C26 7542   2.059   3.427   3.143  0.7026  0.5080 -0.2894
   81SLPC   H6R 7543   2.083   3.467   3.244 -0.8166  0.7452  0.0054
   81SLPC   H6S 7544   2.056   3.503   3.062 -1.3609 -1.1521 -1.8847
   81SLPC   C27 7545   2.162   3.319   3.116 -0.3926  0.4742  0.1385
   81SLPC   H7R 7546   2.138   3.249   3.033 -0.1742 -0.6692  1.0165
   81SLPC   H7S 7547   2.174   3.254   3.206  0.3130  0.4853  0.0551
   81SLPC   C28 7548   2.299   3.381   3.091  0.4271 -0.1968  0.0157
   81SLPC   H8R 7549   2.306   3.462   3.167 -3.0993 -0.8308  1.1785
   81SLPC   H8S 7550   2.305   3.415   2.986 -0.3066  3.2719  0.9582
   81SLPC   C29 7551   2.400   3.268   3.104  0.2012 -0.3438 -0.2480
   81SLPC   H9R 7552   2.395   3.190   3.027 -0.3824 -1.1526  0.6056
   81SLPC  C210 7553   2.469   3.238   3.214  0.4223 -0.5191  0.1401
   81SLPC  H10R 7554   2.536   3.151   3.218  2.4816  1.0538  3.0519
   81SLPC  C211 7555   2.471   3.324   3.341  0.3974 -0.1099  0.3426
   81SLPC  H11R 7556   2.367   3.340   3.377  0.3723  2.8451 -0.7803
   81SLPC  H11S 7557   2.500   3.429   3.320 -0.3733 -0.1752 -1.2065
   81SLPC  C212 7558   2.551   3.275   3.457 -0.2256 -0.0811  0.0992
   81SLPC  H12R 7559   2.605   3.180   3.446 -0.7853 -0.3988  0.0656
   81SLPC  C213 7560   2.570   3.342   3.572  0.0977  0.4066 -0.5680
   81SLPC  H13R 7561   2.655   3.310   3.634 -0.9975  0.8820  1.2262
   81SLPC  C214 7562   2.507   3.476   3.607  0.6327  1.3378  0.2442
   81SLPC  H14R 7563   2.484   3.486   3.715  0.7478 -0.2901  0.4421
   81SLPC  H14S 7564   2.413   3.476   3.547  0.5749 -1.2434  0.2477
   81SLPC  C215 7565   2.595   3.597   3.566  1.2662  0.5342 -0.0246
   81SLPC  H15R 7566   2.538   3.691   3.576  2.3166  1.2310 -0.4596
   81SLPC  H15S 7567   2.612   3.593   3.457  0.0862  2.0033 -0.2877
   81SLPC  C216 7568   2.728   3.618   3.633  0.1723  0.4975 -0.0232
   81SLPC  H16R 7569   2.762   3.714   3.589 -0.8051  0.6031 -0.5914
   81SLPC  H16S 7570   2.802   3.537   3.628 -0.7383 -0.4796  1.4630
   81SLPC  C217 7571   2.719   3.637   3.783  0.0620  0.1246 -0.3863
   81SLPC  H17R 7572   2.673   3.540   3.811 -1.2481 -0.0767 -2.9586
   81SLPC  H17S 7573   2.657   3.726   3.807  1.7451  1.0550  0.7202
   81SLPC  C218 7574   2.848   3.664   3.854  0.2470 -0.1296  0.3009
   81SLPC  H18R 7575   2.822   3.696   3.957  0.6467  1.3918 -0.0485
   81SLPC  H18S 7576   2.912   3.741   3.805  0.6482  0.0059  1.0218
   81SLPC  H18T 7577   2.924   3.583   3.859  1.3386  0.8999  1.0026
   81SLPC   C33 7578   1.238   3.067   3.191  0.4680  0.2837 -0.0971
   81SLPC   H3X 7579   1.129   3.045   3.195 -0.5299  4.5186  0.0444
   81SLPC   H3Y 7580   1.251   3.103   3.087  1.1612  0.7115  0.1298
   81SLPC   C34 7581   1.273   3.181   3.285  0.3518  0.2651 -0.0013
   81SLPC   H4X 7582   1.291   3.139   3.386  2.5336  0.2270 -0.3553
   81SLPC   H4Y 7583   1.188   3.253   3.296  0.4775  0.2712  1.0104
   81SLPC   C35 7584   1.405   3.249   3.242  0.3595  0.3078 -0.5169
   81SLPC   H5X 7585   1.394   3.291   3.140  0.5813  0.8648 -0.3180
   81SLPC   H5Y 7586   1.492   3.181   3.231 -1.4929 -2.0889 -1.1062
   81SLPC   C36 7587   1.452   3.364   3.338 -0.0015 -0.5208  0.8435
   81SLPC   H6X 7588   1.368   3.435   3.355 -0.2346 -0.1638 -1.3848
   81SLPC   H6Y 7589   1.525   3.431   3.289 -0.6087 -0.7334 -0.4215
   81SLPC   C37 7590   1.522   3.309   3.465 -0.3520  0.1341 -0.1101
   81SLPC   H7X 7591   1.584   3.223   3.431 -1.6291 -1.4559  1.3179
   81SLPC   H7Y 7592   1.445   3.283   3.542 -1.5052  2.0384 -0.5617
   81SLPC   C38 7593   1.618   3.410   3.526  0.1774 -0.5251 -0.2989
   81SLPC   H8X 7594   1.638   3.387   3.633  2.7947 -0.2804 -0.6615
   81SLPC   H8Y 7595   1.565   3.507   3.536 -0.6494 -0.9957  0.0233
   81SLPC   C39 7596   1.762   3.418   3.472  0.1787 -0.2449  0.2203
   81SLPC   H9X 7597   1.760   3.452   3.366  0.8273 -0.3548  0.1738
   81SLPC   H9Y 7598   1.803   3.315   3.480  0.0514 -0.2511  0.8327
   81SLPC  C310 7599   1.857   3.506   3.554 -0.3772  0.3140 -0.0451
   81SLPC  H10X 7600   1.808   3.492   3.652 -2.3741  1.7197 -0.7955
   81SLPC  H10Y 7601   1.847   3.611   3.522 -0.6394  0.6428  1.0719
   81SLPC  C311 7602   2.005   3.462   3.555  1.0089  0.0340 -1.0602
   81SLPC  H11X 7603   2.052   3.498   3.461  0.0507  0.4925 -1.3719
   81SLPC  H11Y 7604   2.005   3.352   3.565  0.8339  0.2840  4.2405
   81SLPC  C312 7605   2.089   3.521   3.673  0.1132  0.0880  0.3142
   81SLPC  H12X 7606   2.083   3.631   3.681  0.9887  0.2809 -1.2450
   81SLPC  H12Y 7607   2.195   3.494   3.657  0.7774  0.9770  2.7350
   81SLPC  C313 7608   2.053   3.453   3.803  0.1992 -0.1470  0.4943
   81SLPC  H13X 7609   2.049   3.342   3.804  0.3777 -0.1576  1.6610
   81SLPC  H13Y 7610   1.948   3.484   3.823 -0.2067 -1.1885  0.0283
   81SLPC  C314 7611   2.142   3.510   3.909  0.4197  0.3952  0.1476
   81SLPC  H14X 7612   2.138   3.621   3.903  2.9943  0.6143  1.2624
   81SLPC  H14Y 7613   2.246   3.483   3.883  0.2685  0.4030 -0.4858
   81SLPC  C315 7614   2.100   3.452   4.045  0.3118 -0.0125 -0.2690
   81SLPC  H15X 7615   2.107   3.342   4.053  1.7036  0.1011  0.3438
   81SLPC  H15Y 7616   1.994   3.478   4.066  0.5596 -0.6504  2.0492
   81SLPC  C316 7617   2.188   3.498   4.159  0.0351 -0.3470 -0.0830
   81SLPC  H16X 7618   2.175   3.606   4.182  1.0603 -0.3012  0.3529
   81SLPC  H16Y 7619   2.295   3.472   4.144  0.2013  0.3095 -0.0887
   81SLPC  C317 7620   2.149   3.430   4.289 -0.1608  0.2996  0.6271
   81SLPC  H17X 7621   2.172   3.322   4.284  1.8462  0.7036  0.2075
   81SLPC  H17Y 7622   2.039   3.444   4.303 -0.7872 -2.8690 -0.3637
   81SLPC  C318 7623   2.233   3.476   4.404 -0.0933  0.5990  0.2397
   81SLPC  H18X 7624   2.222   3.409   4.492  2.6882 -0.4862 -0.1275
   81SLPC  H18Y 7625   2.198   3.578   4.429  3.4082  2.6031 -2.2097
   81SLPC  H18Z 7626   2.341   3.471   4.378  0.3281 -0.2259  1.9518
   82SLPC     N 7627   3.710   3.865   2.204 -0.0354 -0.4936  0.0345
   82SLPC   C13 7628   3.649   3.997   2.221  0.7403  0.6716  0.2997
   82SLPC  H13A 7629   3.648   4.053   2.129 -1.1276  1.3087  0.6638
   82SLPC  H13B 7630   3.552   3.989   2.269 -0.4120 -1.9490 -2.1524
   82SLPC  H13C 7631   3.695   4.066   2.290  1.1316  1.2531 -0.5344
   82SLPC   C14 7632   3.772   3.820   2.332  0.7545 -0.5423 -0.3078
   82SLPC  H14A 7633   3.698   3.805   2.409 -2.4650 -2.3965 -3.4398
   82SLPC  H14B 7634   3.819   3.724   2.316  0.5309 -0.8471  0.7867
   82SLPC  H14C 7635   3.853   3.887   2.357  1.0048 -1.8494  2.9159
   82SLPC   C15 7636   3.826   3.886   2.106  0.2693 -0.3035  0.0822
   82SLPC  H15A 7637   3.880   3.794   2.091  2.7178  0.8778  1.0069
   82SLPC  H15B 7638   3.791   3.932   2.015 -0.3859 -0.4731  0.2434
   82SLPC  H15C 7639   3.898   3.957   2.145  2.1833 -2.5836  0.9552
   82SLPC   C12 7640   3.621   3.748   2.151 -0.0476  0.3377  0.4732
   82SLPC  H12A 7641   3.567   3.776   2.062  1.0405  0.0337 -0.3018
   82SLPC  H12B 7642   3.551   3.727   2.231  0.1176  0.0857  0.5557
   82SLPC   C11 7643   3.691   3.612   2.117  0.8915 -0.3182  0.1344
   82SLPC  H11A 7644   3.754   3.606   2.026 -1.2718 -2.9069 -1.3487
   82SLPC  H11B 7645   3.604   3.552   2.080  1.0075  0.5198 -1.6151
   82SLPC     P 7646   3.724   3.399   2.273  0.1562  0.4127 -0.5521
   82SLPC   O13 7647   3.691   3.330   2.147  0.5285  0.2048 -0.2617
   82SLPC   O14 7648   3.836   3.357   2.359  0.1852 -0.2603 -0.2096
   82SLPC   O12 7649   3.748   3.548   2.231  0.3946  0.3142  0.0156
   82SLPC   O11 7650   3.597   3.420   2.361 -0.2689 -0.4899 -0.6627
   82SLPC    C1 7651   3.528   3.312   2.425  0.0047 -0.1540 -0.5047
   82SLPC    HA 7652   3.423   3.298   2.390  0.0012 -1.9604  0.1002
   82SLPC    HB 7653   3.562   3.212   2.390 -0.3951 -0.4899  0.0434
   82SLPC    C2 7654   3.529   3.326   2.575 -0.6892 -0.3015 -0.5099
   82SLPC    HS 7655   3.491   3.228   2.611  0.0640 -0.3317  0.2205
   82SLPC   O21 7656   3.437   3.432   2.612  0.0048  0.0481 -0.2496
   82SLPC   C21 7657   3.388   3.417   2.728 -0.1477  0.6983  0.3510
   82SLPC   O22 7658   3.384   3.311   2.796  0.0205 -0.5045 -0.6993
   82SLPC   C22 7659   3.343   3.551   2.784 -0.4699 -0.0520 -0.5015
   82SLPC   H2R 7660   3.430   3.620   2.790  0.1829 -0.7655 -1.4305
   82SLPC   H2S 7661   3.263   3.600   2.725  0.4982  1.4463 -0.6159
   82SLPC    C3 7662   3.671   3.350   2.634  0.0610 -0.5211 -0.5663
   82SLPC    HX 7663   3.714   3.439   2.582  0.1361  0.7747  1.5726
   82SLPC    HY 7664   3.739   3.266   2.612  0.4184 -0.7461  1.2290
   82SLPC   O31 7665   3.671   3.367   2.776  0.0956 -0.0992 -0.3552
   82SLPC   C31 7666   3.786   3.398   2.835 -0.3326 -0.1559  0.2465
   82SLPC   O32 7667   3.893   3.409   2.779  0.1211  0.3790 -0.1593
   82SLPC   C32 7668   3.764   3.411   2.982  0.6500  0.3639  0.3237
   82SLPC   H2X 7669   3.657   3.406   3.011  0.8222 -1.3311  0.7870
   82SLPC   H2Y 7670   3.797   3.512   3.016  0.1308  0.8640 -0.6141
   82SLPC   C23 7671   3.286   3.541   2.930  0.7528  0.4893 -0.5657
   82SLPC   H3R 7672   3.192   3.481   2.928  2.4431 -2.4029  0.8101
   82SLPC   H3S 7673   3.251   3.644   2.953  0.5073  0.8823 -2.5580
   82SLPC   C24 7674   3.384   3.488   3.032 -0.0083  0.6249 -0.2084
   82SLPC   H4R 7675   3.472   3.552   3.054  0.6227 -0.6137  1.0352
   82SLPC   H4S 7676   3.426   3.388   3.008  0.8384  0.9082  0.0637
   82SLPC   C25 7677   3.325   3.464   3.167 -1.2103  0.5799 -0.0305
   82SLPC   H5R 7678   3.244   3.390   3.152 -0.2202 -1.0745  2.2407
   82SLPC   H5S 7679   3.277   3.552   3.216 -0.3473  0.4627  1.0698
   82SLPC   C26 7680   3.416   3.398   3.272 -0.0583  0.3728 -0.1190
   82SLPC   H6R 7681   3.456   3.315   3.210 -2.2586  0.3668 -1.6344
   82SLPC   H6S 7682   3.359   3.349   3.355 -2.9446  0.9839 -1.6077
   82SLPC   C27 7683   3.522   3.497   3.327  0.0501 -0.0370 -0.1174
   82SLPC   H7R 7684   3.584   3.530   3.240 -1.2053 -0.2369 -1.1158
   82SLPC   H7S 7685   3.594   3.440   3.391  0.1129  2.0770  1.8209
   82SLPC   C28 7686   3.467   3.620   3.396  0.1707 -0.1440 -0.1653
   82SLPC   H8R 7687   3.410   3.595   3.488 -1.3281  1.0391 -0.7245
   82SLPC   H8S 7688   3.394   3.668   3.328  0.4512  0.3790 -0.1079
   82SLPC   C29 7689   3.583   3.712   3.422 -1.1237 -0.8138 -0.2266
   82SLPC   H9R 7690   3.636   3.735   3.329  1.8456 -2.9167  0.8059
   82SLPC  C210 7691   3.647   3.757   3.538 -0.2084  0.5095 -0.0452
   82SLPC  H10R 7692   3.730   3.828   3.526  0.3256  0.2921  2.0774
   82SLPC  C211 7693   3.619   3.723   3.682 -0.0179  0.3347  0.5658
   82SLPC  H11R 7694   3.716   3.690   3.725 -0.5289  0.9176  2.2964
   82SLPC  H11S 7695   3.550   3.637   3.694 -2.0493  1.6894 -0.6142
   82SLPC  C212 7696   3.574   3.845   3.749  0.1048  0.1598 -0.2891
   82SLPC  H12R 7697   3.559   3.936   3.689  0.9604  0.5211  0.0230
   82SLPC  C213 7698   3.525   3.847   3.875  0.4535  0.3664  0.8303
   82SLPC  H13R 7699   3.484   3.944   3.907 -1.1188  0.4180 -1.1701
   82SLPC  C214 7700   3.502   3.729   3.962  0.5603  0.5067 -0.6284
   82SLPC  H14R 7701   3.539   3.631   3.924  0.9875  0.1065  0.7464
   82SLPC  H14S 7702   3.393   3.713   3.977  0.6698  0.3261  0.0043
   82SLPC  C215 7703   3.554   3.748   4.113  0.5758  0.1286 -0.3844
   82SLPC  H15R 7704   3.527   3.664   4.180 -0.4599  0.1688 -0.7366
   82SLPC  H15S 7705   3.509   3.841   4.155  2.0436  0.7277 -0.0672
   82SLPC  C216 7706   3.707   3.767   4.121  0.9079  0.0660  0.1559
   82SLPC  H16R 7707   3.730   3.857   4.061 -1.8765  0.1658 -0.9011
   82SLPC  H16S 7708   3.758   3.676   4.082 -1.1142 -1.3913  0.7205
   82SLPC  C217 7709   3.764   3.774   4.266 -0.4764  0.7043 -0.1698
   82SLPC  H17R 7710   3.704   3.848   4.323  0.4892 -0.5589  2.6717
   82SLPC  H17S 7711   3.865   3.812   4.241  0.4369 -2.6170 -2.0882
   82SLPC  C218 7712   3.777   3.639   4.340 -0.4614  0.9126 -0.1194
   82SLPC  H18R 7713   3.816   3.668   4.440  1.0846  1.5469 -0.8737
   82SLPC  H18S 7714   3.852   3.565   4.303  0.9754  2.1817  0.1418
   82SLPC  H18T 7715   3.677   3.592   4.354 -1.6832  2.6080 -2.4167
   82SLPC   C33 7716   3.849   3.306   3.054  0.8203 -0.4442  0.6046
   82SLPC   H3X 7717   3.958   3.319   3.038  0.6740 -2.3913 -3.0026
   82SLPC   H3Y 7718   3.847   3.205   3.009  0.6843 -0.6684  1.1009
   82SLPC   C34 7719   3.817   3.299   3.203 -0.3507  0.0833 -0.2251
   82SLPC   H4X 7720   3.715   3.257   3.218 -0.4256 -0.0399 -1.0629
   82SLPC   H4Y 7721   3.816   3.405   3.237  1.5630  0.0324  0.1311
   82SLPC   C35 7722   3.934   3.228   3.280 -0.0302 -0.0551 -0.1606
   82SLPC   H5X 7723   4.022   3.296   3.282 -0.0507 -0.0238 -0.3289
   82SLPC   H5Y 7724   3.961   3.134   3.228  2.3490  0.3037  0.2942
   82SLPC   C36 7725   3.900   3.194   3.431 -0.9467  0.5467 -0.1833
   82SLPC   H6X 7726   3.971   3.124   3.479 -2.3979  0.4563  1.9732
   82SLPC   H6Y 7727   3.802   3.142   3.431  0.3128 -2.1939 -2.9955
   82SLPC   C37 7728   3.903   3.320   3.520 -0.6959  0.3621 -0.2405
   82SLPC   H7X 7729   3.824   3.389   3.484 -0.8082 -0.1416 -0.9878
   82SLPC   H7Y 7730   4.002   3.368   3.509 -0.1430 -0.9445 -1.3075
   82SLPC   C38 7731   3.882   3.284   3.669 -0.7644 -0.1812  0.1265
   82SLPC   H8X 7732   3.980   3.302   3.719 -0.3459  0.7625 -0.9873
   82SLPC   H8Y 7733   3.862   3.176   3.685 -1.0769 -0.6558 -2.9473
   82SLPC   C39 7734   3.763   3.357   3.742  0.0065  0.0893 -0.4436
   82SLPC   H9X 7735   3.669   3.344   3.685 -0.6085  0.1598  0.5403
   82SLPC   H9Y 7736   3.800   3.459   3.765  0.9841 -0.4945  0.6850
   82SLPC  C310 7737   3.744   3.295   3.887  0.3253  0.1902  0.0922
   82SLPC  H10X 7738   3.843   3.287   3.938 -0.1182  1.1969  1.1551
   82SLPC  H10Y 7739   3.708   3.191   3.875  1.3547 -0.3623  1.4891
   82SLPC  C311 7740   3.651   3.358   3.987 -0.0807  0.2533 -0.0361
   82SLPC  H11X 7741   3.564   3.397   3.930  0.5669 -1.7913 -2.6622
   82SLPC  H11Y 7742   3.699   3.444   4.038  0.9201 -1.0878  1.3511
   82SLPC  C312 7743   3.607   3.257   4.093  0.4979  0.4124  0.0326
   82SLPC  H12X 7744   3.692   3.209   4.146 -0.9051 -2.3990 -0.0413
   82SLPC  H12Y 7745   3.559   3.168   4.046  2.8769 -0.3392 -1.1388
   82SLPC  C313 7746   3.517   3.311   4.197  0.7046 -0.2529  0.1400
   82SLPC  H13X 7747   3.425   3.354   4.151  1.3186  0.0900 -0.8123
   82SLPC  H13Y 7748   3.568   3.398   4.244 -0.6245 -0.4489  2.0353
   82SLPC  C314 7749   3.480   3.222   4.321 -0.1189 -0.5114 -0.2277
   82SLPC  H14X 7750   3.573   3.194   4.374  0.6559 -0.8947 -1.7333
   82SLPC  H14Y 7751   3.448   3.131   4.265  1.9915 -0.0791 -2.2734
   82SLPC  C315 7752   3.364   3.278   4.397  0.2394 -0.3824 -0.2465
   82SLPC  H15X 7753   3.331   3.204   4.472  0.9845 -0.7059 -0.2404
   82SLPC  H15Y 7754   3.285   3.295   4.320  0.2037 -1.1111 -0.3757
   82SLPC  C316 7755   3.375   3.406   4.479 -0.6969 -0.1219 -0.1207
   82SLPC  H16X 7756   3.280   3.425   4.534 -1.5902  0.6564 -1.8423
   82SLPC  H16Y 7757   3.396   3.485   4.404  1.1846 -1.0809 -0.6580
   82SLPC  C317 7758   3.499   3.396   4.566 -0.3673 -0.3599  0.0839
   82SLPC  H17X 7759   3.594   3.396   4.508 -0.3885  1.6397 -0.0204
   82SLPC  H17Y 7760   3.498   3.308   4.634  0.3492 -0.2176  0.2890
   82SLPC  C318 7761   3.515   3.521   4.656  0.3638 -1.0749 -0.4532
   82SLPC  H18X 7762   3.568   3.597   4.595  2.0793 -2.8977 -1.3671
   82SLPC  H18Y 7763   3.579   3.511   4.747 -2.0332  1.1695  1.6109
   82SLPC  H18Z 7764   3.416   3.561   4.685  0.4732 -1.0757 -0.0737
   83SLPC     N 7765   6.759   5.830   2.037  0.1647 -0.4420  0.1931
   83SLPC   C13 7766   6.720   5.733   1.935 -0.3159 -0.0440 -0.1631
   83SLPC  H13A 7767   6.802   5.718   1.867 -1.5312 -0.8647 -1.4975
   83SLPC  H13B 7768   6.702   5.640   1.987  0.2010  0.4302  0.8971
   83SLPC  H13C 7769   6.624   5.760   1.894 -0.2293 -1.2533 -1.2042
   83SLPC   C14 7770   6.643   5.897   2.104  0.4073  0.5141 -0.5602
   83SLPC  H14A 7771   6.584   5.967   2.046 -0.3665  2.3863  2.2834
   83SLPC  H14B 7772   6.578   5.823   2.148  0.6482  0.2306 -0.6757
   83SLPC  H14C 7773   6.677   5.952   2.191  0.3793 -1.6524  0.8823
   83SLPC   C15 7774   6.820   5.942   1.958  0.0075 -0.0895  0.6598
   83SLPC  H15A 7775   6.884   5.905   1.879 -1.0867 -1.0610  0.1983
   83SLPC  H15B 7776   6.748   5.997   1.898  0.7979  0.4579  0.1923
   83SLPC  H15C 7777   6.880   6.005   2.022  0.8236 -0.2753  0.0945
   83SLPC   C12 7778   6.866   5.789   2.135  0.0190  0.1964 -0.0433
   83SLPC  H12A 7779   6.827   5.709   2.196  0.5644  0.8574  1.2292
   83SLPC  H12B 7780   6.884   5.870   2.204 -0.9237 -1.5328  2.3728
   83SLPC   C11 7781   7.000   5.740   2.079  0.4098  0.3405  0.0289
   83SLPC  H11A 7782   6.980   5.657   2.009  0.4287  0.6901 -0.3925
   83SLPC  H11B 7783   7.064   5.696   2.158  2.4561  1.9780 -0.6312
   83SLPC     P 7784   7.193   5.918   2.067 -0.1524  0.1387  0.1360
   83SLPC   O13 7785   7.277   5.967   1.961  0.2800 -0.0364  0.4129
   83SLPC   O14 7786   7.132   6.015   2.161  0.3473  0.4377  0.5433
   83SLPC   O12 7787   7.076   5.834   2.004  0.2450  0.6148 -0.4731
   83SLPC   O11 7788   7.279   5.818   2.151 -0.3859  0.2585  0.4462
   83SLPC    C1 7789   7.364   5.722   2.079  0.0688 -0.1011  0.1478
   83SLPC    HA 7790   7.303   5.666   2.005 -0.8237  2.0167 -0.7782
   83SLPC    HB 7791   7.458   5.765   2.037 -0.6378  1.5889  0.2397
   83SLPC    C2 7792   7.427   5.615   2.174  0.0937 -0.1682 -0.1697
   83SLPC    HS 7793   7.473   5.538   2.108  0.1798 -0.1998 -0.0729
   83SLPC   O21 7794   7.330   5.563   2.266 -0.4765 -0.7738 -0.1563
   83SLPC   C21 7795   7.266   5.455   2.227 -0.5084  0.0807  0.2946
   83SLPC   O22 7796   7.290   5.387   2.130 -0.8696  0.1596  0.2359
   83SLPC   C22 7797   7.154   5.430   2.325 -0.9797  0.8334 -0.5277
   83SLPC   H2R 7798   7.099   5.522   2.356 -2.3362  0.0556 -0.5688
   83SLPC   H2S 7799   7.080   5.362   2.278 -2.1670  0.1081  2.2183
   83SLPC    C3 7800   7.537   5.686   2.262 -0.8941  0.5102 -0.9008
   83SLPC    HX 7801   7.478   5.766   2.312  2.1578  1.3405  1.6095
   83SLPC    HY 7802   7.614   5.734   2.198  2.4211 -2.6009  0.4018
   83SLPC   O31 7803   7.612   5.597   2.354 -0.3326  0.7569  0.6800
   83SLPC   C31 7804   7.561   5.586   2.473  0.5492 -0.3373 -0.0146
   83SLPC   O32 7805   7.455   5.634   2.508  0.1349  0.8722 -0.3030
   83SLPC   C32 7806   7.644   5.494   2.556  0.2435  0.2746  0.1384
   83SLPC   H2X 7807   7.740   5.548   2.568  0.2585  0.0258  1.1786
   83SLPC   H2Y 7808   7.662   5.406   2.491  0.6652 -1.5489  2.5900
   83SLPC   C23 7809   7.211   5.352   2.449 -0.3320  0.5088 -0.2292
   83SLPC   H3R 7810   7.126   5.333   2.517  0.5232 -2.7123  0.0902
   83SLPC   H3S 7811   7.269   5.429   2.505 -2.0630  2.3280 -0.8013
   83SLPC   C24 7812   7.286   5.226   2.428 -0.9629 -0.5692 -0.4325
   83SLPC   H4R 7813   7.387   5.256   2.393 -1.2538 -0.4448 -1.1660
   83SLPC   H4S 7814   7.237   5.154   2.359 -0.5338 -0.7594 -0.5456
   83SLPC   C25 7815   7.294   5.161   2.567 -0.1004 -0.1444 -0.1995
   83SLPC   H5R 7816   7.191   5.120   2.579  0.4586 -2.9357 -3.3163
   83SLPC   H5S 7817   7.322   5.235   2.644  1.0535 -1.0217  0.2616
   83SLPC   C26 7818   7.396   5.043   2.573  0.5355 -0.0033 -0.0203
   83SLPC   H6R 7819   7.386   4.974   2.487 -2.7526 -1.3010  1.2412
   83SLPC   H6S 7820   7.371   4.987   2.666  1.0607  1.5013  1.0768
   83SLPC   C27 7821   7.542   5.086   2.581 -0.0674  0.7107  0.4344
   83SLPC   H7R 7822   7.555   5.178   2.642  0.6413  1.3152 -0.6137
   83SLPC   H7S 7823   7.566   5.114   2.477  0.0145  0.0804  0.2768
   83SLPC   C28 7824   7.635   4.990   2.650 -0.3644  0.3683 -0.4479
   83SLPC   H8R 7825   7.610   4.987   2.758  2.6490  1.0314  0.3604
   83SLPC   H8S 7826   7.736   5.035   2.649 -0.2752  0.1574 -1.6508
   83SLPC   C29 7827   7.634   4.854   2.583 -0.1472 -0.5630 -0.0284
   83SLPC   H9R 7828   7.680   4.860   2.483 -1.9374 -2.2416 -1.0499
   83SLPC  C210 7829   7.591   4.737   2.631  0.3606  0.6186  0.7230
   83SLPC  H10R 7830   7.602   4.654   2.561  1.6163  1.8756 -0.6237
   83SLPC  C211 7831   7.528   4.711   2.762 -0.1011 -0.4982 -0.0840
   83SLPC  H11R 7832   7.440   4.776   2.783 -0.0049 -0.8385  1.4375
   83SLPC  H11S 7833   7.598   4.757   2.835 -0.0076  1.1089 -1.1389
   83SLPC  C212 7834   7.513   4.565   2.803 -0.4079 -0.2752 -0.4317
   83SLPC  H12R 7835   7.591   4.502   2.758  1.8815  1.1415  1.3157
   83SLPC  C213 7836   7.424   4.512   2.893  0.2631 -0.3892 -0.1126
   83SLPC  H13R 7837   7.433   4.403   2.905 -0.3603 -0.5392 -0.8978
   83SLPC  C214 7838   7.319   4.583   2.976 -0.2422  0.4369 -0.2679
   83SLPC  H14R 7839   7.217   4.562   2.938 -0.7787 -0.8884  1.7462
   83SLPC  H14S 7840   7.327   4.693   2.968 -1.1831  0.6303  1.1994
   83SLPC  C215 7841   7.327   4.538   3.121  0.2343 -0.1511 -0.0543
   83SLPC  H15R 7842   7.253   4.601   3.175 -0.9366 -0.9673 -0.6599
   83SLPC  H15S 7843   7.425   4.552   3.171  0.9165 -1.6266 -0.9216
   83SLPC  C216 7844   7.295   4.386   3.138  0.6880 -0.2336  0.2379
   83SLPC  H16R 7845   7.368   4.316   3.091 -0.4524 -1.6031  0.4476
   83SLPC  H16S 7846   7.192   4.366   3.102 -0.2149  0.1186  2.4706
   83SLPC  C217 7847   7.307   4.347   3.293 -0.1803 -0.4212  0.9288
   83SLPC  H17R 7848   7.251   4.422   3.353  0.4120  0.6398  0.1848
   83SLPC  H17S 7849   7.414   4.361   3.322  0.4423 -2.3252 -0.2593
   83SLPC  C218 7850   7.253   4.205   3.316  0.3992 -0.1012 -0.5708
   83SLPC  H18R 7851   7.260   4.163   3.419  0.0814  0.8983 -0.1356
   83SLPC  H18S 7852   7.278   4.139   3.230 -1.9096 -0.3070 -1.1582
   83SLPC  H18T 7853   7.144   4.215   3.297 -0.1661 -2.7480  0.7831
   83SLPC   C33 7854   7.583   5.449   2.691  0.4042  0.2236  1.0304
   83SLPC   H3X 7855   7.490   5.389   2.678  0.7746 -0.3705  1.0533
   83SLPC   H3Y 7856   7.547   5.539   2.745 -0.9017  1.0710 -1.0962
   83SLPC   C34 7857   7.676   5.376   2.784 -0.0505 -0.1302 -0.0841
   83SLPC   H4X 7858   7.747   5.454   2.818  1.7843 -1.4260 -0.7514
   83SLPC   H4Y 7859   7.723   5.291   2.731 -1.0598 -0.7553 -0.0144
   83SLPC   C35 7860   7.583   5.320   2.889  0.5001  0.2687 -0.8397
   83SLPC   H5X 7861   7.518   5.241   2.844  0.2891  0.9520 -1.7730
   83SLPC   H5Y 7862   7.516   5.397   2.932  1.2366  0.7531 -0.5325
   83SLPC   C36 7863   7.665   5.252   3.000  0.0643 -0.5756 -0.4328
   83SLPC   H6X 7864   7.755   5.317   3.000 -1.9921  2.5217 -1.7441
   83SLPC   H6Y 7865   7.695   5.149   2.970 -0.0929 -0.5833 -0.5677
   83SLPC   C37 7866   7.587   5.245   3.133  0.2717 -0.0704 -0.2173
   83SLPC   H7X 7867   7.485   5.211   3.107 -0.3741  2.0578 -0.6521
   83SLPC   H7Y 7868   7.588   5.346   3.181 -2.9297  0.8726 -1.8993
   83SLPC   C38 7869   7.651   5.147   3.227 -0.5594  0.3716  0.2010
   83SLPC   H8X 7870   7.755   5.136   3.189 -0.6358  2.9930 -1.0276
   83SLPC   H8Y 7871   7.598   5.051   3.213  1.0942 -0.8961  2.1205
   83SLPC   C39 7872   7.658   5.199   3.371 -0.1202 -0.1348  0.0940
   83SLPC   H9X 7873   7.556   5.232   3.403  1.1016  1.4186  2.7362
   83SLPC   H9Y 7874   7.730   5.283   3.386 -0.7104 -0.0304  3.1319
   83SLPC  C310 7875   7.694   5.095   3.478 -0.0536 -0.0459  0.2178
   83SLPC  H10X 7876   7.675   5.144   3.576 -1.7512  0.8131 -0.4856
   83SLPC  H10Y 7877   7.801   5.070   3.464  0.2173  1.1958 -0.1021
   83SLPC  C311 7878   7.614   4.965   3.481 -0.1376 -0.0005 -0.1400
   83SLPC  H11X 7879   7.659   4.888   3.415  0.1868 -0.0927  0.1877
   83SLPC  H11Y 7880   7.515   4.990   3.436 -0.3767 -0.2054  0.2703
   83SLPC  C312 7881   7.603   4.905   3.623  0.2106  0.3856  0.3495
   83SLPC  H12X 7882   7.538   4.968   3.687 -0.7028 -2.1626  2.0790
   83SLPC  H12Y 7883   7.700   4.884   3.673 -0.6411 -3.8398  0.6299
   83SLPC  C313 7884   7.537   4.770   3.615  0.2932 -1.1951  0.1890
   83SLPC  H13X 7885   7.603   4.681   3.605  1.1558 -0.6110  0.6076
   83SLPC  H13Y 7886   7.473   4.762   3.524 -0.0154 -0.7369  0.3629
   83SLPC  C314 7887   7.451   4.730   3.736 -0.0541 -0.2971  0.5939
   83SLPC  H14X 7888   7.513   4.749   3.826 -0.4782  1.5552  0.5342
   83SLPC  H14Y 7889   7.424   4.622   3.740  0.6618 -0.4912  0.2461
   83SLPC  C315 7890   7.336   4.827   3.763 -0.2038 -0.0668 -0.4519
   83SLPC  H15X 7891   7.300   4.875   3.669  0.6450 -0.9722 -1.2591
   83SLPC  H15Y 7892   7.377   4.912   3.821 -0.2981 -0.1738 -0.2262
   83SLPC  C316 7893   7.219   4.770   3.834 -0.0634  0.4003 -0.5068
   83SLPC  H16X 7894   7.198   4.677   3.777 -0.8664 -1.4628  2.6186
   83SLPC  H16Y 7895   7.128   4.832   3.819 -0.7924 -0.9575 -2.0028
   83SLPC  C317 7896   7.242   4.743   3.984  0.6924  0.4093 -0.8349
   83SLPC  H17X 7897   7.270   4.837   4.036  0.4097  0.5450 -0.9262
   83SLPC  H17Y 7898   7.323   4.668   3.994  1.0755  1.0520  1.3382
   83SLPC  C318 7899   7.113   4.687   4.062  0.1058 -0.2198  0.1215
   83SLPC  H18X 7900   7.144   4.684   4.169  1.9919  1.4061 -0.3193
   83SLPC  H18Y 7901   7.089   4.588   4.018 -0.7362  0.1314 -0.2249
   83SLPC  H18Z 7902   7.023   4.751   4.046 -0.3139 -1.0842 -1.0872
   84SLPC     N 7903   0.798   2.852   2.310 -0.2376  0.3893  0.4042
   84SLPC   C13 7904   0.921   2.780   2.349  0.3415  0.5117 -0.2630
   84SLPC  H13A 7905   0.943   2.726   2.259 -0.8824 -1.4160  0.5346
   84SLPC  H13B 7906   1.002   2.849   2.369 -0.4406  0.9194  1.8179
   84SLPC  H13C 7907   0.914   2.716   2.436 -0.8054  0.0137 -0.7014
   84SLPC   C14 7908   0.698   2.754   2.267  0.0868  0.5105  0.3943
   84SLPC  H14A 7909   0.683   2.676   2.340  2.0129 -0.2043  0.0717
   84SLPC  H14B 7910   0.605   2.805   2.244  1.6308  2.3134 -2.4465
   84SLPC  H14C 7911   0.721   2.705   2.173  0.2368  1.2466  0.0380
   84SLPC   C15 7912   0.831   2.946   2.197 -0.0865 -0.0029 -0.1521
   84SLPC  H15A 7913   0.735   2.978   2.158 -0.7937 -0.0508  1.4766
   84SLPC  H15B 7914   0.891   3.033   2.219 -0.3138  1.6191 -4.9000
   84SLPC  H15C 7915   0.879   2.894   2.116 -0.2800 -2.1559  1.0555
   84SLPC   C12 7916   0.737   2.927   2.427 -0.0317 -0.0721  0.5402
   84SLPC  H12A 7917   0.818   2.980   2.475 -0.8050  1.1254  0.5749
   84SLPC  H12B 7918   0.697   2.859   2.501 -0.6616  0.8116  1.0351
   84SLPC   C11 7919   0.616   3.023   2.402 -0.2987  1.0075 -0.1322
   84SLPC  H11A 7920   0.638   3.098   2.322  0.1837  2.0622  0.9592
   84SLPC  H11B 7921   0.601   3.061   2.505  0.7056 -0.0844  0.4281
   84SLPC     P 7922   0.380   2.918   2.444  0.2559 -0.0886  0.4614
   84SLPC   O13 7923   0.303   3.049   2.467  0.2557  0.2969  0.5921
   84SLPC   O14 7924   0.312   2.803   2.381 -0.1542  0.9970  0.4169
   84SLPC   O12 7925   0.501   2.946   2.355 -0.3673 -0.4339  0.4210
   84SLPC   O11 7926   0.438   2.860   2.581 -0.6491  0.0596  0.0801
   84SLPC    C1 7927   0.417   2.928   2.708  0.4668  0.4247  0.3717
   84SLPC    HA 7928   0.361   3.024   2.701  0.1755  0.1252 -2.7063
   84SLPC    HB 7929   0.364   2.856   2.775  0.0500  0.5415  0.1733
   84SLPC    C2 7930   0.545   2.963   2.785  0.0956  0.0712 -0.6244
   84SLPC    HS 7931   0.617   3.008   2.713  0.3413  0.3795 -0.1852
   84SLPC   O21 7932   0.586   2.836   2.844 -0.4152  0.7221  0.0940
   84SLPC   C21 7933   0.692   2.788   2.791 -0.0871  0.0606 -0.4698
   84SLPC   O22 7934   0.752   2.812   2.688  0.3866 -0.3603  0.0691
   84SLPC   C22 7935   0.747   2.670   2.873  0.2296  0.2125  0.7434
   84SLPC   H2R 7936   0.669   2.591   2.883  0.6076 -0.2020  0.4757
   84SLPC   H2S 7937   0.828   2.618   2.818 -1.0654 -1.1325  0.0338
   84SLPC    C3 7938   0.517   3.053   2.911 -0.1717  0.3577  0.1386
   84SLPC    HX 7939   0.442   3.004   2.976  1.2164  1.8102  3.0435
   84SLPC    HY 7940   0.468   3.145   2.873 -0.5045  1.7419  3.5827
   84SLPC   O31 7941   0.635   3.068   2.992 -0.0871 -0.4483  0.0041
   84SLPC   C31 7942   0.740   3.142   2.948 -0.4628 -0.5038 -0.1503
   84SLPC   O32 7943   0.750   3.190   2.837 -0.0407 -0.2408  0.4889
   84SLPC   C32 7944   0.853   3.139   3.048  0.2829  0.0523  0.1141
   84SLPC   H2X 7945   0.907   3.233   3.025  0.2278  0.3600  1.2287
   84SLPC   H2Y 7946   0.913   3.048   3.026 -0.6508 -0.0741 -2.2487
   84SLPC   C23 7947   0.790   2.714   3.022  0.3604 -0.2734 -0.0874
   84SLPC   H3R 7948   0.696   2.736   3.077  0.4194  1.5460 -0.6575
   84SLPC   H3S 7949   0.846   2.809   3.011 -1.6353  1.0243  0.4826
   84SLPC   C24 7950   0.879   2.598   3.089  0.4103  0.6133  0.4376
   84SLPC   H4R 7951   0.978   2.626   3.048  1.2105  0.7618  2.3589
   84SLPC   H4S 7952   0.846   2.502   3.044 -1.5227  0.6994  1.5573
   84SLPC   C25 7953   0.862   2.586   3.238  0.3561  0.2908 -0.1295
   84SLPC   H5R 7954   0.943   2.517   3.271  0.4152 -1.0428 -2.8320
   84SLPC   H5S 7955   0.759   2.552   3.260 -0.1537  0.8683 -1.5446
   84SLPC   C26 7956   0.870   2.715   3.314 -0.1139 -0.0894 -0.2388
   84SLPC   H6R 7957   0.779   2.777   3.303  0.0994  0.1885 -0.4393
   84SLPC   H6S 7958   0.946   2.776   3.261 -0.9137 -0.2487 -1.6207
   84SLPC   C27 7959   0.901   2.693   3.467  0.2511  0.0035 -0.3864
   84SLPC   H7R 7960   0.981   2.617   3.482 -0.9789 -1.3079 -0.2457
   84SLPC   H7S 7961   0.815   2.632   3.503 -0.3006 -0.1360 -1.8846
   84SLPC   C28 7962   0.902   2.823   3.545  0.1206  0.5212 -0.0538
   84SLPC   H8R 7963   0.872   2.812   3.651 -2.7767  0.0805 -0.8535
   84SLPC   H8S 7964   0.820   2.886   3.505 -0.1446 -0.3167 -0.8593
   84SLPC   C29 7965   1.032   2.887   3.524  0.5404  0.1368 -0.0320
   84SLPC   H9R 7966   1.065   2.882   3.419  0.5532 -2.6400  0.0368
   84SLPC  C210 7967   1.112   2.944   3.617  0.2738 -0.2528 -1.4717
   84SLPC  H10R 7968   1.200   3.003   3.586  0.2531 -0.0113 -1.0792
   84SLPC  C211 7969   1.082   2.952   3.763 -0.2405  0.1453 -0.3391
   84SLPC  H11R 7970   1.174   2.939   3.824 -0.6455  0.2602  0.3053
   84SLPC  H11S 7971   1.017   2.871   3.801  0.1568  0.2865  0.6787
   84SLPC  C212 7972   1.014   3.072   3.812  0.2577 -0.1626 -0.8555
   84SLPC  H12R 7973   0.905   3.077   3.798 -0.0290  3.1526  1.5036
   84SLPC  C213 7974   1.074   3.182   3.858  0.6351  0.3987  0.3490
   84SLPC  H13R 7975   1.010   3.264   3.894  0.2274 -0.0842  0.7412
   84SLPC  C214 7976   1.225   3.196   3.885  0.2733 -0.0361 -0.1991
   84SLPC  H14R 7977   1.269   3.184   3.783  1.4658 -0.5448  0.3532
   84SLPC  H14S 7978   1.265   3.116   3.951  1.3625 -0.6536 -1.5508
   84SLPC  C215 7979   1.253   3.334   3.948 -0.8911  0.5363  0.6060
   84SLPC  H15R 7980   1.236   3.422   3.883 -0.7374  0.6380  0.7017
   84SLPC  H15S 7981   1.363   3.340   3.958 -0.7097 -0.6573 -0.4743
   84SLPC  C216 7982   1.190   3.350   4.086 -0.0875  0.5879 -0.0021
   84SLPC  H16R 7983   1.203   3.251   4.136  1.7755 -0.3255 -2.0886
   84SLPC  H16S 7984   1.081   3.363   4.068 -0.3228 -2.5618 -1.6872
   84SLPC  C217 7985   1.265   3.454   4.182 -0.0940 -0.6246  0.0125
   84SLPC  H17R 7986   1.373   3.455   4.155 -0.8545 -0.7680 -3.4638
   84SLPC  H17S 7987   1.238   3.432   4.288  0.6535  1.1384  0.6168
   84SLPC  C218 7988   1.213   3.600   4.155 -0.0632  0.2951  0.2941
   84SLPC  H18R 7989   1.202   3.629   4.048 -1.4561  0.8409  0.5520
   84SLPC  H18S 7990   1.280   3.683   4.188  1.8424 -1.7955  1.9379
   84SLPC  H18T 7991   1.114   3.622   4.202  0.0491 -1.6492  1.5433
   84SLPC   C33 7992   0.806   3.132   3.200  0.1753 -0.0606  1.0815
   84SLPC   H3X 7993   0.897   3.113   3.261  0.4361 -1.6309  0.2446
   84SLPC   H3Y 7994   0.743   3.042   3.218  0.0413  0.5552  4.1708
   84SLPC   C34 7995   0.737   3.254   3.253  0.1901  0.1359  0.0699
   84SLPC   H4X 7996   0.645   3.264   3.192  1.0745  2.0923 -1.0373
   84SLPC   H4Y 7997   0.798   3.344   3.230  3.1072 -1.8235 -0.5549
   84SLPC   C35 7998   0.712   3.249   3.397 -0.2430  0.8814 -0.1983
   84SLPC   H5X 7999   0.806   3.222   3.451 -1.5677 -0.8051  1.3753
   84SLPC   H5Y 8000   0.638   3.169   3.417 -0.1389  1.2759  2.0688
   84SLPC   C36 8001   0.668   3.384   3.449  0.0939  0.3708  0.2936
   84SLPC   H6X 8002   0.560   3.410   3.438  0.2515  0.5004 -1.1669
   84SLPC   H6Y 8003   0.724   3.463   3.394 -0.1577  0.4893  0.2041
   84SLPC   C37 8004   0.689   3.402   3.597 -0.2224 -0.4415  0.0112
   84SLPC   H7X 8005   0.794   3.382   3.625  0.6648  1.4034 -1.7763
   84SLPC   H7Y 8006   0.626   3.330   3.655 -1.1635  0.8327  0.6147
   84SLPC   C38 8007   0.653   3.544   3.640  0.2142  0.0094  0.3146
   84SLPC   H8X 8008   0.543   3.562   3.633 -0.1380 -1.1947  2.1700
   84SLPC   H8Y 8009   0.701   3.616   3.570 -0.1508  0.2048  0.2607
   84SLPC   C39 8010   0.688   3.567   3.786  0.2421 -0.4709  0.8396
   84SLPC   H9X 8011   0.792   3.529   3.796  0.4403 -1.0084 -2.1751
   84SLPC   H9Y 8012   0.622   3.507   3.852 -0.2722  2.1354  2.8480
   84SLPC  C310 8013   0.667   3.709   3.837  0.4565  0.3540  0.3173
   84SLPC  H10X 8014   0.557   3.727   3.837  0.6967  2.1431 -1.1957
   84SLPC  H10Y 8015   0.717   3.783   3.772 -0.3394 -0.2202 -0.9844
   84SLPC  C311 8016   0.729   3.740   3.972  0.3408 -0.1643 -0.0392
   84SLPC  H11X 8017   0.834   3.708   3.960  0.1088 -0.8844 -0.2006
   84SLPC  H11Y 8018   0.683   3.666   4.042 -1.7963  0.1108 -1.0806
   84SLPC  C312 8019   0.730   3.884   4.018 -0.5949 -0.0938 -0.6343
   84SLPC  H12X 8020   0.626   3.921   4.007 -0.5846 -0.2589 -1.3498
   84SLPC  H12Y 8021   0.789   3.949   3.950 -1.5281  1.2649 -0.1702
   84SLPC  C313 8022   0.783   3.905   4.161 -0.6323 -0.1789  0.6199
   84SLPC  H13X 8023   0.894   3.902   4.161 -0.5637 -1.8682 -2.5369
   84SLPC  H13Y 8024   0.754   3.826   4.235 -1.1028 -0.5621  0.0431
   84SLPC  C314 8025   0.733   4.038   4.214  0.6966 -0.3638 -0.3281
   84SLPC  H14X 8026   0.624   4.048   4.201  0.9216  0.6864 -1.6294
   84SLPC  H14Y 8027   0.788   4.121   4.163  2.1530 -1.8952 -1.3729
   84SLPC  C315 8028   0.762   4.041   4.360 -0.2075 -0.1735 -0.1377
   84SLPC  H15X 8029   0.870   4.018   4.374 -0.1649 -0.0767 -0.2994
   84SLPC  H15Y 8030   0.713   3.959   4.416 -0.2131 -0.5909 -0.7386
   84SLPC  C316 8031   0.730   4.178   4.420 -0.4021  1.4453  0.0455
   84SLPC  H16X 8032   0.618   4.175   4.417 -0.4076 -1.6171  0.4926
   84SLPC  H16Y 8033   0.775   4.266   4.369 -1.0701  1.0915 -1.2130
   84SLPC  C317 8034   0.772   4.176   4.569  0.6113 -0.0122  0.4316
   84SLPC  H17X 8035   0.882   4.159   4.564  0.5355 -0.1281 -1.5731
   84SLPC  H17Y 8036   0.712   4.093   4.613 -0.3144 -0.4874 -1.6042
   84SLPC  C318 8037   0.750   4.307   4.643  0.2332  0.5789 -0.3662
   84SLPC  H18X 8038   0.797   4.393   4.591  0.3590 -0.7285 -2.5130
   84SLPC  H18Y 8039   0.785   4.305   4.749  1.5279  2.1502 -0.7328
   84SLPC  H18Z 8040   0.643   4.336   4.640 -0.8764 -2.8342  1.2978
   85SLPC     N 8041   2.685   0.408   2.532 -0.5964  0.0098  0.3952
   85SLPC   C13 8042   2.685   0.260   2.517 -0.0573  0.0415  0.5007
   85SLPC  H13A 8043   2.767   0.214   2.569  0.1167  0.1313  0.3102
   85SLPC  H13B 8044   2.591   0.221   2.554 -0.9215  1.7696  0.2118
   85SLPC  H13C 8045   2.704   0.221   2.418 -3.1339 -2.8691  0.8555
   85SLPC   C14 8046   2.558   0.452   2.456  0.0248  0.2453 -0.2353
   85SLPC  H14A 8047   2.584   0.423   2.355  1.6526 -0.4641  0.3444
   85SLPC  H14B 8048   2.470   0.398   2.487  0.0744 -0.4267 -1.1999
   85SLPC  H14C 8049   2.549   0.560   2.452 -2.0430  0.1511  0.7268
   85SLPC   C15 8050   2.808   0.467   2.465  0.0389 -0.2976 -0.0761
   85SLPC  H15A 8051   2.899   0.427   2.507  0.2973 -0.0148 -0.3614
   85SLPC  H15B 8052   2.800   0.467   2.357  0.0564 -2.0289 -0.0973
   85SLPC  H15C 8053   2.807   0.572   2.491  1.1521 -0.3820  0.3684
   85SLPC   C12 8054   2.674   0.456   2.675 -0.4455 -0.1886 -0.2030
   85SLPC  H12A 8055   2.674   0.564   2.680  3.5844  0.0426 -1.4579
   85SLPC  H12B 8056   2.765   0.446   2.733  0.7525  1.5747 -1.6818
   85SLPC   C11 8057   2.563   0.398   2.756 -0.3602  0.3101  0.1019
   85SLPC  H11A 8058   2.467   0.407   2.701  0.3255  1.0107 -1.0117
   85SLPC  H11B 8059   2.557   0.457   2.850  2.1746  0.5441  0.1880
   85SLPC     P 8060   2.481   0.159   2.818 -0.5948  0.2425 -0.0968
   85SLPC   O13 8061   2.372   0.173   2.719  0.5851  0.0784  0.2588
   85SLPC   O14 8062   2.547   0.018   2.823 -0.3023  0.4476  0.0140
   85SLPC   O12 8063   2.599   0.264   2.792 -0.1223  0.1462  0.2288
   85SLPC   O11 8064   2.429   0.196   2.965 -0.0904  0.4833  0.6623
   85SLPC    C1 8065   2.322   0.292   2.981  0.4027  0.5437  0.1081
   85SLPC    HA 8066   2.310   0.363   2.897  1.2123  0.8263  0.2217
   85SLPC    HB 8067   2.225   0.239   2.994  0.8755 -0.0494  1.3205
   85SLPC    C2 8068   2.356   0.365   3.110 -1.1248  0.2389  0.0050
   85SLPC    HS 8069   2.455   0.407   3.081 -1.8808  2.9403  1.0666
   85SLPC   O21 8070   2.367   0.271   3.223 -0.0890  0.0262 -0.0193
   85SLPC   C21 8071   2.448   0.314   3.317 -0.3965 -0.0526  0.1849
   85SLPC   O22 8072   2.527   0.407   3.319  0.1488 -0.3708 -0.2504
   85SLPC   C22 8073   2.444   0.210   3.426  0.3423  0.0993 -0.5910
   85SLPC   H2R 8074   2.355   0.144   3.420 -0.1697  0.8684 -1.7954
   85SLPC   H2S 8075   2.536   0.150   3.410  0.0430 -0.6912  0.4835
   85SLPC    C3 8076   2.263   0.480   3.147 -0.5995 -0.1489  1.0522
   85SLPC    HX 8077   2.239   0.538   3.055 -1.2587 -3.8649 -1.3429
   85SLPC    HY 8078   2.328   0.548   3.207 -0.9796  2.0120 -0.8483
   85SLPC   O31 8079   2.145   0.436   3.224 -0.2377 -0.3302 -0.2343
   85SLPC   C31 8080   2.032   0.478   3.179  0.0297  0.4863  0.0322
   85SLPC   O32 8081   2.010   0.535   3.076  0.2443  0.4770  0.8309
   85SLPC   C32 8082   1.930   0.440   3.288 -0.3975  0.2433 -0.1586
   85SLPC   H2X 8083   1.959   0.338   3.321  0.0503 -0.0572 -1.3841
   85SLPC   H2Y 8084   1.830   0.439   3.241 -0.7880 -0.6774  0.6744
   85SLPC   C23 8085   2.426   0.283   3.556 -0.0818  0.1025  0.4727
   85SLPC   H3R 8086   2.512   0.353   3.566  0.5800  0.1207 -3.6502
   85SLPC   H3S 8087   2.424   0.209   3.639  1.2680  0.1052  0.5315
   85SLPC   C24 8088   2.294   0.364   3.560  0.4033 -0.6072  0.4669
   85SLPC   H4R 8089   2.212   0.294   3.531  2.4082 -3.0858  0.4450
   85SLPC   H4S 8090   2.301   0.447   3.487  1.4500 -1.8381 -0.8911
   85SLPC   C25 8091   2.282   0.424   3.700  0.1801  0.5175 -0.0202
   85SLPC   H5R 8092   2.285   0.345   3.778  0.3735  0.5156 -0.0294
   85SLPC   H5S 8093   2.369   0.490   3.717  0.5263 -0.1056  0.6979
   85SLPC   C26 8094   2.148   0.490   3.729  0.8787 -0.4109 -0.4540
   85SLPC   H6R 8095   2.062   0.433   3.688  0.7838  0.8734 -2.1312
   85SLPC   H6S 8096   2.138   0.579   3.663  2.7924 -0.3329 -0.7016
   85SLPC   C27 8097   2.132   0.539   3.874  0.1159  0.1184 -0.6819
   85SLPC   H7R 8098   2.223   0.589   3.913  0.6369 -2.2337  1.3567
   85SLPC   H7S 8099   2.116   0.449   3.937 -0.5595  0.8944  0.2950
   85SLPC   C28 8100   2.004   0.624   3.904  0.0891 -0.6533 -0.1333
   85SLPC   H8R 8101   1.913   0.565   3.880 -0.3709  0.2694 -0.7134
   85SLPC   H8S 8102   1.997   0.715   3.840  1.5668  0.0786  0.6969
   85SLPC   C29 8103   2.010   0.678   4.049  0.7408 -0.0800 -0.3091
   85SLPC   H9R 8104   2.046   0.781   4.064 -0.8461  0.3573  0.6753
   85SLPC  C210 8105   1.961   0.610   4.157  0.2992  0.1426  0.0180
   85SLPC  H10R 8106   1.960   0.669   4.250  1.2424  1.8015 -0.9795
   85SLPC  C211 8107   1.906   0.468   4.154 -0.0871  0.1763  0.0723
   85SLPC  H11R 8108   1.875   0.429   4.054 -0.3051  0.6628 -0.0509
   85SLPC  H11S 8109   1.814   0.468   4.215 -1.4871  0.0941 -1.9286
   85SLPC  C212 8110   2.011   0.371   4.201  0.1012  1.3073 -0.6340
   85SLPC  H12R 8111   2.117   0.400   4.189  0.2894  1.1204  0.4779
   85SLPC  C213 8112   1.989   0.251   4.263  0.0014 -0.1930 -0.2712
   85SLPC  H13R 8113   2.072   0.181   4.278  1.0886  0.4239 -2.7841
   85SLPC  C214 8114   1.849   0.193   4.291  0.3050  0.0073 -0.0278
   85SLPC  H14R 8115   1.848   0.085   4.263 -2.3346 -0.1992  0.6068
   85SLPC  H14S 8116   1.770   0.248   4.236  2.0178  2.6023 -0.0603
   85SLPC  C215 8117   1.813   0.206   4.443 -0.1803  0.3010 -0.2899
   85SLPC  H15R 8118   1.703   0.194   4.454  0.0495 -2.4878 -0.3216
   85SLPC  H15S 8119   1.827   0.310   4.479 -2.3785 -0.4012  3.1035
   85SLPC  C216 8120   1.889   0.106   4.527 -0.2896 -0.6099 -0.0410
   85SLPC  H16R 8121   1.999   0.126   4.521 -0.0787 -1.8728 -0.6956
   85SLPC  H16S 8122   1.879  -0.001   4.500 -0.8989 -1.2923  2.6050
   85SLPC  C217 8123   1.843   0.113   4.671  0.3015 -0.3659 -0.0078
   85SLPC  H17R 8124   1.921   0.056   4.726 -0.4546 -2.0050 -0.5997
   85SLPC  H17S 8125   1.747   0.059   4.676 -1.4727  2.6321  0.7747
   85SLPC  C218 8126   1.833   0.248   4.747 -0.2006  0.6311 -1.0103
   85SLPC  H18R 8127   1.930   0.297   4.771 -0.2975 -0.1676  1.2328
   85SLPC  H18S 8128   1.782   0.234   4.845  0.1416  2.1491 -0.5815
   85SLPC  H18T 8129   1.777   0.330   4.698  0.4362  0.3058 -2.3361
   85SLPC   C33 8130   1.914   0.546   3.400 -0.6084 -0.4764 -0.0903
   85SLPC   H3X 8131   1.913   0.646   3.353  1.0423 -0.2925  0.2088
   85SLPC   H3Y 8132   2.004   0.543   3.465 -1.2170 -0.8325  0.7502
   85SLPC   C34 8133   1.784   0.537   3.479  0.0689 -0.3195 -0.2734
   85SLPC   H4X 8134   1.697   0.546   3.411 -0.2196  2.3487  0.3161
   85SLPC   H4Y 8135   1.801   0.626   3.544  0.7468 -1.0453  0.5809
   85SLPC   C35 8136   1.752   0.411   3.558 -0.6060  0.0444  0.4955
   85SLPC   H5X 8137   1.816   0.387   3.645 -0.9045 -0.1598  0.6585
   85SLPC   H5Y 8138   1.760   0.323   3.491 -1.4861  1.4699 -1.6204
   85SLPC   C36 8139   1.606   0.413   3.614 -0.7527  0.3979  0.5184
   85SLPC   H6X 8140   1.532   0.413   3.530 -0.2861  2.3691  0.0589
   85SLPC   H6Y 8141   1.594   0.496   3.687  1.1903 -0.1559  1.5317
   85SLPC   C37 8142   1.572   0.292   3.707 -0.2413  0.2725  0.1116
   85SLPC   H7X 8143   1.590   0.319   3.814  1.5059 -1.4265  0.3147
   85SLPC   H7Y 8144   1.625   0.198   3.679 -1.1376 -0.8465  1.9114
   85SLPC   C38 8145   1.416   0.265   3.706  0.7625 -0.2715  1.0154
   85SLPC   H8X 8146   1.382   0.258   3.601  0.0273 -1.9109  1.3351
   85SLPC   H8Y 8147   1.371   0.358   3.746  0.1052  1.0274 -2.4666
   85SLPC   C39 8148   1.371   0.136   3.778 -0.4439  0.3112 -0.4878
   85SLPC   H9X 8149   1.401   0.055   3.708 -0.4586  0.3559 -0.5461
   85SLPC   H9Y 8150   1.261   0.140   3.788 -0.6621 -1.9324 -1.5499
   85SLPC  C310 8151   1.423   0.123   3.925  0.0590 -0.7576  0.4667
   85SLPC  H10X 8152   1.534   0.124   3.925  0.1019  0.3618 -1.4999
   85SLPC  H10Y 8153   1.393   0.027   3.972  0.4725 -0.0889  2.1998
   85SLPC  C311 8154   1.375   0.240   4.021  0.4585  0.4724  0.4396
   85SLPC  H11X 8155   1.265   0.241   4.028  0.4945  0.2988  0.9925
   85SLPC  H11Y 8156   1.399   0.339   3.976 -1.0483 -0.1562 -1.9169
   85SLPC  C312 8157   1.422   0.227   4.168  0.1695 -0.7994  0.0606
   85SLPC  H12X 8158   1.533   0.236   4.173  0.2317 -2.0017  0.9866
   85SLPC  H12Y 8159   1.403   0.126   4.210  1.2837 -1.7943 -1.7160
   85SLPC  C313 8160   1.362   0.344   4.263 -0.1269  0.3209  0.5657
   85SLPC  H13X 8161   1.426   0.342   4.353  1.7335 -0.7021 -0.7067
   85SLPC  H13Y 8162   1.256   0.311   4.275  0.0722 -0.3449  0.5196
   85SLPC  C314 8163   1.387   0.487   4.208 -0.3333 -0.3733 -0.8288
   85SLPC  H14X 8164   1.326   0.560   4.266  0.6608  0.7403 -1.1499
   85SLPC  H14Y 8165   1.341   0.499   4.108  0.2757  2.5380 -0.8603
   85SLPC  C315 8166   1.532   0.522   4.199 -0.3197  0.3506  0.4044
   85SLPC  H15X 8167   1.569   0.463   4.113  0.1303 -0.8189  1.3751
   85SLPC  H15Y 8168   1.597   0.502   4.286  0.0288  1.2012  0.3491
   85SLPC  C316 8169   1.542   0.678   4.168  0.1385 -0.3577 -0.0713
   85SLPC  H16X 8170   1.649   0.709   4.166 -0.1183  0.9167  2.4119
   85SLPC  H16Y 8171   1.497   0.741   4.247  2.6654  3.2437 -1.2374
   85SLPC  C317 8172   1.481   0.730   4.035  0.5025  0.3604 -0.7034
   85SLPC  H17X 8173   1.500   0.837   4.010 -3.2609  0.9185 -1.6831
   85SLPC  H17Y 8174   1.370   0.726   4.029  0.5190  1.0681 -1.6927
   85SLPC  C318 8175   1.524   0.643   3.920 -1.0685 -0.0064  0.6892
   85SLPC  H18X 8176   1.632   0.620   3.908 -1.5053 -2.4739  0.8931
   85SLPC  H18Y 8177   1.496   0.691   3.824  1.9712  2.5693  0.9484
   85SLPC  H18Z 8178   1.485   0.539   3.928  0.6523 -0.7133  0.2820
   86SLPC     N 8179   0.679   1.977   2.139 -0.1566  0.4547 -0.3352
   86SLPC   C13 8180   0.811   2.046   2.121 -0.2436 -0.2920  0.1719
   86SLPC  H13A 8181   0.846   2.104   2.204 -1.8757 -0.5438  1.0888
   86SLPC  H13B 8182   0.877   1.964   2.096  1.2704  0.7488  0.6640
   86SLPC  H13C 8183   0.813   2.108   2.032  1.2085  1.6451  1.4911
   86SLPC   C14 8184   0.633   1.914   2.008 -0.2311  0.0194 -0.1658
   86SLPC  H14A 8185   0.534   1.873   2.019 -0.2056  0.0460  0.1929
   86SLPC  H14B 8186   0.627   1.989   1.930  2.5174 -0.7193 -1.2055
   86SLPC  H14C 8187   0.697   1.835   1.975  0.2060 -0.2359  1.2297
   86SLPC   C15 8188   0.572   2.071   2.181 -0.0139 -0.5567  0.1480
   86SLPC  H15A 8189   0.473   2.034   2.201 -1.3120  2.1919 -0.6433
   86SLPC  H15B 8190   0.596   2.134   2.265 -1.8780  1.1029 -0.4919
   86SLPC  H15C 8191   0.558   2.136   2.096  0.2360 -0.6230  0.0555
   86SLPC   C12 8192   0.700   1.871   2.244 -0.2248 -0.2249 -0.1568
   86SLPC  H12A 8193   0.603   1.832   2.270 -0.1794  0.3845  0.9598
   86SLPC  H12B 8194   0.741   1.921   2.330  1.1569 -1.2651 -0.1774
   86SLPC   C11 8195   0.794   1.758   2.219  0.2493  0.0576 -0.3941
   86SLPC  H11A 8196   0.772   1.701   2.126  0.2756 -3.4450  1.5894
   86SLPC  H11B 8197   0.780   1.677   2.294  2.0849 -2.0474 -2.1599
   86SLPC     P 8198   1.007   1.795   2.362 -0.6858  0.1206  0.0057
   86SLPC   O13 8199   1.012   1.655   2.411 -1.0350 -0.1608  0.5229
   86SLPC   O14 8200   1.135   1.871   2.346 -0.0006  0.0103 -0.2376
   86SLPC   O12 8201   0.930   1.793   2.224  0.0774  0.4324  0.6205
   86SLPC   O11 8202   0.907   1.877   2.460 -0.0971  0.1259 -0.2033
   86SLPC    C1 8203   0.927   2.016   2.470 -0.3874 -0.8051  0.4539
   86SLPC    HA 8204   0.963   2.059   2.374 -1.2837 -1.4852 -0.2024
   86SLPC    HB 8205   0.835   2.074   2.493  1.5834  1.9774  1.9434
   86SLPC    C2 8206   1.022   2.046   2.584 -0.6534 -0.6409  0.5865
   86SLPC    HS 8207   1.126   2.014   2.561  0.9345  1.7503  3.7219
   86SLPC   O21 8208   0.980   1.985   2.701  0.1228  0.0498  0.2909
   86SLPC   C21 8209   1.076   1.946   2.786  0.4971  0.0380  0.4569
   86SLPC   O22 8210   1.191   1.982   2.776  0.6541  1.0961  0.3278
   86SLPC   C22 8211   1.029   1.848   2.896  0.7703  0.6446  0.2236
   86SLPC   H2R 8212   0.943   1.886   2.955  1.3487 -1.0592  2.2798
   86SLPC   H2S 8213   1.007   1.758   2.836  2.0116  0.2473  0.3299
   86SLPC    C3 8214   1.035   2.204   2.598 -0.8266  0.4403  0.0948
   86SLPC    HX 8215   0.932   2.245   2.599 -1.7023 -1.6578 -0.5697
   86SLPC    HY 8216   1.088   2.237   2.506  1.7242  1.3923  1.7727
   86SLPC   O31 8217   1.103   2.253   2.714  0.7348 -0.1534  0.7126
   86SLPC   C31 8218   1.239   2.256   2.703 -0.0263 -0.1518 -0.0174
   86SLPC   O32 8219   1.298   2.255   2.599 -0.5328  0.0415 -0.0330
   86SLPC   C32 8220   1.294   2.272   2.848 -0.1588  0.3309  0.1849
   86SLPC   H2X 8221   1.404   2.276   2.834 -0.1812  1.4006  0.2014
   86SLPC   H2Y 8222   1.275   2.183   2.911 -1.2712  1.0501  0.8936
   86SLPC   C23 8223   1.131   1.813   3.004 -0.4112 -0.1743  0.4101
   86SLPC   H3R 8224   1.225   1.786   2.950  1.0340  2.0475  1.6770
   86SLPC   H3S 8225   1.095   1.732   3.070 -3.4111  0.9745  0.3182
   86SLPC   C24 8226   1.171   1.927   3.106 -0.4585  0.9748 -0.1402
   86SLPC   H4R 8227   1.089   1.966   3.169 -1.3268 -0.4650 -0.3523
   86SLPC   H4S 8228   1.194   2.007   3.032 -2.5064  1.4466 -0.3058
   86SLPC   C25 8229   1.295   1.906   3.200  0.1608 -0.0485 -0.0636
   86SLPC   H5R 8230   1.356   1.998   3.193  0.9796 -0.2730  2.9085
   86SLPC   H5S 8231   1.344   1.823   3.146 -0.6928  0.6217 -1.9804
   86SLPC   C26 8232   1.274   1.878   3.349 -0.4335 -0.6015  0.4342
   86SLPC   H6R 8233   1.355   1.811   3.385  4.0953  3.0946 -1.8483
   86SLPC   H6S 8234   1.181   1.822   3.375 -1.3715  1.6122  2.2912
   86SLPC   C27 8235   1.254   2.005   3.428 -0.4074 -0.0502  0.0428
   86SLPC   H7R 8236   1.170   2.054   3.375 -0.1532 -0.3157 -0.6107
   86SLPC   H7S 8237   1.343   2.072   3.429  0.1763 -0.8101  0.0428
   86SLPC   C28 8238   1.221   1.983   3.576  0.0683  0.2668 -0.4833
   86SLPC   H8R 8239   1.132   1.916   3.583  1.1946 -1.2571 -0.2863
   86SLPC   H8S 8240   1.192   2.076   3.629  0.1334 -0.9577  1.8280
   86SLPC   C29 8241   1.342   1.931   3.653  0.2596 -0.1524  0.0804
   86SLPC   H9R 8242   1.435   1.913   3.596  0.0587  0.9863 -0.6346
   86SLPC  C210 8243   1.347   1.893   3.783 -0.5094  0.2916  0.2107
   86SLPC  H10R 8244   1.447   1.876   3.825  0.2243  1.3825 -1.0374
   86SLPC  C211 8245   1.226   1.909   3.874 -0.2240 -0.1235  0.5995
   86SLPC  H11R 8246   1.231   1.820   3.940 -0.2504 -0.3997  0.2304
   86SLPC  H11S 8247   1.128   1.899   3.822  1.6581 -3.7891 -2.7073
   86SLPC  C212 8248   1.234   2.034   3.961  0.1616  0.0789  0.4877
   86SLPC  H12R 8249   1.216   2.129   3.908  1.1584  0.9735  1.7123
   86SLPC  C213 8250   1.252   2.046   4.086 -1.0754  0.0069  0.1835
   86SLPC  H13R 8251   1.254   2.147   4.129  0.3723 -0.3128  0.9374
   86SLPC  C214 8252   1.290   1.945   4.192  0.6309 -0.0372 -0.6561
   86SLPC  H14R 8253   1.325   1.846   4.155 -1.0480  0.1608 -3.0437
   86SLPC  H14S 8254   1.196   1.932   4.249 -0.6858  2.3228 -2.1409
   86SLPC  C215 8255   1.392   1.998   4.296 -0.1950  0.9467 -0.3426
   86SLPC  H15R 8256   1.344   2.082   4.351 -2.1551 -1.1656  1.3693
   86SLPC  H15S 8257   1.486   2.038   4.253  0.6294  1.6921  1.9573
   86SLPC  C216 8258   1.422   1.897   4.408  0.2622  0.6189  0.1437
   86SLPC  H16R 8259   1.462   1.802   4.367  0.5035  0.1022  1.5255
   86SLPC  H16S 8260   1.327   1.870   4.459 -0.8609 -0.6229 -2.4388
   86SLPC  C217 8261   1.539   1.940   4.500  0.4127  0.3191 -0.2378
   86SLPC  H17R 8262   1.528   2.047   4.527  1.1913  0.2767  0.2965
   86SLPC  H17S 8263   1.635   1.954   4.445  0.2620  2.1842 -0.0800
   86SLPC  C218 8264   1.553   1.856   4.631  0.1790 -0.4979 -0.5560
   86SLPC  H18R 8265   1.456   1.836   4.682  0.4237  0.9783  0.5593
   86SLPC  H18S 8266   1.624   1.903   4.702  1.7150 -1.6283 -1.2999
   86SLPC  H18T 8267   1.597   1.760   4.596  0.1080 -1.3474  1.5746
   86SLPC   C33 8268   1.257   2.405   2.909  0.0002 -0.2629  0.6130
   86SLPC   H3X 8269   1.151   2.434   2.892 -1.0508 -1.6741  4.0299
   86SLPC   H3Y 8270   1.322   2.484   2.867  1.6983 -1.2448  1.3138
   86SLPC   C34 8271   1.266   2.404   3.065  0.1705  0.2488  0.7495
   86SLPC   H4X 8272   1.211   2.311   3.090 -1.7834  0.9411 -0.7851
   86SLPC   H4Y 8273   1.210   2.485   3.116  1.4899  1.6098  0.1257
   86SLPC   C35 8274   1.403   2.384   3.120 -0.6318 -0.3234 -0.3193
   86SLPC   H5X 8275   1.462   2.466   3.073 -0.4729  0.7024  1.5817
   86SLPC   H5Y 8276   1.443   2.288   3.081  1.7884  1.1142 -1.6038
   86SLPC   C36 8277   1.404   2.391   3.271 -0.0201 -0.6045  0.4563
   86SLPC   H6X 8278   1.493   2.330   3.295  0.9766  0.0504 -1.4044
   86SLPC   H6Y 8279   1.313   2.343   3.314 -0.2880 -1.7060 -1.2290
   86SLPC   C37 8280   1.423   2.533   3.316  0.2436 -0.3664 -0.0726
   86SLPC   H7X 8281   1.342   2.603   3.284 -0.2680  0.0853  2.0702
   86SLPC   H7Y 8282   1.514   2.560   3.259 -0.8084 -1.2284 -2.2947
   86SLPC   C38 8283   1.436   2.555   3.465 -0.0038  0.3706 -0.0334
   86SLPC   H8X 8284   1.448   2.663   3.487  0.0425  0.3587  0.0004
   86SLPC   H8Y 8285   1.522   2.494   3.501 -0.9613 -1.4119 -0.6637
   86SLPC   C39 8286   1.298   2.519   3.529  0.6486  0.3601 -0.7970
   86SLPC   H9X 8287   1.267   2.423   3.481  0.8630 -0.4873  0.7062
   86SLPC   H9Y 8288   1.229   2.600   3.497  0.4720  0.2099 -0.8028
   86SLPC  C310 8289   1.301   2.511   3.680  0.1599  0.4900 -0.0763
   86SLPC  H10X 8290   1.353   2.602   3.718 -0.5535  0.6168  0.6112
   86SLPC  H10Y 8291   1.355   2.422   3.719  0.6318  1.3675  1.3677
   86SLPC  C311 8292   1.157   2.517   3.735 -0.1671 -0.0353 -0.0840
   86SLPC  H11X 8293   1.111   2.423   3.699  1.3592 -1.0465  0.5087
   86SLPC  H11Y 8294   1.093   2.603   3.707  1.2684  1.2122  0.3336
   86SLPC  C312 8295   1.168   2.501   3.891  0.1315  0.0857  0.3044
   86SLPC  H12X 8296   1.250   2.432   3.921 -1.0808 -2.1035 -1.1543
   86SLPC  H12Y 8297   1.072   2.455   3.922  0.1768 -0.2884 -0.0968
   86SLPC  C313 8298   1.189   2.637   3.951  0.4897 -0.1297  0.6622
   86SLPC  H13X 8299   1.106   2.698   3.909  1.1296 -0.8820 -1.8513
   86SLPC  H13Y 8300   1.287   2.680   3.921 -0.0877 -0.6992 -2.3379
   86SLPC  C314 8301   1.187   2.645   4.111 -0.6611 -0.2158 -0.5760
   86SLPC  H14X 8302   1.279   2.594   4.147 -0.4826  0.3212 -0.2563
   86SLPC  H14Y 8303   1.092   2.611   4.158  0.2366  0.2416  1.6843
   86SLPC  C315 8304   1.180   2.791   4.150  0.2532  0.5896  0.7749
   86SLPC  H15X 8305   1.091   2.843   4.110 -2.1687 -3.1422  0.8661
   86SLPC  H15Y 8306   1.270   2.841   4.107  1.5171 -2.9775 -1.1188
   86SLPC  C316 8307   1.187   2.811   4.305  0.3605  0.0746  0.5333
   86SLPC  H16X 8308   1.219   2.916   4.323 -2.4335  0.9560  0.7636
   86SLPC  H16Y 8309   1.257   2.738   4.350  0.3926  0.0027  0.3669
   86SLPC  C317 8310   1.051   2.797   4.369  0.1438 -0.3509  0.2458
   86SLPC  H17X 8311   0.990   2.738   4.297 -2.0269  1.2730  0.6523
   86SLPC  H17Y 8312   1.006   2.897   4.386 -2.4987 -1.5276  0.7148
   86SLPC  C318 8313   1.065   2.721   4.498 -0.5537  0.2677 -0.6014
   86SLPC  H18X 8314   1.107   2.619   4.481 -2.6568 -0.7103 -0.2375
   86SLPC  H18Y 8315   0.965   2.707   4.545 -0.3362  1.5114  0.2844
   86SLPC  H18Z 8316   1.127   2.777   4.571 -1.0932  0.6640 -0.4390
   87SLPC     N 8317   1.690   3.250   2.142 -0.5577  0.0581  0.1878
   87SLPC   C13 8318   1.824   3.281   2.203 -0.6682  0.6126  0.4325
   87SLPC  H13A 8319   1.806   3.305   2.307 -3.1112  0.6535  0.0531
   87SLPC  H13B 8320   1.903   3.207   2.197 -0.2737  1.1389 -1.4386
   87SLPC  H13C 8321   1.878   3.368   2.169 -1.7339  1.7945  1.6656
   87SLPC   C14 8322   1.723   3.217   1.997  0.2979  0.0522  0.0469
   87SLPC  H14A 8323   1.793   3.134   2.000 -0.4414 -0.5710  1.6713
   87SLPC  H14B 8324   1.639   3.180   1.940  0.0247  1.4315 -0.4837
   87SLPC  H14C 8325   1.765   3.300   1.943 -2.0366  0.0380 -1.9310
   87SLPC   C15 8326   1.613   3.377   2.149  0.4179  0.7240 -0.2716
   87SLPC  H15A 8327   1.507   3.359   2.137  0.5590  0.4229 -1.1962
   87SLPC  H15B 8328   1.628   3.425   2.245  0.7785 -0.9377  0.5282
   87SLPC  H15C 8329   1.639   3.445   2.069 -0.0055  2.6427  1.1441
   87SLPC   C12 8330   1.612   3.142   2.222  0.5231  0.2923  0.6179
   87SLPC  H12A 8331   1.591   3.176   2.322  2.4845 -1.2540  1.6232
   87SLPC  H12B 8332   1.674   3.054   2.232  1.2161  0.6734 -0.1688
   87SLPC   C11 8333   1.484   3.093   2.154  0.1929 -0.5406  0.0294
   87SLPC  H11A 8334   1.466   2.986   2.178 -0.3142 -0.8000 -1.4161
   87SLPC  H11B 8335   1.485   3.103   2.043 -2.0775 -1.4697 -0.1165
   87SLPC     P 8336   1.285   3.120   2.319 -0.0237 -0.0899  0.0393
   87SLPC   O13 8337   1.177   3.215   2.343  0.0972  0.0946 -0.4488
   87SLPC   O14 8338   1.257   2.970   2.297 -0.1006  0.3623 -0.8806
   87SLPC   O12 8339   1.375   3.168   2.198  0.7748  0.1332 -0.5952
   87SLPC   O11 8340   1.387   3.125   2.441 -0.6720  0.0721  0.2192
   87SLPC    C1 8341   1.341   3.120   2.577  0.4602 -0.3776  0.0706
   87SLPC    HA 8342   1.252   3.053   2.578 -0.7071  1.0993 -0.4415
   87SLPC    HB 8343   1.422   3.078   2.640  1.5469  0.5258 -0.6978
   87SLPC    C2 8344   1.308   3.258   2.642  0.7004 -0.3970  0.1937
   87SLPC    HS 8345   1.250   3.312   2.564  2.2289 -2.3762 -2.4988
   87SLPC   O21 8346   1.432   3.327   2.666  0.2568  1.1024  0.1588
   87SLPC   C21 8347   1.432   3.458   2.662 -0.1739 -0.5124  0.2986
   87SLPC   O22 8348   1.345   3.530   2.628 -0.6487  0.1674 -0.1322
   87SLPC   C22 8349   1.568   3.503   2.718 -1.1297  0.0454 -0.5088
   87SLPC   H2R 8350   1.639   3.427   2.679 -2.3915 -0.7721 -1.2935
   87SLPC   H2S 8351   1.590   3.601   2.671 -0.3658 -0.3112 -0.9086
   87SLPC    C3 8352   1.222   3.239   2.771 -0.0233 -0.7107 -0.1421
   87SLPC    HX 8353   1.272   3.157   2.828 -1.9187 -1.5604  0.3995
   87SLPC    HY 8354   1.122   3.191   2.756 -0.4301 -0.1855  0.8115
   87SLPC   O31 8355   1.209   3.360   2.843  0.6481  0.1305 -0.3951
   87SLPC   C31 8356   1.104   3.435   2.791 -0.5409  0.2135 -0.6996
   87SLPC   O32 8357   1.030   3.394   2.706  0.3384  0.0371  0.1099
   87SLPC   C32 8358   1.093   3.571   2.854  0.0610 -0.4599 -0.2679
   87SLPC   H2X 8359   0.997   3.616   2.822 -0.6902 -1.8437 -0.0141
   87SLPC   H2Y 8360   1.182   3.629   2.821  2.3847 -2.9317  1.1797
   87SLPC   C23 8361   1.562   3.517   2.868  0.3653  0.4484  0.3599
   87SLPC   H3R 8362   1.668   3.517   2.903  0.8200  2.0667 -0.8748
   87SLPC   H3S 8363   1.509   3.437   2.923  0.5973  1.2317  1.7627
   87SLPC   C24 8364   1.486   3.643   2.917 -0.6022 -0.7068 -0.5144
   87SLPC   H4R 8365   1.386   3.644   2.868 -0.4713 -0.5846 -0.7794
   87SLPC   H4S 8366   1.553   3.724   2.882  0.3243 -0.8710  0.8295
   87SLPC   C25 8367   1.461   3.637   3.070 -0.3723  0.4393  0.5661
   87SLPC   H5R 8368   1.564   3.605   3.100 -0.1721 -0.1017 -0.6463
   87SLPC   H5S 8369   1.388   3.561   3.103  0.3840 -1.4049 -1.7488
   87SLPC   C26 8370   1.434   3.764   3.148 -0.3744  0.3731  0.4832
   87SLPC   H6R 8371   1.324   3.776   3.158 -0.3962  2.3322 -1.3486
   87SLPC   H6S 8372   1.479   3.858   3.110 -1.1664  0.1959 -0.9670
   87SLPC   C27 8373   1.485   3.752   3.293  0.4237 -0.5904 -0.6185
   87SLPC   H7R 8374   1.438   3.661   3.335 -1.1092 -0.8243 -2.6912
   87SLPC   H7S 8375   1.460   3.833   3.365  2.1277 -1.1154  0.6166
   87SLPC   C28 8376   1.638   3.739   3.313  0.0560  0.3072 -0.1261
   87SLPC   H8R 8377   1.677   3.651   3.257  0.1195 -0.1108  0.5698
   87SLPC   H8S 8378   1.660   3.710   3.418  0.4945  1.6214  0.1756
   87SLPC   C29 8379   1.714   3.858   3.286  1.1006 -0.8574  0.0461
   87SLPC   H9R 8380   1.722   3.868   3.176 -0.8242  0.8472  0.0060
   87SLPC  C210 8381   1.759   3.962   3.357 -0.4294  0.7725 -0.5741
   87SLPC  H10R 8382   1.799   4.055   3.313  0.8638  1.4056  1.7923
   87SLPC  C211 8383   1.759   3.975   3.510 -0.3350 -0.1991 -0.2804
   87SLPC  H11R 8384   1.656   3.948   3.542 -0.3988 -0.2562 -0.5313
   87SLPC  H11S 8385   1.757   4.085   3.530 -1.9604 -0.1294 -0.6391
   87SLPC  C212 8386   1.857   3.895   3.587 -0.8540  0.0476 -0.5227
   87SLPC  H12R 8387   1.955   3.871   3.543 -1.2314 -1.5013 -0.5826
   87SLPC  C213 8388   1.845   3.860   3.722  0.4310  0.4250 -0.2903
   87SLPC  H13R 8389   1.918   3.790   3.764  1.9364  2.5941  0.8866
   87SLPC  C214 8390   1.737   3.899   3.822 -0.0896  0.4288  0.1776
   87SLPC  H14R 8391   1.636   3.922   3.784 -0.4543  0.7910  1.3139
   87SLPC  H14S 8392   1.767   3.997   3.866  1.0349  0.2480 -0.1364
   87SLPC  C215 8393   1.710   3.790   3.930 -0.5534  0.1475  0.6607
   87SLPC  H15R 8394   1.628   3.823   3.997 -0.6140 -0.5392  0.9351
   87SLPC  H15S 8395   1.802   3.770   3.988  0.2284  0.3474 -0.4827
   87SLPC  C216 8396   1.662   3.647   3.880 -0.5429 -0.0833  0.1338
   87SLPC  H16R 8397   1.754   3.605   3.835 -0.0888  2.1006 -1.1342
   87SLPC  H16S 8398   1.587   3.661   3.798 -0.9967 -2.0684  0.1480
   87SLPC  C217 8399   1.594   3.579   3.997 -0.3076 -0.4552 -0.1661
   87SLPC  H17R 8400   1.545   3.488   3.955 -1.5710 -1.0277  2.3911
   87SLPC  H17S 8401   1.507   3.636   4.036 -0.2288 -1.1826  1.1028
   87SLPC  C218 8402   1.681   3.544   4.114  0.0593  0.5578 -0.5253
   87SLPC  H18R 8403   1.686   3.639   4.172 -0.2816  1.8410 -2.4999
   87SLPC  H18S 8404   1.784   3.521   4.078  0.1824  0.0705  0.1196
   87SLPC  H18T 8405   1.632   3.459   4.165 -0.6030  1.0600 -0.3089
   87SLPC   C33 8406   1.081   3.573   3.003  0.0671  0.5022  0.3016
   87SLPC   H3X 8407   1.182   3.568   3.050  1.0060  0.6698 -1.6146
   87SLPC   H3Y 8408   1.016   3.489   3.035  0.4213 -0.0644 -0.4620
   87SLPC   C34 8409   1.015   3.708   3.045  0.4650  0.5494 -0.1829
   87SLPC   H4X 8410   0.935   3.740   2.975  1.5562  0.5207 -1.4810
   87SLPC   H4Y 8411   1.095   3.785   3.046 -0.0506  1.0953 -0.1245
   87SLPC   C35 8412   0.956   3.689   3.189 -0.5552  0.0210  0.7787
   87SLPC   H5X 8413   1.023   3.615   3.238  0.7527 -0.5229 -1.6690
   87SLPC   H5Y 8414   0.856   3.641   3.180 -0.5655  0.0025  0.9968
   87SLPC   C36 8415   0.956   3.816   3.260  0.2751 -0.1686 -0.2856
   87SLPC   H6X 8416   0.887   3.891   3.216  1.1761  1.9268  1.6618
   87SLPC   H6Y 8417   1.058   3.858   3.273  0.3197 -0.5974  0.8648
   87SLPC   C37 8418   0.876   3.803   3.395  0.0326  0.1323  0.4736
   87SLPC   H7X 8419   0.900   3.704   3.438  0.8677  0.1032 -0.0220
   87SLPC   H7Y 8420   0.766   3.808   3.380  0.1800 -0.1782 -0.8988
   87SLPC   C38 8421   0.916   3.903   3.503 -1.1884 -0.2728 -0.0837
   87SLPC   H8X 8422   1.018   3.886   3.543 -1.5058  0.2958  0.9966
   87SLPC   H8Y 8423   0.851   3.899   3.593 -0.4163 -0.5210  0.4725
   87SLPC   C39 8424   0.898   4.046   3.451 -0.5810  0.2371 -0.4193
   87SLPC   H9X 8425   0.975   4.078   3.378  1.3198  1.5136  2.0095
   87SLPC   H9Y 8426   0.905   4.121   3.532  1.4938  2.3956 -2.4740
   87SLPC  C310 8427   0.756   4.082   3.396  0.1258  0.4243 -0.5004
   87SLPC  H10X 8428   0.731   4.025   3.303 -0.7321 -2.5608  1.4170
   87SLPC  H10Y 8429   0.762   4.190   3.370 -0.0739  0.5098 -0.1956
   87SLPC  C311 8430   0.639   4.067   3.499 -0.5399  0.5884 -0.1002
   87SLPC  H11X 8431   0.627   3.958   3.513  0.5155  0.3881 -0.6843
   87SLPC  H11Y 8432   0.545   4.097   3.447 -1.1188  0.7717  1.0058
   87SLPC  C312 8433   0.659   4.154   3.625  0.2841  0.4904 -0.2179
   87SLPC  H12X 8434   0.696   4.258   3.609  1.1992  0.0970 -0.7570
   87SLPC  H12Y 8435   0.727   4.089   3.684 -2.1410 -1.9934  0.0579
   87SLPC  C313 8436   0.528   4.161   3.709 -0.0408  1.1275  0.0842
   87SLPC  H13X 8437   0.490   4.058   3.726 -0.9998  1.0981 -2.0187
   87SLPC  H13Y 8438   0.446   4.215   3.657 -0.8496 -0.5086 -0.3834
   87SLPC  C314 8439   0.552   4.233   3.849  0.5534  0.0433 -0.1288
   87SLPC  H14X 8440   0.561   4.343   3.834 -1.0887  0.1238 -0.7114
   87SLPC  H14Y 8441   0.649   4.197   3.890  0.4820 -0.7795 -0.6688
   87SLPC  C315 8442   0.437   4.200   3.948  0.6633  0.1507 -0.0959
   87SLPC  H15X 8443   0.436   4.094   3.980 -1.1118  0.3587  0.6627
   87SLPC  H15Y 8444   0.348   4.211   3.882  0.1870 -1.6322  0.1968
   87SLPC  C316 8445   0.425   4.293   4.072 -0.8641  0.7819  0.3253
   87SLPC  H16X 8446   0.389   4.395   4.046 -0.3367  0.6233 -1.1335
   87SLPC  H16Y 8447   0.521   4.291   4.128 -1.5618  2.4214  1.6611
   87SLPC  C317 8448   0.323   4.239   4.169 -0.4287  0.2342 -0.0593
   87SLPC  H17X 8449   0.346   4.137   4.206 -2.3087 -1.1472 -2.3823
   87SLPC  H17Y 8450   0.227   4.235   4.113 -0.2339  0.6032 -0.4196
   87SLPC  C318 8451   0.296   4.336   4.288  0.5853  0.1870  0.0154
   87SLPC  H18X 8452   0.217   4.286   4.349  0.2781 -2.3524 -2.2995
   87SLPC  H18Y 8453   0.254   4.434   4.256  0.0649 -0.5196 -1.5342
   87SLPC  H18Z 8454   0.388   4.345   4.349  1.6140 -0.1528 -1.4523
   88SLPC     N 8455   3.701   2.607   2.502  0.0654 -0.7004  0.2145
   88SLPC   C13 8456   3.577   2.669   2.436  0.4206 -0.1199 -0.3211
   88SLPC  H13A 8457   3.578   2.654   2.329 -0.0207 -0.2061 -0.3142
   88SLPC  H13B 8458   3.487   2.629   2.481 -1.6264  4.1152 -0.1383
   88SLPC  H13C 8459   3.581   2.774   2.462  0.2649  0.2932 -1.8848
   88SLPC   C14 8460   3.687   2.457   2.471  0.0531 -0.7323  0.3549
   88SLPC  H14A 8461   3.603   2.411   2.520  0.5977 -2.8738 -0.6340
   88SLPC  H14B 8462   3.682   2.444   2.364  0.2666  0.1547  0.2311
   88SLPC  H14C 8463   3.776   2.403   2.501  0.4519 -0.3524 -0.1100
   88SLPC   C15 8464   3.705   2.629   2.651 -0.0724  1.2816  0.6466
   88SLPC  H15A 8465   3.717   2.734   2.671  1.5726  1.4839 -1.0758
   88SLPC  H15B 8466   3.619   2.587   2.701 -1.3428  1.0431 -1.5808
   88SLPC  H15C 8467   3.791   2.576   2.688 -0.7999 -0.5981 -0.2093
   88SLPC   C12 8468   3.828   2.667   2.444  0.0877  0.5388 -0.0042
   88SLPC  H12A 8469   3.809   2.668   2.337 -1.8296  1.3996  0.3064
   88SLPC  H12B 8470   3.918   2.610   2.462 -0.1918  0.0155 -0.2191
   88SLPC   C11 8471   3.861   2.816   2.479 -0.1573 -0.5379 -0.4641
   88SLPC  H11A 8472   3.775   2.881   2.453  0.4261  0.0594 -0.9010
   88SLPC  H11B 8473   3.935   2.858   2.408 -1.4410  2.5529 -0.1326
   88SLPC     P 8474   3.881   2.956   2.690 -0.2182 -0.1444 -0.0863
   88SLPC   O13 8475   3.981   3.044   2.632  0.4249 -0.3434  0.8942
   88SLPC   O14 8476   3.737   2.999   2.683 -0.0795 -0.4082 -0.1673
   88SLPC   O12 8477   3.897   2.822   2.614 -0.2136  0.1695  0.5695
   88SLPC   O11 8478   3.926   2.914   2.836  0.1928 -0.8252 -0.1848
   88SLPC    C1 8479   3.840   2.831   2.910  0.7508  0.0058  0.2030
   88SLPC    HA 8480   3.734   2.862   2.898  0.8254  0.2742  0.2196
   88SLPC    HB 8481   3.857   2.724   2.885  0.3814 -0.2031  0.8393
   88SLPC    C2 8482   3.864   2.844   3.061  0.4165 -0.0686 -0.4416
   88SLPC    HS 8483   3.856   2.952   3.082  0.8686 -0.3817  1.5315
   88SLPC   O21 8484   3.996   2.794   3.091  0.2724  0.0987  0.4044
   88SLPC   C21 8485   4.102   2.869   3.094  0.1750  0.2196 -0.1635
   88SLPC   O22 8486   4.109   2.989   3.082  0.0321  0.2453  0.4537
   88SLPC   C22 8487   4.216   2.770   3.128  0.0203 -0.5115 -0.9810
   88SLPC   H2R 8488   4.173   2.670   3.106 -0.2714 -0.8061  0.7887
   88SLPC   H2S 8489   4.310   2.797   3.076  1.7288  1.8074  2.8646
   88SLPC    C3 8490   3.756   2.786   3.158 -0.2085 -0.0304  0.7699
   88SLPC    HX 8491   3.762   2.675   3.153 -0.8605 -0.0270 -2.0375
   88SLPC    HY 8492   3.655   2.807   3.118 -1.0756 -3.8424  0.5754
   88SLPC   O31 8493   3.768   2.832   3.290  0.4311 -0.1921 -0.3265
   88SLPC   C31 8494   3.687   2.928   3.338  0.0811 -0.5717 -0.3563
   88SLPC   O32 8495   3.628   3.008   3.271  0.1421  1.0571 -0.5282
   88SLPC   C32 8496   3.683   2.917   3.497  0.2597 -0.0122  0.1511
   88SLPC   H2X 8497   3.787   2.939   3.531 -1.1403  1.1570  4.1453
   88SLPC   H2Y 8498   3.678   2.812   3.535  0.0164  0.7755  2.4472
   88SLPC   C23 8499   4.260   2.782   3.278 -0.0664 -0.0385 -0.1161
   88SLPC   H3R 8500   4.341   2.707   3.286 -0.6900 -1.0431 -2.2947
   88SLPC   H3S 8501   4.182   2.744   3.347 -0.3310 -1.2321 -1.0487
   88SLPC   C24 8502   4.315   2.924   3.321  0.6053  0.1272  0.9966
   88SLPC   H4R 8503   4.238   2.998   3.289  0.7063  0.0711  0.6148
   88SLPC   H4S 8504   4.403   2.961   3.265  1.0154  0.3577  1.7883
   88SLPC   C25 8505   4.337   2.926   3.467 -0.5304 -0.7594 -0.0891
   88SLPC   H5R 8506   4.393   2.832   3.488  0.0599 -0.3099  0.3871
   88SLPC   H5S 8507   4.243   2.909   3.523 -0.3640  0.2247  0.5018
   88SLPC   C26 8508   4.424   3.043   3.511 -0.3725 -0.0167 -0.5144
   88SLPC   H6R 8509   4.512   3.061   3.446 -0.1919 -0.8783 -0.5239
   88SLPC   H6S 8510   4.479   3.021   3.605 -0.0483 -2.7603 -1.2604
   88SLPC   C27 8511   4.348   3.172   3.544 -0.2950  0.0821  0.2366
   88SLPC   H7R 8512   4.288   3.203   3.456  0.4129 -3.1037 -1.5438
   88SLPC   H7S 8513   4.428   3.248   3.556  1.7076 -1.5621 -1.7043
   88SLPC   C28 8514   4.259   3.173   3.672  0.8681 -0.6341  0.7049
   88SLPC   H8R 8515   4.196   3.083   3.658  0.6489 -0.1463 -2.1472
   88SLPC   H8S 8516   4.189   3.258   3.661  1.9513  0.0790 -1.1088
   88SLPC   C29 8517   4.327   3.156   3.810  0.3383  0.0297  0.3859
   88SLPC   H9R 8518   4.421   3.099   3.806  1.6440  2.1370 -1.2604
   88SLPC  C210 8519   4.283   3.201   3.925 -0.0759  0.0852  0.5921
   88SLPC  H10R 8520   4.361   3.191   4.002  2.8317  1.6908 -1.9541
   88SLPC  C211 8521   4.149   3.264   3.955  0.6034 -0.5786 -0.4556
   88SLPC  H11R 8522   4.068   3.191   3.974  1.2341 -0.7874  1.6926
   88SLPC  H11S 8523   4.127   3.314   3.858  3.1105 -0.7960 -1.2097
   88SLPC  C212 8524   4.151   3.376   4.060  0.0071  0.0827  1.1302
   88SLPC  H12R 8525   4.143   3.475   4.013 -3.3535 -0.1581  0.8905
   88SLPC  C213 8526   4.173   3.367   4.193 -0.6828  0.2680  0.8639
   88SLPC  H13R 8527   4.176   3.452   4.263  1.3083  1.9294 -1.0882
   88SLPC  C214 8528   4.174   3.232   4.265 -0.2933 -0.1016  0.6039
   88SLPC  H14R 8529   4.263   3.216   4.330 -1.4109  0.4926  2.3538
   88SLPC  H14S 8530   4.177   3.155   4.185  0.8551 -0.3432  0.8608
   88SLPC  C215 8531   4.044   3.218   4.339 -0.0137  0.6069  0.0865
   88SLPC  H15R 8532   3.965   3.196   4.264  0.9248 -0.4494 -0.6414
   88SLPC  H15S 8533   4.022   3.314   4.390 -1.5012  0.0734  0.5039
   88SLPC  C216 8534   4.055   3.105   4.441 -1.1649  0.0063 -0.0683
   88SLPC  H16R 8535   4.134   3.120   4.518 -0.9931  0.1775 -0.2755
   88SLPC  H16S 8536   4.074   3.013   4.382  0.1539  2.1418 -3.2467
   88SLPC  C217 8537   3.917   3.078   4.502 -0.0577  0.5712 -0.3531
   88SLPC  H17R 8538   3.845   3.102   4.421 -1.7612  1.7029  1.4235
   88SLPC  H17S 8539   3.895   3.145   4.587  1.1343  2.0080 -1.1220
   88SLPC  C218 8540   3.893   2.938   4.549  0.9724 -0.1497 -0.1704
   88SLPC  H18R 8541   3.798   2.933   4.607  1.6573 -0.8849  0.9336
   88SLPC  H18S 8542   3.986   2.909   4.604  2.5263  2.0521 -1.4751
   88SLPC  H18T 8543   3.869   2.866   4.468 -1.1752  0.0699  0.2236
   88SLPC   C33 8544   3.584   3.009   3.563 -0.3071 -0.0225  0.1602
   88SLPC   H3X 8545   3.486   3.023   3.514  0.3726  3.7098 -0.3872
   88SLPC   H3Y 8546   3.631   3.110   3.565  0.1669 -0.2472  0.7817
   88SLPC   C34 8547   3.575   2.953   3.707 -0.2894 -0.4038  0.2750
   88SLPC   H4X 8548   3.564   3.048   3.764 -0.4048 -0.2448 -0.0132
   88SLPC   H4Y 8549   3.677   2.918   3.733 -1.4489 -2.9061  1.7955
   88SLPC   C35 8550   3.462   2.853   3.733  1.0692  1.1130 -0.2052
   88SLPC   H5X 8551   3.480   2.792   3.824 -0.0428  0.7336 -0.2245
   88SLPC   H5Y 8552   3.451   2.775   3.655  2.7195  0.6511 -0.0309
   88SLPC   C36 8553   3.317   2.913   3.745 -0.4308 -0.0594 -0.5188
   88SLPC   H6X 8554   3.296   2.958   3.646 -1.2820 -1.0064 -0.7905
   88SLPC   H6Y 8555   3.316   2.992   3.822 -2.6501  0.8060 -1.3353
   88SLPC   C37 8556   3.208   2.810   3.773  0.9717 -0.0746  0.6684
   88SLPC   H7X 8557   3.188   2.746   3.684 -1.9324 -3.1757  3.2811
   88SLPC   H7Y 8558   3.109   2.855   3.796  0.1213 -1.9521  0.9164
   88SLPC   C38 8559   3.244   2.712   3.886 -0.1209 -0.5533 -0.0964
   88SLPC   H8X 8560   3.315   2.759   3.958 -0.0504 -1.6938  0.6076
   88SLPC   H8Y 8561   3.287   2.616   3.853  0.9901 -0.4648  1.0158
   88SLPC   C39 8562   3.121   2.699   3.983  0.4611  0.1722 -0.1834
   88SLPC   H9X 8563   3.031   2.666   3.926  0.9147 -1.2758 -0.0980
   88SLPC   H9Y 8564   3.101   2.803   4.017  0.4181 -0.1185  0.7158
   88SLPC  C310 8565   3.150   2.609   4.100 -0.0215 -0.2958  0.7108
   88SLPC  H10X 8566   3.241   2.639   4.157 -1.4273  2.9289  1.4910
   88SLPC  H10Y 8567   3.175   2.508   4.060  0.8812  0.0009  0.4973
   88SLPC  C311 8568   3.030   2.603   4.199  0.2550  0.0629 -0.2573
   88SLPC  H11X 8569   2.927   2.592   4.159  0.5199 -1.9732 -0.4780
   88SLPC  H11Y 8570   3.040   2.698   4.256  0.6497  0.5272 -1.0907
   88SLPC  C312 8571   3.053   2.496   4.306 -0.1109  0.0656 -1.0773
   88SLPC  H12X 8572   3.162   2.474   4.295  0.0993  1.4832 -2.3326
   88SLPC  H12Y 8573   3.004   2.401   4.277 -0.8476  0.6781 -1.8954
   88SLPC  C313 8574   3.013   2.527   4.456 -0.1798  0.0023  0.6865
   88SLPC  H13X 8575   2.908   2.496   4.473 -0.3593  0.5863  0.6707
   88SLPC  H13Y 8576   3.025   2.637   4.459  1.0952 -0.1374  1.5265
   88SLPC  C314 8577   3.100   2.449   4.559 -0.2992 -0.1311 -0.2795
   88SLPC  H14X 8578   3.206   2.480   4.561 -0.5720  0.8032  1.1518
   88SLPC  H14Y 8579   3.110   2.346   4.519 -0.8333 -0.7089  1.0234
   88SLPC  C315 8580   3.051   2.440   4.707  0.2062 -0.6807  0.0911
   88SLPC  H15X 8581   2.940   2.439   4.714 -0.2189 -1.7375 -4.0686
   88SLPC  H15Y 8582   3.082   2.530   4.764 -1.4189  0.0051 -0.0741
   88SLPC  C316 8583   3.102   2.314   4.775  0.3939 -1.1183  0.6933
   88SLPC  H16X 8584   3.212   2.308   4.761  0.5434 -0.2494  1.3376
   88SLPC  H16Y 8585   3.050   2.231   4.724 -1.2217 -0.2742  0.9079
   88SLPC  C317 8586   3.079   2.314   4.927 -0.2188 -0.2218 -0.6275
   88SLPC  H17X 8587   2.971   2.332   4.947  0.3566 -0.1645  3.0987
   88SLPC  H17Y 8588   3.130   2.403   4.970  2.1207 -2.1672  0.9612
   88SLPC  C318 8589   3.117   2.184   5.000  0.1458  0.4369 -0.5906
   88SLPC  H18X 8590   3.101   2.202   5.108 -1.0629 -0.9665 -0.4902
   88SLPC  H18Y 8591   3.222   2.148   4.992 -0.0742 -0.4445  0.2608
   88SLPC  H18Z 8592   3.049   2.098   4.978  0.6118 -0.8361  2.4854
   89SAPE     N 8593   6.750   1.712   7.422  0.0958  0.8743  0.9413
   89SAPE   HN1 8594   6.825   1.757   7.365  0.2582 -0.5246 -0.0106
   89SAPE   HN2 8595   6.683   1.667   7.356  1.2881 -0.0738  0.3459
   89SAPE   HN3 8596   6.712   1.773   7.498 -1.1333  0.2121  0.8827
   89SAPE   C12 8597   6.812   1.586   7.482 -0.0552  0.0681  0.3063
   89SAPE  H12A 8598   6.735   1.542   7.549  0.0345 -0.1482  0.2679
   89SAPE  H12B 8599   6.904   1.615   7.537 -1.1216 -1.5419  3.1404
   89SAPE   C11 8600   6.869   1.474   7.377 -0.3048 -0.0311 -0.2797
   89SAPE  H11A 8601   6.913   1.396   7.443 -1.0777  0.3551  0.7198
   89SAPE  H11B 8602   6.946   1.520   7.312 -1.0333  2.3036  0.4078
   89SAPE     P 8603   6.719   1.449   7.172 -0.1105 -0.3467  0.5685
   89SAPE   O13 8604   6.608   1.368   7.122 -0.4731  0.2877 -0.0721
   89SAPE   O14 8605   6.700   1.594   7.165 -0.2299 -0.2437 -0.5058
   89SAPE   O12 8606   6.757   1.409   7.321 -0.0350  0.0384 -0.0098
   89SAPE   O11 8607   6.846   1.419   7.094  0.0530 -0.0968  0.1447
   89SAPE    C1 8608   6.872   1.287   7.061 -0.4394 -0.1917 -0.5349
   89SAPE    HA 8609   6.881   1.224   7.153  0.2367  0.7375  0.0643
   89SAPE    HB 8610   6.788   1.246   7.001 -1.5564 -0.2044  0.9696
   89SAPE    C2 8611   7.001   1.270   6.986  1.3770  0.5164 -0.2970
   89SAPE    HS 8612   7.081   1.293   7.060  0.8646  0.4023  0.3049
   89SAPE   O21 8613   7.009   1.362   6.875  0.5665  0.0306  0.0282
   89SAPE   C21 8614   7.136   1.378   6.840 -0.0315  0.1587  0.3811
   89SAPE   O22 8615   7.235   1.331   6.895 -0.0458 -0.1882 -0.5498
   89SAPE   C22 8616   7.143   1.459   6.714 -0.0035 -0.2525 -0.1044
   89SAPE   H2R 8617   7.103   1.560   6.741 -0.5181 -0.3848 -0.3705
   89SAPE   H2S 8618   7.250   1.476   6.688 -0.1513  1.1567  0.1087
   89SAPE    C3 8619   7.027   1.120   6.945 -0.3296  0.7966 -0.0721
   89SAPE    HX 8620   6.984   1.056   7.026 -0.3937 -1.2886 -1.6558
   89SAPE    HY 8621   7.137   1.109   6.935 -0.5569 -1.2184 -0.7909
   89SAPE   O31 8622   6.966   1.089   6.819 -0.1352  0.1764 -0.4157
   89SAPE   C31 8623   6.836   1.033   6.822 -0.0263  0.5556  0.0234
   89SAPE   O32 8624   6.770   1.010   6.925  0.1544  0.1310  0.4133
   89SAPE   C32 8625   6.800   0.974   6.682  0.4715  0.0780 -0.2446
   89SAPE   H2X 8626   6.786   0.867   6.710  1.3919  0.0212  0.0384
   89SAPE   H2Y 8627   6.883   0.979   6.608  1.4984 -0.6421  0.8174
   89SAPE   C23 8628   7.072   1.401   6.589  0.4442 -0.1522  0.0403
   89SAPE   H3R 8629   6.977   1.456   6.575 -0.6953 -2.4392 -1.9789
   89SAPE   H3S 8630   7.036   1.298   6.609 -0.5064 -0.1245 -1.3732
   89SAPE   C24 8631   7.161   1.404   6.467 -0.1911  0.5138  0.3348
   89SAPE   H4R 8632   7.212   1.503   6.474 -1.1698  1.0175  0.7275
   89SAPE   H4S 8633   7.111   1.413   6.368  4.0743  3.0613 -1.8759
   89SAPE   C25 8634   7.248   1.286   6.473 -0.2759 -0.2365  0.2761
   89SAPE   H5R 8635   7.266   1.237   6.570  1.0122 -0.6962 -0.1838
   89SAPE   C26 8636   7.309   1.230   6.366 -0.0664  0.0871  1.1230
   89SAPE   H6R 8637   7.368   1.139   6.384 -0.2712 -0.5013 -0.8562
   89SAPE   C27 8638   7.300   1.276   6.216 -0.0617  0.0183 -0.0811
   89SAPE   H7R 8639   7.390   1.337   6.191 -1.1867  1.9548  0.3819
   89SAPE   H7S 8640   7.211   1.341   6.202 -1.2893 -0.8888  2.7942
   89SAPE   C28 8641   7.287   1.145   6.138 -0.1305  0.2782 -0.2182
   89SAPE   H8R 8642   7.380   1.122   6.083 -0.5362 -0.3454 -0.6633
   89SAPE   C29 8643   7.189   1.050   6.129 -0.1950 -0.3164 -0.0514
   89SAPE   H9R 8644   7.203   0.964   6.063  1.1485 -0.0156 -0.1715
   89SAPE  C210 8645   7.064   1.042   6.212  0.4144  0.4235  0.3515
   89SAPE  H10R 8646   7.043   1.141   6.257 -1.9291 -0.5598  1.5892
   89SAPE  H10S 8647   7.088   0.980   6.301  0.5732  1.3136  0.9474
   89SAPE  C211 8648   6.934   0.984   6.151 -0.6344 -0.1456 -0.9204
   89SAPE  H11R 8649   6.932   0.876   6.168  1.6832 -0.1320 -0.1358
   89SAPE  C212 8650   6.828   1.049   6.092 -1.0974 -0.2591  0.2613
   89SAPE  H12R 8651   6.741   0.994   6.054 -0.9483 -2.0264  2.2953
   89SAPE  C213 8652   6.822   1.191   6.061 -0.0167 -0.1477  0.1132
   89SAPE  H13R 8653   6.801   1.213   5.954  4.3247  0.3492 -0.8304
   89SAPE  H13S 8654   6.926   1.228   6.076  1.0067 -2.9419  0.6260
   89SAPE  C214 8655   6.729   1.256   6.168 -0.6154 -0.1417 -0.9803
   89SAPE  H14R 8656   6.783   1.270   6.262  2.2522 -0.1862 -2.4886
   89SAPE  C215 8657   6.596   1.280   6.163 -0.1349  0.1083  0.3919
   89SAPE  H15R 8658   6.542   1.339   6.239 -2.3519 -1.2026 -0.0580
   89SAPE  C216 8659   6.516   1.239   6.043 -0.3394 -0.3678  0.4926
   89SAPE  H16R 8660   6.412   1.212   6.072 -1.7969  2.6097 -1.4066
   89SAPE  H16S 8661   6.562   1.164   5.976  0.4855  2.8752 -2.8728
   89SAPE  C217 8662   6.496   1.359   5.939 -0.8010  0.0533 -0.1583
   89SAPE  H17R 8663   6.457   1.451   5.989 -0.6856 -0.3585  0.7047
   89SAPE  H17S 8664   6.429   1.317   5.861  0.2985 -0.8087 -0.6621
   89SAPE  C218 8665   6.632   1.392   5.869 -0.2784  0.1570 -0.1985
   89SAPE  H18R 8666   6.637   1.317   5.788 -1.0094 -1.8002  1.4904
   89SAPE  H18S 8667   6.719   1.378   5.937 -1.0036  0.4350  0.8085
   89SAPE  C219 8668   6.643   1.539   5.824  0.4499  0.3829  0.0399
   89SAPE  H19R 8669   6.614   1.606   5.908 -1.6868  3.0994 -2.6099
   89SAPE  H19S 8670   6.562   1.554   5.750 -0.0266 -0.7811  0.3153
   89SAPE  C220 8671   6.776   1.603   5.775  0.2463  0.0399  0.6488
   89SAPE  H20R 8672   6.803   1.572   5.672  0.6242  3.0192 -0.2595
   89SAPE  H20S 8673   6.861   1.568   5.838  0.0290 -0.6959  0.5375
   89SAPE  H20T 8674   6.773   1.714   5.773 -3.1932  0.0658  1.8231
   89SAPE   C33 8675   6.667   1.030   6.635  0.2602 -0.6300 -0.2501
   89SAPE   H3X 8676   6.598   0.987   6.711  2.2326 -2.7556  0.4313
   89SAPE   H3Y 8677   6.638   1.001   6.531  1.3266 -1.2145 -0.3991
   89SAPE   C34 8678   6.660   1.178   6.620  0.2434  0.4333 -0.1896
   89SAPE   H4X 8679   6.753   1.197   6.561  0.0977  1.8614  0.0225
   89SAPE   H4Y 8680   6.671   1.218   6.723  2.9771 -0.0681 -0.2000
   89SAPE   C35 8681   6.540   1.243   6.556  0.3732 -0.2025 -0.0606
   89SAPE   H5X 8682   6.536   1.213   6.449  0.8764  0.2332 -0.2090
   89SAPE   H5Y 8683   6.549   1.353   6.567  0.0800 -0.0086 -1.5025
   89SAPE   C36 8684   6.402   1.209   6.611  0.1409  0.1754  0.3499
   89SAPE   H6X 8685   6.402   1.228   6.721 -0.7381 -2.8026  0.9645
   89SAPE   H6Y 8686   6.365   1.106   6.593 -0.0844  0.5370 -1.4130
   89SAPE   C37 8687   6.291   1.296   6.557  0.8505 -0.0981  0.1446
   89SAPE   H7X 8688   6.310   1.398   6.598  1.5150  0.1037 -0.6389
   89SAPE   H7Y 8689   6.193   1.261   6.595  0.1137  1.4794 -0.2298
   89SAPE   C38 8690   6.298   1.312   6.403  0.0898 -0.3887 -0.2349
   89SAPE   H8X 8691   6.317   1.208   6.370 -1.5629 -0.7554 -0.1217
   89SAPE   H8Y 8692   6.389   1.368   6.372  0.9170 -1.2041  0.6869
   89SAPE   C39 8693   6.170   1.361   6.339 -0.5357 -0.0682  0.0962
   89SAPE   H9X 8694   6.153   1.460   6.387  1.2806 -0.4990  1.7479
   89SAPE   H9Y 8695   6.090   1.292   6.374  0.5718 -1.2371  0.4251
   89SAPE  C310 8696   6.185   1.361   6.183 -0.1168  0.9663  0.0140
   89SAPE  H10X 8697   6.203   1.266   6.130  0.6154  1.8648 -1.4047
   89SAPE  H10Y 8698   6.281   1.412   6.159 -0.0983 -0.2081 -2.7116
   89SAPE  C311 8699   6.071   1.430   6.103 -0.1223  0.7998 -0.1842
   89SAPE  H11X 8700   6.077   1.535   6.139 -2.7931  1.1165 -0.4546
   89SAPE  H11Y 8701   5.976   1.376   6.124 -1.0259  1.3492 -2.6080
   89SAPE  C312 8702   6.100   1.438   5.957  0.0106 -0.2356  0.0605
   89SAPE  H12X 8703   6.199   1.489   5.954 -1.0676  1.9692 -0.8417
   89SAPE  H12Y 8704   6.028   1.516   5.923  1.7944  2.1897  1.5106
   89SAPE  C313 8705   6.095   1.315   5.877 -0.5911 -0.0368  0.2328
   89SAPE  H13X 8706   5.998   1.270   5.906 -0.0527  0.2224  2.6881
   89SAPE  H13Y 8707   6.167   1.236   5.908 -2.3215 -1.8382 -0.0832
   89SAPE  C314 8708   6.125   1.345   5.732 -0.0015  0.0914  0.2813
   89SAPE  H14X 8709   6.224   1.395   5.725  0.7456 -1.2056  0.9430
   89SAPE  H14Y 8710   6.044   1.416   5.706 -1.1607 -1.3574 -0.2195
   89SAPE  C315 8711   6.115   1.228   5.636  0.1860 -0.3547  0.3610
   89SAPE  H15X 8712   6.027   1.168   5.668  1.1570 -3.0130 -1.6253
   89SAPE  H15Y 8713   6.201   1.160   5.654  0.7863  0.1386 -0.5591
   89SAPE  C316 8714   6.096   1.272   5.495  0.5480  0.2380 -0.0478
   89SAPE  H16X 8715   6.184   1.328   5.457 -0.7338  2.8799  0.6107
   89SAPE  H16Y 8716   6.009   1.341   5.497 -0.2027 -0.5808 -1.8507
   89SAPE  C317 8717   6.075   1.157   5.394 -0.3082  0.4717  0.4294
   89SAPE  H17X 8718   5.975   1.113   5.415  0.3682 -1.1242  0.4907
   89SAPE  H17Y 8719   6.162   1.091   5.412 -0.8312 -0.6602 -0.9983
   89SAPE  C318 8720   6.083   1.209   5.247  0.8016 -0.3303  0.5476
   89SAPE  H18X 8721   5.993   1.269   5.221  2.5163  2.7445  1.2247
   89SAPE  H18Y 8722   6.088   1.119   5.181  0.2015 -2.1078  2.8116
   89SAPE  H18Z 8723   6.173   1.271   5.227  0.7572 -0.3905  0.1454
   90SAPE     N 8724   2.946   6.908   7.274 -0.6582 -0.0896  0.2775
   90SAPE   HN1 8725   2.887   6.824   7.291 -1.1735  0.5201  1.6835
   90SAPE   HN2 8726   3.027   6.878   7.217 -0.9579  0.9278 -0.7181
   90SAPE   HN3 8727   2.979   6.946   7.365  0.6951 -0.0339 -0.2244
   90SAPE   C12 8728   2.863   7.005   7.192  0.4408  0.0579  0.5381
   90SAPE  H12A 8729   2.805   7.065   7.266  0.5238 -0.7385  1.2607
   90SAPE  H12B 8730   2.800   6.949   7.120  0.4076  0.6544  0.0932
   90SAPE   C11 8731   2.944   7.110   7.108  0.1858  0.5518 -0.4427
   90SAPE  H11A 8732   2.869   7.166   7.048 -1.1767 -1.1207 -0.3710
   90SAPE  H11B 8733   3.004   7.051   7.036 -0.6423  3.4709 -3.7675
   90SAPE     P 8734   3.139   7.280   7.140  0.4013  0.3322  0.0567
   90SAPE   O13 8735   3.090   7.420   7.147  0.3776 -0.0657  0.3000
   90SAPE   O14 8736   3.262   7.257   7.219  0.3264 -0.2065  0.5139
   90SAPE   O12 8737   3.025   7.181   7.196 -0.2352  0.3711 -0.1372
   90SAPE   O11 8738   3.151   7.245   6.989 -0.3744  1.1212  0.8381
   90SAPE    C1 8739   3.277   7.213   6.934  1.1821 -0.2252  0.2087
   90SAPE    HA 8740   3.345   7.168   7.010  1.6934  0.3494  0.1029
   90SAPE    HB 8741   3.246   7.142   6.854 -1.3784  0.4123  0.5491
   90SAPE    C2 8742   3.345   7.334   6.856  0.3854 -0.3272  0.8802
   90SAPE    HS 8743   3.379   7.408   6.931  2.9275 -0.8498  0.3620
   90SAPE   O21 8744   3.256   7.386   6.753 -0.4168  0.1673  0.0693
   90SAPE   C21 8745   3.249   7.513   6.754  0.0822  0.2608 -0.2524
   90SAPE   O22 8746   3.323   7.589   6.820 -0.3515 -0.1636  0.0441
   90SAPE   C22 8747   3.135   7.563   6.666 -0.5060  0.2556  0.2143
   90SAPE   H2R 8748   3.174   7.567   6.562 -0.4329  0.2093  0.2397
   90SAPE   H2S 8749   3.050   7.492   6.671 -0.6101  0.4189  1.0652
   90SAPE    C3 8750   3.479   7.277   6.788 -0.1005  0.7656 -0.6848
   90SAPE    HX 8751   3.461   7.170   6.761  0.9199  0.5859 -0.6748
   90SAPE    HY 8752   3.559   7.275   6.865  0.4577 -1.2266 -1.2406
   90SAPE   O31 8753   3.513   7.353   6.671  0.3583 -0.1198 -0.9473
   90SAPE   C31 8754   3.603   7.311   6.588 -0.2821  0.0034  0.1499
   90SAPE   O32 8755   3.660   7.205   6.603 -0.4322 -0.1092  0.1871
   90SAPE   C32 8756   3.615   7.399   6.468 -0.2736 -0.6516 -0.2409
   90SAPE   H2X 8757   3.714   7.449   6.474 -0.5834  0.1066 -1.2227
   90SAPE   H2Y 8758   3.541   7.482   6.467 -2.6019 -2.6106 -1.0623
   90SAPE   C23 8759   3.085   7.708   6.705  0.1643 -0.7369  0.6169
   90SAPE   H3R 8760   3.164   7.786   6.703  0.4109 -0.9951 -0.7304
   90SAPE   H3S 8761   3.040   7.702   6.807 -1.6669 -0.9883 -0.1727
   90SAPE   C24 8762   2.973   7.758   6.610  0.0184 -0.6923 -0.4133
   90SAPE   H4R 8763   3.020   7.779   6.512 -0.3521  1.2024 -0.2196
   90SAPE   H4S 8764   2.945   7.862   6.637 -1.5556 -1.3222  0.5046
   90SAPE   C25 8765   2.861   7.657   6.621  0.2953 -0.2252  0.8035
   90SAPE   H5R 8766   2.828   7.621   6.720 -0.2394 -2.0575  0.0107
   90SAPE   C26 8767   2.795   7.616   6.510  0.5734 -0.3555 -0.5896
   90SAPE   H6R 8768   2.725   7.535   6.534  1.2029  0.0018  3.0343
   90SAPE   C27 8769   2.819   7.665   6.368 -0.0269 -0.6977 -0.4463
   90SAPE   H7R 8770   2.802   7.581   6.297  0.5671  0.0703 -1.5308
   90SAPE   H7S 8771   2.926   7.693   6.351  0.3350 -2.0911 -0.5795
   90SAPE   C28 8772   2.731   7.775   6.318  0.2186  0.8888  0.8410
   90SAPE   H8R 8773   2.631   7.787   6.363 -0.0510  1.7010  0.0594
   90SAPE   C29 8774   2.757   7.853   6.215  0.4101  0.2024 -0.2464
   90SAPE   H9R 8775   2.683   7.934   6.202  1.3521  1.0235 -0.6349
   90SAPE  C210 8776   2.879   7.850   6.125  0.1878 -0.0304  0.0127
   90SAPE  H10R 8777   2.860   7.758   6.066 -2.6550 -0.6428  1.7102
   90SAPE  H10S 8778   2.972   7.840   6.184 -0.2641  1.5389  1.0422
   90SAPE  C211 8779   2.894   7.967   6.027  0.6330  0.0972  0.5004
   90SAPE  H11R 8780   2.857   8.063   6.067 -0.1185  0.0755 -0.1157
   90SAPE  C212 8781   2.936   7.965   5.894  0.7956 -0.0546  0.2569
   90SAPE  H12R 8782   2.927   8.056   5.833  0.5702 -0.1402  0.1633
   90SAPE  C213 8783   2.983   7.848   5.810  0.0068  0.2321 -0.3983
   90SAPE  H13R 8784   3.016   7.767   5.877 -1.1702 -0.2609 -0.3922
   90SAPE  H13S 8785   3.062   7.873   5.736  0.3084  0.8537  0.1188
   90SAPE  C214 8786   2.863   7.788   5.751  0.6997 -0.2445 -0.0340
   90SAPE  H14R 8787   2.786   7.763   5.825 -1.7683 -0.2171 -2.4364
   90SAPE  C215 8788   2.830   7.781   5.625  0.0040 -1.0123  0.3734
   90SAPE  H15R 8789   2.736   7.728   5.602 -0.4333  0.3643 -1.2427
   90SAPE  C216 8790   2.920   7.799   5.501 -0.4022 -0.3594  0.2285
   90SAPE  H16R 8791   3.027   7.795   5.531 -0.1825  3.0111  0.2486
   90SAPE  H16S 8792   2.894   7.902   5.467 -2.8107 -1.0544 -0.1645
   90SAPE  C217 8793   2.905   7.698   5.390  0.3558  0.0740  0.0602
   90SAPE  H17R 8794   2.919   7.592   5.420  0.5948  0.2748  0.6731
   90SAPE  H17S 8795   2.990   7.711   5.319 -0.2221 -0.6115 -0.7934
   90SAPE  C218 8796   2.770   7.716   5.327 -0.8167 -0.0919  1.0095
   90SAPE  H18R 8797   2.766   7.823   5.299 -3.2503  0.1676  2.1137
   90SAPE  H18S 8798   2.678   7.692   5.386 -1.6757  2.7489  0.9926
   90SAPE  C219 8799   2.760   7.630   5.198 -0.3264 -1.2988 -0.1372
   90SAPE  H19R 8800   2.772   7.521   5.216  1.5181 -0.7193  2.8675
   90SAPE  H19S 8801   2.849   7.665   5.143 -1.6076  1.3102 -0.6972
   90SAPE  C220 8802   2.627   7.664   5.128  0.4052  0.1412  0.4546
   90SAPE  H20R 8803   2.614   7.609   5.032  1.9591  2.0853 -0.9526
   90SAPE  H20S 8804   2.614   7.773   5.111 -2.0546 -0.1345  0.0701
   90SAPE  H20T 8805   2.546   7.619   5.189  1.0916 -1.8013  0.0264
   90SAPE   C33 8806   3.605   7.325   6.330  0.6098  0.6548 -0.1469
   90SAPE   H3X 8807   3.510   7.269   6.319 -0.8824  2.6445  1.8319
   90SAPE   H3Y 8808   3.688   7.251   6.316  0.7531  1.1645 -2.3412
   90SAPE   C34 8809   3.612   7.426   6.215  0.2224  0.7650 -0.5531
   90SAPE   H4X 8810   3.702   7.490   6.227  1.3327 -0.9622  0.9983
   90SAPE   H4Y 8811   3.523   7.490   6.226  0.0694  0.6868 -1.3043
   90SAPE   C35 8812   3.615   7.366   6.074  0.5450 -0.2674  1.2562
   90SAPE   H5X 8813   3.507   7.346   6.054  0.6404 -0.3156  0.7788
   90SAPE   H5Y 8814   3.669   7.269   6.068 -0.2830 -0.7079  0.6896
   90SAPE   C36 8815   3.666   7.463   5.968 -0.0577 -0.4216 -0.2889
   90SAPE   H6X 8816   3.770   7.500   5.979 -0.4511  0.5165  0.3509
   90SAPE   H6Y 8817   3.614   7.560   5.984 -2.4855 -1.2377 -2.5245
   90SAPE   C37 8818   3.651   7.409   5.827  0.0511 -0.3002 -0.2435
   90SAPE   H7X 8819   3.548   7.382   5.795 -0.7638  2.1331  0.0938
   90SAPE   H7Y 8820   3.688   7.305   5.833  0.3411 -0.1125  2.7791
   90SAPE   C38 8821   3.734   7.476   5.719  1.2307 -0.3861  0.2736
   90SAPE   H8X 8822   3.732   7.408   5.631 -0.5736  1.4158 -1.1701
   90SAPE   H8Y 8823   3.835   7.498   5.760  1.2023 -1.0102  0.7076
   90SAPE   C39 8824   3.679   7.610   5.669  0.4522  0.1369  0.2683
   90SAPE   H9X 8825   3.685   7.673   5.761 -0.8324  0.3214  0.2449
   90SAPE   H9Y 8826   3.579   7.579   5.632  0.7032  0.5666 -0.7907
   90SAPE  C310 8827   3.755   7.656   5.539  0.0006  0.2872  0.3184
   90SAPE  H10X 8828   3.731   7.581   5.460  1.3694  1.6720 -1.5082
   90SAPE  H10Y 8829   3.865   7.642   5.553 -0.1087 -1.3029 -0.2686
   90SAPE  C311 8830   3.725   7.799   5.492  0.4907 -0.1100 -0.4091
   90SAPE  H11X 8831   3.745   7.867   5.577  3.2412 -2.8118  1.3378
   90SAPE  H11Y 8832   3.616   7.804   5.469  0.2460  0.9991  0.8631
   90SAPE  C312 8833   3.802   7.830   5.373  0.2312  0.4215 -0.4375
   90SAPE  H12X 8834   3.821   7.740   5.310 -0.1463  0.1131 -0.1089
   90SAPE  H12Y 8835   3.903   7.873   5.389 -0.4481  1.7461  0.4146
   90SAPE  C313 8836   3.722   7.919   5.273  0.8681  0.0282 -0.8798
   90SAPE  H13X 8837   3.681   8.010   5.324 -1.7341 -1.4385 -0.1710
   90SAPE  H13Y 8838   3.632   7.855   5.259  1.4107 -0.8480 -0.4468
   90SAPE  C314 8839   3.804   7.954   5.147  0.9292 -0.0706  0.1612
   90SAPE  H14X 8840   3.732   7.990   5.070  1.7149  0.8736 -0.1636
   90SAPE  H14Y 8841   3.846   7.856   5.115  0.0958 -0.0133 -1.2022
   90SAPE  C315 8842   3.921   8.055   5.167 -0.8152  0.0831  0.9418
   90SAPE  H15X 8843   4.006   7.999   5.212  1.1252  1.7477 -0.4566
   90SAPE  H15Y 8844   3.895   8.127   5.248 -0.9431  0.4547  0.5754
   90SAPE  C316 8845   3.972   8.135   5.039  0.5735 -0.4154  0.3982
   90SAPE  H16X 8846   3.984   8.066   4.952 -0.6983 -0.6760  0.4050
   90SAPE  H16Y 8847   4.064   8.195   5.052 -0.4580  1.3232 -0.0052
   90SAPE  C317 8848   3.854   8.230   4.990 -0.5392 -0.1502 -0.0712
   90SAPE  H17X 8849   3.859   8.314   5.063  0.6589 -0.4359  0.2034
   90SAPE  H17Y 8850   3.753   8.185   4.994 -1.1497  0.6224 -3.4981
   90SAPE  C318 8851   3.889   8.291   4.859  0.6120  0.1532  0.2284
   90SAPE  H18X 8852   3.991   8.333   4.853  1.5148 -1.9112  0.3549
   90SAPE  H18Y 8853   3.820   8.376   4.841  2.0974  1.4215  0.3807
   90SAPE  H18Z 8854   3.885   8.212   4.780 -3.3728  0.8125 -0.4484
   91SAPE     N 8855   5.965   3.284   6.721  0.1488  0.0744  0.4567
   91SAPE   HN1 8856   6.041   3.341   6.679  1.2589 -1.0743  0.8476
   91SAPE   HN2 8857   6.008   3.212   6.782  3.4142  1.1763 -0.3450
   91SAPE   HN3 8858   5.905   3.243   6.647  1.9389 -0.3844 -0.8129
   91SAPE   C12 8859   5.900   3.378   6.817  0.5931  0.1939  1.0206
   91SAPE  H12A 8860   5.893   3.477   6.765  0.7210 -0.7473 -0.8782
   91SAPE  H12B 8861   5.958   3.402   6.908  1.2126  3.1109 -0.0189
   91SAPE   C11 8862   5.767   3.323   6.855  0.7112  0.4079  0.0709
   91SAPE  H11A 8863   5.712   3.297   6.761 -1.0465  1.1002  0.8658
   91SAPE  H11B 8864   5.714   3.404   6.908 -0.2235 -0.1393  0.0094
   91SAPE     P 8865   5.714   3.067   6.916 -0.0470 -0.0485 -0.0531
   91SAPE   O13 8866   5.777   2.978   7.015  0.4834 -0.6323 -0.1829
   91SAPE   O14 8867   5.567   3.055   6.907 -0.0173  0.3595  0.0436
   91SAPE   O12 8868   5.771   3.214   6.950  0.1467 -0.4196 -0.0722
   91SAPE   O11 8869   5.771   3.047   6.771 -0.2937 -0.6873 -0.1972
   91SAPE    C1 8870   5.738   2.921   6.704  0.8850  0.2112 -0.5030
   91SAPE    HA 8871   5.807   2.838   6.730 -1.5099 -1.3392  1.2020
   91SAPE    HB 8872   5.638   2.881   6.730  1.6609 -0.8153  1.0391
   91SAPE    C2 8873   5.747   2.923   6.547  0.2904  0.4132 -0.2701
   91SAPE    HS 8874   5.852   2.951   6.524  1.1518 -2.2600  0.1090
   91SAPE   O21 8875   5.647   3.024   6.505  0.7629 -0.4568 -0.2068
   91SAPE   C21 8876   5.693   3.147   6.496 -1.0672  0.2797  0.3638
   91SAPE   O22 8877   5.799   3.184   6.547 -0.1413 -0.4022  0.3627
   91SAPE   C22 8878   5.598   3.239   6.417  0.1369  0.1904 -0.1503
   91SAPE   H2R 8879   5.490   3.222   6.439 -0.3085  2.2557 -0.5161
   91SAPE   H2S 8880   5.617   3.343   6.454 -1.0585 -0.0827  1.3839
   91SAPE    C3 8881   5.709   2.783   6.482 -0.2648 -0.2439 -0.1373
   91SAPE    HX 8882   5.614   2.745   6.526 -0.8259 -0.5432 -1.5422
   91SAPE    HY 8883   5.794   2.717   6.510  0.8033  0.7710 -0.9305
   91SAPE   O31 8884   5.686   2.789   6.339 -0.8071  0.8694 -0.0544
   91SAPE   C31 8885   5.803   2.813   6.275 -0.1470 -0.3816  0.0975
   91SAPE   O32 8886   5.915   2.833   6.321  0.4174 -0.2571 -0.1313
   91SAPE   C32 8887   5.758   2.817   6.121 -0.5161  0.6233  0.0302
   91SAPE   H2X 8888   5.694   2.908   6.115 -0.2376  0.8830  0.8476
   91SAPE   H2Y 8889   5.691   2.728   6.118 -0.3058  0.4218  0.9938
   91SAPE   C23 8890   5.605   3.235   6.255 -0.9131 -0.0682 -0.4426
   91SAPE   H3R 8891   5.513   3.290   6.228 -0.5069 -0.1173 -2.0091
   91SAPE   H3S 8892   5.617   3.130   6.221  0.5947 -0.7315  1.8498
   91SAPE   C24 8893   5.720   3.328   6.202  0.3106 -0.6236  0.1406
   91SAPE   H4R 8894   5.712   3.412   6.274  1.1019  0.7322 -1.2927
   91SAPE   H4S 8895   5.684   3.366   6.104 -0.1893 -0.5936  0.3351
   91SAPE   C25 8896   5.849   3.257   6.193 -0.2133 -0.9798  0.1194
   91SAPE   H5R 8897   5.906   3.262   6.287 -0.3704  2.7471  0.1769
   91SAPE   C26 8898   5.907   3.198   6.091  0.8251 -0.2125 -0.6804
   91SAPE   H6R 8899   6.002   3.149   6.116 -0.0112 -1.0330  1.1010
   91SAPE   C27 8900   5.854   3.189   5.956  0.2236 -0.3756  0.2978
   91SAPE   H7R 8901   5.747   3.161   5.969  0.8349 -2.7965  0.7305
   91SAPE   H7S 8902   5.895   3.097   5.909  1.4403 -1.2629  2.8719
   91SAPE   C28 8903   5.859   3.314   5.874  0.0428  0.2125  0.4983
   91SAPE   H8R 8904   5.857   3.401   5.941 -2.2323 -1.3518  2.6689
   91SAPE   C29 8905   5.869   3.324   5.738  0.4176  0.2607 -0.0369
   91SAPE   H9R 8906   5.876   3.422   5.689 -1.1903  0.4455  0.0613
   91SAPE  C210 8907   5.876   3.209   5.647  1.1464 -0.1425  0.5677
   91SAPE  H10R 8908   5.818   3.235   5.556  0.5883  1.6508  1.3827
   91SAPE  H10S 8909   5.821   3.124   5.692  1.2635 -0.8804 -0.6209
   91SAPE  C211 8910   6.024   3.171   5.625  0.3897 -0.5377  0.0532
   91SAPE  H11R 8911   6.086   3.164   5.716  0.4571 -0.7610 -0.0088
   91SAPE  C212 8912   6.090   3.149   5.508  0.2958 -0.8673  0.2367
   91SAPE  H12R 8913   6.198   3.130   5.517  0.7914  2.4190  4.3762
   91SAPE  C213 8914   6.028   3.147   5.366  0.2983  0.2478  0.0348
   91SAPE  H13R 8915   5.929   3.198   5.374  0.7794  1.0033  1.4169
   91SAPE  H13S 8916   6.011   3.039   5.347  0.8603  0.1845 -0.1351
   91SAPE  C214 8917   6.106   3.193   5.251  0.0652 -0.1757  0.0435
   91SAPE  H14R 8918   6.078   3.292   5.213 -0.5137  0.7294  2.6318
   91SAPE  C215 8919   6.202   3.127   5.186  0.1693  0.3747 -0.0295
   91SAPE  H15R 8920   6.235   3.168   5.089 -0.7954 -1.3453 -1.1570
   91SAPE  C216 8921   6.249   2.986   5.211 -0.0068 -0.2960 -0.0987
   91SAPE  H16R 8922   6.214   2.914   5.134  2.1887 -0.3374 -1.1236
   91SAPE  H16S 8923   6.210   2.955   5.310 -4.3492  1.5718 -0.9745
   91SAPE  C217 8924   6.402   2.979   5.215 -0.1948 -0.2942  0.2849
   91SAPE  H17R 8925   6.432   3.041   5.302 -2.7520  0.0504  0.9820
   91SAPE  H17S 8926   6.459   3.024   5.130  0.2615 -0.5839  0.4331
   91SAPE  C218 8927   6.447   2.833   5.234 -0.3026  0.0765 -0.6552
   91SAPE  H18R 8928   6.401   2.793   5.327 -0.2644  1.2657 -0.1088
   91SAPE  H18S 8929   6.558   2.843   5.235 -0.4579  2.0352 -0.0235
   91SAPE  C219 8930   6.413   2.734   5.122  0.2411  0.1867 -0.1102
   91SAPE  H19R 8931   6.425   2.788   5.026 -2.8983  0.8200 -0.2419
   91SAPE  H19S 8932   6.309   2.704   5.099 -0.6096  1.6730  1.5918
   91SAPE  C220 8933   6.504   2.618   5.129 -0.4559 -0.1775 -0.5105
   91SAPE  H20R 8934   6.480   2.544   5.050  0.7384 -1.6839  0.4820
   91SAPE  H20S 8935   6.493   2.572   5.229 -0.3888 -0.1293 -0.4815
   91SAPE  H20T 8936   6.611   2.645   5.116 -0.2044 -1.3005 -0.9580
   91SAPE   C33 8937   5.866   2.818   6.014 -0.2699 -0.2488 -0.0417
   91SAPE   H3X 8938   5.953   2.756   6.046 -2.3353 -2.2561  2.0094
   91SAPE   H3Y 8939   5.913   2.919   6.006  1.0448 -0.6980  1.5228
   91SAPE   C34 8940   5.812   2.785   5.871 -0.1863  0.2071  0.3700
   91SAPE   H4X 8941   5.768   2.877   5.827  0.4346 -0.2244 -1.2150
   91SAPE   H4Y 8942   5.736   2.705   5.877 -1.5628  1.5043  0.6678
   91SAPE   C35 8943   5.929   2.750   5.782  0.0804  0.0569  0.4097
   91SAPE   H5X 8944   5.985   2.668   5.833  1.7036  1.5273  1.0783
   91SAPE   H5Y 8945   6.006   2.829   5.770  0.7989 -0.8558 -1.3416
   91SAPE   C36 8946   5.887   2.708   5.635  0.2933 -0.5461 -0.7324
   91SAPE   H6X 8947   5.828   2.798   5.604  1.5084  0.8611  0.8621
   91SAPE   H6Y 8948   5.815   2.623   5.634 -0.1270 -0.2012 -0.4314
   91SAPE   C37 8949   5.997   2.687   5.540  0.1833  0.5875 -0.3971
   91SAPE   H7X 8950   6.037   2.584   5.556 -0.5265  0.1944 -1.0766
   91SAPE   H7Y 8951   6.073   2.765   5.562 -0.8694  0.8054  3.1682
   91SAPE   C38 8952   5.956   2.702   5.395 -0.0840  0.3736  0.6593
   91SAPE   H8X 8953   5.911   2.801   5.376  1.6385  1.3940  1.6189
   91SAPE   H8Y 8954   5.880   2.628   5.361 -1.6610  3.7621 -4.1643
   91SAPE   C39 8955   6.077   2.681   5.298 -0.0337 -0.1013  0.0094
   91SAPE   H9X 8956   6.172   2.712   5.346 -0.3637 -1.4914  1.6967
   91SAPE   H9Y 8957   6.058   2.745   5.209  1.0307 -0.2759 -0.3586
   91SAPE  C310 8958   6.113   2.533   5.276  0.3007  0.5832  0.0775
   91SAPE  H10X 8959   6.112   2.484   5.376  2.2374 -0.6241 -0.4391
   91SAPE  H10Y 8960   6.217   2.503   5.251 -0.0346 -0.0932 -0.5523
   91SAPE  C311 8961   6.013   2.456   5.191  0.2571 -0.2020  0.5256
   91SAPE  H11X 8962   5.913   2.466   5.238  0.3523  0.8410  0.5158
   91SAPE  H11Y 8963   6.052   2.353   5.175  0.8717  0.4863 -3.4373
   91SAPE  C312 8964   5.991   2.516   5.054  0.4236 -0.9059 -0.1326
   91SAPE  H12X 8965   6.084   2.512   4.993  0.3590 -2.6393 -0.1448
   91SAPE  H12Y 8966   5.954   2.621   5.062  1.3295 -0.6096  0.2737
   91SAPE  C313 8967   5.880   2.431   4.981  0.2395 -0.0823  0.3728
   91SAPE  H13X 8968   5.795   2.418   5.051 -0.0751  3.0419  0.7105
   91SAPE  H13Y 8969   5.917   2.331   4.950 -0.6914  0.0091 -1.1840
   91SAPE  C314 8970   5.821   2.491   4.853 -0.5267  0.1959 -0.5072
   91SAPE  H14X 8971   5.896   2.504   4.773 -0.6130 -2.3634 -1.1028
   91SAPE  H14Y 8972   5.769   2.587   4.873 -0.1800 -0.0876  2.1229
   91SAPE  C315 8973   5.705   2.403   4.800 -0.1668 -0.0861  0.1492
   91SAPE  H15X 8974   5.619   2.429   4.865 -0.6044 -0.7049 -0.1808
   91SAPE  H15Y 8975   5.735   2.300   4.828  1.7292  1.1254  3.1846
   91SAPE  C316 8976   5.678   2.416   4.653 -0.7044  0.1497 -0.4141
   91SAPE  H16X 8977   5.593   2.352   4.623 -0.4928  0.0042 -0.7145
   91SAPE  H16Y 8978   5.766   2.376   4.598  1.3183  1.1364  1.8897
   91SAPE  C317 8979   5.672   2.562   4.604 -0.3277  0.0211 -0.3213
   91SAPE  H17X 8980   5.772   2.610   4.619  0.4360 -1.8663  1.1013
   91SAPE  H17Y 8981   5.609   2.627   4.667  0.5302 -0.5258  1.1539
   91SAPE  C318 8982   5.648   2.582   4.454 -0.1801  0.1552 -0.1832
   91SAPE  H18X 8983   5.586   2.500   4.411 -0.7055 -0.2715  1.3001
   91SAPE  H18Y 8984   5.739   2.605   4.396  0.4175 -0.6979  0.3906
   91SAPE  H18Z 8985   5.581   2.670   4.443  0.5421  0.6024 -1.1504
   92SAPE     N 8986   0.476   1.811   7.300  0.5597  0.2322  0.2288
   92SAPE   HN1 8987   0.415   1.753   7.238  2.0663 -0.1364 -0.9627
   92SAPE   HN2 8988   0.420   1.837   7.384  0.4696  1.0424 -0.0807
   92SAPE   HN3 8989   0.497   1.901   7.253  0.1743 -0.2104 -0.8205
   92SAPE   C12 8990   0.608   1.741   7.338 -1.3343 -0.1367  0.7401
   92SAPE  H12A 8991   0.656   1.806   7.415 -0.3109  0.4563 -0.3740
   92SAPE  H12B 8992   0.675   1.730   7.251 -0.0683 -0.9652  1.7941
   92SAPE   C11 8993   0.574   1.603   7.399  0.4779  0.0094 -0.6794
   92SAPE  H11A 8994   0.487   1.608   7.468  0.6539 -1.1175 -0.3618
   92SAPE  H11B 8995   0.664   1.577   7.459 -0.0162  0.1018  0.1239
   92SAPE     P 8996   0.638   1.443   7.206 -0.0708  0.1052  0.1621
   92SAPE   O13 8997   0.773   1.496   7.231  0.1566  0.7375  0.3744
   92SAPE   O14 8998   0.623   1.295   7.197 -0.3465  0.0936  0.0635
   92SAPE   O12 8999   0.540   1.505   7.303 -0.7880 -0.6990  0.0726
   92SAPE   O11 9000   0.576   1.496   7.068 -0.0646 -0.0340 -0.3305
   92SAPE    C1 9001   0.649   1.578   6.973  0.0200 -0.1155 -0.0653
   92SAPE    HA 9002   0.625   1.681   7.008 -1.8503 -0.3571 -0.5425
   92SAPE    HB 9003   0.758   1.568   6.994 -0.3140 -0.7878  1.4920
   92SAPE    C2 9004   0.604   1.556   6.828  0.5735 -0.2741 -0.1082
   92SAPE    HS 9005   0.681   1.617   6.777  1.0970 -0.9309 -0.1229
   92SAPE   O21 9006   0.470   1.597   6.810 -0.4146  1.0536  0.4331
   92SAPE   C21 9007   0.467   1.732   6.818  0.2704  0.0794  0.0903
   92SAPE   O22 9008   0.559   1.809   6.836 -0.0938 -0.0788  0.2219
   92SAPE   C22 9009   0.328   1.778   6.833  1.0270 -1.1679 -0.5430
   92SAPE   H2R 9010   0.266   1.691   6.863 -0.0096 -0.3534 -0.2526
   92SAPE   H2S 9011   0.319   1.851   6.916 -0.2135 -2.8755  0.8944
   92SAPE    C3 9012   0.614   1.409   6.790 -0.6324 -0.0762 -0.1177
   92SAPE    HX 9013   0.518   1.365   6.827 -0.2578 -0.4825  0.3847
   92SAPE    HY 9014   0.701   1.356   6.834  0.2725  2.1445  0.8639
   92SAPE   O31 9015   0.613   1.394   6.649  0.6560 -0.2155 -0.0253
   92SAPE   C31 9016   0.730   1.375   6.587 -0.4957 -0.5338 -0.1019
   92SAPE   O32 9017   0.834   1.371   6.646  0.2913 -0.5136  0.1779
   92SAPE   C32 9018   0.699   1.341   6.436 -0.3932  0.0629 -0.3338
   92SAPE   H2X 9019   0.614   1.398   6.393 -0.7130 -1.2583 -1.5332
   92SAPE   H2Y 9020   0.675   1.233   6.431 -0.1461 -0.0951  1.2404
   92SAPE   C23 9021   0.271   1.834   6.700  0.2003  0.0500  0.5733
   92SAPE   H3R 9022   0.281   1.763   6.615  0.7279  0.8452 -0.0462
   92SAPE   H3S 9023   0.340   1.914   6.665  0.4565 -1.2658 -2.2230
   92SAPE   C24 9024   0.132   1.885   6.719 -0.5243 -0.1959  0.1204
   92SAPE   H4R 9025   0.136   1.952   6.807  1.3399 -0.3020  0.1618
   92SAPE   H4S 9026   0.074   1.795   6.748  0.8114 -1.4462 -0.9113
   92SAPE   C25 9027   0.080   1.958   6.597  0.4763 -0.2687 -0.6500
   92SAPE   H5R 9028   0.143   2.047   6.581  0.0403  0.2831  0.5754
   92SAPE   C26 9029  -0.032   1.943   6.521  0.7073 -1.3324 -0.6333
   92SAPE   H6R 9030  -0.047   2.010   6.435  3.4188  0.7212  0.3417
   92SAPE   C27 9031  -0.144   1.841   6.545  0.2210 -0.0104 -0.3484
   92SAPE   H7R 9032  -0.248   1.880   6.535 -0.1631 -0.2435  1.9947
   92SAPE   H7S 9033  -0.133   1.822   6.654  0.6377 -0.9984 -0.5586
   92SAPE   C28 9034  -0.122   1.716   6.463  0.1762 -0.6999  0.5825
   92SAPE   H8R 9035  -0.020   1.677   6.474 -0.0719 -1.1604  1.2468
   92SAPE   C29 9036  -0.209   1.640   6.392 -0.1505  0.3637 -0.6351
   92SAPE   H9R 9037  -0.170   1.549   6.343  1.1719  0.0339  0.9637
   92SAPE  C210 9038  -0.356   1.663   6.356 -0.2998  0.6032 -0.3259
   92SAPE  H10R 9039  -0.389   1.586   6.283  0.1674 -0.7431  0.8443
   92SAPE  H10S 9040  -0.353   1.758   6.298  0.7433 -0.6288 -2.3757
   92SAPE  C211 9041  -0.453   1.656   6.478 -0.3908  0.0984  0.6675
   92SAPE  H11R 9042  -0.397   1.650   6.573  2.6816  1.4377 -0.9153
   92SAPE  C212 9043  -0.588   1.676   6.471  0.3095 -0.3989 -0.2121
   92SAPE  H12R 9044  -0.654   1.637   6.550 -0.0315  0.1608 -0.2109
   92SAPE  C213 9045  -0.660   1.710   6.345  0.3442 -0.4400  0.3003
   92SAPE  H13R 9046  -0.764   1.671   6.350 -0.6514  2.0876  1.0044
   92SAPE  H13S 9047  -0.608   1.666   6.257 -0.5061  0.2118 -0.5330
   92SAPE  C214 9048  -0.660   1.860   6.321  0.0922  0.0248  0.3582
   92SAPE  H14R 9049  -0.664   1.925   6.410  1.6004 -0.2971  0.6775
   92SAPE  C215 9050  -0.677   1.919   6.196 -0.1252 -0.2328  0.3977
   92SAPE  H15R 9051  -0.677   2.027   6.179 -2.0439 -0.3984 -0.9267
   92SAPE  C216 9052  -0.674   1.842   6.064  0.5225 -0.1436  0.3925
   92SAPE  H16R 9053  -0.744   1.757   6.080 -0.3920  0.6764  0.8216
   92SAPE  H16S 9054  -0.570   1.811   6.039 -0.3949 -2.7270 -0.5438
   92SAPE  C217 9055  -0.749   1.927   5.967  0.0275  0.0060 -0.5566
   92SAPE  H17R 9056  -0.675   1.999   5.926  0.2545  0.6824  0.9762
   92SAPE  H17S 9057  -0.837   1.977   6.012 -0.2527 -0.2547 -0.8072
   92SAPE  C218 9058  -0.793   1.844   5.851  0.0221  0.4795 -0.3370
   92SAPE  H18R 9059  -0.848   1.905   5.776 -1.0125 -0.1450 -0.1107
   92SAPE  H18S 9060  -0.858   1.760   5.883  2.8748 -0.7039  2.9428
   92SAPE  C219 9061  -0.672   1.784   5.780 -0.0817 -0.5872  0.0788
   92SAPE  H19R 9062  -0.606   1.726   5.847  0.2662 -1.6788 -1.1613
   92SAPE  H19S 9063  -0.603   1.856   5.730  1.3356 -1.5061  0.6421
   92SAPE  C220 9064  -0.722   1.697   5.662 -0.1811  0.1993  0.0831
   92SAPE  H20R 9065  -0.800   1.624   5.693  0.5837 -1.1046 -0.9018
   92SAPE  H20S 9066  -0.638   1.637   5.620  0.4978  1.4212 -0.3283
   92SAPE  H20T 9067  -0.761   1.761   5.580  1.4663 -2.7791 -3.3579
   92SAPE   C33 9068   0.815   1.353   6.340 -0.8556  0.2974 -0.0192
   92SAPE   H3X 9069   0.887   1.269   6.353  0.1317  1.1900  0.4399
   92SAPE   H3Y 9070   0.875   1.442   6.368 -1.0997  0.1053  1.1941
   92SAPE   C34 9071   0.767   1.363   6.190 -0.7011 -1.3143 -0.6750
   92SAPE   H4X 9072   0.739   1.471   6.184  1.7431 -0.3449  2.5378
   92SAPE   H4Y 9073   0.672   1.307   6.178 -2.0510  0.8659 -0.8430
   92SAPE   C35 9074   0.869   1.335   6.077 -0.5304 -0.5253  1.0406
   92SAPE   H5X 9075   0.927   1.248   6.114 -1.0003 -0.6420  1.5205
   92SAPE   H5Y 9076   0.946   1.414   6.073 -2.3124  1.2896  1.1368
   92SAPE   C36 9077   0.813   1.325   5.937  0.2486 -0.0340  0.8806
   92SAPE   H6X 9078   0.899   1.333   5.867  0.2300 -0.6404  0.7821
   92SAPE   H6Y 9079   0.758   1.421   5.925  3.2428  2.4689  4.6776
   92SAPE   C37 9080   0.728   1.199   5.896 -0.0888  0.3162  0.4551
   92SAPE   H7X 9081   0.652   1.183   5.976 -0.3939 -2.1512 -0.2567
   92SAPE   H7Y 9082   0.801   1.115   5.894  0.9430  1.1985 -1.3773
   92SAPE   C38 9083   0.669   1.213   5.755 -0.4013  0.3872 -0.1789
   92SAPE   H8X 9084   0.748   1.235   5.681 -0.0085  0.6814  0.3228
   92SAPE   H8Y 9085   0.597   1.297   5.751 -0.5119  0.2387 -1.9145
   92SAPE   C39 9086   0.593   1.098   5.699 -0.5359 -1.3995 -0.4142
   92SAPE   H9X 9087   0.506   1.061   5.758 -1.3209 -0.8624 -1.2018
   92SAPE   H9Y 9088   0.665   1.013   5.697  1.3907  0.1735 -1.9946
   92SAPE  C310 9089   0.545   1.125   5.551  0.2664  0.1249 -0.8324
   92SAPE  H10X 9090   0.496   1.223   5.529 -0.8447 -0.7335 -2.3935
   92SAPE  H10Y 9091   0.475   1.043   5.526 -0.1140 -0.2632  1.3073
   92SAPE  C311 9092   0.666   1.110   5.464  0.2803 -0.9219 -0.2252
   92SAPE  H11X 9093   0.711   1.010   5.479  3.7058  0.4130 -0.7100
   92SAPE  H11Y 9094   0.744   1.187   5.480 -1.1256  0.3017  1.1156
   92SAPE  C312 9095   0.621   1.124   5.319  0.6132  0.3247  0.1326
   92SAPE  H12X 9096   0.572   1.224   5.319  0.2687  0.1920 -1.6972
   92SAPE  H12Y 9097   0.548   1.045   5.290  1.3744 -0.7303  1.0243
   92SAPE  C313 9098   0.740   1.147   5.218  0.0927 -1.0253 -0.2667
   92SAPE  H13X 9099   0.796   1.052   5.217 -0.4884 -1.3690 -0.4460
   92SAPE  H13Y 9100   0.798   1.230   5.265  0.2715  0.7205 -3.3350
   92SAPE  C314 9101   0.713   1.208   5.075 -0.0755  0.3242  0.7642
   92SAPE  H14X 9102   0.636   1.288   5.066 -1.2361 -0.8934 -0.4553
   92SAPE  H14Y 9103   0.672   1.127   5.011  1.4029  0.0994  0.0666
   92SAPE  C315 9104   0.849   1.252   5.011 -0.6497  0.2261  0.2587
   92SAPE  H15X 9105   0.913   1.163   5.025 -0.0858  0.6469  0.3848
   92SAPE  H15Y 9106   0.887   1.335   5.074  1.0902 -0.1123 -0.2987
   92SAPE  C316 9107   0.851   1.286   4.867  0.2968  0.5901 -0.3973
   92SAPE  H16X 9108   0.777   1.367   4.849 -1.9992 -0.4825  3.2820
   92SAPE  H16Y 9109   0.818   1.196   4.811 -0.8815  2.0725 -2.2124
   92SAPE  C317 9110   0.984   1.321   4.809  0.2680 -0.1754 -0.1396
   92SAPE  H17X 9111   1.055   1.243   4.846  0.9493  0.4823 -0.0360
   92SAPE  H17Y 9112   1.021   1.416   4.852  1.6538 -0.9034  0.3734
   92SAPE  C318 9113   0.974   1.304   4.660  0.2998  0.4118  0.5893
   92SAPE  H18X 9114   1.070   1.331   4.611 -0.5460  0.5631 -1.0359
   92SAPE  H18Y 9115   0.888   1.361   4.619  1.8746  0.9507 -2.1997
   92SAPE  H18Z 9116   0.967   1.194   4.644 -0.0719  0.5681 -0.4066
   93SAPE     N 9117   5.721   1.566   7.797  0.2133  0.0342  0.0122
   93SAPE   HN1 9118   5.759   1.549   7.893 -1.2119  0.0160  0.5921
   93SAPE   HN2 9119   5.796   1.616   7.745 -0.3728 -0.2828 -1.1742
   93SAPE   HN3 9120   5.646   1.636   7.810  0.7068  0.7179 -0.7002
   93SAPE   C12 9121   5.684   1.441   7.715 -0.2341 -0.3859 -0.6555
   93SAPE  H12A 9122   5.573   1.435   7.720 -0.2416  0.5644  1.9021
   93SAPE  H12B 9123   5.726   1.355   7.772 -0.1258  1.1578  1.7293
   93SAPE   C11 9124   5.756   1.444   7.571  0.0657  0.0712  0.1062
   93SAPE  H11A 9125   5.724   1.357   7.511 -0.6856  0.5033 -0.1329
   93SAPE  H11B 9126   5.865   1.437   7.589 -0.2972 -1.2874  2.1289
   93SAPE     P 9127   5.804   1.605   7.382 -0.2321 -0.0350 -0.1871
   93SAPE   O13 9128   5.738   1.708   7.305  0.2064 -0.5597  0.3342
   93SAPE   O14 9129   5.943   1.625   7.421  0.2575 -0.0199 -0.0877
   93SAPE   O12 9130   5.715   1.567   7.513  0.2328 -0.3806  0.4665
   93SAPE   O11 9131   5.801   1.470   7.297 -0.0441 -0.0714 -0.3238
   93SAPE    C1 9132   5.681   1.418   7.246  0.0187 -0.5897  0.2725
   93SAPE    HA 9133   5.591   1.431   7.309 -0.6239 -0.2572 -0.6901
   93SAPE    HB 9134   5.673   1.468   7.147 -2.7305  1.8406  1.5909
   93SAPE    C2 9135   5.690   1.268   7.199  1.0001 -0.4454 -0.2257
   93SAPE    HS 9136   5.678   1.216   7.296 -0.9976  3.7007  2.0055
   93SAPE   O21 9137   5.810   1.240   7.125 -0.5132 -0.0608 -0.4651
   93SAPE   C21 9138   5.833   1.106   7.101  0.6041 -0.5274  0.2124
   93SAPE   O22 9139   5.769   1.014   7.151 -0.0543 -0.0556 -0.7036
   93SAPE   C22 9140   5.945   1.097   6.996  0.5936 -0.4526  0.4165
   93SAPE   H2R 9141   5.910   1.114   6.892  1.4914  0.5597  0.2621
   93SAPE   H2S 9142   6.022   1.174   7.019  0.0310 -0.2366  1.6332
   93SAPE    C3 9143   5.558   1.233   7.123 -0.0972  0.1032  0.4333
   93SAPE    HX 9144   5.472   1.254   7.190  0.5930 -1.2970  1.8244
   93SAPE    HY 9145   5.545   1.123   7.114 -1.9904  0.3560 -0.3389
   93SAPE   O31 9146   5.556   1.295   6.990  0.3932 -0.4623 -0.2186
   93SAPE   C31 9147   5.457   1.391   6.974 -0.4269 -0.2239  0.3297
   93SAPE   O32 9148   5.355   1.394   7.029  0.4467  0.3668 -0.1155
   93SAPE   C32 9149   5.493   1.486   6.861  0.1368  0.1670  0.2529
   93SAPE   H2X 9150   5.510   1.415   6.778  0.0761  0.3265  0.1021
   93SAPE   H2Y 9151   5.582   1.541   6.900 -0.7398  0.9829  1.1657
   93SAPE   C23 9152   6.015   0.957   6.985 -0.1677 -0.1843  0.4687
   93SAPE   H3R 9153   5.935   0.880   6.975  1.4248 -1.6327 -2.2032
   93SAPE   H3S 9154   6.071   0.940   7.079 -0.2575  0.3728  0.6243
   93SAPE   C24 9155   6.105   0.943   6.861  0.0562 -0.2716  0.6056
   93SAPE   H4R 9156   6.198   1.001   6.878  0.8520 -0.2227 -2.9503
   93SAPE   H4S 9157   6.055   0.982   6.770  1.6762  0.1952 -0.1314
   93SAPE   C25 9158   6.140   0.794   6.837  0.0747 -0.2559 -0.5766
   93SAPE   H5R 9159   6.063   0.720   6.866 -1.1003  1.2428  0.2923
   93SAPE   C26 9160   6.255   0.741   6.805 -0.1365  0.1444  0.0308
   93SAPE   H6R 9161   6.253   0.631   6.809 -1.1546  0.1675  0.2859
   93SAPE   C27 9162   6.388   0.809   6.765 -0.4853 -0.8270 -0.3403
   93SAPE   H7R 9163   6.455   0.816   6.853 -0.7569 -0.2398 -0.1784
   93SAPE   H7S 9164   6.380   0.912   6.725  1.8802 -0.4885 -0.0807
   93SAPE   C28 9165   6.452   0.727   6.660  0.1463 -0.3277  0.5134
   93SAPE   H8R 9166   6.522   0.651   6.697  1.0844  0.5996  0.6949
   93SAPE   C29 9167   6.429   0.732   6.528  0.4247 -0.6799 -0.2221
   93SAPE   H9R 9168   6.477   0.657   6.464 -0.6276 -1.0790 -0.5678
   93SAPE  C210 9169   6.344   0.835   6.456  0.0595 -0.0552  0.3276
   93SAPE  H10R 9170   6.395   0.934   6.453 -2.3209  1.2886  1.5310
   93SAPE  H10S 9171   6.251   0.850   6.514 -1.2838  0.5222 -1.8462
   93SAPE  C211 9172   6.311   0.790   6.318  0.5609  0.7436  0.0173
   93SAPE  H11R 9173   6.211   0.744   6.311  0.7264  0.5449 -1.2688
   93SAPE  C212 9174   6.390   0.787   6.205 -0.3383  0.0231  0.3018
   93SAPE  H12R 9175   6.343   0.746   6.114  0.4295 -1.8954  0.7282
   93SAPE  C213 9176   6.528   0.850   6.189  0.0193  0.0300 -0.3166
   93SAPE  H13R 9177   6.553   0.902   6.284  0.3954  0.9183 -0.8852
   93SAPE  H13S 9178   6.529   0.939   6.123  0.0837  0.6759  0.5355
   93SAPE  C214 9179   6.639   0.745   6.161  0.1733  0.1682 -0.2957
   93SAPE  H14R 9180   6.713   0.733   6.241 -0.5298 -0.7815  0.2394
   93SAPE  C215 9181   6.671   0.689   6.045 -0.0998  0.5245 -0.0859
   93SAPE  H15R 9182   6.756   0.621   6.028 -1.5892 -0.9049 -2.4700
   93SAPE  C216 9183   6.601   0.711   5.909 -0.3394 -0.4954 -0.3551
   93SAPE  H16R 9184   6.669   0.751   5.830 -0.8680  0.8929 -0.1348
   93SAPE  H16S 9185   6.531   0.795   5.923 -0.8992 -0.7913 -1.2758
   93SAPE  C217 9186   6.528   0.575   5.878  0.5246 -0.6533 -0.5163
   93SAPE  H17R 9187   6.456   0.558   5.961  1.4052 -0.0088  0.4061
   93SAPE  H17S 9188   6.598   0.491   5.856  2.3935  0.6817  0.0945
   93SAPE  C218 9189   6.448   0.586   5.745  0.0625 -0.0908  0.1398
   93SAPE  H18R 9190   6.377   0.666   5.775  0.3573  0.0043  0.5849
   93SAPE  H18S 9191   6.395   0.492   5.719 -2.4092  1.6869 -1.7781
   93SAPE  C219 9192   6.523   0.636   5.623  0.0626 -0.2911  0.5308
   93SAPE  H19R 9193   6.610   0.568   5.611 -0.7826 -1.6155  1.6571
   93SAPE  H19S 9194   6.546   0.745   5.631 -0.4818  0.2771 -3.4310
   93SAPE  C220 9195   6.440   0.618   5.495  0.3108 -0.5986  0.3097
   93SAPE  H20R 9196   6.371   0.705   5.486  1.4373  0.3261  0.3044
   93SAPE  H20S 9197   6.382   0.524   5.501 -1.9500  0.6551 -0.5026
   93SAPE  H20T 9198   6.510   0.613   5.409  0.5679 -0.2608  0.4965
   93SAPE   C33 9199   5.376   1.589   6.826 -0.1912 -0.4343  0.4989
   93SAPE   H3X 9200   5.368   1.630   6.929  1.0351  2.6569 -0.5211
   93SAPE   H3Y 9201   5.286   1.531   6.797 -0.1800  0.4550 -1.4813
   93SAPE   C34 9202   5.419   1.683   6.723 -0.3048 -0.1106 -0.1818
   93SAPE   H4X 9203   5.501   1.757   6.741 -1.7503  1.6835 -0.6089
   93SAPE   H4Y 9204   5.331   1.749   6.706 -1.2898 -1.3287  0.0560
   93SAPE   C35 9205   5.462   1.613   6.591  0.2005 -0.4855 -1.5010
   93SAPE   H5X 9206   5.397   1.524   6.588 -0.3460 -0.1781  0.1837
   93SAPE   H5Y 9207   5.565   1.571   6.596  0.0314 -0.7257  0.8120
   93SAPE   C36 9208   5.439   1.705   6.466  0.1407  0.4941  0.1013
   93SAPE   H6X 9209   5.534   1.763   6.459 -0.3214  1.6303  2.3837
   93SAPE   H6Y 9210   5.352   1.773   6.475  1.2497  2.1659 -1.2778
   93SAPE   C37 9211   5.427   1.629   6.338  0.5823  0.0837 -0.8771
   93SAPE   H7X 9212   5.353   1.550   6.362 -1.3613  1.8189 -0.8222
   93SAPE   H7Y 9213   5.522   1.576   6.320 -0.8626 -2.8893 -0.2963
   93SAPE   C38 9214   5.382   1.716   6.225  0.1444 -0.2731  0.1917
   93SAPE   H8X 9215   5.472   1.776   6.198  0.1105  0.1245  0.9245
   93SAPE   H8Y 9216   5.302   1.792   6.238  1.2876  1.0641 -0.3436
   93SAPE   C39 9217   5.367   1.641   6.102  0.3279 -0.6292 -0.3279
   93SAPE   H9X 9218   5.287   1.564   6.109 -1.3818  1.2123  2.1634
   93SAPE   H9Y 9219   5.464   1.589   6.085  0.7616 -0.6580  1.9533
   93SAPE  C310 9220   5.328   1.725   5.977  0.4516 -0.4156  0.4100
   93SAPE  H10X 9221   5.396   1.813   5.971  0.2180 -0.3208 -1.8218
   93SAPE  H10Y 9222   5.229   1.773   5.995  0.0720 -0.7743 -0.6415
   93SAPE  C311 9223   5.336   1.659   5.839  0.2230 -0.2241  0.8411
   93SAPE  H11X 9224   5.250   1.596   5.808  1.5855 -1.1001 -1.4509
   93SAPE  H11Y 9225   5.423   1.592   5.822  0.8819  0.6694  0.5912
   93SAPE  C312 9226   5.346   1.769   5.734  0.4054 -0.4124  0.3861
   93SAPE  H12X 9227   5.444   1.819   5.746 -0.4343  1.5685 -0.6038
   93SAPE  H12Y 9228   5.264   1.842   5.749  0.1294  0.1143 -2.9815
   93SAPE  C313 9229   5.332   1.722   5.593 -0.2223  0.0777  0.0518
   93SAPE  H13X 9230   5.228   1.683   5.586  0.2071 -0.9909 -0.6881
   93SAPE  H13Y 9231   5.406   1.643   5.567  2.1608  2.3835 -0.5061
   93SAPE  C314 9232   5.329   1.839   5.486  0.6218  0.0965 -0.4102
   93SAPE  H14X 9233   5.433   1.878   5.486  0.2865  0.9927 -0.7199
   93SAPE  H14Y 9234   5.266   1.920   5.527  1.6503  1.2311 -1.0288
   93SAPE  C315 9235   5.291   1.792   5.341  0.6381 -0.9868  0.0781
   93SAPE  H15X 9236   5.349   1.703   5.308  2.7253  0.6001 -0.7826
   93SAPE  H15Y 9237   5.333   1.870   5.274 -1.6638 -1.1735 -1.6907
   93SAPE  C316 9238   5.141   1.786   5.322  0.0479  0.4604 -0.0883
   93SAPE  H16X 9239   5.088   1.881   5.342  0.1951  0.7599 -1.0704
   93SAPE  H16Y 9240   5.101   1.703   5.385 -2.6558  0.0962 -2.1098
   93SAPE  C317 9241   5.085   1.746   5.184  0.3819 -0.3626  0.4325
   93SAPE  H17X 9242   4.974   1.746   5.193  0.1674 -2.9230 -1.0474
   93SAPE  H17Y 9243   5.131   1.647   5.164  1.7350  0.6059 -1.7498
   93SAPE  C318 9244   5.123   1.839   5.067 -0.2984  0.0682  0.6246
   93SAPE  H18X 9245   5.072   1.938   5.065 -1.6497 -0.6259 -0.3480
   93SAPE  H18Y 9246   5.073   1.785   4.984 -3.1123 -0.4838  2.5245
   93SAPE  H18Z 9247   5.233   1.854   5.074 -0.7025  3.7284  1.4382
   94SAPE     N 9248   2.558   3.284   7.236  0.1177 -0.3737 -0.8612
   94SAPE   HN1 9249   2.584   3.381   7.265  1.3119 -1.0839  0.5658
   94SAPE   HN2 9250   2.473   3.258   7.289  0.0713 -0.0368 -0.7662
   94SAPE   HN3 9251   2.631   3.218   7.269 -0.5093 -1.0002 -0.7079
   94SAPE   C12 9252   2.536   3.269   7.084  0.5747  0.0332 -1.3001
   94SAPE  H12A 9253   2.437   3.312   7.061 -0.9130 -0.6817  2.8783
   94SAPE  H12B 9254   2.533   3.159   7.067 -1.4957 -0.2402  0.4562
   94SAPE   C11 9255   2.653   3.348   7.011 -0.6368  0.2282 -0.1872
   94SAPE  H11A 9256   2.646   3.336   6.901 -1.3649 -1.4900  0.0218
   94SAPE  H11B 9257   2.756   3.317   7.040 -0.1180  0.0253 -2.1515
   94SAPE     P 9258   2.577   3.602   6.965  0.1514 -0.1596  0.4966
   94SAPE   O13 9259   2.480   3.680   7.040  0.6073 -0.1895  0.1696
   94SAPE   O14 9260   2.689   3.673   6.898  0.1420  0.2468 -0.3752
   94SAPE   O12 9261   2.634   3.481   7.052 -0.2246 -0.2155  0.0809
   94SAPE   O11 9262   2.500   3.512   6.859  0.9566 -0.5645  0.3822
   94SAPE    C1 9263   2.381   3.559   6.795 -1.0599  0.3084 -0.1141
   94SAPE    HA 9264   2.287   3.563   6.854 -1.0048  0.6715 -0.0536
   94SAPE    HB 9265   2.391   3.661   6.753  0.9267 -0.1992 -1.0230
   94SAPE    C2 9266   2.340   3.459   6.684 -0.5743 -1.1936 -0.3592
   94SAPE    HS 9267   2.285   3.366   6.710  1.1817 -1.9520  0.8650
   94SAPE   O21 9268   2.465   3.425   6.607 -0.0542  0.5246  0.2307
   94SAPE   C21 9269   2.513   3.300   6.644  0.4321  0.7602  0.3889
   94SAPE   O22 9270   2.464   3.234   6.738 -0.1169 -0.1651  0.3307
   94SAPE   C22 9271   2.634   3.263   6.560  0.4374 -0.7887 -0.4492
   94SAPE   H2R 9272   2.667   3.353   6.505 -2.4104  0.1290 -0.8529
   94SAPE   H2S 9273   2.711   3.219   6.627  0.2365 -1.2235 -0.4992
   94SAPE    C3 9274   2.243   3.532   6.578  0.4946 -0.5447 -0.8482
   94SAPE    HX 9275   2.291   3.612   6.518 -2.1179  1.5515 -0.3271
   94SAPE    HY 9276   2.174   3.588   6.644  0.6835 -3.4951  2.1428
   94SAPE   O31 9277   2.170   3.439   6.494 -0.3728  0.3160 -0.0848
   94SAPE   C31 9278   2.121   3.507   6.389 -0.2308 -0.3733  0.2455
   94SAPE   O32 9279   2.125   3.626   6.370  0.2135  0.5105  0.3705
   94SAPE   C32 9280   2.064   3.411   6.290 -0.1067  0.0582 -0.5962
   94SAPE   H2X 9281   2.009   3.477   6.220 -1.0852  0.7163  0.7513
   94SAPE   H2Y 9282   1.993   3.349   6.349  0.9559  0.6487  1.3785
   94SAPE   C23 9283   2.610   3.159   6.452  0.1038  0.1790  1.1853
   94SAPE   H3R 9284   2.566   3.067   6.495 -0.3584  0.8425  2.1498
   94SAPE   H3S 9285   2.709   3.121   6.417 -1.4291 -0.2342 -3.3859
   94SAPE   C24 9286   2.519   3.212   6.331 -0.4619  0.4777 -0.3836
   94SAPE   H4R 9287   2.444   3.276   6.383 -1.0620  0.1008 -0.7677
   94SAPE   H4S 9288   2.481   3.124   6.275 -0.1112  2.0177 -3.2169
   94SAPE   C25 9289   2.584   3.296   6.229  0.1246 -0.3016 -0.8963
   94SAPE   H5R 9290   2.625   3.391   6.267  1.9245 -1.9985  1.7281
   94SAPE   C26 9291   2.617   3.261   6.107 -0.5409  0.6564  0.6916
   94SAPE   H6R 9292   2.665   3.339   6.046 -0.6212 -0.3173 -0.6770
   94SAPE   C27 9293   2.582   3.137   6.028  0.8580 -0.3938  0.2523
   94SAPE   H7R 9294   2.511   3.163   5.946  0.8280 -2.8250 -0.5878
   94SAPE   H7S 9295   2.520   3.070   6.091 -0.3181 -0.4477 -0.9105
   94SAPE   C28 9296   2.700   3.064   5.968  0.7690  0.2980  0.7712
   94SAPE   H8R 9297   2.774   3.022   6.038  0.5186 -0.4391  0.5975
   94SAPE   C29 9298   2.720   3.043   5.839  0.0358  0.3433 -0.5076
   94SAPE   H9R 9299   2.814   2.991   5.814 -1.6185 -2.1964 -1.8873
   94SAPE  C210 9300   2.642   3.075   5.715 -0.8265 -0.0617  0.7641
   94SAPE  H10R 9301   2.537   3.091   5.747 -0.8877  1.1972  0.0207
   94SAPE  H10S 9302   2.645   2.986   5.649 -1.5315 -0.3169  1.0762
   94SAPE  C211 9303   2.696   3.193   5.632  0.7163 -0.2890 -0.0695
   94SAPE  H11R 9304   2.678   3.293   5.675 -0.7502 -0.4774 -0.1897
   94SAPE  C212 9305   2.758   3.190   5.511  0.0230  0.8818 -0.7846
   94SAPE  H12R 9306   2.798   3.285   5.474  0.2261  0.7452 -0.9208
   94SAPE  C213 9307   2.805   3.069   5.435 -0.3998  0.2857 -0.1060
   94SAPE  H13R 9308   2.773   2.976   5.485 -1.9923  1.9535  2.1983
   94SAPE  H13S 9309   2.916   3.065   5.429 -0.4286 -3.7300 -0.5580
   94SAPE  C214 9310   2.748   3.067   5.293  0.3601  0.1130  0.3238
   94SAPE  H14R 9311   2.660   3.003   5.280  2.0742 -2.1006 -1.2293
   94SAPE  C215 9312   2.799   3.132   5.192 -0.3854 -0.3408  0.1743
   94SAPE  H15R 9313   2.733   3.131   5.104 -1.4420  1.5005  0.8739
   94SAPE  C216 9314   2.934   3.218   5.183  0.8157  0.2498  0.8228
   94SAPE  H16R 9315   3.017   3.162   5.233  0.8613 -0.5820 -0.1432
   94SAPE  H16S 9316   2.925   3.314   5.237 -0.8049  1.1423 -0.9408
   94SAPE  C217 9317   2.973   3.258   5.045 -0.8479 -0.7798  0.3717
   94SAPE  H17R 9318   3.031   3.351   5.064 -0.8764 -0.2999 -1.6381
   94SAPE  H17S 9319   2.886   3.303   4.992 -0.2809  1.0696  0.9342
   94SAPE  C218 9320   3.049   3.162   4.956  0.1832  0.0992  0.5525
   94SAPE  H18R 9321   2.973   3.088   4.921  0.9258 -1.3960  1.9539
   94SAPE  H18S 9322   3.125   3.098   5.005 -1.5345 -3.7604 -1.3369
   94SAPE  C219 9323   3.113   3.235   4.832  0.5442 -0.1036 -0.4926
   94SAPE  H19R 9324   3.038   3.300   4.782  0.0464  0.0052  0.3889
   94SAPE  H19S 9325   3.144   3.160   4.756 -1.3050  0.6510 -2.0929
   94SAPE  C220 9326   3.229   3.326   4.888  0.0473  0.1302  0.6217
   94SAPE  H20R 9327   3.288   3.359   4.799  1.7595 -1.5022  1.0925
   94SAPE  H20S 9328   3.290   3.258   4.951  0.0976  1.3947  1.9874
   94SAPE  H20T 9329   3.196   3.409   4.955  3.2375  0.0450  2.5062
   94SAPE   C33 9330   2.175   3.335   6.212  0.0726  0.3335  0.1275
   94SAPE   H3X 9331   2.238   3.264   6.269  0.3579  1.1226  0.8331
   94SAPE   H3Y 9332   2.247   3.407   6.168 -1.4834  1.9484  0.1045
   94SAPE   C34 9333   2.110   3.248   6.112  0.1568 -0.6267  0.1793
   94SAPE   H4X 9334   2.043   3.319   6.057  1.0928 -0.4019 -0.7074
   94SAPE   H4Y 9335   2.050   3.174   6.170  1.3894 -1.6329  0.1982
   94SAPE   C35 9336   2.216   3.187   6.016 -0.2374  0.9590 -0.0884
   94SAPE   H5X 9337   2.264   3.099   6.063 -0.6940  0.2423 -0.9318
   94SAPE   H5Y 9338   2.280   3.266   5.971  0.9264 -0.2250 -0.5629
   94SAPE   C36 9339   2.156   3.132   5.886  0.5068  0.5352 -0.4959
   94SAPE   H6X 9340   2.114   3.207   5.817  2.5326  0.0569 -2.3368
   94SAPE   H6Y 9341   2.074   3.067   5.925  0.9120  0.4346  0.2074
   94SAPE   C37 9342   2.257   3.062   5.792 -0.4108  0.2795 -0.3525
   94SAPE   H7X 9343   2.313   2.991   5.857  0.2466  0.0307 -1.1767
   94SAPE   H7Y 9344   2.339   3.130   5.762  0.7658 -1.9195 -2.4145
   94SAPE   C38 9345   2.189   3.007   5.667  0.2138 -0.2741 -0.3321
   94SAPE   H8X 9346   2.133   3.092   5.623 -2.1319 -0.9875  1.0899
   94SAPE   H8Y 9347   2.105   2.937   5.687 -0.1542  0.2913  0.1431
   94SAPE   C39 9348   2.290   2.941   5.567 -0.0916  0.3306 -0.1038
   94SAPE   H9X 9349   2.321   2.842   5.605 -1.5271 -0.1656 -0.1642
   94SAPE   H9Y 9350   2.381   3.003   5.553 -0.5340  1.3764  1.4177
   94SAPE  C310 9351   2.236   2.928   5.423 -0.8293 -0.2273  0.2894
   94SAPE  H10X 9352   2.165   3.012   5.408 -0.2759  0.2114  0.1197
   94SAPE  H10Y 9353   2.171   2.838   5.416 -1.8337  0.4604  0.6325
   94SAPE  C311 9354   2.339   2.922   5.311 -0.3374 -0.0190 -0.4366
   94SAPE  H11X 9355   2.397   2.828   5.320 -2.1844 -1.2140 -0.5381
   94SAPE  H11Y 9356   2.404   3.012   5.313  0.7892 -0.8249 -0.2306
   94SAPE  C312 9357   2.264   2.915   5.174 -0.0522 -0.9047  1.1181
   94SAPE  H12X 9358   2.197   3.003   5.180  1.4205  0.2830  0.9753
   94SAPE  H12Y 9359   2.206   2.821   5.163  0.8793 -1.2868 -1.2072
   94SAPE  C313 9360   2.363   2.925   5.056  0.1739 -0.2970  0.7244
   94SAPE  H13X 9361   2.425   3.016   5.067 -0.3679  0.1756 -0.0753
   94SAPE  H13Y 9362   2.322   2.912   4.954  0.2375 -7.1108  1.0710
   94SAPE  C314 9363   2.472   2.810   5.062 -0.4469  0.4031 -0.0049
   94SAPE  H14X 9364   2.415   2.715   5.053  1.6861 -1.0170  0.5804
   94SAPE  H14Y 9365   2.523   2.805   5.161  0.8232 -0.4295 -0.6785
   94SAPE  C315 9366   2.568   2.820   4.945  0.4576  0.3912 -0.3550
   94SAPE  H15X 9367   2.576   2.926   4.912  0.0039  0.4455 -0.3031
   94SAPE  H15Y 9368   2.507   2.779   4.861  0.4212  1.8315 -1.0785
   94SAPE  C316 9369   2.702   2.740   4.949  0.2604 -0.1897 -0.6315
   94SAPE  H16X 9370   2.731   2.728   4.843 -1.7120 -1.6357 -1.0696
   94SAPE  H16Y 9371   2.699   2.639   4.995  0.6756 -0.5111 -1.3070
   94SAPE  C317 9372   2.810   2.820   5.023 -0.2564 -0.4799  0.0538
   94SAPE  H17X 9373   2.779   2.833   5.128 -0.3931  0.9793 -0.1365
   94SAPE  H17Y 9374   2.818   2.918   4.971  1.4800 -0.7281 -0.2209
   94SAPE  C318 9375   2.956   2.775   5.032 -0.2569  0.4450  0.3852
   94SAPE  H18X 9376   2.965   2.673   5.075  0.9314 -0.4096 -1.7494
   94SAPE  H18Y 9377   3.017   2.852   5.084  2.7587 -0.7685 -1.1028
   94SAPE  H18Z 9378   2.989   2.770   4.927  0.6184  0.7887  0.6361
   95SAPE     N 9379   4.433   1.502   7.664 -0.2956  0.1204  0.6988
   95SAPE   HN1 9380   4.414   1.465   7.759 -0.1201 -0.5349  0.4862
   95SAPE   HN2 9381   4.374   1.463   7.587  1.6422 -0.3822 -0.6251
   95SAPE   HN3 9382   4.527   1.474   7.626 -0.1952  2.1270 -0.6773
   95SAPE   C12 9383   4.426   1.655   7.658 -0.2034  0.7791 -0.5227
   95SAPE  H12A 9384   4.409   1.688   7.763 -2.6409  1.6984 -1.1506
   95SAPE  H12B 9385   4.328   1.687   7.617 -0.1078  2.7645  0.6945
   95SAPE   C11 9386   4.545   1.719   7.585 -0.9863 -0.0237  0.2106
   95SAPE  H11A 9387   4.563   1.662   7.492 -2.0386 -0.2461  0.1282
   95SAPE  H11B 9388   4.638   1.715   7.646  0.4700 -0.5452 -1.9517
   95SAPE     P 9389   4.593   1.937   7.459 -0.0540  0.0633  0.2921
   95SAPE   O13 9390   4.511   2.051   7.418  0.1230 -0.0106 -0.1939
   95SAPE   O14 9391   4.729   1.965   7.511  0.1808 -0.3094 -0.2101
   95SAPE   O12 9392   4.509   1.856   7.563  0.5968 -0.1027  0.0002
   95SAPE   O11 9393   4.602   1.831   7.339 -0.0612 -0.7590  0.7859
   95SAPE    C1 9394   4.484   1.786   7.267  0.9915 -0.0087 -0.0464
   95SAPE    HA 9395   4.492   1.675   7.262  2.2166 -0.0669  2.0591
   95SAPE    HB 9396   4.394   1.812   7.326  0.8005 -1.7000  0.4616
   95SAPE    C2 9397   4.484   1.848   7.123  0.7113  0.1377 -0.4648
   95SAPE    HS 9398   4.433   1.779   7.052 -1.6960  0.8416  0.4741
   95SAPE   O21 9399   4.611   1.871   7.069  0.2673  0.6129 -0.0186
   95SAPE   C21 9400   4.679   1.757   7.043 -0.1725 -0.6823 -0.4507
   95SAPE   O22 9401   4.646   1.643   7.053 -0.7127 -0.7067  0.2669
   95SAPE   C22 9402   4.818   1.799   6.973  0.4375  0.1611  0.2502
   95SAPE   H2R 9403   4.772   1.834   6.878  0.8646 -0.0150 -0.0295
   95SAPE   H2S 9404   4.864   1.880   7.033  1.8378  0.2697 -0.8889
   95SAPE    C3 9405   4.402   1.983   7.125 -0.2050  0.5353  0.3875
   95SAPE    HX 9406   4.439   2.062   7.194 -1.7063  1.4850  0.1666
   95SAPE    HY 9407   4.302   1.954   7.166  0.7778 -0.1936  2.3978
   95SAPE   O31 9408   4.390   2.060   7.000 -0.3983  0.3806  0.1550
   95SAPE   C31 9409   4.317   1.998   6.907  0.0740 -0.1496  0.5444
   95SAPE   O32 9410   4.265   1.892   6.926 -0.4487 -0.4383  0.1862
   95SAPE   C32 9411   4.304   2.080   6.785  0.2339 -0.2124  0.6772
   95SAPE   H2X 9412   4.285   2.188   6.803 -1.1181 -0.4471  0.7656
   95SAPE   H2Y 9413   4.209   2.032   6.756  0.5313 -2.4451  3.0374
   95SAPE   C23 9414   4.920   1.683   6.936  0.0323  0.2671  0.5743
   95SAPE   H3R 9415   4.865   1.587   6.924 -0.8885  0.6102  1.8144
   95SAPE   H3S 9416   4.995   1.663   7.015 -1.1095 -0.0238  1.6259
   95SAPE   C24 9417   4.984   1.708   6.798  0.1200 -0.2575  0.1861
   95SAPE   H4R 9418   4.899   1.722   6.728  1.5278  1.7620 -1.2560
   95SAPE   H4S 9419   5.036   1.613   6.775  0.5730 -0.0432  0.3056
   95SAPE   C25 9420   5.069   1.831   6.820 -0.6431 -0.8240  0.5648
   95SAPE   H5R 9421   5.126   1.829   6.914 -1.8603  0.3277  1.3615
   95SAPE   C26 9422   5.078   1.935   6.742  1.1021  0.2905  0.2104
   95SAPE   H6R 9423   5.128   2.025   6.780 -1.0881  1.2757  0.9464
   95SAPE   C27 9424   5.002   1.953   6.618  0.4203 -0.5658  0.2060
   95SAPE   H7R 9425   4.995   1.857   6.561 -1.1437 -0.5672  0.3372
   95SAPE   H7S 9426   5.058   2.027   6.557 -0.5174  0.8430  1.0126
   95SAPE   C28 9427   4.861   1.995   6.638 -0.1827  0.3154 -0.4997
   95SAPE   H8R 9428   4.788   1.913   6.636  1.9107 -1.7257  1.4387
   95SAPE   C29 9429   4.811   2.119   6.635  0.1584 -0.1353  0.5136
   95SAPE   H9R 9430   4.706   2.143   6.656 -0.4281 -1.7875 -0.3429
   95SAPE  C210 9431   4.892   2.246   6.612 -0.2977 -0.2049 -0.7579
   95SAPE  H10R 9432   4.837   2.300   6.533 -2.2222 -1.9428 -0.7084
   95SAPE  H10S 9433   4.995   2.230   6.572 -1.1571 -0.0601 -3.1943
   95SAPE  C211 9434   4.894   2.335   6.733  0.8179  0.2152  0.2809
   95SAPE  H11R 9435   4.883   2.278   6.827  1.6002 -2.0359 -0.9124
   95SAPE  C212 9436   4.920   2.462   6.738  0.6907 -0.6219 -0.4395
   95SAPE  H12R 9437   4.927   2.516   6.834 -1.6816  1.9452 -1.5605
   95SAPE  C213 9438   4.958   2.552   6.624  0.5454 -0.1026  0.1025
   95SAPE  H13R 9439   5.017   2.500   6.545  1.4644  2.5976 -1.1528
   95SAPE  H13S 9440   5.021   2.630   6.672  1.7734 -0.5641 -0.7022
   95SAPE  C214 9441   4.828   2.622   6.582  0.6276 -0.2719 -0.4181
   95SAPE  H14R 9442   4.757   2.642   6.664  0.2146  1.2894 -1.1090
   95SAPE  C215 9443   4.801   2.655   6.454  0.1191 -0.5837  0.6889
   95SAPE  H15R 9444   4.705   2.701   6.426 -0.1255 -0.0851  2.2426
   95SAPE  C216 9445   4.908   2.632   6.347 -0.0633 -0.0647  0.6300
   95SAPE  H16R 9446   5.009   2.593   6.374 -0.2236 -0.1336  1.1462
   95SAPE  H16S 9447   4.950   2.728   6.308  2.0299 -0.6850  1.2272
   95SAPE  C217 9448   4.858   2.547   6.224  0.1717 -0.1557 -0.2210
   95SAPE  H17R 9449   4.815   2.452   6.262 -2.8084  1.2513  0.2218
   95SAPE  H17S 9450   4.939   2.515   6.157 -1.3004 -2.4915 -1.0084
   95SAPE  C218 9451   4.759   2.620   6.139 -0.0238 -0.4395 -0.2979
   95SAPE  H18R 9452   4.789   2.723   6.111  3.8383 -1.1010  0.9073
   95SAPE  H18S 9453   4.661   2.626   6.192  0.1892  1.7237 -0.0286
   95SAPE  C219 9454   4.737   2.543   6.007 -0.2135 -1.0158  0.1486
   95SAPE  H19R 9455   4.636   2.567   5.968  0.9199  2.4955 -1.0308
   95SAPE  H19S 9456   4.745   2.435   6.031  0.0090 -0.7379  1.4060
   95SAPE  C220 9457   4.841   2.592   5.903  0.0936 -0.8032 -0.3321
   95SAPE  H20R 9458   4.817   2.697   5.875 -2.2580 -1.4993 -1.1183
   95SAPE  H20S 9459   4.831   2.547   5.802 -2.4444 -0.9289 -0.0775
   95SAPE  H20T 9460   4.946   2.573   5.936  0.5001  0.0364 -1.0560
   95SAPE   C33 9461   4.416   2.045   6.680 -0.4938 -0.2609 -0.5259
   95SAPE   H3X 9462   4.471   1.951   6.702  0.2869  0.3451  0.1478
   95SAPE   H3Y 9463   4.501   2.115   6.696  0.4729 -1.6817  0.8059
   95SAPE   C34 9464   4.373   2.045   6.532 -0.0940  0.9831  0.1387
   95SAPE   H4X 9465   4.462   2.041   6.464  0.6276 -0.2561  1.1036
   95SAPE   H4Y 9466   4.332   2.146   6.515 -0.8520  0.6393 -0.1019
   95SAPE   C35 9467   4.264   1.939   6.495  0.0831  0.3989  0.0542
   95SAPE   H5X 9468   4.164   1.975   6.526  1.1398  2.4498  1.3199
   95SAPE   H5Y 9469   4.288   1.854   6.563 -2.2837 -0.3256  0.0734
   95SAPE   C36 9470   4.262   1.914   6.345 -0.3335 -0.3491  0.2543
   95SAPE   H6X 9471   4.301   2.003   6.291 -0.7181 -1.5381 -2.0944
   95SAPE   H6Y 9472   4.156   1.908   6.310 -0.0246 -0.0968 -0.7516
   95SAPE   C37 9473   4.341   1.796   6.292  0.2619 -0.6179 -0.3278
   95SAPE   H7X 9474   4.292   1.705   6.333 -1.1948  0.4299  0.3461
   95SAPE   H7Y 9475   4.441   1.800   6.340 -0.0572 -2.4409  0.5684
   95SAPE   C38 9476   4.349   1.787   6.144 -0.0079 -1.0721  0.2983
   95SAPE   H8X 9477   4.394   1.878   6.100  0.0393 -1.4683 -0.4883
   95SAPE   H8Y 9478   4.256   1.769   6.087  0.7275  1.0688 -1.7383
   95SAPE   C39 9479   4.432   1.668   6.089  0.2361  0.5229  0.0630
   95SAPE   H9X 9480   4.361   1.583   6.077  0.9639 -0.0546 -0.1976
   95SAPE   H9Y 9481   4.508   1.633   6.162 -0.4659 -2.2297 -0.4185
   95SAPE  C310 9482   4.502   1.701   5.963  0.3893  0.6269  0.0317
   95SAPE  H10X 9483   4.543   1.607   5.920  2.6157  0.5579  2.0981
   95SAPE  H10Y 9484   4.595   1.760   5.975  0.8483  0.0016 -0.3570
   95SAPE  C311 9485   4.412   1.765   5.855  0.2032  0.9561 -0.5691
   95SAPE  H11X 9486   4.381   1.866   5.888 -0.4491  0.6891 -0.3447
   95SAPE  H11Y 9487   4.316   1.708   5.849  0.6185 -0.5230  3.8077
   95SAPE  C312 9488   4.481   1.766   5.717  0.1136  0.2700  0.2260
   95SAPE  H12X 9489   4.511   1.662   5.694 -0.6081 -0.0485  0.6865
   95SAPE  H12Y 9490   4.573   1.827   5.728  0.1211  0.1726  0.7350
   95SAPE  C313 9491   4.402   1.833   5.596 -0.1712  0.2087  0.0430
   95SAPE  H13X 9492   4.477   1.810   5.517  1.1512 -0.2749  1.3882
   95SAPE  H13Y 9493   4.396   1.942   5.617  0.6255  0.6952 -1.9910
   95SAPE  C314 9494   4.270   1.765   5.572  0.2348 -0.2036  0.0508
   95SAPE  H14X 9495   4.209   1.775   5.665 -0.3366  0.3556 -0.3797
   95SAPE  H14Y 9496   4.267   1.656   5.551 -2.2987 -0.7457  2.5469
   95SAPE  C315 9497   4.200   1.838   5.453  0.1399 -0.5259 -0.1710
   95SAPE  H15X 9498   4.256   1.818   5.360  1.4908 -1.1990  0.7498
   95SAPE  H15Y 9499   4.203   1.948   5.468  2.7644 -0.6142  0.5157
   95SAPE  C316 9500   4.062   1.786   5.438 -0.2840  0.0135 -1.1545
   95SAPE  H16X 9501   3.996   1.811   5.524  3.7117  2.4209  1.5169
   95SAPE  H16Y 9502   4.073   1.676   5.426 -0.5354 -0.3372  1.4121
   95SAPE  C317 9503   3.991   1.853   5.311  0.2387 -0.0463  0.0363
   95SAPE  H17X 9504   3.912   1.781   5.280 -0.8571  1.4388 -0.6992
   95SAPE  H17Y 9505   4.067   1.853   5.231  1.1189  1.8417  0.8120
   95SAPE  C318 9506   3.915   1.986   5.333 -0.3921 -0.6113  0.1434
   95SAPE  H18X 9507   3.837   1.987   5.413 -1.8083 -0.4664 -1.2059
   95SAPE  H18Y 9508   3.869   2.022   5.239  0.8856  0.2903 -0.1690
   95SAPE  H18Z 9509   3.983   2.065   5.372 -0.8618 -1.1543  2.1973
   96SAPE     N 9510   0.775   5.373   6.973  0.3775 -0.2038 -0.4254
   96SAPE   HN1 9511   0.838   5.358   7.054 -1.7482 -1.0155  1.1655
   96SAPE   HN2 9512   0.680   5.341   6.998  0.8114 -2.3637 -1.3087
   96SAPE   HN3 9513   0.792   5.306   6.895 -1.1355 -0.4755 -0.5517
   96SAPE   C12 9514   0.769   5.511   6.915  0.0604 -0.4174 -0.1852
   96SAPE  H12A 9515   0.877   5.537   6.925  0.0248 -0.5255  0.5427
   96SAPE  H12B 9516   0.704   5.567   6.985 -2.0312 -0.0883 -2.2687
   96SAPE   C11 9517   0.720   5.532   6.772 -0.5900  0.3955 -1.3393
   96SAPE  H11A 9518   0.807   5.501   6.710  0.1755 -2.7090  1.0396
   96SAPE  H11B 9519   0.705   5.642   6.759  0.4885  0.4550 -2.3279
   96SAPE     P 9520   0.469   5.513   6.729  0.2587  0.2741  0.2387
   96SAPE   O13 9521   0.377   5.406   6.699 -0.4661  0.5461 -0.6900
   96SAPE   O14 9522   0.434   5.613   6.834  0.1087 -0.0586 -0.4042
   96SAPE   O12 9523   0.608   5.456   6.744  0.9606  0.1300  0.3960
   96SAPE   O11 9524   0.499   5.597   6.597  0.0291 -0.0962 -0.0119
   96SAPE    C1 9525   0.555   5.516   6.488  1.0643  0.2754 -0.1832
   96SAPE    HA 9526   0.657   5.551   6.463  1.8230  0.0258  2.2884
   96SAPE    HB 9527   0.551   5.406   6.504 -1.7125  0.3567  0.2560
   96SAPE    C2 9528   0.472   5.549   6.358 -0.4029  1.3183  0.0978
   96SAPE    HS 9529   0.521   5.633   6.303 -1.6026  1.0667 -1.4243
   96SAPE   O21 9530   0.333   5.569   6.388 -0.0544 -0.5060 -0.4372
   96SAPE   C21 9531   0.300   5.689   6.422  0.6867  0.2183 -0.2717
   96SAPE   O22 9532   0.376   5.782   6.448 -0.0536  0.1782  0.1183
   96SAPE   C22 9533   0.157   5.702   6.443 -0.3456  0.4254  0.5411
   96SAPE   H2R 9534   0.102   5.607   6.425 -2.5310  1.7981 -0.5105
   96SAPE   H2S 9535   0.148   5.726   6.551 -1.1093 -1.4647  0.9332
   96SAPE    C3 9536   0.473   5.428   6.265 -0.0215  0.1751  0.2304
   96SAPE    HX 9537   0.408   5.351   6.313 -2.2627  1.2939 -0.8737
   96SAPE    HY 9538   0.577   5.392   6.248 -0.7421 -1.3866 -1.2085
   96SAPE   O31 9539   0.408   5.465   6.143  0.4494  0.2291  0.1361
   96SAPE   C31 9540   0.401   5.372   6.041  0.8397  0.1206 -0.0370
   96SAPE   O32 9541   0.453   5.265   6.047  0.2842 -0.1272 -0.3061
   96SAPE   C32 9542   0.293   5.414   5.941 -0.3071  0.7247  0.0024
   96SAPE   H2X 9543   0.289   5.525   5.944  1.3177  0.7781  2.2373
   96SAPE   H2Y 9544   0.200   5.366   5.979  0.6901 -0.8842  0.4763
   96SAPE   C23 9545   0.089   5.807   6.351  0.7475  0.4991 -0.7662
   96SAPE   H3R 9546   0.137   5.906   6.365 -0.4233  0.7438  2.5754
   96SAPE   H3S 9547  -0.006   5.839   6.400  2.0861  3.0177  0.4122
   96SAPE   C24 9548   0.075   5.771   6.205  0.7017  0.3139  0.3355
   96SAPE   H4R 9549   0.179   5.771   6.165 -0.5796  1.6689 -3.5035
   96SAPE   H4S 9550   0.035   5.863   6.158  0.6295  0.1782  0.1266
   96SAPE   C25 9551   0.001   5.635   6.176 -0.2534 -0.5317 -0.0986
   96SAPE   H5R 9552  -0.046   5.591   6.265 -1.0468 -1.8445 -1.1313
   96SAPE   C26 9553  -0.038   5.593   6.051  0.5617  0.9656 -1.1349
   96SAPE   H6R 9554  -0.081   5.492   6.045  0.5999  1.0206 -2.5417
   96SAPE   C27 9555   0.004   5.653   5.925 -0.4512 -0.3482  0.3978
   96SAPE   H7R 9556   0.060   5.573   5.872  0.4999  0.9314 -0.6224
   96SAPE   H7S 9557   0.069   5.741   5.947 -0.2917 -0.0708 -1.0643
   96SAPE   C28 9558  -0.117   5.712   5.852 -0.0896  0.8822  0.1798
   96SAPE   H8R 9559  -0.197   5.742   5.921  1.2371  1.7359  1.3985
   96SAPE   C29 9560  -0.107   5.748   5.723 -0.5427 -0.1300 -0.2508
   96SAPE   H9R 9561  -0.196   5.792   5.676 -0.6633  0.3902  0.4525
   96SAPE  C210 9562   0.004   5.733   5.630 -0.8058 -0.3664  0.3434
   96SAPE  H10R 9563  -0.029   5.675   5.542 -2.5530  1.9536 -0.6525
   96SAPE  H10S 9564   0.086   5.684   5.686 -0.7887  0.1116  0.7418
   96SAPE  C211 9565   0.052   5.872   5.580 -0.2894 -0.3202  0.7313
   96SAPE  H11R 9566  -0.026   5.949   5.587  1.4343  1.4872  0.9185
   96SAPE  C212 9567   0.168   5.898   5.519  0.9807  0.2150 -0.0417
   96SAPE  H12R 9568   0.180   6.004   5.495 -1.3848  0.2429 -1.3945
   96SAPE  C213 9569   0.276   5.793   5.495 -0.2701  0.1483 -0.1084
   96SAPE  H13R 9570   0.254   5.740   5.400  0.4677  1.9740 -1.3686
   96SAPE  H13S 9571   0.272   5.719   5.578  0.0429  0.7096  0.4123
   96SAPE  C214 9572   0.420   5.849   5.473  0.7829 -0.2421 -0.3766
   96SAPE  H14R 9573   0.473   5.867   5.568 -0.4024 -1.5106  0.5541
   96SAPE  C215 9574   0.489   5.871   5.361  0.2150  0.2662 -0.6550
   96SAPE  H15R 9575   0.584   5.925   5.368  0.1797  0.1537  1.1743
   96SAPE  C216 9576   0.444   5.854   5.216  0.2589 -0.6517 -0.0124
   96SAPE  H16R 9577   0.334   5.842   5.206 -0.0179  1.6974 -0.3252
   96SAPE  H16S 9578   0.487   5.758   5.180 -0.5746 -1.1877  0.3984
   96SAPE  C217 9579   0.488   5.979   5.140 -0.4103  0.3709 -0.0446
   96SAPE  H17R 9580   0.473   5.960   5.031  1.2087  0.2887 -0.2798
   96SAPE  H17S 9581   0.597   6.001   5.141 -0.2296 -0.3040 -1.7311
   96SAPE  C218 9582   0.414   6.106   5.166 -0.0222 -0.2981  1.1737
   96SAPE  H18R 9583   0.448   6.190   5.101 -3.1097  0.4041  0.3272
   96SAPE  H18S 9584   0.449   6.151   5.262  1.4912 -0.3047  0.6530
   96SAPE  C219 9585   0.256   6.098   5.148 -0.1023  0.3049  0.0782
   96SAPE  H19R 9586   0.229   6.035   5.236 -0.5804  0.8847  0.3559
   96SAPE  H19S 9587   0.224   6.050   5.053  0.6949  0.9675 -0.5349
   96SAPE  C220 9588   0.173   6.229   5.163 -0.9411  0.3773 -0.4448
   96SAPE  H20R 9589   0.063   6.213   5.168 -0.9157  0.4725  0.6919
   96SAPE  H20S 9590   0.187   6.314   5.092 -3.1650  0.5160 -0.7984
   96SAPE  H20T 9591   0.216   6.258   5.261 -0.1171 -0.7534 -0.4451
   96SAPE   C33 9592   0.331   5.373   5.797 -0.5209  0.9774 -0.3488
   96SAPE   H3X 9593   0.332   5.262   5.793  1.4536  0.8690  1.5656
   96SAPE   H3Y 9594   0.431   5.409   5.766  0.4058 -2.0006 -1.0757
   96SAPE   C34 9595   0.234   5.426   5.694 -0.4997  0.4206 -0.6107
   96SAPE   H4X 9596   0.234   5.537   5.705 -1.3664  0.3228  0.6078
   96SAPE   H4Y 9597   0.134   5.382   5.716 -1.2055  0.6710 -3.0748
   96SAPE   C35 9598   0.281   5.407   5.548  0.2578  0.0161  0.5979
   96SAPE   H5X 9599   0.300   5.298   5.538 -0.4610 -0.2263  1.7721
   96SAPE   H5Y 9600   0.364   5.477   5.523 -0.2289  0.4122  0.0519
   96SAPE   C36 9601   0.162   5.442   5.454 -0.0498 -0.2839  0.2629
   96SAPE   H6X 9602   0.125   5.545   5.469  1.2836  0.3276 -0.4455
   96SAPE   H6Y 9603   0.080   5.372   5.481 -0.0108  0.0279  1.2027
   96SAPE   C37 9604   0.205   5.425   5.306  0.3495  0.1878  0.8218
   96SAPE   H7X 9605   0.209   5.318   5.277  3.6330  0.6372 -0.9830
   96SAPE   H7Y 9606   0.304   5.477   5.300  0.0884  0.5382 -2.5124
   96SAPE   C38 9607   0.110   5.503   5.208  0.8004 -0.0008  0.6438
   96SAPE   H8X 9608   0.103   5.612   5.227  0.2110  0.3121 -1.2470
   96SAPE   H8Y 9609   0.010   5.455   5.199  0.5682  0.5055  0.4925
   96SAPE   C39 9610   0.168   5.492   5.065  0.2577  0.2565 -0.7706
   96SAPE   H9X 9611   0.157   5.386   5.034 -1.4408 -0.1975  1.1318
   96SAPE   H9Y 9612   0.273   5.522   5.085 -0.0415  0.0802  1.3116
   96SAPE  C310 9613   0.109   5.587   4.964  0.0355 -0.1617  0.0181
   96SAPE  H10X 9614  -0.001   5.573   4.971 -0.0677  0.2587 -0.6382
   96SAPE  H10Y 9615   0.154   5.559   4.866 -1.1239 -1.7318 -0.1002
   96SAPE  C311 9616   0.146   5.732   4.986 -0.7069 -0.5278  0.5139
   96SAPE  H11X 9617   0.256   5.745   4.985 -0.7799  1.6544 -3.9012
   96SAPE  H11Y 9618   0.111   5.777   5.082 -0.9165 -0.6544  0.4968
   96SAPE  C312 9619   0.091   5.821   4.872  0.2824  0.2166 -0.2848
   96SAPE  H12X 9620   0.079   5.927   4.902 -0.0699  0.4846 -1.3423
   96SAPE  H12Y 9621  -0.005   5.787   4.829  1.8338  0.0359 -3.9023
   96SAPE  C313 9622   0.186   5.829   4.755  0.6471 -0.8752  0.3087
   96SAPE  H13X 9623   0.203   5.729   4.711 -0.7955 -2.5550  3.2367
   96SAPE  H13Y 9624   0.277   5.877   4.798  0.0203 -0.3747  1.1054
   96SAPE  C314 9625   0.129   5.927   4.650 -0.8443 -0.0262  0.0810
   96SAPE  H14X 9626   0.214   5.973   4.595  0.2941  0.0810  1.8685
   96SAPE  H14Y 9627   0.086   6.014   4.704 -1.2820  1.3587 -2.3397
   96SAPE  C315 9628   0.020   5.864   4.556  0.2810 -0.0999  0.1327
   96SAPE  H15X 9629  -0.061   5.830   4.623  0.2045 -0.4778 -0.1447
   96SAPE  H15Y 9630   0.074   5.783   4.502  0.1834 -1.3617  1.8526
   96SAPE  C316 9631  -0.035   5.955   4.444 -0.6332 -0.6229 -0.3672
   96SAPE  H16X 9632   0.041   6.021   4.397 -0.0613 -0.1322  1.1872
   96SAPE  H16Y 9633  -0.104   6.023   4.498  0.3481  0.0939 -0.0002
   96SAPE  C317 9634  -0.119   5.878   4.335  0.1935 -0.2767 -0.5522
   96SAPE  H17X 9635  -0.056   5.817   4.266  1.2915 -0.0999  0.2748
   96SAPE  H17Y 9636  -0.157   5.961   4.272  2.6061  0.9440 -0.5102
   96SAPE  C318 9637  -0.230   5.795   4.400  0.4841 -0.0894  0.1370
   96SAPE  H18X 9638  -0.289   5.847   4.479  2.6251 -0.6018  2.1662
   96SAPE  H18Y 9639  -0.180   5.711   4.452 -0.7485  1.6059  4.5375
   96SAPE  H18Z 9640  -0.300   5.751   4.326  0.2858  2.3772 -1.2549
   97SAPE     N 9641   4.018   1.365   7.456  0.6090 -0.2102  0.4202
   97SAPE   HN1 9642   4.106   1.360   7.511 -0.7455 -1.3802  2.6252
   97SAPE   HN2 9643   4.024   1.443   7.387 -3.2136 -0.6134 -0.5855
   97SAPE   HN3 9644   3.940   1.396   7.517  0.3733  0.9094 -0.4059
   97SAPE   C12 9645   3.979   1.243   7.374  0.5803  0.2251 -0.2767
   97SAPE  H12A 9646   3.886   1.272   7.321 -0.3796 -0.1483  1.1312
   97SAPE  H12B 9647   3.949   1.164   7.447  0.4048 -0.1823 -0.7821
   97SAPE   C11 9648   4.098   1.200   7.292 -0.2271 -0.7362 -0.4640
   97SAPE  H11A 9649   4.142   1.284   7.234 -2.9306 -0.0104 -1.6279
   97SAPE  H11B 9650   4.067   1.118   7.224 -0.7903 -3.8349  3.2001
   97SAPE     P 9651   4.319   1.196   7.446  0.4303 -0.2964 -0.4034
   97SAPE   O13 9652   4.284   1.321   7.517 -0.1580  0.1127  0.0105
   97SAPE   O14 9653   4.380   1.080   7.530 -0.1793  0.1083  0.7288
   97SAPE   O12 9654   4.190   1.138   7.381 -0.0977  0.6191  0.4258
   97SAPE   O11 9655   4.408   1.230   7.321  0.7532  0.5541 -0.4299
   97SAPE    C1 9656   4.422   1.351   7.254  0.1597 -0.0083 -0.2756
   97SAPE    HA 9657   4.339   1.423   7.268 -1.5334 -1.6827 -1.3374
   97SAPE    HB 9658   4.500   1.408   7.310  1.6334 -1.7072 -0.5277
   97SAPE    C2 9659   4.458   1.331   7.105  0.0490  0.4011  0.6366
   97SAPE    HS 9660   4.492   1.428   7.063 -1.2681  1.0612  1.0453
   97SAPE   O21 9661   4.349   1.275   7.019  0.4404 -0.0015  0.0674
   97SAPE   C21 9662   4.249   1.363   7.011 -0.3374  0.3792  0.2530
   97SAPE   O22 9663   4.241   1.470   7.068 -0.0822  0.1203  0.4803
   97SAPE   C22 9664   4.155   1.309   6.902 -0.1688 -0.3518  0.3688
   97SAPE   H2R 9665   4.221   1.260   6.827  0.7098  0.5003  0.5604
   97SAPE   H2S 9666   4.075   1.244   6.943 -0.9811 -0.6170 -1.5475
   97SAPE    C3 9667   4.590   1.244   7.088  0.3495 -0.3710 -0.3729
   97SAPE    HX 9668   4.580   1.149   7.146  2.4351 -0.9041 -0.8225
   97SAPE    HY 9669   4.676   1.296   7.134 -0.2695 -1.4952  2.2585
   97SAPE   O31 9670   4.625   1.220   6.952 -0.4694 -0.1171  0.2560
   97SAPE   C31 9671   4.611   1.096   6.905 -0.2575 -0.4210 -0.8784
   97SAPE   O32 9672   4.598   0.994   6.968  0.2195 -0.4443  0.0490
   97SAPE   C32 9673   4.626   1.102   6.758 -0.8360  0.1106  0.2594
   97SAPE   H2X 9674   4.705   1.027   6.735  1.1434  1.1454  3.1977
   97SAPE   H2Y 9675   4.675   1.193   6.717  2.6189 -1.3867  0.7298
   97SAPE   C23 9676   4.074   1.429   6.841 -0.0564  0.1746 -0.2039
   97SAPE   H3R 9677   4.013   1.479   6.919 -1.4653 -1.3170 -0.2995
   97SAPE   H3S 9678   3.994   1.390   6.774  1.5798 -0.9805 -1.5695
   97SAPE   C24 9679   4.157   1.532   6.769 -0.6232 -0.5762  0.4090
   97SAPE   H4R 9680   4.250   1.544   6.829 -0.7917  0.1132  0.5438
   97SAPE   H4S 9681   4.119   1.636   6.758  0.1279 -0.0763  2.1899
   97SAPE   C25 9682   4.182   1.473   6.629  0.5115 -0.2355  1.1697
   97SAPE   H5R 9683   4.092   1.443   6.575  0.7027 -0.3861  0.9377
   97SAPE   C26 9684   4.306   1.449   6.575 -0.0727  0.4832 -0.5338
   97SAPE   H6R 9685   4.320   1.411   6.473  1.1343 -0.3762 -0.0752
   97SAPE   C27 9686   4.439   1.475   6.645  1.1373 -0.4228  0.2468
   97SAPE   H7R 9687   4.499   1.385   6.622  0.4918 -1.1680  1.4114
   97SAPE   H7S 9688   4.424   1.484   6.754  0.2360 -1.3383  0.2094
   97SAPE   C28 9689   4.507   1.601   6.594 -0.0543 -0.5840  0.6923
   97SAPE   H8R 9690   4.437   1.686   6.595  0.7775  0.2627 -2.4483
   97SAPE   C29 9691   4.637   1.611   6.562 -0.0646 -0.1422 -0.3242
   97SAPE   H9R 9692   4.677   1.704   6.518 -0.0601 -0.5448 -1.1890
   97SAPE  C210 9693   4.725   1.488   6.569 -0.2297 -0.1932 -0.1926
   97SAPE  H10R 9694   4.683   1.410   6.502 -2.0307  0.0224  0.6107
   97SAPE  H10S 9695   4.722   1.453   6.674 -0.5861  0.8660  0.1604
   97SAPE  C211 9696   4.862   1.517   6.518 -0.4537 -0.0872  0.2182
   97SAPE  H11R 9697   4.945   1.524   6.589 -0.6546  3.3847  0.2802
   97SAPE  C212 9698   4.898   1.531   6.390 -0.2859  0.0759  0.4370
   97SAPE  H12R 9699   5.005   1.552   6.375  0.3241 -2.0275  1.3839
   97SAPE  C213 9700   4.815   1.527   6.263 -0.4262  0.2481  0.0511
   97SAPE  H13R 9701   4.708   1.504   6.285 -0.0036  0.2551  2.3683
   97SAPE  H13S 9702   4.831   1.441   6.195 -2.2293  0.2953 -0.4942
   97SAPE  C214 9703   4.812   1.661   6.192  0.1549  0.7488  0.3733
   97SAPE  H14R 9704   4.759   1.742   6.243 -0.5545  0.4934  0.0661
   97SAPE  C215 9705   4.864   1.699   6.070  0.1132  0.5871 -0.0948
   97SAPE  H15R 9706   4.849   1.806   6.046  1.1719  0.9467  0.7563
   97SAPE  C216 9707   4.930   1.619   5.968  0.1297 -0.3691 -0.2893
   97SAPE  H16R 9708   4.914   1.514   6.000 -1.1544 -1.2697 -3.4344
   97SAPE  H16S 9709   5.038   1.642   5.974 -0.1358  0.5177  2.1111
   97SAPE  C217 9710   4.871   1.644   5.822 -0.1781 -0.1023  0.3325
   97SAPE  H17R 9711   4.763   1.621   5.821 -1.0670  3.4728 -0.0467
   97SAPE  H17S 9712   4.928   1.575   5.756 -2.2960 -0.8313 -0.8383
   97SAPE  C218 9713   4.897   1.789   5.773 -0.0139  0.1515  0.3314
   97SAPE  H18R 9714   5.007   1.805   5.784  0.2177 -2.0433  1.9414
   97SAPE  H18S 9715   4.841   1.867   5.828 -1.7622 -1.3449  0.7597
   97SAPE  C219 9716   4.868   1.801   5.622  0.1209 -0.5602 -0.6352
   97SAPE  H19R 9717   4.758   1.792   5.611  0.1471 -0.4883 -0.9550
   97SAPE  H19S 9718   4.914   1.714   5.569  3.6187  0.5201  0.3115
   97SAPE  C220 9719   4.916   1.931   5.555  0.8455 -0.3050  0.1209
   97SAPE  H20R 9720   4.887   1.931   5.447 -1.6875 -0.4787  0.7555
   97SAPE  H20S 9721   5.027   1.931   5.558  0.8407 -1.2935  2.9840
   97SAPE  H20T 9722   4.889   2.029   5.601  1.2006 -0.6619  1.1086
   97SAPE   C33 9723   4.498   1.053   6.688  0.2825  0.1270  0.7988
   97SAPE   H3X 9724   4.416   1.128   6.683  2.7298  2.9442 -0.4675
   97SAPE   H3Y 9725   4.456   0.971   6.750  0.5276  0.1689  1.0215
   97SAPE   C34 9726   4.520   1.002   6.540  0.1781 -0.0404 -0.3405
   97SAPE   H4X 9727   4.433   0.935   6.526  1.2413 -1.6337  0.4629
   97SAPE   H4Y 9728   4.620   0.954   6.533  1.7063  2.3074  2.8226
   97SAPE   C35 9729   4.532   1.123   6.436 -0.2439  1.0548 -0.8181
   97SAPE   H5X 9730   4.594   1.209   6.471 -1.3629  1.3366  0.5383
   97SAPE   H5Y 9731   4.428   1.162   6.431 -1.3949 -1.8723 -1.6356
   97SAPE   C36 9732   4.546   1.065   6.289  0.0304  0.0054 -0.5142
   97SAPE   H6X 9733   4.447   1.075   6.241 -1.3896  0.0329  2.2084
   97SAPE   H6Y 9734   4.568   0.956   6.291  2.6991  0.4378 -1.7770
   97SAPE   C37 9735   4.655   1.130   6.207  0.4432  0.1858  0.3719
   97SAPE   H7X 9736   4.759   1.110   6.242  0.3373  1.5143  1.5557
   97SAPE   H7Y 9737   4.650   1.239   6.226  2.6518  0.5438 -0.7566
   97SAPE   C38 9738   4.650   1.094   6.057  0.4869 -0.4028 -0.1322
   97SAPE   H8X 9739   4.545   1.111   6.023 -0.9974 -2.2418  3.0782
   97SAPE   H8Y 9740   4.679   0.987   6.054 -0.5040 -0.7019  0.5216
   97SAPE   C39 9741   4.740   1.189   5.971 -0.2291  0.5963 -0.6625
   97SAPE   H9X 9742   4.843   1.148   5.971  0.0434  0.9448 -4.2184
   97SAPE   H9Y 9743   4.754   1.288   6.017  0.1348 -0.9945  2.9928
   97SAPE  C310 9744   4.698   1.211   5.831 -0.0006 -0.8592  0.7573
   97SAPE  H10X 9745   4.607   1.274   5.844 -0.7900 -1.7402 -0.3379
   97SAPE  H10Y 9746   4.669   1.114   5.786  0.8194 -0.4535 -0.7249
   97SAPE  C311 9747   4.793   1.288   5.729  0.1330  0.0321  0.0331
   97SAPE  H11X 9748   4.873   1.218   5.698  0.4517 -0.7098  2.3213
   97SAPE  H11Y 9749   4.838   1.374   5.784  1.3253 -1.5300  1.6063
   97SAPE  C312 9750   4.711   1.331   5.605  0.3399  0.8230  0.1839
   97SAPE  H12X 9751   4.658   1.428   5.621 -1.7000 -0.3476  0.9078
   97SAPE  H12Y 9752   4.627   1.260   5.589 -0.4637  1.8466 -0.3277
   97SAPE  C313 9753   4.795   1.341   5.476 -0.2505 -0.5307  0.0421
   97SAPE  H13X 9754   4.860   1.251   5.464 -0.0749 -0.2658 -1.1427
   97SAPE  H13Y 9755   4.869   1.423   5.495  0.4750 -1.1147 -0.1917
   97SAPE  C314 9756   4.708   1.375   5.349 -0.4665 -0.0319  0.0641
   97SAPE  H14X 9757   4.618   1.310   5.342 -0.3139 -0.2649  0.2305
   97SAPE  H14Y 9758   4.771   1.366   5.258 -0.3654  1.4243 -0.0321
   97SAPE  C315 9759   4.672   1.527   5.349 -0.5757  0.2544 -0.2226
   97SAPE  H15X 9760   4.768   1.583   5.357 -0.1236 -0.1327 -2.3086
   97SAPE  H15Y 9761   4.611   1.556   5.437  0.3964  0.4215  0.4099
   97SAPE  C316 9762   4.608   1.581   5.218  0.3545  0.3674 -0.5816
   97SAPE  H16X 9763   4.512   1.529   5.200 -1.7010  3.0936  1.6498
   97SAPE  H16Y 9764   4.680   1.563   5.136  2.1002 -1.3506  1.2079
   97SAPE  C317 9765   4.572   1.728   5.228 -0.0976  0.2814 -0.1781
   97SAPE  H17X 9766   4.663   1.783   5.259  1.4769 -1.3046 -1.7701
   97SAPE  H17Y 9767   4.496   1.758   5.304 -0.2791 -0.5013 -0.0367
   97SAPE  C318 9768   4.528   1.781   5.092 -0.0798 -0.0834  0.2062
   97SAPE  H18X 9769   4.443   1.728   5.043 -3.2124  3.6372  1.0968
   97SAPE  H18Y 9770   4.620   1.770   5.031  0.1590  4.0141 -0.4516
   97SAPE  H18Z 9771   4.497   1.887   5.096 -0.6563 -0.2754  1.1925
   98SAPE     N 9772   4.960   5.940   7.378 -0.0223 -0.3492  0.3632
   98SAPE   HN1 9773   4.943   5.962   7.478  0.6395  0.0961  0.3896
   98SAPE   HN2 9774   4.909   6.005   7.314  1.9262  1.9161  0.9416
   98SAPE   HN3 9775   4.926   5.843   7.366 -0.2784 -0.1517 -0.6174
   98SAPE   C12 9776   5.095   5.950   7.323 -0.7007 -0.1197  0.4634
   98SAPE  H12A 9777   5.157   5.871   7.369  0.5633 -0.1039 -1.1220
   98SAPE  H12B 9778   5.121   6.052   7.358 -1.2903 -0.0337  0.6738
   98SAPE   C11 9779   5.095   5.954   7.167  1.0652  0.7128 -0.4168
   98SAPE  H11A 9780   5.027   6.032   7.127 -1.2420 -0.5318  0.8781
   98SAPE  H11B 9781   5.060   5.855   7.130  0.3425  1.0631 -0.6817
   98SAPE     P 9782   5.285   6.099   7.051 -0.2347  0.1348  0.2093
   98SAPE   O13 9783   5.211   6.217   7.117 -0.5038 -0.4937 -0.1677
   98SAPE   O14 9784   5.431   6.093   7.059 -0.0864 -0.2426 -0.0132
   98SAPE   O12 9785   5.228   5.971   7.122  0.3582  0.2524  0.4144
   98SAPE   O11 9786   5.233   6.077   6.907 -0.6448 -0.1107 -0.3512
   98SAPE    C1 9787   5.315   6.052   6.801 -0.1319  0.5641  0.0101
   98SAPE    HA 9788   5.405   6.000   6.839 -1.9710 -0.1080  3.9175
   98SAPE    HB 9789   5.267   5.993   6.720  2.8312  1.8582 -2.9348
   98SAPE    C2 9790   5.369   6.186   6.733  0.1888 -0.0690 -1.0895
   98SAPE    HS 9791   5.437   6.243   6.800 -0.8082  0.2898 -0.3537
   98SAPE   O21 9792   5.255   6.256   6.692  0.0945  0.1741  0.2677
   98SAPE   C21 9793   5.229   6.370   6.762  0.6328 -0.3310 -0.0004
   98SAPE   O22 9794   5.287   6.406   6.862 -0.3687  0.0694  0.1210
   98SAPE   C22 9795   5.120   6.447   6.693 -0.5825  0.0945 -0.7137
   98SAPE   H2R 9796   5.041   6.374   6.663  0.0110 -1.0668  0.4573
   98SAPE   H2S 9797   5.079   6.520   6.765  1.5563 -0.2546  0.9502
   98SAPE    C3 9798   5.453   6.154   6.606  0.4568  0.4441  0.1441
   98SAPE    HX 9799   5.406   6.068   6.553  1.3560 -0.4262  0.7434
   98SAPE    HY 9800   5.552   6.112   6.634 -0.3558 -2.0421 -0.4598
   98SAPE   O31 9801   5.470   6.273   6.525  0.1533 -0.2938  0.1315
   98SAPE   C31 9802   5.521   6.261   6.405 -0.5163 -0.2694  0.3429
   98SAPE   O32 9803   5.561   6.160   6.354 -0.2406 -0.5215 -0.2200
   98SAPE   C32 9804   5.512   6.393   6.323 -0.6639  0.0404  0.9998
   98SAPE   H2X 9805   5.586   6.468   6.357  0.0716  0.0095 -0.4568
   98SAPE   H2Y 9806   5.411   6.436   6.339  0.8117  3.0389  3.1093
   98SAPE   C23 9807   5.169   6.529   6.570 -0.3129 -0.3586  0.2529
   98SAPE   H3R 9808   5.248   6.472   6.517  1.5847  2.0744  0.3279
   98SAPE   H3S 9809   5.216   6.624   6.603 -0.8288 -0.4676  1.3462
   98SAPE   C24 9810   5.057   6.543   6.465  0.5417 -0.4893  0.3550
   98SAPE   H4R 9811   4.966   6.583   6.515  1.0815 -0.9269  1.7348
   98SAPE   H4S 9812   5.027   6.440   6.435  0.9678 -0.3172 -0.7255
   98SAPE   C25 9813   5.097   6.626   6.344  0.5118  0.0092 -0.4509
   98SAPE   H5R 9814   5.136   6.728   6.360  0.4812  0.0037 -0.3355
   98SAPE   C26 9815   5.058   6.597   6.220  0.2654  0.0077  1.2101
   98SAPE   H6R 9816   5.094   6.668   6.144 -1.6688  1.8591  1.9032
   98SAPE   C27 9817   4.981   6.476   6.168 -1.2934 -0.0311 -0.4952
   98SAPE   H7R 9818   4.886   6.515   6.126 -1.9030 -0.8089  0.1258
   98SAPE   H7S 9819   4.940   6.410   6.247  0.8202 -0.3619  0.4037
   98SAPE   C28 9820   5.067   6.397   6.073  0.5560  0.5003 -0.0647
   98SAPE   H8R 9821   5.113   6.305   6.112 -0.2029  1.1661  2.5790
   98SAPE   C29 9822   5.088   6.423   5.946 -0.2776 -0.6545  0.4054
   98SAPE   H9R 9823   5.147   6.355   5.882  0.5120  1.9811 -1.9001
   98SAPE  C210 9824   5.021   6.539   5.873 -0.2727 -0.4951  0.1908
   98SAPE  H10R 9825   4.967   6.611   5.939  2.5176  1.9896 -0.0259
   98SAPE  H10S 9826   4.945   6.502   5.801  0.5662  0.0291 -0.9957
   98SAPE  C211 9827   5.113   6.618   5.778  0.1360  0.1210 -0.1521
   98SAPE  H11R 9828   5.149   6.714   5.817  0.7190  0.1137 -0.6598
   98SAPE  C212 9829   5.150   6.585   5.651 -0.3583 -0.0369 -0.0053
   98SAPE  H12R 9830   5.189   6.660   5.581 -0.9917 -2.6493 -3.4431
   98SAPE  C213 9831   5.137   6.453   5.582  0.1455  0.6665 -0.5129
   98SAPE  H13R 9832   5.122   6.371   5.654 -0.1790  0.8987 -0.3153
   98SAPE  H13S 9833   5.232   6.441   5.525 -0.1426  1.3016 -1.1492
   98SAPE  C214 9834   5.028   6.444   5.479  0.1024 -0.8373 -0.6296
   98SAPE  H14R 9835   5.014   6.530   5.412 -0.3886  0.0166  0.5297
   98SAPE  C215 9836   4.950   6.338   5.456 -0.1486 -0.2550 -0.2601
   98SAPE  H15R 9837   4.873   6.359   5.380 -0.7705  2.5802  1.0163
   98SAPE  C216 9838   4.953   6.205   5.530 -0.3651 -0.0709  0.1756
   98SAPE  H16R 9839   4.851   6.160   5.527  0.8040 -2.8592 -0.8177
   98SAPE  H16S 9840   4.978   6.209   5.638  0.8474 -1.0685 -0.0479
   98SAPE  C217 9841   5.046   6.097   5.463 -0.2647 -0.3642 -0.1706
   98SAPE  H17R 9842   5.047   6.126   5.355  1.5197 -0.3320 -0.1777
   98SAPE  H17S 9843   4.997   5.998   5.463 -1.7345  0.3158  1.3784
   98SAPE  C218 9844   5.188   6.081   5.522 -0.5301 -0.3380  0.4276
   98SAPE  H18R 9845   5.222   6.168   5.581  1.1330 -1.7624  1.6945
   98SAPE  H18S 9846   5.252   6.067   5.433  0.4919  1.8309  0.7783
   98SAPE  C219 9847   5.193   5.961   5.618 -0.0437 -0.4477 -0.3106
   98SAPE  H19R 9848   5.173   5.864   5.568 -0.6558 -0.3134 -0.3386
   98SAPE  H19S 9849   5.098   5.962   5.677 -0.7076 -1.5920 -1.3245
   98SAPE  C220 9850   5.313   5.948   5.699 -0.3441  0.6138 -0.5357
   98SAPE  H20R 9851   5.403   5.948   5.633 -1.0321 -2.4366 -1.6492
   98SAPE  H20S 9852   5.321   5.870   5.777  1.0416  1.6737  0.4378
   98SAPE  H20T 9853   5.317   6.044   5.756  1.5180  0.6698 -0.6982
   98SAPE   C33 9854   5.544   6.368   6.166 -0.0527 -0.0540  0.6483
   98SAPE   H3X 9855   5.638   6.309   6.168 -0.8162 -1.2914  0.9471
   98SAPE   H3Y 9856   5.563   6.469   6.123  0.3066 -0.6725 -0.7076
   98SAPE   C34 9857   5.439   6.274   6.095 -0.0311 -0.0076 -0.0657
   98SAPE   H4X 9858   5.342   6.328   6.100  0.4797  0.9025  0.3244
   98SAPE   H4Y 9859   5.440   6.178   6.151  0.8238  0.5159  0.8489
   98SAPE   C35 9860   5.455   6.252   5.937 -0.2706 -0.3281 -0.7458
   98SAPE   H5X 9861   5.367   6.201   5.893  0.5110 -0.6410 -2.0039
   98SAPE   H5Y 9862   5.539   6.181   5.921 -0.5967 -0.7190 -0.7246
   98SAPE   C36 9863   5.469   6.386   5.863 -0.0579 -0.2842 -0.2429
   98SAPE   H6X 9864   5.564   6.427   5.902 -1.7509  2.2482  1.5791
   98SAPE   H6Y 9865   5.389   6.453   5.901  0.8424  1.6065 -1.5594
   98SAPE   C37 9866   5.458   6.372   5.713  0.5158 -0.7372 -0.6478
   98SAPE   H7X 9867   5.434   6.475   5.679  0.4446  0.3154  2.3199
   98SAPE   H7Y 9868   5.370   6.309   5.691  0.0501 -0.0008 -0.9033
   98SAPE   C38 9869   5.585   6.318   5.659  0.4948 -0.4907 -0.7456
   98SAPE   H8X 9870   5.592   6.208   5.677  1.4533 -0.3419 -0.0790
   98SAPE   H8Y 9871   5.664   6.376   5.711 -0.0134  2.5353 -3.0970
   98SAPE   C39 9872   5.612   6.352   5.514  0.8331 -0.9772  0.5411
   98SAPE   H9X 9873   5.720   6.335   5.494  0.8994 -0.1881  0.1787
   98SAPE   H9Y 9874   5.580   6.456   5.490  0.4991 -1.0003  0.8711
   98SAPE  C310 9875   5.531   6.266   5.418  0.0209  0.9194  0.2306
   98SAPE  H10X 9876   5.421   6.279   5.427  0.1187  1.6438  0.4278
   98SAPE  H10Y 9877   5.552   6.162   5.453  1.0842  1.6874  2.0036
   98SAPE  C311 9878   5.566   6.283   5.265 -0.2338  0.0993 -0.6274
   98SAPE  H11X 9879   5.547   6.192   5.204 -0.7938  0.3749 -0.8696
   98SAPE  H11Y 9880   5.676   6.295   5.259 -0.2910  0.9801 -0.0808
   98SAPE  C312 9881   5.509   6.409   5.194  0.9829 -0.0616  0.5213
   98SAPE  H12X 9882   5.550   6.422   5.091  0.9563 -0.2205  0.4890
   98SAPE  H12Y 9883   5.531   6.496   5.259  1.1887  1.4364 -1.4446
   98SAPE  C313 9884   5.357   6.402   5.184  0.4088  0.5929 -0.6654
   98SAPE  H13X 9885   5.296   6.420   5.275  0.3281  2.0227 -0.9732
   98SAPE  H13Y 9886   5.337   6.297   5.154 -1.9587  0.7635  0.1651
   98SAPE  C314 9887   5.303   6.478   5.066  0.0553 -0.1718  0.7005
   98SAPE  H14X 9888   5.315   6.416   4.975 -1.1621  0.8756 -0.2174
   98SAPE  H14Y 9889   5.367   6.568   5.056 -0.3049 -0.1495 -2.9866
   98SAPE  C315 9890   5.149   6.512   5.068 -0.1726 -0.1700  0.4183
   98SAPE  H15X 9891   5.119   6.573   4.981 -0.4771 -2.5468 -1.2329
   98SAPE  H15Y 9892   5.121   6.571   5.158 -1.5953  0.3216 -0.3143
   98SAPE  C316 9893   5.061   6.387   5.071 -0.4611  0.3760 -0.6387
   98SAPE  H16X 9894   5.097   6.309   5.140 -0.2056  1.2671  0.2465
   98SAPE  H16Y 9895   5.058   6.336   4.972  0.8429  1.1289 -1.0831
   98SAPE  C317 9896   4.914   6.417   5.105  0.6273 -0.1062 -0.3292
   98SAPE  H17X 9897   4.874   6.480   5.022 -0.0327 -0.2349 -0.1200
   98SAPE  H17Y 9898   4.908   6.476   5.199 -1.6346 -1.7077  0.6167
   98SAPE  C318 9899   4.827   6.289   5.118 -0.1981  0.0907 -0.2569
   98SAPE  H18X 9900   4.813   6.245   5.016  1.5650 -0.0125 -0.4825
   98SAPE  H18Y 9901   4.726   6.299   5.162 -0.8363 -1.1500 -1.3427
   98SAPE  H18Z 9902   4.881   6.210   5.174 -0.3243  0.6749  0.7107
   99SAPE     N 9903   6.869   5.563   6.720  0.3235  0.2912 -0.3943
   99SAPE   HN1 9904   6.828   5.652   6.684  1.0319 -0.0036 -2.0193
   99SAPE   HN2 9905   6.885   5.503   6.636 -0.6232 -1.0690  0.3481
   99SAPE   HN3 9906   6.795   5.512   6.774  0.0446  1.1089  0.0172
   99SAPE   C12 9907   6.977   5.594   6.818  0.1073  0.0620  1.0916
   99SAPE  H12A 9908   7.060   5.623   6.749  0.0981 -1.6247  0.3321
   99SAPE  H12B 9909   6.992   5.505   6.882 -2.8534 -1.0480  0.4258
   99SAPE   C11 9910   6.924   5.706   6.912  0.1513 -0.8266 -0.2489
   99SAPE  H11A 9911   7.002   5.751   6.977 -2.0898  1.6898  0.8471
   99SAPE  H11B 9912   6.850   5.659   6.981  1.0341  0.8256  1.9152
   99SAPE     P 9913   6.852   5.958   6.904 -0.3642 -0.0111 -0.2889
   99SAPE   O13 9914   6.729   6.020   6.847  0.3282  0.1578  0.3899
   99SAPE   O14 9915   6.869   5.961   7.051  0.3387 -0.4214  0.2447
   99SAPE   O12 9916   6.862   5.814   6.841  0.0556 -0.2567  0.4156
   99SAPE   O11 9917   6.979   6.029   6.838 -0.0065  0.5172  0.1670
   99SAPE    C1 9918   7.007   6.014   6.695 -0.0004 -0.7175  0.2454
   99SAPE    HA 9919   7.113   5.981   6.689  0.5448  0.3107  2.6789
   99SAPE    HB 9920   6.937   5.940   6.652 -0.1247 -1.2052  1.2681
   99SAPE    C2 9921   7.005   6.153   6.624  0.0806 -0.1508  0.7928
   99SAPE    HS 9922   6.909   6.206   6.641  0.0870  0.2287 -0.2548
   99SAPE   O21 9923   7.027   6.132   6.484  0.1589 -0.1363  0.5512
   99SAPE   C21 9924   7.029   6.234   6.405  0.1781  0.0578  0.2007
   99SAPE   O22 9925   6.990   6.345   6.437  0.1120 -0.2262 -0.1830
   99SAPE   C22 9926   7.080   6.202   6.270 -0.1168  0.8674 -0.6025
   99SAPE   H2R 9927   7.188   6.190   6.291 -0.1029  1.2165 -0.4648
   99SAPE   H2S 9928   7.031   6.111   6.231  0.5493  1.0190 -1.8728
   99SAPE    C3 9929   7.121   6.235   6.686  0.2106  0.2918  0.6501
   99SAPE    HX 9930   7.089   6.242   6.792 -0.9453  1.3030  0.2569
   99SAPE    HY 9931   7.120   6.335   6.639  4.2141  1.7737  3.2156
   99SAPE   O31 9932   7.255   6.171   6.664 -0.4064  0.2170  0.0649
   99SAPE   C31 9933   7.345   6.236   6.737  0.1769 -0.1525  0.5213
   99SAPE   O32 9934   7.325   6.332   6.805 -0.7381 -0.2653  0.0747
   99SAPE   C32 9935   7.479   6.159   6.730  0.1759 -0.3355 -0.6341
   99SAPE   H2X 9936   7.447   6.053   6.739  1.8392 -0.8529 -0.6419
   99SAPE   H2Y 9937   7.535   6.195   6.818  1.1485 -0.1332 -1.3173
   99SAPE   C23 9938   7.078   6.311   6.165 -0.2759 -0.6088 -0.0497
   99SAPE   H3R 9939   7.133   6.401   6.200 -2.9479  1.3087 -0.4775
   99SAPE   H3S 9940   6.972   6.343   6.151 -1.2072 -1.7146  3.4220
   99SAPE   C24 9941   7.132   6.264   6.021  1.2811 -0.2249  0.2973
   99SAPE   H4R 9942   7.240   6.244   6.038  1.3786  0.4866  0.5505
   99SAPE   H4S 9943   7.132   6.354   5.955 -2.2552  0.5110  1.0731
   99SAPE   C25 9944   7.060   6.143   5.947 -0.6582  0.2290  0.2496
   99SAPE   H5R 9945   6.950   6.144   5.940 -0.8179 -0.4110  2.2203
   99SAPE   C26 9946   7.122   6.039   5.880  0.1737 -0.0927 -0.2736
   99SAPE   H6R 9947   7.054   5.965   5.834 -0.2611  0.0297  0.1670
   99SAPE   C27 9948   7.268   6.016   5.880  0.4831  0.0157 -0.0468
   99SAPE   H7R 9949   7.321   6.111   5.904 -2.0159  1.6938 -0.6886
   99SAPE   H7S 9950   7.304   5.984   5.779  1.8872 -0.5155  0.5952
   99SAPE   C28 9951   7.309   5.916   5.986  0.1286 -0.0393 -0.2821
   99SAPE   H8R 9952   7.276   5.941   6.088  1.8715 -0.5798  0.4448
   99SAPE   C29 9953   7.386   5.811   5.974  1.1424 -0.2006  0.5573
   99SAPE   H9R 9954   7.385   5.740   6.058 -1.6759 -2.5930 -1.3027
   99SAPE  C210 9955   7.459   5.774   5.843 -0.0336 -0.6873  0.0510
   99SAPE  H10R 9956   7.503   5.870   5.808  1.2793 -0.8589  1.1401
   99SAPE  H10S 9957   7.385   5.736   5.769 -2.4197  1.3583  1.2649
   99SAPE  C211 9958   7.581   5.688   5.868 -0.6212  0.2166 -0.3411
   99SAPE  H11R 9959   7.614   5.681   5.972  3.0504  2.0148 -1.2262
   99SAPE  C212 9960   7.654   5.635   5.772 -1.2631  0.5735 -0.8626
   99SAPE  H12R 9961   7.746   5.586   5.806 -0.1806  1.1299 -2.8549
   99SAPE  C213 9962   7.645   5.635   5.620  0.9395 -0.6144  0.1144
   99SAPE  H13R 9963   7.539   5.658   5.594  1.0096 -0.8778 -0.4176
   99SAPE  H13S 9964   7.675   5.539   5.573 -0.0142 -1.2655  0.7779
   99SAPE  C214 9965   7.739   5.742   5.572 -0.9480  0.2667  0.2743
   99SAPE  H14R 9966   7.741   5.835   5.632 -1.2652  1.5602 -1.6193
   99SAPE  C215 9967   7.812   5.747   5.459 -0.6661  0.6975 -0.6382
   99SAPE  H15R 9968   7.878   5.835   5.453 -1.2358  1.7647  4.1401
   99SAPE  C216 9969   7.816   5.651   5.342 -0.7294  0.5376 -0.3960
   99SAPE  H16R 9970   7.753   5.563   5.365 -4.5661  3.6467  2.3236
   99SAPE  H16S 9971   7.920   5.613   5.348 -0.7395  0.5629 -0.0696
   99SAPE  C217 9972   7.794   5.721   5.212  1.2714 -0.0075 -0.1112
   99SAPE  H17R 9973   7.809   5.831   5.222 -3.3052  0.7241  0.9767
   99SAPE  H17S 9974   7.688   5.709   5.181  1.2746  0.8066 -0.4671
   99SAPE  C218 9975   7.879   5.685   5.096  0.0965  0.6712  0.2743
   99SAPE  H18R 9976   7.864   5.578   5.072  0.3606  0.6006  0.4212
   99SAPE  H18S 9977   7.986   5.678   5.126  0.1453  0.4878  0.0634
   99SAPE  C219 9978   7.858   5.779   4.975 -0.1737 -0.2123 -0.1085
   99SAPE  H19R 9979   7.866   5.887   5.000  2.6706 -0.1748 -0.8875
   99SAPE  H19S 9980   7.753   5.758   4.945  0.0644  0.9559 -1.9124
   99SAPE  C220 9981   7.946   5.748   4.854 -0.0709 -0.1643  0.2455
   99SAPE  H20R 9982   8.050   5.771   4.886 -0.6229  1.3542  1.0356
   99SAPE  H20S 9983   7.909   5.804   4.765  0.1313 -0.2134  0.1299
   99SAPE  H20T 9984   7.938   5.644   4.814 -3.8789  0.3762 -0.8175
   99SAPE   C33 9985   7.562   6.177   6.602 -0.0554 -0.1393  0.3356
   99SAPE   H3X 9986   7.656   6.121   6.622 -0.2373 -0.7807 -0.5186
   99SAPE   H3Y 9987   7.588   6.284   6.585  0.4442 -0.0252  1.6952
   99SAPE   C34 9988   7.502   6.123   6.470 -0.5065  0.0402  0.1061
   99SAPE   H4X 9989   7.426   6.197   6.438 -0.8864 -0.1519  0.5591
   99SAPE   H4Y 9990   7.461   6.025   6.504 -0.8043  0.9769  2.6598
   99SAPE   C35 9991   7.606   6.101   6.357 -1.0247 -0.6114  0.1738
   99SAPE   H5X 9992   7.574   6.026   6.282  0.2006 -0.9970  0.0176
   99SAPE   H5Y 9993   7.690   6.048   6.407 -0.2835 -2.1694 -2.5508
   99SAPE   C36 9994   7.666   6.229   6.300  0.0140 -0.4744  0.5176
   99SAPE   H6X 9995   7.772   6.213   6.270  0.0981  1.9015 -0.7142
   99SAPE   H6Y 9996   7.662   6.319   6.365 -1.8618 -1.0237  1.2232
   99SAPE   C37 9997   7.581   6.262   6.176 -0.4522 -0.0821 -0.5515
   99SAPE   H7X 9998   7.489   6.314   6.211  1.3034  2.1595  1.0645
   99SAPE   H7Y 9999   7.558   6.177   6.108  1.4722 -1.3087  0.2206
   99SAPE   C3810000   7.654   6.367   6.093  0.5214 -0.5230  0.3133
   99SAPE   H8X10001   7.741   6.321   6.042  0.9134  0.4865  0.0506
   99SAPE   H8Y10002   7.687   6.451   6.158 -0.8411  0.4921 -0.2531
   99SAPE   C3910003   7.561   6.428   5.981  0.0707 -0.0413  0.5471
   99SAPE   H9X10004   7.464   6.470   6.013 -0.8930 -0.5988 -1.4807
   99SAPE   H9Y10005   7.528   6.345   5.914  0.3218  0.6430 -0.4548
   99SAPE  C31010006   7.631   6.529   5.888 -0.0603 -0.8716  0.0910
   99SAPE  H10X10007   7.714   6.482   5.832 -0.2399  1.4887 -2.3641
   99SAPE  H10Y10008   7.670   6.606   5.959 -0.7729  0.2377 -0.6802
   99SAPE  C31110009   7.549   6.602   5.776  0.4954 -0.2642 -0.3246
   99SAPE  H11X10010   7.492   6.671   5.842  0.3293 -0.3150 -0.4156
   99SAPE  H11Y10011   7.486   6.522   5.731 -1.2103 -1.1621  3.3110
   99SAPE  C31210012   7.641   6.683   5.684  0.5788  0.0509  0.1947
   99SAPE  H12X10013   7.719   6.743   5.735  1.6660  0.2988 -1.6910
   99SAPE  H12Y10014   7.584   6.749   5.615  2.4671 -0.0597 -1.5342
   99SAPE  C31310015   7.710   6.603   5.580  0.3930 -0.2331 -0.3018
   99SAPE  H13X10016   7.638   6.546   5.518  1.7571 -0.3127 -1.9026
   99SAPE  H13Y10017   7.775   6.527   5.630  0.2943 -0.5812 -0.6976
   99SAPE  C31410018   7.796   6.688   5.489 -0.1703 -1.2960  0.2005
   99SAPE  H14X10019   7.868   6.617   5.443 -0.1363 -2.5083  2.0079
   99SAPE  H14Y10020   7.844   6.757   5.561 -0.2627 -1.3950  0.3562
   99SAPE  C31510021   7.733   6.787   5.378 -0.1117  0.0640 -0.6617
   99SAPE  H15X10022   7.695   6.873   5.437  1.3539  1.1458 -1.2330
   99SAPE  H15Y10023   7.640   6.750   5.330  0.1666  0.3617 -1.4403
   99SAPE  C31610024   7.830   6.838   5.280 -0.4830  0.1745 -0.8226
   99SAPE  H16X10025   7.901   6.762   5.240  1.6388  1.6704 -0.0633
   99SAPE  H16Y10026   7.900   6.911   5.326 -2.2659  0.6230  1.3840
   99SAPE  C31710027   7.768   6.893   5.150  0.0963 -0.2278  0.6626
   99SAPE  H17X10028   7.702   6.980   5.169 -0.0651 -0.3572  0.6987
   99SAPE  H17Y10029   7.703   6.824   5.092  1.8439 -2.8844  1.6578
   99SAPE  C31810030   7.885   6.948   5.071  0.2580 -0.0430  0.0606
   99SAPE  H18X10031   7.967   6.875   5.056  1.2843  0.5831  2.2137
   99SAPE  H18Y10032   7.935   7.032   5.125 -1.5259  1.0161  0.1309
   99SAPE  H18Z10033   7.842   6.986   4.977  0.2125 -1.6792 -0.6160
  100SAPE     N10034   2.960   5.505   6.256  0.3762 -0.1470  0.3559
  100SAPE   HN110035   3.028   5.524   6.180  0.7431 -2.4897  0.0145
  100SAPE   HN210036   2.985   5.558   6.341 -0.6938  1.1101 -0.0876
  100SAPE   HN310037   2.964   5.404   6.283  1.5744 -0.0802  0.4662
  100SAPE   C1210038   2.823   5.518   6.199  0.0952 -0.1892 -0.3504
  100SAPE  H12A10039   2.823   5.602   6.126  1.6290  1.1874  1.1533
  100SAPE  H12B10040   2.753   5.548   6.279  2.1078  1.4755  0.8681
  100SAPE   C1110041   2.777   5.377   6.157 -1.3300 -0.3308  0.4781
  100SAPE  H11A10042   2.849   5.322   6.092 -0.6752 -1.7519  2.3124
  100SAPE  H11B10043   2.698   5.397   6.081 -0.7398 -0.3781 -0.1601
  100SAPE     P10044   2.626   5.179   6.252 -0.8045 -0.2214  0.1180
  100SAPE   O1310045   2.695   5.059   6.293 -0.0476 -0.2821  0.1501
  100SAPE   O1410046   2.507   5.219   6.330  0.7390  0.0357 -0.0706
  100SAPE   O1210047   2.734   5.297   6.265 -0.5122  0.1763 -0.3030
  100SAPE   O1110048   2.598   5.176   6.097  0.4610  0.1047  0.4708
  100SAPE    C110049   2.575   5.046   6.036 -0.4777  0.0165 -0.1982
  100SAPE    HA10050   2.669   4.987   6.030 -0.6430 -0.6366  2.2422
  100SAPE    HB10051   2.499   4.988   6.093 -0.0940  1.1312  1.5474
  100SAPE    C210052   2.544   5.063   5.886  0.2831 -0.4345  0.1346
  100SAPE    HS10053   2.621   5.128   5.840  1.0029  0.7004  2.7340
  100SAPE   O2110054   2.411   5.112   5.887 -0.2857 -0.2264  0.0873
  100SAPE   C2110055   2.380   5.163   5.768 -0.6033  0.0006 -0.0590
  100SAPE   O2210056   2.461   5.202   5.685 -0.1074  0.2999  0.5926
  100SAPE   C2210057   2.234   5.179   5.777  0.3955 -0.7778  0.6133
  100SAPE   H2R10058   2.195   5.093   5.837  0.0530 -0.0308  1.4723
  100SAPE   H2S10059   2.215   5.281   5.815  1.0391  0.0369 -1.1330
  100SAPE    C310060   2.569   4.933   5.802  0.1683  0.1658 -0.1019
  100SAPE    HX10061   2.555   4.956   5.695 -0.2796 -0.2800 -0.1394
  100SAPE    HY10062   2.490   4.865   5.841  1.3065 -0.0932  1.9249
  100SAPE   O3110063   2.699   4.876   5.820 -0.3595  0.2563 -0.1534
  100SAPE   C3110064   2.704   4.746   5.772 -0.0225  0.5207 -0.3451
  100SAPE   O3210065   2.608   4.699   5.718 -0.3607 -0.3361  0.4848
  100SAPE   C3210066   2.855   4.694   5.779  0.7117  0.6250  0.8179
  100SAPE   H2X10067   2.903   4.750   5.862  0.8776  2.7960 -0.6511
  100SAPE   H2Y10068   2.908   4.716   5.684  0.7479 -2.9256 -0.1403
  100SAPE   C2310069   2.163   5.181   5.641 -0.4123  0.0223 -0.0780
  100SAPE   H3R10070   2.140   5.079   5.604 -0.2067 -0.1099  0.1541
  100SAPE   H3S10071   2.223   5.233   5.563 -0.8545 -1.4795 -1.4819
  100SAPE   C2410072   2.016   5.248   5.642  0.5570 -0.5273 -0.2798
  100SAPE   H4R10073   1.981   5.257   5.537 -1.0056  0.3206  0.2609
  100SAPE   H4S10074   2.012   5.354   5.676 -0.3171 -0.5501 -0.2767
  100SAPE   C2510075   1.921   5.157   5.714 -0.1984  0.0041  0.0210
  100SAPE   H5R10076   1.966   5.104   5.799 -0.6319 -0.7086 -0.1854
  100SAPE   C2610077   1.796   5.126   5.678 -0.3108  0.1884 -0.0188
  100SAPE   H6R10078   1.741   5.051   5.737  0.8519  1.5348  3.0221
  100SAPE   C2710079   1.710   5.187   5.565  0.4290 -1.0517 -0.1409
  100SAPE   H7R10080   1.716   5.131   5.470  0.9398 -0.7508 -0.2905
  100SAPE   H7S10081   1.743   5.289   5.537  0.5505 -1.2811 -0.8316
  100SAPE   C2810082   1.560   5.189   5.607 -0.3175  0.6229 -0.0411
  100SAPE   H8R10083   1.531   5.244   5.698  0.3619  1.7611 -0.4893
  100SAPE   C2910084   1.460   5.134   5.529 -0.5686  0.3047  0.1242
  100SAPE   H9R10085   1.361   5.124   5.575  0.2084 -1.1087  1.5813
  100SAPE  C21010086   1.471   5.056   5.398  0.2360  0.5327 -0.4316
  100SAPE  H10R10087   1.505   4.954   5.427  1.1881  1.1832  0.8220
  100SAPE  H10S10088   1.550   5.100   5.333 -0.4274  1.7237 -0.4514
  100SAPE  C21110089   1.342   5.045   5.321  0.0262  0.1873  0.3211
  100SAPE  H11R10090   1.254   5.081   5.377 -1.2397 -2.1004 -0.0656
  100SAPE  C21210091   1.319   5.003   5.194 -0.5095 -0.5831 -0.6800
  100SAPE  H12R10092   1.218   5.003   5.151 -0.4695 -0.0288 -0.7851
  100SAPE  C21310093   1.428   4.929   5.109  1.1525  0.4789  0.0386
  100SAPE  H13R10094   1.407   4.820   5.104  1.3976  0.4595 -0.6292
  100SAPE  H13S10095   1.528   4.944   5.155  1.6728  0.8916 -1.1946
  100SAPE  C21410096   1.435   4.984   4.970  0.2799 -0.8951 -0.0703
  100SAPE  H14R10097   1.484   5.081   4.955  0.3410 -1.1237 -1.5229
  100SAPE  C21510098   1.395   4.910   4.862  0.8329  0.0591 -0.1030
  100SAPE  H15R10099   1.407   4.960   4.764 -1.7054  1.7035  0.3437
  100SAPE  C21610100   1.344   4.772   4.852  0.4561  0.1348 -0.2440
  100SAPE  H16R10101   1.300   4.733   4.947  0.3894  2.0756  0.5849
  100SAPE  H16S10102   1.428   4.704   4.830  0.0821 -0.8537  1.1739
  100SAPE  C21710103   1.246   4.752   4.733 -1.3226  0.0674 -0.3440
  100SAPE  H17R10104   1.239   4.644   4.710 -0.3590  0.0400 -0.5837
  100SAPE  H17S10105   1.298   4.797   4.645  1.2932 -1.4910  0.2849
  100SAPE  C21810106   1.110   4.815   4.771 -0.0523 -0.2155 -0.5544
  100SAPE  H18R10107   1.125   4.924   4.777 -1.0700 -0.1469  1.1846
  100SAPE  H18S10108   1.068   4.774   4.865  1.6518 -0.1020  0.3080
  100SAPE  C21910109   1.005   4.816   4.660  0.3565 -0.2562  0.2233
  100SAPE  H19R10110   0.908   4.826   4.712  0.7920 -1.2593  1.2714
  100SAPE  H19S10111   0.998   4.716   4.612 -1.6033 -0.5980  1.1450
  100SAPE  C22010112   1.021   4.935   4.559  0.1693 -0.3687 -0.0914
  100SAPE  H20R10113   1.114   4.929   4.499  0.6579  2.6387  0.2171
  100SAPE  H20S10114   1.025   5.030   4.616 -1.3640 -1.7452  2.5312
  100SAPE  H20T10115   0.929   4.953   4.498 -1.4794  0.5728  2.5055
  100SAPE   C3310116   2.873   4.539   5.812  0.3565  0.4130  1.6079
  100SAPE   H3X10117   2.806   4.507   5.895 -0.1730 -2.4323  0.2337
  100SAPE   H3Y10118   2.977   4.511   5.837 -0.1188  0.3798  3.7294
  100SAPE   C3410119   2.832   4.449   5.684 -0.8464 -0.9135 -0.6088
  100SAPE   H4X10120   2.730   4.482   5.652 -1.6757 -0.9946  1.7688
  100SAPE   H4Y10121   2.848   4.344   5.715  1.7956  0.1897  2.2567
  100SAPE   C3510122   2.915   4.485   5.561 -0.1303  0.4876  0.7206
  100SAPE   H5X10123   3.015   4.522   5.594  0.8468 -2.1282  0.9544
  100SAPE   H5Y10124   2.863   4.561   5.499 -0.8228 -1.4619 -1.2031
  100SAPE   C3610125   2.937   4.365   5.469  0.0055  0.8459 -0.0078
  100SAPE   H6X10126   2.834   4.325   5.455 -1.0203  2.4067  2.4442
  100SAPE   H6Y10127   2.995   4.282   5.515  1.4590  1.2981 -0.9444
  100SAPE   C3710128   2.993   4.397   5.332 -0.0045 -0.1117 -0.0753
  100SAPE   H7X10129   3.102   4.406   5.348 -0.3489  0.7300  2.2202
  100SAPE   H7Y10130   2.955   4.489   5.283  1.6524  0.9042  0.4839
  100SAPE   C3810131   2.963   4.278   5.237 -0.7087 -0.9358  0.0167
  100SAPE   H8X10132   2.857   4.246   5.241 -0.0032 -3.5227 -0.1536
  100SAPE   H8Y10133   3.020   4.192   5.279 -0.2092 -0.5662  0.1086
  100SAPE   C3910134   3.012   4.301   5.091 -0.3142 -0.3435 -0.3074
  100SAPE   H9X10135   3.121   4.322   5.084 -0.5207  1.4319  1.0784
  100SAPE   H9Y10136   2.955   4.390   5.056 -2.6759 -1.4070  0.5903
  100SAPE  C31010137   2.980   4.183   5.001  0.1486  0.3500  0.4254
  100SAPE  H10X10138   2.870   4.177   4.994  0.2782 -1.3268 -0.8218
  100SAPE  H10Y10139   3.024   4.088   5.038  0.7722 -0.1753 -1.5437
  100SAPE  C31110140   3.053   4.208   4.864  0.1539 -0.1252 -0.7467
  100SAPE  H11X10141   3.162   4.203   4.881 -0.0664  0.9631  1.3188
  100SAPE  H11Y10142   3.025   4.311   4.834 -0.8805 -0.3286 -0.5399
  100SAPE  C31210143   3.020   4.097   4.763 -0.0593 -0.2859  0.0297
  100SAPE  H12X10144   2.911   4.087   4.744 -0.4322  1.4625  1.0226
  100SAPE  H12Y10145   3.057   4.000   4.802 -1.0017 -1.3162 -1.5470
  100SAPE  C31310146   3.080   4.133   4.622  0.3973 -0.7036 -0.0621
  100SAPE  H13X10147   3.191   4.136   4.616  0.4637 -1.4354  0.5799
  100SAPE  H13Y10148   3.053   4.235   4.589  0.7535 -1.1143 -1.6999
  100SAPE  C31410149   3.035   4.033   4.520 -0.5717 -0.1836 -0.3237
  100SAPE  H14X10150   2.927   4.007   4.524 -0.8233  0.9762  1.0071
  100SAPE  H14Y10151   3.075   3.936   4.557 -1.3222 -0.1600  0.5723
  100SAPE  C31510152   3.076   4.059   4.379  0.4627  0.1312  0.2803
  100SAPE  H15X10153   3.183   4.087   4.371  0.3954 -0.1830 -2.7845
  100SAPE  H15Y10154   3.025   4.152   4.344 -0.4602 -0.5568 -0.2576
  100SAPE  C31610155   3.027   3.947   4.283  0.4604  0.5909  0.4079
  100SAPE  H16X10156   3.054   3.971   4.178  1.3976 -0.5806  0.3593
  100SAPE  H16Y10157   2.919   3.929   4.303  0.4280 -0.1264 -0.3762
  100SAPE  C31710158   3.110   3.821   4.308  0.7266  0.3563  0.2015
  100SAPE  H17X10159   3.083   3.787   4.410  2.3907 -0.5184  0.4036
  100SAPE  H17Y10160   3.216   3.854   4.302 -0.2768  3.8584 -0.1001
  100SAPE  C31810161   3.082   3.700   4.211  0.5453  0.4598  0.1316
  100SAPE  H18X10162   3.100   3.735   4.107  0.5897  1.6890  0.5292
  100SAPE  H18Y10163   2.978   3.662   4.216 -0.0392  1.8973 -0.6755
  100SAPE  H18Z10164   3.152   3.622   4.247 -0.2336 -0.0568  0.5501
  101SAPE     N10165   3.560   5.194   6.173 -0.5202 -0.2806  0.4211
  101SAPE   HN110166   3.601   5.237   6.259  2.0038 -2.9931  0.7662
  101SAPE   HN210167   3.458   5.177   6.183 -1.0207  1.6540 -0.8319
  101SAPE   HN310168   3.606   5.102   6.158 -0.5976 -0.2708  0.1251
  101SAPE   C1210169   3.592   5.276   6.057  0.0295  0.2890 -0.0186
  101SAPE  H12A10170   3.621   5.377   6.092 -0.1879  0.4818 -0.3867
  101SAPE  H12B10171   3.504   5.278   5.989 -1.1764 -0.3125  1.4652
  101SAPE   C1110172   3.712   5.213   5.993  0.1641  0.5521 -0.2152
  101SAPE  H11A10173   3.741   5.291   5.918 -0.9859  0.3148 -0.9369
  101SAPE  H11B10174   3.677   5.125   5.935 -2.7035  2.8326 -2.2309
  101SAPE     P10175   3.959   5.232   6.078 -0.1522 -0.1261 -0.1863
  101SAPE   O1310176   3.966   5.380   6.114  0.1648  0.0851 -0.7597
  101SAPE   O1410177   4.052   5.149   6.166 -0.0953 -0.0351  0.1035
  101SAPE   O1210178   3.816   5.176   6.082 -0.3335 -0.2786  0.1488
  101SAPE   O1110179   4.012   5.219   5.930 -0.1049 -0.8280 -0.1575
  101SAPE    C110180   4.082   5.102   5.882 -0.0668  0.2806 -0.2405
  101SAPE    HA10181   4.184   5.104   5.928 -0.3181  3.8330  0.4768
  101SAPE    HB10182   4.037   5.005   5.911  0.4885 -0.1902 -0.9078
  101SAPE    C210183   4.086   5.101   5.725  0.1292  0.1163 -0.0781
  101SAPE    HS10184   4.139   5.010   5.689  1.5994  0.5916  0.7656
  101SAPE   O2110185   4.159   5.218   5.680 -0.2656 -0.6542 -0.0576
  101SAPE   C2110186   4.291   5.200   5.702 -0.2954 -0.0586  0.6328
  101SAPE   O2210187   4.348   5.094   5.704 -1.1878 -0.1680 -0.0762
  101SAPE   C2210188   4.352   5.342   5.688  0.3294  0.4482 -0.6831
  101SAPE   H2R10189   4.271   5.417   5.689 -1.5128 -1.1086  5.1934
  101SAPE   H2S10190   4.409   5.346   5.783  1.1130 -1.7163 -0.9994
  101SAPE    C310191   3.949   5.103   5.678  0.1014  0.6293 -0.4672
  101SAPE    HX10192   3.912   5.207   5.669  2.8772  1.8383  0.7898
  101SAPE    HY10193   3.888   5.060   5.761  1.5621  1.6321  1.2103
  101SAPE   O3110194   3.938   5.029   5.559  0.2337 -0.3740 -0.1640
  101SAPE   C3110195   3.817   5.016   5.517  0.6918  0.3581  0.3442
  101SAPE   O3210196   3.713   5.030   5.586  0.0178 -0.0136  0.1317
  101SAPE   C3210197   3.805   4.952   5.381  0.1640  0.0665  0.3487
  101SAPE   H2X10198   3.908   4.938   5.341  0.4317  0.5933  0.8229
  101SAPE   H2Y10199   3.757   5.037   5.328 -1.8386 -0.1199  1.7635
  101SAPE   C2310200   4.447   5.362   5.566  0.1316  0.6915 -0.0214
  101SAPE   H3R10201   4.548   5.323   5.589 -0.9687 -1.0665  2.3263
  101SAPE   H3S10202   4.453   5.473   5.567  0.6593  0.6715  1.8358
  101SAPE   C2410203   4.394   5.321   5.426 -0.3182  0.1590 -0.6301
  101SAPE   H4R10204   4.312   5.395   5.415 -0.7931 -0.3966 -0.8841
  101SAPE   H4S10205   4.356   5.216   5.429  1.7116 -0.6213 -0.2865
  101SAPE   C2510206   4.494   5.340   5.317  0.4900 -0.1337  1.0555
  101SAPE   H5R10207   4.601   5.319   5.331  0.9473  0.2355 -1.4479
  101SAPE   C2610208   4.474   5.400   5.197  0.4577 -0.1777  0.9587
  101SAPE   H6R10209   4.550   5.399   5.117  0.3012  0.1667  0.8032
  101SAPE   C2710210   4.342   5.457   5.148  0.8109  0.1352  0.4413
  101SAPE   H7R10211   4.262   5.467   5.225 -1.0011  2.6145 -1.5667
  101SAPE   H7S10212   4.304   5.394   5.065 -1.2842 -1.0936  2.2403
  101SAPE   C2810213   4.357   5.600   5.106 -0.3749 -0.5883 -0.5194
  101SAPE   H8R10214   4.388   5.660   5.194  1.4818 -0.8671 -0.9509
  101SAPE   C2910215   4.350   5.664   4.983  0.2575  0.4408 -0.3643
  101SAPE   H9R10216   4.369   5.772   4.977  1.2795  0.1958 -2.0151
  101SAPE  C21010217   4.302   5.596   4.858  0.7619  0.1471  0.1379
  101SAPE  H10R10218   4.194   5.615   4.841  0.9598  1.8897  0.6353
  101SAPE  H10S10219   4.315   5.489   4.887 -0.8464  0.2100  1.1831
  101SAPE  C21110220   4.364   5.637   4.724  0.2175  0.4351  0.3795
  101SAPE  H11R10221   4.431   5.725   4.727  1.2137 -0.1690 -1.9758
  101SAPE  C21210222   4.328   5.590   4.600  1.2554 -0.3431  0.0535
  101SAPE  H12R10223   4.386   5.615   4.510 -0.8869  2.8878 -0.6317
  101SAPE  C21310224   4.216   5.492   4.551 -0.0747 -0.0665 -0.1686
  101SAPE  H13R10225   4.177   5.537   4.457 -1.1362  0.2890  0.4238
  101SAPE  H13S10226   4.139   5.500   4.631 -0.4323  2.5987 -0.6744
  101SAPE  C21410227   4.265   5.351   4.537  0.3574  0.7615  0.6761
  101SAPE  H14R10228   4.231   5.288   4.621 -0.5620  2.7440  1.8723
  101SAPE  C21510229   4.345   5.308   4.430 -0.3207  0.3219 -0.4494
  101SAPE  H15R10230   4.373   5.202   4.425  0.0790  0.4291 -0.5644
  101SAPE  C21610231   4.399   5.397   4.319  0.3717  0.0789  0.2707
  101SAPE  H16R10232   4.344   5.494   4.316  0.7863  0.2861 -1.1540
  101SAPE  H16S10233   4.376   5.345   4.224  0.9066  0.8911 -0.3122
  101SAPE  C21710234   4.546   5.437   4.320 -0.1844  0.5220 -0.0099
  101SAPE  H17R10235   4.578   5.499   4.407 -0.8696  1.4092 -0.3753
  101SAPE  H17S10236   4.557   5.501   4.229 -0.1252  1.6569  0.7641
  101SAPE  C21810237   4.638   5.322   4.305 -0.4847 -0.2818  0.8730
  101SAPE  H18R10238   4.613   5.271   4.210  0.7144  3.0711 -1.4418
  101SAPE  H18S10239   4.615   5.262   4.395  2.3310 -1.2673  1.0362
  101SAPE  C21910240   4.784   5.370   4.316  0.5321  0.3940 -0.2012
  101SAPE  H19R10241   4.810   5.407   4.417  2.9051 -0.7332 -0.3373
  101SAPE  H19S10242   4.796   5.450   4.240  2.4023  0.8245  0.5093
  101SAPE  C22010243   4.891   5.267   4.276  0.2473  0.4881  0.6467
  101SAPE  H20R10244   4.858   5.209   4.187  1.0986  0.8087  0.1076
  101SAPE  H20S10245   4.892   5.188   4.354  0.9104  0.2718  0.4212
  101SAPE  H20T10246   4.994   5.298   4.248  0.0850  0.2427 -0.2652
  101SAPE   C3310247   3.716   4.827   5.374 -0.4221 -0.1200 -0.4681
  101SAPE   H3X10248   3.605   4.840   5.371 -0.3079  0.9291 -2.5675
  101SAPE   H3Y10249   3.731   4.755   5.457  1.2932  0.1459 -0.5281
  101SAPE   C3410250   3.740   4.747   5.241  0.2745 -0.1420  0.6862
  101SAPE   H4X10251   3.707   4.802   5.150 -0.8165  0.8820  1.6621
  101SAPE   H4Y10252   3.680   4.654   5.252 -3.4810  1.5319 -2.6750
  101SAPE   C3510253   3.881   4.710   5.225 -0.1851  0.0034  0.6477
  101SAPE   H5X10254   3.904   4.678   5.329  1.0968  1.4072  0.8330
  101SAPE   H5Y10255   3.946   4.797   5.202  0.0383 -0.3902 -0.2637
  101SAPE   C3610256   3.920   4.605   5.121  0.1939 -0.5705  0.3031
  101SAPE   H6X10257   3.872   4.630   5.024  0.1021  0.9103  0.7160
  101SAPE   H6Y10258   3.888   4.507   5.163  0.6020 -0.1838  1.5519
  101SAPE   C3710259   4.076   4.602   5.111 -0.5009 -0.0890  0.1661
  101SAPE   H7X10260   4.133   4.579   5.204  0.4468  0.8302 -0.1610
  101SAPE   H7Y10261   4.107   4.704   5.077 -0.3840 -0.6662 -1.5479
  101SAPE   C3810262   4.119   4.500   5.008 -0.1717  0.9485 -0.0596
  101SAPE   H8X10263   4.060   4.532   4.920 -0.4655  1.3507  0.2821
  101SAPE   H8Y10264   4.084   4.399   5.038  1.0512  0.4291 -0.3111
  101SAPE   C3910265   4.269   4.523   4.969  0.7717  0.0620 -0.1623
  101SAPE   H9X10266   4.332   4.470   5.044  0.4768  0.3762  0.3101
  101SAPE   H9Y10267   4.293   4.630   4.954  1.4931 -0.2733 -1.5920
  101SAPE  C31010268   4.274   4.452   4.831  0.0513  0.6541 -0.2907
  101SAPE  H10X10269   4.212   4.507   4.758  1.9944  0.2832 -2.3262
  101SAPE  H10Y10270   4.233   4.349   4.836 -0.6646  0.9510  0.0109
  101SAPE  C31110271   4.420   4.445   4.784  0.1273 -0.0484 -0.2143
  101SAPE  H11X10272   4.471   4.429   4.882 -0.0256  0.7947  0.0122
  101SAPE  H11Y10273   4.449   4.550   4.761 -0.5678  0.7721  2.3152
  101SAPE  C31210274   4.442   4.341   4.681 -0.3383 -0.2544  0.5474
  101SAPE  H12X10275   4.496   4.387   4.595  2.6208 -4.4887 -0.1779
  101SAPE  H12Y10276   4.350   4.289   4.647 -1.0158  1.1344  0.2087
  101SAPE  C31310277   4.550   4.239   4.715 -0.2534 -0.3654 -0.0065
  101SAPE  H13X10278   4.511   4.179   4.800 -0.3456 -0.1421  0.1083
  101SAPE  H13Y10279   4.637   4.294   4.757  0.2901 -0.3094 -1.1747
  101SAPE  C31410280   4.593   4.149   4.598  0.4227  0.2617 -0.6985
  101SAPE  H14X10281   4.643   4.217   4.526  1.3308  0.7567  0.3867
  101SAPE  H14Y10282   4.503   4.099   4.555  0.6819 -1.6432  0.8530
  101SAPE  C31510283   4.693   4.054   4.658  0.2500  0.3895 -0.0815
  101SAPE  H15X10284   4.645   3.999   4.742  1.9172  0.6661  1.1138
  101SAPE  H15Y10285   4.780   4.113   4.693  0.2395  0.3486  0.0146
  101SAPE  C31610286   4.739   3.960   4.542 -0.5236  0.0967 -0.4739
  101SAPE  H16X10287   4.764   4.028   4.458  0.7967  0.0280 -0.1635
  101SAPE  H16Y10288   4.649   3.898   4.522 -1.4665  0.0529  3.0723
  101SAPE  C31710289   4.863   3.867   4.556  0.4603  0.5995  0.3082
  101SAPE  H17X10290   4.885   3.840   4.662  0.0516 -0.1497  0.2118
  101SAPE  H17Y10291   4.947   3.925   4.514  2.7716 -2.4178  0.4438
  101SAPE  C31810292   4.837   3.727   4.494 -0.2524  0.9097 -0.2257
  101SAPE  H18X10293   4.746   3.683   4.538 -0.1654 -1.3309 -2.1058
  101SAPE  H18Y10294   4.916   3.651   4.514 -0.2806  0.7825 -0.5896
  101SAPE  H18Z10295   4.815   3.733   4.385  1.7028 -0.2723 -0.7480
  102SAPE     N10296   2.885   4.866   6.305  0.4189  0.8599  0.5840
  102SAPE   HN110297   2.970   4.901   6.354  1.1910 -3.9780  3.3070
  102SAPE   HN210298   2.806   4.929   6.330 -0.8712 -0.5073  0.0747
  102SAPE   HN310299   2.864   4.774   6.349  0.3914 -0.0160 -1.1653
  102SAPE   C1210300   2.909   4.850   6.158 -0.1789 -0.5695  0.1941
  102SAPE  H12A10301   2.814   4.817   6.111  1.1396 -1.0852 -2.2901
  102SAPE  H12B10302   2.991   4.778   6.136  0.6130  0.7542 -1.4497
  102SAPE   C1110303   2.960   4.983   6.099  0.1309 -0.3869  1.1842
  102SAPE  H11A10304   2.885   5.062   6.121  0.0343  0.2551 -1.1302
  102SAPE  H11B10305   2.956   4.975   5.988  0.4151 -0.2879  1.1683
  102SAPE     P10306   3.141   5.164   6.159  0.5286  0.2459 -0.7557
  102SAPE   O1310307   3.056   5.225   6.260  0.1371  0.1974 -0.4488
  102SAPE   O1410308   3.282   5.157   6.203 -0.3832 -0.5565 -0.1039
  102SAPE   O1210309   3.095   5.013   6.137 -0.3528  0.0020  0.1281
  102SAPE   O1110310   3.125   5.248   6.024 -0.3536  0.1871  0.1404
  102SAPE    C110311   3.117   5.171   5.898  0.0097 -0.2554  0.3351
  102SAPE    HA10312   3.190   5.088   5.895 -0.3854 -0.5875 -0.6823
  102SAPE    HB10313   3.015   5.149   5.861 -1.0672  1.2625  2.2362
  102SAPE    C210314   3.159   5.269   5.781  0.3804  0.2207 -0.4186
  102SAPE    HS10315   3.263   5.303   5.797  0.8308 -0.1998 -2.2253
  102SAPE   O2110316   3.078   5.381   5.781 -0.2872 -0.3248  0.8940
  102SAPE   C2110317   3.112   5.498   5.706  0.0103  0.1377  0.0357
  102SAPE   O2210318   3.212   5.519   5.646 -0.2905 -0.2209 -0.7210
  102SAPE   C2210319   2.995   5.594   5.709 -0.1126 -0.4349 -0.3354
  102SAPE   H2R10320   2.904   5.556   5.760 -0.6736 -0.3390 -1.2545
  102SAPE   H2S10321   3.030   5.685   5.763 -0.4458 -1.1502  1.1381
  102SAPE    C310322   3.171   5.194   5.641  0.0700 -0.2234  0.4453
  102SAPE    HX10323   3.244   5.110   5.642  1.0767  0.6104 -0.7754
  102SAPE    HY10324   3.217   5.277   5.584 -0.5810  0.6253  1.1320
  102SAPE   O3110325   3.041   5.165   5.579 -0.2023  0.8385 -0.2437
  102SAPE   C3110326   3.016   5.036   5.579 -0.6860  0.3400 -0.2841
  102SAPE   O3210327   3.094   4.950   5.625  0.1429  0.2945 -0.6083
  102SAPE   C3210328   2.878   5.016   5.510 -0.2135  0.3781  0.2018
  102SAPE   H2X10329   2.802   5.040   5.587  0.2071 -1.4611  1.2465
  102SAPE   H2Y10330   2.869   4.907   5.488 -1.1834  0.2598  1.1229
  102SAPE   C2310331   2.949   5.653   5.573  0.6681  0.4221 -0.1357
  102SAPE   H3R10332   2.879   5.579   5.528  0.1485  0.1934  1.0214
  102SAPE   H3S10333   3.030   5.665   5.498 -0.1507 -0.7807 -1.2602
  102SAPE   C2410334   2.863   5.791   5.578  0.1624  0.6635 -0.2372
  102SAPE   H4R10335   2.776   5.781   5.646 -1.7424  1.0540 -2.4501
  102SAPE   H4S10336   2.822   5.819   5.478 -0.2171 -1.7291 -0.8095
  102SAPE   C2510337   2.961   5.895   5.626  0.5341  0.3626  0.3122
  102SAPE   H5R10338   2.973   5.895   5.736  1.8268 -0.6310  0.1988
  102SAPE   C2610339   3.039   5.973   5.550  0.4659 -0.2331 -0.0867
  102SAPE   H6R10340   3.102   6.054   5.589  0.5684  1.1703 -2.9082
  102SAPE   C2710341   3.053   5.957   5.400 -0.1651 -0.4015 -0.9152
  102SAPE   H7R10342   2.950   5.931   5.367 -2.2897  0.0096  4.3176
  102SAPE   H7S10343   3.106   5.864   5.370 -1.1112 -0.6354 -1.9089
  102SAPE   C2810344   3.114   6.071   5.327  0.8431 -0.7884  0.1132
  102SAPE   H8R10345   3.206   6.119   5.366  0.1276 -0.4015  1.4146
  102SAPE   C2910346   3.080   6.105   5.199  0.2456  0.2384  0.3365
  102SAPE   H9R10347   3.145   6.180   5.153 -0.6907  0.7211 -0.2331
  102SAPE  C21010348   2.964   6.055   5.120  0.0284 -0.5054  0.5852
  102SAPE  H10R10349   2.970   5.945   5.128  2.8060 -0.4706  0.0640
  102SAPE  H10S10350   2.978   6.080   5.012  0.0294  0.8274  0.8701
  102SAPE  C21110351   2.825   6.097   5.157  0.2204  0.0611  0.0179
  102SAPE  H11R10352   2.771   6.032   5.227  0.8891 -0.1120  0.3872
  102SAPE  C21210353   2.768   6.216   5.112 -0.4170  0.4416 -0.3129
  102SAPE  H12R10354   2.660   6.231   5.124 -0.2921  0.9699  0.1868
  102SAPE  C21310355   2.848   6.325   5.037  0.1258 -0.1139  0.4426
  102SAPE  H13R10356   2.936   6.282   4.985 -0.3166 -1.0686  0.4736
  102SAPE  H13S10357   2.890   6.386   5.120  0.3974  0.7329 -0.3050
  102SAPE  C21410358   2.773   6.407   4.937  0.6288 -0.2808  0.2947
  102SAPE  H14R10359   2.742   6.348   4.849 -0.1138  0.6672 -0.1018
  102SAPE  C21510360   2.736   6.536   4.946 -0.7428 -0.3406  0.0764
  102SAPE  H15R10361   2.679   6.585   4.866 -2.9082  0.4680  1.9864
  102SAPE  C21610362   2.770   6.636   5.059  0.8079  0.3779 -0.2733
  102SAPE  H16R10363   2.790   6.733   5.008  1.4960  0.0797 -0.5864
  102SAPE  H16S10364   2.861   6.605   5.114 -0.3430 -0.4231  1.2738
  102SAPE  C21710365   2.661   6.653   5.167 -0.6035  1.0015  0.4359
  102SAPE  H17R10366   2.643   6.555   5.218 -1.0952 -0.3803 -2.2227
  102SAPE  H17S10367   2.566   6.671   5.112  0.2058  0.9643 -1.0098
  102SAPE  C21810368   2.687   6.771   5.257 -0.1575 -0.7692 -0.1926
  102SAPE  H18R10369   2.783   6.755   5.311  0.5901  1.9111 -0.5672
  102SAPE  H18S10370   2.615   6.777   5.342  1.6367 -1.4798  1.4647
  102SAPE  C21910371   2.694   6.905   5.186 -0.2344  0.5237 -0.1267
  102SAPE  H19R10372   2.617   6.917   5.107 -0.0453  0.9785 -0.2418
  102SAPE  H19S10373   2.788   6.919   5.130 -0.3567 -1.9684 -1.1024
  102SAPE  C22010374   2.671   7.015   5.306 -0.0834  0.9987  0.4214
  102SAPE  H20R10375   2.752   7.035   5.379 -0.3428  0.2613  0.9212
  102SAPE  H20S10376   2.580   6.986   5.361 -1.1008  2.3382 -0.4781
  102SAPE  H20T10377   2.668   7.115   5.256  2.5968 -0.1728 -2.4232
  102SAPE   C3310378   2.857   5.103   5.384  0.1409  0.5154 -0.4104
  102SAPE   H3X10379   2.924   5.063   5.305 -0.4898 -4.3775  1.1778
  102SAPE   H3Y10380   2.874   5.211   5.398 -1.0149  0.7854 -0.9689
  102SAPE   C3410381   2.712   5.088   5.329 -0.2356 -0.2556  0.0522
  102SAPE   H4X10382   2.666   5.000   5.379  2.1328 -0.5606  1.8209
  102SAPE   H4Y10383   2.714   5.077   5.218  2.1173 -0.0762  0.0345
  102SAPE   C3510384   2.613   5.204   5.361 -0.3387  0.2809 -0.0136
  102SAPE   H5X10385   2.657   5.306   5.352 -1.7280  0.9000 -0.1012
  102SAPE   H5Y10386   2.571   5.185   5.462  2.8101  1.2014  1.5964
  102SAPE   C3610387   2.488   5.200   5.269  0.6780 -0.6315 -0.6889
  102SAPE   H6X10388   2.492   5.226   5.161 -3.8178 -1.2451 -1.1917
  102SAPE   H6Y10389   2.420   5.280   5.306 -1.8807 -2.7430 -0.5324
  102SAPE   C3710390   2.403   5.079   5.296 -0.6106  0.7364 -0.4985
  102SAPE   H7X10391   2.423   5.037   5.397 -1.6243  0.5038 -0.3847
  102SAPE   H7Y10392   2.433   5.012   5.213 -1.7040  0.3818 -0.6222
  102SAPE   C3810393   2.258   5.108   5.276 -0.2775 -0.1137 -0.3205
  102SAPE   H8X10394   2.245   5.181   5.193 -0.8148 -0.1711 -0.2944
  102SAPE   H8Y10395   2.210   5.162   5.361  0.5970  0.5986 -0.2665
  102SAPE   C3910396   2.182   4.983   5.244 -0.5915  0.1700 -1.1067
  102SAPE   H9X10397   2.082   4.977   5.292 -0.2280 -0.2742 -0.3810
  102SAPE   H9Y10398   2.235   4.893   5.281 -0.7616 -0.8823 -3.2783
  102SAPE  C31010399   2.153   4.968   5.095 -0.0051 -0.1377 -0.7049
  102SAPE  H10X10400   2.251   4.956   5.045  1.3003 -0.5655  1.8076
  102SAPE  H10Y10401   2.110   5.064   5.059  2.5151  1.5435  0.4537
  102SAPE  C31110402   2.054   4.850   5.071 -0.1318 -0.1846 -0.3704
  102SAPE  H11X10403   1.951   4.882   5.097 -0.2814  1.8980 -3.0622
  102SAPE  H11Y10404   2.100   4.770   5.133 -0.3225  0.1183  0.1661
  102SAPE  C31210405   2.059   4.817   4.919  0.2046  0.5511  0.2953
  102SAPE  H12X10406   1.986   4.737   4.897  0.6887 -0.0252  0.7282
  102SAPE  H12Y10407   2.160   4.776   4.896  0.2818  0.5834  0.5696
  102SAPE  C31310408   2.038   4.941   4.826 -0.1254  0.1047 -0.0097
  102SAPE  H13X10409   2.064   4.918   4.721  0.2463 -0.4076  0.1951
  102SAPE  H13Y10410   2.105   5.027   4.849 -0.1740 -0.1693  1.2402
  102SAPE  C31410411   1.891   4.984   4.834  0.1390  0.4330  0.3466
  102SAPE  H14X10412   1.863   5.024   4.934 -0.8019  0.8614 -0.0677
  102SAPE  H14Y10413   1.827   4.895   4.818  0.6359  0.0280  0.6202
  102SAPE  C31510414   1.850   5.087   4.728  0.4087 -0.0689  0.0084
  102SAPE  H15X10415   1.885   5.059   4.626  1.4256 -2.2311  0.8748
  102SAPE  H15Y10416   1.890   5.188   4.753 -1.9865  0.8888  0.2196
  102SAPE  C31610417   1.702   5.105   4.725  0.2454 -0.7538  0.0785
  102SAPE  H16X10418   1.671   5.154   4.820  2.2768  0.9813 -0.0931
  102SAPE  H16Y10419   1.651   5.011   4.697 -1.2016  0.5528 -1.9924
  102SAPE  C31710420   1.665   5.210   4.612 -0.2492  0.4827  0.0667
  102SAPE  H17X10421   1.726   5.210   4.520 -0.2655  2.0654  0.0278
  102SAPE  H17Y10422   1.676   5.313   4.653 -3.0533  1.4525 -1.2972
  102SAPE  C31810423   1.522   5.186   4.560 -0.3357  0.7398 -0.4424
  102SAPE  H18X10424   1.496   5.236   4.464 -0.7157 -0.2586 -0.8674
  102SAPE  H18Y10425   1.452   5.211   4.644  1.6095 -1.7871  2.1177
  102SAPE  H18Z10426   1.499   5.080   4.538 -0.2714  0.5139  0.5296
  103SAPE     N10427   3.820   0.120   3.361  0.1266 -0.1440 -0.2117
  103SAPE   HN110428   3.807   0.018   3.346 -2.0577  0.2909 -1.7553
  103SAPE   HN210429   3.785   0.140   3.457  0.2767  0.8823 -0.3523
  103SAPE   HN310430   3.756   0.178   3.303  1.0736  1.2617  0.0765
  103SAPE   C1210431   3.961   0.162   3.332 -0.0624 -0.1702  0.1657
  103SAPE  H12A10432   3.979   0.269   3.357  0.6056 -0.2641  0.1037
  103SAPE  H12B10433   3.979   0.146   3.223 -1.3832  2.2515 -0.4904
  103SAPE   C1110434   4.061   0.071   3.413 -0.2286 -0.8191  0.6055
  103SAPE  H11A10435   4.039   0.086   3.521 -0.5646 -0.6859  0.5207
  103SAPE  H11B10436   4.163   0.106   3.388 -0.1135 -3.1402 -2.9960
  103SAPE     P10437   4.161  -0.137   3.277 -0.0670  0.1734 -0.1909
  103SAPE   O1310438   4.139  -0.286   3.261 -0.0332 -0.2772 -0.5061
  103SAPE   O1410439   4.147  -0.067   3.149  0.1248 -0.4419  0.3524
  103SAPE   O1210440   4.062  -0.067   3.384  0.5339 -0.5708 -0.2205
  103SAPE   O1110441   4.308  -0.104   3.334 -0.6794  0.2536  0.6476
  103SAPE    C110442   4.377  -0.190   3.429 -0.4345 -0.0454  0.1826
  103SAPE    HA10443   4.381  -0.296   3.396  1.4278  0.4380 -1.2888
  103SAPE    HB10444   4.485  -0.168   3.439 -0.7696  0.8122  2.5303
  103SAPE    C210445   4.312  -0.190   3.570  0.4904  0.4519  0.2412
  103SAPE    HS10446   4.206  -0.224   3.570  0.4728  0.5107  0.9234
  103SAPE   O2110447   4.327  -0.050   3.607 -0.2574 -0.5877 -0.1223
  103SAPE   C2110448   4.239  -0.011   3.700  0.4909  0.4566  0.5576
  103SAPE   O2210449   4.156  -0.085   3.752 -0.5737 -0.5306  0.0622
  103SAPE   C2210450   4.254   0.139   3.728  0.2030 -0.0125 -0.0914
  103SAPE   H2R10451   4.324   0.175   3.650 -1.4533 -0.1124 -1.7082
  103SAPE   H2S10452   4.156   0.188   3.710  1.5073  2.7913 -0.1806
  103SAPE    C310453   4.398  -0.280   3.656 -0.4306 -0.3070 -0.8097
  103SAPE    HX10454   4.506  -0.258   3.647  0.1383 -2.7023 -0.5053
  103SAPE    HY10455   4.377  -0.385   3.624 -0.9209 -1.2191  2.1601
  103SAPE   O3110456   4.367  -0.267   3.798 -0.0526  0.2011 -0.5331
  103SAPE   C3110457   4.470  -0.289   3.879 -0.2131  0.1106 -0.1928
  103SAPE   O3210458   4.585  -0.306   3.843 -0.6676 -0.6641  0.3733
  103SAPE   C3210459   4.418  -0.292   4.022  0.4758 -0.1482  0.2326
  103SAPE   H2X10460   4.340  -0.371   4.024  1.0314 -0.7137  1.7344
  103SAPE   H2Y10461   4.365  -0.202   4.060 -1.5331 -0.8983 -0.6709
  103SAPE   C2310462   4.307   0.181   3.865 -0.2603  0.3190 -0.4594
  103SAPE   H3R10463   4.233   0.149   3.942  1.0157  0.4995  0.8905
  103SAPE   H3S10464   4.308   0.291   3.874  0.7772  0.2088  1.3426
  103SAPE   C2410465   4.444   0.125   3.896  0.5437 -0.4878  0.1207
  103SAPE   H4R10466   4.522   0.164   3.827 -0.3591  1.3984  0.0974
  103SAPE   H4S10467   4.453   0.016   3.880  4.7267 -0.3003  0.2388
  103SAPE   C2510468   4.463   0.162   4.041 -0.1277 -0.6426  0.1068
  103SAPE   H5R10469   4.408   0.254   4.065  1.8244  0.8391 -0.7913
  103SAPE   C2610470   4.540   0.110   4.138 -0.5862 -0.2695  0.3518
  103SAPE   H6R10471   4.527   0.150   4.240  0.3089 -0.8862  0.7200
  103SAPE   C2710472   4.633  -0.005   4.126  0.5217 -0.4637  0.2682
  103SAPE   H7R10473   4.616  -0.058   4.030 -0.8983  0.0776  0.2033
  103SAPE   H7S10474   4.616  -0.072   4.213  1.3987  0.7422  1.4153
  103SAPE   C2810475   4.778   0.040   4.110  0.6775  0.0817  0.3757
  103SAPE   H8R10476   4.800   0.099   4.020  0.5649  0.2717  0.4714
  103SAPE   C2910477   4.868   0.032   4.210  0.3504 -0.1418  0.6838
  103SAPE   H9R10478   4.969   0.069   4.187  0.4179  0.4656  1.8582
  103SAPE  C21010479   4.849  -0.039   4.343  0.5993 -0.7451 -0.5977
  103SAPE  H10R10480   4.887  -0.143   4.340  0.8490 -0.7720  1.5973
  103SAPE  H10S10481   4.740  -0.039   4.367 -0.0631 -0.6229 -3.3072
  103SAPE  C21110482   4.933   0.039   4.445 -0.1118  0.3364 -0.1183
  103SAPE  H11R10483   5.025  -0.019   4.462 -1.0707 -0.8948  1.0645
  103SAPE  C21210484   4.900   0.155   4.501  0.0340  0.7166  0.0847
  103SAPE  H12R10485   4.969   0.200   4.574 -0.6963  0.7835  0.7555
  103SAPE  C21310486   4.765   0.214   4.489  0.6066  0.4743 -0.5195
  103SAPE  H13R10487   4.748   0.235   4.597  2.0775 -2.7847  0.4912
  103SAPE  H13S10488   4.685   0.152   4.444  2.1719 -1.5371 -0.7143
  103SAPE  C21410489   4.759   0.347   4.420  0.2252 -0.2788  0.1879
  103SAPE  H14R10490   4.853   0.388   4.380  0.2504 -0.4186  0.1018
  103SAPE  C21510491   4.642   0.417   4.405 -0.1369 -0.9077 -0.9703
  103SAPE  H15R10492   4.657   0.515   4.357  0.3822  0.1507  1.2404
  103SAPE  C21610493   4.503   0.386   4.457 -0.6325 -0.0905 -0.1146
  103SAPE  H16R10494   4.506   0.323   4.549 -1.3834  0.6446  0.4292
  103SAPE  H16S10495   4.458   0.328   4.374 -0.3925  2.7465 -2.3789
  103SAPE  C21710496   4.409   0.505   4.475 -0.7298  0.0562 -0.5880
  103SAPE  H17R10497   4.408   0.581   4.394 -3.9416  0.0808 -0.6552
  103SAPE  H17S10498   4.447   0.551   4.569 -0.3749 -1.3674 -0.0037
  103SAPE  C21810499   4.271   0.457   4.507  0.0062  0.4620 -0.2595
  103SAPE  H18R10500   4.287   0.363   4.565  0.8455  1.2739  0.8668
  103SAPE  H18S10501   4.234   0.414   4.411  2.4160 -2.9634  0.1485
  103SAPE  C21910502   4.190   0.562   4.583 -0.5255 -0.1533  0.4946
  103SAPE  H19R10503   4.179   0.653   4.521 -0.0800  0.7792  1.7472
  103SAPE  H19S10504   4.249   0.590   4.673 -1.4994 -0.4146  1.2257
  103SAPE  C22010505   4.054   0.509   4.634  0.2348 -0.5247 -0.0942
  103SAPE  H20R10506   4.009   0.584   4.702  0.5509 -0.5904  0.1900
  103SAPE  H20S10507   4.066   0.413   4.689  0.6171  1.9226  4.6626
  103SAPE  H20T10508   3.984   0.499   4.548  0.5020  3.5958 -0.9839
  103SAPE   C3310509   4.532  -0.340   4.109  0.4942 -0.0679  0.6935
  103SAPE   H3X10510   4.608  -0.259   4.107  0.3335  0.1754  2.7640
  103SAPE   H3Y10511   4.576  -0.438   4.078  2.3508  1.4425 -1.8804
  103SAPE   C3410512   4.480  -0.370   4.249 -0.2140 -0.4710 -0.2587
  103SAPE   H4X10513   4.384  -0.425   4.239  0.5170 -1.3933 -3.3956
  103SAPE   H4Y10514   4.459  -0.279   4.309 -0.9816 -1.5541  1.1496
  103SAPE   C3510515   4.573  -0.453   4.341  0.2842 -0.4809  0.2564
  103SAPE   H5X10516   4.608  -0.549   4.300  1.7123 -0.8472  2.1552
  103SAPE   H5Y10517   4.520  -0.463   4.438 -0.5038 -1.4295 -0.2639
  103SAPE   C3610518   4.699  -0.368   4.389 -0.4386  0.3972  0.5897
  103SAPE   H6X10519   4.666  -0.268   4.424 -1.4817 -0.4587  2.2021
  103SAPE   H6Y10520   4.767  -0.359   4.302  2.1120 -0.8456  2.3491
  103SAPE   C3710521   4.781  -0.447   4.487  0.0934  0.2209 -0.4016
  103SAPE   H7X10522   4.827  -0.530   4.430  2.5049  0.9020  0.4243
  103SAPE   H7Y10523   4.709  -0.483   4.564  0.2639 -0.1173 -0.4001
  103SAPE   C3810524   4.889  -0.366   4.546 -0.3344 -0.5071 -0.4483
  103SAPE   H8X10525   4.834  -0.309   4.624 -1.1277  1.5714 -2.4389
  103SAPE   H8Y10526   4.932  -0.289   4.479 -0.4190 -0.9023 -0.9577
  103SAPE   C3910527   5.009  -0.446   4.594 -0.2308  0.1407  0.0642
  103SAPE   H9X10528   5.053  -0.495   4.505  2.4421  1.5055  0.5235
  103SAPE   H9Y10529   4.983  -0.535   4.654 -1.1611  0.2073 -0.2234
  103SAPE  C31010530   5.120  -0.359   4.643  0.2578  0.0495  0.8685
  103SAPE  H10X10531   5.090  -0.306   4.737  2.5530  0.0586  1.6605
  103SAPE  H10Y10532   5.145  -0.286   4.564  0.1651 -1.5082 -0.6467
  103SAPE  C31110533   5.248  -0.443   4.685  0.1238 -0.1069  0.4045
  103SAPE  H11X10534   5.272  -0.525   4.614 -0.6319 -0.6967  0.8172
  103SAPE  H11Y10535   5.215  -0.487   4.782  0.0195  0.5284  0.6640
  103SAPE  C31210536   5.372  -0.362   4.718  0.5223  0.3148 -0.5794
  103SAPE  H12X10537   5.447  -0.442   4.736 -0.7356 -0.4760  1.5725
  103SAPE  H12Y10538   5.352  -0.313   4.816  0.7746 -1.1352  0.2299
  103SAPE  C31310539   5.432  -0.272   4.603  0.3747  0.4242  0.9326
  103SAPE  H13X10540   5.533  -0.235   4.629  0.2421  1.1687  0.4293
  103SAPE  H13Y10541   5.360  -0.190   4.582  0.4575  0.1981 -0.3093
  103SAPE  C31410542   5.444  -0.349   4.474 -0.2470  0.5613 -0.4006
  103SAPE  H14X10543   5.509  -0.283   4.412  0.8068  1.6476  1.7682
  103SAPE  H14Y10544   5.352  -0.364   4.413 -0.7779 -1.0954  0.7651
  103SAPE  C31510545   5.512  -0.486   4.480  0.3514  0.3825 -0.1093
  103SAPE  H15X10546   5.473  -0.550   4.562  0.0857  0.3310 -0.2784
  103SAPE  H15Y10547   5.619  -0.473   4.509  0.1115  1.0635  0.5032
  103SAPE  C31610548   5.516  -0.562   4.344  0.2580 -0.0555  0.2352
  103SAPE  H16X10549   5.586  -0.533   4.262 -1.5160  0.0775 -1.3138
  103SAPE  H16Y10550   5.423  -0.548   4.286  0.7499  1.1313 -0.2998
  103SAPE  C31710551   5.535  -0.716   4.361  0.4343 -0.1651 -0.8386
  103SAPE  H17X10552   5.466  -0.741   4.444  1.1147  2.3392  0.5729
  103SAPE  H17Y10553   5.635  -0.747   4.396 -1.1503 -5.0174  0.1083
  103SAPE  C31810554   5.518  -0.785   4.231 -0.0373 -0.2807 -0.3435
  103SAPE  H18X10555   5.507  -0.893   4.257 -1.8797 -0.1792 -0.5954
  103SAPE  H18Y10556   5.606  -0.758   4.167 -0.7048 -0.5039 -1.3794
  103SAPE  H18Z10557   5.425  -0.761   4.175 -0.6893 -0.6858  0.5500
  104SAPE     N10558   5.104   5.608   2.246  0.4728  0.4389  0.3086
  104SAPE   HN110559   5.043   5.593   2.329  1.6971 -1.4973  0.9338
  104SAPE   HN210560   5.102   5.511   2.209 -1.3465  0.5335  0.0459
  104SAPE   HN310561   5.193   5.634   2.294  0.2357 -0.5163  1.3103
  104SAPE   C1210562   5.032   5.707   2.162  0.0358  0.5496 -0.0141
  104SAPE  H12A10563   5.065   5.717   2.056  0.0604  0.1534 -0.0460
  104SAPE  H12B10564   5.044   5.807   2.208  3.7854  0.2398 -0.0132
  104SAPE   C1110565   4.878   5.663   2.152 -0.3512  0.0379 -0.0247
  104SAPE  H11A10566   4.875   5.581   2.078 -2.0051  1.2860 -1.4011
  104SAPE  H11B10567   4.815   5.745   2.112  0.6220  1.1626  0.6773
  104SAPE     P10568   4.719   5.527   2.309 -0.2079  0.3501  0.0964
  104SAPE   O1310569   4.663   5.556   2.445 -0.0438  0.2137  0.4120
  104SAPE   O1410570   4.626   5.530   2.193  0.7026  0.2635 -0.1971
  104SAPE   O1210571   4.837   5.635   2.286  0.4540  0.3226 -0.0566
  104SAPE   O1110572   4.792   5.393   2.300  0.5303  0.1587 -0.0135
  104SAPE    C110573   4.730   5.269   2.283 -0.2444 -0.3541  0.2088
  104SAPE    HA10574   4.661   5.257   2.196 -0.5010  0.2108  0.3311
  104SAPE    HB10575   4.809   5.192   2.272  0.8362  0.4128  2.2016
  104SAPE    C210576   4.650   5.235   2.411 -0.4642  0.5130  0.1632
  104SAPE    HS10577   4.568   5.308   2.432 -0.5666 -0.0957  2.0700
  104SAPE   O2110578   4.753   5.230   2.514 -0.1778  0.7977 -0.2672
  104SAPE   C2110579   4.703   5.241   2.638 -0.3125 -0.0895  0.2470
  104SAPE   O2210580   4.584   5.262   2.666 -0.1441  0.8360 -0.4026
  104SAPE   C2210581   4.804   5.208   2.738 -0.7749 -0.3730  0.6193
  104SAPE   H2R10582   4.855   5.110   2.724 -1.5788 -0.7447  0.2664
  104SAPE   H2S10583   4.879   5.290   2.735 -1.7039  0.4751 -0.2311
  104SAPE    C310584   4.585   5.090   2.396 -0.4048  0.1782 -0.2589
  104SAPE    HX10585   4.668   5.017   2.385  0.3606  1.0286 -0.3196
  104SAPE    HY10586   4.522   5.117   2.308  2.2048  3.5724 -1.3399
  104SAPE   O3110587   4.503   5.054   2.511  0.4013 -0.0377  0.5802
  104SAPE   C3110588   4.381   5.000   2.483  0.0364  0.0517 -0.7500
  104SAPE   O3210589   4.330   4.995   2.371 -0.0820  0.1282  0.4885
  104SAPE   C3210590   4.320   4.951   2.617  0.0775 -0.0573  0.4203
  104SAPE   H2X10591   4.331   5.037   2.686 -0.9520  0.5286 -0.1228
  104SAPE   H2Y10592   4.387   4.869   2.650  0.7397  0.4087  0.2535
  104SAPE   C2310593   4.748   5.203   2.882 -0.5121 -0.6157  0.4563
  104SAPE   H3R10594   4.667   5.128   2.886 -1.7889  0.6473 -0.5170
  104SAPE   H3S10595   4.700   5.302   2.902  1.5968  0.7309 -0.6690
  104SAPE   C2410596   4.853   5.173   2.991 -0.5117 -0.9556 -0.0280
  104SAPE   H4R10597   4.805   5.171   3.091  0.9472  0.3443  0.7514
  104SAPE   H4S10598   4.937   5.247   2.990 -0.5450 -0.8726  1.1068
  104SAPE   C2510599   4.903   5.034   2.969 -0.6338 -0.4065  0.2883
  104SAPE   H5R10600   4.827   4.967   2.927 -0.4119 -0.6026  0.1908
  104SAPE   C2610601   5.027   4.990   3.002  0.1971  0.5251  0.5078
  104SAPE   H6R10602   5.041   4.881   2.998 -2.4570  0.1419 -1.2363
  104SAPE   C2710603   5.143   5.065   3.060  0.2497 -0.5846 -0.4442
  104SAPE   H7R10604   5.122   5.167   3.021 -0.6255  0.3484  2.2897
  104SAPE   H7S10605   5.242   5.027   3.025  2.1446  0.7614  2.9466
  104SAPE   C2810606   5.144   5.067   3.212 -0.1280  0.2334 -0.7975
  104SAPE   H8R10607   5.059   5.024   3.267  1.6531  0.6035  2.5158
  104SAPE   C2910608   5.239   5.120   3.294  0.2216  0.4585 -0.0774
  104SAPE   H9R10609   5.228   5.123   3.403  3.3553 -3.0489  0.5513
  104SAPE  C21010610   5.359   5.192   3.239  0.3583 -0.2362 -0.5417
  104SAPE  H10R10611   5.330   5.297   3.219 -3.0863 -0.8170  0.7142
  104SAPE  H10S10612   5.385   5.142   3.143  2.1864 -0.9507  0.2852
  104SAPE  C21110613   5.475   5.180   3.330 -0.0880 -0.0884 -0.3582
  104SAPE  H11R10614   5.457   5.224   3.429 -1.5203 -1.5332  0.0590
  104SAPE  C21210615   5.595   5.122   3.308 -0.0436  0.5280 -0.7605
  104SAPE  H12R10616   5.679   5.138   3.378  1.0326  2.0153 -2.2933
  104SAPE  C21310617   5.634   5.070   3.172  0.4293 -0.2233  0.1655
  104SAPE  H13R10618   5.654   5.154   3.101 -1.2714 -2.2098 -2.8886
  104SAPE  H13S10619   5.546   5.009   3.141 -0.1329 -0.3974  2.0070
  104SAPE  C21410620   5.754   4.977   3.169  0.5532  0.0946 -0.0033
  104SAPE  H14R10621   5.819   4.990   3.082 -1.4613 -1.4626 -1.8603
  104SAPE  C21510622   5.790   4.879   3.245  0.0465  0.0055 -0.5731
  104SAPE  H15R10623   5.890   4.840   3.223  0.1521  0.7851 -1.5573
  104SAPE  C21610624   5.726   4.809   3.360  0.5114  0.2205 -0.0590
  104SAPE  H16R10625   5.743   4.705   3.326 -0.0696 -2.1414  5.8137
  104SAPE  H16S10626   5.616   4.813   3.377  0.3724 -2.4938  0.1027
  104SAPE  C21710627   5.815   4.810   3.493  0.0937 -0.2632 -0.3890
  104SAPE  H17R10628   5.924   4.804   3.472  0.4078 -0.4292  1.1129
  104SAPE  H17S10629   5.786   4.723   3.556 -1.8259 -0.6731 -1.7571
  104SAPE  C21810630   5.803   4.937   3.580  0.0350 -0.1265  0.3133
  104SAPE  H18R10631   5.697   4.965   3.602  0.5284  1.3293  0.9379
  104SAPE  H18S10632   5.838   5.016   3.509 -0.3966 -0.2955 -0.0962
  104SAPE  C21910633   5.881   4.940   3.709  0.4470  0.6539 -0.6726
  104SAPE  H19R10634   5.869   5.039   3.757 -0.4279  0.2479  0.0027
  104SAPE  H19S10635   5.987   4.936   3.677  0.5180  3.4963 -1.0069
  104SAPE  C22010636   5.852   4.830   3.817  0.6427 -0.0793 -0.9785
  104SAPE  H20R10637   5.742   4.837   3.828  0.7198  0.1146 -0.2144
  104SAPE  H20S10638   5.901   4.839   3.917 -1.7267 -1.5927  0.4194
  104SAPE  H20T10639   5.878   4.728   3.783 -2.1437 -0.6909 -1.5150
  104SAPE   C3310640   4.172   4.909   2.608  0.1014 -0.4524  0.0206
  104SAPE   H3X10641   4.158   4.843   2.520  0.4369 -0.2140 -0.2178
  104SAPE   H3Y10642   4.109   4.998   2.585 -0.6512 -1.2800 -1.2676
  104SAPE   C3410643   4.114   4.836   2.730  0.3355  0.4062 -0.6526
  104SAPE   H4X10644   4.160   4.735   2.741 -2.0212 -0.6220  0.4811
  104SAPE   H4Y10645   4.004   4.827   2.719  0.4806 -0.5215 -1.4871
  104SAPE   C3510646   4.143   4.909   2.870  0.2984 -0.0662  0.2499
  104SAPE   H5X10647   4.048   4.891   2.925 -1.0909  1.5783 -1.5233
  104SAPE   H5Y10648   4.153   5.019   2.863  1.2584 -0.0490  1.4972
  104SAPE   C3610649   4.267   4.859   2.940 -0.2976 -0.3862  0.0851
  104SAPE   H6X10650   4.349   4.862   2.865 -0.0528 -0.7628  0.3355
  104SAPE   H6Y10651   4.248   4.753   2.965 -2.4186 -0.1079 -0.2049
  104SAPE   C3710652   4.307   4.941   3.063 -0.4502 -0.0854  0.7778
  104SAPE   H7X10653   4.236   4.917   3.145 -1.9442  0.5099 -0.2957
  104SAPE   H7Y10654   4.300   5.050   3.042  1.3073 -0.2774 -1.0973
  104SAPE   C3810655   4.450   4.914   3.110  0.3622  0.4723 -0.2723
  104SAPE   H8X10656   4.528   4.922   3.031  1.0930  1.0362  0.4862
  104SAPE   H8Y10657   4.460   4.809   3.144  0.1134  0.3673 -0.5260
  104SAPE   C3910658   4.482   5.011   3.217  0.2982 -0.0378  0.1086
  104SAPE   H9X10659   4.410   5.016   3.302  0.1331  4.0242 -0.0604
  104SAPE   H9Y10660   4.489   5.112   3.172 -0.0728  1.1865  2.5909
  104SAPE  C31010661   4.618   4.967   3.272 -0.1108 -0.1656  0.5552
  104SAPE  H10X10662   4.686   4.961   3.185  0.6115 -0.3380  1.1295
  104SAPE  H10Y10663   4.595   4.864   3.306 -0.1092 -0.4399 -0.2533
  104SAPE  C31110664   4.676   5.062   3.381 -0.1635  0.1846 -0.4721
  104SAPE  H11X10665   4.604   5.061   3.465 -0.1215  1.1947 -0.4137
  104SAPE  H11Y10666   4.675   5.168   3.347  1.6790  1.1502  2.1443
  104SAPE  C31210667   4.813   5.033   3.435  0.2398 -0.3747 -0.8580
  104SAPE  H12X10668   4.891   5.082   3.373 -0.1587  0.5219 -0.6669
  104SAPE  H12Y10669   4.818   4.925   3.408 -0.1525 -0.7694  0.5726
  104SAPE  C31310670   4.829   5.041   3.589  0.1271 -0.5952  0.1999
  104SAPE  H13X10671   4.928   4.999   3.614  0.1843  0.1621  1.3553
  104SAPE  H13Y10672   4.746   4.984   3.636  0.8604 -2.1414 -0.3150
  104SAPE  C31410673   4.823   5.186   3.649  0.1616 -0.5714  0.8381
  104SAPE  H14X10674   4.737   5.234   3.597 -1.2171 -1.8334  1.8781
  104SAPE  H14Y10675   4.911   5.238   3.604 -0.9629  0.2313 -0.5447
  104SAPE  C31510676   4.791   5.199   3.795 -0.4629  0.4477  0.4443
  104SAPE  H15X10677   4.688   5.170   3.825 -0.3078  2.2224  3.0189
  104SAPE  H15Y10678   4.803   5.306   3.822  0.2363  0.6016 -0.4346
  104SAPE  C31610679   4.889   5.120   3.896  0.2061  0.8151  0.3458
  104SAPE  H16X10680   4.898   5.018   3.852 -1.4398  0.9954 -0.4938
  104SAPE  H16Y10681   4.828   5.120   3.989 -0.2492  0.1216  0.0575
  104SAPE  C31710682   5.028   5.178   3.912  0.3374  0.0077  0.8854
  104SAPE  H17X10683   5.018   5.282   3.950 -1.3297  0.2691 -0.1443
  104SAPE  H17Y10684   5.059   5.187   3.805 -2.3045  0.2831  0.0453
  104SAPE  C31810685   5.120   5.093   4.001  0.5113 -0.1761 -0.2943
  104SAPE  H18X10686   5.226   5.118   3.974  0.3412  0.0200 -0.7999
  104SAPE  H18Y10687   5.098   4.985   3.988 -3.3353  0.5508 -0.8611
  104SAPE  H18Z10688   5.103   5.114   4.108  1.0494 -1.5591  0.0799
  105SAPE     N10689   3.022   5.447   1.908 -0.4287  0.2014  0.7355
  105SAPE   HN110690   3.035   5.366   1.844 -0.4615  0.8298 -0.0941
  105SAPE   HN210691   2.926   5.484   1.888 -2.0547 -3.7519  0.2054
  105SAPE   HN310692   3.098   5.514   1.887  1.4520 -2.2254 -0.7078
  105SAPE   C1210693   3.033   5.392   2.044  0.2805  0.2791  0.0917
  105SAPE  H12A10694   3.023   5.478   2.114 -1.7562  0.0881  0.0970
  105SAPE  H12B10695   3.140   5.366   2.054  0.3816  0.3370 -0.7171
  105SAPE   C1110696   2.940   5.278   2.076  0.3692  0.4637  0.1446
  105SAPE  H11A10697   2.949   5.244   2.181 -0.5922 -1.4549 -0.3439
  105SAPE  H11B10698   2.959   5.190   2.011 -2.0094  0.6820 -0.9876
  105SAPE     P10699   2.690   5.233   2.058 -0.0844  0.1787 -0.2919
  105SAPE   O1310700   2.566   5.308   2.044 -0.1243  0.4505  0.3694
  105SAPE   O1410701   2.695   5.122   1.960 -0.5500 -0.2093 -0.3572
  105SAPE   O1210702   2.810   5.330   2.052  0.2584  0.3555  0.4304
  105SAPE   O1110703   2.702   5.162   2.200  0.4796  0.3004  0.3782
  105SAPE    C110704   2.712   5.243   2.323  0.4621 -0.2732  0.1699
  105SAPE    HA10705   2.821   5.258   2.334  0.9482 -2.0148 -1.7029
  105SAPE    HB10706   2.673   5.346   2.311  0.6280 -0.1425  0.7217
  105SAPE    C210707   2.656   5.163   2.442  0.2542 -0.3879 -0.0241
  105SAPE    HS10708   2.655   5.218   2.538 -1.2763 -3.0801  1.6348
  105SAPE   O2110709   2.725   5.039   2.464  0.9843 -0.2767  0.0725
  105SAPE   C2110710   2.838   5.040   2.535 -0.2093 -0.2854 -0.0980
  105SAPE   O2210711   2.882   5.138   2.593 -0.3045 -0.1245 -0.0375
  105SAPE   C2210712   2.905   4.902   2.528 -0.2528  0.2982  0.1254
  105SAPE   H2R10713   2.844   4.829   2.586 -0.0235  0.2007  0.2478
  105SAPE   H2S10714   2.894   4.882   2.419 -2.2067  1.8656 -0.0199
  105SAPE    C310715   2.503   5.134   2.414  0.1605  0.0766  0.2331
  105SAPE    HX10716   2.486   5.095   2.312 -1.1588  0.5599  0.2563
  105SAPE    HY10717   2.453   5.233   2.415 -1.4767 -0.6453 -2.1775
  105SAPE   O3110718   2.445   5.049   2.512  0.3836  0.5100 -0.4056
  105SAPE   C3110719   2.443   4.920   2.475 -0.0826  0.5917  0.6254
  105SAPE   O3210720   2.485   4.877   2.366  0.3778 -0.2925 -0.8209
  105SAPE   C3210721   2.378   4.829   2.574  0.0662 -0.0379  0.4987
  105SAPE   H2X10722   2.422   4.727   2.570 -1.9329 -0.9559  0.7278
  105SAPE   H2Y10723   2.273   4.816   2.542  0.6124 -0.5604 -1.1858
  105SAPE   C2310724   3.051   4.893   2.587  0.3120  0.3356 -0.0138
  105SAPE   H3R10725   3.050   4.916   2.696  2.1887  2.2770 -0.3534
  105SAPE   H3S10726   3.109   4.966   2.528  0.9700 -0.6545 -0.6241
  105SAPE   C2410727   3.121   4.762   2.582 -1.1425  0.2555  1.0306
  105SAPE   H4R10728   3.120   4.730   2.476  1.5308  0.3006  0.9152
  105SAPE   H4S10729   3.061   4.686   2.636 -0.5299 -2.2735 -1.5739
  105SAPE   C2510730   3.259   4.762   2.621 -0.9915  0.8055 -0.5303
  105SAPE   H5R10731   3.324   4.822   2.556 -1.5688  0.7672 -1.1545
  105SAPE   C2610732   3.311   4.699   2.723  0.5683  0.1756  0.1031
  105SAPE   H6R10733   3.421   4.700   2.734  0.4773 -0.9809  1.5283
  105SAPE   C2710734   3.248   4.614   2.836 -0.0036 -0.2046  0.7657
  105SAPE   H7R10735   3.141   4.599   2.807 -1.2210  1.3200  4.0047
  105SAPE   H7S10736   3.243   4.662   2.936 -0.2186  1.4111  0.0083
  105SAPE   C2810737   3.316   4.480   2.844  0.3434 -0.6936  0.1279
  105SAPE   H8R10738   3.258   4.394   2.807 -1.1881  0.0423  0.7314
  105SAPE   C2910739   3.435   4.458   2.898 -0.4681 -0.3376 -0.2651
  105SAPE   H9R10740   3.481   4.358   2.895 -0.3665 -0.2962 -3.1406
  105SAPE  C21010741   3.526   4.563   2.958 -0.7464  0.6750 -0.6871
  105SAPE  H10R10742   3.539   4.545   3.067  0.9248  1.3665 -0.7462
  105SAPE  H10S10743   3.476   4.662   2.955 -2.3446 -0.0534  0.5511
  105SAPE  C21110744   3.657   4.581   2.874  0.1434 -0.0252 -0.0760
  105SAPE  H11R10745   3.652   4.547   2.769  1.4924 -2.5247  0.5807
  105SAPE  C21210746   3.768   4.640   2.921 -0.1746  0.8418 -0.0385
  105SAPE  H12R10747   3.855   4.650   2.855 -0.1428  0.6270 -0.0310
  105SAPE  C21310748   3.782   4.702   3.056  0.6405 -0.3949 -0.2211
  105SAPE  H13R10749   3.726   4.641   3.130  1.0071 -2.2477 -1.4012
  105SAPE  H13S10750   3.741   4.804   3.041  0.8808 -0.0385  1.3920
  105SAPE  C21410751   3.925   4.720   3.094  0.7365  0.9039 -1.0081
  105SAPE  H14R10752   4.000   4.666   3.033  0.7304  1.4098 -1.4766
  105SAPE  C21510753   3.964   4.789   3.202 -0.1763 -0.1037 -0.1901
  105SAPE  H15R10754   4.071   4.803   3.222 -0.0225 -0.5678 -0.6481
  105SAPE  C21610755   3.879   4.882   3.291 -0.2810  0.0780  0.2434
  105SAPE  H16R10756   3.833   4.819   3.370  0.3329 -1.5733 -0.6645
  105SAPE  H16S10757   3.813   4.932   3.217  1.1738 -0.1177 -1.2398
  105SAPE  C21710758   3.966   4.980   3.374 -0.1613 -0.1716 -1.0385
  105SAPE  H17R10759   4.050   5.016   3.311  3.0422 -1.6473  2.0759
  105SAPE  H17S10760   4.006   4.929   3.464 -0.5941  0.1247 -0.6746
  105SAPE  C21810761   3.879   5.093   3.413  0.1331  0.3311  0.0309
  105SAPE  H18R10762   3.784   5.061   3.462  0.0235  0.5726 -0.0235
  105SAPE  H18S10763   3.838   5.139   3.321 -4.2658  0.2936  1.6953
  105SAPE  C21910764   3.955   5.208   3.485  0.1837  0.3927  0.0215
  105SAPE  H19R10765   4.013   5.160   3.566 -0.2599 -0.5669 -0.2210
  105SAPE  H19S10766   3.882   5.278   3.530 -0.4302  0.6847 -1.3761
  105SAPE  C22010767   4.041   5.294   3.385  0.0747  0.1830  0.0377
  105SAPE  H20R10768   4.142   5.250   3.370  0.9329  2.1311 -0.1872
  105SAPE  H20S10769   4.060   5.397   3.422  1.9326  0.1831 -0.8095
  105SAPE  H20T10770   3.998   5.296   3.282 -2.0525 -1.6011  0.7982
  105SAPE   C3310771   2.399   4.883   2.721 -0.2843 -0.0427 -0.7387
  105SAPE   H3X10772   2.342   4.976   2.744 -1.3050 -0.7639 -0.2746
  105SAPE   H3Y10773   2.507   4.904   2.731 -0.9161  3.4317  0.1581
  105SAPE   C3410774   2.348   4.781   2.824  0.4440  0.4049  0.8893
  105SAPE   H4X10775   2.400   4.683   2.823  0.5993  0.3016  4.4161
  105SAPE   H4Y10776   2.241   4.764   2.798  0.5303  0.0326  0.7708
  105SAPE   C3510777   2.358   4.814   2.971  0.3221 -0.6637  0.0473
  105SAPE   H5X10778   2.301   4.904   3.003  2.3179  0.1836  1.4754
  105SAPE   H5Y10779   2.461   4.855   2.988  1.0039 -1.7853 -1.2495
  105SAPE   C3610780   2.327   4.688   3.067 -0.5101  0.4461  0.2919
  105SAPE   H6X10781   2.392   4.601   3.042 -1.3118  0.0474 -0.4577
  105SAPE   H6Y10782   2.220   4.664   3.050 -1.2808  3.4652  0.3905
  105SAPE   C3710783   2.356   4.730   3.214 -0.3290  0.1673  0.8157
  105SAPE   H7X10784   2.322   4.836   3.216 -1.0594  0.0474 -1.8110
  105SAPE   H7Y10785   2.464   4.722   3.235 -0.0296  1.3901 -0.1478
  105SAPE   C3810786   2.285   4.643   3.312  0.4669 -0.2347  0.3119
  105SAPE   H8X10787   2.294   4.535   3.288 -3.7688 -0.1651 -2.5081
  105SAPE   H8Y10788   2.174   4.646   3.303  0.3363 -0.4397  1.6391
  105SAPE   C3910789   2.328   4.698   3.451  0.2988  0.3008 -0.1654
  105SAPE   H9X10790   2.308   4.807   3.456  0.4185  0.3383 -0.4600
  105SAPE   H9Y10791   2.436   4.696   3.478  0.5142 -0.3719 -1.0205
  105SAPE  C31010792   2.237   4.637   3.554  0.2624  0.2450 -0.2155
  105SAPE  H10X10793   2.253   4.527   3.541 -0.0697  0.0178  1.1235
  105SAPE  H10Y10794   2.136   4.670   3.521  0.0280  1.4715  1.5848
  105SAPE  C31110795   2.244   4.703   3.693  0.0373 -0.0735 -0.2454
  105SAPE  H11X10796   2.222   4.812   3.681  2.0050  0.5389  1.2375
  105SAPE  H11Y10797   2.351   4.704   3.723  0.2431  1.6600 -0.9385
  105SAPE  C31210798   2.157   4.638   3.806 -0.3610  0.1699  0.3560
  105SAPE  H12X10799   2.178   4.529   3.811 -0.7376  0.0935  0.3598
  105SAPE  H12Y10800   2.048   4.642   3.783 -0.3169 -2.3663 -0.6399
  105SAPE  C31310801   2.163   4.695   3.948 -0.3526 -0.0085 -0.3089
  105SAPE  H13X10802   2.122   4.798   3.942 -0.4190 -0.0995 -2.2681
  105SAPE  H13Y10803   2.269   4.698   3.982 -0.2980  0.7859 -0.5391
  105SAPE  C31410804   2.083   4.617   4.054 -0.1662  0.2072  0.5647
  105SAPE  H14X10805   2.128   4.517   4.067 -1.9234 -0.6665  0.1798
  105SAPE  H14Y10806   1.975   4.600   4.031 -1.1479 -0.9385  5.1532
  105SAPE  C31510807   2.091   4.684   4.192  0.1502  1.1650  0.2126
  105SAPE  H15X10808   2.044   4.785   4.190  0.7352  1.4308 -0.9007
  105SAPE  H15Y10809   2.201   4.690   4.208  0.2629 -0.2950  0.1059
  105SAPE  C31610810   2.035   4.608   4.310 -0.3910  0.5990 -0.5097
  105SAPE  H16X10811   2.072   4.503   4.318 -1.8785  0.1524  0.8085
  105SAPE  H16Y10812   1.929   4.587   4.285 -0.7450 -0.3202  1.5979
  105SAPE  C31710813   2.032   4.674   4.444  0.3683  0.1660  0.0561
  105SAPE  H17X10814   1.961   4.618   4.508 -0.5684  1.0739 -0.1355
  105SAPE  H17Y10815   1.990   4.771   4.409  0.5686  0.2272 -0.0161
  105SAPE  C31810816   2.167   4.682   4.513 -0.4375 -0.0455  0.0129
  105SAPE  H18X10817   2.158   4.716   4.618 -1.4334  0.0489 -0.0840
  105SAPE  H18Y10818   2.249   4.730   4.456  0.5948  0.6744  2.0058
  105SAPE  H18Z10819   2.209   4.580   4.514 -0.1457  0.0782  1.1033
  106SAPE     N10820   0.586   6.461   2.262  0.7201 -0.0218 -0.2084
  106SAPE   HN110821   0.486   6.488   2.261  1.1291  1.6288 -0.2370
  106SAPE   HN210822   0.644   6.547   2.250  0.3091  0.2977  0.0640
  106SAPE   HN310823   0.617   6.418   2.172 -1.1194  0.3224 -1.0571
  106SAPE   C1210824   0.633   6.376   2.380  0.3579 -0.1642 -1.1771
  106SAPE  H12A10825   0.736   6.344   2.353  0.1603 -0.4537 -1.5937
  106SAPE  H12B10826   0.571   6.285   2.390  0.2365  0.0889  0.6871
  106SAPE   C1110827   0.625   6.461   2.511  0.0410  0.0839 -0.2281
  106SAPE  H11A10828   0.641   6.396   2.600  1.0575  1.3850  0.5949
  106SAPE  H11B10829   0.517   6.489   2.518 -0.0891 -0.5435  0.4204
  106SAPE     P10830   0.742   6.642   2.649 -0.1792  0.2320  0.3994
  106SAPE   O1310831   0.827   6.757   2.608 -0.3347  0.1998 -0.0154
  106SAPE   O1410832   0.609   6.671   2.704 -0.4519  0.2998  0.3592
  106SAPE   O1210833   0.714   6.566   2.514  0.2055 -0.1330 -0.5645
  106SAPE   O1110834   0.826   6.527   2.726  0.3058  0.2044  0.3454
  106SAPE    C110835   0.927   6.570   2.815 -0.1466  0.3153 -0.2903
  106SAPE    HA10836   1.022   6.584   2.760  0.1408 -0.6821 -0.0726
  106SAPE    HB10837   0.899   6.664   2.867 -2.2432  0.2569 -1.2525
  106SAPE    C210838   0.942   6.463   2.933  0.0104 -0.1817  0.7403
  106SAPE    HS10839   1.018   6.500   3.005 -0.0227  0.2668  0.5465
  106SAPE   O2110840   0.975   6.328   2.891  0.7986  0.2745 -0.7970
  106SAPE   C2110841   1.093   6.329   2.823  0.2337  0.3698 -0.3537
  106SAPE   O2210842   1.163   6.426   2.795  0.6436 -0.0553 -0.2042
  106SAPE   C2210843   1.142   6.182   2.803  0.1545 -0.2113  0.5732
  106SAPE   H2R10844   1.071   6.133   2.733  0.5132 -1.7340  1.2375
  106SAPE   H2S10845   1.240   6.180   2.751  0.5894  1.6163  1.2305
  106SAPE    C310846   0.805   6.455   3.003 -0.0939  0.3232  0.2376
  106SAPE    HX10847   0.722   6.437   2.931 -0.6630 -1.9559  1.3773
  106SAPE    HY10848   0.785   6.559   3.037  0.3710  0.3572  0.4035
  106SAPE   O3110849   0.811   6.354   3.105  0.4392 -0.0777 -0.8084
  106SAPE   C3110850   0.842   6.385   3.229  0.1325  0.2622  0.1807
  106SAPE   O3210851   0.882   6.498   3.263 -0.5305  0.7156  0.4205
  106SAPE   C3210852   0.831   6.262   3.321  0.4777 -0.4637  0.3475
  106SAPE   H2X10853   0.904   6.183   3.290  0.9693  0.3482 -0.6128
  106SAPE   H2Y10854   0.729   6.219   3.317  0.4271 -0.3852  0.7460
  106SAPE   C2310855   1.159   6.097   2.926 -0.0494 -0.4207  0.4031
  106SAPE   H3R10856   1.179   5.994   2.890 -2.9179 -0.6465 -0.7869
  106SAPE   H3S10857   1.059   6.082   2.972 -1.7689  1.0936 -2.5311
  106SAPE   C2410858   1.269   6.145   3.012 -0.5526 -0.1521 -0.9174
  106SAPE   H4R10859   1.345   6.199   2.951  0.4273  0.0579  0.4368
  106SAPE   H4S10860   1.317   6.057   3.060 -1.0759 -1.4558 -2.6881
  106SAPE   C2510861   1.207   6.237   3.119  0.0021 -0.1358 -0.3388
  106SAPE   H5R10862   1.113   6.205   3.166  0.1330  0.3018  0.2407
  106SAPE   C2610863   1.270   6.339   3.169 -0.3983  0.3568 -0.4440
  106SAPE   H6R10864   1.212   6.402   3.238 -0.4371  1.2116 -1.2478
  106SAPE   C2710865   1.414   6.383   3.146  1.1575  0.3509 -0.3116
  106SAPE   H7R10866   1.470   6.301   3.096 -2.6879 -1.2038 -2.4710
  106SAPE   H7S10867   1.456   6.413   3.245 -2.4973  2.2994  0.8427
  106SAPE   C2810868   1.419   6.490   3.045 -0.1130  0.5114  0.1852
  106SAPE   H8R10869   1.321   6.516   3.002  0.4020 -1.3040 -2.2575
  106SAPE   C2910870   1.528   6.557   2.998 -0.1374 -0.1348  0.6178
  106SAPE   H9R10871   1.518   6.626   2.913 -0.1994 -1.0389 -0.1276
  106SAPE  C21010872   1.669   6.526   3.046 -0.1987  0.7325 -0.0779
  106SAPE  H10R10873   1.694   6.421   3.020  0.0250  0.0586  2.5582
  106SAPE  H10S10874   1.682   6.539   3.155  1.0167  0.0846 -0.1207
  106SAPE  C21110875   1.773   6.611   2.974 -0.2905 -0.7115 -0.1291
  106SAPE  H11R10876   1.762   6.608   2.864  0.8964 -0.8159 -0.2575
  106SAPE  C21210877   1.866   6.695   3.025  0.7182 -0.3037 -0.6477
  106SAPE  H12R10878   1.928   6.758   2.960  1.1886  1.5946  1.5148
  106SAPE  C21310879   1.897   6.696   3.171  0.2278  0.9488  0.1948
  106SAPE  H13R10880   1.876   6.595   3.213 -0.8346  0.6624 -0.9793
  106SAPE  H13S10881   1.823   6.761   3.222  1.0947  2.7781 -0.7714
  106SAPE  C21410882   2.032   6.749   3.216  0.5996  0.1582  0.1764
  106SAPE  H14R10883   2.113   6.694   3.166 -1.8804 -1.5594 -2.2431
  106SAPE  C21510884   2.060   6.840   3.308  0.1230  0.0654 -0.7026
  106SAPE  H15R10885   2.165   6.858   3.334 -0.6857  1.0127  2.2797
  106SAPE  C21610886   1.968   6.925   3.387  0.0440 -0.3829 -1.3981
  106SAPE  H16R10887   1.861   6.895   3.374  0.1963 -0.4840 -2.4715
  106SAPE  H16S10888   1.968   7.024   3.338 -0.6909 -0.6902 -2.0358
  106SAPE  C21710889   1.993   6.908   3.540  0.6027 -0.9910  0.5229
  106SAPE  H17R10890   2.100   6.933   3.558  0.4883  1.2335 -1.3978
  106SAPE  H17S10891   1.979   6.805   3.579  3.3258 -1.5170  0.3054
  106SAPE  C21810892   1.910   7.007   3.620 -0.2729  0.3821 -0.6731
  106SAPE  H18R10893   1.804   6.975   3.617 -0.6746  1.6882 -1.4267
  106SAPE  H18S10894   1.922   7.104   3.566 -1.5249  0.8237 -0.1896
  106SAPE  C21910895   1.958   6.999   3.769 -0.9261  0.1069  0.3131
  106SAPE  H19R10896   2.066   7.025   3.772 -0.9037  0.7806 -2.8877
  106SAPE  H19S10897   1.947   6.893   3.801  1.1045  0.1775  1.3952
  106SAPE  C22010898   1.884   7.099   3.866  0.1545  0.2063 -0.5026
  106SAPE  H20R10899   1.930   7.103   3.967 -0.7834  2.9583 -0.1061
  106SAPE  H20S10900   1.777   7.073   3.875  1.0494 -3.3585  3.0832
  106SAPE  H20T10901   1.887   7.203   3.826  0.2148  0.5870  0.4782
  106SAPE   C3310902   0.849   6.301   3.467 -0.4057 -0.1461 -0.1871
  106SAPE   H3X10903   0.790   6.392   3.489  1.0193  0.7195  0.1925
  106SAPE   H3Y10904   0.949   6.343   3.490  0.9034 -3.0206 -0.1748
  106SAPE   C3410905   0.824   6.180   3.557 -0.3068 -0.0338 -0.1027
  106SAPE   H4X10906   0.897   6.097   3.547 -0.4754 -0.1302 -0.5344
  106SAPE   H4Y10907   0.722   6.143   3.532 -0.4725 -1.0840  1.8963
  106SAPE   C3510908   0.823   6.223   3.704  0.0577 -0.0767  0.2028
  106SAPE   H5X10909   0.742   6.297   3.724  2.0215  1.9356  1.0170
  106SAPE   H5Y10910   0.914   6.283   3.720  0.6346 -0.1425 -2.3833
  106SAPE   C3610911   0.800   6.103   3.800 -0.6938  0.3645  0.6589
  106SAPE   H6X10912   0.893   6.042   3.798 -1.2867 -0.5691  0.8116
  106SAPE   H6Y10913   0.724   6.039   3.749  0.6084 -1.8637  1.3929
  106SAPE   C3710914   0.769   6.136   3.944 -0.3190  0.2928  0.0766
  106SAPE   H7X10915   0.682   6.205   3.943 -0.7550 -0.2537 -0.9251
  106SAPE   H7Y10916   0.848   6.202   3.986 -0.2099  0.5150 -0.4667
  106SAPE   C3810917   0.727   6.018   4.028 -0.0681  0.0115 -0.1087
  106SAPE   H8X10918   0.628   5.980   3.994 -0.2207  0.7068 -0.4794
  106SAPE   H8Y10919   0.716   6.050   4.134  0.7819 -3.2551  1.0828
  106SAPE   C3910920   0.829   5.904   4.035  0.4976  0.6645  0.8362
  106SAPE   H9X10921   0.918   5.947   4.084  0.3319  2.8538 -0.6299
  106SAPE   H9Y10922   0.866   5.870   3.936 -0.0494 -0.1277  0.8906
  106SAPE  C31010923   0.762   5.792   4.106  0.5934  1.3013 -0.0333
  106SAPE  H10X10924   0.665   5.773   4.056  0.3434  1.6222  0.3304
  106SAPE  H10Y10925   0.734   5.818   4.210  1.1466 -1.7313  0.9654
  106SAPE  C31110926   0.836   5.655   4.120 -0.7087  0.4633 -0.4088
  106SAPE  H11X10927   0.923   5.674   4.186 -1.2653  2.8119 -0.2628
  106SAPE  H11Y10928   0.882   5.609   4.029  0.2592 -1.1357  0.8424
  106SAPE  C31210929   0.744   5.545   4.183 -1.2092 -0.5925  0.6454
  106SAPE  H12X10930   0.783   5.443   4.160  1.3000  1.1292 -3.8100
  106SAPE  H12Y10931   0.645   5.557   4.135  0.2099  1.6657 -1.9554
  106SAPE  C31310932   0.754   5.551   4.335  0.1150 -0.4675  0.1409
  106SAPE  H13X10933   0.707   5.641   4.378 -1.3505 -1.8533  1.5611
  106SAPE  H13Y10934   0.861   5.552   4.363  0.2874 -0.7239 -0.4830
  106SAPE  C31410935   0.687   5.423   4.406 -0.8750 -0.3873 -0.1224
  106SAPE  H14X10936   0.737   5.329   4.375 -1.3996 -1.2893  1.6418
  106SAPE  H14Y10937   0.584   5.423   4.366 -1.4200  1.7847  1.1274
  106SAPE  C31510938   0.705   5.418   4.560  0.6149 -0.3627  0.3828
  106SAPE  H15X10939   0.814   5.421   4.582  0.7543 -0.4367 -0.2951
  106SAPE  H15Y10940   0.668   5.315   4.582 -1.9917 -0.0610 -2.0364
  106SAPE  C31610941   0.619   5.527   4.630  0.2036 -0.1438  0.6244
  106SAPE  H16X10942   0.510   5.514   4.613  0.5257 -1.1290 -0.8619
  106SAPE  H16Y10943   0.638   5.627   4.586  0.3322 -0.3658  0.1720
  106SAPE  C31710944   0.640   5.535   4.787  0.5230  0.4711 -0.3559
  106SAPE  H17X10945   0.745   5.567   4.804  0.9905 -1.2360  0.2472
  106SAPE  H17Y10946   0.653   5.430   4.822 -0.9506  0.9419  1.8107
  106SAPE  C31810947   0.543   5.615   4.868 -1.2448  0.3755 -0.2375
  106SAPE  H18X10948   0.513   5.705   4.811 -0.3714 -1.2125 -3.4330
  106SAPE  H18Y10949   0.591   5.639   4.965  0.3612 -1.2531 -0.5839
  106SAPE  H18Z10950   0.457   5.558   4.907 -0.9620  0.4280  0.4720
  107SAPE     N10951   5.148   2.865   2.611 -0.2248  0.0961 -0.2271
  107SAPE   HN110952   5.137   2.780   2.671  0.0663  0.4842  0.3860
  107SAPE   HN210953   5.194   2.834   2.524  0.6970  0.9722 -0.0631
  107SAPE   HN310954   5.204   2.936   2.662 -3.3400  1.3258  1.7905
  107SAPE   C1210955   5.017   2.918   2.568 -0.1460  0.2449 -0.1691
  107SAPE  H12A10956   4.978   2.856   2.484 -0.2444  0.7601 -0.5075
  107SAPE  H12B10957   5.049   3.015   2.525 -1.7652  1.7040  1.7268
  107SAPE   C1110958   4.923   2.938   2.696 -0.2489 -0.2703  0.6098
  107SAPE  H11A10959   4.994   2.978   2.771  1.1575 -3.1960  0.9792
  107SAPE  H11B10960   4.904   2.838   2.742  1.1739  0.2431  2.3972
  107SAPE     P10961   4.698   2.977   2.577  0.2598 -0.6001 -0.0884
  107SAPE   O1310962   4.642   3.093   2.504  0.1330 -0.0308 -0.2568
  107SAPE   O1410963   4.741   2.874   2.484  0.1782  0.1405 -0.1864
  107SAPE   O1210964   4.809   3.024   2.679  0.5408 -0.1088  0.4320
  107SAPE   O1110965   4.593   2.915   2.675  0.3149 -0.8255  0.3161
  107SAPE    C110966   4.617   2.840   2.796 -0.4242  0.4237  0.1260
  107SAPE    HA10967   4.533   2.767   2.795 -1.6032  1.7086  1.7292
  107SAPE    HB10968   4.714   2.786   2.783 -2.5867 -3.6841 -0.6610
  107SAPE    C210969   4.596   2.924   2.928  0.2058  0.8497  0.5182
  107SAPE    HS10970   4.677   3.000   2.929  1.1727 -0.1607  0.8308
  107SAPE   O2110971   4.590   2.856   3.050  0.2886  0.3558 -0.6051
  107SAPE   C2110972   4.701   2.793   3.075 -0.5147  0.5071  0.0891
  107SAPE   O2210973   4.803   2.799   3.006 -0.4721  0.4912 -0.1401
  107SAPE   C2210974   4.668   2.690   3.190 -0.4122 -0.3006  0.4268
  107SAPE   H2R10975   4.598   2.725   3.268 -1.1664 -1.4852  0.3073
  107SAPE   H2S10976   4.621   2.608   3.131  1.0639 -1.3202  0.6027
  107SAPE    C310977   4.461   2.997   2.907  0.1179  0.2644  0.3848
  107SAPE    HX10978   4.377   2.926   2.896  1.3413 -1.1287 -0.3711
  107SAPE    HY10979   4.469   3.047   2.808 -0.5425 -1.0701 -0.3720
  107SAPE   O3110980   4.440   3.080   3.016  0.0983 -0.2618  0.0682
  107SAPE   C3110981   4.430   3.216   2.981 -0.5329 -0.0826 -0.2681
  107SAPE   O3210982   4.465   3.259   2.872 -0.2084  0.4288 -0.1976
  107SAPE   C3210983   4.388   3.310   3.094 -0.4767 -0.0672  0.0428
  107SAPE   H2X10984   4.465   3.285   3.170  1.6344 -1.0866 -2.2924
  107SAPE   H2Y10985   4.287   3.283   3.130 -0.3263  0.5690  0.9804
  107SAPE   C2310986   4.799   2.627   3.256  0.3455  0.0551 -0.1846
  107SAPE   H3R10987   4.874   2.597   3.180  0.0144  0.9995 -0.9119
  107SAPE   H3S10988   4.766   2.530   3.299 -3.2869  0.5766 -1.4228
  107SAPE   C2410989   4.857   2.707   3.371 -1.2411  0.2962 -0.9490
  107SAPE   H4R10990   4.771   2.728   3.438 -0.5152  1.4250 -0.3405
  107SAPE   H4S10991   4.885   2.807   3.331 -0.9072  0.7015  0.2499
  107SAPE   C2510992   4.974   2.645   3.454 -0.6881 -1.0355 -0.2776
  107SAPE   H5R10993   5.014   2.552   3.413 -1.3049 -1.2386 -0.4233
  107SAPE   C2610994   5.000   2.679   3.588 -0.4229  0.5266  0.4436
  107SAPE   H6R10995   5.088   2.626   3.628  0.2118  0.8799 -0.4592
  107SAPE   C2710996   4.933   2.787   3.669  0.3401  0.4330  0.6753
  107SAPE   H7R10997   4.831   2.772   3.628  1.0452 -0.6431 -0.7889
  107SAPE   H7S10998   4.967   2.887   3.634  0.6327 -0.3853 -1.5878
  107SAPE   C2810999   4.935   2.771   3.819 -0.3377  0.2638  0.6912
  107SAPE   H8R11000   5.014   2.830   3.868 -0.8097  1.8625 -0.3777
  107SAPE   C2911001   4.838   2.713   3.889 -0.2007  0.3219 -0.3374
  107SAPE   H9R11002   4.852   2.695   3.997 -0.2756  0.2630 -0.3366
  107SAPE  C21011003   4.712   2.657   3.829 -0.4442 -0.3202  0.2811
  107SAPE  H10R11004   4.667   2.581   3.897 -1.9925  2.2856  2.3464
  107SAPE  H10S11005   4.735   2.615   3.728  1.9023  1.3207  0.0732
  107SAPE  C21111006   4.602   2.762   3.788  0.3405 -1.0149 -0.2280
  107SAPE  H11R11007   4.599   2.775   3.679 -0.7441  1.2274  0.0220
  107SAPE  C21211008   4.524   2.836   3.869  0.1897  0.3562 -0.3461
  107SAPE  H12R11009   4.464   2.916   3.824  0.4190  0.9918  0.4643
  107SAPE  C21311010   4.511   2.815   4.014  0.6234 -0.4124 -0.1559
  107SAPE  H13R11011   4.552   2.902   4.070 -0.7999  0.0712  0.1751
  107SAPE  H13S11012   4.576   2.733   4.052  0.3306  0.4940  2.5383
  107SAPE  C21411013   4.375   2.784   4.053  0.1330  0.6134 -0.3575
  107SAPE  H14R11014   4.304   2.739   3.981 -1.9351 -1.5794  2.7789
  107SAPE  C21511015   4.314   2.813   4.172  0.0352 -0.0569 -0.2583
  107SAPE  H15R11016   4.219   2.760   4.186  0.5622 -1.6688 -2.2627
  107SAPE  C21611017   4.384   2.868   4.293  0.5080  0.3451 -0.1116
  107SAPE  H16R11018   4.380   2.979   4.288 -2.6346  0.3282 -0.0205
  107SAPE  H16S11019   4.489   2.832   4.289 -0.2909 -2.0381 -2.2625
  107SAPE  C21711020   4.316   2.833   4.425  0.0237  0.4815 -0.2133
  107SAPE  H17R11021   4.325   2.722   4.426 -1.3842  0.3242 -1.3854
  107SAPE  H17S11022   4.209   2.861   4.415  0.3468  0.9150 -3.2747
  107SAPE  C21811023   4.391   2.885   4.544  0.3566 -1.0375 -0.4935
  107SAPE  H18R11024   4.378   2.995   4.545 -0.2735 -1.1122  0.0055
  107SAPE  H18S11025   4.500   2.870   4.529  0.6240 -0.4527  0.7810
  107SAPE  C21911026   4.345   2.831   4.681  0.0486 -0.5259 -0.0850
  107SAPE  H19R11027   4.354   2.720   4.675  0.0145 -0.5756  0.6398
  107SAPE  H19S11028   4.240   2.860   4.702 -0.6132 -0.5971 -2.9375
  107SAPE  C22011029   4.437   2.884   4.791 -0.3424 -0.5747  0.5895
  107SAPE  H20R11030   4.385   2.836   4.877  0.0196 -2.2999 -0.1162
  107SAPE  H20S11031   4.446   2.995   4.794 -0.4587 -0.5763  1.0482
  107SAPE  H20T11032   4.537   2.837   4.788  0.4801  0.9779  2.0634
  107SAPE   C3311033   4.417   3.465   3.072 -0.1217 -0.2001  0.4371
  107SAPE   H3X11034   4.321   3.521   3.060 -0.7348 -0.5755  2.9992
  107SAPE   H3Y11035   4.488   3.479   2.988 -1.0918  0.5987 -0.2764
  107SAPE   C3411036   4.480   3.532   3.198 -0.3123 -0.8930  0.0751
  107SAPE   H4X11037   4.490   3.640   3.173  0.5241 -0.4006  2.3377
  107SAPE   H4Y11038   4.576   3.475   3.201  1.3081  1.5591 -1.2726
  107SAPE   C3511039   4.402   3.515   3.325 -0.0396  0.4034 -0.7218
  107SAPE   H5X11040   4.411   3.410   3.362 -2.2961  0.0865 -0.8971
  107SAPE   H5Y11041   4.299   3.543   3.294 -0.3685  0.6413  0.5431
  107SAPE   C3611042   4.452   3.604   3.435 -0.7095 -0.5531  0.3050
  107SAPE   H6X11043   4.441   3.710   3.403 -0.8932 -0.9969 -1.1978
  107SAPE   H6Y11044   4.562   3.599   3.448 -0.5607  0.8980 -0.1508
  107SAPE   C3711045   4.386   3.575   3.571 -0.3986 -0.0386 -0.6891
  107SAPE   H7X11046   4.375   3.465   3.585 -1.7050  0.2958  1.3345
  107SAPE   H7Y11047   4.284   3.618   3.575  0.5155  2.1460  1.4520
  107SAPE   C3811048   4.457   3.647   3.688  0.1456  0.2021 -0.2082
  107SAPE   H8X11049   4.458   3.757   3.672 -2.2408  0.1039 -1.5121
  107SAPE   H8Y11050   4.565   3.622   3.681  0.3318  0.6551  0.7931
  107SAPE   C3911051   4.408   3.594   3.822 -0.6506 -0.0641  0.4955
  107SAPE   H9X11052   4.420   3.484   3.830 -1.7389 -0.3633 -1.4289
  107SAPE   H9Y11053   4.299   3.616   3.828 -0.5796  0.2906  0.5457
  107SAPE  C31011054   4.478   3.658   3.951 -0.3055 -0.0860  0.1597
  107SAPE  H10X11055   4.586   3.635   3.960 -0.6941 -1.5245  1.7906
  107SAPE  H10Y11056   4.424   3.619   4.041 -1.0945 -4.0379 -1.7721
  107SAPE  C31111057   4.474   3.813   3.959 -0.1937 -0.6637  0.0538
  107SAPE  H11X11058   4.368   3.848   3.962  0.9100  3.0231  2.0437
  107SAPE  H11Y11059   4.514   3.853   3.864 -2.8453  0.9350 -0.5068
  107SAPE  C31211060   4.547   3.885   4.068  0.7357  0.1015 -0.2332
  107SAPE  H12X11061   4.652   3.904   4.036  0.4493 -2.0313 -2.7319
  107SAPE  H12Y11062   4.547   3.825   4.162 -2.3610  0.4881  0.0983
  107SAPE  C31311063   4.477   4.020   4.113 -0.2354  0.0125 -0.3643
  107SAPE  H13X11064   4.383   3.990   4.163 -0.1650  1.6911  0.8562
  107SAPE  H13Y11065   4.457   4.069   4.015  0.0093 -0.2715 -0.5568
  107SAPE  C31411066   4.561   4.101   4.211  0.3548 -0.1655 -0.0408
  107SAPE  H14X11067   4.647   4.146   4.157  0.3504 -3.1099 -2.7897
  107SAPE  H14Y11068   4.590   4.027   4.288  0.2178 -1.7105 -1.4263
  107SAPE  C31511069   4.474   4.215   4.266 -0.2382 -0.7879 -1.1629
  107SAPE  H15X11070   4.546   4.273   4.327 -0.4267 -2.5103  0.8393
  107SAPE  H15Y11071   4.403   4.173   4.341  1.9454  0.3936  1.8016
  107SAPE  C31611072   4.410   4.315   4.163 -0.2067  0.1854  0.0533
  107SAPE  H16X11073   4.309   4.286   4.126 -1.5245  1.0443  2.6600
  107SAPE  H16Y11074   4.477   4.331   4.076 -0.6595 -1.9944 -0.7690
  107SAPE  C31711075   4.384   4.456   4.221 -0.2037 -0.4649 -0.4281
  107SAPE  H17X11076   4.337   4.514   4.139  1.7479  0.5924 -0.8674
  107SAPE  H17Y11077   4.462   4.517   4.273 -1.5141  1.5380 -0.7115
  107SAPE  C31811078   4.272   4.451   4.328 -0.5921  0.6168  0.0618
  107SAPE  H18X11079   4.190   4.382   4.298  0.5243 -0.5795 -0.3568
  107SAPE  H18Y11080   4.237   4.556   4.337 -0.3444  0.6306  0.9337
  107SAPE  H18Z11081   4.319   4.411   4.421 -2.3165 -1.7621  0.0156
  108SAPE     N11082   1.988   4.501   1.961 -0.0031 -0.3788 -0.3581
  108SAPE   HN111083   1.917   4.443   1.912 -2.5159 -0.5510  3.0897
  108SAPE   HN211084   2.058   4.434   1.997 -0.5347  0.3387  2.2703
  108SAPE   HN311085   1.937   4.534   2.046 -0.4720 -2.3293  0.1667
  108SAPE   C1211086   2.028   4.616   1.868  0.1083 -0.0403 -0.4075
  108SAPE  H12A11087   2.084   4.566   1.786 -0.3091 -2.0624  0.4887
  108SAPE  H12B11088   2.092   4.681   1.931 -0.2843  0.3597 -0.4130
  108SAPE   C1111089   1.903   4.687   1.820 -0.2557 -0.6559 -0.6733
  108SAPE  H11A11090   1.844   4.635   1.742 -0.8779  1.8156 -1.9385
  108SAPE  H11B11091   1.942   4.774   1.763 -0.9362 -0.0598 -0.2365
  108SAPE     P11092   1.699   4.798   1.909  0.2397  0.1231 -0.6432
  108SAPE   O1311093   1.728   4.940   1.891  0.6474  0.2938 -0.3454
  108SAPE   O1411094   1.628   4.733   1.797 -0.3833  0.6178 -0.0448
  108SAPE   O1211095   1.827   4.714   1.938  0.1032  0.2876  0.5648
  108SAPE   O1111096   1.618   4.770   2.046 -1.0413 -0.1224  0.3983
  108SAPE    C111097   1.665   4.683   2.150  0.0728 -0.4080  0.8416
  108SAPE    HA11098   1.691   4.587   2.099 -1.3648 -1.0938  1.3345
  108SAPE    HB11099   1.750   4.737   2.198 -0.9829  2.7467 -0.6250
  108SAPE    C211100   1.566   4.667   2.261  0.4586  0.2065  0.3035
  108SAPE    HS11101   1.475   4.636   2.206  1.5729  1.1537 -2.1808
  108SAPE   O2111102   1.535   4.790   2.327  0.6668 -0.3949 -0.1102
  108SAPE   C2111103   1.418   4.796   2.393 -0.1444  0.2797  0.3964
  108SAPE   O2211104   1.333   4.711   2.406 -0.3128  0.2022  0.4637
  108SAPE   C2211105   1.419   4.931   2.460 -0.2946 -0.7598  0.9739
  108SAPE   H2R11106   1.521   4.940   2.503  0.4716  1.6342 -1.0888
  108SAPE   H2S11107   1.427   5.005   2.378  2.2563 -0.1211  1.6959
  108SAPE    C311108   1.605   4.559   2.360 -0.4382 -0.5097  0.9365
  108SAPE    HX11109   1.620   4.472   2.293  3.3932  0.0347  0.8365
  108SAPE    HY11110   1.532   4.530   2.439 -2.6371 -1.7640 -1.4252
  108SAPE   O3111111   1.739   4.580   2.406  0.8806 -0.4666  0.0335
  108SAPE   C3111112   1.742   4.665   2.513  0.1738  0.7325 -0.0526
  108SAPE   O3211113   1.645   4.709   2.577  0.0570  0.2914 -0.0115
  108SAPE   C3211114   1.894   4.700   2.534 -0.0459 -0.1239 -0.8504
  108SAPE   H2X11115   1.892   4.806   2.570  0.1997 -1.1999  2.7486
  108SAPE   H2Y11116   1.951   4.691   2.440  0.3431  1.1580 -0.7637
  108SAPE   C2311117   1.312   4.959   2.562  0.0033 -0.5234  0.5410
  108SAPE   H3R11118   1.354   5.049   2.611 -0.8179  0.2009 -0.0566
  108SAPE   H3S11119   1.308   4.877   2.637 -1.3712 -0.5342  0.4897
  108SAPE   C2411120   1.170   4.979   2.504  0.0844  0.4022  0.1767
  108SAPE   H4R11121   1.107   4.993   2.594 -2.4398  2.0711 -1.7392
  108SAPE   H4S11122   1.145   4.881   2.458 -1.4720  1.3846 -1.1565
  108SAPE   C2511123   1.150   5.097   2.415  0.9680  0.0464  0.1189
  108SAPE   H5R11124   1.177   5.066   2.313 -2.1952 -1.4910 -0.4023
  108SAPE   C2611125   1.100   5.216   2.439 -0.2871 -0.0576  0.1424
  108SAPE   H6R11126   1.095   5.291   2.359 -2.0526  0.0338  0.3111
  108SAPE   C2711127   1.045   5.271   2.567  0.4837 -0.4868 -0.0731
  108SAPE   H7R11128   1.003   5.188   2.627  0.8301 -0.1030  0.7181
  108SAPE   H7S11129   0.958   5.333   2.537  0.1991 -1.2224 -0.8124
  108SAPE   C2811130   1.142   5.348   2.652 -0.5990  0.0666  0.2083
  108SAPE   H8R11131   1.212   5.393   2.581 -0.5876 -0.2166  0.0386
  108SAPE   C2911132   1.170   5.348   2.782  0.5707  0.2391  0.3249
  108SAPE   H9R11133   1.253   5.408   2.822  0.5716 -0.1977  0.9815
  108SAPE  C21011134   1.083   5.287   2.894  0.0970 -0.1319  0.3393
  108SAPE  H10R11135   1.004   5.223   2.848 -0.7178  1.2001 -0.1669
  108SAPE  H10S11136   1.048   5.371   2.958  0.5540 -0.3760  0.9125
  108SAPE  C21111137   1.166   5.207   2.987  0.6811 -0.2849 -0.0495
  108SAPE  H11R11138   1.252   5.163   2.936  1.8263  1.1349  0.5558
  108SAPE  C21211139   1.141   5.199   3.118 -0.3751  0.2375  0.5725
  108SAPE  H12R11140   1.196   5.121   3.172 -0.5902 -0.7777 -0.6366
  108SAPE  C21311141   1.035   5.269   3.203 -0.6746  0.9143  0.1321
  108SAPE  H13R11142   0.990   5.186   3.261 -0.7663 -0.6822 -2.0915
  108SAPE  H13S11143   0.957   5.311   3.135 -0.5498  0.1054 -0.5277
  108SAPE  C21411144   1.088   5.386   3.287 -0.2704 -0.3610  0.5608
  108SAPE  H14R11145   1.137   5.456   3.217 -1.9964 -0.4997 -0.8595
  108SAPE  C21511146   1.110   5.392   3.416  0.2984  0.6876  0.4110
  108SAPE  H15R11147   1.139   5.486   3.464 -0.7845  1.8086 -1.0498
  108SAPE  C21611148   1.069   5.283   3.511  0.3930  0.5198 -0.2352
  108SAPE  H16R11149   1.145   5.204   3.526  1.4017  1.9168  2.7080
  108SAPE  H16S11150   0.985   5.225   3.467 -1.6825  1.9043  1.6222
  108SAPE  C21711151   1.026   5.327   3.657  0.8515  0.1516  0.2801
  108SAPE  H17R11152   0.942   5.398   3.643 -0.8567 -2.2666 -3.1357
  108SAPE  H17S11153   1.111   5.376   3.710  0.3176  0.4845  0.8526
  108SAPE  C21811154   0.974   5.215   3.747  0.8152 -0.5864  0.2464
  108SAPE  H18R11155   1.056   5.162   3.799  1.2051  1.4564  1.8355
  108SAPE  H18S11156   0.916   5.132   3.702  2.1096 -2.3994  1.7496
  108SAPE  C21911157   0.891   5.279   3.861  0.1258  0.8051  0.4180
  108SAPE  H19R11158   0.786   5.295   3.827 -0.4553  0.5760  1.9710
  108SAPE  H19S11159   0.919   5.385   3.880  0.3756  0.7916  0.1316
  108SAPE  C22011160   0.891   5.197   3.995  0.1150 -0.3843 -0.1835
  108SAPE  H20R11161   0.886   5.091   3.961 -1.1531  0.1988 -1.9383
  108SAPE  H20S11162   0.814   5.231   4.067 -1.3538 -1.5838 -1.1403
  108SAPE  H20T11163   0.994   5.199   4.038  0.7576 -1.1324 -1.6093
  108SAPE   C3311164   1.974   4.622   2.635 -0.9198  0.8419  0.2733
  108SAPE   H3X11165   2.080   4.643   2.609 -1.1731  1.2554 -0.4554
  108SAPE   H3Y11166   1.964   4.512   2.626 -0.2086  0.8634 -1.0690
  108SAPE   C3411167   1.952   4.653   2.782  0.0983 -0.3862  0.0829
  108SAPE   H4X11168   1.843   4.651   2.799 -0.0040  0.0058 -0.5315
  108SAPE   H4Y11169   1.996   4.749   2.816  1.5575 -0.6346 -0.9766
  108SAPE   C3511170   2.016   4.550   2.880  0.6972 -0.1308  0.0949
  108SAPE   H5X11171   1.988   4.452   2.837  3.5756 -0.4133 -1.4086
  108SAPE   H5Y11172   2.125   4.571   2.867  0.8151  0.3157  1.6217
  108SAPE   C3611173   1.963   4.564   3.022 -0.3275 -0.3836 -0.6049
  108SAPE   H6X11174   1.984   4.672   3.040 -0.3986 -0.1567 -1.8304
  108SAPE   H6Y11175   2.036   4.516   3.091  0.2248  0.2646 -0.7209
  108SAPE   C3711176   1.821   4.526   3.056 -0.5903  0.3070 -0.2198
  108SAPE   H7X11177   1.808   4.430   3.002  2.9594 -1.2827  1.4047
  108SAPE   H7Y11178   1.757   4.607   3.014  0.4995  1.9495  1.1492
  108SAPE   C3811179   1.793   4.521   3.203 -0.4178  0.6573  0.5708
  108SAPE   H8X11180   1.689   4.483   3.218  0.1147 -1.2287 -0.2634
  108SAPE   H8Y11181   1.809   4.622   3.247 -0.1870  0.2849  1.3595
  108SAPE   C3911182   1.887   4.422   3.280  0.8541 -0.6328  0.4354
  108SAPE   H9X11183   1.982   4.471   3.310  0.5419  0.0337  0.3541
  108SAPE   H9Y11184   1.906   4.327   3.225 -0.0298 -0.3637 -0.3594
  108SAPE  C31011185   1.833   4.380   3.418  0.5019 -0.4132  0.0796
  108SAPE  H10X11186   1.764   4.293   3.422  3.6476 -3.0659  1.0555
  108SAPE  H10Y11187   1.766   4.461   3.456  0.7864 -0.0713 -0.1326
  108SAPE  C31111188   1.941   4.336   3.519 -0.1781 -0.2355  0.0001
  108SAPE  H11X11189   2.013   4.419   3.538  0.5288 -0.7872 -0.2327
  108SAPE  H11Y11190   1.974   4.232   3.498 -0.2678 -0.9514  3.0683
  108SAPE  C31211191   1.869   4.321   3.657  0.3030 -0.3758  0.2060
  108SAPE  H12X11192   1.764   4.288   3.644 -0.0941  0.5829  0.8106
  108SAPE  H12Y11193   1.869   4.425   3.697  1.5857 -0.6784  1.0884
  108SAPE  C31311194   1.951   4.236   3.749 -0.7224  0.1690 -0.8996
  108SAPE  H13X11195   2.060   4.261   3.746 -0.0431 -2.0729  1.5126
  108SAPE  H13Y11196   1.947   4.136   3.701 -0.8072  0.7932 -2.2175
  108SAPE  C31411197   1.913   4.236   3.895 -0.0053  0.3233 -0.6361
  108SAPE  H14X11198   1.807   4.205   3.910  0.0768  0.4918  0.3901
  108SAPE  H14Y11199   1.922   4.342   3.927 -1.6916  1.4900 -3.6072
  108SAPE  C31511200   1.987   4.148   3.981 -0.8887  0.3554  0.3558
  108SAPE  H15X11201   2.093   4.175   3.961 -0.7132 -0.9586 -0.6250
  108SAPE  H15Y11202   1.986   4.039   3.959 -1.7486  0.3601  0.3423
  108SAPE  C31611203   1.975   4.132   4.135  0.4575  0.2780 -0.0602
  108SAPE  H16X11204   1.868   4.107   4.151  0.4987 -0.5705 -1.0422
  108SAPE  H16Y11205   2.003   4.232   4.175 -1.5234  0.5851  0.6759
  108SAPE  C31711206   2.064   4.023   4.202 -0.2224 -0.1678 -0.3376
  108SAPE  H17X11207   2.155   4.039   4.141 -2.2735  0.7486 -3.4222
  108SAPE  H17Y11208   2.034   3.918   4.182 -0.1643 -0.2119 -0.1921
  108SAPE  C31811209   2.086   4.046   4.351 -0.2515  0.6565  0.3049
  108SAPE  H18X11210   2.111   4.153   4.366  1.0429  0.1548  2.1014
  108SAPE  H18Y11211   2.175   3.994   4.394 -0.3071  0.9445  0.7731
  108SAPE  H18Z11212   2.002   4.013   4.415  0.1702 -2.0636 -0.3826
  109SAPE     N11213   4.776   1.055   2.866  0.7903  0.1529  0.1722
  109SAPE   HN111214   4.843   0.976   2.874  0.0090 -0.8504 -2.2487
  109SAPE   HN211215   4.711   1.022   2.792  1.9816 -0.0936 -0.7932
  109SAPE   HN311216   4.813   1.148   2.835  0.7283  0.3496  0.6736
  109SAPE   C1211217   4.703   1.078   2.995 -0.0344  0.0776  0.0515
  109SAPE  H12A11218   4.767   1.067   3.086 -1.2861  0.6203  1.0264
  109SAPE  H12B11219   4.621   1.004   3.005  0.6910 -0.5861  1.5964
  109SAPE   C1111220   4.631   1.215   2.996 -0.4683  0.4598  0.3624
  109SAPE  H11A11221   4.564   1.209   3.084 -0.5529  0.2019  0.2814
  109SAPE  H11B11222   4.559   1.218   2.912  0.0690  1.4400 -0.0799
  109SAPE     P11223   4.748   1.419   2.886  0.2204  0.1363 -0.3058
  109SAPE   O1311224   4.805   1.331   2.781 -0.0144 -0.0496 -0.9174
  109SAPE   O1411225   4.615   1.483   2.852  0.1272  0.7247 -0.2856
  109SAPE   O1211226   4.724   1.327   3.011  0.4711 -0.0144  0.1524
  109SAPE   O1111227   4.849   1.526   2.935 -0.6909  0.0652  0.2881
  109SAPE    C111228   4.955   1.499   3.016 -0.0963  0.3963 -0.4067
  109SAPE    HA11229   4.967   1.391   3.041 -0.6394  0.9189  2.4638
  109SAPE    HB11230   5.042   1.524   2.952 -0.7835  3.6793 -0.2248
  109SAPE    C211231   4.955   1.574   3.152  0.0488  0.0682  0.1534
  109SAPE    HS11232   5.026   1.527   3.223  0.6575  0.4569 -0.1878
  109SAPE   O2111233   4.823   1.573   3.205 -0.2569  0.5226  0.1790
  109SAPE   C2111234   4.796   1.454   3.258 -0.3440  0.2148 -0.9263
  109SAPE   O2211235   4.877   1.366   3.275  0.1440  0.9025 -0.0240
  109SAPE   C2211236   4.653   1.456   3.293  0.1245 -0.1470  0.1039
  109SAPE   H2R11237   4.625   1.548   3.348 -0.7393  0.0370 -0.6194
  109SAPE   H2S11238   4.595   1.461   3.198  0.3879 -1.1272 -0.1211
  109SAPE    C311239   5.003   1.724   3.133 -0.3566  0.1802 -0.8662
  109SAPE    HX11240   5.016   1.780   3.228 -1.4632 -0.3852 -0.3627
  109SAPE    HY11241   4.923   1.780   3.079  0.8847  2.4652 -0.4563
  109SAPE   O3111242   5.132   1.726   3.060  0.1454  0.6569 -0.1994
  109SAPE   C3111243   5.248   1.716   3.125 -0.4412 -0.0940  0.3201
  109SAPE   O3211244   5.253   1.694   3.240  0.3496  0.0603 -0.6966
  109SAPE   C3211245   5.364   1.733   3.020  0.1060 -0.6473  0.0009
  109SAPE   H2X11246   5.359   1.840   2.991 -1.2624 -0.5264  0.5780
  109SAPE   H2Y11247   5.336   1.663   2.939  0.1082 -1.3254  0.5721
  109SAPE   C2311248   4.610   1.316   3.364  0.1334 -0.2600 -0.4904
  109SAPE   H3R11249   4.679   1.236   3.331 -0.0994 -1.6205  2.0313
  109SAPE   H3S11250   4.512   1.275   3.330  0.3021 -0.0629 -1.2164
  109SAPE   C2411251   4.589   1.328   3.524 -0.3588 -0.7335  0.2286
  109SAPE   H4R11252   4.583   1.222   3.557  0.7706 -1.6519 -2.2157
  109SAPE   H4S11253   4.491   1.377   3.538 -0.2865 -0.4123 -0.3477
  109SAPE   C2511254   4.710   1.404   3.586 -0.2294  0.0262 -0.2105
  109SAPE   H5R11255   4.812   1.378   3.554  0.4373  0.3248  1.5675
  109SAPE   C2611256   4.694   1.500   3.678  0.2451  0.1831 -0.4110
  109SAPE   H6R11257   4.780   1.553   3.722 -2.4349  2.6404  2.3411
  109SAPE   C2711258   4.563   1.534   3.741  0.2017 -0.7390  0.7386
  109SAPE   H7R11259   4.578   1.555   3.849 -0.5993 -0.5852  0.8326
  109SAPE   H7S11260   4.487   1.452   3.741  1.9193 -2.4135  0.6845
  109SAPE   C2811261   4.492   1.657   3.668 -0.4827 -0.1844 -0.1187
  109SAPE   H8R11262   4.443   1.633   3.573 -1.4081 -2.4039  0.8472
  109SAPE   C2911263   4.467   1.780   3.726  0.1520  0.2179  0.3889
  109SAPE   H9R11264   4.418   1.856   3.663  1.2569  0.7153  0.1014
  109SAPE  C21011265   4.524   1.830   3.858  0.1670  0.5377  0.9505
  109SAPE  H10R11266   4.632   1.846   3.837  0.1912 -1.5587 -0.9875
  109SAPE  H10S11267   4.522   1.757   3.942  0.0928  1.4456  1.7545
  109SAPE  C21111268   4.474   1.965   3.895  1.0079 -0.0088  0.0957
  109SAPE  H11R11269   4.508   2.053   3.837 -2.3436  0.2240 -1.7480
  109SAPE  C21211270   4.394   1.988   4.001  0.5170 -0.2588 -0.6787
  109SAPE  H12R11271   4.337   2.081   4.006  1.9196  0.6227 -0.6646
  109SAPE  C21311272   4.342   1.885   4.102 -0.2501 -0.2563  0.2079
  109SAPE  H13R11273   4.285   1.806   4.049 -0.8470  0.3296 -0.0343
  109SAPE  H13S11274   4.262   1.928   4.166  1.1474  2.3546  0.3636
  109SAPE  C21411275   4.447   1.807   4.184 -0.1052 -0.0737 -0.3863
  109SAPE  H14R11276   4.528   1.747   4.140  1.4308  1.2205  0.5921
  109SAPE  C21511277   4.445   1.798   4.321 -0.0973 -0.1112 -0.7635
  109SAPE  H15R11278   4.514   1.731   4.374 -1.2321 -2.5203 -2.0977
  109SAPE  C21611279   4.343   1.855   4.414 -0.1523 -0.5884  0.1570
  109SAPE  H16R11280   4.335   1.788   4.503 -2.0610 -1.5047 -0.6469
  109SAPE  H16S11281   4.241   1.858   4.369 -0.0628 -1.3398 -0.1085
  109SAPE  C21711282   4.370   1.987   4.474 -0.3790 -0.3510 -0.0277
  109SAPE  H17R11283   4.275   2.023   4.518  0.5457  2.2042  0.0446
  109SAPE  H17S11284   4.395   2.065   4.398  1.9213  1.1053  2.0725
  109SAPE  C21811285   4.473   1.994   4.583 -0.4316 -0.3767 -0.3247
  109SAPE  H18R11286   4.482   2.093   4.632  0.9491 -1.5825  2.0766
  109SAPE  H18S11287   4.574   1.974   4.543  0.3853  0.8481  1.0271
  109SAPE  C21911288   4.452   1.908   4.711 -0.2428 -0.3892  0.4034
  109SAPE  H19R11289   4.522   1.947   4.788 -0.2110  2.4171 -0.9293
  109SAPE  H19S11290   4.463   1.801   4.680  1.7323 -0.2380  0.4531
  109SAPE  C22011291   4.311   1.937   4.771 -0.2131 -0.0203 -0.5559
  109SAPE  H20R11292   4.229   1.906   4.702  0.2954 -1.1210 -0.6830
  109SAPE  H20S11293   4.303   2.046   4.791  0.7514  0.0510 -0.5393
  109SAPE  H20T11294   4.305   1.888   4.870  2.2087 -2.7833 -1.6303
  109SAPE   C3311295   5.504   1.719   3.086  0.7517 -0.3801 -0.1118
  109SAPE   H3X11296   5.523   1.798   3.162  0.9612  1.2731 -1.8342
  109SAPE   H3Y11297   5.573   1.738   3.001  1.2777 -1.2882  0.0941
  109SAPE   C3411298   5.528   1.581   3.141  0.5284  0.6753 -0.7159
  109SAPE   H4X11299   5.513   1.506   3.060  1.4108 -1.3446  0.9093
  109SAPE   H4Y11300   5.451   1.551   3.215  0.6338 -0.0483 -0.8906
  109SAPE   C3511301   5.673   1.563   3.189  0.5159 -0.2692  0.0370
  109SAPE   H5X11302   5.740   1.578   3.102  1.3581 -0.8989  0.5560
  109SAPE   H5Y11303   5.694   1.458   3.220 -0.5511  0.0480  1.9881
  109SAPE   C3611304   5.718   1.649   3.303 -0.0809 -0.4863 -0.6815
  109SAPE   H6X11305   5.711   1.756   3.275 -1.3562 -0.5060 -0.4917
  109SAPE   H6Y11306   5.825   1.634   3.331 -0.2393 -1.3667 -0.5282
  109SAPE   C3711307   5.663   1.621   3.448 -0.9760 -0.2581  0.4996
  109SAPE   H7X11308   5.657   1.510   3.461 -0.7532 -0.5086 -1.2968
  109SAPE   H7Y11309   5.561   1.665   3.449 -0.8331  0.0956  2.3184
  109SAPE   C3811310   5.737   1.686   3.567  0.4886 -0.9101 -0.1694
  109SAPE   H8X11311   5.763   1.791   3.544 -2.2601 -0.5250 -2.0414
  109SAPE   H8Y11312   5.836   1.636   3.571  0.4114 -1.0692 -0.2332
  109SAPE   C3911313   5.660   1.677   3.692  0.7157 -0.0389 -0.5246
  109SAPE   H9X11314   5.642   1.571   3.722  1.2685  0.0361  0.1117
  109SAPE   H9Y11315   5.559   1.723   3.681  0.6273  1.0430  3.3543
  109SAPE  C31011316   5.724   1.762   3.806  0.3162  0.6200 -0.7400
  109SAPE  H10X11317   5.725   1.868   3.772 -4.1810  1.5819  1.3019
  109SAPE  H10Y11318   5.828   1.726   3.823 -0.2095 -0.6138 -0.0480
  109SAPE  C31111319   5.649   1.760   3.936 -0.6743  0.2456  0.3613
  109SAPE  H11X11320   5.641   1.654   3.967  2.6129  0.1665  1.2650
  109SAPE  H11Y11321   5.543   1.793   3.926 -1.0927 -0.6919  1.4734
  109SAPE  C31211322   5.720   1.835   4.051  0.1775  0.1112 -0.1386
  109SAPE  H12X11323   5.715   1.943   4.027  1.2058  0.1771 -0.1273
  109SAPE  H12Y11324   5.826   1.805   4.066 -0.7354 -3.0067  0.9250
  109SAPE  C31311325   5.651   1.819   4.188 -0.0077  0.1120 -0.7394
  109SAPE  H13X11326   5.681   1.717   4.218  0.9909 -0.1521 -2.4621
  109SAPE  H13Y11327   5.541   1.829   4.176 -0.2449 -2.1981 -0.9591
  109SAPE  C31411328   5.711   1.915   4.291  0.9632 -0.1766  0.0977
  109SAPE  H14X11329   5.717   2.019   4.252  0.1337 -0.9760 -2.3582
  109SAPE  H14Y11330   5.817   1.887   4.304  1.2745  0.2065 -1.4997
  109SAPE  C31511331   5.631   1.914   4.427  0.1888  0.0303  0.9854
  109SAPE  H15X11332   5.629   1.812   4.471  1.7206 -0.4939 -0.0545
  109SAPE  H15Y11333   5.525   1.945   4.416  0.7561  2.1567  0.9337
  109SAPE  C31611334   5.682   2.025   4.518 -0.0611 -0.4957 -0.0081
  109SAPE  H16X11335   5.609   2.045   4.599 -0.7000 -0.0914 -0.6800
  109SAPE  H16Y11336   5.681   2.115   4.453  1.7200 -0.8532 -0.6009
  109SAPE  C31711337   5.825   1.983   4.565  0.1028 -0.1680 -0.2010
  109SAPE  H17X11338   5.866   2.073   4.615  1.1182 -1.2820  1.0410
  109SAPE  H17Y11339   5.890   1.954   4.480 -0.9145  2.2799 -1.9210
  109SAPE  C31811340   5.830   1.862   4.661 -0.2413 -0.4316  0.5167
  109SAPE  H18X11341   5.835   1.772   4.595 -0.0857  0.3215 -0.5184
  109SAPE  H18Y11342   5.734   1.855   4.717 -0.8666  0.8990 -0.3499
  109SAPE  H18Z11343   5.914   1.857   4.734 -1.0351 -1.4767  1.3893
  110SAPE     N11344   5.205   6.890   2.930 -0.2423  0.4986 -0.4210
  110SAPE   HN111345   5.288   6.828   2.921 -0.4350  0.2474 -0.4791
  110SAPE   HN211346   5.161   6.867   2.839  1.7815 -1.1487 -1.0506
  110SAPE   HN311347   5.228   6.990   2.944  1.8793 -0.2029  1.8646
  110SAPE   C1211348   5.119   6.849   3.045  0.1811  0.2234 -0.2798
  110SAPE  H12A11349   5.172   6.894   3.132  0.1603  2.0898 -1.1979
  110SAPE  H12B11350   5.122   6.738   3.053 -2.1091  0.1866  0.9410
  110SAPE   C1111351   4.970   6.883   3.021  0.1476  0.0796  0.3789
  110SAPE  H11A11352   4.953   6.985   2.981 -1.4721 -1.3884 -3.1289
  110SAPE  H11B11353   4.911   6.876   3.114 -1.6178  1.4968 -0.5637
  110SAPE     P11354   4.851   6.662   2.924  0.0203 -0.0192 -0.1557
  110SAPE   O1311355   4.701   6.662   2.916 -0.1827 -0.2683 -0.1971
  110SAPE   O1411356   4.929   6.586   2.823 -0.2054  0.1645 -0.7113
  110SAPE   O1211357   4.904   6.807   2.919 -0.3985 -0.2618  0.2582
  110SAPE   O1111358   4.900   6.622   3.069 -0.0048 -0.1023  0.1635
  110SAPE    C111359   4.804   6.579   3.170 -0.8805  1.0152  0.2974
  110SAPE    HA11360   4.745   6.665   3.208 -3.7953  0.6707 -2.9081
  110SAPE    HB11361   4.729   6.500   3.147 -0.1322 -0.2599  1.9494
  110SAPE    C211362   4.889   6.534   3.291  0.4002 -0.4053 -0.2196
  110SAPE    HS11363   4.941   6.438   3.268  0.2996 -0.5066 -0.0240
  110SAPE   O2111364   4.793   6.527   3.404 -0.5694 -0.7554  0.5224
  110SAPE   C2111365   4.743   6.411   3.430 -0.6516  0.1676 -0.6825
  110SAPE   O2211366   4.759   6.311   3.362 -0.0767  0.3885 -0.4960
  110SAPE   C2211367   4.652   6.415   3.545 -0.0337 -0.5605 -0.6653
  110SAPE   H2R11368   4.683   6.485   3.626 -3.8822  1.8744 -1.0020
  110SAPE   H2S11369   4.561   6.459   3.498 -0.2274 -0.8818 -0.5969
  110SAPE    C311370   4.998   6.633   3.335  0.5432  0.8433 -0.5542
  110SAPE    HX11371   5.080   6.638   3.259  0.6477  0.5700 -0.4618
  110SAPE    HY11372   4.929   6.719   3.345 -0.7638 -0.0367 -1.6618
  110SAPE   O3111373   5.056   6.592   3.464 -0.3795  0.0550  0.3039
  110SAPE   C3111374   5.151   6.498   3.462 -0.5472 -0.6318  0.6275
  110SAPE   O3211375   5.199   6.448   3.361 -0.1359  0.2472  0.2012
  110SAPE   C3211376   5.211   6.476   3.607 -0.5494 -0.4077 -0.3420
  110SAPE   H2X11377   5.131   6.422   3.663 -0.5324 -0.1966 -0.1161
  110SAPE   H2Y11378   5.230   6.577   3.646 -0.0162 -0.2914 -0.8756
  110SAPE   C2311379   4.624   6.272   3.618 -0.3121 -0.4117  0.8866
  110SAPE   H3R11380   4.723   6.236   3.653  0.4494 -0.4334 -1.1405
  110SAPE   H3S11381   4.607   6.194   3.541  1.2693 -1.8109  1.8802
  110SAPE   C2411382   4.510   6.285   3.719 -0.3283  0.2754  0.8941
  110SAPE   H4R11383   4.422   6.322   3.662 -0.6121  0.6571  1.5773
  110SAPE   H4S11384   4.541   6.368   3.785 -0.3666  2.2028 -1.3591
  110SAPE   C2511385   4.495   6.151   3.787  0.4080 -0.1519 -0.2413
  110SAPE   H5R11386   4.466   6.073   3.714  1.5357 -1.8203  1.0290
  110SAPE   C2611387   4.486   6.123   3.915  0.2371  0.0489  0.3867
  110SAPE   H6R11388   4.470   6.018   3.941  1.6115 -0.0688  0.8157
  110SAPE   C2711389   4.508   6.227   4.027 -0.0251  0.2571  0.9485
  110SAPE   H7R11390   4.405   6.246   4.065 -0.1625 -2.6361  2.2386
  110SAPE   H7S11391   4.541   6.320   3.975  0.9258 -0.2911  0.5562
  110SAPE   C2811392   4.604   6.191   4.137  1.1526  0.1918  0.4074
  110SAPE   H8R11393   4.710   6.181   4.112  1.6615  3.1243  1.0297
  110SAPE   C2911394   4.576   6.176   4.271 -0.8110 -0.3384  0.3942
  110SAPE   H9R11395   4.655   6.133   4.334 -0.4117 -1.5152 -0.8466
  110SAPE  C21011396   4.439   6.185   4.334  0.8273  0.1831 -0.6451
  110SAPE  H10R11397   4.357   6.203   4.261  0.9068  1.0142 -0.5381
  110SAPE  H10S11398   4.439   6.274   4.402 -0.6055  0.4902 -1.0175
  110SAPE  C21111399   4.395   6.079   4.435  0.0829 -0.0255 -0.0514
  110SAPE  H11R11400   4.382   6.118   4.537  1.3198  1.8249 -0.5411
  110SAPE  C21211401   4.394   5.950   4.415 -0.1006 -0.1351  0.2104
  110SAPE  H12R11402   4.357   5.877   4.489  2.4097 -2.0913 -0.3359
  110SAPE  C21311403   4.397   5.886   4.279 -0.0261 -0.0488 -0.5129
  110SAPE  H13R11404   4.492   5.828   4.274 -0.5028 -0.9465  0.3899
  110SAPE  H13S11405   4.409   5.954   4.192 -0.4013 -1.0942 -1.4172
  110SAPE  C21411406   4.272   5.810   4.246  0.6347 -0.2566 -1.1831
  110SAPE  H14R11407   4.289   5.702   4.262 -0.2761 -0.3054 -0.4823
  110SAPE  C21511408   4.151   5.852   4.199  0.1548 -0.1541 -0.0639
  110SAPE  H15R11409   4.065   5.784   4.190 -0.6297  0.8342 -0.2022
  110SAPE  C21611410   4.122   5.994   4.151 -0.0188  0.1452 -1.0840
  110SAPE  H16R11411   4.208   6.063   4.167 -0.6231  0.3239  1.9143
  110SAPE  H16S11412   4.035   6.036   4.206  0.8226 -1.3165  1.5302
  110SAPE  C21711413   4.090   6.000   4.010  0.0953  0.5691  0.5447
  110SAPE  H17R11414   3.993   5.947   4.015  0.5214 -0.1876  1.0697
  110SAPE  H17S11415   4.167   5.947   3.950 -1.7218 -2.2280  0.4876
  110SAPE  C21811416   4.071   6.141   3.955  0.4022 -0.3830 -0.3735
  110SAPE  H18R11417   4.160   6.207   3.967  0.5855 -1.0168  2.5800
  110SAPE  H18S11418   3.993   6.190   4.017  1.2604  3.2779 -1.9223
  110SAPE  C21911419   4.018   6.147   3.813 -0.1797  0.2406 -0.3090
  110SAPE  H19R11420   3.922   6.092   3.810  0.2434 -0.5727  0.5904
  110SAPE  H19S11421   4.084   6.088   3.746 -1.2665 -0.1784 -1.0532
  110SAPE  C22011422   3.992   6.288   3.754 -0.3027  0.9570  0.4218
  110SAPE  H20R11423   4.079   6.356   3.765 -0.2333  1.0775 -0.7717
  110SAPE  H20S11424   3.902   6.341   3.791 -1.2957  0.4909 -1.2376
  110SAPE  H20T11425   3.974   6.280   3.645  0.3160 -1.1038  0.4173
  110SAPE   C3311426   5.346   6.403   3.591 -0.2744 -0.0247 -0.3992
  110SAPE   H3X11427   5.407   6.466   3.522  0.1793 -0.2178 -0.1757
  110SAPE   H3Y11428   5.330   6.309   3.533  2.9599  1.0381 -3.3504
  110SAPE   C3411429   5.412   6.381   3.727  0.5839  0.3683 -0.1729
  110SAPE   H4X11430   5.482   6.295   3.732  0.3827  0.2564  0.9808
  110SAPE   H4Y11431   5.330   6.366   3.800  1.6090  1.2454  1.2025
  110SAPE   C3511432   5.484   6.503   3.780 -0.7475 -0.3078  0.3134
  110SAPE   H5X11433   5.430   6.595   3.751  2.7922  1.9312  0.2463
  110SAPE   H5Y11434   5.582   6.511   3.729 -0.6956 -0.1957  0.4312
  110SAPE   C3611435   5.504   6.486   3.926  0.6356 -0.7794 -0.4793
  110SAPE   H6X11436   5.568   6.400   3.958  0.3013 -0.6924  0.4413
  110SAPE   H6Y11437   5.402   6.463   3.962  0.0156  0.5821 -1.3035
  110SAPE   C3711438   5.544   6.610   4.004  0.0092  0.0049  0.4388
  110SAPE   H7X11439   5.545   6.599   4.114  1.0666  0.4107  0.4785
  110SAPE   H7Y11440   5.471   6.685   3.967 -1.5958 -1.9263 -0.5668
  110SAPE   C3811441   5.687   6.664   3.972  0.7225  0.2029  0.3948
  110SAPE   H8X11442   5.697   6.669   3.861  2.6438  1.2341  0.5825
  110SAPE   H8Y11443   5.762   6.589   4.005  0.9207 -0.5815 -1.6633
  110SAPE   C3911444   5.704   6.803   4.032  0.1616 -0.3683 -0.0942
  110SAPE   H9X11445   5.614   6.864   4.007  0.2207 -0.3991 -0.3747
  110SAPE   H9Y11446   5.790   6.848   3.979  0.7941 -2.5676 -1.0463
  110SAPE  C31011447   5.730   6.796   4.180  0.3784  0.2321 -0.7158
  110SAPE  H10X11448   5.827   6.745   4.197  0.6969 -0.2017 -3.4557
  110SAPE  H10Y11449   5.646   6.737   4.222 -2.0411  3.3891 -0.7230
  110SAPE  C31111450   5.746   6.930   4.254 -0.7962 -0.3100 -0.0126
  110SAPE  H11X11451   5.664   7.001   4.228 -1.1882  1.6555  5.3643
  110SAPE  H11Y11452   5.837   6.982   4.219  0.7365 -2.2631  0.9151
  110SAPE  C31211453   5.750   6.919   4.407 -0.8291 -0.6728 -0.3424
  110SAPE  H12X11454   5.847   6.867   4.423 -0.4201 -0.1534 -1.0806
  110SAPE  H12Y11455   5.661   6.867   4.449 -1.4022  0.5691  0.0024
  110SAPE  C31311456   5.774   7.059   4.468 -0.4005  0.0948 -0.1246
  110SAPE  H13X11457   5.872   7.094   4.430  0.3291 -2.5154 -0.8278
  110SAPE  H13Y11458   5.787   7.041   4.577  0.8607 -0.4679 -0.3510
  110SAPE  C31411459   5.666   7.175   4.462 -0.1950  0.1743 -0.5845
  110SAPE  H14X11460   5.636   7.180   4.355  1.8924 -1.5383 -1.3058
  110SAPE  H14Y11461   5.702   7.275   4.494 -0.5491  0.5042 -1.2060
  110SAPE  C31511462   5.550   7.135   4.563  0.2259 -0.2413  0.1314
  110SAPE  H15X11463   5.605   7.124   4.659 -0.6296  0.8172  0.7508
  110SAPE  H15Y11464   5.496   7.043   4.533 -0.8209  0.3591  0.1179
  110SAPE  C31611465   5.449   7.250   4.565 -0.6122 -0.6403 -0.1566
  110SAPE  H16X11466   5.407   7.265   4.463 -0.9938  2.9746  0.4027
  110SAPE  H16Y11467   5.500   7.345   4.593 -1.9345  0.2899 -0.7988
  110SAPE  C31711468   5.336   7.241   4.665 -0.1294  0.6576  0.2078
  110SAPE  H17X11469   5.270   7.329   4.652  0.1829  0.9719  0.7131
  110SAPE  H17Y11470   5.376   7.251   4.768 -1.1436  1.3119  0.5530
  110SAPE  C31811471   5.261   7.106   4.661 -0.6781  0.2164 -0.3513
  110SAPE  H18X11472   5.158   7.118   4.701 -0.5768  0.1551 -0.0678
  110SAPE  H18Y11473   5.320   7.038   4.726  0.0621  1.0909 -0.0840
  110SAPE  H18Z11474   5.253   7.058   4.561  1.9618 -2.3466  0.4999
  111SAPE     N11475   2.822   1.257   2.969 -0.1030 -0.2219 -0.1067
  111SAPE   HN111476   2.800   1.343   2.915  0.8691 -0.0908 -0.3065
  111SAPE   HN211477   2.879   1.201   2.902  0.1514 -0.4834  0.3207
  111SAPE   HN311478   2.729   1.214   2.989 -0.4827  0.8080  0.4051
  111SAPE   C1211479   2.904   1.262   3.096 -0.2591 -0.4304  0.1709
  111SAPE  H12A11480   2.898   1.161   3.142  0.7394 -0.2052  0.8243
  111SAPE  H12B11481   2.859   1.334   3.168 -0.6585 -0.0481 -0.4499
  111SAPE   C1111482   3.045   1.309   3.070 -0.2254  0.2708 -0.1392
  111SAPE  H11A11483   3.095   1.315   3.168 -0.2833 -0.1027 -0.0848
  111SAPE  H11B11484   3.037   1.414   3.034 -2.6630  0.0137 -0.5258
  111SAPE     P11485   3.253   1.233   2.933  0.3252  0.0947 -0.1526
  111SAPE   O1311486   3.287   1.128   2.836 -0.3237  0.9093 -0.6050
  111SAPE   O1411487   3.283   1.374   2.886 -0.5845  0.2217  0.5538
  111SAPE   O1211488   3.100   1.226   2.970  0.2638 -0.0435  0.5331
  111SAPE   O1111489   3.324   1.195   3.063  0.2859 -0.1605 -0.2054
  111SAPE    C111490   3.411   1.285   3.139  0.4634 -0.5653 -0.5050
  111SAPE    HA11491   3.511   1.305   3.094  0.3581 -0.3043 -0.6270
  111SAPE    HB11492   3.366   1.385   3.158 -1.1251 -0.9729 -1.8916
  111SAPE    C211493   3.433   1.218   3.279 -0.8560  0.6414  0.5101
  111SAPE    HS11494   3.453   1.111   3.254  0.9190  1.5609 -2.6700
  111SAPE   O2111495   3.310   1.235   3.356  0.0249  0.3416  0.5386
  111SAPE   C2111496   3.288   1.138   3.442  0.8768 -0.0916 -0.2856
  111SAPE   O2211497   3.346   1.038   3.458  0.8673 -0.6814  0.1208
  111SAPE   C2211498   3.172   1.193   3.538 -0.3467  0.0816  0.4125
  111SAPE   H2R11499   3.171   1.129   3.629 -0.0997 -0.2663  0.1723
  111SAPE   H2S11500   3.215   1.292   3.564  0.1189 -0.6951  2.8452
  111SAPE    C311501   3.561   1.271   3.350 -0.5747 -1.2821  0.3273
  111SAPE    HX11502   3.546   1.377   3.380  2.0057 -0.6610 -0.3235
  111SAPE    HY11503   3.648   1.262   3.282 -1.3998 -4.4427 -0.4780
  111SAPE   O3111504   3.587   1.200   3.474 -0.2348  0.8338  0.5582
  111SAPE   C3111505   3.646   1.078   3.461 -0.5699  0.1252 -0.4265
  111SAPE   O3211506   3.685   1.029   3.354 -0.2603 -0.0957 -0.0530
  111SAPE   C3211507   3.676   1.023   3.602 -0.2764  0.3249  0.7508
  111SAPE   H2X11508   3.583   1.005   3.660 -0.5995  1.5266  0.6257
  111SAPE   H2Y11509   3.729   1.104   3.656  0.1301  1.1709 -0.8486
  111SAPE   C2311510   3.031   1.213   3.486 -0.0499  0.6138  0.0253
  111SAPE   H3R11511   3.037   1.247   3.381  0.0013 -1.8576 -0.8451
  111SAPE   H3S11512   2.978   1.288   3.549 -0.0007  0.4062  0.3205
  111SAPE   C2411513   2.941   1.080   3.496 -0.6811  0.3158  0.6168
  111SAPE   H4R11514   2.998   1.009   3.433  1.0777 -0.3533  2.8324
  111SAPE   H4S11515   2.855   1.110   3.433 -0.8136  0.9223  1.0733
  111SAPE   C2511516   2.892   1.010   3.624 -0.2032 -0.3563  0.7017
  111SAPE   H5R11517   2.967   1.009   3.704 -1.4384  0.6248  1.9345
  111SAPE   C2611518   2.769   0.973   3.650  0.3187  0.0652  0.1216
  111SAPE   H6R11519   2.744   0.926   3.747 -1.1154  1.6037  0.5637
  111SAPE   C2711520   2.654   0.975   3.543 -1.1959 -0.2762  0.2188
  111SAPE   H7R11521   2.682   1.009   3.441 -1.1958  1.6739  0.8222
  111SAPE   H7S11522   2.580   1.052   3.576 -0.5602  0.1615  0.6401
  111SAPE   C2811523   2.574   0.847   3.516  0.9273 -0.1873 -0.2216
  111SAPE   H8R11524   2.595   0.798   3.420  1.5287  2.1326 -1.3275
  111SAPE   C2911525   2.486   0.783   3.602 -0.3454 -0.2830 -0.1721
  111SAPE   H9R11526   2.454   0.684   3.567 -3.3204  0.9963 -1.4610
  111SAPE  C21011527   2.439   0.836   3.739  0.1253 -0.5736 -0.0067
  111SAPE  H10R11528   2.516   0.910   3.771 -0.2906  0.1150 -0.5741
  111SAPE  H10S11529   2.447   0.755   3.814 -0.0012  0.2044  0.8724
  111SAPE  C21111530   2.307   0.906   3.747 -0.2300 -0.5381 -0.0307
  111SAPE  H11R11531   2.257   0.925   3.652  0.9892  2.7378 -0.1350
  111SAPE  C21211532   2.242   0.943   3.859 -0.7463 -0.3417  0.4555
  111SAPE  H12R11533   2.135   0.969   3.855 -0.7260 -0.0782  1.3510
  111SAPE  C21311534   2.285   0.911   3.998 -0.4333  0.2211  0.7059
  111SAPE  H13R11535   2.299   0.801   3.998 -0.8506  0.1643  0.5799
  111SAPE  H13S11536   2.197   0.914   4.066 -0.1024 -0.4141  1.1676
  111SAPE  C21411537   2.399   0.990   4.058  0.4782 -0.2511  0.5040
  111SAPE  H14R11538   2.490   0.964   4.001 -0.9292 -0.0376 -1.9865
  111SAPE  C21511539   2.400   1.076   4.163 -0.1464  0.3570  0.2273
  111SAPE  H15R11540   2.494   1.116   4.203 -0.0455 -0.2559  0.6217
  111SAPE  C21611541   2.279   1.128   4.229 -0.3515  0.1940  0.3625
  111SAPE  H16R11542   2.185   1.118   4.169 -0.9126 -0.7115  1.3585
  111SAPE  H16S11543   2.276   1.239   4.238 -2.8802  0.3585 -1.3100
  111SAPE  C21711544   2.254   1.083   4.372  0.7669  0.1216 -0.2087
  111SAPE  H17R11545   2.164   1.134   4.412  0.4016 -0.5770 -0.1133
  111SAPE  H17S11546   2.338   1.110   4.440  1.4971 -2.4854  0.0334
  111SAPE  C21811547   2.231   0.926   4.386 -0.2661  0.5693 -0.4251
  111SAPE  H18R11548   2.316   0.864   4.352 -0.2402 -1.4262  2.8881
  111SAPE  H18S11549   2.144   0.904   4.321 -0.6303 -0.7105  0.4665
  111SAPE  C21911550   2.205   0.880   4.531  0.3288 -0.4874  0.3116
  111SAPE  H19R11551   2.116   0.935   4.567 -0.0027 -1.0274  0.3261
  111SAPE  H19S11552   2.285   0.911   4.602  0.6439  3.2987 -1.4444
  111SAPE  C22011553   2.193   0.731   4.547  0.2113  0.5916 -0.1775
  111SAPE  H20R11554   2.293   0.686   4.529  0.7278  1.7605 -0.3088
  111SAPE  H20S11555   2.123   0.676   4.481  2.4922 -0.2846 -1.9635
  111SAPE  H20T11556   2.167   0.709   4.653  2.0111 -3.8274 -0.4431
  111SAPE   C3311557   3.766   0.894   3.603 -0.4864 -0.6134  0.2461
  111SAPE   H3X11558   3.853   0.923   3.540  0.7210  2.4075  3.0136
  111SAPE   H3Y11559   3.702   0.809   3.572 -0.2528 -0.0762 -1.8915
  111SAPE   C3411560   3.827   0.863   3.737 -0.2922  0.3739 -0.6468
  111SAPE   H4X11561   3.884   0.949   3.777  1.2865 -0.9200  0.0108
  111SAPE   H4Y11562   3.911   0.792   3.722 -1.0469 -0.6797 -0.0774
  111SAPE   C3511563   3.720   0.809   3.833 -0.4538  0.9139  0.0710
  111SAPE   H5X11564   3.674   0.716   3.795  2.6535 -0.5145 -0.4867
  111SAPE   H5Y11565   3.643   0.889   3.837 -1.1622  0.1976  2.4572
  111SAPE   C3611566   3.757   0.788   3.977 -0.0063  0.1871  0.1126
  111SAPE   H6X11567   3.848   0.845   4.004  0.5054  0.5949 -2.2595
  111SAPE   H6Y11568   3.784   0.680   3.984  1.2072  0.3879 -1.0689
  111SAPE   C3711569   3.656   0.834   4.086  0.1673 -0.0830 -0.6246
  111SAPE   H7X11570   3.559   0.788   4.058  0.7250 -2.9030  1.6106
  111SAPE   H7Y11571   3.657   0.945   4.092  1.5082 -0.1406  2.3164
  111SAPE   C3811572   3.696   0.800   4.233  0.2269  0.8355  0.4739
  111SAPE   H8X11573   3.789   0.855   4.259 -1.4279  3.9184  0.2468
  111SAPE   H8Y11574   3.714   0.690   4.241 -1.3715  0.6769  3.5257
  111SAPE   C3911575   3.599   0.847   4.346 -0.2299  0.1843 -0.2851
  111SAPE   H9X11576   3.590   0.958   4.337  2.1106  0.8357  3.3520
  111SAPE   H9Y11577   3.651   0.825   4.441 -1.4800  1.2046  0.6625
  111SAPE  C31011578   3.456   0.782   4.351  0.2267 -0.0541  0.2649
  111SAPE  H10X11579   3.466   0.672   4.343  0.5206 -0.0689  0.7824
  111SAPE  H10Y11580   3.392   0.818   4.268  2.6043  1.5676 -0.9408
  111SAPE  C31111581   3.377   0.818   4.474 -0.4340  0.3641  0.0275
  111SAPE  H11X11582   3.372   0.929   4.475  1.3940  0.4737  0.5823
  111SAPE  H11Y11583   3.427   0.794   4.570 -1.6388 -1.3271  0.2683
  111SAPE  C31211584   3.241   0.757   4.460  0.1915  0.4303  0.0143
  111SAPE  H12X11585   3.256   0.653   4.425 -0.2938  0.4516 -0.2678
  111SAPE  H12Y11586   3.201   0.803   4.367  2.0495 -0.8524 -1.5153
  111SAPE  C31311587   3.146   0.747   4.575 -0.2117 -0.1377 -0.2313
  111SAPE  H13X11588   3.059   0.684   4.548 -0.6815  1.2665 -2.1881
  111SAPE  H13Y11589   3.105   0.850   4.590  1.3810  0.5329 -0.3111
  111SAPE  C31411590   3.208   0.703   4.714 -0.3030  0.3086  0.2367
  111SAPE  H14X11591   3.287   0.769   4.755 -1.5288  1.4993  0.7654
  111SAPE  H14Y11592   3.255   0.605   4.691  0.8905 -0.0568  3.7031
  111SAPE  C31511593   3.112   0.687   4.836  0.6543  0.1775 -0.0024
  111SAPE  H15X11594   3.172   0.647   4.920 -1.7540 -2.3368  0.6674
  111SAPE  H15Y11595   3.035   0.615   4.802  1.1274 -1.1960  1.6885
  111SAPE  C31611596   3.031   0.818   4.874 -0.2348 -0.4580  0.1391
  111SAPE  H16X11597   2.978   0.790   4.967 -1.9314  0.0980 -0.6225
  111SAPE  H16Y11598   2.962   0.842   4.791 -0.4463 -0.2098  0.3862
  111SAPE  C31711599   3.114   0.942   4.929 -0.6828 -0.5071 -0.4638
  111SAPE  H17X11600   3.047   1.030   4.923 -0.4021 -0.3554 -1.8080
  111SAPE  H17Y11601   3.208   0.968   4.877 -0.9633  0.6350 -0.4175
  111SAPE  C31811602   3.149   0.920   5.076 -1.0642  0.1615 -0.1588
  111SAPE  H18X11603   3.056   0.906   5.135 -0.1023  0.5693  1.5030
  111SAPE  H18Y11604   3.201   1.011   5.115 -1.1166  0.5579 -0.9865
  111SAPE  H18Z11605   3.214   0.831   5.085 -0.8692  0.2640 -0.5126
  112SAPE     N11606   1.351   6.939   2.775 -0.3813 -0.5025 -0.1487
  112SAPE   HN111607   1.283   6.863   2.795  0.6199 -1.4513 -0.2695
  112SAPE   HN211608   1.299   7.019   2.732  0.3283  0.0017 -0.0893
  112SAPE   HN311609   1.427   6.891   2.724 -0.2414 -2.7829  2.0409
  112SAPE   C1211610   1.432   6.970   2.901  0.0587 -0.2604  0.6614
  112SAPE  H12A11611   1.480   6.873   2.928 -0.3182 -0.4543  0.6447
  112SAPE  H12B11612   1.369   7.017   2.979 -1.0112  0.2909 -0.4998
  112SAPE   C1111613   1.537   7.077   2.855 -0.7430 -0.1034  0.0929
  112SAPE  H11A11614   1.594   7.031   2.771  0.0548  0.1031  0.5119
  112SAPE  H11B11615   1.604   7.101   2.940  1.2899 -0.9980 -1.1838
  112SAPE     P11616   1.405   7.310   2.899 -0.2237 -0.1857 -0.1583
  112SAPE   O1311617   1.492   7.431   2.889  0.4611  0.1290  0.2103
  112SAPE   O1411618   1.259   7.323   2.865  0.1967  0.5428 -0.3445
  112SAPE   O1211619   1.479   7.198   2.807  0.4322 -0.5357  0.7387
  112SAPE   O1111620   1.420   7.242   3.037 -0.4360 -0.2532 -1.1095
  112SAPE    C111621   1.332   7.265   3.148 -0.3541  0.0547 -0.1165
  112SAPE    HA11622   1.274   7.358   3.131  0.1723  0.1481 -1.5436
  112SAPE    HB11623   1.266   7.175   3.153 -1.8480  1.1487  0.6158
  112SAPE    C211624   1.410   7.275   3.274 -0.0687  0.0516 -0.3721
  112SAPE    HS11625   1.338   7.258   3.358  0.9904 -2.1281  0.1946
  112SAPE   O2111626   1.478   7.405   3.274 -0.1342  0.5176 -0.4111
  112SAPE   C2111627   1.402   7.507   3.295 -1.1388 -0.2525  0.1852
  112SAPE   O2211628   1.290   7.499   3.335  0.6879 -0.3016  0.1162
  112SAPE   C2211629   1.479   7.634   3.260 -0.1411  0.3125  0.3776
  112SAPE   H2R11630   1.581   7.618   3.220 -0.2234 -1.5080  0.8107
  112SAPE   H2S11631   1.411   7.701   3.203  1.8643  0.1265 -2.4278
  112SAPE    C311632   1.522   7.165   3.299  0.5075 -0.0537  0.3233
  112SAPE    HX11633   1.579   7.194   3.390 -1.8091 -0.1981  1.8915
  112SAPE    HY11634   1.590   7.157   3.211 -0.3935  3.2622 -0.8331
  112SAPE   O3111635   1.451   7.042   3.320  0.2676 -0.2793 -0.4032
  112SAPE   C3111636   1.519   6.926   3.302 -0.4349 -0.4184 -0.7327
  112SAPE   O3211637   1.640   6.918   3.283  0.2405  0.1528  0.9874
  112SAPE   C3211638   1.431   6.798   3.309 -0.2851 -0.6219 -0.6974
  112SAPE   H2X11639   1.428   6.769   3.202  1.8470  3.2170 -1.9834
  112SAPE   H2Y11640   1.329   6.830   3.337 -0.1690 -1.7845  1.2442
  112SAPE   C2311641   1.497   7.722   3.389 -0.6476  1.0713  0.3862
  112SAPE   H3R11642   1.541   7.662   3.472 -2.9484 -1.1138  0.1381
  112SAPE   H3S11643   1.397   7.738   3.434  0.4744  2.2094  2.6217
  112SAPE   C2411644   1.564   7.855   3.368 -0.7519  0.1116 -0.1034
  112SAPE   H4R11645   1.544   7.909   3.464  1.0517  0.2416  0.2272
  112SAPE   H4S11646   1.501   7.909   3.293  0.0761  2.7100  0.9487
  112SAPE   C2511647   1.714   7.859   3.334  0.3000  0.7009 -0.1011
  112SAPE   H5R11648   1.726   7.812   3.235 -3.6605 -0.3072 -0.2862
  112SAPE   C2611649   1.819   7.893   3.416  0.6594  0.3131  0.7104
  112SAPE   H6R11650   1.917   7.883   3.368 -0.2614 -1.0532 -0.9970
  112SAPE   C2711651   1.812   7.950   3.556 -0.5558 -0.0748  0.7192
  112SAPE   H7R11652   1.758   8.045   3.537  1.0410  0.4314 -2.0329
  112SAPE   H7S11653   1.913   7.981   3.591 -0.5081  1.3463 -0.5343
  112SAPE   C2811654   1.744   7.867   3.657  0.4788 -0.7341  0.4710
  112SAPE   H8R11655   1.685   7.780   3.626 -0.1089  0.1950 -1.1668
  112SAPE   C2911656   1.745   7.900   3.788  0.4147 -0.0506 -1.1890
  112SAPE   H9R11657   1.697   7.841   3.868 -3.7311  2.0740 -1.8153
  112SAPE  C21011658   1.802   8.019   3.860  0.1169 -0.6429  0.1425
  112SAPE  H10R11659   1.844   8.097   3.793  0.5891  0.0604  1.2235
  112SAPE  H10S11660   1.894   7.997   3.919 -1.4282 -1.7464  2.2667
  112SAPE  C21111661   1.708   8.087   3.951  0.9077 -0.2528  0.0914
  112SAPE  H11R11662   1.629   8.142   3.897 -0.2026 -0.3402  1.5517
  112SAPE  C21211663   1.702   8.083   4.081  0.5453  0.3328 -0.6592
  112SAPE  H12R11664   1.625   8.142   4.132  0.9784 -0.0338  0.4541
  112SAPE  C21311665   1.787   8.005   4.176 -0.1535  0.3649 -0.0780
  112SAPE  H13R11666   1.857   7.935   4.125 -0.4422 -0.0298  0.0612
  112SAPE  H13S11667   1.727   7.936   4.240 -1.8569  1.1852 -0.7456
  112SAPE  C21411668   1.871   8.091   4.263  0.3089 -0.2259 -0.1830
  112SAPE  H14R11669   1.973   8.116   4.232  0.4061 -1.5096 -0.9729
  112SAPE  C21511670   1.835   8.126   4.391 -0.3467  0.3984 -0.3533
  112SAPE  H15R11671   1.906   8.183   4.454 -1.2877 -1.2376  2.3602
  112SAPE  C21611672   1.710   8.081   4.466  0.2057  0.1734  0.5384
  112SAPE  H16R11673   1.626   8.049   4.401  2.6682  0.5470 -3.1273
  112SAPE  H16S11674   1.676   8.170   4.522  0.0005 -1.6571  3.5765
  112SAPE  C21711675   1.752   7.965   4.564 -0.6109  0.6181  0.0986
  112SAPE  H17R11676   1.667   7.939   4.631  0.3459 -0.9706  0.7634
  112SAPE  H17S11677   1.837   7.998   4.629 -0.8430 -3.1483  2.6382
  112SAPE  C21811678   1.791   7.832   4.501 -0.2949  0.5492 -0.1128
  112SAPE  H18R11679   1.887   7.845   4.447 -0.1386  0.8799  0.2342
  112SAPE  H18S11680   1.708   7.815   4.429  1.0706 -0.9776 -1.4012
  112SAPE  C21911681   1.803   7.716   4.605 -0.4261 -0.1574  0.0827
  112SAPE  H19R11682   1.717   7.726   4.674 -0.2640  0.0527  0.2542
  112SAPE  H19S11683   1.895   7.736   4.663 -0.9956 -0.2314  1.0284
  112SAPE  C22011684   1.815   7.574   4.545  0.3863 -0.0044  0.6952
  112SAPE  H20R11685   1.717   7.536   4.509  0.9335 -0.7777 -0.0350
  112SAPE  H20S11686   1.846   7.506   4.627  3.0793  1.0123  0.6067
  112SAPE  H20T11687   1.881   7.568   4.456 -0.3767 -2.6755  0.2008
  112SAPE   C3311688   1.498   6.698   3.408  0.3379  0.1914 -1.4656
  112SAPE   H3X11689   1.602   6.667   3.384  0.3992 -1.4985  0.7057
  112SAPE   H3Y11690   1.436   6.606   3.415 -0.2652  0.6471 -0.6655
  112SAPE   C3411691   1.498   6.762   3.546  0.2688  0.2921 -0.1220
  112SAPE   H4X11692   1.396   6.755   3.590 -0.7564  0.4462 -2.3310
  112SAPE   H4Y11693   1.523   6.870   3.548  1.7743 -0.0453  0.3908
  112SAPE   C3511694   1.593   6.672   3.636 -0.6478 -0.4942  0.7542
  112SAPE   H5X11695   1.697   6.686   3.600 -0.7583 -1.7005 -0.1003
  112SAPE   H5Y11696   1.580   6.564   3.613  2.5483 -1.0336  1.0988
  112SAPE   C3611697   1.578   6.710   3.780 -0.2691 -0.1083  0.0820
  112SAPE   H6X11698   1.478   6.693   3.824  0.0471  0.6166  1.1160
  112SAPE   H6Y11699   1.575   6.821   3.792 -1.1197 -0.3426  2.3410
  112SAPE   C3711700   1.693   6.654   3.855 -0.2782 -0.4758  0.0025
  112SAPE   H7X11701   1.785   6.660   3.794 -1.5204  0.6165 -1.8411
  112SAPE   H7Y11702   1.673   6.550   3.890  0.3583 -0.6804 -0.2146
  112SAPE   C3811703   1.730   6.724   3.984  0.8480 -0.3739 -0.0619
  112SAPE   H8X11704   1.779   6.821   3.962 -1.5214  0.3946 -2.4452
  112SAPE   H8Y11705   1.806   6.676   4.048 -0.0208  0.2241  1.4783
  112SAPE   C3911706   1.600   6.762   4.067  0.5511 -0.7771  0.6195
  112SAPE   H9X11707   1.545   6.666   4.068  2.2006 -1.7476  0.8477
  112SAPE   H9Y11708   1.533   6.832   4.012 -0.0395 -0.1072  2.1426
  112SAPE  C31011709   1.616   6.827   4.203  0.3366  0.1259 -0.2108
  112SAPE  H10X11710   1.661   6.924   4.173 -2.2742  1.1504 -1.0807
  112SAPE  H10Y11711   1.699   6.770   4.251  0.0500  0.2064  0.3907
  112SAPE  C31111712   1.494   6.840   4.298 -0.2042  0.2414 -0.8543
  112SAPE  H11X11713   1.475   6.736   4.332  0.3813  0.9249  1.7510
  112SAPE  H11Y11714   1.420   6.891   4.232  0.5264 -0.0603 -1.9475
  112SAPE  C31211715   1.521   6.941   4.416 -0.0326  0.3128  0.3797
  112SAPE  H12X11716   1.554   7.036   4.370  2.2245  0.1636  1.5594
  112SAPE  H12Y11717   1.603   6.901   4.479 -1.5630 -0.8368  1.7475
  112SAPE  C31311718   1.399   6.968   4.503  0.7850  0.3419  0.1251
  112SAPE  H13X11719   1.364   6.881   4.563  2.4433  0.3207  1.1208
  112SAPE  H13Y11720   1.310   6.987   4.440 -0.4520 -1.7668  1.1172
  112SAPE  C31411721   1.430   7.080   4.601 -0.1054 -0.4090 -0.6729
  112SAPE  H14X11722   1.417   7.174   4.543  1.0503 -0.5977 -1.2523
  112SAPE  H14Y11723   1.534   7.069   4.637 -0.4908  1.0925  1.0927
  112SAPE  C31511724   1.332   7.087   4.721 -0.3800  0.1731 -0.3038
  112SAPE  H15X11725   1.356   7.156   4.804 -3.2309 -0.7516  1.4497
  112SAPE  H15Y11726   1.339   6.984   4.762 -0.7380 -0.4801 -1.8145
  112SAPE  C31611727   1.188   7.128   4.675  0.0763 -1.1217 -0.4071
  112SAPE  H16X11728   1.155   7.058   4.595  0.0111 -2.7126  0.9676
  112SAPE  H16Y11729   1.197   7.229   4.629  0.4076 -1.0246 -0.1318
  112SAPE  C31711730   1.081   7.126   4.788  0.2039  0.1916  0.3185
  112SAPE  H17X11731   1.074   7.030   4.843  0.2552  1.7586  3.3180
  112SAPE  H17Y11732   0.983   7.151   4.743 -1.0080 -1.6345  1.7928
  112SAPE  C31811733   1.109   7.245   4.880  0.4376 -0.2198 -0.0379
  112SAPE  H18X11734   1.202   7.230   4.939 -0.1186  0.9487  1.1793
  112SAPE  H18Y11735   1.025   7.259   4.951  0.4841 -0.5887  0.0917
  112SAPE  H18Z11736   1.130   7.339   4.825  1.8677  1.2180  2.7586
  113SAPE     N11737   2.552   6.610   3.649  0.0253  0.6972 -0.7798
  113SAPE   HN111738   2.600   6.620   3.741 -3.2815 -0.8211  1.2788
  113SAPE   HN211739   2.562   6.705   3.608  2.6603  0.9077  0.1056
  113SAPE   HN311740   2.450   6.605   3.665 -0.0057  0.6181 -1.0102
  113SAPE   C1211741   2.602   6.501   3.560  0.2621  0.1636 -0.3189
  113SAPE  H12A11742   2.516   6.437   3.530  0.5376 -0.1597 -0.4215
  113SAPE  H12B11743   2.671   6.438   3.621  1.0624  0.7052 -0.6584
  113SAPE   C1111744   2.672   6.563   3.444 -0.2180 -0.0830  0.4062
  113SAPE  H11A11745   2.609   6.642   3.396 -0.4432  1.3739  2.9337
  113SAPE  H11B11746   2.699   6.491   3.364  3.6241  0.6209  0.8681
  113SAPE     P11747   2.934   6.636   3.407  0.2948 -0.1276 -0.1153
  113SAPE   O1311748   2.938   6.544   3.294  0.3253 -0.7534  0.6532
  113SAPE   O1411749   2.955   6.781   3.376 -0.2993 -0.3395  0.0363
  113SAPE   O1211750   2.796   6.612   3.493  0.1515 -0.7624 -0.1151
  113SAPE   O1111751   3.030   6.589   3.517  0.4925  0.2309  0.5191
  113SAPE    C111752   2.977   6.520   3.635  0.1507  0.3062  0.5803
  113SAPE    HA11753   2.908   6.589   3.688  0.8771  1.4973  0.0377
  113SAPE    HB11754   2.933   6.420   3.614  1.1175  0.4366 -2.6990
  113SAPE    C211755   3.106   6.484   3.716  0.3436  0.1483 -0.5917
  113SAPE    HS11756   3.083   6.399   3.784 -0.4173 -0.0884 -1.1209
  113SAPE   O2111757   3.159   6.583   3.798 -0.4541 -0.3776 -0.1319
  113SAPE   C2111758   3.087   6.619   3.899 -0.6715 -1.0022  0.3731
  113SAPE   O2211759   2.976   6.573   3.925  0.3170  0.0136 -0.4778
  113SAPE   C2211760   3.159   6.741   3.970 -0.0670  0.4462 -0.6000
  113SAPE   H2R11761   3.250   6.701   4.019  0.3483 -0.5085 -2.0906
  113SAPE   H2S11762   3.195   6.805   3.886 -0.8398  0.5313 -0.8755
  113SAPE    C311763   3.217   6.433   3.619  0.5835  0.3660 -0.3003
  113SAPE    HX11764   3.247   6.519   3.556  3.1355 -0.2969 -0.1227
  113SAPE    HY11765   3.166   6.360   3.552  0.2255 -0.1849  0.5649
  113SAPE   O3111766   3.331   6.383   3.695 -0.1331 -0.1536 -0.9544
  113SAPE   C3111767   3.451   6.408   3.648  0.2106 -0.1684 -0.6559
  113SAPE   O3211768   3.475   6.450   3.537 -0.1567  0.1333  0.7620
  113SAPE   C3211769   3.557   6.365   3.754 -0.2218 -0.5051 -0.3918
  113SAPE   H2X11770   3.570   6.461   3.809 -1.0062 -0.0720 -0.9463
  113SAPE   H2Y11771   3.648   6.349   3.693  1.0288 -1.1401  1.5201
  113SAPE   C2311772   3.064   6.806   4.073 -0.0094  0.5217  0.8226
  113SAPE   H3R11773   3.118   6.887   4.127 -1.3247  0.9344  1.5705
  113SAPE   H3S11774   3.028   6.739   4.154 -1.9276  2.3779  1.5979
  113SAPE   C2411775   2.939   6.870   4.013  0.0025  0.3298  0.3797
  113SAPE   H4R11776   2.887   6.795   3.951  2.4064  0.6955 -2.2886
  113SAPE   H4S11777   2.969   6.945   3.937 -2.8981  0.9316 -0.2818
  113SAPE   C2511778   2.859   6.935   4.120 -0.3510  0.0308  0.1854
  113SAPE   H5R11779   2.919   6.940   4.212  2.5541 -0.7774 -1.5128
  113SAPE   C2611780   2.734   6.982   4.116  0.2162 -0.1230  0.0882
  113SAPE   H6R11781   2.693   7.037   4.201 -0.4630  0.9294 -0.8959
  113SAPE   C2711782   2.659   6.975   3.985 -0.0616  0.2152  0.4029
  113SAPE   H7R11783   2.605   6.879   3.975  0.5805  0.0769 -2.5590
  113SAPE   H7S11784   2.720   6.974   3.892 -0.8809 -1.7848 -0.1590
  113SAPE   C2811785   2.561   7.094   3.952  0.2002  0.1600 -0.6613
  113SAPE   H8R11786   2.619   7.179   3.913 -0.6513  1.2950  0.4794
  113SAPE   C2911787   2.430   7.089   3.964  0.2694 -0.0973 -0.0982
  113SAPE   H9R11788   2.372   7.180   3.943  0.3728 -0.0958 -0.3795
  113SAPE  C21011789   2.354   6.975   4.024  0.1006 -0.1023 -0.6441
  113SAPE  H10R11790   2.391   6.956   4.127 -3.0887  2.4776  1.1597
  113SAPE  H10S11791   2.369   6.887   3.959 -0.1058 -0.7847  0.2155
  113SAPE  C21111792   2.207   6.996   4.046  0.0404  0.3653 -0.8295
  113SAPE  H11R11793   2.171   7.075   3.979 -1.0968  0.7547  0.2147
  113SAPE  C21211794   2.122   6.927   4.126  0.0068  0.1912 -0.3745
  113SAPE  H12R11795   2.014   6.948   4.128 -0.0587  0.1446 -2.0725
  113SAPE  C21311796   2.160   6.815   4.220 -0.6375  0.1418 -0.4905
  113SAPE  H13R11797   2.214   6.858   4.308 -1.2701 -0.6061  0.2853
  113SAPE  H13S11798   2.230   6.739   4.179  0.1326  0.5970 -0.0559
  113SAPE  C21411799   2.041   6.735   4.271  0.4891 -0.5318  0.5611
  113SAPE  H14R11800   1.957   6.715   4.203  0.8264 -0.0647  0.0058
  113SAPE  C21511801   2.037   6.685   4.398  0.3220  0.1986  0.1501
  113SAPE  H15R11802   1.954   6.618   4.425  1.3800 -1.1977  0.0089
  113SAPE  C21611803   2.150   6.689   4.500  1.0559 -0.0371  0.1402
  113SAPE  H16R11804   2.246   6.698   4.444  0.4905 -1.0200 -1.0415
  113SAPE  H16S11805   2.143   6.589   4.548  1.1713 -1.6216 -2.9008
  113SAPE  C21711806   2.133   6.810   4.596  0.6589 -0.5072 -0.2455
  113SAPE  H17R11807   2.026   6.837   4.610  0.7921  0.9144 -1.6684
  113SAPE  H17S11808   2.155   6.901   4.536  1.8104 -1.4490 -1.3073
  113SAPE  C21811809   2.211   6.795   4.724 -0.5853  0.7078  0.2185
  113SAPE  H18R11810   2.169   6.709   4.781 -0.0106  0.6497  0.5544
  113SAPE  H18S11811   2.208   6.892   4.778  3.2371  2.9001 -3.0014
  113SAPE  C21911812   2.363   6.784   4.719 -0.3131  0.0292 -0.0583
  113SAPE  H19R11813   2.418   6.852   4.651  1.1347 -1.2307 -0.2042
  113SAPE  H19S11814   2.389   6.682   4.685 -2.6211 -1.0074  1.0674
  113SAPE  C22011815   2.428   6.809   4.854  0.2623 -0.1698 -0.3542
  113SAPE  H20R11816   2.402   6.909   4.895 -0.9912  0.7707 -3.1406
  113SAPE  H20S11817   2.538   6.800   4.841  0.1993  0.6576 -1.6914
  113SAPE  H20T11818   2.391   6.736   4.929 -2.6892  0.2601 -1.2672
  113SAPE   C3311819   3.523   6.237   3.848  0.0048 -0.0479  0.1179
  113SAPE   H3X11820   3.509   6.161   3.768  1.2006 -1.8568  1.5695
  113SAPE   H3Y11821   3.429   6.275   3.894  0.6775  1.5457  0.2554
  113SAPE   C3411822   3.627   6.205   3.961  0.5520  0.5861 -0.2711
  113SAPE   H4X11823   3.619   6.293   4.030 -0.5991  0.6573 -0.4775
  113SAPE   H4Y11824   3.732   6.204   3.925  1.5295  0.2497  2.3350
  113SAPE   C3511825   3.595   6.070   4.015 -0.0182 -0.4941 -0.5600
  113SAPE   H5X11826   3.568   5.989   3.944  1.6940 -0.5280 -1.2123
  113SAPE   H5Y11827   3.496   6.082   4.063  0.2600  0.6778 -0.2405
  113SAPE   C3611828   3.696   6.022   4.124 -0.1046  1.0133  0.4438
  113SAPE   H6X11829   3.711   6.100   4.201  2.9920  1.8758 -0.8470
  113SAPE   H6Y11830   3.797   6.019   4.077  0.5567  0.3583  1.8615
  113SAPE   C3711831   3.660   5.888   4.193 -0.8398  0.2525  0.1301
  113SAPE   H7X11832   3.623   5.809   4.124 -2.8525  2.3084 -1.3138
  113SAPE   H7Y11833   3.576   5.901   4.265 -0.3646  1.8513  0.4279
  113SAPE   C3811834   3.773   5.847   4.293 -0.8072 -0.4128 -0.1094
  113SAPE   H8X11835   3.870   5.833   4.241  0.6145  1.0273  1.9551
  113SAPE   H8Y11836   3.794   5.932   4.363  0.2190 -0.9454  0.2522
  113SAPE   C3911837   3.737   5.730   4.385 -1.0293 -0.1629 -0.4530
  113SAPE   H9X11838   3.763   5.635   4.334 -1.4515  0.0045 -0.9931
  113SAPE   H9Y11839   3.631   5.735   4.417 -1.3149  0.9863 -1.4995
  113SAPE  C31011840   3.826   5.729   4.505 -0.5712  0.2762 -0.3151
  113SAPE  H10X11841   3.809   5.815   4.573  2.3850 -0.4512  1.5586
  113SAPE  H10Y11842   3.934   5.744   4.484 -0.3969 -0.9635 -0.4047
  113SAPE  C31111843   3.802   5.601   4.585  0.9037 -0.0646  0.1346
  113SAPE  H11X11844   3.830   5.513   4.523  0.0180 -0.3018  0.0524
  113SAPE  H11Y11845   3.693   5.587   4.602  1.0466 -0.8224  0.4753
  113SAPE  C31211846   3.886   5.587   4.717  0.8065  0.3016  0.4697
  113SAPE  H12X11847   3.830   5.642   4.796  2.9561  2.0252  0.9011
  113SAPE  H12Y11848   3.989   5.627   4.703  0.9981 -0.4071 -0.2456
  113SAPE  C31311849   3.899   5.438   4.763  0.5809 -0.0478  0.2622
  113SAPE  H13X11850   3.956   5.369   4.698  2.0718  1.8006 -0.4933
  113SAPE  H13Y11851   3.795   5.399   4.761  0.3603  0.5474 -0.6061
  113SAPE  C31411852   3.950   5.402   4.910  0.4561  0.1839  0.4097
  113SAPE  H14X11853   4.053   5.439   4.927  0.6100  0.1345 -0.3818
  113SAPE  H14Y11854   3.954   5.291   4.919 -2.1055  0.1674  3.3773
  113SAPE  C31511855   3.856   5.438   5.025  0.1662  0.0424  0.4488
  113SAPE  H15X11856   3.776   5.361   5.035 -2.1501  2.5061  2.3044
  113SAPE  H15Y11857   3.800   5.532   5.010  0.3559  0.8985  4.1446
  113SAPE  C31611858   3.929   5.450   5.155  0.0020  0.0090  0.1064
  113SAPE  H16X11859   3.881   5.524   5.222  2.5446  1.4574  0.4489
  113SAPE  H16Y11860   4.028   5.499   5.150 -0.2437  1.0968  3.5330
  113SAPE  C31711861   3.946   5.315   5.224  0.0003 -0.4803  0.0765
  113SAPE  H17X11862   3.997   5.251   5.149  0.5966 -0.4445  0.4405
  113SAPE  H17Y11863   3.844   5.275   5.244  0.0142 -0.3055  0.5033
  113SAPE  C31811864   4.027   5.324   5.357 -0.0114  0.2641  0.2001
  113SAPE  H18X11865   4.133   5.353   5.337 -0.1722  1.0387  0.4376
  113SAPE  H18Y11866   4.038   5.228   5.412 -0.9024  0.4970  0.7963
  113SAPE  H18Z11867   3.992   5.402   5.428 -0.8931 -0.5676  0.7047
  114SAPE     N11868   3.376   0.885   2.896  0.3135  0.0971 -0.5259
  114SAPE   HN111869   3.472   0.869   2.859  0.4140 -0.9297  0.1476
  114SAPE   HN211870   3.315   0.806   2.869 -2.8647  2.4339 -0.7657
  114SAPE   HN311871   3.330   0.975   2.871 -1.0774 -1.0939 -2.5150
  114SAPE   C1211872   3.408   0.887   3.041 -0.5527  0.2599  0.0314
  114SAPE  H12A11873   3.476   0.968   3.074 -0.3776 -0.4977  1.6477
  114SAPE  H12B11874   3.468   0.796   3.063 -0.5660  0.0719 -0.6905
  114SAPE   C1111875   3.279   0.870   3.127 -0.5116 -0.5198 -0.2935
  114SAPE  H11A11876   3.221   0.961   3.101 -0.7244 -0.8999 -1.1947
  114SAPE  H11B11877   3.320   0.861   3.230 -0.0440 -1.3414 -0.5452
  114SAPE     P11878   3.200   0.625   3.151  0.1412 -0.0007  0.0606
  114SAPE   O1311879   3.077   0.554   3.097 -0.4409  0.3647 -0.2089
  114SAPE   O1411880   3.328   0.566   3.110 -0.0295  0.0855  0.2205
  114SAPE   O1211881   3.196   0.761   3.086  0.3597  0.1321  0.3915
  114SAPE   O1111882   3.191   0.649   3.306 -1.0628  1.0402  0.8529
  114SAPE    C111883   3.069   0.699   3.361  1.1810 -0.3062  0.0224
  114SAPE    HA11884   3.070   0.810   3.351 -0.1302 -0.2018  0.8083
  114SAPE    HB11885   2.981   0.667   3.302  1.7480  0.8217 -1.4871
  114SAPE    C211886   3.052   0.674   3.516  0.9219 -0.2851  0.4829
  114SAPE    HS11887   2.961   0.728   3.551 -0.1384 -1.4223 -0.4509
  114SAPE   O2111888   3.170   0.728   3.572 -0.6238  0.6340 -0.0266
  114SAPE   C2111889   3.161   0.762   3.699 -0.5446  0.0083  1.2379
  114SAPE   O2211890   3.063   0.750   3.766  0.1548 -0.3158  0.5026
  114SAPE   C2211891   3.296   0.797   3.745 -0.0385 -0.0679  0.1506
  114SAPE   H2R11892   3.358   0.705   3.738  0.2867  0.1628  0.0080
  114SAPE   H2S11893   3.342   0.876   3.682  2.1679 -0.8445  0.7098
  114SAPE    C311894   3.026   0.529   3.551 -0.7005  0.3321 -0.7272
  114SAPE    HX11895   3.123   0.476   3.547 -1.5268 -1.5187  1.4528
  114SAPE    HY11896   2.962   0.475   3.478 -1.0267 -1.2718  0.6574
  114SAPE   O3111897   2.970   0.521   3.681  0.5132  0.9571 -0.2671
  114SAPE   C3111898   2.843   0.529   3.692 -0.6443  0.8576  0.3579
  114SAPE   O3211899   2.767   0.552   3.600  0.0103  0.4409  0.1812
  114SAPE   C3211900   2.810   0.531   3.845 -0.2784  0.5178  0.0651
  114SAPE   H2X11901   2.867   0.615   3.889 -1.1340  0.6368  0.9902
  114SAPE   H2Y11902   2.846   0.441   3.898  2.0885  2.0249  1.1495
  114SAPE   C2311903   3.306   0.839   3.894  0.0942 -0.1505 -0.2749
  114SAPE   H3R11904   3.409   0.817   3.929  0.6542  2.7697  0.1282
  114SAPE   H3S11905   3.236   0.772   3.949 -0.3530 -1.2620 -2.0947
  114SAPE   C2411906   3.265   0.992   3.904 -0.2862 -0.0644 -0.0406
  114SAPE   H4R11907   3.161   1.008   3.870  0.2942  0.5905 -1.5805
  114SAPE   H4S11908   3.333   1.050   3.838 -0.9727 -0.0102 -0.7067
  114SAPE   C2511909   3.276   1.046   4.046 -0.3348 -0.7785  0.5359
  114SAPE   H5R11910   3.380   1.077   4.062 -1.2441  2.1999  1.3120
  114SAPE   C2611911   3.182   1.074   4.138 -0.1261  0.4890 -0.1810
  114SAPE   H6R11912   3.211   1.112   4.237 -1.4425 -0.8153  0.7566
  114SAPE   C2711913   3.033   1.054   4.117 -0.0527  0.9653  0.1434
  114SAPE   H7R11914   2.995   1.124   4.040  0.5134 -0.5644 -1.5747
  114SAPE   H7S11915   2.978   1.096   4.205  1.7285  0.2356  1.6880
  114SAPE   C2811916   2.988   0.916   4.091 -0.0903 -0.4992  0.4528
  114SAPE   H8R11917   3.002   0.889   3.985  0.0714 -2.8472  1.0013
  114SAPE   C2911918   2.921   0.833   4.165 -0.0907 -0.2472 -0.1802
  114SAPE   H9R11919   2.904   0.735   4.117  3.6397 -1.1577  0.0499
  114SAPE  C21011920   2.881   0.850   4.312  0.4017  0.2362  0.1715
  114SAPE  H10R11921   2.949   0.928   4.352 -0.7608  0.3988  1.9284
  114SAPE  H10S11922   2.914   0.756   4.362 -0.1385  1.0302  2.1147
  114SAPE  C21111923   2.736   0.887   4.337 -0.3329 -0.6581 -0.4322
  114SAPE  H11R11924   2.692   0.966   4.274 -0.0590  0.6410  0.9198
  114SAPE  C21211925   2.666   0.850   4.448  0.5390 -0.0365  0.3915
  114SAPE  H12R11926   2.557   0.860   4.449  0.4773 -0.5079 -0.8361
  114SAPE  C21311927   2.721   0.759   4.553  0.4851  0.0753 -0.0154
  114SAPE  H13R11928   2.830   0.780   4.564  0.8580 -1.9487  0.5570
  114SAPE  H13S11929   2.710   0.657   4.512  1.2180  0.5491 -1.4667
  114SAPE  C21411930   2.641   0.775   4.680  0.5651 -0.0967 -0.7143
  114SAPE  H14R11931   2.675   0.863   4.737 -0.5620 -0.3123  0.3264
  114SAPE  C21511932   2.553   0.695   4.749 -0.0859 -0.5643  0.2095
  114SAPE  H15R11933   2.506   0.733   4.841  1.1294  0.1867  0.5455
  114SAPE  C21611934   2.501   0.561   4.710  0.2255 -0.1353  0.1242
  114SAPE  H16R11935   2.544   0.536   4.611  1.4565  1.2030  0.2902
  114SAPE  H16S11936   2.391   0.567   4.696  0.3460 -0.6590 -1.1874
  114SAPE  C21711937   2.524   0.450   4.811 -0.0946  0.5364 -0.5871
  114SAPE  H17R11938   2.475   0.486   4.903  0.5400 -2.2446  0.9607
  114SAPE  H17S11939   2.627   0.410   4.823 -1.0015 -1.2155  2.3996
  114SAPE  C21811940   2.428   0.329   4.783  0.1791  0.0918 -0.6984
  114SAPE  H18R11941   2.470   0.269   4.700 -1.2829  0.7945 -1.9956
  114SAPE  H18S11942   2.325   0.366   4.766 -0.8765 -1.9185  0.8871
  114SAPE  C21911943   2.429   0.235   4.908  0.5372 -0.0084  0.7114
  114SAPE  H19R11944   2.360   0.150   4.885  1.1061 -0.6691  1.3893
  114SAPE  H19S11945   2.401   0.278   5.006  3.4590  2.7007  0.5185
  114SAPE  C22011946   2.569   0.175   4.931  0.3561  0.0724  0.5368
  114SAPE  H20R11947   2.651   0.243   4.963  0.3585  0.2950  0.0622
  114SAPE  H20S11948   2.603   0.127   4.837  0.8744  1.2662  0.0964
  114SAPE  H20T11949   2.563   0.085   4.996 -0.9917  0.4848  1.0174
  114SAPE   C3311950   2.663   0.546   3.878 -0.7518  0.3596  0.3316
  114SAPE   H3X11951   2.592   0.479   3.825  0.5353 -1.1624  0.4420
  114SAPE   H3Y11952   2.638   0.647   3.840  0.5493  1.2397  1.6776
  114SAPE   C3411953   2.639   0.539   4.028 -0.2235  0.7712 -0.1516
  114SAPE   H4X11954   2.695   0.621   4.076 -1.7090  1.0411  1.2109
  114SAPE   H4Y11955   2.673   0.442   4.071  2.5706  2.1488  1.0215
  114SAPE   C3511956   2.496   0.570   4.056  0.4801  0.5820 -0.4232
  114SAPE   H5X11957   2.437   0.483   4.022 -0.8940  0.9611  0.8924
  114SAPE   H5Y11958   2.459   0.649   3.988 -2.6317 -0.0835  0.3345
  114SAPE   C3611959   2.452   0.613   4.200  0.0584  0.2592 -0.4855
  114SAPE   H6X11960   2.343   0.631   4.199  0.1112  0.6383 -1.7710
  114SAPE   H6Y11961   2.499   0.712   4.214 -4.1723  2.6036 -1.2574
  114SAPE   C3711962   2.494   0.515   4.309  0.5531  0.3534  0.1715
  114SAPE   H7X11963   2.456   0.556   4.405 -0.1215  0.1699 -0.0104
  114SAPE   H7Y11964   2.604   0.521   4.322  0.6973  0.8733 -1.1261
  114SAPE   C3811965   2.429   0.377   4.304 -0.4612  0.1324 -0.5858
  114SAPE   H8X11966   2.504   0.305   4.264 -0.1074 -0.4168  1.0151
  114SAPE   H8Y11967   2.342   0.361   4.236 -1.3168 -1.7560  0.8792
  114SAPE   C3911968   2.398   0.329   4.447 -0.2033  0.1507  0.2228
  114SAPE   H9X11969   2.333   0.399   4.504  1.4379  0.8985  1.2440
  114SAPE   H9Y11970   2.496   0.327   4.499 -0.1653  0.2489  0.1559
  114SAPE  C31011971   2.329   0.190   4.445  0.2304  0.0096  0.1916
  114SAPE  H10X11972   2.239   0.192   4.381 -0.8982  0.3727  1.7270
  114SAPE  H10Y11973   2.304   0.175   4.552 -0.6859 -0.0574 -0.0251
  114SAPE  C31111974   2.418   0.070   4.414  0.3540 -0.0196  0.7545
  114SAPE  H11X11975   2.432   0.061   4.304 -4.7011  1.7631 -0.2953
  114SAPE  H11Y11976   2.362  -0.018   4.452 -2.4072 -0.3892 -3.4967
  114SAPE  C31211977   2.550   0.070   4.484 -0.0278  0.0362  0.3732
  114SAPE  H12X11978   2.531   0.093   4.591  0.3631  1.8988  0.0753
  114SAPE  H12Y11979   2.609   0.158   4.450 -1.3155  0.0092 -2.1372
  114SAPE  C31311980   2.613  -0.062   4.456 -0.1722  0.0584 -0.0599
  114SAPE  H13X11981   2.665  -0.071   4.359  2.1988 -4.1099  1.3757
  114SAPE  H13Y11982   2.533  -0.139   4.465 -1.3025  0.6347 -3.4824
  114SAPE  C31411983   2.718  -0.114   4.557  0.2626 -0.7649  0.0597
  114SAPE  H14X11984   2.674  -0.098   4.658 -1.9198  1.0605 -1.0652
  114SAPE  H14Y11985   2.808  -0.049   4.554  0.2761 -0.7218  0.9696
  114SAPE  C31511986   2.768  -0.252   4.520  0.4591 -0.7484  0.1934
  114SAPE  H15X11987   2.788  -0.257   4.410  0.1567  0.0830  0.0877
  114SAPE  H15Y11988   2.673  -0.308   4.533 -1.0012  1.8140  1.2639
  114SAPE  C31611989   2.893  -0.295   4.605 -0.7429  0.2271  0.1327
  114SAPE  H16X11990   2.855  -0.336   4.701 -1.5723 -0.6997 -0.5666
  114SAPE  H16Y11991   2.945  -0.200   4.633  0.4954 -0.2393 -0.5006
  114SAPE  C31711992   2.989  -0.383   4.532  0.3271  0.6283 -0.2390
  114SAPE  H17X11993   3.095  -0.362   4.560 -0.3305  0.6070  2.5609
  114SAPE  H17Y11994   2.986  -0.371   4.421 -0.8827 -0.2557 -0.3120
  114SAPE  C31811995   2.962  -0.527   4.566 -0.4184  0.1433 -0.0437
  114SAPE  H18X11996   2.976  -0.555   4.673  0.2980  1.4882  0.2330
  114SAPE  H18Y11997   3.024  -0.595   4.504 -2.2363 -1.0598 -0.6327
  114SAPE  H18Z11998   2.853  -0.540   4.546 -0.3549  1.2682 -1.2065
  115SAPE     N11999   2.114   0.793   2.942  0.5348 -0.3017  0.3187
  115SAPE   HN112000   2.093   0.785   3.044 -2.3089  0.6033 -0.1015
  115SAPE   HN212001   2.095   0.710   2.883  1.2120  0.0858 -0.4784
  115SAPE   HN312002   2.215   0.810   2.924  0.2860  1.3374  0.2387
  115SAPE   C1212003   2.041   0.909   2.871 -0.4641  0.0831 -0.1268
  115SAPE  H12A12004   2.113   0.993   2.879  0.9662 -1.0749 -0.2969
  115SAPE  H12B12005   1.947   0.931   2.926 -0.7929  2.2887 -1.4977
  115SAPE   C1112006   2.014   0.872   2.725  0.5500  0.0757 -0.1308
  115SAPE  H11A12007   1.958   0.776   2.720 -0.1117  0.4530  0.0418
  115SAPE  H11B12008   2.104   0.848   2.665 -0.5030  0.4438 -1.9285
  115SAPE     P12009   2.006   1.112   2.615  0.0516 -0.1580 -0.6641
  115SAPE   O1312010   2.147   1.087   2.575 -0.5308  0.0237 -0.5700
  115SAPE   O1412011   1.910   1.171   2.517  0.3471  0.1259 -0.1383
  115SAPE   O1212012   1.939   0.976   2.667  1.0113 -0.1579  0.3853
  115SAPE   O1112013   2.020   1.214   2.735  0.6896 -0.5248 -0.3461
  115SAPE    C112014   1.917   1.244   2.823 -0.4714 -0.2697  0.3822
  115SAPE    HA12015   1.855   1.153   2.839 -1.0359 -0.1195 -0.8727
  115SAPE    HB12016   1.954   1.254   2.927  0.2367 -0.3194  0.1417
  115SAPE    C212017   1.828   1.372   2.781 -0.5387  0.6168 -0.6333
  115SAPE    HS12018   1.795   1.344   2.679 -0.2589 -0.1226 -0.5305
  115SAPE   O2112019   1.908   1.491   2.768  0.2059  0.1597 -0.4387
  115SAPE   C2112020   1.848   1.584   2.702 -0.6592 -0.0937 -0.8349
  115SAPE   O2212021   1.740   1.574   2.650  0.1734  0.4601  0.0274
  115SAPE   C2212022   1.939   1.707   2.717  0.3949 -0.0384 -0.0027
  115SAPE   H2R12023   2.008   1.696   2.803  1.3799  1.5793 -0.5436
  115SAPE   H2S12024   2.002   1.713   2.625  3.1266  0.8966  1.8030
  115SAPE    C312025   1.699   1.381   2.871 -0.3826 -0.9630 -0.0960
  115SAPE    HX12026   1.655   1.279   2.860 -0.5306 -0.9084 -0.0043
  115SAPE    HY12027   1.632   1.459   2.829  0.3271  0.2672  1.0158
  115SAPE   O3112028   1.735   1.413   3.005 -0.1183  0.0581  0.0328
  115SAPE   C3112029   1.723   1.323   3.103 -0.2161 -0.2710  0.6052
  115SAPE   O3212030   1.692   1.208   3.084 -0.5556  0.2276  0.0772
  115SAPE   C3212031   1.773   1.386   3.234  0.1404 -1.1575 -0.2193
  115SAPE   H2X12032   1.745   1.493   3.240 -1.4593 -1.3930 -2.3009
  115SAPE   H2Y12033   1.884   1.387   3.244  0.0370 -1.1889  1.0379
  115SAPE   C2312034   1.851   1.835   2.736  0.4568  0.2483  0.1506
  115SAPE   H3R12035   1.774   1.842   2.656 -0.4567 -0.8520  0.9011
  115SAPE   H3S12036   1.923   1.918   2.717  1.0660 -0.5554 -1.2282
  115SAPE   C2412037   1.789   1.848   2.875  0.6588 -0.0607  0.0071
  115SAPE   H4R12038   1.746   1.750   2.903 -0.5262  0.9058  1.7708
  115SAPE   H4S12039   1.696   1.909   2.868 -0.5663 -1.7510  1.0532
  115SAPE   C2512040   1.881   1.894   2.983 -0.0814 -0.2109  0.2537
  115SAPE   H5R12041   1.973   1.939   2.944 -0.1048 -1.8931 -1.9544
  115SAPE   C2612042   1.864   1.873   3.118  0.4689  0.3988 -0.6169
  115SAPE   H6R12043   1.934   1.916   3.191 -2.4106  1.6855  1.6371
  115SAPE   C2712044   1.736   1.807   3.180  0.1864  0.3815 -0.1097
  115SAPE   H7R12045   1.771   1.712   3.226  1.2914  0.1278 -1.3957
  115SAPE   H7S12046   1.672   1.776   3.094  0.8177  1.2058 -0.9056
  115SAPE   C2812047   1.657   1.886   3.277  0.2492  0.0829 -0.1061
  115SAPE   H8R12048   1.621   1.984   3.244  3.2038  1.4923  0.5257
  115SAPE   C2912049   1.639   1.862   3.410 -0.0128 -0.2348 -0.1514
  115SAPE   H9R12050   1.583   1.936   3.470  0.0055 -0.4171  0.0947
  115SAPE  C21012051   1.688   1.753   3.495 -0.4720  0.5933  0.3154
  115SAPE  H10R12052   1.672   1.659   3.437  1.9676 -0.1973  0.8239
  115SAPE  H10S12053   1.626   1.744   3.587  0.3105 -1.5078  0.6988
  115SAPE  C21112054   1.838   1.748   3.523 -0.6515  0.1501 -0.3620
  115SAPE  H11R12055   1.900   1.693   3.450  0.1799 -2.8693  2.3927
  115SAPE  C21212056   1.894   1.783   3.641  0.3359  0.5420 -0.1340
  115SAPE  H12R12057   2.004   1.772   3.645  0.4096  0.6374 -1.4535
  115SAPE  C21312058   1.830   1.835   3.765  0.1092 -0.2755  0.0987
  115SAPE  H13R12059   1.728   1.800   3.791  0.1303 -1.0226 -0.7719
  115SAPE  H13S12060   1.825   1.946   3.760  2.4597 -0.1691 -1.7501
  115SAPE  C21412061   1.918   1.806   3.886  0.2973 -0.9424  0.0624
  115SAPE  H14R12062   1.990   1.725   3.868  1.4958  0.2889 -0.9248
  115SAPE  C21512063   1.876   1.841   4.010  0.6196 -0.0072  0.7747
  115SAPE  H15R12064   1.946   1.824   4.093  0.7074  1.1022  0.9376
  115SAPE  C21612065   1.757   1.934   4.047 -0.0821  0.2921 -0.3239
  115SAPE  H16R12066   1.668   1.872   4.069  0.0497 -0.4422 -1.7705
  115SAPE  H16S12067   1.725   2.014   3.977 -0.7967  0.7992  0.5569
  115SAPE  C21712068   1.790   2.021   4.175 -0.7254 -0.2214 -0.4538
  115SAPE  H17R12069   1.833   1.947   4.246  4.2785  1.9434 -0.8017
  115SAPE  H17S12070   1.693   2.060   4.211 -0.3828  1.5387 -1.3394
  115SAPE  C21812071   1.903   2.130   4.153 -0.1456  0.8805  0.1259
  115SAPE  H18R12072   1.868   2.212   4.086 -1.1755  1.2287  1.0358
  115SAPE  H18S12073   1.975   2.064   4.102  0.7967  1.2108  0.9975
  115SAPE  C21912074   1.952   2.204   4.285  0.0187  0.5992  0.0190
  115SAPE  H19R12075   2.029   2.280   4.258  0.1812  0.6767  0.6939
  115SAPE  H19S12076   2.001   2.130   4.351  0.5835  1.0806  0.1523
  115SAPE  C22012077   1.835   2.271   4.353  0.2263 -0.0471  0.3202
  115SAPE  H20R12078   1.803   2.344   4.276 -0.6608 -1.2213 -0.4517
  115SAPE  H20S12079   1.872   2.323   4.444  1.3928 -0.2914  0.0135
  115SAPE  H20T12080   1.746   2.210   4.377  0.8475 -0.6876  1.0489
  115SAPE   C3312081   1.710   1.303   3.348  0.1116 -0.4095  0.4536
  115SAPE   H3X12082   1.754   1.202   3.336  1.4783  0.1307  0.6630
  115SAPE   H3Y12083   1.600   1.290   3.346  0.2392 -1.4812 -0.6053
  115SAPE   C3412084   1.740   1.355   3.490 -0.2568  0.4322 -0.1064
  115SAPE   H4X12085   1.799   1.449   3.485 -0.0328  0.2918 -0.1115
  115SAPE   H4Y12086   1.811   1.285   3.537  0.6566  1.5225  0.1855
  115SAPE   C3512087   1.623   1.368   3.582  0.3038 -0.2619 -0.6364
  115SAPE   H5X12088   1.573   1.269   3.593  0.3507 -0.4533 -1.9879
  115SAPE   H5Y12089   1.539   1.427   3.539 -3.0161 -3.5399  0.8060
  115SAPE   C3612090   1.657   1.425   3.720  0.6155  0.1215 -0.9549
  115SAPE   H6X12091   1.719   1.516   3.705 -0.7842  2.0558  3.2165
  115SAPE   H6Y12092   1.714   1.340   3.764 -1.6679 -0.9606  0.0745
  115SAPE   C3712093   1.531   1.446   3.810 -0.1959 -0.3138 -0.5446
  115SAPE   H7X12094   1.470   1.353   3.812 -1.5866  0.5212  2.6178
  115SAPE   H7Y12095   1.474   1.531   3.767  0.6678  1.0911  0.9487
  115SAPE   C3812096   1.568   1.473   3.951  0.5800 -0.1834 -0.1888
  115SAPE   H8X12097   1.625   1.569   3.949  1.6040 -0.7685  0.6195
  115SAPE   H8Y12098   1.638   1.394   3.983  0.7903 -0.3227 -0.9626
  115SAPE   C3912099   1.452   1.471   4.048  0.4120  0.4672  0.2710
  115SAPE   H9X12100   1.393   1.376   4.047  1.5117 -0.2595  1.3568
  115SAPE   H9Y12101   1.381   1.552   4.020 -0.8259  0.1652  2.2935
  115SAPE  C31012102   1.486   1.508   4.198  0.2055  0.2734  0.7303
  115SAPE  H10X12103   1.523   1.612   4.188 -0.7361  0.7547  1.9890
  115SAPE  H10Y12104   1.555   1.432   4.238  0.8350 -0.3399 -1.3816
  115SAPE  C31112105   1.367   1.510   4.283  0.8548 -0.1021 -0.0991
  115SAPE  H11X12106   1.288   1.433   4.268 -0.9096  1.9644 -2.2038
  115SAPE  H11Y12107   1.316   1.607   4.263 -0.7845 -0.4784  1.9379
  115SAPE  C31212108   1.409   1.506   4.433  0.6704  0.2730 -0.2050
  115SAPE  H12X12109   1.493   1.578   4.450  1.8743 -1.0410 -0.4150
  115SAPE  H12Y12110   1.449   1.403   4.433  1.7191  0.5987  2.0862
  115SAPE  C31312111   1.301   1.515   4.539 -0.0869  0.2772  0.4887
  115SAPE  H13X12112   1.219   1.448   4.506  0.8165 -0.7959  0.3903
  115SAPE  H13Y12113   1.273   1.623   4.535 -1.3367 -0.0227 -3.5454
  115SAPE  C31412114   1.343   1.463   4.668 -0.1704 -0.9375 -0.6543
  115SAPE  H14X12115   1.268   1.490   4.746  1.9564  0.0939  1.1630
  115SAPE  H14Y12116   1.432   1.524   4.694 -0.6070 -0.3063 -0.6135
  115SAPE  C31512117   1.377   1.319   4.685 -0.6577 -0.2168 -0.4371
  115SAPE  H15X12118   1.459   1.301   4.612 -1.3775  1.7905 -1.8442
  115SAPE  H15Y12119   1.289   1.254   4.671 -0.9929  0.2233 -0.4051
  115SAPE  C31612120   1.425   1.289   4.825  0.6554  0.3941  0.5662
  115SAPE  H16X12121   1.340   1.298   4.895  0.5316  0.8996  0.3546
  115SAPE  H16Y12122   1.496   1.371   4.851  3.3394 -1.2217 -1.0589
  115SAPE  C31712123   1.488   1.148   4.846 -0.0023 -0.2267 -0.0521
  115SAPE  H17X12124   1.560   1.146   4.762  0.0168 -0.7003 -0.0261
  115SAPE  H17Y12125   1.413   1.067   4.832 -1.0976  0.5744  0.9589
  115SAPE  C31812126   1.560   1.131   4.981  0.3290  0.2402  0.1901
  115SAPE  H18X12127   1.603   1.028   4.985 -1.5215 -0.5363  1.0614
  115SAPE  H18Y12128   1.484   1.149   5.060  0.0934 -2.3920  0.6650
  115SAPE  H18Z12129   1.650   1.196   4.989  1.2493 -0.8606 -0.7835
  116SAPE     N12130   0.559   1.548   2.503 -0.3555 -0.1584  0.6786
  116SAPE   HN112131   0.662   1.557   2.517  0.3969 -2.7483 -2.0534
  116SAPE   HN212132   0.547   1.583   2.406 -0.6507  1.1406  1.1640
  116SAPE   HN312133   0.513   1.620   2.562  0.1767 -0.2295  1.1900
  116SAPE   C1212134   0.512   1.407   2.520 -0.0990 -0.3342 -0.6684
  116SAPE  H12A12135   0.584   1.353   2.585 -1.0709  1.1882  1.8132
  116SAPE  H12B12136   0.499   1.358   2.421 -1.2896  0.0995 -0.7407
  116SAPE   C1112137   0.377   1.422   2.601 -0.2451 -0.4645  0.5420
  116SAPE  H11A12138   0.311   1.333   2.590 -1.1046  0.0474  1.3906
  116SAPE  H11B12139   0.310   1.499   2.557  0.6580 -0.4519 -0.8812
  116SAPE     P12140   0.396   1.343   2.845  0.1985  0.3764 -0.0491
  116SAPE   O1312141   0.269   1.269   2.835 -0.8471  0.5084  0.1214
  116SAPE   O1412142   0.526   1.274   2.824  0.5359 -0.3084  0.3681
  116SAPE   O1212143   0.396   1.460   2.740 -0.6025 -0.0866 -0.0274
  116SAPE   O1112144   0.403   1.408   2.987  0.0556 -0.0974  0.2101
  116SAPE    C112145   0.374   1.546   3.009 -0.6050  0.5283 -0.3486
  116SAPE    HA12146   0.435   1.610   2.942  0.6409 -1.2952 -1.0452
  116SAPE    HB12147   0.265   1.556   2.993 -0.7644  1.0521  0.9143
  116SAPE    C212148   0.405   1.576   3.159  0.7839  0.0089  0.2987
  116SAPE    HS12149   0.373   1.679   3.188 -0.5044 -0.2411 -0.1857
  116SAPE   O2112150   0.543   1.549   3.188  0.0642  0.0572 -0.5418
  116SAPE   C2112151   0.623   1.652   3.166 -0.1036  0.3706  0.4872
  116SAPE   O2212152   0.578   1.753   3.112  0.1541 -0.2505  0.0906
  116SAPE   C2212153   0.769   1.608   3.174 -1.0720  0.2209  0.0258
  116SAPE   H2R12154   0.772   1.512   3.230 -1.0195  1.3944  2.1414
  116SAPE   H2S12155   0.805   1.594   3.070 -2.4122  1.1844 -0.5940
  116SAPE    C312156   0.316   1.478   3.260 -0.0979 -0.3236  0.0462
  116SAPE    HX12157   0.313   1.379   3.211 -1.4314 -0.3286  0.0989
  116SAPE    HY12158   0.211   1.515   3.260  0.3195  0.9329  0.7017
  116SAPE   O3112159   0.375   1.469   3.391 -0.3803 -0.0747 -0.3213
  116SAPE   C3112160   0.354   1.565   3.475 -0.4954 -0.4167 -0.1890
  116SAPE   O3212161   0.282   1.662   3.466  0.3453 -0.1420  0.1617
  116SAPE   C3212162   0.426   1.535   3.604  0.1241  0.4180 -0.6607
  116SAPE   H2X12163   0.534   1.538   3.578  0.3537 -2.2832 -0.3292
  116SAPE   H2Y12164   0.400   1.428   3.617 -1.1832  0.2495 -3.7292
  116SAPE   C2312165   0.853   1.721   3.239  0.2101 -0.4215  0.1881
  116SAPE   H3R12166   0.864   1.816   3.183 -1.8254 -0.4017 -0.2490
  116SAPE   H3S12167   0.955   1.675   3.238  1.8160  2.8069  1.2282
  116SAPE   C2412168   0.816   1.773   3.379 -0.0029 -0.1547  0.2444
  116SAPE   H4R12169   0.727   1.839   3.366  0.6317  0.3809 -1.6532
  116SAPE   H4S12170   0.889   1.854   3.399 -1.8007  1.7545 -0.5890
  116SAPE   C2512171   0.796   1.677   3.494  0.1239  0.2128 -0.4909
  116SAPE   H5R12172   0.798   1.568   3.475  1.5613  0.0804  0.3169
  116SAPE   C2612173   0.781   1.709   3.623 -0.2523  0.0519  0.7851
  116SAPE   H6R12174   0.769   1.627   3.696  0.2083  1.5357  2.6237
  116SAPE   C2712175   0.786   1.851   3.684  0.0543  0.5128 -0.0818
  116SAPE   H7R12176   0.771   1.924   3.601 -0.2461 -0.7417 -1.1511
  116SAPE   H7S12177   0.888   1.870   3.724  0.4760  0.5559 -1.1401
  116SAPE   C2812178   0.664   1.870   3.778 -0.6113 -0.0551 -0.8456
  116SAPE   H8R12179   0.568   1.881   3.726  0.8882 -0.1548 -3.8719
  116SAPE   C2912180   0.669   1.905   3.906 -0.8364 -0.2091 -0.1469
  116SAPE   H9R12181   0.574   1.929   3.957  0.6374  0.5800  2.3907
  116SAPE  C21012182   0.790   1.908   3.993  0.1388  1.0847 -0.8757
  116SAPE  H10R12183   0.853   1.999   3.981  0.7859  0.4858 -2.3094
  116SAPE  H10S12184   0.860   1.827   3.965  1.7391  2.4963 -1.1720
  116SAPE  C21112185   0.764   1.875   4.137  0.3840 -0.0642 -0.3146
  116SAPE  H11R12186   0.746   1.768   4.154  1.6845 -0.1975  0.3442
  116SAPE  C21212187   0.768   1.964   4.243  0.4538  0.8514  0.5956
  116SAPE  H12R12188   0.762   1.937   4.349  0.9517  1.4417  0.7799
  116SAPE  C21312189   0.811   2.107   4.238  0.3301 -0.7197  0.2741
  116SAPE  H13R12190   0.903   2.131   4.181  0.8654  1.7402  2.0625
  116SAPE  H13S12191   0.845   2.138   4.339  0.8449  0.3226 -0.2107
  116SAPE  C21412192   0.699   2.200   4.189  0.0190  0.2599 -0.0123
  116SAPE  H14R12193   0.658   2.156   4.097  0.0852 -1.0208  0.5414
  116SAPE  C21512194   0.650   2.310   4.252 -0.0224 -0.2520 -0.0160
  116SAPE  H15R12195   0.571   2.364   4.198 -2.3790 -3.4006  0.0017
  116SAPE  C21612196   0.701   2.382   4.374  0.2438 -0.3169 -0.0084
  116SAPE  H16R12197   0.744   2.479   4.343  1.2843 -0.6649  0.2666
  116SAPE  H16S12198   0.791   2.332   4.418  2.1486  1.1802 -2.0024
  116SAPE  C21712199   0.597   2.407   4.484 -0.6697 -0.4775 -0.2885
  116SAPE  H17R12200   0.506   2.452   4.439 -2.5226 -1.0795  2.6158
  116SAPE  H17S12201   0.639   2.494   4.540  2.5429 -0.7578 -2.0226
  116SAPE  C21812202   0.567   2.290   4.572  1.2113 -0.0163  0.2385
  116SAPE  H18R12203   0.528   2.199   4.522  0.5469  0.6270 -0.4521
  116SAPE  H18S12204   0.480   2.337   4.624 -0.4470 -0.9006 -1.5933
  116SAPE  C21912205   0.655   2.255   4.686 -0.1071 -0.0035 -0.7480
  116SAPE  H19R12206   0.708   2.348   4.717 -0.9563  0.3115 -0.1856
  116SAPE  H19S12207   0.732   2.181   4.658 -0.6907 -1.0011  0.1967
  116SAPE  C22012208   0.584   2.185   4.801  0.6026  0.0273  0.1067
  116SAPE  H20R12209   0.649   2.167   4.890 -0.5629 -2.0183  0.6146
  116SAPE  H20S12210   0.549   2.085   4.769 -3.0858  1.3490 -0.4137
  116SAPE  H20T12211   0.498   2.246   4.836  0.7203 -0.2933  0.9769
  116SAPE   C3312212   0.384   1.618   3.729 -0.0415  0.2180  0.3557
  116SAPE   H3X12213   0.275   1.609   3.751  0.4924  1.7793  4.5143
  116SAPE   H3Y12214   0.425   1.721   3.725 -0.1228  0.3014  1.3762
  116SAPE   C3412215   0.443   1.541   3.843 -0.9904  1.1080 -0.1984
  116SAPE   H4X12216   0.554   1.543   3.836 -0.7457  0.6324  2.4601
  116SAPE   H4Y12217   0.415   1.434   3.833 -2.3252  1.5681 -1.7581
  116SAPE   C3512218   0.405   1.605   3.978  0.4470  0.1778  0.1066
  116SAPE   H5X12219   0.300   1.641   3.980  0.2156 -0.4128 -0.9115
  116SAPE   H5Y12220   0.475   1.690   3.996  0.4560  0.5313 -1.4784
  116SAPE   C3612221   0.404   1.510   4.096  0.1634 -1.0298 -0.4468
  116SAPE   H6X12222   0.509   1.473   4.099  0.7660  0.3797 -2.1944
  116SAPE   H6Y12223   0.337   1.421   4.095  1.1993 -1.8502  0.4449
  116SAPE   C3712224   0.370   1.590   4.215 -0.2241  0.0300  0.0059
  116SAPE   H7X12225   0.267   1.630   4.208 -0.3155 -0.3674 -1.2380
  116SAPE   H7Y12226   0.446   1.671   4.222 -1.0480  1.0296 -1.7570
  116SAPE   C3812227   0.377   1.505   4.344 -0.3569  0.0312 -0.7279
  116SAPE   H8X12228   0.477   1.457   4.353 -0.3804  0.0012 -0.6298
  116SAPE   H8Y12229   0.293   1.433   4.338  0.9354 -1.4276 -1.9380
  116SAPE   C3912230   0.352   1.588   4.473 -0.0622  0.1792 -0.5761
  116SAPE   H9X12231   0.244   1.616   4.469  0.3047  1.5925 -3.1795
  116SAPE   H9Y12232   0.405   1.685   4.486  2.1509 -1.2108  1.3198
  116SAPE  C31012233   0.388   1.503   4.598 -0.5990  0.0447 -0.4152
  116SAPE  H10X12234   0.499   1.508   4.606 -0.5684 -1.1401  0.0635
  116SAPE  H10Y12235   0.356   1.397   4.588 -0.9123  0.0546  0.4496
  116SAPE  C31112236   0.322   1.563   4.722  0.2657  0.4828  0.0106
  116SAPE  H11X12237   0.213   1.541   4.716  0.5007 -0.5180 -0.9506
  116SAPE  H11Y12238   0.324   1.674   4.729  0.9058  0.3994  1.7253
  116SAPE  C31212239   0.360   1.493   4.849  0.0421 -0.0081 -0.7419
  116SAPE  H12X12240   0.352   1.553   4.942  4.3505  0.2363 -0.3324
  116SAPE  H12Y12241   0.470   1.477   4.847  0.1693  0.7844 -0.4496
  116SAPE  C31312242   0.273   1.370   4.865  0.4630 -0.4536 -0.1508
  116SAPE  H13X12243   0.260   1.322   4.766  0.4982 -1.8612  0.4974
  116SAPE  H13Y12244   0.172   1.408   4.893  0.0345  1.8338 -4.0610
  116SAPE  C31412245   0.339   1.262   4.945 -0.2553  0.7488  0.3027
  116SAPE  H14X12246   0.443   1.248   4.909  0.1110  3.1194  0.2651
  116SAPE  H14Y12247   0.281   1.169   4.926  0.4406 -0.0978  2.1640
  116SAPE  C31512248   0.338   1.283   5.096  0.1479  0.2947 -0.3601
  116SAPE  H15X12249   0.375   1.381   5.132  1.4652 -0.2124 -0.2534
  116SAPE  H15Y12250   0.410   1.209   5.137  0.9774  1.4549  0.3378
  116SAPE  C31612251   0.200   1.242   5.158  0.1337  0.3282  0.4463
  116SAPE  H16X12252   0.164   1.147   5.113  1.7485 -0.5155  0.8457
  116SAPE  H16Y12253   0.119   1.308   5.122  0.4424 -0.3994 -1.7058
  116SAPE  C31712254   0.206   1.251   5.314 -0.0909 -0.6212  0.6241
  116SAPE  H17X12255   0.291   1.197   5.363  0.7612  0.8822  0.8872
  116SAPE  H17Y12256   0.113   1.206   5.355 -2.4132  2.9629 -0.2918
  116SAPE  C31812257   0.205   1.397   5.363  0.0640 -0.1407  0.1697
  116SAPE  H18X12258   0.200   1.411   5.474  0.0034  0.1767  0.1272
  116SAPE  H18Y12259   0.110   1.440   5.326  0.1531  0.4414  0.5958
  116SAPE  H18Z12260   0.291   1.450   5.318 -0.1992 -0.0762 -0.2555
  117SOPE     N12261   4.718   3.056   7.365  0.0036  0.2875 -0.0667
  117SOPE   HN112262   4.694   2.981   7.297 -1.0972  2.0605 -1.7242
  117SOPE   HN212263   4.815   3.079   7.338  0.4685  0.5983  1.7118
  117SOPE   HN312264   4.713   3.040   7.468  0.1679  0.3556 -0.0492
  117SOPE   C1212265   4.640   3.179   7.329  0.0111 -0.0010 -0.2949
  117SOPE  H12A12266   4.665   3.260   7.401  0.8245 -0.4154 -0.1000
  117SOPE  H12B12267   4.530   3.167   7.326  0.2081 -2.2667  0.2167
  117SOPE   C1112268   4.675   3.222   7.187  0.2132  0.5281  0.9760
  117SOPE  H11A12269   4.619   3.317   7.171 -1.3059 -0.3205  1.1380
  117SOPE  H11B12270   4.639   3.146   7.114  1.0711  0.4777  0.5900
  117SOPE     P12271   4.848   3.322   7.033 -0.5817  0.2732  0.1822
  117SOPE   O1312272   4.997   3.330   7.028  0.0887 -0.2378  0.1039
  117SOPE   O1412273   4.765   3.441   7.019 -0.0809 -0.3837 -0.1519
  117SOPE   O1212274   4.814   3.255   7.175 -0.1252 -0.4159  0.5425
  117SOPE   O1112275   4.793   3.221   6.925 -0.0273  0.8175  0.0306
  117SOPE    C112276   4.854   3.094   6.906 -1.3896 -0.0426  0.0920
  117SOPE    HA12277   4.779   3.012   6.908 -0.2484 -1.1760 -1.2579
  117SOPE    HB12278   4.927   3.072   6.987 -2.4795  0.8856  1.3669
  117SOPE    C212279   4.949   3.083   6.776  0.4639 -0.5754 -1.0667
  117SOPE    HS12280   5.035   3.147   6.804 -1.1166  0.9186  0.5684
  117SOPE   O2112281   4.867   3.129   6.669  0.0001 -0.2489 -0.7513
  117SOPE   C2112282   4.914   3.241   6.615  0.1608  0.7177 -0.3997
  117SOPE   O2212283   5.007   3.313   6.649  0.3927  0.0282 -0.3241
  117SOPE   C2212284   4.833   3.262   6.492  0.3345 -0.0084  0.4765
  117SOPE   H2R12285   4.887   3.341   6.436 -0.9491  0.3609 -0.2839
  117SOPE   H2S12286   4.727   3.288   6.513 -0.6622 -0.1685 -3.4960
  117SOPE    C312287   5.006   2.943   6.742  0.7473 -0.7177  0.5656
  117SOPE    HX12288   4.930   2.864   6.762 -1.5674  0.1017 -3.7641
  117SOPE    HY12289   5.094   2.919   6.806 -0.2120 -2.0580  1.4447
  117SOPE   O3112290   5.042   2.943   6.603 -0.0605 -0.3443  0.4345
  117SOPE   C3112291   5.166   2.958   6.566 -0.3644  0.6426 -0.1337
  117SOPE   O3212292   5.259   2.979   6.645 -0.4512 -0.5076 -0.2657
  117SOPE   C3212293   5.164   2.957   6.414  0.1442  0.0623 -0.2919
  117SOPE   H2X12294   5.084   3.029   6.388  1.3672  1.1902 -1.0234
  117SOPE   H2Y12295   5.132   2.855   6.385  0.4669 -1.4614  3.9691
  117SOPE   C2312296   4.845   3.150   6.384 -0.1503  0.8039 -0.0280
  117SOPE   H3R12297   4.840   3.047   6.425  1.8909  0.5198 -0.3657
  117SOPE   H3S12298   4.936   3.165   6.322 -0.1982 -0.9921 -0.5889
  117SOPE   C2412299   4.736   3.152   6.281  0.4788  0.2040 -0.2429
  117SOPE   H4R12300   4.636   3.132   6.325 -0.5220 -0.7405 -2.7608
  117SOPE   H4S12301   4.734   3.244   6.219 -1.8275  1.1623  1.1042
  117SOPE   C2512302   4.748   3.015   6.199  0.0441 -0.7958  0.6006
  117SOPE   H5R12303   4.849   3.023   6.154 -0.5717 -0.6286 -0.8008
  117SOPE   H5S12304   4.749   2.932   6.273  2.5765 -1.6979 -0.3461
  117SOPE   C2612305   4.640   2.977   6.093 -0.2767 -0.6891 -0.6147
  117SOPE   H6R12306   4.630   2.870   6.065 -1.4065 -0.9845  0.8164
  117SOPE   H6S12307   4.541   3.020   6.118  0.2183  0.3914 -0.4437
  117SOPE   C2712308   4.676   3.043   5.959 -0.2317 -0.6201  0.1925
  117SOPE   H7R12309   4.647   3.150   5.966  0.1958 -0.3787 -1.3789
  117SOPE   H7S12310   4.785   3.035   5.943  0.2080  0.7254  2.0604
  117SOPE   C2812311   4.605   2.984   5.831 -0.5367 -0.5241  0.0624
  117SOPE   H8R12312   4.646   3.015   5.733 -0.7033  1.0938  0.4727
  117SOPE   H8S12313   4.646   2.882   5.843 -0.3183 -0.6109 -1.3122
  117SOPE   C2912314   4.452   2.986   5.842  0.8443 -0.1429 -0.3613
  117SOPE   H9112315   4.415   2.918   5.921 -1.0434  0.5794 -0.5768
  117SOPE  C21012316   4.366   3.065   5.773 -0.0491  0.0619  0.1495
  117SOPE  H10112317   4.262   3.068   5.806 -0.4939 -1.3930 -0.9980
  117SOPE  C21112318   4.408   3.166   5.668  0.4067 -0.2373 -0.7503
  117SOPE  H11R12319   4.511   3.204   5.684  0.6574 -1.1602 -0.1481
  117SOPE  H11S12320   4.334   3.249   5.677  1.2969  0.3415  1.9375
  117SOPE  C21212321   4.405   3.111   5.524  0.2599  0.1955 -0.0065
  117SOPE  H12R12322   4.503   3.060   5.516  0.9403  0.9049  2.8196
  117SOPE  H12S12323   4.415   3.206   5.466  2.6999 -0.0814 -0.1520
  117SOPE  C21312324   4.278   3.042   5.481 -0.6447 -0.5447  0.4604
  117SOPE  H13R12325   4.189   3.107   5.492 -0.1528  0.0248  1.2004
  117SOPE  H13S12326   4.268   2.951   5.544  0.2295 -1.4701 -0.7031
  117SOPE  C21412327   4.285   2.996   5.340 -0.1029 -0.1364 -0.2477
  117SOPE  H14R12328   4.382   2.943   5.336 -0.1536 -0.4405  1.6997
  117SOPE  H14S12329   4.284   3.079   5.266 -1.0668 -0.9178 -1.1384
  117SOPE  C21512330   4.165   2.901   5.309 -0.4274  0.3778  0.2412
  117SOPE  H15R12331   4.069   2.948   5.337 -0.4104 -0.3165  1.5226
  117SOPE  H15S12332   4.184   2.809   5.368  0.5043 -0.4353 -1.2588
  117SOPE  C21612333   4.162   2.858   5.160  0.4522 -0.0854 -0.7659
  117SOPE  H16R12334   4.257   2.806   5.132 -0.1231 -1.3640 -0.4280
  117SOPE  H16S12335   4.167   2.948   5.096 -2.6551 -0.6303 -1.9233
  117SOPE  C21712336   4.041   2.776   5.114 -0.6237  0.3137  0.1691
  117SOPE  H17R12337   3.952   2.841   5.126  0.8258  2.0578  2.0930
  117SOPE  H17S12338   4.026   2.684   5.175 -1.2380 -1.0845 -1.9622
  117SOPE  C21812339   4.053   2.732   4.966  0.2223  0.3415  0.4003
  117SOPE  H18R12340   4.150   2.677   4.965  0.2843  0.4534 -0.1842
  117SOPE  H18S12341   4.061   2.829   4.911 -0.2212 -0.0959 -0.4496
  117SOPE  H18T12342   3.969   2.668   4.931  1.0003 -0.0597 -0.8081
  117SOPE   C3312343   5.298   2.992   6.361  0.5067 -0.7542 -0.8873
  117SOPE   H3X12344   5.384   2.937   6.404  0.5194 -1.7247 -2.0984
  117SOPE   H3Y12345   5.316   3.098   6.391 -1.9820 -0.6853  0.6172
  117SOPE   C3412346   5.329   2.976   6.215  0.3785  0.1605  0.7409
  117SOPE   H4X12347   5.319   2.868   6.190 -0.2405  0.0159  1.5725
  117SOPE   H4Y12348   5.437   2.999   6.204  0.6846 -1.2351  0.5722
  117SOPE   C3512349   5.236   3.072   6.127 -0.7848  0.5431 -0.4401
  117SOPE   H5X12350   5.261   3.173   6.166 -3.9353  2.0512 -2.0170
  117SOPE   H5Y12351   5.135   3.037   6.155 -0.6649 -2.6272 -3.2828
  117SOPE   C3612352   5.261   3.056   5.974 -0.0952  0.1045 -0.1529
  117SOPE   H6X12353   5.189   3.120   5.919  0.7031  2.0226  0.9495
  117SOPE   H6Y12354   5.243   2.952   5.941  1.7199 -0.0504 -0.7854
  117SOPE   C3712355   5.398   3.098   5.924  0.5677 -0.1519 -0.0262
  117SOPE   H7X12356   5.469   3.043   5.989  0.7578  0.3368  0.1890
  117SOPE   H7Y12357   5.411   3.209   5.929 -3.0816  0.7291 -4.0202
  117SOPE   C3812358   5.409   3.051   5.780 -0.2280  0.3376 -0.3768
  117SOPE   H8X12359   5.318   3.094   5.731 -0.0568 -0.3138 -1.2938
  117SOPE   H8Y12360   5.403   2.942   5.761 -0.8374  0.5972 -1.8771
  117SOPE   C3912361   5.531   3.108   5.716  0.1727 -0.4933 -0.6001
  117SOPE   H9X12362   5.616   3.059   5.768  0.2188 -0.7425 -0.9135
  117SOPE   H9Y12363   5.547   3.215   5.743  1.6616 -1.0623  0.9356
  117SOPE  C31012364   5.544   3.077   5.566  0.5506 -0.7596  0.4329
  117SOPE  H10X12365   5.550   2.967   5.552  2.6886 -0.4187 -2.2504
  117SOPE  H10Y12366   5.629   3.123   5.511 -0.2305  0.3035  0.0767
  117SOPE  C31112367   5.420   3.143   5.496  0.8822 -0.5829  0.4106
  117SOPE  H11X12368   5.400   3.244   5.538  0.8249  0.3436 -1.7206
  117SOPE  H11Y12369   5.332   3.077   5.512  0.8823 -0.8418 -0.5991
  117SOPE  C31212370   5.431   3.169   5.342  0.2419  0.2146  0.2702
  117SOPE  H12X12371   5.529   3.218   5.324  0.5448  0.1297  1.5564
  117SOPE  H12Y12372   5.343   3.226   5.304  0.0586  0.2417  0.7257
  117SOPE  C31312373   5.423   3.032   5.263  0.0247  0.0608 -0.2488
  117SOPE  H13X12374   5.318   3.021   5.227 -0.3298  0.5782  0.5781
  117SOPE  H13Y12375   5.450   2.948   5.329 -0.0039  1.7290  2.0020
  117SOPE  C31412376   5.505   3.019   5.135 -0.0787  0.3091  0.7477
  117SOPE  H14X12377   5.452   3.094   5.072  2.8096  0.8177 -1.2694
  117SOPE  H14Y12378   5.487   2.920   5.090  1.6289 -0.3021  1.3292
  117SOPE  C31512379   5.656   3.048   5.149 -0.3407  0.0829  0.3314
  117SOPE  H15X12380   5.694   2.976   5.226  1.6281 -0.3735 -1.0049
  117SOPE  H15Y12381   5.681   3.155   5.166  0.5533  0.2764 -1.9294
  117SOPE  C31612382   5.734   3.007   5.025 -0.1535 -0.0547  0.1971
  117SOPE  H16X12383   5.719   3.084   4.947  2.2706 -0.8370 -1.1495
  117SOPE  H16Y12384   5.690   2.919   4.974  1.6967 -0.7773 -0.2320
  117SOPE  C31712385   5.884   2.973   5.059  0.6669 -0.0206 -0.2439
  117SOPE  H17X12386   5.889   2.883   5.124 -1.5568 -0.9922 -1.3042
  117SOPE  H17Y12387   5.924   3.069   5.100  0.0428 -0.9010  2.6609
  117SOPE  C31812388   5.958   2.930   4.930  0.6235  0.2064 -0.3288
  117SOPE  H18X12389   6.062   2.907   4.962  0.5376  0.0859 -0.1369
  117SOPE  H18Y12390   5.958   3.014   4.856 -0.1774  3.5165  3.1209
  117SOPE  H18Z12391   5.913   2.842   4.879 -1.9554  1.5365 -0.5649
  118SOPE     N12392   6.693   1.840   7.070  0.6043 -0.0926 -0.3055
  118SOPE   HN112393   6.597   1.878   7.079 -0.1950 -1.5622 -2.0965
  118SOPE   HN212394   6.697   1.741   7.103  0.2325 -0.3104 -0.9099
  118SOPE   HN312395   6.767   1.885   7.128 -0.5406  1.3588  0.0921
  118SOPE   C1212396   6.745   1.846   6.925 -0.4739  0.6261 -0.1778
  118SOPE  H12A12397   6.694   1.768   6.864  1.5529  0.1021 -1.3015
  118SOPE  H12B12398   6.851   1.815   6.936 -0.9316 -0.7154  0.6313
  118SOPE   C1112399   6.728   1.987   6.863 -0.0627 -0.5001 -0.2451
  118SOPE  H11A12400   6.623   2.020   6.879  0.6211  1.1913  1.2231
  118SOPE  H11B12401   6.743   1.989   6.753  1.3908 -0.2299 -0.0714
  118SOPE     P12402   6.780   2.234   6.959 -0.0680  0.1408  0.5566
  118SOPE   O1312403   6.896   2.291   7.024 -0.8393 -0.1699 -0.0299
  118SOPE   O1412404   6.652   2.256   7.036  0.4199 -0.4111 -0.4494
  118SOPE   O1212405   6.812   2.077   6.931 -0.0743 -0.4636  0.3602
  118SOPE   O1112406   6.764   2.292   6.811 -0.0903 -0.0258 -0.1185
  118SOPE    C112407   6.857   2.256   6.710  0.8032 -0.1051  0.1201
  118SOPE    HA12408   6.808   2.183   6.641  0.0252 -0.4545  1.0226
  118SOPE    HB12409   6.944   2.197   6.745  0.4224 -0.4291  0.5295
  118SOPE    C212410   6.890   2.385   6.629 -0.7788 -0.4770 -0.4354
  118SOPE    HS12411   6.951   2.437   6.705 -0.9427 -1.5772  0.4634
  118SOPE   O2112412   6.767   2.450   6.589  0.1479  0.0347  0.3755
  118SOPE   C2112413   6.784   2.579   6.594  0.2513 -0.0310 -0.1010
  118SOPE   O2212414   6.886   2.635   6.617 -0.2881  0.1584  0.2171
  118SOPE   C2212415   6.654   2.651   6.571  0.5407 -0.0570 -0.0109
  118SOPE   H2R12416   6.612   2.668   6.673  1.0043 -0.6839  0.2847
  118SOPE   H2S12417   6.586   2.581   6.518 -0.4644 -0.2144  1.4072
  118SOPE    C312418   6.977   2.355   6.499 -0.5839 -0.2713  0.8358
  118SOPE    HX12419   7.075   2.324   6.542 -0.5159 -0.2677  0.6868
  118SOPE    HY12420   7.004   2.447   6.444 -1.0476  1.4129  3.2959
  118SOPE   O3112421   6.920   2.250   6.422 -0.0444  0.5409  0.1452
  118SOPE   C3112422   6.849   2.301   6.314  0.2143  0.2443  0.7622
  118SOPE   O3212423   6.841   2.419   6.276 -0.3790  1.1379 -0.2518
  118SOPE   C3212424   6.784   2.175   6.240  0.4634 -0.0212 -0.2341
  118SOPE   H2X12425   6.719   2.130   6.319  0.4208  2.8099  1.4978
  118SOPE   H2Y12426   6.873   2.113   6.218  1.8572  1.5724  0.5981
  118SOPE   C2312427   6.661   2.795   6.510  0.3727  0.5832  0.2824
  118SOPE   H3R12428   6.740   2.851   6.564 -1.6217  2.1178  1.8003
  118SOPE   H3S12429   6.564   2.848   6.520  0.0712  0.2652 -0.8163
  118SOPE   C2412430   6.714   2.810   6.360 -0.2879 -0.7131  0.1438
  118SOPE   H4R12431   6.741   2.917   6.345  1.1756 -1.3658 -2.3662
  118SOPE   H4S12432   6.804   2.746   6.365  1.0367  0.7798 -2.6993
  118SOPE   C2512433   6.613   2.749   6.261  0.7519 -0.1787 -0.1022
  118SOPE   H5R12434   6.610   2.641   6.285 -0.6956  0.1316  1.3019
  118SOPE   H5S12435   6.514   2.790   6.289  1.2540  0.1797  1.2687
  118SOPE   C2612436   6.641   2.765   6.108 -0.1468  0.5427 -0.7570
  118SOPE   H6R12437   6.560   2.729   6.041 -0.5368  1.2933 -0.7055
  118SOPE   H6S12438   6.650   2.876   6.099  2.3059  0.5769  1.0963
  118SOPE   C2712439   6.776   2.700   6.071  0.2878  0.1410 -0.1056
  118SOPE   H7R12440   6.858   2.736   6.136 -0.3029 -1.7618  1.8183
  118SOPE   H7S12441   6.767   2.590   6.079 -0.9450  0.0252 -2.2931
  118SOPE   C2812442   6.816   2.728   5.918 -0.0544  0.0779 -0.1656
  118SOPE   H8R12443   6.728   2.709   5.853 -2.4400  1.3345  2.4726
  118SOPE   H8S12444   6.833   2.838   5.920 -3.0485  0.6296 -0.4413
  118SOPE   C2912445   6.939   2.650   5.881  0.3996 -0.0173  0.6485
  118SOPE   H9112446   7.033   2.684   5.928  1.6888 -3.6298  0.9801
  118SOPE  C21012447   6.942   2.543   5.800  0.1952  0.4425  0.5896
  118SOPE  H10112448   7.036   2.489   5.782 -1.0747 -1.7877  0.2768
  118SOPE  C21112449   6.821   2.471   5.744  0.6624  0.1983 -0.4781
  118SOPE  H11R12450   6.730   2.501   5.801 -0.3316  0.6649 -2.2526
  118SOPE  H11S12451   6.826   2.364   5.772 -0.8035  0.5386  1.3238
  118SOPE  C21212452   6.807   2.484   5.597 -0.0776 -0.1163 -0.8477
  118SOPE  H12R12453   6.905   2.448   5.557  0.8706  1.0024  0.3727
  118SOPE  H12S12454   6.799   2.590   5.566 -0.1442  0.4857  1.1333
  118SOPE  C21312455   6.694   2.393   5.553 -0.6274  0.2405  0.6016
  118SOPE  H13R12456   6.602   2.427   5.605 -0.1969  0.8873  0.9345
  118SOPE  H13S12457   6.720   2.291   5.589  1.3312  1.2394  2.2194
  118SOPE  C21412458   6.668   2.389   5.395 -0.7699  0.0799 -0.4423
  118SOPE  H14R12459   6.663   2.495   5.361  0.3747  0.1241 -0.4965
  118SOPE  H14S12460   6.581   2.330   5.357  0.3687 -2.2268  0.3666
  118SOPE  C21512461   6.787   2.319   5.321 -0.2047  0.5183  0.7068
  118SOPE  H15R12462   6.803   2.211   5.342 -2.2460  0.1749  0.6858
  118SOPE  H15S12463   6.881   2.374   5.343  0.8054 -1.1684  0.8012
  118SOPE  C21612464   6.768   2.330   5.165  0.0882 -0.8585  0.7749
  118SOPE  H16R12465   6.867   2.325   5.115 -0.8338 -2.0962 -0.9868
  118SOPE  H16S12466   6.719   2.428   5.144 -2.4400 -2.6264 -2.3337
  118SOPE  C21712467   6.678   2.218   5.103 -0.1384  0.0145 -0.0540
  118SOPE  H17R12468   6.581   2.240   5.153 -0.7533 -0.8274 -0.8445
  118SOPE  H17S12469   6.713   2.122   5.146  1.9558  0.9553  0.4272
  118SOPE  C21812470   6.650   2.212   4.953  0.2106 -0.1077  0.0646
  118SOPE  H18R12471   6.592   2.301   4.919  0.1197  0.8372  2.5070
  118SOPE  H18S12472   6.590   2.123   4.928  2.6232 -1.6069 -0.7761
  118SOPE  H18T12473   6.742   2.198   4.892 -0.9241  1.4034 -2.1217
  118SOPE   C3312474   6.712   2.207   6.109 -0.9926 -0.0344 -0.1461
  118SOPE   H3X12475   6.798   2.222   6.040 -1.7038  2.8431 -0.5206
  118SOPE   H3Y12476   6.664   2.307   6.107  0.0150  0.4599 -1.9968
  118SOPE   C3412477   6.624   2.094   6.069  0.3482  0.3222  0.3514
  118SOPE   H4X12478   6.528   2.084   6.125  1.9659  0.5806  3.3936
  118SOPE   H4Y12479   6.669   1.994   6.084 -1.2114 -0.1336  2.4823
  118SOPE   C3512480   6.593   2.100   5.915  0.4977  0.5915 -0.0242
  118SOPE   H5X12481   6.549   2.201   5.896 -0.7371  0.2353  0.7801
  118SOPE   H5Y12482   6.499   2.042   5.904  1.7689 -1.4363 -0.7030
  118SOPE   C3612483   6.688   2.048   5.818 -0.2900 -0.5915  0.5968
  118SOPE   H6X12484   6.736   1.954   5.853 -1.4734 -0.4955  2.6680
  118SOPE   H6Y12485   6.767   2.126   5.810 -2.4973  1.6814 -0.6548
  118SOPE   C3712486   6.620   2.027   5.683  0.4262  0.3327  0.2604
  118SOPE   H7X12487   6.582   2.125   5.647 -1.2090  0.1131  1.2999
  118SOPE   H7Y12488   6.540   1.951   5.692  1.4632 -0.7696  0.5705
  118SOPE   C3812489   6.705   1.969   5.572  0.2081  0.5888  0.1658
  118SOPE   H8X12490   6.749   1.872   5.604  0.4510  1.0775  1.3414
  118SOPE   H8Y12491   6.781   2.047   5.548  1.1524 -1.1439 -3.2642
  118SOPE   C3912492   6.613   1.936   5.450 -0.0407 -0.3665  0.3108
  118SOPE   H9X12493   6.557   2.025   5.416  2.0591  0.6534 -0.6032
  118SOPE   H9Y12494   6.535   1.867   5.490 -2.2673  1.7982 -0.1201
  118SOPE  C31012495   6.689   1.874   5.331  0.2958 -0.3999  0.4192
  118SOPE  H10X12496   6.758   1.800   5.375 -2.5656 -2.0368  2.5026
  118SOPE  H10Y12497   6.742   1.946   5.264  2.2450 -0.3236  1.9762
  118SOPE  C31112498   6.602   1.795   5.233 -0.3125  0.1921  0.3613
  118SOPE  H11X12499   6.671   1.739   5.165  1.0757  0.6296  1.3620
  118SOPE  H11Y12500   6.536   1.861   5.173 -1.7940 -1.1039  0.4807
  118SOPE  C31212501   6.514   1.690   5.300 -0.0580 -0.7403 -0.2812
  118SOPE  H12X12502   6.462   1.632   5.220  0.9754  0.6310 -2.0280
  118SOPE  H12Y12503   6.442   1.751   5.358 -0.2013 -0.0227 -1.1782
  118SOPE  C31312504   6.577   1.579   5.397 -0.4318 -0.0778  1.1390
  118SOPE  H13X12505   6.611   1.621   5.494 -1.9787  0.6011  1.4025
  118SOPE  H13Y12506   6.667   1.535   5.348 -1.1815  0.6929 -1.0383
  118SOPE  C31412507   6.493   1.458   5.437 -0.0467  0.3313 -0.4462
  118SOPE  H14X12508   6.443   1.424   5.344 -1.5607  0.2087  0.3845
  118SOPE  H14Y12509   6.417   1.506   5.502  0.3199  0.3219 -0.0026
  118SOPE  C31512510   6.575   1.345   5.507  1.2433  0.1210 -0.5487
  118SOPE  H15X12511   6.635   1.376   5.595 -0.6004 -0.5626  1.0075
  118SOPE  H15Y12512   6.645   1.297   5.434  1.5810 -0.0898 -0.0878
  118SOPE  C31612513   6.484   1.237   5.559  0.5925  0.1148 -0.9444
  118SOPE  H16X12514   6.412   1.203   5.481  0.8670 -0.0449 -1.1295
  118SOPE  H16Y12515   6.429   1.269   5.650  3.2412 -1.6320  1.4578
  118SOPE  C31712516   6.566   1.112   5.610 -0.0516  0.1467  0.5581
  118SOPE  H17X12517   6.657   1.151   5.661  0.7441  0.4354 -1.0309
  118SOPE  H17Y12518   6.613   1.055   5.528  1.5990 -0.1671  1.6679
  118SOPE  C31812519   6.480   1.028   5.709  0.4257  0.1530  0.1287
  118SOPE  H18X12520   6.443   1.109   5.776  1.3455  0.0728  0.7591
  118SOPE  H18Y12521   6.544   0.963   5.772  1.6569  2.5616  1.5144
  118SOPE  H18Z12522   6.393   0.978   5.663  1.5639 -0.5084 -1.3671
  119SOPE     N12523   1.398   5.187   6.708 -0.0214  0.4060 -0.0788
  119SOPE   HN112524   1.433   5.146   6.797 -2.1530 -0.9159  0.2245
  119SOPE   HN212525   1.477   5.234   6.659 -0.6251  0.7015 -0.7830
  119SOPE   HN312526   1.329   5.262   6.722  2.1578  2.5633 -0.2083
  119SOPE   C1212527   1.338   5.082   6.612  0.1168  0.8568 -0.1679
  119SOPE  H12A12528   1.310   5.127   6.514  0.5590 -3.1849 -2.3320
  119SOPE  H12B12529   1.246   5.040   6.658 -0.0508  2.5852  1.1923
  119SOPE   C1112530   1.451   4.975   6.569 -0.0639 -0.2337 -0.2324
  119SOPE  H11A12531   1.525   5.033   6.510  0.4708  0.9781  1.5525
  119SOPE  H11B12532   1.405   4.899   6.502  0.4889 -0.1810 -0.6839
  119SOPE     P12533   1.475   4.775   6.747 -0.1634 -0.6826 -0.0309
  119SOPE   O1312534   1.345   4.790   6.810 -0.3055  0.3649 -0.3531
  119SOPE   O1412535   1.584   4.735   6.838 -0.9325  0.3490 -0.7395
  119SOPE   O1212536   1.514   4.915   6.681 -0.0763 -0.1949 -0.4907
  119SOPE   O1112537   1.467   4.675   6.623 -0.4670  0.6147  0.5056
  119SOPE    C112538   1.576   4.674   6.530 -0.3166 -0.0344 -0.5848
  119SOPE    HA12539   1.668   4.722   6.568 -0.3898  0.3621 -0.9044
  119SOPE    HB12540   1.550   4.733   6.440 -1.3385  0.3744 -0.0492
  119SOPE    C212541   1.607   4.534   6.478  0.1476  0.2944  0.0207
  119SOPE    HS12542   1.679   4.479   6.543  1.6577  1.4207 -0.6408
  119SOPE   O2112543   1.654   4.540   6.341 -0.2131 -0.1247  0.2335
  119SOPE   C2112544   1.788   4.534   6.319  0.6506  0.5486 -1.0826
  119SOPE   O2212545   1.867   4.542   6.409 -0.5557 -0.0966  0.6378
  119SOPE   C2212546   1.821   4.515   6.171 -0.1050  0.8175 -1.1007
  119SOPE   H2R12547   1.924   4.556   6.173  0.3763 -0.3844  0.2243
  119SOPE   H2S12548   1.756   4.585   6.114 -0.8570  0.1637 -1.0599
  119SOPE    C312549   1.482   4.440   6.466  0.0982  1.1632 -0.6095
  119SOPE    HX12550   1.411   4.502   6.407 -2.1454 -0.6751 -0.0053
  119SOPE    HY12551   1.434   4.416   6.564  0.4265 -0.3648 -0.7916
  119SOPE   O3112552   1.519   4.315   6.407 -0.2261  0.4697  0.2688
  119SOPE   C3112553   1.433   4.266   6.316 -1.2076 -0.3531  0.0397
  119SOPE   O3212554   1.335   4.325   6.279 -0.6271 -0.7229  0.3342
  119SOPE   C3212555   1.469   4.122   6.276 -0.4892 -0.4670 -0.5306
  119SOPE   H2X12556   1.480   4.065   6.371 -1.4620  2.2752  1.3553
  119SOPE   H2Y12557   1.569   4.116   6.229  0.3888 -4.8019  1.4172
  119SOPE   C2312558   1.826   4.367   6.137 -0.0707  0.8248 -0.1428
  119SOPE   H3R12559   1.731   4.313   6.161  0.0381  1.6481  2.4940
  119SOPE   H3S12560   1.901   4.306   6.191 -1.9797 -1.4665  0.1012
  119SOPE   C2412561   1.875   4.344   5.988 -0.4737  0.1363  0.6021
  119SOPE   H4R12562   1.954   4.418   5.961 -0.2698 -0.1493  0.4084
  119SOPE   H4S12563   1.927   4.246   5.994  0.6449  0.5301 -1.7614
  119SOPE   C2512564   1.759   4.344   5.887 -0.2258 -0.6451  0.1808
  119SOPE   H5R12565   1.701   4.259   5.927 -1.6343 -0.6221 -1.6802
  119SOPE   H5S12566   1.696   4.436   5.892  0.3974 -0.1942 -0.0823
  119SOPE   C2612567   1.798   4.314   5.739  0.1026 -0.0349 -0.1267
  119SOPE   H6R12568   1.835   4.405   5.689 -1.4757  0.4150 -0.5519
  119SOPE   H6S12569   1.872   4.233   5.728 -0.2514 -0.7702  2.1974
  119SOPE   C2712570   1.676   4.280   5.654 -0.1292 -0.0225 -0.3469
  119SOPE   H7R12571   1.630   4.181   5.676 -2.9540  1.6015  1.7049
  119SOPE   H7S12572   1.592   4.349   5.675 -0.1902 -0.3760  0.6230
  119SOPE   C2812573   1.708   4.286   5.508  0.1331 -0.5866  0.3527
  119SOPE   H8R12574   1.608   4.279   5.460  0.5950  2.2349 -1.2423
  119SOPE   H8S12575   1.739   4.391   5.487 -0.0001 -1.2771 -4.3055
  119SOPE   C2912576   1.812   4.187   5.459 -0.9061 -0.2345  0.2302
  119SOPE   H9112577   1.784   4.082   5.448  0.0230 -0.5079  0.3833
  119SOPE  C21012578   1.943   4.230   5.430  0.1018  0.0280 -0.5600
  119SOPE  H10112579   2.021   4.156   5.407  1.4820  0.7752  1.5192
  119SOPE  C21112580   1.995   4.374   5.458 -0.0027  0.0861  0.7566
  119SOPE  H11R12581   2.088   4.364   5.519  0.1034 -0.9734  0.4371
  119SOPE  H11S12582   1.928   4.438   5.518 -0.3294  1.5655 -1.0875
  119SOPE  C21212583   2.020   4.444   5.323  0.2517  0.5711 -0.9751
  119SOPE  H12R12584   2.052   4.550   5.336  0.4929  0.3433  0.3949
  119SOPE  H12S12585   1.928   4.445   5.261  0.6408  0.6826 -1.5533
  119SOPE  C21312586   2.128   4.377   5.233 -0.0896  0.2205 -0.0137
  119SOPE  H13R12587   2.104   4.270   5.212  2.1198 -0.9022  2.4282
  119SOPE  H13S12588   2.227   4.374   5.284  0.5383 -1.4198 -1.2090
  119SOPE  C21412589   2.132   4.441   5.096  0.6493  0.2305  0.4256
  119SOPE  H14R12590   2.207   4.523   5.089 -0.7740  1.5642  0.1291
  119SOPE  H14S12591   2.033   4.490   5.087  0.2759 -0.2424  1.6556
  119SOPE  C21512592   2.155   4.346   4.973 -0.0620  0.8726 -0.1377
  119SOPE  H15R12593   2.069   4.276   4.974 -0.7855  1.7066  2.2653
  119SOPE  H15S12594   2.247   4.285   4.985  0.2294  1.4397  0.5949
  119SOPE  C21612595   2.182   4.421   4.845 -0.1225 -0.1599 -0.7014
  119SOPE  H16R12596   2.265   4.492   4.866 -0.6602 -0.0458  1.2175
  119SOPE  H16S12597   2.101   4.495   4.829  0.6501  1.4753  2.2453
  119SOPE  C21712598   2.216   4.339   4.725  0.3918  0.0873 -0.4109
  119SOPE  H17R12599   2.308   4.280   4.742  0.9123  0.4496 -1.8078
  119SOPE  H17S12600   2.242   4.414   4.647  1.5952 -1.2673 -1.3561
  119SOPE  C21812601   2.100   4.263   4.666  0.8006 -0.2660  0.3766
  119SOPE  H18R12602   2.014   4.332   4.651  1.3126  0.1673 -0.6177
  119SOPE  H18S12603   2.071   4.182   4.736  0.2517 -1.1708 -0.8851
  119SOPE  H18T12604   2.124   4.216   4.569  1.7650 -1.9115  1.3598
  119SOPE   C3312605   1.353   4.055   6.199  0.6492 -0.5962  0.5522
  119SOPE   H3X12606   1.322   4.121   6.115  0.2598 -1.1894  0.2260
  119SOPE   H3Y12607   1.260   4.038   6.257  0.2257 -0.0365  0.0450
  119SOPE   C3412608   1.418   3.924   6.144  0.6814 -0.0911 -0.4958
  119SOPE   H4X12609   1.443   3.857   6.229  0.8685  1.0851  0.4114
  119SOPE   H4Y12610   1.521   3.951   6.111  0.4090  0.9486 -0.5271
  119SOPE   C3512611   1.345   3.859   6.025 -0.2804 -0.0217  0.1822
  119SOPE   H5X12612   1.398   3.767   5.993  0.3461  1.1071 -2.2484
  119SOPE   H5Y12613   1.349   3.935   5.943  1.3442  0.9326  1.0714
  119SOPE   C3612614   1.199   3.822   6.050  0.1155  0.9093  0.3569
  119SOPE   H6X12615   1.144   3.898   6.109 -0.2989  1.5091 -0.7638
  119SOPE   H6Y12616   1.198   3.727   6.107  2.1846  0.3756 -0.4095
  119SOPE   C3712617   1.114   3.786   5.922 -1.2091  0.1831  0.2455
  119SOPE   H7X12618   1.089   3.883   5.874  0.2946 -0.4525 -1.9856
  119SOPE   H7Y12619   1.022   3.734   5.956 -1.9434  1.9298  1.0590
  119SOPE   C3812620   1.193   3.689   5.823 -0.2125 -0.0827 -0.1907
  119SOPE   H8X12621   1.215   3.590   5.868  0.2089 -0.0479 -0.3129
  119SOPE   H8Y12622   1.287   3.744   5.800  0.7047 -1.0021  1.1502
  119SOPE   C3912623   1.115   3.676   5.685 -0.1538 -0.4972  0.3443
  119SOPE   H9X12624   1.069   3.777   5.669  1.1666 -0.0204 -0.6616
  119SOPE   H9Y12625   1.027   3.610   5.700 -0.4222 -0.3140 -0.3780
  119SOPE  C31012626   1.199   3.639   5.570 -0.2923 -0.2238  0.5399
  119SOPE  H10X12627   1.304   3.628   5.607  2.0515  1.8501 -4.5744
  119SOPE  H10Y12628   1.201   3.720   5.495  0.2108  0.9063  1.7268
  119SOPE  C31112629   1.150   3.513   5.500  0.1440  0.4989 -0.1981
  119SOPE  H11X12630   1.130   3.434   5.576  0.1810  1.1385  0.4810
  119SOPE  H11Y12631   1.230   3.485   5.428 -0.5743 -0.8594 -0.4985
  119SOPE  C31212632   1.020   3.522   5.431 -0.7456  0.4497  0.0425
  119SOPE  H12X12633   1.015   3.612   5.365 -4.5543 -1.3541 -2.4938
  119SOPE  H12Y12634   0.946   3.540   5.511 -0.1234  1.3928  0.4207
  119SOPE  C31312635   0.985   3.395   5.347 -0.6115  0.2651  0.4504
  119SOPE  H13X12636   0.976   3.314   5.422 -0.6249  1.6348  1.9996
  119SOPE  H13Y12637   1.065   3.372   5.273  0.3286  2.3042  0.7439
  119SOPE  C31412638   0.863   3.408   5.254  0.0888 -0.0219 -0.0905
  119SOPE  H14X12639   0.873   3.507   5.204 -2.3150  0.8323  0.9151
  119SOPE  H14Y12640   0.776   3.415   5.323  0.7134 -0.9737  0.8329
  119SOPE  C31512641   0.842   3.302   5.146 -0.9076 -0.3944  0.5171
  119SOPE  H15X12642   0.858   3.200   5.187  2.2606 -0.2336 -0.0788
  119SOPE  H15Y12643   0.927   3.300   5.074 -1.4387  0.2193 -0.1409
  119SOPE  C31612644   0.719   3.332   5.056  0.0273 -0.1042 -0.2784
  119SOPE  H16X12645   0.715   3.436   5.020 -1.8943  0.2563  0.8515
  119SOPE  H16Y12646   0.623   3.308   5.106 -0.8329  0.7672 -1.4731
  119SOPE  C31712647   0.718   3.245   4.926  0.3052 -0.1780 -0.7619
  119SOPE  H17X12648   0.612   3.248   4.891 -0.2001  3.7008  0.5934
  119SOPE  H17Y12649   0.739   3.140   4.954  0.5296 -0.9030 -3.3271
  119SOPE  C31812650   0.799   3.290   4.810 -0.2284  0.2223  0.6819
  119SOPE  H18X12651   0.902   3.319   4.840  0.5162 -1.4892 -0.1004
  119SOPE  H18Y12652   0.748   3.373   4.757 -2.6037 -0.6128  1.4968
  119SOPE  H18Z12653   0.816   3.204   4.742  2.0786  0.5419  0.7874
  120SOPE     N12654   3.085   5.987   6.767 -0.0587  0.0156  0.5051
  120SOPE   HN112655   3.162   5.923   6.794 -1.0800 -2.4833 -1.9442
  120SOPE   HN212656   3.036   6.028   6.849  1.0566  3.0425 -0.2037
  120SOPE   HN312657   3.021   5.931   6.707  1.7475  1.1949 -2.7481
  120SOPE   C1212658   3.130   6.094   6.665  0.1148 -0.9079 -1.1445
  120SOPE  H12A12659   3.161   6.181   6.727 -1.3058 -0.3072 -1.2196
  120SOPE  H12B12660   3.051   6.141   6.601 -1.9939  0.0828  1.9490
  120SOPE   C1112661   3.248   6.033   6.580 -0.6980 -0.7511 -0.3163
  120SOPE  H11A12662   3.238   6.087   6.484 -1.6189  2.0158  1.2406
  120SOPE  H11B12663   3.227   5.927   6.555  1.3852 -1.2135 -0.3384
  120SOPE     P12664   3.472   6.148   6.660 -0.5256 -0.1641 -0.1339
  120SOPE   O1312665   3.602   6.082   6.656 -0.1075 -0.1912  0.5972
  120SOPE   O1412666   3.429   6.240   6.768 -0.2629  0.2486  0.4207
  120SOPE   O1212667   3.374   6.029   6.649 -0.2054  0.0783 -0.2250
  120SOPE   O1112668   3.455   6.224   6.522  0.8349 -0.2934 -0.3885
  120SOPE    C112669   3.440   6.365   6.506 -0.0363 -0.1282 -1.1739
  120SOPE    HA12670   3.462   6.413   6.603 -1.8973 -1.2384 -0.1445
  120SOPE    HB12671   3.333   6.387   6.484 -0.8975 -0.7373  1.9687
  120SOPE    C212672   3.526   6.416   6.390 -0.0388 -0.0107 -0.0677
  120SOPE    HS12673   3.592   6.487   6.445 -2.7968  0.3851  3.1103
  120SOPE   O2112674   3.470   6.498   6.284 -0.8470  0.4818 -0.0095
  120SOPE   C2112675   3.420   6.618   6.334 -0.1379  0.6605 -0.8319
  120SOPE   O2212676   3.428   6.652   6.454  0.2958  0.5615  0.3866
  120SOPE   C2212677   3.363   6.700   6.214 -0.1633 -0.2793 -0.0776
  120SOPE   H2R12678   3.253   6.701   6.229 -0.0281 -1.7933  1.2243
  120SOPE   H2S12679   3.402   6.663   6.117  2.8778  0.2619  0.8257
  120SOPE    C312680   3.616   6.301   6.320 -0.0298 -0.1821 -0.4145
  120SOPE    HX12681   3.546   6.225   6.278 -1.8877  0.0834  1.9801
  120SOPE    HY12682   3.676   6.245   6.394  0.3597 -1.9217 -1.9863
  120SOPE   O3112683   3.704   6.348   6.216  0.2152  0.3226 -0.0872
  120SOPE   C3112684   3.794   6.424   6.265 -0.1724 -0.1186 -0.0316
  120SOPE   O3212685   3.832   6.436   6.380  0.0426 -0.2102 -0.2798
  120SOPE   C3212686   3.857   6.506   6.147  0.0712  0.4914  0.6565
  120SOPE   H2X12687   3.830   6.611   6.171  0.9934  1.4866 -2.2654
  120SOPE   H2Y12688   3.806   6.464   6.058 -0.3840 -1.2753  1.7034
  120SOPE   C2312689   3.388   6.856   6.224  0.3993  0.3535 -1.0731
  120SOPE   H3R12690   3.496   6.877   6.210  1.0325  0.8597  3.1096
  120SOPE   H3S12691   3.360   6.889   6.327 -2.1900  1.3485 -2.0233
  120SOPE   C2412692   3.323   6.933   6.107  0.3503  0.3770 -0.0225
  120SOPE   H4R12693   3.313   6.856   6.028 -2.1900 -0.9691  1.4636
  120SOPE   H4S12694   3.217   6.955   6.133 -0.3450 -2.0956 -0.4992
  120SOPE   C2512695   3.406   7.054   6.052 -0.3570 -0.9148 -0.1307
  120SOPE   H5R12696   3.407   7.137   6.126 -2.1031 -0.6830 -0.3235
  120SOPE   H5S12697   3.511   7.022   6.037  0.0037  0.5725 -0.8985
  120SOPE   C2612698   3.340   7.114   5.921  0.3119 -0.2905 -0.4415
  120SOPE   H6R12699   3.242   7.159   5.944  0.4212 -1.5701  3.3157
  120SOPE   H6S12700   3.407   7.198   5.892 -0.3731  1.0940  1.7221
  120SOPE   C2712701   3.332   7.021   5.800 -0.1078  0.5738 -0.8725
  120SOPE   H7R12702   3.357   7.075   5.706 -4.9437  1.2531 -2.0303
  120SOPE   H7S12703   3.393   6.932   5.823  1.0656  1.6693  0.4190
  120SOPE   C2812704   3.178   6.989   5.778  0.3787 -0.7310 -0.1537
  120SOPE   H8R12705   3.129   6.978   5.878 -0.4716  0.2506 -0.4497
  120SOPE   H8S12706   3.149   7.088   5.737  2.1183  0.2184  0.7668
  120SOPE   C2912707   3.149   6.878   5.681  0.4247 -0.3298  0.0008
  120SOPE   H9112708   3.118   6.781   5.725  0.9012 -1.0198 -1.1450
  120SOPE  C21012709   3.176   6.886   5.550  0.0587 -0.6507  0.6394
  120SOPE  H10112710   3.139   6.809   5.481 -1.2148  0.6106 -0.1247
  120SOPE  C21112711   3.241   7.007   5.486 -0.0689 -0.0856 -0.6488
  120SOPE  H11R12712   3.352   6.998   5.492 -0.1802 -1.0325  0.3381
  120SOPE  H11S12713   3.215   7.103   5.536  2.6453  0.0043  0.7714
  120SOPE  C21212714   3.205   7.025   5.335 -0.1194  0.0093  0.0971
  120SOPE  H12R12715   3.233   6.941   5.269 -1.4939 -1.0734  0.8300
  120SOPE  H12S12716   3.265   7.115   5.309  0.9455 -0.6704  0.1786
  120SOPE  C21312717   3.056   7.051   5.306  0.0526  0.2541 -0.8788
  120SOPE  H13R12718   3.003   7.063   5.403  0.9609  2.6449 -0.6071
  120SOPE  H13S12719   3.014   6.967   5.246  1.9154 -0.7843 -0.8343
  120SOPE  C21412720   3.033   7.189   5.235  0.2037 -0.0584  0.4601
  120SOPE  H14R12721   3.066   7.267   5.307  0.3043 -0.0657  0.4228
  120SOPE  H14S12722   2.926   7.212   5.219  0.3766  0.5061  0.1131
  120SOPE  C21512723   3.096   7.214   5.096 -0.7054 -0.2121 -0.1761
  120SOPE  H15R12724   3.207   7.213   5.093 -0.7044  0.8260 -0.7681
  120SOPE  H15S12725   3.074   7.316   5.058  0.5246 -0.2663 -1.0999
  120SOPE  C21612726   3.054   7.106   5.002 -0.1399  0.1161  0.1161
  120SOPE  H16R12727   2.947   7.078   5.012 -0.2180 -0.2294 -1.3914
  120SOPE  H16S12728   3.115   7.017   5.028  1.9305  1.4249 -0.0391
  120SOPE  C21712729   3.093   7.136   4.856  0.1122 -0.5928 -0.5059
  120SOPE  H17R12730   3.194   7.179   4.844  0.1919 -0.8842 -0.9280
  120SOPE  H17S12731   3.023   7.213   4.816  0.9011  1.0737  1.1912
  120SOPE  C21812732   3.079   7.004   4.776 -0.1409 -0.0054 -0.5072
  120SOPE  H18R12733   3.173   6.949   4.800  0.0250 -0.0644 -1.2609
  120SOPE  H18S12734   3.079   7.026   4.667  0.5262 -1.3211 -0.7879
  120SOPE  H18T12735   2.987   6.946   4.795  0.7115 -1.6452 -1.1753
  120SOPE   C3312736   4.013   6.496   6.131  0.5320 -0.2309  0.1170
  120SOPE   H3X12737   4.028   6.395   6.088 -1.0158 -0.6802  0.5657
  120SOPE   H3Y12738   4.062   6.496   6.231  1.5489 -1.8082 -0.3340
  120SOPE   C3412739   4.080   6.600   6.044 -0.0568 -1.2029  0.0195
  120SOPE   H4X12740   4.186   6.569   6.039  0.9214  1.9310 -0.4848
  120SOPE   H4Y12741   4.073   6.699   6.092  1.0120 -0.1110 -1.9634
  120SOPE   C3512742   4.030   6.593   5.904  0.0974 -0.9711  0.1413
  120SOPE   H5X12743   3.924   6.625   5.899  0.6920  0.9922 -0.9064
  120SOPE   H5Y12744   4.042   6.490   5.864  3.3424 -0.9124  0.6686
  120SOPE   C3612745   4.115   6.685   5.817 -0.0833 -0.0755  0.1736
  120SOPE   H6X12746   4.221   6.658   5.839 -0.3580 -0.8419  0.5780
  120SOPE   H6Y12747   4.116   6.791   5.850  0.2951 -0.4243  1.3487
  120SOPE   C3712748   4.088   6.676   5.669  0.2460  0.5140  0.1866
  120SOPE   H7X12749   3.985   6.706   5.642 -0.2353 -0.9667  0.2681
  120SOPE   H7Y12750   4.103   6.570   5.638  1.2247  0.7451 -0.1535
  120SOPE   C3812751   4.184   6.769   5.583  0.6605  0.2861  0.4952
  120SOPE   H8X12752   4.282   6.774   5.635  1.2633 -2.8152 -0.1310
  120SOPE   H8Y12753   4.135   6.868   5.595  1.8808  0.7551  1.8450
  120SOPE   C3912754   4.216   6.722   5.436 -0.1323 -0.2791  0.1181
  120SOPE   H9X12755   4.118   6.716   5.384 -0.0867 -2.7645  0.2071
  120SOPE   H9Y12756   4.249   6.616   5.449  0.7631 -0.0013  0.1799
  120SOPE  C31012757   4.316   6.813   5.364  0.1568  0.0817  0.8323
  120SOPE  H10X12758   4.336   6.769   5.264 -3.4851  0.7921 -0.3698
  120SOPE  H10Y12759   4.407   6.817   5.427  0.9712 -0.3833 -0.2781
  120SOPE  C31112760   4.263   6.956   5.350  0.2497  0.5170  0.5252
  120SOPE  H11X12761   4.349   7.019   5.322 -0.9894  1.8109 -0.5493
  120SOPE  H11Y12762   4.224   6.989   5.449 -3.1865 -0.8095 -0.2162
  120SOPE  C31212763   4.142   6.989   5.249 -0.1738 -0.6178  0.1057
  120SOPE  H12X12764   4.159   7.096   5.225 -0.7378 -0.3698  0.7820
  120SOPE  H12Y12765   4.047   6.976   5.305  0.2424 -2.9227  0.3857
  120SOPE  C31312766   4.142   6.896   5.130 -0.5889  0.1062  0.0729
  120SOPE  H13X12767   4.151   6.792   5.169 -1.2650  0.6782  1.8242
  120SOPE  H13Y12768   4.228   6.923   5.064  0.6077 -0.3556  1.3865
  120SOPE  C31412769   4.012   6.914   5.046 -0.4146 -0.0606 -0.5892
  120SOPE  H14X12770   4.000   7.018   5.008 -0.5787 -0.2336 -1.0187
  120SOPE  H14Y12771   3.919   6.900   5.105  0.1898 -0.4763  0.2693
  120SOPE  C31512772   3.994   6.833   4.918 -0.7392  0.1456  0.0629
  120SOPE  H15X12773   3.961   6.730   4.943 -2.4099  0.0492 -2.1773
  120SOPE  H15Y12774   4.090   6.840   4.862 -1.3163  1.0393 -0.8463
  120SOPE  C31612775   3.877   6.872   4.826  0.8196 -0.0093  0.5631
  120SOPE  H16X12776   3.783   6.876   4.885  0.3441 -1.2466 -0.0768
  120SOPE  H16Y12777   3.868   6.803   4.740 -1.6197 -1.6187  1.9608
  120SOPE  C31712778   3.894   7.007   4.766 -0.3208  0.2108  0.5046
  120SOPE  H17X12779   3.994   7.001   4.719 -0.2845  0.9663  0.4678
  120SOPE  H17Y12780   3.899   7.084   4.845  0.3323  0.4900  0.1981
  120SOPE  C31812781   3.787   7.039   4.654  0.0469 -0.3869 -0.1332
  120SOPE  H18X12782   3.683   7.024   4.691 -0.3690  3.9924  1.0129
  120SOPE  H18Y12783   3.800   6.965   4.573 -0.8634 -3.9001  2.6732
  120SOPE  H18Z12784   3.790   7.147   4.628  0.7112  0.2134  2.1402
  121SOPE     N12785   1.791   5.313   6.702  0.2667  0.4776  0.0763
  121SOPE   HN112786   1.869   5.369   6.741 -0.3725  0.8131  0.9087
  121SOPE   HN212787   1.715   5.377   6.670 -0.9028 -0.6336  0.5204
  121SOPE   HN312788   1.758   5.242   6.770  3.5838 -0.5774  0.7631
  121SOPE   C1212789   1.844   5.231   6.587 -0.3780  0.5422  0.2831
  121SOPE  H12A12790   1.754   5.186   6.539 -0.9438 -0.1668  1.9303
  121SOPE  H12B12791   1.916   5.156   6.628  2.6161  2.2324 -1.5390
  121SOPE   C1112792   1.919   5.307   6.480  0.4082  0.4109 -0.3704
  121SOPE  H11A12793   1.851   5.382   6.433 -1.6961 -3.2587 -3.8792
  121SOPE  H11B12794   1.947   5.238   6.397  0.1417 -0.0353 -0.0943
  121SOPE     P12795   2.169   5.316   6.512 -0.1242 -0.1467 -0.0616
  121SOPE   O1312796   2.165   5.171   6.532  0.0972 -0.1837  0.4449
  121SOPE   O1412797   2.272   5.385   6.593 -0.4568 -0.1660 -0.1880
  121SOPE   O1212798   2.032   5.378   6.541 -0.3041 -0.1015 -0.0069
  121SOPE   O1112799   2.192   5.349   6.358  0.2140 -0.3409  0.2062
  121SOPE    C112800   2.189   5.483   6.304  0.0303  1.0804  0.0129
  121SOPE    HA12801   2.278   5.545   6.328  0.7341  0.9308 -1.9994
  121SOPE    HB12802   2.096   5.533   6.337  1.2097  3.0326  0.5123
  121SOPE    C212803   2.200   5.470   6.143  0.6547 -0.1142 -0.1676
  121SOPE    HS12804   2.194   5.571   6.095 -0.4799 -0.1007 -0.0236
  121SOPE   O2112805   2.104   5.383   6.083  0.9718  0.2413 -0.3082
  121SOPE   C2112806   1.973   5.428   6.096 -0.1899  0.5791 -1.0319
  121SOPE   O2212807   1.956   5.540   6.141  0.6489 -0.3986  0.0017
  121SOPE   C2212808   1.867   5.322   6.062 -0.8611 -0.2572  0.1892
  121SOPE   H2R12809   1.854   5.245   6.142 -3.3815 -0.3544 -0.2316
  121SOPE   H2S12810   1.907   5.266   5.975  0.0869  0.1175  0.3765
  121SOPE    C312811   2.341   5.414   6.105 -0.5620 -0.5261  0.5491
  121SOPE    HX12812   2.351   5.306   6.128 -0.4472 -0.4610  0.8042
  121SOPE    HY12813   2.415   5.460   6.174  1.7040 -1.7695 -0.9281
  121SOPE   O3112814   2.364   5.423   5.962 -0.3929 -0.4009  0.1729
  121SOPE   C3112815   2.442   5.530   5.920 -0.4162  0.3404 -0.2160
  121SOPE   O3212816   2.484   5.616   5.996 -0.0370  0.4009 -0.4901
  121SOPE   C3212817   2.462   5.528   5.776 -0.5345 -0.3637 -0.6448
  121SOPE   H2X12818   2.512   5.434   5.744  1.1708  1.0503 -2.3508
  121SOPE   H2Y12819   2.537   5.609   5.761  1.4383 -1.9237  0.2763
  121SOPE   C2312820   1.735   5.389   6.028 -0.1041 -0.4419 -0.2074
  121SOPE   H3R12821   1.697   5.438   6.120 -0.7174  0.0534 -0.7187
  121SOPE   H3S12822   1.655   5.320   5.995 -1.1089  0.6595 -0.1413
  121SOPE   C2412823   1.741   5.491   5.916  0.2049  0.0763  0.9834
  121SOPE   H4R12824   1.793   5.582   5.953  1.4763 -0.5614  0.8240
  121SOPE   H4S12825   1.787   5.453   5.822  0.1674  1.8278  0.2196
  121SOPE   C2512826   1.600   5.546   5.871 -0.4882 -0.4936 -0.5417
  121SOPE   H5R12827   1.534   5.458   5.855  0.3241 -1.9723  3.2729
  121SOPE   H5S12828   1.554   5.604   5.954 -0.5566 -0.4768 -0.5912
  121SOPE   C2612829   1.589   5.636   5.747 -0.0285 -0.1797  0.3508
  121SOPE   H6R12830   1.629   5.735   5.776  1.1112 -0.6802  0.5122
  121SOPE   H6S12831   1.653   5.589   5.670 -0.1727 -1.9850  1.2736
  121SOPE   C2712832   1.443   5.650   5.689 -0.0433 -0.3031 -0.1723
  121SOPE   H7R12833   1.380   5.559   5.687 -0.0265 -0.3267  0.2994
  121SOPE   H7S12834   1.400   5.721   5.763 -1.2649  0.0298 -1.1754
  121SOPE   C2812835   1.445   5.722   5.556  0.6365 -0.1066 -0.7427
  121SOPE   H8R12836   1.514   5.809   5.561  0.1519  0.2440  0.1603
  121SOPE   H8S12837   1.483   5.646   5.485 -0.1932  0.4462 -1.7979
  121SOPE   C2912838   1.309   5.769   5.505 -0.6429  0.5708 -0.3427
  121SOPE   H9112839   1.257   5.833   5.577  2.0689  1.8978  0.5825
  121SOPE  C21012840   1.245   5.724   5.396 -0.3696  0.7628 -0.5240
  121SOPE  H10112841   1.154   5.779   5.370 -1.0415 -0.1884 -0.2358
  121SOPE  C21112842   1.285   5.621   5.302 -0.3261  0.0221  0.4852
  121SOPE  H11R12843   1.193   5.572   5.263  0.8427 -0.9698 -1.1072
  121SOPE  H11S12844   1.335   5.534   5.351  1.3899 -1.0050 -2.7925
  121SOPE  C21212845   1.346   5.679   5.169 -0.4329  0.2136 -0.4989
  121SOPE  H12R12846   1.370   5.783   5.197 -1.3345 -0.2231  2.2765
  121SOPE  H12S12847   1.264   5.674   5.094 -1.5588  0.9948  0.6445
  121SOPE  C21312848   1.479   5.602   5.121  0.1956 -0.7429  0.9142
  121SOPE  H13R12849   1.543   5.571   5.207  1.6748  1.7521  0.8202
  121SOPE  H13S12850   1.544   5.673   5.067 -1.0030 -0.0871  0.3049
  121SOPE  C21412851   1.460   5.481   5.035  0.4850  0.1992  0.0758
  121SOPE  H14R12852   1.421   5.515   4.937  0.5550  3.2877  0.9849
  121SOPE  H14S12853   1.375   5.418   5.068  0.2357  1.4692  2.0574
  121SOPE  C21512854   1.600   5.420   5.014 -1.0323 -0.1921  0.1878
  121SOPE  H15R12855   1.678   5.498   5.013 -0.9391 -0.2845 -0.3804
  121SOPE  H15S12856   1.607   5.368   4.916  2.0754 -0.8409  0.6691
  121SOPE  C21612857   1.638   5.323   5.123 -0.2945  0.2636 -0.5655
  121SOPE  H16R12858   1.541   5.272   5.140  1.1484 -2.2342  0.7922
  121SOPE  H16S12859   1.669   5.374   5.217 -0.3734  0.0078 -0.4014
  121SOPE  C21712860   1.751   5.223   5.087  0.1973  0.1045  0.3532
  121SOPE  H17R12861   1.719   5.159   5.003 -2.3392 -0.3703  1.5747
  121SOPE  H17S12862   1.788   5.159   5.170  0.8615 -0.3062 -0.2505
  121SOPE  C21812863   1.860   5.320   5.050  0.7463  0.0868  0.2156
  121SOPE  H18R12864   1.855   5.354   4.945  2.6768 -0.4020 -0.0815
  121SOPE  H18S12865   1.958   5.267   5.058 -0.0241 -1.6601 -1.1794
  121SOPE  H18T12866   1.862   5.400   5.127  0.8593 -0.0544  0.3622
  121SOPE   C3312867   2.339   5.556   5.688  0.0275 -0.2308 -0.3228
  121SOPE   H3X12868   2.305   5.661   5.697  1.3834  0.2878 -0.9803
  121SOPE   H3Y12869   2.258   5.492   5.729 -0.8767  0.4695 -0.9907
  121SOPE   C3412870   2.360   5.533   5.537  0.1416  0.4821  0.6855
  121SOPE   H4X12871   2.260   5.542   5.490 -0.1902 -0.7110  1.1251
  121SOPE   H4Y12872   2.385   5.427   5.518  0.0491  0.8799 -2.1892
  121SOPE   C3512873   2.484   5.610   5.478 -0.5651 -0.2051  0.1929
  121SOPE   H5X12874   2.575   5.562   5.520  1.3649  3.6259  0.8206
  121SOPE   H5Y12875   2.489   5.715   5.514  0.7508 -0.0900 -0.2756
  121SOPE   C3612876   2.480   5.613   5.325  0.3360  1.3457  0.0415
  121SOPE   H6X12877   2.378   5.610   5.282 -0.7886  0.9467  2.5596
  121SOPE   H6Y12878   2.525   5.517   5.293 -2.2699  0.0678 -0.0475
  121SOPE   C3712879   2.555   5.722   5.257 -0.6017 -0.4027  0.4352
  121SOPE   H7X12880   2.640   5.745   5.326 -1.9008  1.3804  1.5348
  121SOPE   H7Y12881   2.494   5.815   5.253  0.3092  0.1508 -1.5421
  121SOPE   C3812882   2.593   5.686   5.113 -0.6481 -0.4720 -0.3737
  121SOPE   H8X12883   2.506   5.671   5.045 -0.6470 -0.0345 -0.4707
  121SOPE   H8Y12884   2.647   5.588   5.114  2.5231  1.1653  0.6418
  121SOPE   C3912885   2.693   5.786   5.059 -0.8758 -0.1583 -0.3341
  121SOPE   H9X12886   2.777   5.789   5.132 -1.9764  1.1659  0.9464
  121SOPE   H9Y12887   2.647   5.885   5.077 -1.0975 -0.2937 -0.1580
  121SOPE  C31012888   2.724   5.766   4.911  0.1505 -0.1776 -0.3615
  121SOPE  H10X12889   2.627   5.759   4.856  0.3470 -0.8342 -0.6353
  121SOPE  H10Y12890   2.777   5.669   4.896 -0.9543 -0.6046 -1.8400
  121SOPE  C31112891   2.814   5.877   4.855  0.0744 -0.7610 -0.2936
  121SOPE  H11X12892   2.914   5.863   4.900 -0.9022  2.3362  3.3239
  121SOPE  H11Y12893   2.774   5.973   4.892 -1.0565 -2.1215  2.2636
  121SOPE  C31212894   2.819   5.885   4.708  0.1430 -0.5172 -0.2775
  121SOPE  H12X12895   2.720   5.925   4.677 -0.2272  1.6479  3.1711
  121SOPE  H12Y12896   2.830   5.786   4.659 -0.9815 -1.7262  1.7591
  121SOPE  C31312897   2.941   5.967   4.672  0.1593  0.0569 -0.8460
  121SOPE  H13X12898   3.031   5.917   4.712 -0.4563 -0.5663 -0.2129
  121SOPE  H13Y12899   2.946   6.068   4.717  3.6646 -0.4428  0.1499
  121SOPE  C31412900   2.958   5.967   4.527  0.2123  0.5122 -0.0705
  121SOPE  H14X12901   2.966   5.869   4.474  0.9186  1.3673 -1.6239
  121SOPE  H14Y12902   3.051   6.025   4.511  0.0282  1.0545  0.7777
  121SOPE  C31512903   2.844   6.041   4.447  0.3751  0.2149 -0.1880
  121SOPE  H15X12904   2.838   6.148   4.476 -1.6451  0.3519 -0.9321
  121SOPE  H15Y12905   2.742   5.996   4.454  0.2281  0.7835  2.0636
  121SOPE  C31612906   2.870   6.045   4.296 -0.2319  0.1974 -0.9483
  121SOPE  H16X12907   2.776   6.061   4.239 -0.1795 -1.0305 -1.4158
  121SOPE  H16Y12908   2.907   5.950   4.250 -2.2571 -0.1936 -1.8821
  121SOPE  C31712909   2.969   6.150   4.245 -0.5740 -0.0105  0.0854
  121SOPE  H17X12910   3.075   6.125   4.264 -1.0341 -0.3834  2.5230
  121SOPE  H17Y12911   2.954   6.240   4.308 -0.3945  1.4634 -1.8869
  121SOPE  C31812912   2.955   6.193   4.097 -0.9607 -0.3261  0.3425
  121SOPE  H18X12913   3.014   6.284   4.073 -0.0648 -1.3479 -1.5243
  121SOPE  H18Y12914   2.853   6.223   4.066 -0.3472  0.4759 -0.9729
  121SOPE  H18Z12915   2.985   6.114   4.025  0.1714  1.3446 -1.0827
  122SOPE     N12916   2.292   5.061   6.292 -0.5047 -0.0114  0.5895
  122SOPE   HN112917   2.219   5.067   6.366  1.4425 -1.7020  2.8029
  122SOPE   HN212918   2.352   4.977   6.304  3.5300  2.4030 -0.7504
  122SOPE   HN312919   2.362   5.137   6.297 -0.8275  0.5191 -1.6876
  122SOPE   C1212920   2.218   5.058   6.156  0.7834  0.2150 -0.0384
  122SOPE  H12A12921   2.285   5.022   6.076  0.5783  1.4735 -0.8196
  122SOPE  H12B12922   2.203   5.164   6.124 -1.2482  0.2727  0.9143
  122SOPE   C1112923   2.084   4.985   6.152 -0.5406 -1.0809  0.4900
  122SOPE  H11A12924   2.113   4.878   6.145 -0.8512 -1.2266  1.3566
  122SOPE  H11B12925   2.048   5.018   6.052 -0.2454  0.1840  0.7797
  122SOPE     P12926   1.898   4.924   6.318  0.0849  0.2376 -0.1480
  122SOPE   O1312927   1.790   5.012   6.371 -0.0252  0.3933 -0.4096
  122SOPE   O1412928   1.972   4.857   6.421 -0.0785  0.5190 -0.3813
  122SOPE   O1212929   1.995   5.029   6.253 -0.7614 -0.4880  0.1187
  122SOPE   O1112930   1.844   4.842   6.200  0.6875  0.4211  0.9380
  122SOPE    C112931   1.766   4.901   6.091 -0.0390  0.0425 -0.5848
  122SOPE    HA12932   1.767   4.840   5.997 -0.2471 -1.5355  0.4015
  122SOPE    HB12933   1.806   5.003   6.069 -1.3063  0.5363 -0.6650
  122SOPE    C212934   1.612   4.899   6.129 -0.1687  0.5466 -0.2448
  122SOPE    HS12935   1.602   4.937   6.233 -1.5540 -0.8829  0.1803
  122SOPE   O2112936   1.564   4.762   6.124  0.6258 -0.5855  0.3330
  122SOPE   C2112937   1.455   4.737   6.191  0.2332 -0.3272  0.3957
  122SOPE   O2212938   1.400   4.817   6.263  0.4319  0.1130  0.1660
  122SOPE   C2212939   1.385   4.602   6.146  0.2276 -0.0160 -0.4869
  122SOPE   H2R12940   1.278   4.609   6.173  1.0349 -0.1160  3.2670
  122SOPE   H2S12941   1.442   4.518   6.192  1.4711  1.2518  0.3570
  122SOPE    C312942   1.526   5.000   6.039  0.1468 -0.5224 -0.0744
  122SOPE    HX12943   1.580   5.096   6.056  0.7560 -0.7937 -0.4185
  122SOPE    HY12944   1.422   5.003   6.078 -0.1318 -0.2780 -0.8219
  122SOPE   O3112945   1.537   4.956   5.903 -0.5157 -0.0888 -0.0845
  122SOPE   C3112946   1.433   4.906   5.850 -0.8571  0.0254  0.6586
  122SOPE   O3212947   1.319   4.911   5.888  0.6045 -0.0390  0.7557
  122SOPE   C3212948   1.481   4.839   5.717  0.6884 -0.5068 -0.9159
  122SOPE   H2X12949   1.548   4.755   5.746  0.7368  0.2279  1.2881
  122SOPE   H2Y12950   1.539   4.917   5.662 -0.2722  0.0137 -1.2099
  122SOPE   C2312951   1.401   4.572   5.991 -0.0551  0.0632 -0.9060
  122SOPE   H3R12952   1.509   4.582   5.965  0.2333  1.7660  0.7421
  122SOPE   H3S12953   1.331   4.640   5.939 -2.2203 -0.6017  0.9818
  122SOPE   C2412954   1.357   4.427   5.953 -0.0511 -0.6918 -0.0897
  122SOPE   H4R12955   1.435   4.355   5.985 -0.3008 -1.4894 -1.1894
  122SOPE   H4S12956   1.262   4.409   6.009 -1.1540  0.3245 -1.5453
  122SOPE   C2512957   1.322   4.400   5.804 -0.8898 -0.2543 -0.3601
  122SOPE   H5R12958   1.230   4.461   5.787 -1.5276 -0.8493  0.8055
  122SOPE   H5S12959   1.402   4.444   5.740 -1.3391  0.0925 -0.6945
  122SOPE   C2612960   1.297   4.255   5.754 -0.7925 -0.3559 -0.3542
  122SOPE   H6R12961   1.388   4.200   5.785 -0.4935 -0.0024 -0.5951
  122SOPE   H6S12962   1.221   4.197   5.811  0.8668 -1.8759  0.3904
  122SOPE   C2712963   1.263   4.253   5.606 -0.5471  0.5202  0.0569
  122SOPE   H7R12964   1.183   4.330   5.596  1.9861  3.0402 -2.6960
  122SOPE   H7S12965   1.346   4.296   5.546  0.4177  0.8031  1.5555
  122SOPE   C2812966   1.235   4.121   5.546  0.3589 -0.1159 -0.0857
  122SOPE   H8R12967   1.149   4.068   5.592 -0.1112  1.2955  0.7060
  122SOPE   H8S12968   1.191   4.135   5.445  0.5015  1.3433  0.0430
  122SOPE   C2912969   1.358   4.041   5.540  0.4906 -0.1049 -0.0465
  122SOPE   H9112970   1.384   3.988   5.633  0.0710 -0.7686 -0.3026
  122SOPE  C21012971   1.436   4.017   5.434  0.3856  0.6399  0.2729
  122SOPE  H10112972   1.523   3.951   5.445  1.9296  2.5379  0.0536
  122SOPE  C21112973   1.411   4.074   5.299 -0.4156 -0.9261  0.0438
  122SOPE  H11R12974   1.500   4.097   5.238 -1.3628 -1.1159 -1.4599
  122SOPE  H11S12975   1.358   4.171   5.305 -0.0634 -0.7710  0.8295
  122SOPE  C21212976   1.321   3.987   5.212  0.3786 -0.1899 -0.0842
  122SOPE  H12R12977   1.318   4.045   5.118 -1.1451 -1.2240 -0.7189
  122SOPE  H12S12978   1.214   3.982   5.241  0.5776 -1.8452  0.5020
  122SOPE  C21312979   1.380   3.846   5.180 -0.0394  0.3022 -0.0104
  122SOPE  H13R12980   1.376   3.782   5.271 -0.3140 -0.9194 -0.8484
  122SOPE  H13S12981   1.484   3.846   5.141 -0.3239 -0.8501 -0.8448
  122SOPE  C21412982   1.282   3.767   5.089 -0.5824 -0.3064 -0.4903
  122SOPE  H14R12983   1.264   3.823   4.995 -3.4335  3.8773  2.1805
  122SOPE  H14S12984   1.181   3.762   5.136 -1.9874  1.7025 -3.0258
  122SOPE  C21512985   1.340   3.628   5.065  0.0677  0.1900 -0.2710
  122SOPE  H15R12986   1.392   3.582   5.152  1.2086 -0.9315 -1.4966
  122SOPE  H15S12987   1.409   3.628   4.978 -0.2422 -2.1694 -0.5695
  122SOPE  C21612988   1.243   3.528   4.992  0.6810  0.1494  0.3448
  122SOPE  H16R12989   1.219   3.568   4.891 -0.1258 -1.1674 -0.0042
  122SOPE  H16S12990   1.144   3.521   5.044  0.5560 -0.6506  0.0113
  122SOPE  C21712991   1.297   3.376   4.977  0.6000 -0.3459  0.3002
  122SOPE  H17R12992   1.220   3.309   4.933  0.7861 -0.7257  0.5557
  122SOPE  H17S12993   1.328   3.324   5.070 -1.2202 -0.2606  1.0040
  122SOPE  C21812994   1.419   3.369   4.878  0.3119  0.4087 -0.7065
  122SOPE  H18R12995   1.388   3.410   4.779 -1.5225 -0.3896 -0.4940
  122SOPE  H18S12996   1.459   3.267   4.858  2.6565  1.1208  0.0229
  122SOPE  H18T12997   1.506   3.418   4.925 -0.0795  0.5593 -0.1361
  122SOPE   C3312998   1.359   4.770   5.641 -0.3906  0.2133 -0.8061
  122SOPE   H3X12999   1.277   4.840   5.615 -2.0202 -1.1120  0.4984
  122SOPE   H3Y13000   1.315   4.691   5.706  1.1931 -0.1070 -0.0694
  122SOPE   C3413001   1.401   4.681   5.517 -0.0180 -0.8369  0.0931
  122SOPE   H4X13002   1.494   4.624   5.536  1.3195  0.8948 -0.8896
  122SOPE   H4Y13003   1.435   4.757   5.443 -0.0594 -1.7667 -0.9026
  122SOPE   C3513004   1.296   4.602   5.448 -0.2104 -0.1586 -0.6187
  122SOPE   H5X13005   1.219   4.672   5.409  1.1503  0.6491 -1.9477
  122SOPE   H5Y13006   1.260   4.525   5.520  0.7204  1.0431  1.2101
  122SOPE   C3613007   1.350   4.527   5.333  0.3373 -0.6301  0.0341
  122SOPE   H6X13008   1.434   4.459   5.358 -0.5491 -1.1338  1.8516
  122SOPE   H6Y13009   1.390   4.601   5.260 -1.4006  0.1283 -0.1975
  122SOPE   C3713010   1.251   4.445   5.254 -0.1650  0.3823 -0.2580
  122SOPE   H7X13011   1.149   4.487   5.246 -1.5720 -2.6717  0.3112
  122SOPE   H7Y13012   1.238   4.352   5.313 -1.8809  0.4955 -0.4016
  122SOPE   C3813013   1.301   4.401   5.117  0.3492 -0.2823  0.1744
  122SOPE   H8X13014   1.394   4.343   5.137  3.0429  3.0998 -1.5382
  122SOPE   H8Y13015   1.325   4.491   5.057 -1.3563  0.0193 -0.0985
  122SOPE   C3913016   1.199   4.318   5.036 -0.3667 -0.0544  0.0309
  122SOPE   H9X13017   1.115   4.388   5.014  0.3346  0.2519 -1.8567
  122SOPE   H9Y13018   1.152   4.245   5.105  2.6601 -4.4471 -2.1097
  122SOPE  C31013019   1.241   4.255   4.905 -0.2856  0.3532  0.1228
  122SOPE  H10X13020   1.321   4.179   4.923  0.1880  0.3619 -1.7127
  122SOPE  H10Y13021   1.292   4.331   4.842 -1.0510  0.0525 -0.8842
  122SOPE  C31113022   1.126   4.207   4.823 -0.0523  0.2661  0.1139
  122SOPE  H11X13023   1.063   4.289   4.783  0.7060  0.3175 -1.0366
  122SOPE  H11Y13024   1.064   4.140   4.886 -0.0308  0.1118 -0.0309
  122SOPE  C31213025   1.180   4.144   4.694 -0.1552  0.0667 -0.3061
  122SOPE  H12X13026   1.277   4.194   4.675  0.7150 -1.2176  0.6267
  122SOPE  H12Y13027   1.113   4.174   4.610  0.5094 -1.3320 -1.3937
  122SOPE  C31313028   1.202   3.988   4.702 -0.3034  0.2609  0.5552
  122SOPE  H13X13029   1.107   3.935   4.722  1.0349 -2.1062  1.1055
  122SOPE  H13Y13030   1.276   3.975   4.784  0.5387  1.6017  0.0471
  122SOPE  C31413031   1.259   3.947   4.566 -0.0725  0.1249 -0.0905
  122SOPE  H14X13032   1.337   4.017   4.527  1.0714 -0.3312  1.2720
  122SOPE  H14Y13033   1.175   3.932   4.495  1.3580 -1.2269 -1.5827
  122SOPE  C31513034   1.320   3.806   4.572 -0.1487 -0.4438  0.8049
  122SOPE  H15X13035   1.340   3.783   4.465 -2.6032 -0.1714  0.2406
  122SOPE  H15Y13036   1.255   3.723   4.609  0.7074 -1.1352  0.8058
  122SOPE  C31613037   1.462   3.800   4.632  0.5018 -1.0401  0.7615
  122SOPE  H16X13038   1.459   3.738   4.724  2.9728 -0.5893  1.2227
  122SOPE  H16Y13039   1.497   3.901   4.663  1.3182 -0.8642 -0.6326
  122SOPE  C31713040   1.567   3.744   4.536 -0.5722  0.3347 -0.3259
  122SOPE  H17X13041   1.550   3.794   4.438 -1.2198 -2.1875 -1.5858
  122SOPE  H17Y13042   1.533   3.641   4.514  0.5013 -0.3289  1.0100
  122SOPE  C31813043   1.706   3.768   4.578 -0.5351 -0.3007 -0.1910
  122SOPE  H18X13044   1.736   3.726   4.677  1.8506  1.5835 -0.0202
  122SOPE  H18Y13045   1.736   3.874   4.587 -2.2046  0.1538  0.4997
  122SOPE  H18Z13046   1.779   3.723   4.508 -0.8795 -0.0726 -0.7047
  123SOPE     N13047   4.642   1.752   2.814 -0.5313  0.0644  0.2581
  123SOPE   HN113048   4.656   1.650   2.830  1.6043 -0.0406 -1.6991
  123SOPE   HN213049   4.547   1.777   2.848 -1.1053 -0.0355 -1.1985
  123SOPE   HN313050   4.640   1.773   2.712  0.4092  0.7100  0.3555
  123SOPE   C1213051   4.742   1.849   2.876 -0.1066 -0.1267 -0.4111
  123SOPE  H12A13052   4.746   1.841   2.986  3.0387 -1.2773 -0.5304
  123SOPE  H12B13053   4.713   1.952   2.846 -2.1851 -0.8739 -1.1888
  123SOPE   C1113054   4.887   1.825   2.830 -0.3572  0.4062 -0.0024
  123SOPE  H11A13055   4.926   1.726   2.862  2.2881  1.5165  0.5215
  123SOPE  H11B13056   4.949   1.900   2.884  1.0994 -0.7872  0.0438
  123SOPE     P13057   4.917   1.983   2.622  0.0371  0.2780  0.2263
  123SOPE   O1313058   4.784   2.034   2.592 -0.3874 -0.6268  0.2251
  123SOPE   O1413059   5.014   1.980   2.504  0.4506  0.2211 -0.5044
  123SOPE   O1213060   4.907   1.841   2.688  0.2809  0.3109 -0.4197
  123SOPE   O1113061   4.975   2.081   2.728  0.0087 -0.0755 -0.1886
  123SOPE    C113062   4.945   2.221   2.733 -0.5532 -0.0579 -0.2355
  123SOPE    HA13063   4.837   2.239   2.751 -0.5119  1.0778 -1.0305
  123SOPE    HB13064   4.964   2.270   2.635  0.7268  1.2592  0.6305
  123SOPE    C213065   5.031   2.303   2.837  0.3123  0.2244 -0.1105
  123SOPE    HS13066   5.113   2.338   2.770 -0.8223  1.8404 -0.6959
  123SOPE   O2113067   5.076   2.222   2.950 -0.4640  0.5457 -0.1035
  123SOPE   C2113068   5.205   2.227   2.976 -0.0766  0.0752  0.1439
  123SOPE   O2213069   5.295   2.261   2.902 -0.1368 -0.0086  0.0680
  123SOPE   C2213070   5.218   2.165   3.117 -0.6932  0.1527  0.2137
  123SOPE   H2R13071   5.275   2.070   3.104  1.4280  1.4083 -0.0956
  123SOPE   H2S13072   5.115   2.139   3.151 -1.0679  1.1177 -0.1629
  123SOPE    C313073   4.958   2.438   2.882 -0.2856  0.1505  0.4790
  123SOPE    HX13074   4.872   2.397   2.939 -1.9349 -1.1352 -2.7174
  123SOPE    HY13075   4.918   2.492   2.794 -0.6876  0.5092  0.8777
  123SOPE   O3113076   5.045   2.511   2.970  0.0236  0.3094  0.1014
  123SOPE   C3113077   5.091   2.633   2.928 -0.6725  0.5040  0.5909
  123SOPE   O3213078   5.091   2.672   2.811 -0.0197  0.1311 -0.3444
  123SOPE   C3213079   5.149   2.711   3.038  0.0586 -0.0786 -0.4256
  123SOPE   H2X13080   5.251   2.671   3.058 -0.2043 -1.1004 -1.0366
  123SOPE   H2Y13081   5.090   2.699   3.131  1.1610 -0.1847  0.2750
  123SOPE   C2313082   5.282   2.266   3.218 -0.4472  0.0863  0.0948
  123SOPE   H3R13083   5.374   2.310   3.174 -1.1966  2.1998  0.4954
  123SOPE   H3S13084   5.309   2.210   3.310 -0.2831  0.4901  0.2977
  123SOPE   C2413085   5.185   2.376   3.260  0.2792 -0.4554 -0.0448
  123SOPE   H4R13086   5.135   2.418   3.170 -1.5863 -2.9793 -0.2788
  123SOPE   H4S13087   5.097   2.342   3.319 -0.4373  1.6386  0.2079
  123SOPE   C2513088   5.255   2.494   3.326  0.4415 -0.5550  0.1937
  123SOPE   H5R13089   5.331   2.536   3.256  2.0312  0.5254  2.4117
  123SOPE   H5S13090   5.195   2.588   3.328  0.5563 -0.4915  1.5078
  123SOPE   C2613091   5.336   2.468   3.453  0.6247  0.1604  0.1443
  123SOPE   H6R13092   5.265   2.417   3.521  0.1508  0.8372  0.1589
  123SOPE   H6S13093   5.420   2.396   3.438  0.6310 -0.6436  3.3369
  123SOPE   C2713094   5.394   2.600   3.512  0.8223  0.2331  0.4552
  123SOPE   H7R13095   5.493   2.616   3.466  0.4863 -0.8582 -0.7163
  123SOPE   H7S13096   5.339   2.689   3.472  1.3536 -0.2691 -1.4676
  123SOPE   C2813097   5.394   2.606   3.660 -0.4073  0.1005  0.1297
  123SOPE   H8R13098   5.434   2.703   3.697  0.9971 -0.3223 -0.2296
  123SOPE   H8S13099   5.290   2.590   3.695 -0.7262 -1.5851 -1.4508
  123SOPE   C2913100   5.474   2.493   3.718  0.2675  0.1472  0.0912
  123SOPE   H9113101   5.474   2.401   3.659  2.1894  0.7369 -0.9078
  123SOPE  C21013102   5.517   2.483   3.844 -0.1760 -0.0812 -0.2268
  123SOPE  H10113103   5.547   2.387   3.888 -0.5626 -0.0982  0.0041
  123SOPE  C21113104   5.514   2.596   3.944 -0.3602  0.0175 -0.4386
  123SOPE  H11R13105   5.501   2.695   3.896  1.3829 -0.4927 -2.0572
  123SOPE  H11S13106   5.615   2.606   3.988 -0.9010  2.0814  0.4323
  123SOPE  C21213107   5.392   2.573   4.047  0.6888 -0.2021  0.1176
  123SOPE  H12R13108   5.413   2.477   4.098 -1.5774 -1.0565 -0.4288
  123SOPE  H12S13109   5.292   2.568   3.998 -0.6024  1.4532  2.4039
  123SOPE  C21313110   5.388   2.675   4.163  0.7497 -0.1612 -0.2952
  123SOPE  H13R13111   5.376   2.781   4.134  0.3270  0.2587  1.3057
  123SOPE  H13S13112   5.487   2.673   4.214 -0.6135 -0.9176  2.5297
  123SOPE  C21413113   5.282   2.639   4.267  0.3680 -0.1832  0.3028
  123SOPE  H14R13114   5.325   2.554   4.324 -2.1327 -1.3313  0.6090
  123SOPE  H14S13115   5.185   2.601   4.231 -1.2503 -1.1609  4.9200
  123SOPE  C21513116   5.245   2.754   4.364  0.0594 -0.8019  0.3457
  123SOPE  H15R13117   5.196   2.838   4.312 -1.6927 -0.5289  2.2948
  123SOPE  H15S13118   5.342   2.790   4.403 -0.4057  0.2080  0.6044
  123SOPE  C21613119   5.169   2.709   4.485  0.6214  0.0620 -0.4731
  123SOPE  H16R13120   5.134   2.795   4.547  2.7599  0.0192  0.9099
  123SOPE  H16S13121   5.241   2.657   4.552  0.4329 -1.2901 -1.2873
  123SOPE  C21713122   5.073   2.589   4.470  0.1774  1.1685  0.0326
  123SOPE  H17R13123   5.127   2.504   4.423 -2.1815 -0.5188  0.1888
  123SOPE  H17S13124   4.980   2.601   4.411 -1.1489  0.6664  1.9097
  123SOPE  C21813125   5.027   2.550   4.611 -0.1440 -0.1057  0.3195
  123SOPE  H18R13126   4.959   2.463   4.604  1.1895 -1.3540  2.1303
  123SOPE  H18S13127   4.980   2.642   4.653  2.6940  1.1534  0.9785
  123SOPE  H18T13128   5.114   2.518   4.671  0.4108 -0.8476 -0.8563
  123SOPE   C3313129   5.165   2.856   3.002 -0.7201  0.3643 -0.6142
  123SOPE   H3X13130   5.064   2.897   3.023 -1.3546 -0.9859 -0.9423
  123SOPE   H3Y13131   5.199   2.866   2.897 -3.6098  0.8242 -1.6030
  123SOPE   C3413132   5.259   2.935   3.105  0.5307 -0.0231  0.5491
  123SOPE   H4X13133   5.241   3.044   3.098  1.0423  0.2140  2.3375
  123SOPE   H4Y13134   5.365   2.908   3.090  0.5192  0.1852  0.0923
  123SOPE   C3513135   5.208   2.907   3.249 -0.6698  0.1326 -0.4778
  123SOPE   H5X13136   5.261   2.821   3.298 -1.4145 -0.0373  0.0404
  123SOPE   H5Y13137   5.098   2.897   3.260 -0.7490  0.7178 -0.7056
  123SOPE   C3613138   5.227   3.032   3.338 -0.0033  0.2684  0.1786
  123SOPE   H6X13139   5.163   3.113   3.297  1.5128  1.1615 -0.5359
  123SOPE   H6Y13140   5.331   3.071   3.329 -0.0077 -0.1193 -2.3602
  123SOPE   C3713141   5.191   3.008   3.484  0.6436 -0.2883  0.7922
  123SOPE   H7X13142   5.268   2.937   3.521  0.7668 -0.2955  0.5271
  123SOPE   H7Y13143   5.089   2.963   3.484  0.8279 -0.7150  1.0142
  123SOPE   C3813144   5.196   3.138   3.563 -0.4852  0.7673 -0.1246
  123SOPE   H8X13145   5.118   3.202   3.517  0.4423  0.6935 -1.9032
  123SOPE   H8Y13146   5.295   3.187   3.554 -0.8566  1.4788 -0.4356
  123SOPE   C3913147   5.143   3.121   3.706 -0.4243  0.3689  0.4123
  123SOPE   H9X13148   5.054   3.056   3.719 -0.4366  0.5046  1.0630
  123SOPE   H9Y13149   5.136   3.224   3.748 -2.0974 -0.5980  2.6981
  123SOPE  C31013150   5.252   3.048   3.792 -0.2899 -0.4088 -0.0128
  123SOPE  H10X13151   5.350   3.100   3.793  0.3604 -1.5536  2.3006
  123SOPE  H10Y13152   5.281   2.948   3.755 -0.5593 -0.4048 -0.2350
  123SOPE  C31113153   5.212   3.022   3.942  0.3833  0.1175 -0.1073
  123SOPE  H11X13154   5.289   2.959   3.991 -0.8381  0.3303  2.2411
  123SOPE  H11Y13155   5.119   2.962   3.945 -0.7041  1.7066 -0.5283
  123SOPE  C31213156   5.197   3.153   4.025  0.5868 -0.0915  0.9098
  123SOPE  H12X13157   5.110   3.213   3.992 -0.1151 -0.6453  1.7127
  123SOPE  H12Y13158   5.290   3.214   4.020 -0.5861  1.6820 -0.2407
  123SOPE  C31313159   5.171   3.115   4.174 -0.3411  0.5928 -0.4603
  123SOPE  H13X13160   5.249   3.047   4.217 -2.7777 -1.6079  0.7687
  123SOPE  H13Y13161   5.085   3.045   4.167 -0.3370  0.6967 -1.6380
  123SOPE  C31413162   5.136   3.230   4.260 -0.2820  0.4474 -0.4357
  123SOPE  H14X13163   5.052   3.286   4.213  0.2104  0.7149 -1.0244
  123SOPE  H14Y13164   5.204   3.317   4.249  0.9563 -0.4056  0.2602
  123SOPE  C31513165   5.120   3.202   4.416 -0.6684 -0.5610  1.2085
  123SOPE  H15X13166   5.080   3.099   4.431  0.3170 -1.1927 -0.1973
  123SOPE  H15Y13167   5.046   3.277   4.450  1.5039  1.3598  1.9474
  123SOPE  C31613168   5.254   3.217   4.493 -0.0386 -0.0978  0.3937
  123SOPE  H16X13169   5.339   3.199   4.424  2.2301  0.5479  2.8753
  123SOPE  H16Y13170   5.260   3.149   4.581 -2.7895  0.2110  0.9287
  123SOPE  C31713171   5.267   3.361   4.546  0.4180 -0.5417  0.2484
  123SOPE  H17X13172   5.177   3.406   4.593  0.5076  1.7803 -1.6185
  123SOPE  H17Y13173   5.298   3.421   4.458  0.1622 -0.5010  0.1866
  123SOPE  C31813174   5.370   3.368   4.664 -0.0575  0.0194  0.5199
  123SOPE  H18X13175   5.466   3.326   4.627 -0.5482 -0.0795 -0.6885
  123SOPE  H18Y13176   5.356   3.301   4.752  1.3733 -0.4817  0.3969
  123SOPE  H18Z13177   5.395   3.472   4.692 -2.0040  0.0759  2.2843
  124SOPE     N13178   2.797   6.055   3.099 -0.1677 -0.3674 -0.2510
  124SOPE   HN113179   2.795   6.057   2.995  0.9728 -0.6902 -0.2963
  124SOPE   HN213180   2.752   6.138   3.141  0.4480  0.7866 -1.7678
  124SOPE   HN313181   2.900   6.060   3.116 -0.0232  3.2814 -1.4178
  124SOPE   C1213182   2.757   5.928   3.174 -0.4975  0.3304 -0.2288
  124SOPE  H12A13183   2.658   5.899   3.133 -0.2653 -2.0433  0.7525
  124SOPE  H12B13184   2.737   5.942   3.282 -0.7608  0.5159 -0.2996
  124SOPE   C1113185   2.859   5.815   3.140  0.4605 -0.0533 -0.1673
  124SOPE  H11A13186   2.828   5.724   3.196  0.6983  0.5342  0.9405
  124SOPE  H11B13187   2.960   5.844   3.178  0.1558  3.7803 -1.7871
  124SOPE     P13188   2.990   5.763   2.912 -0.1777  0.0716  0.2671
  124SOPE   O1313189   3.094   5.867   2.936 -0.2614  0.3609 -0.1837
  124SOPE   O1413190   2.960   5.740   2.770  0.0134 -0.3253 -0.0435
  124SOPE   O1213191   2.858   5.795   2.996 -0.3085  0.1652  0.5796
  124SOPE   O1113192   3.040   5.634   2.975 -0.2425 -0.5101 -0.4917
  124SOPE    C113193   3.174   5.584   2.987 -0.2134  0.5321 -1.0006
  124SOPE    HA13194   3.246   5.667   3.006  1.8548 -1.1010 -1.3909
  124SOPE    HB13195   3.203   5.537   2.891  0.9612  0.8127 -0.8098
  124SOPE    C213196   3.180   5.480   3.102 -0.6773  0.4182  0.9595
  124SOPE    HS13197   3.284   5.441   3.109 -0.8473 -0.6746 -1.6100
  124SOPE   O2113198   3.076   5.387   3.066  0.9998 -0.6786  0.3574
  124SOPE   C2113199   3.099   5.300   2.972  0.0204  0.4236  1.1003
  124SOPE   O2213200   3.205   5.286   2.907  0.1214  0.1006  0.1554
  124SOPE   C2213201   2.971   5.231   2.932 -0.8807  0.4103 -0.6293
  124SOPE   H2R13202   2.935   5.258   2.831  0.4026 -0.0192 -1.2209
  124SOPE   H2S13203   2.898   5.265   3.008  0.3087 -0.2644  0.8827
  124SOPE    C313204   3.140   5.541   3.236  0.3263  0.6213 -0.4923
  124SOPE    HX13205   3.038   5.582   3.231 -0.2415 -0.4582  1.2603
  124SOPE    HY13206   3.214   5.623   3.246  1.9796 -0.6885 -1.3586
  124SOPE   O3113207   3.142   5.448   3.340  0.4464 -0.1904  0.0004
  124SOPE   C3113208   3.114   5.503   3.456 -0.1216  0.0743  0.5812
  124SOPE   O3213209   3.088   5.622   3.476  0.5644 -0.3192  0.6607
  124SOPE   C3213210   3.118   5.395   3.559 -0.3579 -0.0111 -0.4766
  124SOPE   H2X13211   3.221   5.355   3.572 -0.0681  1.0774  0.8359
  124SOPE   H2Y13212   3.061   5.306   3.525 -1.5610 -0.2049  1.8607
  124SOPE   C2313213   2.980   5.073   2.930 -0.2705  0.3861  0.3047
  124SOPE   H3R13214   3.085   5.055   2.897  0.5483  1.4682  2.1524
  124SOPE   H3S13215   2.910   5.034   2.853  1.8304  1.7524 -2.5071
  124SOPE   C2413216   2.972   5.006   3.066 -0.9138 -0.4873 -0.6788
  124SOPE   H4R13217   3.051   5.046   3.133 -0.0613 -1.9029 -0.7930
  124SOPE   H4S13218   2.878   5.032   3.119 -0.4097  4.0255 -1.5970
  124SOPE   C2513219   2.980   4.848   3.059 -0.1158 -0.4911 -0.5442
  124SOPE   H5R13220   3.085   4.814   3.045  0.3195  0.0076  1.2119
  124SOPE   H5S13221   2.945   4.800   3.153 -0.4360 -0.6283 -0.7318
  124SOPE   C2613222   2.894   4.796   2.944 -0.1364  0.3813 -0.1899
  124SOPE   H6R13223   2.789   4.835   2.946 -0.8164 -1.0343 -2.9696
  124SOPE   H6S13224   2.920   4.830   2.842 -2.3059  1.4746 -0.4556
  124SOPE   C2713225   2.877   4.640   2.950 -0.1694  0.2700 -0.0843
  124SOPE   H7R13226   2.855   4.607   2.846 -3.0345  1.0565  0.1832
  124SOPE   H7S13227   2.963   4.585   2.993  0.1025  0.1690 -0.7321
  124SOPE   C2813228   2.750   4.614   3.040 -0.6768  0.6861 -0.2199
  124SOPE   H8R13229   2.761   4.653   3.143 -1.7173 -0.9071  0.5302
  124SOPE   H8S13230   2.665   4.673   2.999 -1.0587  1.0465  1.0391
  124SOPE   C2913231   2.728   4.468   3.030  0.1669  0.1568  0.5719
  124SOPE   H9113232   2.685   4.442   2.932  0.0035 -0.4686  0.8067
  124SOPE  C21013233   2.769   4.364   3.106  0.3167  0.1116 -0.5193
  124SOPE  H10113234   2.721   4.267   3.088 -1.0403  0.3427  1.5560
  124SOPE  C21113235   2.849   4.382   3.232 -0.0219 -0.2874 -0.2559
  124SOPE  H11R13236   2.797   4.323   3.310  1.4509 -0.8273  0.3639
  124SOPE  H11S13237   2.861   4.487   3.266  1.9056 -0.7884  0.7480
  124SOPE  C21213238   2.989   4.316   3.232  0.2974  1.0248  0.1424
  124SOPE  H12R13239   3.055   4.365   3.156 -0.4880  0.0044 -1.2319
  124SOPE  H12S13240   3.001   4.210   3.202  0.4243  0.1534  3.0148
  124SOPE  C21313241   3.047   4.344   3.372 -0.6497 -0.1434 -0.3347
  124SOPE  H13R13242   2.986   4.275   3.434 -0.7974 -1.8491 -2.2686
  124SOPE  H13S13243   3.052   4.453   3.396 -0.4796 -0.1721 -0.2415
  124SOPE  C21413244   3.190   4.297   3.361  0.1214  0.0414  0.4465
  124SOPE  H14R13245   3.249   4.368   3.300  2.6814 -3.6262 -1.7463
  124SOPE  H14S13246   3.184   4.199   3.310 -1.8357 -0.4277  1.4523
  124SOPE  C21513247   3.248   4.268   3.497 -0.4092  0.4423 -0.9408
  124SOPE  H15R13248   3.196   4.179   3.540  1.1566 -0.9105 -1.7420
  124SOPE  H15S13249   3.219   4.351   3.564 -0.0376 -1.1850  1.3476
  124SOPE  C21613250   3.395   4.228   3.490 -0.3728  0.2119  0.4026
  124SOPE  H16R13251   3.454   4.312   3.447  2.3061 -1.3409  0.7620
  124SOPE  H16S13252   3.407   4.147   3.414 -0.3433  0.4087  0.1973
  124SOPE  C21713253   3.455   4.191   3.628 -0.0118  0.5740 -0.2114
  124SOPE  H17R13254   3.565   4.178   3.621  0.0816  1.5198 -0.6646
  124SOPE  H17S13255   3.404   4.095   3.652  0.3245  0.0945 -1.3200
  124SOPE  C21813256   3.436   4.291   3.738 -0.2991  0.3763 -0.2699
  124SOPE  H18R13257   3.328   4.318   3.742  0.1346  2.4198 -1.0420
  124SOPE  H18S13258   3.489   4.388   3.725 -0.3421  0.3338 -0.7757
  124SOPE  H18T13259   3.465   4.248   3.837  0.3858  0.2891 -0.5053
  124SOPE   C3313260   3.068   5.441   3.698 -0.1747 -0.3687  0.0439
  124SOPE   H3X13261   2.960   5.466   3.696 -0.0617  0.1244 -0.8809
  124SOPE   H3Y13262   3.123   5.531   3.733 -0.9654  0.7908 -1.5686
  124SOPE   C3413263   3.100   5.330   3.792  0.8393  0.3118 -0.1606
  124SOPE   H4X13264   3.200   5.288   3.766 -0.2592 -2.0743 -0.8346
  124SOPE   H4Y13265   3.029   5.250   3.759 -1.4649  2.6701 -1.2898
  124SOPE   C3513266   3.082   5.363   3.943 -0.5096 -0.3141  1.0416
  124SOPE   H5X13267   2.983   5.411   3.958 -1.6860 -0.3357 -4.5011
  124SOPE   H5Y13268   3.153   5.442   3.975  0.2439 -0.6072  0.1370
  124SOPE   C3613269   3.108   5.238   4.023 -0.0761 -0.5093  0.2640
  124SOPE   H6X13270   3.198   5.184   3.988 -0.0351 -1.0656  1.1922
  124SOPE   H6Y13271   3.028   5.162   4.012 -0.5026  0.0122 -0.3347
  124SOPE   C3713272   3.115   5.284   4.170 -0.4825  0.1128 -0.4211
  124SOPE   H7X13273   3.014   5.317   4.202 -0.1534  0.4637  0.2656
  124SOPE   H7Y13274   3.193   5.361   4.189 -0.5014 -0.4851  2.5861
  124SOPE   C3813275   3.165   5.174   4.264 -0.1735  0.0478 -0.0092
  124SOPE   H8X13276   3.276   5.160   4.256 -0.1283  0.9435 -1.3303
  124SOPE   H8Y13277   3.117   5.082   4.225 -0.4885  0.2911 -0.1916
  124SOPE   C3913278   3.129   5.200   4.413  0.3108  0.1428 -0.0984
  124SOPE   H9X13279   3.018   5.206   4.406  0.3555  0.1439 -0.8134
  124SOPE   H9Y13280   3.170   5.300   4.440  0.4571  0.6336 -2.0001
  124SOPE  C31013281   3.179   5.083   4.500 -0.0049  0.6773  0.9934
  124SOPE  H10X13282   3.290   5.092   4.510 -0.0892 -0.1316  3.2589
  124SOPE  H10Y13283   3.160   4.984   4.454 -0.0125  0.0291  2.3420
  124SOPE  C31113284   3.102   5.093   4.632  0.0849 -0.0349 -0.4664
  124SOPE  H11X13285   2.998   5.101   4.596  0.8400  0.9622 -2.5929
  124SOPE  H11Y13286   3.124   5.190   4.682  0.5525 -0.1500 -0.4374
  124SOPE  C31213287   3.123   4.973   4.728 -0.1905 -0.6543  0.1292
  124SOPE  H12X13288   3.234   4.969   4.737 -0.2451 -1.9630  0.3884
  124SOPE  H12Y13289   3.094   4.882   4.673  3.1173 -0.4655 -2.2409
  124SOPE  C31313290   3.044   4.991   4.859  0.8144  0.5390  0.7331
  124SOPE  H13X13291   2.935   5.005   4.843  0.7346  0.2578  1.0074
  124SOPE  H13Y13292   3.073   5.088   4.906 -1.5672  2.0631 -0.7648
  124SOPE  C31413293   3.069   4.884   4.971 -0.2752  0.2284  0.8123
  124SOPE  H14X13294   3.175   4.857   4.991  0.3912  0.4104 -2.0430
  124SOPE  H14Y13295   3.030   4.785   4.938  2.3310 -0.8213  0.6284
  124SOPE  C31513296   3.008   4.926   5.107  0.3181  0.1448  0.1152
  124SOPE  H15X13297   2.904   4.938   5.073 -0.2124 -3.0406  0.2368
  124SOPE  H15Y13298   3.046   5.025   5.140 -0.7415  0.2728  1.0306
  124SOPE  C31613299   3.037   4.822   5.213 -0.7676 -0.1138  0.1820
  124SOPE  H16X13300   3.036   4.716   5.180 -1.8142 -0.1191  0.1949
  124SOPE  H16Y13301   2.956   4.819   5.288 -0.5315 -0.1198  0.4367
  124SOPE  C31713302   3.163   4.837   5.300  0.0855 -0.8787  0.5113
  124SOPE  H17X13303   3.172   4.747   5.366 -0.5093 -0.6210  0.9473
  124SOPE  H17Y13304   3.151   4.929   5.361  0.8858  0.9632 -1.9813
  124SOPE  C31813305   3.300   4.850   5.232  0.3278  0.1204 -0.3750
  124SOPE  H18X13306   3.305   4.937   5.162 -0.4302  0.1700 -0.3786
  124SOPE  H18Y13307   3.337   4.761   5.177  0.0581  0.5636 -1.2946
  124SOPE  H18Z13308   3.376   4.866   5.311 -0.1905 -1.9979  0.6087
  125SOPE     N13309   3.093   6.339   3.063  0.5013  0.2082  0.3997
  125SOPE   HN113310   3.051   6.384   2.979  0.1322 -0.8792 -0.0199
  125SOPE   HN213311   3.145   6.259   3.020 -0.2058  0.4240 -0.8985
  125SOPE   HN313312   3.016   6.297   3.118 -2.2552  0.1646 -3.0864
  125SOPE   C1213313   3.195   6.416   3.146  0.5669 -0.3535 -0.2227
  125SOPE  H12A13314   3.140   6.485   3.213 -0.0964 -1.3830  0.3212
  125SOPE  H12B13315   3.253   6.479   3.075  0.1843  2.5288  1.8330
  125SOPE   C1113316   3.273   6.323   3.237 -0.2263 -0.4672  0.0332
  125SOPE  H11A13317   3.205   6.279   3.313  0.2026  1.7471  1.8111
  125SOPE  H11B13318   3.335   6.367   3.318 -0.2322 -3.3354  1.7308
  125SOPE     P13319   3.473   6.275   3.084  0.3025 -0.0055 -0.4558
  125SOPE   O1313320   3.539   6.385   3.147 -0.4291 -0.3208 -0.7502
  125SOPE   O1413321   3.423   6.292   2.942 -0.2821  0.0860  0.1704
  125SOPE   O1213322   3.349   6.226   3.170 -0.1571 -0.3377 -0.1547
  125SOPE   O1113323   3.575   6.163   3.104  0.3310  0.0689  0.0193
  125SOPE    C113324   3.546   6.021   3.117 -0.6612 -0.1375  0.4687
  125SOPE    HA13325   3.613   5.967   3.047 -0.4906  0.5814  0.0742
  125SOPE    HB13326   3.438   5.998   3.101 -0.3023 -3.9930  2.4130
  125SOPE    C213327   3.578   5.964   3.258 -0.3301 -0.9085  0.7352
  125SOPE    HS13328   3.575   5.854   3.246 -1.9175 -0.9990  1.6802
  125SOPE   O2113329   3.475   6.005   3.347  0.0223 -0.1865 -0.0100
  125SOPE   C2113330   3.365   5.930   3.360 -0.4412 -0.0344  0.1060
  125SOPE   O2213331   3.343   5.832   3.286  0.1092  0.8383 -0.6283
  125SOPE   C2213332   3.289   5.968   3.484  0.0667  0.4671 -0.0701
  125SOPE   H2R13333   3.184   5.943   3.458  0.7981 -2.4513 -0.6496
  125SOPE   H2S13334   3.303   6.075   3.508 -0.2757  0.4883  0.0304
  125SOPE    C313335   3.715   6.005   3.316 -0.4174  0.3971 -0.7690
  125SOPE    HX13336   3.710   6.115   3.323  0.4993  0.6079 -2.6684
  125SOPE    HY13337   3.782   5.968   3.235  0.7236 -0.3235  0.4388
  125SOPE   O3113338   3.745   5.930   3.441  0.6161 -0.6296  0.0460
  125SOPE   C3113339   3.713   5.991   3.556  0.0765 -0.0096  0.3399
  125SOPE   O3213340   3.679   6.105   3.571  0.1570  0.6441  0.0851
  125SOPE   C3213341   3.716   5.890   3.667 -1.0326  0.2460 -0.7688
  125SOPE   H2X13342   3.626   5.827   3.650 -1.3650  0.5554 -0.1769
  125SOPE   H2Y13343   3.721   5.943   3.765  1.3466 -0.3439 -0.5060
  125SOPE   C2313344   3.341   5.877   3.596  0.6002  0.0568 -0.0689
  125SOPE   H3R13345   3.443   5.916   3.618 -0.7527  2.9797  1.7008
  125SOPE   H3S13346   3.348   5.770   3.569  1.5092 -0.6645  2.6972
  125SOPE   C2413347   3.268   5.898   3.723  0.0040  0.4337  0.0269
  125SOPE   H4R13348   3.282   6.003   3.758  0.7006  0.1092  0.7404
  125SOPE   H4S13349   3.160   5.875   3.713 -0.1567  0.6660  1.0886
  125SOPE   C2513350   3.332   5.817   3.843 -0.1366  0.8795  0.8169
  125SOPE   H5R13351   3.317   5.710   3.819  0.9113  1.1700 -1.3404
  125SOPE   H5S13352   3.442   5.831   3.848  0.2955 -1.6906 -0.2262
  125SOPE   C2613353   3.266   5.849   3.976 -0.5425  0.3853 -0.4996
  125SOPE   H6R13354   3.280   5.958   3.992 -0.9471  0.3326  0.2209
  125SOPE   H6S13355   3.156   5.833   3.968 -0.1417 -3.3918 -0.0252
  125SOPE   C2713356   3.321   5.768   4.102 -0.5767  0.3867 -0.7127
  125SOPE   H7R13357   3.325   5.659   4.082  0.5497  0.0862  0.9216
  125SOPE   H7S13358   3.429   5.792   4.113 -0.1309 -1.8766  0.3329
  125SOPE   C2813359   3.242   5.793   4.230 -0.5674  0.1386  0.5269
  125SOPE   H8R13360   3.311   5.766   4.312 -3.0409 -4.3460  1.4735
  125SOPE   H8S13361   3.223   5.903   4.231 -2.3187 -0.1049 -0.2342
  125SOPE   C2913362   3.107   5.719   4.226  0.2635 -0.1458 -0.6566
  125SOPE   H9113363   3.046   5.732   4.136  1.5426 -0.6367 -1.6308
  125SOPE  C21013364   3.072   5.627   4.314  0.1006  0.2719  0.0995
  125SOPE  H10113365   2.971   5.582   4.308 -0.3512  1.2513  0.2582
  125SOPE  C21113366   3.137   5.586   4.445  0.2791 -0.7635 -0.6451
  125SOPE  H11R13367   3.199   5.665   4.492 -0.8748 -1.2916  1.9464
  125SOPE  H11S13368   3.209   5.502   4.441  2.7544  1.2066 -0.1433
  125SOPE  C21213369   3.020   5.565   4.542 -0.3750  0.2265 -0.1373
  125SOPE  H12R13370   2.948   5.488   4.506  0.1467 -0.1220 -0.4470
  125SOPE  H12S13371   2.942   5.643   4.558  0.1010  0.8301 -0.6849
  125SOPE  C21313372   3.070   5.520   4.672 -0.0367  0.0623  0.1324
  125SOPE  H13R13373   3.119   5.603   4.726 -0.4727 -0.3039  1.1141
  125SOPE  H13S13374   3.148   5.442   4.657 -0.4214 -1.2912  3.9831
  125SOPE  C21413375   2.965   5.454   4.762 -0.0623  0.1720 -0.1764
  125SOPE  H14R13376   2.950   5.354   4.716  1.2034 -0.8981  1.6047
  125SOPE  H14S13377   2.875   5.517   4.748 -0.9721 -1.6862 -3.7341
  125SOPE  C21513378   2.998   5.427   4.915 -0.5290 -0.3775 -0.5744
  125SOPE  H15R13379   3.051   5.511   4.965 -2.7815  0.3356  0.7594
  125SOPE  H15S13380   3.060   5.336   4.926  0.8416  0.4268 -1.2769
  125SOPE  C21613381   2.879   5.392   4.999  0.0509  0.9854 -0.7339
  125SOPE  H16R13382   2.813   5.321   4.945 -1.7554  1.7592  0.3286
  125SOPE  H16S13383   2.820   5.484   5.022  0.3861  1.2958 -1.0910
  125SOPE  C21713384   2.918   5.322   5.128 -0.2616 -0.4002 -0.2630
  125SOPE  H17R13385   2.947   5.217   5.110 -1.2656 -0.9351  1.1187
  125SOPE  H17S13386   2.835   5.313   5.201  0.8161  1.9657  1.4014
  125SOPE  C21813387   3.025   5.409   5.209 -0.0069 -0.0878 -0.2945
  125SOPE  H18R13388   3.127   5.426   5.168 -0.1759 -1.3217 -1.2764
  125SOPE  H18S13389   3.036   5.370   5.312  0.6671  0.2156 -0.2430
  125SOPE  H18T13390   2.970   5.504   5.229  1.3323  0.2662  2.0222
  125SOPE   C3313391   3.834   5.794   3.667 -0.0375 -0.1350 -0.0794
  125SOPE   H3X13392   3.924   5.857   3.652  0.3917 -1.1574 -2.1260
  125SOPE   H3Y13393   3.828   5.725   3.580 -0.1573  0.1061 -0.2619
  125SOPE   C3413394   3.830   5.710   3.791  1.2914  0.3744 -0.2076
  125SOPE   H4X13395   3.749   5.638   3.767  0.5465  0.5200  1.6921
  125SOPE   H4Y13396   3.793   5.771   3.876 -1.5367  0.5018 -1.4413
  125SOPE   C3513397   3.959   5.633   3.810  0.6213 -0.8364  0.0060
  125SOPE   H5X13398   4.037   5.712   3.816  0.4817 -0.6695 -0.3793
  125SOPE   H5Y13399   3.980   5.586   3.712 -0.9711  1.6269 -1.6284
  125SOPE   C3613400   3.966   5.534   3.926 -0.0962  0.3898 -0.1814
  125SOPE   H6X13401   3.897   5.450   3.902  0.5810  0.0184 -0.8458
  125SOPE   H6Y13402   3.932   5.584   4.019  1.2955 -0.8094  1.0310
  125SOPE   C3713403   4.108   5.484   3.946  0.3468 -0.1551  0.2355
  125SOPE   H7X13404   4.111   5.428   4.041 -1.1685  2.2994  1.8477
  125SOPE   H7Y13405   4.161   5.582   3.955 -0.5945  0.3982 -0.1484
  125SOPE   C3813406   4.165   5.389   3.838  0.2320  0.5188 -0.8086
  125SOPE   H8X13407   4.170   5.435   3.737  3.6016  2.1886 -0.0107
  125SOPE   H8Y13408   4.094   5.303   3.840 -0.5531  1.1748 -0.1148
  125SOPE   C3913409   4.310   5.341   3.865  0.8978 -0.3760 -0.0221
  125SOPE   H9X13410   4.321   5.296   3.965 -0.3065  1.2600  0.8947
  125SOPE   H9Y13411   4.368   5.436   3.866  0.0669  0.1436  0.0534
  125SOPE  C31013412   4.370   5.248   3.755  0.3429  0.4990  0.7477
  125SOPE  H10X13413   4.469   5.205   3.785  0.6274 -0.0647 -0.8859
  125SOPE  H10Y13414   4.387   5.301   3.660 -2.5014 -1.5261 -1.0350
  125SOPE  C31113415   4.277   5.127   3.731  0.3705  0.6490 -0.3027
  125SOPE  H11X13416   4.175   5.160   3.700  1.5974  3.7831 -1.3816
  125SOPE  H11Y13417   4.276   5.070   3.826 -0.4854 -1.2356 -1.3965
  125SOPE  C31213418   4.339   5.043   3.619 -0.1264  0.2471  0.4000
  125SOPE  H12X13419   4.450   5.046   3.631 -0.2027  2.6691  1.0848
  125SOPE  H12Y13420   4.312   5.088   3.521  1.9628  2.0276  0.5598
  125SOPE  C31313421   4.280   4.902   3.628 -0.7607 -0.2319  0.1932
  125SOPE  H13X13422   4.170   4.897   3.638 -0.6501 -1.3951  1.0103
  125SOPE  H13Y13423   4.332   4.851   3.712 -1.4975  0.5770  1.1578
  125SOPE  C31413424   4.336   4.830   3.502 -0.2845  0.1571 -0.4396
  125SOPE  H14X13425   4.446   4.842   3.496 -0.5158  3.0056 -0.1476
  125SOPE  H14Y13426   4.293   4.890   3.418 -1.3458 -1.4203 -1.0842
  125SOPE  C31513427   4.287   4.686   3.489  1.1283 -0.1965 -0.4320
  125SOPE  H15X13428   4.177   4.687   3.477  1.0921 -0.6266 -0.1426
  125SOPE  H15Y13429   4.303   4.629   3.582  1.5531 -1.2369 -1.1319
  125SOPE  C31613430   4.358   4.617   3.377 -0.1318 -0.4186 -0.0325
  125SOPE  H16X13431   4.461   4.654   3.396 -0.6835 -0.2197  3.0125
  125SOPE  H16Y13432   4.315   4.661   3.284 -1.1125  0.0570  0.6229
  125SOPE  C31713433   4.360   4.464   3.392 -0.4950 -0.3434  0.0653
  125SOPE  H17X13434   4.416   4.435   3.483  0.1615 -0.6179 -0.4121
  125SOPE  H17Y13435   4.425   4.434   3.307 -2.0201 -0.3362 -1.1461
  125SOPE  C31813436   4.218   4.402   3.401 -0.2186  0.2893  0.5034
  125SOPE  H18X13437   4.226   4.303   3.450 -2.1472  0.8567  2.1662
  125SOPE  H18Y13438   4.176   4.403   3.298 -0.1805 -0.8720  0.4632
  125SOPE  H18Z13439   4.160   4.460   3.477  2.4563  0.0699  2.8546
  126SOPE     N13440   2.503   2.786   2.647  0.0152  0.0225 -0.8749
  126SOPE   HN113441   2.563   2.759   2.727  0.2404 -0.7638 -1.2999
  126SOPE   HN213442   2.528   2.887   2.634 -0.3060  0.3114  0.5727
  126SOPE   HN313443   2.405   2.774   2.679  0.8329 -0.7250  1.5401
  126SOPE   C1213444   2.528   2.700   2.526 -0.6692  0.3230 -0.2045
  126SOPE  H12A13445   2.637   2.681   2.518 -0.7936 -1.2889  1.4346
  126SOPE  H12B13446   2.481   2.745   2.436 -0.6787  1.1591  0.2113
  126SOPE   C1113447   2.462   2.563   2.533  0.5284  0.7393 -0.2117
  126SOPE  H11A13448   2.503   2.492   2.458 -0.9414 -1.6596  1.1275
  126SOPE  H11B13449   2.356   2.566   2.500  1.2599  0.9944 -2.7138
  126SOPE     P13450   2.392   2.390   2.723  0.3104 -0.0719  0.0129
  126SOPE   O1313451   2.482   2.293   2.788 -0.3257  0.3250  0.0326
  126SOPE   O1413452   2.309   2.336   2.609  0.2117 -0.6543  0.0355
  126SOPE   O1213453   2.488   2.505   2.663  0.2965  0.2334 -0.1081
  126SOPE   O1113454   2.301   2.459   2.834  0.0581  0.3420  0.3743
  126SOPE    C113455   2.363   2.530   2.941  0.3499  0.4933  0.3073
  126SOPE    HA13456   2.310   2.626   2.961 -1.1477 -0.0928 -0.7031
  126SOPE    HB13457   2.470   2.553   2.919  0.6898 -0.2910  1.1080
  126SOPE    C213458   2.362   2.441   3.067 -0.1912 -0.2090 -0.3600
  126SOPE    HS13459   2.407   2.343   3.041 -1.6113 -1.0436  0.1756
  126SOPE   O2113460   2.227   2.430   3.117 -0.0916 -0.6956  0.1161
  126SOPE   C2113461   2.198   2.328   3.197  0.4102 -0.0636  0.5399
  126SOPE   O2213462   2.277   2.255   3.246 -0.1470  0.3900  0.2169
  126SOPE   C2213463   2.052   2.336   3.241 -0.3650  0.1991  0.5847
  126SOPE   H2R13464   2.008   2.411   3.172  1.0591  1.4975  1.0116
  126SOPE   H2S13465   2.049   2.376   3.345 -1.5609 -1.2586  1.1384
  126SOPE    C313466   2.450   2.514   3.173 -0.2711 -0.0730  0.0457
  126SOPE    HX13467   2.552   2.512   3.130  0.0563 -0.1858  0.8183
  126SOPE    HY13468   2.460   2.434   3.249  1.4467  0.5210  0.4899
  126SOPE   O3113469   2.393   2.630   3.235 -0.1454 -0.4377 -0.1071
  126SOPE   C3113470   2.450   2.744   3.184 -0.1296 -0.0001  0.5915
  126SOPE   O3213471   2.537   2.745   3.098 -0.6284  0.1310 -0.3649
  126SOPE   C3213472   2.395   2.868   3.253  0.5015  0.2716 -0.6764
  126SOPE   H2X13473   2.331   2.925   3.181 -1.9399 -3.2019 -1.5019
  126SOPE   H2Y13474   2.489   2.926   3.270  0.5305 -0.5480  2.4148
  126SOPE   C2313475   1.973   2.208   3.212 -0.3362 -0.0800 -0.6874
  126SOPE   H3R13476   2.034   2.122   3.248  2.8345  1.8791 -0.9808
  126SOPE   H3S13477   1.969   2.198   3.102  2.1024 -2.1629 -0.6866
  126SOPE   C2413478   1.843   2.218   3.277  0.1098 -0.4417 -0.0312
  126SOPE   H4R13479   1.815   2.324   3.263 -0.9351 -0.9003 -1.8491
  126SOPE   H4S13480   1.766   2.163   3.219  0.7841 -0.7299 -0.6830
  126SOPE   C2513481   1.839   2.177   3.423 -0.2102  0.1048 -0.1714
  126SOPE   H5R13482   1.838   2.070   3.451  0.2896  0.2934  0.6350
  126SOPE   H5S13483   1.936   2.200   3.473 -0.1709 -1.6136  0.6270
  126SOPE   C2613484   1.718   2.244   3.491 -0.2074  0.6225 -0.1626
  126SOPE   H6R13485   1.722   2.355   3.496 -0.6143  0.7129 -1.5149
  126SOPE   H6S13486   1.630   2.208   3.434 -0.3328 -0.6850  0.7995
  126SOPE   C2713487   1.710   2.201   3.634  0.7498  0.3687 -0.2708
  126SOPE   H7R13488   1.713   2.091   3.648  0.1188  0.6959  3.7708
  126SOPE   H7S13489   1.804   2.226   3.688  1.1396 -1.9428  0.2109
  126SOPE   C2813490   1.591   2.263   3.709 -0.3727  0.3876  0.4752
  126SOPE   H8R13491   1.588   2.373   3.721  0.0359  0.3714  0.7369
  126SOPE   H8S13492   1.511   2.230   3.638  0.8284 -1.2997 -0.1664
  126SOPE   C2913493   1.572   2.187   3.832 -0.4690  0.0728 -0.1835
  126SOPE   H9113494   1.540   2.082   3.828 -2.3563  0.6026  0.1803
  126SOPE  C21013495   1.577   2.232   3.961  0.4071 -0.4988  0.0841
  126SOPE  H10113496   1.561   2.169   4.050 -3.1067  0.4423  0.3018
  126SOPE  C21113497   1.603   2.373   3.999  0.0309 -0.1695 -0.4110
  126SOPE  H11R13498   1.612   2.447   3.917  1.3613  0.8852  0.6218
  126SOPE  H11S13499   1.700   2.385   4.054  0.0250 -1.9198  0.0337
  126SOPE  C21213500   1.495   2.408   4.105 -0.0363  0.1018  0.4332
  126SOPE  H12R13501   1.393   2.377   4.073  0.0325 -0.7957  1.0357
  126SOPE  H12S13502   1.488   2.518   4.108  0.0902  0.2199 -1.7140
  126SOPE  C21313503   1.518   2.355   4.250 -0.0117 -0.1495  0.7774
  126SOPE  H13R13504   1.607   2.393   4.305  0.5650 -0.3494  0.0153
  126SOPE  H13S13505   1.524   2.244   4.239 -1.1237  0.0130 -2.5044
  126SOPE  C21413506   1.393   2.392   4.334  0.0846  0.6432  0.3068
  126SOPE  H14R13507   1.295   2.352   4.298 -0.4449  1.8172  0.4157
  126SOPE  H14S13508   1.390   2.502   4.320  2.2842  0.7752  0.5173
  126SOPE  C21513509   1.410   2.356   4.484  0.1698  0.2531  0.4037
  126SOPE  H15R13510   1.506   2.395   4.522  2.4476 -1.9145 -2.6217
  126SOPE  H15S13511   1.414   2.245   4.493  0.8445 -0.0498 -2.6086
  126SOPE  C21613512   1.305   2.423   4.576  0.2197 -0.3739 -0.0963
  126SOPE  H16R13513   1.204   2.383   4.551 -0.8711  0.5232  2.5635
  126SOPE  H16S13514   1.298   2.532   4.555  0.0316 -0.7186 -2.0527
  126SOPE  C21713515   1.352   2.397   4.721 -0.0202  0.0247 -0.1390
  126SOPE  H17R13516   1.457   2.434   4.722 -0.3751  1.0581  0.1195
  126SOPE  H17S13517   1.349   2.287   4.739  1.0178 -0.6482 -3.3551
  126SOPE  C21813518   1.277   2.476   4.827  0.0844 -0.3334 -0.4292
  126SOPE  H18R13519   1.167   2.465   4.815 -0.0977  0.3630  0.5239
  126SOPE  H18S13520   1.295   2.584   4.809  0.2339 -0.0271  1.3786
  126SOPE  H18T13521   1.299   2.450   4.933 -1.6085 -0.3087 -0.0296
  126SOPE   C3313522   2.342   2.845   3.396 -0.1592 -0.3510  0.1288
  126SOPE   H3X13523   2.412   2.775   3.447  0.6448  0.2404 -0.1411
  126SOPE   H3Y13524   2.238   2.808   3.402 -0.6553  0.5583 -1.9370
  126SOPE   C3413525   2.364   2.971   3.475 -0.5886 -0.7335  0.9340
  126SOPE   H4X13526   2.305   3.047   3.420 -1.1248 -2.4277 -0.9709
  126SOPE   H4Y13527   2.468   3.009   3.487 -1.1367  0.5344  1.9025
  126SOPE   C3513528   2.312   2.960   3.619  0.5852  0.8515  0.6127
  126SOPE   H5X13529   2.387   2.891   3.665  1.1066  0.0127 -1.3890
  126SOPE   H5Y13530   2.214   2.908   3.628  0.8333  0.4475  1.0864
  126SOPE   C3613531   2.310   3.095   3.690  0.3196 -0.1703 -0.4172
  126SOPE   H6X13532   2.233   3.155   3.636 -1.0487 -0.5486  1.0422
  126SOPE   H6Y13533   2.405   3.151   3.674  1.5471 -1.8971  0.5004
  126SOPE   C3713534   2.284   3.097   3.838  0.6796 -0.3875 -0.7172
  126SOPE   H7X13535   2.178   3.067   3.851  1.1494 -0.9768  2.5544
  126SOPE   H7Y13536   2.300   3.199   3.880  0.9447 -0.8539  0.3621
  126SOPE   C3813537   2.371   2.995   3.917 -0.4066  0.4383 -0.5664
  126SOPE   H8X13538   2.476   3.008   3.881  0.8215 -2.3983  1.5900
  126SOPE   H8Y13539   2.332   2.896   3.887 -4.4831  1.7926 -0.3207
  126SOPE   C3913540   2.363   3.010   4.072 -0.3241  0.2775  0.0234
  126SOPE   H9X13541   2.427   3.085   4.124 -1.2317  0.3376  1.0950
  126SOPE   H9Y13542   2.403   2.914   4.110 -0.7278  0.5369  1.1387
  126SOPE  C31013543   2.220   3.024   4.122  0.0270 -0.0476 -0.8758
  126SOPE  H10X13544   2.158   2.949   4.068  0.5035 -1.6658  0.7108
  126SOPE  H10Y13545   2.177   3.123   4.097 -1.6493 -0.3727  0.4876
  126SOPE  C31113546   2.201   3.003   4.278 -0.4347 -0.3418  0.0258
  126SOPE  H11X13547   2.275   3.076   4.318  1.4150  0.7426 -4.6805
  126SOPE  H11Y13548   2.242   2.901   4.295  1.8416  0.4470 -0.3146
  126SOPE  C31213549   2.060   3.034   4.327  0.1619 -0.7302  0.5810
  126SOPE  H12X13550   2.001   2.946   4.293  0.4755 -1.2026  1.2626
  126SOPE  H12Y13551   2.024   3.128   4.280  2.3458 -0.7175 -1.2359
  126SOPE  C31313552   2.039   3.028   4.482 -0.3423 -1.0809  0.0805
  126SOPE  H13X13553   2.099   3.109   4.530  0.1421 -2.1010  1.2439
  126SOPE  H13Y13554   2.064   2.928   4.522  0.1410 -0.4006  1.5750
  126SOPE  C31413555   1.886   3.057   4.510  0.2896 -0.6746  0.2224
  126SOPE  H14X13556   1.838   2.968   4.464 -1.7215  1.0758 -1.2779
  126SOPE  H14Y13557   1.849   3.135   4.441  0.3328  0.2624  1.2382
  126SOPE  C31513558   1.835   3.070   4.655 -0.0932  0.2527  0.3510
  126SOPE  H15X13559   1.730   3.037   4.658  0.8495 -3.0431  0.4724
  126SOPE  H15Y13560   1.850   3.175   4.690 -0.4152  0.4659 -0.1317
  126SOPE  C31613561   1.915   2.981   4.754 -0.1330  0.0648  0.2470
  126SOPE  H16X13562   2.022   3.011   4.750  0.5461 -2.2030  0.3837
  126SOPE  H16Y13563   1.901   2.875   4.723  0.2443 -0.9783  3.2878
  126SOPE  C31713564   1.874   2.993   4.911  0.1223  0.6266  0.3755
  126SOPE  H17X13565   1.765   2.973   4.909  0.6633 -3.0261  0.8762
  126SOPE  H17Y13566   1.909   3.093   4.946  1.3938 -0.7903  3.4559
  126SOPE  C31813567   1.931   2.880   4.993  0.2915 -0.8943 -0.2923
  126SOPE  H18X13568   2.039   2.896   5.013  0.0634  1.7110 -0.8033
  126SOPE  H18Y13569   1.914   2.786   4.936 -1.3621 -0.2692 -0.9004
  126SOPE  H18Z13570   1.880   2.868   5.091 -0.5980  1.1803 -0.4545
  127SOPE     N13571   6.668   4.033   2.054  0.3281 -0.2047 -0.6302
  127SOPE   HN113572   6.646   4.109   2.122 -2.5654 -2.0324  0.6312
  127SOPE   HN213573   6.582   4.015   1.998  0.2314 -2.1021  0.0883
  127SOPE   HN313574   6.676   3.947   2.111 -0.8205  1.0713  1.5875
  127SOPE   C1213575   6.783   4.061   1.967 -0.4260 -0.9198  0.1794
  127SOPE  H12A13576   6.761   4.138   1.889  0.5540 -1.4493 -0.6502
  127SOPE  H12B13577   6.809   3.973   1.904 -0.7532 -0.7232 -0.2321
  127SOPE   C1113578   6.899   4.108   2.057  0.1289  0.0420  1.4973
  127SOPE  H11A13579   6.873   4.208   2.099  1.2029  0.9827  0.0131
  127SOPE  H11B13580   6.981   4.123   1.983  0.8476 -1.6289  1.8945
  127SOPE     P13581   7.070   3.953   2.178  0.1216 -0.1745  0.6845
  127SOPE   O1313582   7.159   4.072   2.154  0.2823 -0.5288  0.0848
  127SOPE   O1413583   7.088   3.828   2.100 -0.2199  0.3105  0.0398
  127SOPE   O1213584   6.927   4.014   2.158 -0.2409 -0.0427  0.4900
  127SOPE   O1113585   7.066   3.911   2.325 -0.0724  0.0556  0.1641
  127SOPE    C113586   7.117   3.997   2.428  0.7802 -0.4625 -0.2169
  127SOPE    HA13587   7.050   3.983   2.515  2.0539 -1.1384  0.6697
  127SOPE    HB13588   7.105   4.105   2.403  0.6564  0.0744  2.0085
  127SOPE    C213589   7.259   3.956   2.469  0.6343 -0.1083 -0.1564
  127SOPE    HS13590   7.323   3.975   2.381  1.0089  1.8516  0.4896
  127SOPE   O2113591   7.260   3.815   2.515 -0.3817 -0.1096 -0.4045
  127SOPE   C2113592   7.385   3.768   2.516  0.3513 -0.8307  0.1670
  127SOPE   O2213593   7.486   3.824   2.471 -0.2182 -0.7467  0.0332
  127SOPE   C2213594   7.383   3.641   2.597 -0.5268 -0.5955 -0.0763
  127SOPE   H2R13595   7.373   3.557   2.524  1.7263 -2.2653  1.4366
  127SOPE   H2S13596   7.295   3.645   2.664 -0.1533 -1.6166  0.4941
  127SOPE    C313597   7.316   4.042   2.589 -0.3761  1.0267 -0.0370
  127SOPE    HX13598   7.314   4.145   2.547  3.7514  1.0079 -0.6409
  127SOPE    HY13599   7.420   4.029   2.625  0.0736  0.5629 -1.4214
  127SOPE   O3113600   7.226   4.035   2.700  0.2604  0.4483  0.1100
  127SOPE   C3113601   7.262   4.117   2.798  0.4241 -0.1872 -0.5848
  127SOPE   O3213602   7.360   4.184   2.805  0.0961 -0.2957  0.4933
  127SOPE   C3213603   7.146   4.115   2.904  0.1456 -0.4870  0.0258
  127SOPE   H2X13604   7.110   4.219   2.914  1.7285 -0.1106  3.3165
  127SOPE   H2Y13605   7.192   4.105   3.004  1.7133 -1.0741 -0.7161
  127SOPE   C2313606   7.513   3.616   2.680  0.4484 -0.1413 -0.2532
  127SOPE   H3R13607   7.599   3.591   2.613  1.0274 -1.3781  0.9144
  127SOPE   H3S13608   7.489   3.516   2.722 -0.4570 -1.1606 -2.9616
  127SOPE   C2413609   7.558   3.717   2.789  0.0109 -1.1246  0.0421
  127SOPE   H4R13610   7.642   3.672   2.846  1.9977  0.9573 -1.0843
  127SOPE   H4S13611   7.585   3.812   2.739  1.2492 -0.4205  1.9524
  127SOPE   C2513612   7.445   3.752   2.887  0.0755 -0.1742  0.5203
  127SOPE   H5R13613   7.390   3.835   2.838 -0.3066 -1.9665 -2.3118
  127SOPE   H5S13614   7.373   3.668   2.893 -0.3539  0.1476  0.0458
  127SOPE   C2613615   7.482   3.802   3.030  0.1448  0.0813 -0.2066
  127SOPE   H6R13616   7.526   3.716   3.085  0.7845  0.6578  0.1965
  127SOPE   H6S13617   7.558   3.882   3.022  1.1310 -0.8902 -0.9217
  127SOPE   C2713618   7.359   3.855   3.117 -0.9484  0.8418 -0.8333
  127SOPE   H7R13619   7.392   3.923   3.199 -2.4535  1.9455 -1.1156
  127SOPE   H7S13620   7.298   3.919   3.050 -1.2898  0.1275 -1.2199
  127SOPE   C2813621   7.257   3.755   3.180 -0.0744  1.6405 -0.2521
  127SOPE   H8R13622   7.172   3.809   3.226 -1.1123  0.0654 -0.2497
  127SOPE   H8S13623   7.220   3.694   3.095 -0.3510  0.5147  0.6419
  127SOPE   C2913624   7.329   3.654   3.267  0.1591 -0.1907 -0.3324
  127SOPE   H9113625   7.390   3.582   3.211  0.1161 -1.3574  1.0736
  127SOPE  C21013626   7.325   3.643   3.399  0.1307  0.3390  0.6992
  127SOPE  H10113627   7.384   3.566   3.451 -0.8434 -2.5752 -2.2007
  127SOPE  C21113628   7.237   3.719   3.490  0.3326 -0.1291 -0.3820
  127SOPE  H11R13629   7.212   3.650   3.574 -1.5807 -0.4176 -1.1233
  127SOPE  H11S13630   7.134   3.742   3.453 -0.1190  0.0444  0.9246
  127SOPE  C21213631   7.295   3.849   3.541  0.2090 -0.2712  0.0457
  127SOPE  H12R13632   7.299   3.919   3.455 -1.1876 -0.5290 -0.2559
  127SOPE  H12S13633   7.393   3.836   3.591  0.5980  0.4420 -0.5042
  127SOPE  C21313634   7.200   3.919   3.636 -0.0560 -0.1045 -0.5883
  127SOPE  H13R13635   7.103   3.932   3.583  0.2589 -2.8662 -2.0519
  127SOPE  H13S13636   7.243   4.018   3.659  0.4108 -0.3849 -0.2453
  127SOPE  C21413637   7.187   3.845   3.771  0.3610 -0.1274 -0.2055
  127SOPE  H14R13638   7.281   3.830   3.828  0.5349  0.8046 -0.2230
  127SOPE  H14S13639   7.145   3.743   3.760 -2.6093  0.9599 -0.0101
  127SOPE  C21513640   7.085   3.930   3.858 -0.2251 -0.1098 -0.7522
  127SOPE  H15R13641   6.997   3.944   3.792  0.5244  1.1027 -1.5251
  127SOPE  H15S13642   7.141   4.024   3.875 -1.3985  0.5382 -0.3691
  127SOPE  C21613643   7.041   3.875   3.999 -0.0840  0.0211 -0.2808
  127SOPE  H16R13644   6.975   3.787   3.986 -0.1704 -0.5011  2.7954
  127SOPE  H16S13645   6.968   3.944   4.047  1.4792  3.4245 -2.4337
  127SOPE  C21713646   7.156   3.848   4.095 -0.1050 -0.5840  0.3334
  127SOPE  H17R13647   7.212   3.943   4.106  0.3410 -1.1208  3.8496
  127SOPE  H17S13648   7.216   3.762   4.057 -0.6130 -0.8073  0.0274
  127SOPE  C21813649   7.103   3.806   4.234  0.2070 -0.7421 -0.0718
  127SOPE  H18R13650   7.185   3.780   4.304 -0.5979 -1.2452  0.7018
  127SOPE  H18S13651   7.020   3.732   4.239 -3.0547  2.5916 -0.1347
  127SOPE  H18T13652   7.053   3.896   4.276  0.7173 -0.9472  1.0040
  127SOPE   C3313653   7.033   4.021   2.873  0.6573  0.3720 -1.2806
  127SOPE   H3X13654   7.069   3.917   2.862 -0.2295  0.0238 -0.9327
  127SOPE   H3Y13655   6.990   4.065   2.780 -0.0348  0.1811 -1.0527
  127SOPE   C3413656   6.916   4.018   2.971  0.3231 -0.1069 -0.1696
  127SOPE   H4X13657   6.832   3.963   2.923 -0.5954  0.2656  0.9692
  127SOPE   H4Y13658   6.890   4.124   2.988  2.0684  0.3697 -0.2616
  127SOPE   C3513659   6.934   3.953   3.110  0.5687  0.4891  0.9201
  127SOPE   H5X13660   7.026   3.992   3.158  0.9987 -1.1208  1.4740
  127SOPE   H5Y13661   6.949   3.843   3.100  1.7873  0.8739 -2.5395
  127SOPE   C3613662   6.813   3.974   3.202 -0.2213  0.1274  0.0735
  127SOPE   H6X13663   6.720   3.948   3.146 -0.2451 -0.3315  0.3204
  127SOPE   H6Y13664   6.817   4.084   3.218  1.1202  0.4777 -2.1578
  127SOPE   C3713665   6.825   3.910   3.343  0.3048  0.6489 -0.0414
  127SOPE   H7X13666   6.921   3.945   3.387  0.5139 -0.4635  0.4159
  127SOPE   H7Y13667   6.835   3.800   3.334  2.0705  0.8880 -1.5101
  127SOPE   C3813668   6.704   3.946   3.433 -0.2202 -0.5000 -0.4610
  127SOPE   H8X13669   6.611   3.902   3.392 -0.6188 -1.8057  1.6721
  127SOPE   H8Y13670   6.689   4.055   3.448 -1.3499 -0.8894  1.6758
  127SOPE   C3913671   6.714   3.886   3.575 -0.1007  0.3525  0.1897
  127SOPE   H9X13672   6.813   3.913   3.616  1.1152 -1.5595 -1.3619
  127SOPE   H9Y13673   6.728   3.776   3.573 -0.2486  0.3013  1.2143
  127SOPE  C31013674   6.598   3.933   3.662  0.7153  0.4787 -0.4474
  127SOPE  H10X13675   6.502   3.932   3.605 -0.0837  1.2738  0.8469
  127SOPE  H10Y13676   6.611   4.038   3.695 -2.0135 -0.2652  3.7830
  127SOPE  C31113677   6.589   3.840   3.785  0.0804 -0.6568  0.4896
  127SOPE  H11X13678   6.694   3.835   3.823  0.1096 -0.1630  0.4733
  127SOPE  H11Y13679   6.552   3.740   3.756  0.4013 -0.9745  1.1451
  127SOPE  C31213680   6.495   3.913   3.888 -0.0314 -0.0215  0.5359
  127SOPE  H12X13681   6.390   3.893   3.856 -0.4052  0.2213  1.5673
  127SOPE  H12Y13682   6.514   4.022   3.884  0.5865 -0.1303 -2.3398
  127SOPE  C31313683   6.508   3.857   4.036  0.1916  0.1149 -0.6380
  127SOPE  H13X13684   6.616   3.836   4.057  0.4488 -2.2876 -3.6341
  127SOPE  H13Y13685   6.468   3.753   4.035 -1.1915  0.6141  0.3915
  127SOPE  C31413686   6.451   3.940   4.151  0.3728 -0.3623  0.0636
  127SOPE  H14X13687   6.498   4.040   4.137  2.2193 -1.3859 -1.7322
  127SOPE  H14Y13688   6.495   3.904   4.247  1.9829 -0.2058 -0.5733
  127SOPE  C31513689   6.299   3.958   4.140  0.8588  0.2920  0.2926
  127SOPE  H15X13690   6.242   3.870   4.175  0.3173 -0.2182 -1.7907
  127SOPE  H15Y13691   6.277   3.973   4.032  3.7735  0.1235 -0.4215
  127SOPE  C31613692   6.262   4.088   4.222  0.6534 -0.6334  0.4727
  127SOPE  H16X13693   6.310   4.177   4.176 -1.0200 -0.2280 -0.5750
  127SOPE  H16Y13694   6.309   4.079   4.322 -0.3739 -2.6429  0.8293
  127SOPE  C31713695   6.110   4.116   4.231  0.0157 -0.6152 -0.2886
  127SOPE  H17X13696   6.058   4.028   4.274 -1.4755  0.1218 -0.4984
  127SOPE  H17Y13697   6.077   4.127   4.125  1.4508 -0.0198 -0.6903
  127SOPE  C31813698   6.073   4.238   4.310 -0.4863  0.0447  0.2710
  127SOPE  H18X13699   6.118   4.323   4.254  2.1185 -1.9646 -0.9181
  127SOPE  H18Y13700   6.122   4.240   4.410 -1.6314  2.9883  0.8770
  127SOPE  H18Z13701   5.964   4.250   4.331 -0.3417  0.3680  0.8736
  128SOPE     N13702   2.709   2.113   2.779 -0.2085  0.2373 -0.8680
  128SOPE   HN113703   2.668   2.032   2.728  0.0579  0.3193 -1.2204
  128SOPE   HN213704   2.639   2.185   2.803 -1.1825 -1.3897  1.5840
  128SOPE   HN313705   2.792   2.147   2.726 -0.2021 -0.9237 -1.6615
  128SOPE   C1213706   2.759   2.058   2.914 -0.0635  0.2515  0.1916
  128SOPE  H12A13707   2.840   1.988   2.886 -0.0680  1.1910 -2.4835
  128SOPE  H12B13708   2.680   1.993   2.957 -1.5341  0.8079 -1.5078
  128SOPE   C1113709   2.812   2.172   3.009 -0.5399  0.4491 -0.3034
  128SOPE  H11A13710   2.861   2.118   3.093 -0.7790 -0.7450 -0.9122
  128SOPE  H11B13711   2.727   2.226   3.055 -1.0590 -1.5501  1.2097
  128SOPE     P13712   2.930   2.408   2.978 -0.3473  0.2070 -0.1845
  128SOPE   O1313713   2.820   2.481   2.913 -0.3994 -0.2419 -0.1892
  128SOPE   O1413714   3.069   2.450   2.944  0.3235 -0.0394  0.1797
  128SOPE   O1213715   2.912   2.255   2.945  0.2298  0.0892  0.1102
  128SOPE   O1113716   2.918   2.410   3.135 -0.5604  0.1048  0.7024
  128SOPE    C113717   2.934   2.528   3.215  1.1482  0.2115  0.1249
  128SOPE    HA13718   2.831   2.570   3.222 -1.1112 -4.7002  1.2221
  128SOPE    HB13719   3.009   2.595   3.168  0.4656 -0.6526 -2.4020
  128SOPE    C213720   2.980   2.491   3.357  0.3621 -0.2421  0.1129
  128SOPE    HS13721   2.999   2.572   3.431  2.2297 -2.2487  1.9822
  128SOPE   O2113722   3.104   2.419   3.356 -0.7149  0.4319  0.3146
  128SOPE   C2113723   3.217   2.492   3.347  0.4769 -0.2700  0.3056
  128SOPE   O2213724   3.219   2.614   3.362  0.0169  0.1108  0.3030
  128SOPE   C2213725   3.342   2.406   3.317  0.6987 -0.0634 -0.3359
  128SOPE   H2R13726   3.318   2.354   3.222 -1.7120 -1.3379  0.8641
  128SOPE   H2S13727   3.342   2.322   3.390 -1.1256  1.1814  1.1812
  128SOPE    C313728   2.875   2.394   3.426  0.3231 -0.2267  0.0005
  128SOPE    HX13729   2.929   2.367   3.519  2.6706  2.6184 -0.3799
  128SOPE    HY13730   2.862   2.311   3.353  0.4792 -0.0924 -0.1817
  128SOPE   O3113731   2.753   2.464   3.457  0.1064  0.4116 -0.2623
  128SOPE   C3113732   2.667   2.381   3.498 -0.2557  0.6721 -0.6255
  128SOPE   O3213733   2.668   2.259   3.500 -0.1904  0.4127  0.1382
  128SOPE   C3213734   2.540   2.454   3.552 -0.1193 -0.3613 -0.3256
  128SOPE   H2X13735   2.518   2.520   3.466 -0.0089 -1.0942 -0.9277
  128SOPE   H2Y13736   2.580   2.504   3.643  2.0023 -0.9229 -0.9088
  128SOPE   C2313737   3.480   2.478   3.309  0.0170  0.0688  0.3980
  128SOPE   H3R13738   3.460   2.560   3.237  1.2935  0.0988  0.0676
  128SOPE   H3S13739   3.563   2.420   3.265  1.9101  2.6461  0.3663
  128SOPE   C2413740   3.532   2.528   3.445  0.7305  0.2062 -0.0344
  128SOPE   H4R13741   3.628   2.579   3.423  0.8577 -0.7744 -2.0222
  128SOPE   H4S13742   3.468   2.607   3.489  1.3391  0.8363 -0.2654
  128SOPE   C2513743   3.543   2.418   3.548  0.4638 -0.4931  0.3416
  128SOPE   H5R13744   3.441   2.374   3.554 -0.1864  1.0019  0.6365
  128SOPE   H5S13745   3.604   2.338   3.501 -0.3856 -1.5329  0.9472
  128SOPE   C2613746   3.596   2.462   3.684  0.3832  0.4050  0.4195
  128SOPE   H6R13747   3.669   2.542   3.661 -2.2147  2.7603 -0.1263
  128SOPE   H6S13748   3.502   2.500   3.729 -0.8371 -1.5724 -0.3280
  128SOPE   C2713749   3.641   2.349   3.776 -0.0148  0.3020  0.0604
  128SOPE   H7R13750   3.559   2.274   3.779  0.9689 -0.8159 -0.2111
  128SOPE   H7S13751   3.722   2.289   3.729  0.1200  1.0160 -0.6438
  128SOPE   C2813752   3.672   2.404   3.917  0.7088  0.1606  0.5204
  128SOPE   H8R13753   3.724   2.323   3.973  2.8240  1.3503  0.3643
  128SOPE   H8S13754   3.748   2.484   3.908  0.6682  0.1558  0.1302
  128SOPE   C2913755   3.552   2.447   3.990  0.3779  0.0780 -0.0010
  128SOPE   H9113756   3.494   2.526   3.940 -0.4891 -2.0400 -2.5191
  128SOPE  C21013757   3.523   2.411   4.119 -0.6839 -0.5829  0.0863
  128SOPE  H10113758   3.429   2.449   4.161 -0.8501 -0.5045 -0.3567
  128SOPE  C21113759   3.594   2.317   4.210 -0.4324 -0.4378  0.1427
  128SOPE  H11R13760   3.642   2.244   4.142  1.4103  2.2361 -1.6432
  128SOPE  H11S13761   3.519   2.249   4.256 -0.3807 -1.9267 -1.8408
  128SOPE  C21213762   3.687   2.384   4.312 -0.0572 -0.5519 -0.5447
  128SOPE  H12R13763   3.718   2.484   4.277 -0.3708  0.0634  0.8897
  128SOPE  H12S13764   3.776   2.323   4.338 -1.4969 -2.7532 -0.4561
  128SOPE  C21313765   3.611   2.410   4.447 -0.0990 -0.7144 -0.2755
  128SOPE  H13R13766   3.521   2.471   4.425  0.3212  0.2217  0.4994
  128SOPE  H13S13767   3.674   2.478   4.508 -1.2726 -1.0876  1.4330
  128SOPE  C21413768   3.577   2.291   4.538  0.8687  0.0875 -0.1760
  128SOPE  H14R13769   3.672   2.235   4.549 -0.1437 -1.6639  0.0182
  128SOPE  H14S13770   3.506   2.223   4.486 -2.3339  0.5991  3.0633
  128SOPE  C21513771   3.522   2.325   4.678  0.4375  0.1592 -0.3981
  128SOPE  H15R13772   3.520   2.231   4.737  0.5986  1.5673  2.0154
  128SOPE  H15S13773   3.425   2.379   4.671  0.0012 -0.7410 -1.7554
  128SOPE  C21613774   3.616   2.404   4.768  0.2064 -0.7309  0.0477
  128SOPE  H16R13775   3.636   2.507   4.732 -2.2377 -0.2161 -0.0105
  128SOPE  H16S13776   3.705   2.339   4.778  0.6573  0.0068  0.9700
  128SOPE  C21713777   3.576   2.420   4.918  0.1514 -0.6316 -0.6442
  128SOPE  H17R13778   3.669   2.445   4.972 -1.2840  1.1761  1.1484
  128SOPE  H17S13779   3.546   2.326   4.969 -0.3132  0.9605  2.2148
  128SOPE  C21813780   3.490   2.546   4.947  1.1526 -0.5026  0.3603
  128SOPE  H18R13781   3.494   2.586   5.051  0.8317 -0.9894  0.5597
  128SOPE  H18S13782   3.386   2.522   4.916  1.0034 -0.4821  0.8416
  128SOPE  H18T13783   3.514   2.634   4.883 -0.6692 -0.5285 -0.4023
  128SOPE   C3313784   2.409   2.376   3.569 -0.3372 -0.4669 -0.7079
  128SOPE   H3X13785   2.413   2.289   3.637 -0.7112  0.0873  0.0384
  128SOPE   H3Y13786   2.359   2.332   3.480 -3.8681 -2.6626  2.0755
  128SOPE   C3413787   2.308   2.466   3.631 -0.0416 -0.0014 -0.7814
  128SOPE   H4X13788   2.214   2.411   3.609  0.2343 -0.2216 -1.4174
  128SOPE   H4Y13789   2.302   2.560   3.572 -1.1240 -0.8064 -1.9900
  128SOPE   C3513790   2.320   2.508   3.776  0.2858  0.4088  0.0016
  128SOPE   H5X13791   2.401   2.582   3.793  1.3746 -0.1285 -2.3987
  128SOPE   H5Y13792   2.351   2.418   3.833  3.3956  2.6176  2.1311
  128SOPE   C3613793   2.184   2.567   3.838 -0.7993  0.2125 -0.3774
  128SOPE   H6X13794   2.109   2.487   3.819 -0.1093 -0.5553  0.0236
  128SOPE   H6Y13795   2.158   2.661   3.784  1.4562  0.3691 -1.3159
  128SOPE   C3713796   2.173   2.603   3.987 -0.2107 -0.1428 -0.5567
  128SOPE   H7X13797   2.240   2.685   4.020 -0.2691 -1.2061  2.5224
  128SOPE   H7Y13798   2.194   2.507   4.038  1.4894 -0.6968 -2.1751
  128SOPE   C3813799   2.033   2.648   4.027  0.3099  0.9134  0.4191
  128SOPE   H8X13800   1.959   2.602   3.958 -2.0178  2.6835  1.5931
  128SOPE   H8Y13801   2.020   2.757   4.008 -1.9172  0.9418  1.8049
  128SOPE   C3913802   2.000   2.621   4.178  0.3106 -0.4646  0.2189
  128SOPE   H9X13803   2.063   2.667   4.258  0.5787 -2.3148  1.1216
  128SOPE   H9Y13804   2.017   2.514   4.203 -0.6178 -0.5505  0.5069
  128SOPE  C31013805   1.854   2.654   4.213 -0.2450  0.8920  0.3885
  128SOPE  H10X13806   1.790   2.590   4.149  3.1590 -2.3185 -0.1283
  128SOPE  H10Y13807   1.844   2.760   4.182 -1.7258  0.6090 -0.1486
  128SOPE  C31113808   1.818   2.652   4.362 -0.9690  0.0349 -0.0147
  128SOPE  H11X13809   1.885   2.725   4.412 -1.0116  1.0210 -1.3364
  128SOPE  H11Y13810   1.844   2.554   4.407  0.3462  1.0476  1.5464
  128SOPE  C31213811   1.680   2.700   4.399  0.1288  0.2863 -0.3773
  128SOPE  H12X13812   1.595   2.643   4.356 -0.2886  0.9291 -0.4151
  128SOPE  H12Y13813   1.668   2.798   4.349  0.2665 -0.6950 -2.4171
  128SOPE  C31313814   1.660   2.715   4.548 -0.1123 -0.0991  0.1783
  128SOPE  H13X13815   1.739   2.786   4.582 -2.6854  3.4102 -0.5510
  128SOPE  H13Y13816   1.687   2.625   4.606  0.5936  0.6754  1.0941
  128SOPE  C31413817   1.521   2.757   4.593  0.2414  0.8255 -0.0671
  128SOPE  H14X13818   1.452   2.671   4.580 -0.8820  1.3912  1.7009
  128SOPE  H14Y13819   1.482   2.839   4.529 -2.7879 -0.7230 -0.3799
  128SOPE  C31513820   1.521   2.795   4.746  0.2818 -0.0047  0.3386
  128SOPE  H15X13821   1.418   2.825   4.772  0.3553 -1.4541  2.7262
  128SOPE  H15Y13822   1.597   2.874   4.768  0.6979 -0.4232  0.4342
  128SOPE  C31613823   1.562   2.675   4.834 -0.2347  0.4767 -0.1486
  128SOPE  H16X13824   1.665   2.648   4.805  0.1897  0.0201  1.6621
  128SOPE  H16Y13825   1.502   2.581   4.826  0.8777 -0.3110  0.4310
  128SOPE  C31713826   1.569   2.712   4.987 -0.5179  0.4490  0.2862
  128SOPE  H17X13827   1.465   2.719   5.026 -1.0961 -0.7360 -0.9493
  128SOPE  H17Y13828   1.613   2.812   5.004 -0.3948  0.4464 -0.0065
  128SOPE  C31813829   1.654   2.614   5.073  0.9275 -0.1875 -0.2877
  128SOPE  H18X13830   1.650   2.642   5.180 -2.1771 -4.0202  0.8632
  128SOPE  H18Y13831   1.761   2.598   5.049  1.5160  3.0314 -0.1179
  128SOPE  H18Z13832   1.608   2.512   5.070  2.2643 -0.9041  1.4951
  129OSM      N13833   0.871   3.128   7.232  0.1645 -0.2841  0.0507
  129OSM    C1513834   0.879   3.239   7.131 -0.4463 -0.0674  0.0154
  129OSM   H15A13835   0.784   3.268   7.088 -1.1747  1.2272  2.3278
  129OSM   H15B13836   0.945   3.215   7.048  0.0589  1.6393 -0.1236
  129OSM   H15C13837   0.926   3.324   7.178  2.3391 -1.7067  0.3879
  129OSM    C1413838   0.774   3.172   7.340  0.1138 -0.9146  0.0708
  129OSM   H14A13839   0.672   3.152   7.309 -0.4785  1.7452  0.0831
  129OSM   H14B13840   0.786   3.278   7.358  3.3838 -1.1646 -0.1873
  129OSM   H14C13841   0.797   3.122   7.433 -0.9907 -2.2287 -0.3199
  129OSM    C1313842   0.813   3.002   7.166 -0.6519 -0.3472 -0.0884
  129OSM   H13A13843   0.819   2.921   7.237 -2.0160 -1.5314 -1.2485
  129OSM   H13B13844   0.866   2.985   7.073 -1.5648  2.8090 -1.3201
  129OSM   H13C13845   0.709   3.016   7.139  0.0146  1.1737 -2.1311
  129OSM    C1213846   0.999   3.093   7.292 -0.5161 -0.1689 -0.7243
  129OSM   H12A13847   0.986   3.022   7.372  0.7360 -1.1027 -1.3156
  129OSM   H12B13848   1.035   3.180   7.346  4.2911 -2.9588  1.3168
  129OSM    C1113849   1.121   3.057   7.204  0.2836  0.4104  0.2450
  129OSM   H11A13850   1.087   2.987   7.124  1.2285 -2.2795  2.0592
  129OSM   H11B13851   1.196   3.006   7.267 -0.0132 -0.3683 -0.0190
  129OSM      P13852   1.305   3.204   7.067  0.0256  0.3397  0.2433
  129OSM    O1313853   1.275   3.283   6.949 -0.1134 -0.0227 -0.2807
  129OSM    O1413854   1.399   3.261   7.169  0.1848 -0.3407  0.3280
  129OSM    O1113855   1.356   3.057   7.021 -0.3490  0.5039  0.0496
  129OSM    O1213856   1.174   3.172   7.140 -0.6646 -0.4009  0.3221
  129OSM    C1S13857   1.293   2.979   6.929  0.4898  0.3971  0.7790
  129OSM    H1S13858   1.182   2.975   6.939  0.3907 -1.6041 -0.6404
  129OSM    H1T13859   1.323   2.875   6.955  0.5567 -0.4635 -2.4337
  129OSM     NF13860   1.266   2.922   6.689  0.2238 -0.2612  0.1628
  129OSM    HNF13861   1.321   2.847   6.653 -1.9623 -1.9917  0.2545
  129OSM    C2S13862   1.335   3.009   6.783 -0.7004  0.4753  0.1620
  129OSM    H2S13863   1.291   3.110   6.769 -0.3995  0.8605  1.7863
  129OSM    C3S13864   1.485   3.011   6.752  0.7881 -0.9701  0.5675
  129OSM    H3S13865   1.527   2.908   6.750 -1.0463 -1.7468 -0.5733
  129OSM     O313866   1.563   3.077   6.852 -0.1377  0.2857 -0.1744
  129OSM    HO313867   1.499   3.088   6.923 -0.3886 -1.1495 -0.1547
  129OSM    C4S13868   1.509   3.083   6.621 -0.5274  0.0134 -1.0402
  129OSM    H4S13869   1.466   3.183   6.606 -0.0577 -0.1895 -5.0820
  129OSM    C5S13870   1.571   3.030   6.511 -0.6135  0.4517 -0.0935
  129OSM    H5S13871   1.600   2.924   6.517 -0.8828  0.3701 -0.2419
  129OSM    C6S13872   1.588   3.088   6.375 -0.0654  0.6143  0.2242
  129OSM    H6S13873   1.684   3.058   6.329 -0.6717 -2.6286  0.7780
  129OSM    H6T13874   1.577   3.198   6.375 -0.6645  0.5667 -0.8599
  129OSM    C7S13875   1.486   3.029   6.273 -1.1027 -0.2021 -0.1063
  129OSM    H7S13876   1.383   3.025   6.314 -1.1944  2.2427  0.0762
  129OSM    H7T13877   1.517   2.927   6.243 -1.2072 -0.3259  0.2093
  129OSM    C8S13878   1.480   3.116   6.146  0.0263  0.5923  0.1872
  129OSM    H8S13879   1.573   3.116   6.086  0.7547 -1.4385  1.2288
  129OSM    H8T13880   1.470   3.220   6.183 -2.4467 -0.5091  3.0192
  129OSM    C9S13881   1.368   3.077   6.044  0.4091 -0.0607  0.3507
  129OSM    H9S13882   1.264   3.060   6.080 -0.4182  1.5039 -1.1626
  129OSM    H9T13883   1.389   2.974   6.008 -1.8221  0.2998 -2.3188
  129OSM   C10S13884   1.388   3.166   5.925  0.3122  0.1861  0.0568
  129OSM   H10S13885   1.496   3.183   5.907 -0.0067  0.7949 -1.4601
  129OSM   H10T13886   1.334   3.261   5.943 -2.5186 -1.4418  0.7771
  129OSM   C11S13887   1.318   3.098   5.804  0.0830  0.9064 -0.3737
  129OSM   H11S13888   1.207   3.096   5.818  0.4482  0.9112  3.7873
  129OSM   H11T13889   1.350   2.992   5.799 -0.4602  0.6086  1.7073
  129OSM   C12S13890   1.337   3.163   5.665  0.2880 -0.6879 -0.0213
  129OSM   H12S13891   1.442   3.189   5.640  0.5922 -2.5440 -0.8450
  129OSM   H12T13892   1.279   3.258   5.664  0.6252 -0.4280  1.5792
  129OSM   C13S13893   1.285   3.071   5.552 -0.2035  0.4741 -0.4371
  129OSM   H13S13894   1.178   3.058   5.580  0.1358 -2.8477 -0.1966
  129OSM   H13T13895   1.338   2.973   5.563  0.3852  0.7053 -1.1640
  129OSM   C14S13896   1.301   3.123   5.409 -0.7124  0.5738 -0.2644
  129OSM   H14S13897   1.402   3.137   5.366 -1.0277 -0.1793 -1.2781
  129OSM   H14T13898   1.258   3.225   5.407  1.0262  1.4363  1.8193
  129OSM   C15S13899   1.238   3.023   5.315  0.8613 -0.1346  0.9285
  129OSM   H15S13900   1.134   3.014   5.351  0.3821  0.4942 -0.2527
  129OSM   H15T13901   1.284   2.922   5.324 -0.3310 -0.8464 -0.4200
  129OSM   C16S13902   1.242   3.065   5.163  0.2556 -0.4264 -0.9715
  129OSM   H16S13903   1.349   3.072   5.135  1.0031  1.0735  1.8348
  129OSM   H16T13904   1.205   3.169   5.151 -0.0026 -0.4010 -0.0531
  129OSM   C17S13905   1.184   2.961   5.062  0.5654  0.3561 -0.0179
  129OSM   H17S13906   1.094   2.933   5.122 -0.4519 -0.9564 -2.0348
  129OSM   H17T13907   1.247   2.871   5.047 -1.6076 -1.4291  0.9811
  129OSM   C18S13908   1.122   3.030   4.934 -0.1311  0.0834  0.2890
  129OSM   H18S13909   1.065   2.951   4.880  1.8130 -1.8324  0.8620
  129OSM   H18T13910   1.216   3.057   4.882  1.4799 -0.2170  2.8212
  129OSM   H18U13911   1.069   3.121   4.968 -2.0307 -0.6368 -0.6374
  129OSM    C1F13912   1.141   2.928   6.657  0.5768 -0.0456  0.5032
  129OSM     OF13913   1.076   3.024   6.697  0.5585  0.9043  0.8269
  129OSM    C2F13914   1.079   2.819   6.570  0.0999 -0.3661  0.7103
  129OSM    H2F13915   0.968   2.825   6.565 -0.0253 -2.4223  0.3914
  129OSM    H2G13916   1.108   2.716   6.597 -0.0937 -0.4797  0.4827
  129OSM    C3F13917   1.119   2.847   6.419 -0.0402 -0.0970  0.5306
  129OSM    H3F13918   1.230   2.850   6.422 -0.0058 -0.8290  0.1827
  129OSM    H3G13919   1.072   2.941   6.383 -2.1610 -1.6533 -1.0254
  129OSM    C4F13920   1.089   2.726   6.329 -0.0477  0.2153 -0.1533
  129OSM    H4F13921   1.132   2.631   6.366  0.1050 -0.0993 -1.1120
  129OSM    H4G13922   1.130   2.741   6.226 -1.4859  0.1239 -0.7655
  129OSM    C5F13923   0.937   2.695   6.310  0.0922 -0.6286  0.0304
  129OSM    H5F13924   0.875   2.784   6.333  2.2418  0.4935  1.8775
  129OSM    H5G13925   0.906   2.619   6.386 -2.1038 -0.2973 -0.4870
  129OSM    C6F13926   0.900   2.665   6.160 -1.0453 -0.2543 -0.5230
  129OSM    H6F13927   0.987   2.613   6.114  1.0176  0.8387  1.9231
  129OSM    H6G13928   0.894   2.759   6.101 -0.4075 -0.1860 -0.4896
  129OSM    C7F13929   0.785   2.569   6.143  0.2452  0.4985  0.9967
  129OSM    H7F13930   0.735   2.605   6.051  1.5477 -0.0787  0.0250
  129OSM    H7G13931   0.717   2.576   6.230 -1.4247 -1.5046 -0.0435
  129OSM    C8F13932   0.820   2.421   6.143  0.0179  0.4375  0.2775
  129OSM    H8F13933   0.835   2.391   6.248 -0.8182  0.5878  0.4508
  129OSM    H8G13934   0.909   2.408   6.078 -0.5859 -0.7913 -0.3483
  129OSM    C9F13935   0.698   2.350   6.096 -0.1385  0.2087  0.3077
  129OSM    H9F13936   0.616   2.355   6.168 -0.6773  1.9031 -0.3810
  129OSM   C10F13937   0.694   2.291   5.978 -0.2474  0.1514 -0.2284
  129OSM   H10F13938   0.599   2.241   5.955 -1.1971  1.7117  0.1210
  129OSM   C11F13939   0.803   2.281   5.874  0.3438 -0.1397 -0.1413
  129OSM   H11F13940   0.802   2.178   5.833  2.1857  0.6265 -2.3385
  129OSM   H11G13941   0.906   2.310   5.902  0.3647 -0.4209  0.0725
  129OSM   C12F13942   0.766   2.374   5.756  0.0552  0.1013 -0.4609
  129OSM   H12F13943   0.848   2.432   5.709 -0.1345 -0.1851 -1.1634
  129OSM   H12G13944   0.691   2.449   5.790  1.7226  0.9130  1.6534
  129OSM   C13F13945   0.718   2.288   5.638  0.8802  0.1328 -1.2953
  129OSM   H13F13946   0.637   2.226   5.682 -1.0246  2.9267 -0.6129
  129OSM   H13G13947   0.801   2.218   5.612  0.2078 -1.9574  1.7071
  129OSM   C14F13948   0.688   2.352   5.503 -0.0037  0.3768 -0.8421
  129OSM   H14F13949   0.782   2.398   5.465 -0.2964  2.5225  0.8146
  129OSM   H14G13950   0.611   2.426   5.534  1.5233  1.1323  1.3663
  129OSM   C15F13951   0.619   2.253   5.411  0.2799 -0.0279 -0.1113
  129OSM   H15F13952   0.562   2.309   5.333 -0.4057 -1.4104 -0.6430
  129OSM   H15G13953   0.540   2.199   5.466  0.2372  0.4592  0.3133
  129OSM   C16F13954   0.705   2.149   5.338  0.1437  0.6344  0.3903
  129OSM   H16F13955   0.735   2.062   5.400  0.2575 -1.1395 -1.9824
  129OSM   H16G13956   0.799   2.199   5.307 -1.3083  3.0202 -0.4056
  129OSM   C17F13957   0.631   2.093   5.220 -0.8252  0.5865  0.4969
  129OSM   H17F13958   0.624   2.182   5.154 -1.3950  0.6908  0.6877
  129OSM   H17G13959   0.532   2.050   5.248 -0.2731  0.1792  1.9046
  129OSM   C18F13960   0.698   1.985   5.132 -0.4341 -0.2129  0.2640
  129OSM   H18F13961   0.630   1.969   5.047 -1.7637  3.3158  0.5049
  129OSM   H18G13962   0.731   1.903   5.200  0.0507 -0.5910 -0.4234
  129OSM   H18H13963   0.791   2.024   5.085 -1.6789  1.7483 -0.7007
  130OSM      N13964   1.051   4.694   6.472 -0.8377  0.0381  0.6780
  130OSM    C1513965   1.166   4.782   6.503  0.5441  0.5333 -0.0417
  130OSM   H15A13966   1.234   4.775   6.419 -2.5045 -0.3843 -2.6378
  130OSM   H15B13967   1.203   4.742   6.596  0.6278 -1.9319 -1.0605
  130OSM   H15C13968   1.123   4.881   6.509 -2.6884 -0.7128 -0.2994
  130OSM    C1413969   0.998   4.744   6.344  0.0218  0.0902 -0.0943
  130OSM   H14A13970   1.073   4.731   6.268 -1.3872 -0.0730 -1.5012
  130OSM   H14B13971   0.959   4.843   6.357  0.4667  0.5879 -2.1603
  130OSM   H14C13972   0.907   4.697   6.310 -0.0513 -0.1050  0.3580
  130OSM    C1313973   1.101   4.550   6.447 -0.2278 -0.8208 -0.4456
  130OSM   H13A13974   1.015   4.497   6.410 -1.7641  0.2908  1.3468
  130OSM   H13B13975   1.143   4.503   6.535 -0.5539 -1.0097 -0.3893
  130OSM   H13C13976   1.171   4.544   6.365 -0.3800 -0.4913 -0.6015
  130OSM    C1213977   0.951   4.693   6.579  0.8273 -0.3283  0.0211
  130OSM   H12A13978   0.987   4.626   6.655 -0.9920 -3.4182 -1.6290
  130OSM   H12B13979   0.864   4.644   6.539  1.6523 -1.9638  0.1503
  130OSM    C1113980   0.920   4.825   6.647 -0.1607  0.4235  0.2841
  130OSM   H11A13981   1.015   4.865   6.688  0.3613  0.2127 -0.6872
  130OSM   H11B13982   0.861   4.816   6.740  2.8320 -0.1715  2.2700
  130OSM      P13983   0.707   4.891   6.514  0.2603  0.1343  0.0785
  130OSM    O1313984   0.645   4.768   6.567 -0.2036 -0.0187 -0.4313
  130OSM    O1413985   0.634   5.017   6.543  0.8712  0.6934  0.2051
  130OSM    O1113986   0.729   4.873   6.359  0.0003 -0.0474  0.4353
  130OSM    O1213987   0.857   4.914   6.554 -0.3090  0.2225  0.0104
  130OSM    C1S13988   0.733   4.979   6.264 -0.2425 -0.8095  0.0127
  130OSM    H1S13989   0.842   4.999   6.252 -0.2295  0.8200  2.1883
  130OSM    H1T13990   0.700   5.080   6.298 -0.9223  0.3723 -3.7232
  130OSM     NF13991   0.681   5.070   6.041 -0.2797  0.2158 -0.0053
  130OSM    HNF13992   0.600   5.127   6.039 -0.0900  0.4937 -1.8753
  130OSM    C2S13993   0.668   4.950   6.122  0.1130 -0.8997 -0.3253
  130OSM    H2S13994   0.738   4.872   6.085  2.0034 -0.9291  2.8667
  130OSM    C3S13995   0.532   4.897   6.141  0.5534 -0.0949  0.1648
  130OSM    H3S13996   0.469   4.975   6.188 -0.8008 -0.9582 -0.1513
  130OSM     O313997   0.526   4.778   6.226 -0.4062  0.5137 -0.2430
  130OSM    HO313998   0.584   4.796   6.300 -1.7054  0.8609  0.7325
  130OSM    C4S13999   0.467   4.869   6.012 -0.0837  0.3433  0.3301
  130OSM    H4S14000   0.530   4.891   5.925 -1.2564  2.0085 -0.1571
  130OSM    C5S14001   0.329   4.880   5.997 -0.7105  0.3935  0.4117
  130OSM    H5S14002   0.260   4.892   6.082 -1.4749 -1.2778  0.0648
  130OSM    C6S14003   0.271   4.903   5.859  0.2250  0.4327  0.1324
  130OSM    H6S14004   0.233   5.006   5.839 -0.6944  0.0343 -0.2193
  130OSM    H6T14005   0.196   4.823   5.847 -2.2856  1.9452  3.8365
  130OSM    C7S14006   0.360   4.880   5.735 -0.4711 -0.1031  1.0647
  130OSM    H7S14007   0.387   4.774   5.712  0.5875  0.6302 -1.3468
  130OSM    H7T14008   0.453   4.941   5.740 -1.2489  1.2848 -0.4383
  130OSM    C8S14009   0.295   4.928   5.608 -0.0966 -0.4575 -0.6176
  130OSM    H8S14010   0.263   5.034   5.613  3.3783  0.6701  0.1093
  130OSM    H8T14011   0.203   4.865   5.598 -0.8975  0.5265  0.3494
  130OSM    C9S14012   0.372   4.899   5.481  0.5057 -0.2149  0.0920
  130OSM    H9S14013   0.399   4.791   5.482  0.8426 -0.2176  3.7401
  130OSM    H9T14014   0.474   4.942   5.486  1.3254 -2.1412  0.8946
  130OSM   C10S14015   0.291   4.945   5.358  0.2470 -0.1087  0.4202
  130OSM   H10S14016   0.285   5.056   5.364 -1.5754  0.0804 -2.6461
  130OSM   H10T14017   0.185   4.912   5.365 -0.7614  2.0329 -2.4403
  130OSM   C11S14018   0.345   4.912   5.214 -0.0050  0.4323  0.1054
  130OSM   H11S14019   0.336   4.803   5.190  2.2359 -0.1557  1.6322
  130OSM   H11T14020   0.454   4.932   5.210  0.2769 -1.0606 -0.2283
  130OSM   C12S14021   0.273   4.984   5.094 -0.1682 -0.1320  0.4532
  130OSM   H12S14022   0.345   4.993   5.010 -0.0606  3.7045  0.7975
  130OSM   H12T14023   0.266   5.091   5.123  4.8344  0.8067 -0.8966
  130OSM   C13S14024   0.142   4.923   5.053 -0.6820 -0.1906 -0.2514
  130OSM   H13S14025   0.084   4.892   5.142 -0.6765 -0.1921 -0.2482
  130OSM   H13T14026   0.161   4.829   4.997  0.4343 -0.0173 -0.1808
  130OSM   C14S14027   0.050   5.017   4.986  0.4926  0.2464 -0.2427
  130OSM   H14S14028   0.012   5.093   5.058  0.6155  0.9230 -0.8765
  130OSM   H14T14029  -0.038   4.965   4.940  0.5343  0.6117 -0.7522
  130OSM   C15S14030   0.112   5.084   4.858  0.2918  0.0868 -0.0557
  130OSM   H15S14031   0.196   5.151   4.885  1.6655 -1.4741 -0.3258
  130OSM   H15T14032   0.024   5.140   4.819 -1.4247 -0.8696  2.2169
  130OSM   C16S14033   0.162   4.981   4.754 -0.4155 -1.0463  0.9366
  130OSM   H16S14034   0.090   4.900   4.728 -1.7770  0.1229  0.9904
  130OSM   H16T14035   0.255   4.932   4.790  0.1162 -0.2415  0.6790
  130OSM   C17S14036   0.192   5.048   4.613  0.3835  0.0233 -0.1383
  130OSM   H17S14037   0.275   5.121   4.618  0.4341 -0.1232  1.6626
  130OSM   H17T14038   0.106   5.114   4.586 -0.2722 -1.4336 -1.8041
  130OSM   C18S14039   0.211   4.949   4.492 -0.3954  0.1402  0.0038
  130OSM   H18S14040   0.121   4.886   4.475 -0.6546  0.4598  0.1756
  130OSM   H18T14041   0.296   4.880   4.507  0.5533  1.3303  0.1939
  130OSM   H18U14042   0.225   5.011   4.401 -4.4770  1.6475  0.1566
  130OSM    C1F14043   0.790   5.101   5.968 -0.1224 -0.3852 -0.6447
  130OSM     OF14044   0.898   5.043   5.985 -0.5269 -0.2715  0.0494
  130OSM    C2F14045   0.766   5.202   5.859 -0.6669  0.4051 -0.4077
  130OSM    H2F14046   0.869   5.224   5.825 -0.1389 -1.8525 -0.4483
  130OSM    H2G14047   0.708   5.291   5.894 -2.2593 -0.8616  0.3238
  130OSM    C3F14048   0.688   5.157   5.732 -0.3380 -0.1421 -0.5990
  130OSM    H3F14049   0.597   5.102   5.762 -0.3790 -0.2032 -0.8338
  130OSM    H3G14050   0.750   5.078   5.683 -0.4649  0.3626 -1.5905
  130OSM    C4F14051   0.666   5.268   5.634 -0.7640 -0.0217 -0.5744
  130OSM    H4F14052   0.763   5.317   5.611 -0.3923  0.0113  0.9274
  130OSM    H4G14053   0.596   5.351   5.659  0.4632  0.4951  1.3594
  130OSM    C5F14054   0.610   5.208   5.509 -0.7212  0.0371 -0.3393
  130OSM    H5F14055   0.512   5.160   5.531 -0.3698 -0.1267  0.9287
  130OSM    H5G14056   0.681   5.134   5.464  0.0769  0.7690 -0.3060
  130OSM    C6F14057   0.608   5.307   5.386  0.0465 -0.2301 -0.5055
  130OSM    H6F14058   0.706   5.353   5.360 -0.4793  0.2230 -1.8120
  130OSM    H6G14059   0.543   5.395   5.407  0.8519  0.7430 -1.9161
  130OSM    C7F14060   0.555   5.235   5.259  0.1484  0.0654 -0.3496
  130OSM    H7F14061   0.458   5.192   5.290 -0.0789  0.5684 -0.3653
  130OSM    H7G14062   0.611   5.142   5.234 -1.4419 -1.2573  0.8514
  130OSM    C8F14063   0.536   5.336   5.143  0.0188  0.2825 -0.4445
  130OSM    H8F14064   0.637   5.370   5.113 -1.0252  1.3542 -2.9649
  130OSM    H8G14065   0.479   5.426   5.173 -0.7110 -0.5974  0.9495
  130OSM    C9F14066   0.459   5.270   5.038  0.3819 -0.0285 -0.6531
  130OSM    H9F14067   0.350   5.280   5.043  0.3469 -0.6618  0.0720
  130OSM   C10F14068   0.513   5.199   4.942 -0.1949 -0.0470  0.1932
  130OSM   H10F14069   0.445   5.156   4.867  1.3086 -1.2138 -0.5646
  130OSM   C11F14070   0.659   5.150   4.921 -0.6498 -0.4471 -0.2414
  130OSM   H11F14071   0.699   5.125   5.021 -0.4064 -0.2077 -0.2764
  130OSM   H11G14072   0.719   5.238   4.891 -2.6259  1.1170  0.2070
  130OSM   C12F14073   0.674   5.028   4.830 -0.2704 -0.6139 -0.2564
  130OSM   H12F14074   0.597   4.952   4.858 -0.4999 -0.2848  0.0251
  130OSM   H12G14075   0.776   4.991   4.852  0.6249  1.9266  0.1370
  130OSM   C13F14076   0.668   5.055   4.682  0.1929  0.3123  0.5820
  130OSM   H13F14077   0.763   5.105   4.654  0.2298 -0.7632 -1.3402
  130OSM   H13G14078   0.581   5.122   4.669 -0.6509 -0.8996 -0.1380
  130OSM   C14F14079   0.638   4.932   4.593 -0.7292 -0.5553 -0.5065
  130OSM   H14F14080   0.533   4.902   4.616 -0.4594 -2.0386 -1.1111
  130OSM   H14G14081   0.689   4.841   4.631  0.3253  0.2286  0.0141
  130OSM   C15F14082   0.642   4.952   4.447 -0.5490 -0.4661  0.3019
  130OSM   H15F14083   0.749   4.957   4.417 -0.2161 -2.1342  1.1229
  130OSM   H15G14084   0.576   5.037   4.417 -0.0970  0.3443  1.5463
  130OSM   C16F14085   0.591   4.831   4.378  0.4255 -0.0104 -0.6126
  130OSM   H16F14086   0.506   4.788   4.436 -0.5662  1.8936 -0.5984
  130OSM   H16G14087   0.675   4.758   4.372  2.3803  2.0262  0.4409
  130OSM   C17F14088   0.532   4.850   4.240 -0.0710 -0.2624 -0.2957
  130OSM   H17F14089   0.492   4.953   4.233 -0.1492 -0.2070  0.8559
  130OSM   H17G14090   0.451   4.778   4.218 -0.3256  0.4796 -1.9657
  130OSM   C18F14091   0.633   4.835   4.129  0.2416 -0.7893  0.3538
  130OSM   H18F14092   0.666   4.729   4.121 -2.4430 -1.5867 -1.0558
  130OSM   H18G14093   0.716   4.909   4.141 -0.8082  1.2677 -3.4380
  130OSM   H18H14094   0.595   4.863   4.029 -0.7478 -2.2470  0.2869
  131OSM      N14095   6.817   6.905   7.136 -0.2720 -0.4604 -0.4517
  131OSM    C1514096   6.816   6.860   6.997 -0.2934 -0.3860  0.2290
  131OSM   H15A14097   6.778   6.759   6.992  1.3124 -1.1076  1.6461
  131OSM   H15B14098   6.916   6.854   6.956 -1.1295 -0.5791 -1.9169
  131OSM   H15C14099   6.749   6.913   6.931 -2.2778 -1.3324  1.3829
  131OSM    C1414100   6.918   6.830   7.212  0.5811  0.8884  0.0560
  131OSM   H14A14101   7.018   6.835   7.170  1.1571 -1.5709  1.0049
  131OSM   H14B14102   6.897   6.724   7.212  1.9544  0.5694 -1.4933
  131OSM   H14C14103   6.927   6.874   7.310 -1.1182  1.3138  0.0451
  131OSM    C1314104   6.850   7.049   7.146  0.6136  0.1504  0.6150
  131OSM   H13A14105   6.851   7.082   7.249 -0.4834  0.1776  0.6286
  131OSM   H13B14106   6.781   7.120   7.103 -0.9504 -1.1252  0.9569
  131OSM   H13C14107   6.948   7.070   7.105  0.9621 -0.3966  1.1497
  131OSM    C1214108   6.680   6.879   7.198  0.5045  0.3327 -0.6787
  131OSM   H12A14109   6.606   6.945   7.155 -0.0008  0.8092  0.8471
  131OSM   H12B14110   6.687   6.905   7.302 -3.4311  2.1828 -0.7063
  131OSM    C1114111   6.614   6.734   7.186  0.0782 -0.1104  1.0115
  131OSM   H11A14112   6.522   6.731   7.248 -2.9637  0.7344 -3.0119
  131OSM   H11B14113   6.682   6.658   7.230 -0.3508 -0.3176  1.3269
  131OSM      P14114   6.441   6.729   6.981  0.1161  0.0023  0.0259
  131OSM    O1314115   6.372   6.596   6.966 -0.0978 -0.0021  0.1351
  131OSM    O1414116   6.369   6.839   7.050  0.7643 -0.0495 -0.5118
  131OSM    O1114117   6.495   6.774   6.840 -0.1663 -0.6947 -0.3815
  131OSM    O1214118   6.581   6.713   7.054 -0.0596 -0.2062 -0.2966
  131OSM    C1S14119   6.574   6.697   6.754 -0.4821  0.6233 -0.2903
  131OSM    H1S14120   6.556   6.587   6.754  3.1707 -0.1456 -2.2785
  131OSM    H1T14121   6.681   6.704   6.783 -0.1204  0.5378 -1.5368
  131OSM     NF14122   6.611   6.645   6.511 -0.1481 -0.1954  0.2989
  131OSM    HNF14123   6.710   6.642   6.501 -0.2600  0.7319 -1.4103
  131OSM    C2S14124   6.565   6.736   6.608  0.5320 -0.1368  0.4682
  131OSM    H2S14125   6.457   6.749   6.588  1.1251 -0.7860 -4.2943
  131OSM    C3S14126   6.619   6.881   6.572  0.3207 -0.2039 -0.6200
  131OSM    H3S14127   6.730   6.884   6.566  0.3824  2.3893  0.6179
  131OSM     O314128   6.580   6.974   6.673  0.2384 -0.5732  0.4097
  131OSM    HO314129   6.530   6.923   6.736 -0.7281 -0.5017 -0.2761
  131OSM    C4S14130   6.571   6.939   6.447  0.3743  0.3639 -0.0658
  131OSM    H4S14131   6.470   6.982   6.449  0.1747 -0.1360  0.8954
  131OSM    C5S14132   6.627   6.929   6.323 -0.0839 -0.7374  0.1629
  131OSM    H5S14133   6.717   6.867   6.315  1.4191  1.5085 -1.9060
  131OSM    C6S14134   6.558   6.982   6.199  0.3931 -0.2222 -0.1217
  131OSM    H6S14135   6.601   7.083   6.183 -1.9297  0.6778 -1.2051
  131OSM    H6T14136   6.450   6.993   6.222 -0.3545 -2.4450 -2.1106
  131OSM    C7S14137   6.582   6.892   6.066 -0.5313 -0.3626 -0.3667
  131OSM    H7S14138   6.557   6.958   5.981  0.6294 -0.4394 -0.7891
  131OSM    H7T14139   6.517   6.802   6.056 -0.2370 -0.7926  1.2690
  131OSM    C8S14140   6.725   6.848   6.052  0.4572 -0.2807 -0.3849
  131OSM    H8S14141   6.746   6.774   6.132  2.3633 -0.1040 -0.6765
  131OSM    H8T14142   6.782   6.942   6.067 -0.3257  0.0990  0.2574
  131OSM    C9S14143   6.744   6.789   5.912 -0.0018  0.0094  0.5846
  131OSM    H9S14144   6.718   6.871   5.841 -1.2070  0.7072  1.7771
  131OSM    H9T14145   6.684   6.697   5.895 -1.1503  0.4092  2.2127
  131OSM   C10S14146   6.894   6.766   5.873  0.9431 -0.0963 -0.6459
  131OSM   H10S14147   6.932   6.698   5.952 -1.8537  1.0285  1.9019
  131OSM   H10T14148   6.957   6.857   5.883 -0.3425  0.8668 -0.9623
  131OSM   C11S14149   6.908   6.712   5.732 -0.0722  0.5400 -0.1179
  131OSM   H11S14150   6.858   6.783   5.661 -0.0774  0.6673  0.0122
  131OSM   H11T14151   6.865   6.610   5.725 -0.5507  0.7900 -1.1350
  131OSM   C12S14152   7.052   6.694   5.696  0.6440  0.3312 -0.2413
  131OSM   H12S14153   7.109   6.658   5.785  1.0949  1.3091 -0.1267
  131OSM   H12T14154   7.097   6.795   5.690  0.6379  0.5822  2.5455
  131OSM   C13S14155   7.075   6.598   5.580  0.7250  0.2437 -0.1291
  131OSM   H13S14156   7.035   6.651   5.491  0.9738 -2.3300 -1.9056
  131OSM   H13T14157   7.004   6.514   5.596 -0.8281  1.2517 -1.3970
  131OSM   C14S14158   7.214   6.546   5.577 -0.1815 -0.2863  0.2903
  131OSM   H14S14159   7.232   6.504   5.678  0.6531  0.4348  0.4489
  131OSM   H14T14160   7.274   6.640   5.579 -0.5454 -0.0592  1.0310
  131OSM   C15S14161   7.242   6.444   5.465 -0.1415  0.1994 -0.0666
  131OSM   H15S14162   7.234   6.502   5.370 -1.3915 -0.2911 -0.2818
  131OSM   H15T14163   7.162   6.367   5.459 -0.0173 -0.0704  1.3929
  131OSM   C16S14164   7.376   6.370   5.480  0.0903  0.1729 -0.2522
  131OSM   H16S14165   7.442   6.445   5.529  0.3681 -0.9729  1.2306
  131OSM   H16T14166   7.427   6.356   5.382 -2.7051  0.3894 -1.8185
  131OSM   C17S14167   7.373   6.249   5.569 -0.3539  0.1535 -0.0669
  131OSM   H17S14168   7.314   6.166   5.524  0.6171  0.1371 -1.3816
  131OSM   H17T14169   7.315   6.278   5.659 -0.9052  4.2819 -1.5331
  131OSM   C18S14170   7.513   6.200   5.596 -0.3270  0.3989 -0.0777
  131OSM   H18S14171   7.573   6.174   5.506  0.7970  3.3803 -0.3031
  131OSM   H18T14172   7.514   6.119   5.671 -3.6377 -0.5164 -0.8800
  131OSM   H18U14173   7.565   6.284   5.647  1.5346 -0.0311 -1.1783
  131OSM    C1F14174   6.543   6.540   6.472 -0.1767 -0.3312 -0.2543
  131OSM     OF14175   6.430   6.519   6.518  0.0925 -0.7872  0.1268
  131OSM    C2F14176   6.604   6.437   6.387  0.0294 -0.8144  0.2973
  131OSM    H2F14177   6.574   6.334   6.415 -1.5746 -0.3312  0.4727
  131OSM    H2G14178   6.715   6.447   6.384 -0.0365 -0.2802 -1.1015
  131OSM    C3F14179   6.565   6.454   6.240 -1.0160 -0.5515 -0.3399
  131OSM    H3F14180   6.628   6.383   6.181 -1.0288 -1.7706  1.0355
  131OSM    H3G14181   6.588   6.556   6.204  0.2258  0.1068  2.1188
  131OSM    C4F14182   6.418   6.420   6.203 -0.5595 -0.0329 -0.5494
  131OSM    H4F14183   6.354   6.506   6.232  1.1321  1.6364 -1.5241
  131OSM    H4G14184   6.375   6.344   6.271 -2.1430  0.0578 -1.3803
  131OSM    C5F14185   6.384   6.387   6.055 -0.4408  0.5063 -0.8939
  131OSM    H5F14186   6.274   6.380   6.040 -0.4794 -1.0737 -0.1065
  131OSM    H5G14187   6.432   6.292   6.023  0.4556  0.0153  1.6532
  131OSM    C6F14188   6.423   6.511   5.966  0.3523  0.2007  0.3374
  131OSM    H6F14189   6.531   6.534   5.980  0.2495  1.2333 -0.4506
  131OSM    H6G14190   6.368   6.603   5.997 -2.4370 -0.8718 -1.1312
  131OSM    C7F14191   6.389   6.479   5.827 -0.6386 -0.1172  1.1226
  131OSM    H7F14192   6.280   6.461   5.818 -0.6693 -0.4270  1.9951
  131OSM    H7G14193   6.442   6.389   5.787 -1.1067 -0.5605  1.4766
  131OSM    C8F14194   6.439   6.589   5.726  0.1161  0.6350 -0.2136
  131OSM    H8F14195   6.550   6.584   5.725  0.0925 -0.8393  0.4934
  131OSM    H8G14196   6.421   6.691   5.766  0.2409  0.4767  0.2573
  131OSM    C9F14197   6.353   6.583   5.600 -0.5880  0.1067 -0.3053
  131OSM    H9F14198   6.250   6.552   5.624 -0.4467 -0.1548 -0.0327
  131OSM   C10F14199   6.401   6.599   5.474 -0.6267 -0.3372 -1.2100
  131OSM   H10F14200   6.334   6.604   5.387 -0.8677  2.1235 -0.9552
  131OSM   C11F14201   6.549   6.623   5.435  0.3264 -0.8751 -0.4675
  131OSM   H11F14202   6.564   6.599   5.327 -0.2032  3.0284 -1.6033
  131OSM   H11G14203   6.615   6.584   5.515  1.0526 -1.9226 -1.5318
  131OSM   C12F14204   6.564   6.771   5.455 -0.2082 -0.0949 -0.3261
  131OSM   H12F14205   6.548   6.811   5.557 -1.2324  0.0231 -0.5242
  131OSM   H12G14206   6.491   6.829   5.394 -0.3000  0.3634  0.2201
  131OSM   C13F14207   6.702   6.827   5.414 -0.0876 -0.2569 -0.4023
  131OSM   H13F14208   6.714   6.821   5.303  3.9398 -1.1308 -0.0808
  131OSM   H13G14209   6.779   6.756   5.449  0.6681  0.1918 -1.0977
  131OSM   C14F14210   6.735   6.968   5.474 -0.7516 -0.4844  0.2010
  131OSM   H14F14211   6.728   6.952   5.584 -1.6426 -0.3664  0.1687
  131OSM   H14G14212   6.652   7.037   5.449 -0.7535 -0.3474  0.5791
  131OSM   C15F14213   6.865   7.045   5.416  0.0105 -0.3763 -0.3423
  131OSM   H15F14214   6.945   6.969   5.425  0.7697  0.2747 -1.3663
  131OSM   H15G14215   6.883   7.126   5.490  0.9733  0.5620 -1.5602
  131OSM   C16F14216   6.844   7.085   5.272 -0.4716 -0.9256  0.8315
  131OSM   H16F14217   6.838   6.984   5.225  0.6779 -1.0594  0.9521
  131OSM   H16G14218   6.942   7.125   5.237 -0.9771  0.5461  1.0266
  131OSM   C17F14219   6.729   7.189   5.252 -0.4387 -0.2088 -0.3561
  131OSM   H17F14220   6.632   7.136   5.264  1.2856 -3.9170 -1.2129
  131OSM   H17G14221   6.740   7.208   5.143  1.0906  0.7027 -0.0683
  131OSM   C18F14222   6.737   7.318   5.329  0.2619 -0.6264 -0.5286
  131OSM   H18F14223   6.719   7.299   5.437  1.7743  1.3837  0.1371
  131OSM   H18G14224   6.663   7.394   5.297 -0.1434 -0.7122  0.1946
  131OSM   H18H14225   6.828   7.381   5.318 -0.5386  0.5774 -0.3446
  132OSM      N14226   2.473   2.252   7.790  0.8828 -0.5131  0.1358
  132OSM    C1514227   2.495   2.392   7.834 -0.3301  0.6454 -0.0915
  132OSM   H15A14228   2.600   2.417   7.823 -0.1577  0.5162  1.1160
  132OSM   H15B14229   2.466   2.399   7.938 -1.3176 -2.2623 -0.0772
  132OSM   H15C14230   2.449   2.469   7.774  0.9322  0.5937 -1.1698
  132OSM    C1414231   2.541   2.162   7.884  0.7151  0.2510  0.9524
  132OSM   H14A14232   2.511   2.063   7.853 -0.9810  1.7398 -2.7977
  132OSM   H14B14233   2.512   2.180   7.987  0.0087 -1.2154  1.0395
  132OSM   H14C14234   2.649   2.162   7.876  0.6966 -0.1385  0.7154
  132OSM    C1314235   2.331   2.224   7.783  1.0466  0.5010 -0.1907
  132OSM   H13A14236   2.308   2.131   7.733 -1.1373  0.6585  0.4045
  132OSM   H13B14237   2.274   2.303   7.738 -1.6135 -0.9090  0.4280
  132OSM   H13C14238   2.286   2.222   7.882 -1.3886 -1.7675 -1.2134
  132OSM    C1214239   2.524   2.232   7.654  0.8060 -0.1933  0.1318
  132OSM   H12A14240   2.543   2.129   7.628 -0.2196  0.0486 -1.7902
  132OSM   H12B14241   2.619   2.283   7.659 -0.1594  1.6082  1.4083
  132OSM    C1114242   2.451   2.302   7.533  0.1456  0.0701 -0.5126
  132OSM   H11A14243   2.381   2.226   7.493  0.2223  0.2934 -1.0786
  132OSM   H11B14244   2.529   2.310   7.454 -0.5110  1.6039 -1.0456
  132OSM      P14245   2.258   2.469   7.491 -0.2503  0.2122 -0.1243
  132OSM    O1314246   2.158   2.362   7.519  0.4001  0.3637 -0.1992
  132OSM    O1414247   2.224   2.603   7.538 -0.6014  0.7057 -0.2991
  132OSM    O1114248   2.287   2.473   7.334 -0.1713  0.9974  0.4132
  132OSM    O1214249   2.405   2.435   7.550  0.0430 -0.3040 -0.4719
  132OSM    C1S14250   2.395   2.543   7.274  0.1348  0.2274  0.1703
  132OSM    H1S14251   2.489   2.540   7.334  0.0185 -1.1269  0.3045
  132OSM    H1T14252   2.373   2.648   7.243 -1.3072 -0.4673 -1.2842
  132OSM     NF14253   2.538   2.550   7.070 -0.5015  0.1805  0.3832
  132OSM    HNF14254   2.519   2.617   6.998 -4.2114  1.6159  2.3804
  132OSM    C2S14255   2.420   2.489   7.130 -0.9152 -0.2007 -0.5439
  132OSM    H2S14256   2.457   2.387   7.149  0.5847  0.4007 -0.0591
  132OSM    C3S14257   2.291   2.494   7.049 -0.4410 -0.6029 -0.4198
  132OSM    H3S14258   2.250   2.597   7.061  0.9043 -0.3543  3.2827
  132OSM     O314259   2.182   2.410   7.097  0.3605  0.2693 -0.4264
  132OSM    HO314260   2.203   2.387   7.187 -0.4722 -0.1936 -0.3398
  132OSM    C4S14261   2.317   2.452   6.904 -0.6014 -0.5511  0.8635
  132OSM    H4S14262   2.334   2.346   6.881 -0.8040 -0.6328  1.0881
  132OSM    C5S14263   2.305   2.540   6.800 -0.1608  0.4245  0.0296
  132OSM    H5S14264   2.281   2.645   6.820 -0.0533  1.1458 -3.1253
  132OSM    C6S14265   2.312   2.506   6.656 -0.1677 -0.0502  0.4034
  132OSM    H6S14266   2.419   2.494   6.628 -0.0205 -0.9352  1.2876
  132OSM    H6T14267   2.273   2.590   6.595  1.1523 -2.3605 -4.1319
  132OSM    C7S14268   2.237   2.381   6.614 -0.8233  0.2541 -0.4550
  132OSM    H7S14269   2.135   2.386   6.658 -1.5386 -1.8947 -1.7185
  132OSM    H7T14270   2.273   2.291   6.669 -1.8345 -0.1857 -0.4953
  132OSM    C8S14271   2.251   2.356   6.465  0.3025  0.4120  0.1337
  132OSM    H8S14272   2.233   2.248   6.452  0.3070  0.2057  1.6338
  132OSM    H8T14273   2.355   2.378   6.435  0.8256 -0.1793  1.4321
  132OSM    C9S14274   2.156   2.442   6.378 -0.3425 -0.1018 -0.0445
  132OSM    H9S14275   2.184   2.549   6.391  2.0979 -0.5512 -1.0800
  132OSM    H9T14276   2.052   2.425   6.411 -0.4710  0.5695 -0.0791
  132OSM   C10S14277   2.170   2.398   6.231  0.0638 -0.1580 -0.3287
  132OSM   H10S14278   2.153   2.290   6.215  0.9203  0.1014 -3.8320
  132OSM   H10T14279   2.277   2.414   6.204 -0.0457  2.4193  0.4500
  132OSM   C11S14280   2.080   2.478   6.140 -0.0600  0.5358 -0.3181
  132OSM   H11S14281   2.073   2.588   6.153  0.1764  1.0107 -3.3612
  132OSM   H11T14282   1.973   2.457   6.160 -0.1977 -0.2102 -1.7360
  132OSM   C12S14283   2.105   2.462   5.987  0.6281  0.4024 -0.7477
  132OSM   H12S14284   2.081   2.356   5.964 -0.6624  0.2307  1.1985
  132OSM   H12T14285   2.214   2.463   5.964  1.2496 -1.6115  1.6338
  132OSM   C13S14286   2.029   2.549   5.893  0.3756  0.7112 -0.1284
  132OSM   H13S14287   2.062   2.653   5.918  4.6926 -0.4534 -0.0988
  132OSM   H13T14288   1.919   2.550   5.910 -0.0224  0.7416 -2.4263
  132OSM   C14S14289   2.058   2.506   5.750  0.7127 -0.2295  0.0255
  132OSM   H14S14290   2.017   2.404   5.735  1.7198 -0.4039 -1.7935
  132OSM   H14T14291   2.166   2.503   5.728  1.2080  2.0325  1.7122
  132OSM   C15S14292   1.987   2.601   5.643  0.0763  0.1489 -0.2732
  132OSM   H15S14293   2.000   2.703   5.685 -1.2340  0.4483 -0.5295
  132OSM   H15T14294   1.878   2.580   5.650  0.4200 -2.7407 -1.8017
  132OSM   C16S14295   2.027   2.577   5.500  0.6294 -0.4351  0.2120
  132OSM   H16S14296   2.035   2.467   5.484  0.3134 -0.3947 -0.2387
  132OSM   H16T14297   2.128   2.620   5.480  0.0337  1.1889  0.5467
  132OSM   C17S14298   1.939   2.628   5.389 -0.6568 -0.4096 -0.6322
  132OSM   H17S14299   1.922   2.736   5.411 -1.3573 -0.7504  0.6144
  132OSM   H17T14300   1.842   2.575   5.396 -0.5041 -0.6912 -0.6524
  132OSM   C18S14301   1.985   2.610   5.249  0.0419  0.4653 -0.2813
  132OSM   H18S14302   1.947   2.510   5.218 -2.3359  0.7795  1.3303
  132OSM   H18T14303   2.096   2.612   5.248  0.0438  0.3170 -0.4863
  132OSM   H18U14304   1.941   2.687   5.182  0.8259  1.5699  0.4410
  132OSM    C1F14305   2.661   2.534   7.106 -0.0295 -0.2262  0.0914
  132OSM     OF14306   2.698   2.450   7.179  0.2269 -0.3908  0.3372
  132OSM    C2F14307   2.757   2.622   7.038  0.3701 -0.1320  0.5715
  132OSM    H2F14308   2.760   2.712   7.102  0.7021 -1.0887  1.9427
  132OSM    H2G14309   2.720   2.640   6.934 -1.1870 -2.4066  0.6407
  132OSM    C3F14310   2.901   2.562   7.026 -0.3734 -0.2281 -0.0576
  132OSM    H3F14311   2.922   2.477   6.958  1.4920  1.5923 -1.8877
  132OSM    H3G14312   2.933   2.532   7.129 -0.8392  0.5054  0.3099
  132OSM    C4F14313   3.001   2.676   6.984 -0.2110 -0.5705  0.1061
  132OSM    H4F14314   3.024   2.741   7.072  0.5797 -0.8164  0.0886
  132OSM    H4G14315   2.949   2.743   6.912 -0.1330 -0.4282  0.1803
  132OSM    C5F14316   3.138   2.626   6.942 -0.5649  0.5530 -0.6190
  132OSM    H5F14317   3.117   2.535   6.882 -0.3905 -0.0556  0.2281
  132OSM    H5G14318   3.191   2.599   7.036 -1.4770  2.7792  0.6300
  132OSM    C6F14319   3.211   2.712   6.844 -0.2595 -0.4322 -0.3647
  132OSM    H6F14320   3.242   2.807   6.893  2.3799 -2.3617  1.9737
  132OSM    H6G14321   3.150   2.748   6.759  0.7683  0.6186 -0.6914
  132OSM    C7F14322   3.337   2.654   6.779 -0.5675  0.0337  0.2819
  132OSM    H7F14323   3.412   2.639   6.859  0.3495  1.2424 -0.3216
  132OSM    H7G14324   3.381   2.747   6.737 -0.0708  0.7941  2.4015
  132OSM    C8F14325   3.321   2.537   6.682 -0.2354  0.0981 -0.6779
  132OSM    H8F14326   3.261   2.571   6.594 -1.0316  0.0793 -0.1464
  132OSM    H8G14327   3.257   2.459   6.729 -1.9456  0.7275 -1.8752
  132OSM    C9F14328   3.455   2.483   6.637  0.1596 -0.4958 -0.1302
  132OSM    H9F14329   3.539   2.504   6.705 -1.0355  0.7710  1.0109
  132OSM   C10F14330   3.483   2.432   6.515  0.0824 -0.4673  0.4889
  132OSM   H10F14331   3.586   2.411   6.482 -0.4775  2.1479 -3.7098
  132OSM   C11F14332   3.383   2.415   6.402 -0.3820  0.0721 -0.6795
  132OSM   H11F14333   3.277   2.430   6.429 -0.4329 -1.6473  0.1919
  132OSM   H11G14334   3.374   2.307   6.378  1.3129 -0.1660 -0.3904
  132OSM   C12F14335   3.416   2.492   6.270  0.1046 -0.5412 -0.0435
  132OSM   H12F14336   3.430   2.596   6.306 -1.7046  0.0106 -0.8158
  132OSM   H12G14337   3.328   2.501   6.202 -0.1246  0.9936  0.4149
  132OSM   C13F14338   3.534   2.429   6.190  0.0131  0.3407 -0.2195
  132OSM   H13F14339   3.628   2.406   6.245  0.8246 -0.8749 -2.0378
  132OSM   H13G14340   3.564   2.499   6.109  2.8044 -1.9816 -1.3579
  132OSM   C14F14341   3.491   2.296   6.119 -0.1105  0.1168 -0.8760
  132OSM   H14F14342   3.381   2.284   6.103 -0.1252  0.2327 -0.8621
  132OSM   H14G14343   3.518   2.209   6.182  2.1262  1.5660  0.3131
  132OSM   C15F14344   3.548   2.272   5.982 -0.6853  0.0939 -0.1733
  132OSM   H15F14345   3.656   2.295   5.984 -0.6282 -0.1190  2.2227
  132OSM   H15G14346   3.514   2.346   5.906  2.1875  0.3212 -1.3741
  132OSM   C16F14347   3.531   2.131   5.922 -0.4259 -0.0805 -0.1968
  132OSM   H16F14348   3.587   2.060   5.986 -0.4003 -0.0031 -0.1330
  132OSM   H16G14349   3.583   2.129   5.824  1.2809 -1.9742  0.6874
  132OSM   C17F14350   3.387   2.087   5.909 -0.1805  0.7339 -0.4888
  132OSM   H17F14351   3.329   2.107   6.002 -2.5420 -2.2595 -1.1675
  132OSM   H17G14352   3.391   1.977   5.891 -0.5062  0.4196  1.1759
  132OSM   C18F14353   3.311   2.166   5.799 -0.2755  0.2527  0.6196
  132OSM   H18F14354   3.210   2.120   5.790 -0.2937  0.1180  1.4029
  132OSM   H18G14355   3.360   2.160   5.700  0.3419 -0.6247  0.9625
  132OSM   H18H14356   3.305   2.273   5.827  0.8092  0.0921  1.5564
  133OSM      N14357   6.561   3.087   7.061 -0.3538 -0.2881 -0.1796
  133OSM    C1514358   6.475   3.200   7.087 -0.5084 -0.3906 -0.1263
  133OSM   H15A14359   6.502   3.282   7.021  1.9532 -0.0617  1.1732
  133OSM   H15B14360   6.471   3.241   7.187 -0.5583  1.8095 -0.9626
  133OSM   H15C14361   6.371   3.172   7.075 -1.1617  1.3810  0.9500
  133OSM    C1414362   6.693   3.112   7.111 -0.0276 -0.1688 -1.0076
  133OSM   H14A14363   6.755   3.025   7.103  0.5647  0.0044  0.9960
  133OSM   H14B14364   6.688   3.152   7.212 -2.7639 -0.1530 -1.0747
  133OSM   H14C14365   6.743   3.185   7.049  0.2593  0.1088 -0.4640
  133OSM    C1314366   6.504   2.971   7.137 -0.2073  0.2970  0.0478
  133OSM   H13A14367   6.416   2.936   7.086  1.2777  0.8008 -3.1228
  133OSM   H13B14368   6.493   2.989   7.243 -1.1899 -1.0421  0.1852
  133OSM   H13C14369   6.566   2.883   7.133 -0.2722  0.2751 -0.5214
  133OSM    C1214370   6.575   3.063   6.910  0.4238 -0.0833  0.4347
  133OSM   H12A14371   6.670   3.015   6.890  1.8465  2.8264 -0.3833
  133OSM   H12B14372   6.579   3.157   6.857 -0.1711  0.2480  0.9642
  133OSM    C1114373   6.465   2.984   6.836  0.3110 -0.1319  0.1694
  133OSM   H11A14374   6.449   2.882   6.877 -1.0705 -0.3298 -0.7822
  133OSM   H11B14375   6.494   2.975   6.729 -0.4523 -1.3836  0.0469
  133OSM      P14376   6.202   3.010   6.881  0.1207 -0.2677 -0.1389
  133OSM    O1314377   6.209   2.937   7.011 -0.0062 -0.5793  0.3525
  133OSM    O1414378   6.114   3.131   6.865 -0.0391  0.1453 -0.7095
  133OSM    O1114379   6.175   2.911   6.762 -0.0383  0.1558 -0.0441
  133OSM    O1214380   6.344   3.062   6.841 -0.0286 -0.2921 -0.5122
  133OSM    C1S14381   6.178   2.956   6.625  0.2518 -0.4029 -0.0290
  133OSM    H1S14382   6.236   3.051   6.619  1.9709 -1.4276 -0.5956
  133OSM    H1T14383   6.074   2.984   6.598  0.6069  0.3042 -0.6974
  133OSM     NF14384   6.235   2.913   6.390  1.0473 -0.0638  0.7934
  133OSM    HNF14385   6.182   2.858   6.326  1.3861 -0.4059  0.7986
  133OSM    C2S14386   6.246   2.860   6.525 -0.0618  0.4518 -0.7887
  133OSM    H2S14387   6.348   2.847   6.567 -0.3810  1.0723  0.2060
  133OSM    C3S14388   6.182   2.718   6.536  0.5360 -0.4467 -0.0750
  133OSM    H3S14389   6.073   2.727   6.514 -0.1196  0.5332  3.0075
  133OSM     O314390   6.171   2.661   6.661 -0.3149  0.3394  0.5484
  133OSM    HO314391   6.161   2.741   6.713  1.7827  1.4856 -0.6609
  133OSM    C4S14392   6.261   2.622   6.456 -0.0188  0.4071  0.3274
  133OSM    H4S14393   6.361   2.592   6.490 -0.0896 -1.6512 -1.1700
  133OSM    C5S14394   6.219   2.575   6.334  0.0701 -1.0861  0.1948
  133OSM    H5S14395   6.118   2.586   6.293  0.9405 -0.5851 -1.9180
  133OSM    C6S14396   6.291   2.472   6.243 -0.0968  0.2141  0.1340
  133OSM    H6S14397   6.251   2.369   6.256  1.0188 -0.5080 -1.8523
  133OSM    H6T14398   6.398   2.454   6.265  0.0548 -1.0179 -1.4652
  133OSM    C7S14399   6.264   2.499   6.098 -0.1622  0.6749  0.1942
  133OSM    H7S14400   6.316   2.595   6.078  1.5422 -0.4025 -0.8356
  133OSM    H7T14401   6.158   2.518   6.074  0.1810 -0.1153 -2.2759
  133OSM    C8S14402   6.317   2.392   5.990 -0.1565 -0.4405 -0.6427
  133OSM    H8S14403   6.273   2.293   6.013  0.1118 -0.6546 -1.0479
  133OSM    H8T14404   6.426   2.370   5.991  0.0350  0.3145 -2.1838
  133OSM    C9S14405   6.276   2.424   5.846 -0.5639 -0.7060 -0.4127
  133OSM    H9S14406   6.340   2.513   5.825 -1.7373  1.0002  2.5989
  133OSM    H9T14407   6.168   2.450   5.844 -0.2301  0.8879  0.3152
  133OSM   C10S14408   6.314   2.310   5.750 -0.0463  0.5025 -0.1390
  133OSM   H10S14409   6.280   2.215   5.797  2.5286 -0.4156  0.0236
  133OSM   H10T14410   6.424   2.299   5.755 -0.0792 -1.1095 -1.9362
  133OSM   C11S14411   6.267   2.325   5.607 -0.3891  0.3446 -0.7016
  133OSM   H11S14412   6.307   2.413   5.552  2.2368 -0.5567 -0.3566
  133OSM   H11T14413   6.156   2.337   5.612 -0.4203 -0.2827  3.0373
  133OSM   C12S14414   6.283   2.199   5.526 -0.0315 -0.1422  0.3233
  133OSM   H12S14415   6.257   2.116   5.596 -0.7213 -0.0265  0.2022
  133OSM   H12T14416   6.394   2.194   5.519  0.0416  2.3355 -1.8456
  133OSM   C13S14417   6.214   2.186   5.390  0.4600 -0.9249  0.1231
  133OSM   H13S14418   6.256   2.269   5.328 -0.3292  1.8083  3.0010
  133OSM   H13T14419   6.104   2.200   5.395  0.6623  2.2351 -1.6698
  133OSM   C14S14420   6.235   2.054   5.312  0.1107 -0.5856 -0.3969
  133OSM   H14S14421   6.209   1.958   5.362  0.2208  0.0529  0.9355
  133OSM   H14T14422   6.341   2.047   5.281  0.1707  0.2243 -0.3953
  133OSM   C15S14423   6.163   2.058   5.172  0.3062 -0.2453 -0.1398
  133OSM   H15S14424   6.061   2.098   5.187 -0.1430 -1.1995 -0.5471
  133OSM   H15T14425   6.163   1.952   5.138  1.9762 -0.3506  0.1042
  133OSM   C16S14426   6.226   2.143   5.063 -0.0330 -0.1612 -0.8147
  133OSM   H16S14427   6.335   2.126   5.078 -0.3267 -2.0760 -0.5417
  133OSM   H16T14428   6.204   2.251   5.073  0.0527 -0.2996  1.5004
  133OSM   C17S14429   6.191   2.098   4.922 -0.5039 -0.3967 -0.0459
  133OSM   H17S14430   6.083   2.082   4.900 -0.8198  1.0265  0.3270
  133OSM   H17T14431   6.248   2.005   4.904  1.2782  0.8854 -1.5009
  133OSM   C18S14432   6.239   2.212   4.822  0.5048  0.7037  0.8189
  133OSM   H18S14433   6.346   2.237   4.803 -0.2305  2.4515 -1.3416
  133OSM   H18T14434   6.195   2.306   4.860 -1.5248 -0.4686  1.5312
  133OSM   H18U14435   6.199   2.175   4.725  3.0027  0.3101 -0.1380
  133OSM    C1F14436   6.286   3.028   6.341 -0.0239 -0.4579  0.7035
  133OSM     OF14437   6.342   3.114   6.417  0.6119 -0.4098  0.0800
  133OSM    C2F14438   6.274   3.046   6.192  0.1674  0.1385  0.8932
  133OSM    H2F14439   6.378   3.036   6.155 -1.0117 -0.3218 -2.6775
  133OSM    H2G14440   6.235   3.147   6.166  1.4467  0.7092  1.0993
  133OSM    C3F14441   6.190   2.941   6.110  0.1407 -1.1432 -0.5096
  133OSM    H3F14442   6.088   2.940   6.156  0.4697  3.0863  0.7006
  133OSM    H3G14443   6.227   2.837   6.120  0.2607 -1.1351 -0.8467
  133OSM    C4F14444   6.184   2.979   5.961 -0.3224 -0.5414  0.2765
  133OSM    H4F14445   6.185   3.090   5.962 -0.9892 -0.4999  2.7230
  133OSM    H4G14446   6.084   2.954   5.918 -1.3536  0.7867  1.7740
  133OSM    C5F14447   6.284   2.899   5.883 -0.3776 -0.4173  0.7902
  133OSM    H5F14448   6.270   2.789   5.877 -0.0034 -0.4019 -0.6667
  133OSM    H5G14449   6.381   2.897   5.938 -1.5108 -0.8208  2.9060
  133OSM    C6F14450   6.283   2.930   5.734  1.0021 -0.2144  0.0604
  133OSM    H6F14451   6.302   3.038   5.717  0.8104 -0.3268 -0.9470
  133OSM    H6G14452   6.178   2.921   5.699  1.1484 -1.1664 -0.1471
  133OSM    C7F14453   6.367   2.863   5.630 -0.0860 -0.5688  0.1723
  133OSM    H7F14454   6.356   2.912   5.530 -0.0650 -2.4100 -0.7732
  133OSM    H7G14455   6.338   2.757   5.620  0.0476 -0.4633 -1.6475
  133OSM    C8F14456   6.517   2.863   5.671  0.4671  0.6292 -0.3283
  133OSM    H8F14457   6.575   2.790   5.610  0.2875 -0.6297  0.9318
  133OSM    H8G14458   6.515   2.822   5.775  1.7644  3.6935  1.0076
  133OSM    C9F14459   6.584   3.005   5.674 -0.4647 -0.2219  0.2746
  133OSM    H9F14460   6.548   3.061   5.762 -0.4061 -1.2845  0.9919
  133OSM   C10F14461   6.682   3.047   5.589 -0.2056 -1.1674  0.8012
  133OSM   H10F14462   6.718   3.149   5.610 -2.2554 -0.1628 -0.2844
  133OSM   C11F14463   6.756   2.973   5.480  0.0060 -0.2838 -0.1807
  133OSM   H11F14464   6.750   3.038   5.391  0.9331 -0.4220 -0.3476
  133OSM   H11G14465   6.700   2.878   5.460  0.0268 -0.6614  1.3739
  133OSM   C12F14466   6.906   2.954   5.512  0.1248  0.5994 -0.1726
  133OSM   H12F14467   6.929   2.889   5.600  2.5613  1.5917 -0.0151
  133OSM   H12G14468   6.946   3.050   5.549 -0.6467  0.7140  0.3874
  133OSM   C13F14469   6.977   2.893   5.387 -0.2101 -0.7893 -0.4105
  133OSM   H13F14470   7.084   2.893   5.418 -0.0416  0.9630 -0.9116
  133OSM   H13G14471   6.967   2.969   5.307  3.0679 -1.6215 -1.7836
  133OSM   C14F14472   6.935   2.755   5.355 -0.2745  0.2567  0.4207
  133OSM   H14F14473   6.824   2.758   5.347 -0.4044  4.6260  1.0768
  133OSM   H14G14474   6.959   2.682   5.435 -0.0915  0.0036  0.1355
  133OSM   C15F14475   7.002   2.701   5.225  0.1792 -0.0476 -0.7266
  133OSM   H15F14476   6.956   2.602   5.203 -1.5948  0.3114  1.1787
  133OSM   H15G14477   7.110   2.679   5.240  0.0969  0.1100  0.1468
  133OSM   C16F14478   6.977   2.791   5.101  0.1134 -0.0093 -0.3570
  133OSM   H16F14479   7.020   2.889   5.133 -1.1125  0.3196  0.3345
  133OSM   H16G14480   6.868   2.811   5.090  0.6278  3.4345 -0.3943
  133OSM   C17F14481   7.035   2.729   4.974 -0.4766 -0.5237 -0.6453
  133OSM   H17F14482   6.994   2.627   4.958 -1.5369 -0.2595  0.2845
  133OSM   H17G14483   7.146   2.731   4.984 -0.3868  1.0056 -1.5528
  133OSM   C18F14484   7.007   2.805   4.849 -0.0179 -0.6688 -0.0282
  133OSM   H18F14485   7.047   2.755   4.759 -3.2809  1.2392 -2.7670
  133OSM   H18G14486   7.050   2.908   4.857 -1.1887 -0.1183 -0.5514
  133OSM   H18H14487   6.899   2.817   4.827  0.3424  1.6091 -0.9160
  134OSM      N14488   6.325   1.568   7.597  0.1219 -0.1636 -0.0411
  134OSM    C1514489   6.375   1.701   7.625 -0.5971 -0.0803 -0.1612
  134OSM   H15A14490   6.353   1.728   7.727  0.2208  0.4620 -0.1176
  134OSM   H15B14491   6.324   1.767   7.557 -1.4332 -1.6167 -1.0822
  134OSM   H15C14492   6.479   1.719   7.603 -0.8820  0.3013 -1.2937
  134OSM    C1414493   6.399   1.470   7.670 -0.1574  0.1108 -0.6757
  134OSM   H14A14494   6.385   1.477   7.777 -0.6375  0.9193 -0.7785
  134OSM   H14B14495   6.504   1.485   7.650  0.0240 -1.1183 -0.6976
  134OSM   H14C14496   6.373   1.367   7.650 -2.7634  0.1342  1.8565
  134OSM    C1314497   6.183   1.560   7.644 -0.7205 -0.8110  0.1647
  134OSM   H13A14498   6.168   1.589   7.747 -0.5372 -1.8749  0.5021
  134OSM   H13B14499   6.145   1.461   7.624 -0.7575 -0.6065 -0.8379
  134OSM   H13C14500   6.119   1.626   7.587 -1.1990 -0.2485  1.3180
  134OSM    C1214501   6.327   1.530   7.447  0.3295  0.0073 -0.3292
  134OSM   H12A14502   6.248   1.584   7.397 -1.8850  0.9488  3.6711
  134OSM   H12B14503   6.296   1.427   7.446 -1.7090  0.4627  2.3777
  134OSM    C1114504   6.454   1.551   7.367  0.0095 -0.0797 -0.2578
  134OSM   H11A14505   6.445   1.515   7.262  0.4175  0.8253 -0.6071
  134OSM   H11B14506   6.534   1.502   7.427 -0.8162 -1.0901  0.0695
  134OSM      P14507   6.383   1.784   7.287  0.3557 -0.0423  0.3631
  134OSM    O1314508   6.305   1.862   7.387  0.2906 -0.6647  0.0118
  134OSM    O1414509   6.464   1.868   7.194  0.2062  0.1585 -0.5827
  134OSM    O1114510   6.283   1.693   7.208 -0.7742  0.3242 -0.4223
  134OSM    O1214511   6.482   1.688   7.357 -0.1627 -0.2764  0.1356
  134OSM    C1S14512   6.160   1.745   7.156  0.6631 -0.6913  0.0322
  134OSM    H1S14513   6.164   1.856   7.152 -0.0747 -0.3474  4.2608
  134OSM    H1T14514   6.075   1.734   7.227 -1.3067 -1.0223 -2.2317
  134OSM     NF14515   5.988   1.754   6.976  0.4908  0.8607  0.2118
  134OSM    HNF14516   5.901   1.706   6.987  0.1077  1.4558 -0.1234
  134OSM    C2S14517   6.111   1.683   7.023  0.4597  0.6483  0.4325
  134OSM    H2S14518   6.189   1.700   6.945 -1.3298 -2.9658 -2.4938
  134OSM    C3S14519   6.088   1.530   7.031  0.0557  0.2244  0.6221
  134OSM    H3S14520   6.004   1.506   7.100  0.2118 -1.1863  0.3440
  134OSM     O314521   6.195   1.460   7.101  0.0278  0.2370  0.0267
  134OSM    HO314522   6.246   1.527   7.146 -1.2211  1.3390 -0.1505
  134OSM    C4S14523   6.074   1.473   6.892 -0.7697  0.2559  0.1492
  134OSM    H4S14524   6.165   1.480   6.830 -0.9865 -2.5601 -0.6156
  134OSM    C5S14525   5.967   1.414   6.839 -0.9850 -0.1350 -0.4511
  134OSM    H5S14526   5.881   1.393   6.906  1.1042  0.5781  2.6827
  134OSM    C6S14527   5.946   1.355   6.706 -0.5719 -0.1421  0.0013
  134OSM    H6S14528   5.951   1.244   6.700  0.2653 -0.0787 -0.5680
  134OSM    H6T14529   6.021   1.378   6.628 -1.1295  1.2549 -0.1635
  134OSM    C7S14530   5.809   1.398   6.645  0.0083 -0.7774  0.4135
  134OSM    H7S14531   5.801   1.509   6.636 -1.3272 -0.9112 -0.2928
  134OSM    H7T14532   5.729   1.376   6.720 -0.2037 -0.6228  0.2322
  134OSM    C8S14533   5.789   1.326   6.513  0.4514 -0.3733  0.1891
  134OSM    H8S14534   5.815   1.218   6.522  1.2722 -0.0561  1.9894
  134OSM    H8T14535   5.849   1.365   6.428  0.1326 -0.2530  0.0161
  134OSM    C9S14536   5.634   1.315   6.474 -0.1084 -0.2752  0.5570
  134OSM    H9S14537   5.593   1.416   6.455 -0.3643 -0.2744  1.1019
  134OSM    H9T14538   5.580   1.275   6.562  2.0654 -0.9197  1.6931
  134OSM   C10S14539   5.613   1.223   6.347  0.3154  0.0193  0.3700
  134OSM   H10S14540   5.506   1.199   6.328  0.3189  1.9148 -2.8805
  134OSM   H10T14541   5.674   1.130   6.355 -0.4905 -0.4777  0.8437
  134OSM   C11S14542   5.642   1.298   6.218  0.1425 -0.1217 -0.6525
  134OSM   H11S14543   5.745   1.339   6.227  0.7201 -1.3674 -1.3218
  134OSM   H11T14544   5.570   1.380   6.196 -0.2708 -0.7835 -1.9132
  134OSM   C12S14545   5.649   1.210   6.093  0.2568 -0.3172 -0.2641
  134OSM   H12S14546   5.545   1.173   6.077  0.4628 -1.2776  0.5012
  134OSM   H12T14547   5.708   1.120   6.123  1.6759  0.8651  0.5943
  134OSM   C13S14548   5.709   1.266   5.965 -0.0368 -0.2310 -0.5628
  134OSM   H13S14549   5.814   1.302   5.973 -0.5089  1.2286 -0.4732
  134OSM   H13T14550   5.664   1.365   5.939  3.8297  1.5167 -1.3909
  134OSM   C14S14551   5.692   1.175   5.845 -0.1442  0.8312 -0.0511
  134OSM   H14S14552   5.615   1.097   5.862  1.4745 -1.2679 -1.7233
  134OSM   H14T14553   5.782   1.110   5.842 -2.4414 -2.6467  0.0326
  134OSM   C15S14554   5.672   1.251   5.717  0.2397 -0.3209  0.2064
  134OSM   H15S14555   5.755   1.322   5.697 -0.9023  1.1314  0.3414
  134OSM   H15T14556   5.588   1.325   5.723  1.2314  0.9146 -0.5271
  134OSM   C16S14557   5.665   1.166   5.589  0.8306  0.3117  0.4189
  134OSM   H16S14558   5.569   1.110   5.576  0.6795  0.3734  1.2322
  134OSM   H16T14559   5.745   1.089   5.597 -0.1566 -0.8662 -0.5528
  134OSM   C17S14560   5.670   1.253   5.458  0.1373 -0.5757  0.4232
  134OSM   H17S14561   5.751   1.327   5.473 -0.6805  0.6584 -0.8801
  134OSM   H17T14562   5.584   1.322   5.443  0.1180 -0.3593  1.4378
  134OSM   C18S14563   5.661   1.170   5.332 -0.2406 -0.2862 -0.3860
  134OSM   H18S14564   5.735   1.088   5.321 -1.5823 -1.5430 -0.4364
  134OSM   H18T14565   5.676   1.240   5.247 -0.0402 -1.0480 -0.9904
  134OSM   H18U14566   5.563   1.118   5.337 -0.1268 -0.3794  2.5683
  134OSM    C1F14567   5.997   1.874   6.930 -0.3801  0.2187  0.8637
  134OSM     OF14568   6.111   1.924   6.925 -0.1831  0.5006  0.1290
  134OSM    C2F14569   5.874   1.942   6.879  0.1454 -0.2797  0.2702
  134OSM    H2F14570   5.839   2.022   6.948 -0.6836 -0.0237 -0.4271
  134OSM    H2G14571   5.798   1.862   6.871  0.1657 -0.4102  1.2862
  134OSM    C3F14572   5.895   2.010   6.744  0.4531 -1.2506  0.1175
  134OSM    H3F14573   5.961   2.099   6.756 -0.0493 -1.0586  1.8280
  134OSM    H3G14574   5.799   2.060   6.722  1.2594 -0.2557 -1.2686
  134OSM    C4F14575   5.934   1.917   6.619 -0.3689 -0.2748 -0.0352
  134OSM    H4F14576   6.022   1.854   6.644 -1.3934 -0.8687  2.3864
  134OSM    H4G14577   5.972   1.987   6.542  2.4223 -2.8883 -1.2223
  134OSM    C5F14578   5.816   1.829   6.576  0.2023 -0.0493 -0.4309
  134OSM    H5F14579   5.737   1.899   6.542 -1.1604 -1.4625 -0.2653
  134OSM    H5G14580   5.790   1.777   6.671  1.7452  1.9094  1.1679
  134OSM    C6F14581   5.843   1.725   6.468  0.2105 -0.2225  0.2999
  134OSM    H6F14582   5.743   1.683   6.445 -0.4442  0.9483  0.8870
  134OSM    H6G14583   5.921   1.651   6.496 -0.0587 -1.5347 -2.1767
  134OSM    C7F14584   5.870   1.798   6.332 -0.2374  0.0247 -0.4356
  134OSM    H7F14585   5.974   1.837   6.339 -0.0380 -0.4966 -0.4101
  134OSM    H7G14586   5.799   1.880   6.308 -0.5230 -0.5234 -1.5019
  134OSM    C8F14587   5.864   1.704   6.210  0.2774 -0.0835  0.1127
  134OSM    H8F14588   5.770   1.645   6.216  2.3246 -3.5030  0.8597
  134OSM    H8G14589   5.946   1.632   6.228  0.4307 -0.2838 -1.3216
  134OSM    C9F14590   5.886   1.790   6.094 -0.6830 -0.7628  0.8179
  134OSM    H9F14591   5.944   1.879   6.122 -2.1114  1.2629 -2.2384
  134OSM   C10F14592   5.820   1.775   5.980  0.3286 -0.0195  0.1426
  134OSM   H10F14593   5.857   1.839   5.899 -3.3866  1.2554 -0.7495
  134OSM   C11F14594   5.741   1.656   5.942 -0.3525 -0.1566  0.0948
  134OSM   H11F14595   5.633   1.674   5.923 -0.0323 -0.3972 -2.2377
  134OSM   H11G14596   5.751   1.567   6.007  1.0895 -0.4885 -0.5433
  134OSM   C12F14597   5.777   1.619   5.799  0.2389 -0.0090  0.1757
  134OSM   H12F14598   5.707   1.534   5.783 -0.6431 -0.0008  3.2551
  134OSM   H12G14599   5.872   1.562   5.792 -0.2755 -0.9718  0.7193
  134OSM   C13F14600   5.762   1.719   5.676  0.0536  0.8269  0.2461
  134OSM   H13F14601   5.838   1.799   5.685  0.3960  0.6175 -0.7022
  134OSM   H13G14602   5.664   1.771   5.686 -1.7151 -2.1725 -0.0779
  134OSM   C14F14603   5.783   1.659   5.541 -1.3095 -0.5641  0.5664
  134OSM   H14F14604   5.699   1.597   5.503  0.0737 -1.3235 -1.3608
  134OSM   H14G14605   5.862   1.582   5.527 -1.4382 -0.7470  0.8101
  134OSM   C15F14606   5.808   1.774   5.437  0.1979 -0.0037  0.0524
  134OSM   H15F14607   5.883   1.843   5.480 -1.1706 -0.0960  2.8473
  134OSM   H15G14608   5.715   1.835   5.428  0.0680 -0.4219 -1.8753
  134OSM   C16F14609   5.839   1.723   5.290  0.2956 -0.1331 -0.4176
  134OSM   H16F14610   5.868   1.813   5.232  0.1100 -0.0984 -0.4583
  134OSM   H16G14611   5.745   1.678   5.252  0.2994 -0.3814 -0.1349
  134OSM   C17F14612   5.947   1.619   5.274 -0.0420 -0.3351 -0.9680
  134OSM   H17F14613   5.963   1.593   5.167 -0.3569 -2.4567 -0.5529
  134OSM   H17G14614   5.908   1.523   5.316  0.4459 -0.1068  0.0346
  134OSM   C18F14615   6.083   1.669   5.317 -0.4212 -0.7151  0.1931
  134OSM   H18F14616   6.161   1.594   5.292 -0.4197  0.0556 -2.3537
  134OSM   H18G14617   6.095   1.684   5.426 -0.3427  1.4535 -0.0698
  134OSM   H18H14618   6.114   1.762   5.264 -0.9799  0.0687  1.2184
  135OSM      N14619   4.269   2.087   7.682  0.3865  0.6186  0.6961
  135OSM    C1514620   4.142   2.134   7.740 -0.2307 -0.1452  0.4317
  135OSM   H15A14621   4.093   2.191   7.663 -2.4254 -1.8427  0.4737
  135OSM   H15B14622   4.160   2.191   7.831  0.9571  0.2427 -0.0288
  135OSM   H15C14623   4.075   2.053   7.764 -0.1421 -0.2532  0.3086
  135OSM    C1414624   4.360   2.196   7.663  0.2344  0.1523 -0.7902
  135OSM   H14A14625   4.440   2.155   7.604 -0.0989 -1.5089 -0.1379
  135OSM   H14B14626   4.397   2.244   7.752 -0.6185 -2.1589  0.8856
  135OSM   H14C14627   4.312   2.279   7.612 -1.0966 -0.6024 -0.8162
  135OSM    C1314628   4.338   1.995   7.781  0.2928  0.6144 -0.0077
  135OSM   H13A14629   4.277   1.911   7.808 -0.0274  0.6942 -0.4677
  135OSM   H13B14630   4.356   2.048   7.874 -1.5983 -2.6012  2.3631
  135OSM   H13C14631   4.430   1.959   7.736  1.2769 -1.1558  3.1047
  135OSM    C1214632   4.252   2.009   7.550  0.3925 -1.3155 -0.6534
  135OSM   H12A14633   4.200   1.915   7.563 -3.3222  0.7337  1.0054
  135OSM   H12B14634   4.355   2.001   7.518  1.1042  2.1538  0.3263
  135OSM    C1114635   4.173   2.084   7.445  0.5586 -1.4668  0.3360
  135OSM   H11A14636   4.197   2.040   7.346  1.5401 -0.4886  0.1192
  135OSM   H11B14637   4.189   2.194   7.443 -2.1333 -0.9304  2.2365
  135OSM      P14638   3.955   1.935   7.447  0.0713 -0.0335  0.0502
  135OSM    O1314639   4.032   1.818   7.497  0.0757 -0.5353 -0.0259
  135OSM    O1414640   3.816   1.952   7.488 -0.1176  0.1808  0.0034
  135OSM    O1114641   3.949   1.935   7.289 -0.0406  0.2524 -0.0728
  135OSM    O1214642   4.036   2.070   7.472 -0.1607  0.1434  0.1685
  135OSM    C1S14643   3.932   2.058   7.214  0.0719 -0.4395  0.3721
  135OSM    H1S14644   4.029   2.112   7.227  0.9908 -2.0999  0.7045
  135OSM    H1T14645   3.847   2.118   7.251 -0.4995 -0.4168 -0.9078
  135OSM     NF14646   3.896   2.153   6.995  0.2584 -0.1420 -0.1290
  135OSM    HNF14647   3.806   2.195   6.982  0.2681 -0.1509 -0.2293
  135OSM    C2S14648   3.904   2.028   7.068  1.2346  0.2697 -0.8781
  135OSM    H2S14649   3.993   1.976   7.025  2.3550  1.4518 -0.0848
  135OSM    C3S14650   3.786   1.929   7.050  0.6133 -0.0922  0.5366
  135OSM    H3S14651   3.695   1.975   7.094 -0.5054 -1.4194 -0.2815
  135OSM     O314652   3.799   1.804   7.111 -0.5766  0.3571 -0.0396
  135OSM    HO314653   3.866   1.813   7.179 -0.1771  1.1990 -0.5172
  135OSM    C4S14654   3.768   1.918   6.901  0.6263 -0.7468 -0.0069
  135OSM    H4S14655   3.706   2.000   6.860  1.6322 -0.2667 -0.6022
  135OSM    C5S14656   3.814   1.831   6.811 -0.6132 -0.0420  0.1922
  135OSM    H5S14657   3.860   1.739   6.849 -2.4415 -1.1168 -0.0461
  135OSM    C6S14658   3.785   1.830   6.663 -0.4316  0.5894 -0.1912
  135OSM    H6S14659   3.718   1.743   6.645  0.6751 -0.3095 -0.0542
  135OSM    H6T14660   3.878   1.801   6.610 -0.2008  0.4490  0.2893
  135OSM    C7S14661   3.731   1.963   6.603 -0.2173 -0.0187 -0.1200
  135OSM    H7S14662   3.810   2.040   6.610 -0.4749  0.1986  0.4341
  135OSM    H7T14663   3.643   2.004   6.657  0.3449 -1.2178  1.7749
  135OSM    C8S14664   3.695   1.962   6.453  0.0980  0.3757 -0.4559
  135OSM    H8S14665   3.789   1.945   6.396  0.2253 -1.6503  0.2543
  135OSM    H8T14666   3.651   2.061   6.430 -0.9240 -0.2882 -1.4493
  135OSM    C9S14667   3.597   1.857   6.404  0.1617 -0.4743  0.3090
  135OSM    H9S14668   3.509   1.891   6.462  1.1141 -2.0445  2.8191
  135OSM    H9T14669   3.630   1.759   6.446  1.5909  0.7478  2.1890
  135OSM   C10S14670   3.569   1.856   6.251 -0.4709  0.0920 -0.0852
  135OSM   H10S14671   3.667   1.862   6.198 -0.9527 -0.8369 -1.1127
  135OSM   H10T14672   3.495   1.936   6.229 -2.0074 -1.0954  0.5983
  135OSM   C11S14673   3.512   1.729   6.205 -0.2640  0.3053  0.7928
  135OSM   H11S14674   3.416   1.717   6.261 -1.9668  2.6334 -1.4312
  135OSM   H11T14675   3.574   1.640   6.229 -1.3345 -0.6974 -0.0481
  135OSM   C12S14676   3.488   1.718   6.056  0.2765  0.6681  0.3727
  135OSM   H12S14677   3.571   1.780   6.017  0.0434  0.0196 -1.2021
  135OSM   H12T14678   3.400   1.776   6.021  1.4338  2.6779  0.6330
  135OSM   C13S14679   3.479   1.576   6.017 -0.3204 -0.3713 -0.1265
  135OSM   H13S14680   3.371   1.554   6.030 -0.4343  0.2591  0.0183
  135OSM   H13T14681   3.537   1.513   6.086 -1.3107 -1.6267 -0.4012
  135OSM   C14S14682   3.523   1.554   5.871  0.6435  0.2873 -0.1461
  135OSM   H14S14683   3.510   1.445   5.856 -3.6874  0.5327  0.5358
  135OSM   H14T14684   3.626   1.593   5.854 -0.1035  2.5537  0.1784
  135OSM   C15S14685   3.429   1.620   5.776 -0.4072  0.5984  0.3647
  135OSM   H15S14686   3.480   1.718   5.765  1.0018 -0.2366 -1.0007
  135OSM   H15T14687   3.323   1.637   5.806  0.4155  3.5962  1.9014
  135OSM   C16S14688   3.434   1.562   5.631  0.4820 -0.1078 -0.7780
  135OSM   H16S14689   3.380   1.465   5.629  0.5468 -0.1818  0.3739
  135OSM   H16T14690   3.540   1.544   5.602  0.1545 -0.3404 -1.9017
  135OSM   C17S14691   3.365   1.647   5.526 -0.4017 -0.1153  0.0489
  135OSM   H17S14692   3.369   1.597   5.427 -0.1451  2.3784 -1.2635
  135OSM   H17T14693   3.411   1.748   5.520 -0.7691 -0.0207 -1.6109
  135OSM   C18S14694   3.216   1.676   5.532  0.1887 -0.1249 -0.4704
  135OSM   H18S14695   3.194   1.763   5.466  3.3471  0.2063 -1.2518
  135OSM   H18T14696   3.185   1.710   5.633 -0.0552  2.0273 -1.2102
  135OSM   H18U14697   3.154   1.589   5.502  0.6887 -1.0133  0.9753
  135OSM    C1F14698   3.998   2.235   6.955 -0.3378 -0.2505  0.3061
  135OSM     OF14699   4.114   2.205   6.987  0.0614 -0.1781 -0.2072
  135OSM    C2F14700   3.970   2.350   6.870 -0.6153 -0.5222 -0.0429
  135OSM    H2F14701   4.001   2.439   6.929  0.4588 -1.0129  0.1631
  135OSM    H2G14702   3.859   2.348   6.862 -0.6266  0.9368 -0.5422
  135OSM    C3F14703   4.051   2.349   6.741  0.6226 -0.0508 -0.0002
  135OSM    H3F14704   4.160   2.333   6.755  0.1737 -2.2074  1.6766
  135OSM    H3G14705   4.032   2.449   6.698 -2.8938 -0.4611  0.3369
  135OSM    C4F14706   3.992   2.251   6.642 -0.3981 -0.5942 -0.0594
  135OSM    H4F14707   4.028   2.147   6.660  1.8380  0.4931  2.4048
  135OSM    H4G14708   3.884   2.229   6.649 -0.8759  1.9081  1.9705
  135OSM    C5F14709   4.029   2.295   6.499  0.1554 -0.3068 -0.5772
  135OSM    H5F14710   4.140   2.291   6.495  0.1768 -0.0408 -0.2818
  135OSM    H5G14711   3.980   2.394   6.487 -2.4840 -1.5899 -1.0688
  135OSM    C6F14712   3.962   2.205   6.397  0.2235  0.7559 -0.1239
  135OSM    H6F14713   3.863   2.250   6.375 -0.0858 -0.3723 -1.1604
  135OSM    H6G14714   3.958   2.101   6.437 -3.3502  0.3938 -1.1364
  135OSM    C7F14715   4.038   2.211   6.266 -0.0512  0.1269  0.6327
  135OSM    H7F14716   4.122   2.139   6.271  1.1315  1.3576 -0.6942
  135OSM    H7G14717   4.091   2.308   6.268 -0.6212  0.4357  1.0847
  135OSM    C8F14718   3.950   2.196   6.137 -0.2552  0.8693 -0.5059
  135OSM    H8F14719   3.864   2.266   6.146 -1.3611 -0.5974  1.1157
  135OSM    H8G14720   3.914   2.091   6.131 -1.0323  0.9451  1.7105
  135OSM    C9F14721   4.031   2.232   6.014 -0.2228 -0.3904  0.2252
  135OSM    H9F14722   4.124   2.285   6.038  0.0365  0.1369 -1.7301
  135OSM   C10F14723   3.993   2.200   5.890  0.2521  0.3010  0.3947
  135OSM   H10F14724   4.051   2.236   5.804  2.2437 -1.9754  0.6992
  135OSM   C11F14725   3.860   2.123   5.859  0.6930  0.3390 -0.3075
  135OSM   H11F14726   3.820   2.188   5.778  1.1236  0.0905 -0.7284
  135OSM   H11G14727   3.799   2.128   5.951  1.2243 -1.2268  0.1598
  135OSM   C12F14728   3.858   1.976   5.803  0.3815  0.2455 -0.1684
  135OSM   H12F14729   3.938   1.977   5.726 -1.0146 -1.0629 -1.7158
  135OSM   H12G14730   3.764   1.959   5.746  0.6010  1.4065 -0.9180
  135OSM   C13F14731   3.878   1.882   5.918  0.1913  0.2378 -0.1595
  135OSM   H13F14732   3.791   1.891   5.986 -1.2497 -2.3981 -1.5091
  135OSM   H13G14733   3.960   1.910   5.987  1.5364 -2.5014 -0.5029
  135OSM   C14F14734   3.922   1.738   5.880 -0.4123  0.0115 -0.2693
  135OSM   H14F14735   4.029   1.747   5.849 -0.2364 -0.3171  0.2387
  135OSM   H14G14736   3.875   1.701   5.785 -1.1770  0.0837  0.0736
  135OSM   C15F14737   3.905   1.626   5.985  0.2508 -0.7743  0.2613
  135OSM   H15F14738   3.917   1.524   5.942  0.2993 -1.4827  1.9023
  135OSM   H15G14739   3.798   1.643   6.008  0.8238  0.1373  2.4968
  135OSM   C16F14740   3.985   1.638   6.110  0.5887  0.1174 -0.5670
  135OSM   H16F14741   4.042   1.733   6.114  1.0736 -0.1446 -1.1280
  135OSM   H16G14742   4.052   1.550   6.117 -0.4817 -0.5883  2.3083
  135OSM   C17F14743   3.899   1.642   6.238 -0.0019  0.1015 -0.1757
  135OSM   H17F14744   3.830   1.556   6.249  0.1539  0.1601  1.5018
  135OSM   H17G14745   3.835   1.733   6.233  1.0243  0.8749  0.3000
  135OSM   C18F14746   3.967   1.673   6.370 -0.1065 -0.3717  0.9034
  135OSM   H18F14747   4.023   1.768   6.363  0.1436 -0.4861  1.3205
  135OSM   H18G14748   4.035   1.588   6.394  0.2238 -0.7714 -1.2503
  135OSM   H18H14749   3.886   1.681   6.446  0.2742 -0.1388  1.2921
  136OSM      N14750   1.165   5.981   6.941  0.0157  0.2528  0.0495
  136OSM    C1514751   1.154   5.893   6.814 -0.4137 -0.2003 -0.2158
  136OSM   H15A14752   1.141   5.786   6.828 -1.2033  0.0232  0.9257
  136OSM   H15B14753   1.241   5.905   6.752  0.3486  0.1539  0.8966
  136OSM   H15C14754   1.078   5.939   6.752  0.1064  0.6266 -0.2482
  136OSM    C1414755   1.173   6.126   6.906 -0.5916  0.6625  0.8194
  136OSM   H14A14756   1.271   6.149   6.866 -0.4322 -1.7484 -0.3565
  136OSM   H14B14757   1.186   6.177   7.000  2.3818 -2.0054  2.0362
  136OSM   H14C14758   1.096   6.163   6.840 -1.0033 -1.2876  0.1625
  136OSM    C1314759   1.037   5.958   7.007 -0.2108  0.7679  0.4534
  136OSM   H13A14760   1.036   6.009   7.103 -2.1579 -0.4614  1.1447
  136OSM   H13B14761   1.022   5.856   7.039 -1.0841  0.9105  0.5343
  136OSM   H13C14762   0.956   5.987   6.942  1.6587  2.2846 -1.3607
  136OSM    C1214763   1.275   5.929   7.033 -0.7401 -0.6555  0.3478
  136OSM   H12A14764   1.368   5.937   6.978 -1.1519 -0.7483 -0.3758
  136OSM   H12B14765   1.270   5.824   7.055  0.8324 -0.9130 -0.3193
  136OSM    C1114766   1.285   6.001   7.176  0.1148 -0.3259 -0.2585
  136OSM   H11A14767   1.363   5.948   7.234  0.7460  0.9225  0.0821
  136OSM   H11B14768   1.186   5.981   7.223 -0.4171 -1.2164 -1.6759
  136OSM      P14769   1.466   6.181   7.142 -0.3478 -0.0050  0.2785
  136OSM    O1314770   1.520   6.243   7.261 -0.6711 -0.0247 -0.4972
  136OSM    O1414771   1.530   6.057   7.090 -0.0480 -0.2707  0.3705
  136OSM    O1114772   1.468   6.294   7.031  0.5162 -0.5602 -0.2417
  136OSM    O1214773   1.311   6.144   7.157 -0.0421  0.7891 -0.2421
  136OSM    C1S14774   1.539   6.286   6.904  0.1060  0.7973 -0.6526
  136OSM    H1S14775   1.551   6.176   6.889 -0.3761  0.7372 -0.6248
  136OSM    H1T14776   1.645   6.317   6.905  1.5882 -2.9429 -5.4880
  136OSM     NF14777   1.497   6.338   6.653 -0.2717  0.7194 -0.4441
  136OSM    HNF14778   1.568   6.396   6.614  0.0208  1.1230  0.6625
  136OSM    C2S14779   1.459   6.362   6.795 -0.1989 -0.1405  1.0748
  136OSM    H2S14780   1.353   6.336   6.813  0.1018 -1.7707  0.6242
  136OSM    C3S14781   1.465   6.516   6.831  0.2075 -0.1030  0.6985
  136OSM    H3S14782   1.572   6.544   6.825 -0.9813  5.0893 -0.3528
  136OSM     O314783   1.423   6.548   6.963  0.0877 -0.3195  0.0118
  136OSM    HO314784   1.453   6.481   7.025  1.4207  1.5823  1.5756
  136OSM    C4S14785   1.394   6.599   6.732 -0.3390  0.3438 -0.1913
  136OSM    H4S14786   1.462   6.677   6.695  0.6682 -0.3217  0.2144
  136OSM    C5S14787   1.259   6.600   6.715 -0.1116  0.0488 -0.6431
  136OSM    H5S14788   1.202   6.546   6.791  0.8513  2.5197  2.0391
  136OSM    C6S14789   1.180   6.693   6.630 -0.3716  0.4917  0.0136
  136OSM    H6S14790   1.110   6.754   6.692  0.4691 -0.0346  1.5220
  136OSM    H6T14791   1.108   6.633   6.569 -0.2380 -0.6987  0.9865
  136OSM    C7S14792   1.256   6.790   6.534  0.1397 -0.2555  0.3161
  136OSM    H7S14793   1.335   6.745   6.470  0.5152  2.1660 -1.0531
  136OSM    H7T14794   1.318   6.856   6.598  0.4488 -2.1795  2.0930
  136OSM    C8S14795   1.172   6.875   6.440 -0.3533  0.6513  0.7895
  136OSM    H8S14796   1.124   6.951   6.504  0.1732  1.8996 -0.2474
  136OSM    H8T14797   1.096   6.803   6.401  3.0998 -3.3191  0.6486
  136OSM    C9S14798   1.248   6.941   6.321 -0.1521 -0.0320  0.2361
  136OSM    H9S14799   1.171   6.960   6.244 -0.6367  0.1437  0.7624
  136OSM    H9T14800   1.329   6.873   6.288  2.3198  2.4176  0.8199
  136OSM   C10S14801   1.331   7.061   6.378 -0.0772  0.3578 -0.1583
  136OSM   H10S14802   1.400   7.038   6.462 -0.1972 -0.5430 -0.2995
  136OSM   H10T14803   1.259   7.135   6.420 -0.0591  0.6562 -0.6448
  136OSM   C11S14804   1.427   7.110   6.270  0.4820  1.1190 -0.2004
  136OSM   H11S14805   1.497   7.034   6.230  1.7778  2.1649  0.0315
  136OSM   H11T14806   1.490   7.186   6.320 -0.5669  0.0906  2.9523
  136OSM   C12S14807   1.348   7.165   6.151 -0.2018 -0.0666  0.7838
  136OSM   H12S14808   1.280   7.236   6.202  0.3434  1.0844 -0.0551
  136OSM   H12T14809   1.288   7.089   6.097  0.9090 -0.1573 -0.3723
  136OSM   C13S14810   1.437   7.247   6.053 -0.7106  0.1216 -0.3207
  136OSM   H13S14811   1.535   7.196   6.050 -0.8252 -0.2292  1.0817
  136OSM   H13T14812   1.469   7.345   6.092  2.2959 -0.5068 -0.9757
  136OSM   C14S14813   1.368   7.250   5.916 -0.4614  0.0766 -0.3407
  136OSM   H14S14814   1.275   7.310   5.921  0.1126  0.9439  0.4076
  136OSM   H14T14815   1.354   7.144   5.884  1.0393  0.4835 -2.5775
  136OSM   C15S14816   1.454   7.326   5.812 -0.3280  0.1407  0.3494
  136OSM   H15S14817   1.542   7.263   5.790 -1.7648 -1.1456 -2.1437
  136OSM   H15T14818   1.483   7.428   5.846  0.3463  0.5913 -1.4476
  136OSM   C16S14819   1.403   7.357   5.674  0.0431  0.9766 -0.0021
  136OSM   H16S14820   1.295   7.382   5.668 -0.6903 -2.0187 -0.8594
  136OSM   H16T14821   1.419   7.268   5.610  0.5890  0.1018  1.3006
  136OSM   C17S14822   1.482   7.475   5.610 -0.4797 -0.1947  0.4780
  136OSM   H17S14823   1.586   7.445   5.585 -0.9793  0.1710 -2.4717
  136OSM   H17T14824   1.496   7.562   5.678  1.9472 -1.2091  1.4091
  136OSM   C18S14825   1.415   7.522   5.474  0.1913  0.1588 -0.3700
  136OSM   H18S14826   1.432   7.449   5.392  0.1876  0.5015 -0.6777
  136OSM   H18T14827   1.460   7.622   5.457  3.6101 -1.2165 -0.2600
  136OSM   H18U14828   1.305   7.533   5.487 -0.3215  1.4132 -4.5029
  136OSM    C1F14829   1.485   6.224   6.599  0.3571  0.4118 -0.5192
  136OSM     OF14830   1.409   6.138   6.645 -0.0527  0.0557 -0.0831
  136OSM    C2F14831   1.563   6.206   6.474  0.1553 -0.1250  0.0967
  136OSM    H2F14832   1.670   6.230   6.485  0.3486 -0.5892 -0.6565
  136OSM    H2G14833   1.509   6.265   6.396  0.8452  0.8423  0.3408
  136OSM    C3F14834   1.553   6.057   6.423  0.0094 -0.1643 -1.4058
  136OSM    H3F14835   1.448   6.022   6.429 -0.5889  1.7454  2.1623
  136OSM    H3G14836   1.614   5.998   6.495  0.3835  0.8070 -0.9036
  136OSM    C4F14837   1.585   6.037   6.272  0.5607  0.0244 -1.1252
  136OSM    H4F14838   1.589   5.928   6.253  2.2916  0.0022 -0.8704
  136OSM    H4G14839   1.685   6.079   6.245  0.1125  1.1644 -1.0608
  136OSM    C5F14840   1.485   6.096   6.175  0.4148 -0.1685  0.5633
  136OSM    H5F14841   1.494   6.206   6.167 -2.4744  0.0421 -1.5551
  136OSM    H5G14842   1.381   6.068   6.203  0.0628  2.1203  1.7748
  136OSM    C6F14843   1.519   6.051   6.028  0.2952  0.0385  0.8562
  136OSM    H6F14844   1.504   5.945   5.999  0.2289  0.3355 -0.2166
  136OSM    H6G14845   1.630   6.061   6.018  0.1869  1.5113  0.9947
  136OSM    C7F14846   1.449   6.137   5.926 -0.0899  0.4564 -0.1168
  136OSM    H7F14847   1.511   6.229   5.929  0.4379  0.1071 -0.0619
  136OSM    H7G14848   1.350   6.165   5.967  0.4592  2.3880 -0.0033
  136OSM    C8F14849   1.450   6.066   5.788  0.2681 -0.3577 -0.5391
  136OSM    H8F14850   1.397   6.119   5.707 -1.8896 -1.6971 -0.1092
  136OSM    H8G14851   1.396   5.973   5.818  1.6810 -0.6964  1.1408
  136OSM    C9F14852   1.591   6.037   5.740  0.4787  0.2655  0.0585
  136OSM    H9F14853   1.647   5.957   5.791  1.6432 -0.2063 -1.8208
  136OSM   C10F14854   1.656   6.085   5.629  0.4139  0.7882  0.1875
  136OSM   H10F14855   1.751   6.037   5.601  0.4855  0.6949  0.5880
  136OSM   C11F14856   1.604   6.190   5.538  0.1313  0.2826 -0.4820
  136OSM   H11F14857   1.696   6.242   5.503  1.8925  0.3040  3.5962
  136OSM   H11G14858   1.541   6.262   5.595  0.8556  2.1028 -1.8869
  136OSM   C12F14859   1.527   6.137   5.423  0.2180 -0.3973  0.6942
  136OSM   H12F14860   1.431   6.091   5.453 -0.9275  0.0074 -2.0794
  136OSM   H12G14861   1.586   6.058   5.372  0.6014  0.2318  0.1471
  136OSM   C13F14862   1.499   6.245   5.320 -0.7043  0.3629 -0.2536
  136OSM   H13F14863   1.594   6.294   5.290 -0.8864  1.3528  0.6888
  136OSM   H13G14864   1.454   6.331   5.377 -0.0957  0.8825 -0.5495
  136OSM   C14F14865   1.416   6.195   5.200 -0.0555 -0.4871 -0.4031
  136OSM   H14F14866   1.307   6.182   5.221 -0.2596 -0.7088 -1.5060
  136OSM   H14G14867   1.446   6.096   5.160 -0.1449 -0.1173 -1.4334
  136OSM   C15F14868   1.432   6.293   5.077  0.6771  0.0489 -0.6921
  136OSM   H15F14869   1.514   6.246   5.017 -0.5815 -1.5520 -1.2346
  136OSM   H15G14870   1.466   6.392   5.114  2.0284 -0.5693 -0.1993
  136OSM   C16F14871   1.309   6.303   4.988 -0.4432  0.8685  0.1090
  136OSM   H16F14872   1.345   6.357   4.897  3.5973 -3.0842 -1.0162
  136OSM   H16G14873   1.226   6.364   5.029 -2.5287 -0.7724 -1.4597
  136OSM   C17F14874   1.255   6.169   4.953 -0.3731  0.0693  0.3441
  136OSM   H17F14875   1.209   6.122   5.042  0.5273 -2.5001 -0.4567
  136OSM   H17G14876   1.323   6.088   4.918 -1.7906 -0.1119 -2.2711
  136OSM   C18F14877   1.151   6.178   4.841  0.9347  1.0816  0.2240
  136OSM   H18F14878   1.067   6.247   4.863 -0.6051  0.1610 -2.3406
  136OSM   H18G14879   1.093   6.086   4.819 -1.0722  2.8564 -2.4656
  136OSM   H18H14880   1.205   6.195   4.746  1.0518  1.2487  0.3212
  137OSM      N14881   3.365   0.881   7.522 -0.1836 -0.2007  0.4231
  137OSM    C1514882   3.484   0.793   7.545  0.0238 -0.2903  0.0302
  137OSM   H15A14883   3.574   0.852   7.550 -1.4627  2.1243  0.0509
  137OSM   H15B14884   3.498   0.739   7.453  0.3801 -1.3418  0.6843
  137OSM   H15C14885   3.464   0.728   7.629 -0.1712 -0.2644  0.0048
  137OSM    C1414886   3.253   0.807   7.483 -0.2388 -0.0642  0.0978
  137OSM   H14A14887   3.175   0.878   7.463  0.8502  0.7171 -1.6505
  137OSM   H14B14888   3.215   0.742   7.560  1.2566  0.1460  1.0579
  137OSM   H14C14889   3.280   0.751   7.395  1.6399  0.4451  0.3064
  137OSM    C1314890   3.336   0.960   7.652 -0.3539 -0.5053 -0.2305
  137OSM   H13A14891   3.239   1.005   7.636 -0.2313  0.2217  1.0287
  137OSM   H13B14892   3.414   1.030   7.674  0.3918 -1.3164 -0.2276
  137OSM   H13C14893   3.323   0.884   7.728  1.7901 -0.0459  0.6316
  137OSM    C1214894   3.400   0.989   7.420  1.2597 -0.0923  0.6616
  137OSM   H12A14895   3.485   1.048   7.452  1.8557 -0.1729 -0.6887
  137OSM   H12B14896   3.315   1.056   7.418  0.9870 -0.4569 -0.2053
  137OSM    C1114897   3.420   0.940   7.276  0.5419 -0.2659  0.1791
  137OSM   H11A14898   3.418   1.024   7.204  0.6266 -0.8934 -0.5701
  137OSM   H11B14899   3.327   0.887   7.249  0.3456  0.1081  0.1235
  137OSM      P14900   3.666   0.912   7.264  0.1037  0.1784 -0.0318
  137OSM    O1314901   3.686   1.006   7.378  0.6911  0.1193  0.0635
  137OSM    O1414902   3.770   0.806   7.262  0.2767 -1.4186  0.3189
  137OSM    O1114903   3.664   0.984   7.121 -0.0416 -0.8526  0.3251
  137OSM    O1214904   3.524   0.846   7.258 -0.0199 -0.3437 -0.1532
  137OSM    C1S14905   3.623   0.922   7.003 -0.7343 -0.3175  1.1406
  137OSM    H1S14906   3.518   0.952   6.980 -1.9800 -2.8159  3.1584
  137OSM    H1T14907   3.637   0.812   7.008  2.8234 -0.1134 -0.9938
  137OSM     NF14908   3.643   0.945   6.755 -0.2413  0.8349  0.3233
  137OSM    HNF14909   3.689   0.868   6.712  0.6923  1.3199  0.4417
  137OSM    C2S14910   3.699   0.985   6.884  0.1999  0.0672  0.3292
  137OSM    H2S14911   3.689   1.095   6.891  0.9119  0.2205 -0.7627
  137OSM    C3S14912   3.855   0.948   6.907 -0.3763 -0.6988  0.4704
  137OSM    H3S14913   3.870   0.838   6.907  2.3469 -0.4142 -0.2275
  137OSM     O314914   3.917   1.004   7.025 -0.0482 -0.0380 -0.3882
  137OSM    HO314915   3.843   1.017   7.084 -0.4256  3.5501 -1.4415
  137OSM    C4S14916   3.934   1.006   6.789  0.3015 -0.8544 -0.2847
  137OSM    H4S14917   3.952   1.114   6.781 -0.7706 -0.7572 -1.5302
  137OSM    C5S14918   4.009   0.927   6.708 -0.1968 -0.1228  0.4267
  137OSM    H5S14919   4.013   0.819   6.729  0.0588 -0.0027  1.0246
  137OSM    C6S14920   4.111   0.959   6.596  0.4407  0.0322 -1.0149
  137OSM    H6S14921   4.214   0.930   6.624 -0.2002 -0.8989  0.4970
  137OSM    H6T14922   4.111   1.070   6.586  1.5802  0.1619  0.1940
  137OSM    C7S14923   4.059   0.910   6.457  0.5495 -0.0537  0.3752
  137OSM    H7S14924   3.951   0.932   6.447  0.6253  0.3121  0.3557
  137OSM    H7T14925   4.067   0.799   6.455 -0.4623 -0.1446 -1.8646
  137OSM    C8S14926   4.129   0.950   6.327 -0.0743  0.1943  0.3235
  137OSM    H8S14927   4.095   0.878   6.249  0.7930  0.6396 -0.4860
  137OSM    H8T14928   4.239   0.932   6.325 -0.1460 -0.2919 -1.8895
  137OSM    C9S14929   4.102   1.094   6.270  0.4566  0.5112 -0.5331
  137OSM    H9S14930   4.143   1.174   6.335  1.6298  1.6855 -2.5951
  137OSM    H9T14931   3.994   1.113   6.255  0.0217  0.1213  1.8376
  137OSM   C10S14932   4.159   1.107   6.128  0.3102 -0.0041 -0.1035
  137OSM   H10S14933   4.103   1.052   6.050 -0.9375 -0.8856  1.3737
  137OSM   H10T14934   4.255   1.051   6.125 -0.0185 -0.6181  0.4865
  137OSM   C11S14935   4.199   1.248   6.082 -0.3176 -0.1510  0.7525
  137OSM   H11S14936   4.271   1.305   6.146  0.0392 -1.4274  1.5257
  137OSM   H11T14937   4.101   1.300   6.087 -0.1931  0.3538 -1.4335
  137OSM   C12S14938   4.249   1.251   5.935  0.0518  0.3710  0.6067
  137OSM   H12S14939   4.183   1.186   5.874  2.0835 -1.9831  0.8004
  137OSM   H12T14940   4.353   1.213   5.936  0.8065  2.2920  1.4976
  137OSM   C13S14941   4.272   1.392   5.873 -0.4446  0.1037  0.4082
  137OSM   H13S14942   4.356   1.441   5.927  0.4986 -0.0779 -0.8482
  137OSM   H13T14943   4.184   1.460   5.875  0.8823  1.8665  1.7688
  137OSM   C14S14944   4.321   1.382   5.725  0.6580  1.0002 -0.6264
  137OSM   H14S14945   4.422   1.336   5.737  0.0236  0.2239  3.0495
  137OSM   H14T14946   4.320   1.488   5.692  1.1170  2.2473  2.9096
  137OSM   C15S14947   4.227   1.297   5.638  0.6825  0.3686  0.3328
  137OSM   H15S14948   4.124   1.337   5.654  1.4823  2.2149  1.2040
  137OSM   H15T14949   4.228   1.188   5.658  3.1128  0.0863 -0.9298
  137OSM   C16S14950   4.256   1.332   5.495 -0.3187  0.0517  1.2087
  137OSM   H16S14951   4.303   1.243   5.448 -1.4504 -0.3640  0.8440
  137OSM   H16T14952   4.323   1.419   5.475  0.7469 -0.9016  0.5517
  137OSM   C17S14953   4.129   1.372   5.413 -0.4449 -0.5537 -0.1740
  137OSM   H17S14954   4.072   1.447   5.472  1.2191  0.3671  0.3189
  137OSM   H17T14955   4.057   1.288   5.408  0.4962 -1.3291 -0.8146
  137OSM   C18S14956   4.150   1.404   5.262  0.1931 -0.3334 -1.0781
  137OSM   H18S14957   4.197   1.505   5.257 -1.5947  0.6435  0.3058
  137OSM   H18T14958   4.048   1.417   5.219 -0.6194 -2.8596 -0.1054
  137OSM   H18U14959   4.206   1.325   5.210 -0.3628 -1.3445 -0.1877
  137OSM    C1F14960   3.522   0.983   6.724 -0.3541 -0.2757 -0.2422
  137OSM     OF14961   3.468   1.076   6.784  0.4857  0.1464 -0.1486
  137OSM    C2F14962   3.457   0.908   6.614 -0.0079 -0.1258 -0.5663
  137OSM    H2F14963   3.402   0.816   6.644  2.6093 -2.0072 -1.2747
  137OSM    H2G14964   3.530   0.870   6.539  0.6897  1.6704 -0.8360
  137OSM    C3F14965   3.348   1.000   6.553  0.1001  0.6366  0.2537
  137OSM    H3F14966   3.382   1.104   6.533  1.5078  0.6679  2.4880
  137OSM    H3G14967   3.267   1.022   6.626 -0.6705  0.0402 -0.3999
  137OSM    C4F14968   3.287   0.947   6.422  0.4263 -0.0378 -0.6881
  137OSM    H4F14969   3.183   0.983   6.406  0.3717  1.1412  1.8715
  137OSM    H4G14970   3.281   0.838   6.447 -2.4160  0.4136  1.1288
  137OSM    C5F14971   3.375   0.974   6.297 -0.0412 -0.4258 -0.2823
  137OSM    H5F14972   3.455   0.899   6.307  0.2009 -0.1087  0.1873
  137OSM    H5G14973   3.403   1.082   6.295 -3.6223  0.6706 -2.4584
  137OSM    C6F14974   3.299   0.937   6.171 -0.3782 -0.9781  0.5875
  137OSM    H6F14975   3.208   1.001   6.172 -0.9075 -1.6077 -1.6927
  137OSM    H6G14976   3.274   0.829   6.163  3.3531 -1.8517 -1.2037
  137OSM    C7F14977   3.383   0.964   6.043 -1.2486 -0.4902  0.1778
  137OSM    H7F14978   3.480   0.918   6.071 -0.9194 -0.9194 -1.5599
  137OSM    H7G14979   3.401   1.074   6.040  0.6063 -0.7196  1.3705
  137OSM    C8F14980   3.322   0.900   5.919  0.2879 -0.4952  0.9813
  137OSM    H8F14981   3.241   0.962   5.874  2.4924  2.7370  1.1149
  137OSM    H8G14982   3.275   0.806   5.954 -0.3958 -0.6668 -0.3265
  137OSM    C9F14983   3.432   0.873   5.820 -0.2525 -0.0943  0.1290
  137OSM    H9F14984   3.479   0.774   5.823  0.2464  0.1555  0.5108
  137OSM   C10F14985   3.467   0.959   5.724 -0.2314 -0.4315 -0.3738
  137OSM   H10F14986   3.556   0.940   5.662  1.9078  2.7740  1.4275
  137OSM   C11F14987   3.411   1.092   5.696  0.3020 -0.0884  0.4063
  137OSM   H11F14988   3.490   1.170   5.704 -2.1801  2.4486  1.8206
  137OSM   H11G14989   3.329   1.115   5.767  0.2438 -0.4070  0.4448
  137OSM   C12F14990   3.333   1.088   5.558 -0.0236 -0.4446 -0.3923
  137OSM   H12F14991   3.300   1.193   5.543  2.4088  0.6366  1.1200
  137OSM   H12G14992   3.267   0.999   5.552  1.4205 -1.4923 -1.9183
  137OSM   C13F14993   3.429   1.070   5.442 -0.4755  0.2369  0.2030
  137OSM   H13F14994   3.395   0.976   5.394 -2.9991  1.5135 -0.7127
  137OSM   H13G14995   3.533   1.055   5.478  0.1380 -1.8600 -2.1768
  137OSM   C14F14996   3.428   1.180   5.332  0.3592  0.2298 -0.2995
  137OSM   H14F14997   3.325   1.223   5.328 -0.2782 -1.0670  1.0996
  137OSM   H14G14998   3.448   1.120   5.241 -1.9365 -1.8922  0.4872
  137OSM   C15F14999   3.528   1.291   5.339 -0.4991  0.0649  0.0685
  137OSM   H15F15000   3.632   1.251   5.336  1.3845  4.3953 -1.0833
  137OSM   H15G15001   3.515   1.343   5.436 -1.3298  0.8600 -0.4539
  137OSM   C16F15002   3.506   1.395   5.224  0.2317  0.6447 -0.1460
  137OSM   H16F15003   3.412   1.452   5.242  0.7991  1.6953 -0.4777
  137OSM   H16G15004   3.493   1.345   5.125  2.2900  0.1402 -0.2017
  137OSM   C17F15005   3.622   1.506   5.215  0.2232  0.0180  0.2503
  137OSM   H17F15006   3.571   1.600   5.184 -0.5740 -1.1308 -2.1587
  137OSM   H17G15007   3.678   1.476   5.124 -0.5311  1.0361 -0.5663
  137OSM   C18F15008   3.704   1.523   5.344  0.7305  0.1988 -0.1813
  137OSM   H18F15009   3.633   1.554   5.423 -0.7725 -2.0465 -0.5788
  137OSM   H18G15010   3.777   1.607   5.333  1.2312 -0.5086 -3.4171
  137OSM   H18H15011   3.767   1.433   5.360  1.2454  0.1265 -2.2602
  138OSM      N15012   5.472   6.795   7.324  0.6279  0.2915 -0.3554
  138OSM    C1515013   5.423   6.796   7.467  0.8571 -0.9717 -0.3919
  138OSM   H15A15014   5.454   6.711   7.525 -2.7703 -1.4150  1.1430
  138OSM   H15B15015   5.315   6.801   7.463  0.8979  0.3100 -0.5766
  138OSM   H15C15016   5.449   6.890   7.514 -1.0202  0.0251 -1.2419
  138OSM    C1415017   5.393   6.685   7.249 -0.4480  0.0559 -0.0946
  138OSM   H14A15018   5.290   6.716   7.258 -0.3160  1.2797 -2.2209
  138OSM   H14B15019   5.403   6.591   7.301  1.7381 -0.0661 -0.6497
  138OSM   H14C15020   5.428   6.666   7.149 -1.6426 -1.5271 -0.2498
  138OSM    C1315021   5.432   6.925   7.261 -1.1114 -0.2000  0.0944
  138OSM   H13A15022   5.504   7.002   7.287  1.1420 -3.1073  3.4555
  138OSM   H13B15023   5.336   6.963   7.293 -1.4443  2.2966 -3.2830
  138OSM   H13C15024   5.426   6.912   7.154 -3.0547  0.6040  0.0693
  138OSM    C1215025   5.624   6.757   7.321  0.1069 -0.1708  0.5758
  138OSM   H12A15026   5.637   6.651   7.340 -0.2035 -0.1591  0.8642
  138OSM   H12B15027   5.672   6.802   7.406 -1.3284 -0.3494  1.5307
  138OSM    C1115028   5.698   6.791   7.185 -0.1825 -0.5888 -0.0009
  138OSM   H11A15029   5.806   6.769   7.191 -0.2450 -0.7250  0.8412
  138OSM   H11B15030   5.685   6.899   7.163 -1.9759 -0.6911  0.3586
  138OSM      P15031   5.692   6.562   7.074  0.0234 -0.3530  0.1183
  138OSM    O1315032   5.711   6.506   7.216 -0.0213 -0.2324 -0.0616
  138OSM    O1415033   5.615   6.488   6.974  0.3359  0.2858  0.3727
  138OSM    O1115034   5.826   6.588   7.020 -0.2264 -0.3459  0.6042
  138OSM    O1215035   5.641   6.718   7.072 -0.4473  0.5797 -0.1714
  138OSM    C1S15036   5.868   6.524   6.897  0.4721 -0.2731 -0.1130
  138OSM    H1S15037   5.810   6.436   6.862  1.1702 -0.4641 -0.8077
  138OSM    H1T15038   5.967   6.479   6.916  0.2722 -1.0110 -0.7654
  138OSM     NF15039   5.949   6.545   6.671 -0.1805 -1.0054  0.2857
  138OSM    HNF15040   6.048   6.554   6.659 -0.2385  1.0419  1.0804
  138OSM    C2S15041   5.894   6.619   6.776  0.4267 -0.3247 -0.1887
  138OSM    H2S15042   5.793   6.650   6.741 -0.8154 -2.1465  1.5632
  138OSM    C3S15043   5.970   6.748   6.825  0.0085  0.8833  0.9728
  138OSM    H3S15044   6.064   6.705   6.865 -0.5387  0.0264  1.3856
  138OSM     O315045   5.895   6.815   6.925 -0.2768 -0.6099 -0.3686
  138OSM    HO315046   5.828   6.753   6.954 -0.8203  1.0865  2.4356
  138OSM    C4S15047   5.988   6.834   6.711 -0.1187 -0.0349  0.2301
  138OSM    H4S15048   5.897   6.860   6.655 -0.0468  1.3746  0.7383
  138OSM    C5S15049   6.105   6.889   6.676  0.4780  0.2351  0.5280
  138OSM    H5S15050   6.196   6.836   6.708  0.5723  0.1678  0.1485
  138OSM    C6S15051   6.115   6.974   6.551 -0.4889  0.1393 -0.4224
  138OSM    H6S15052   6.222   7.001   6.544 -0.2541 -0.4719  0.6414
  138OSM    H6T15053   6.059   7.070   6.555 -0.7553 -0.0546  1.6184
  138OSM    C7S15054   6.067   6.885   6.427 -0.2421 -0.5617 -0.9343
  138OSM    H7S15055   5.958   6.862   6.430 -0.6257  1.0774 -1.2326
  138OSM    H7T15056   6.111   6.784   6.436  1.2949  0.2509  1.6846
  138OSM    C8S15057   6.102   6.937   6.283  0.0514  0.0853 -0.5150
  138OSM    H8S15058   6.209   6.961   6.271 -0.0274  1.3780  0.9596
  138OSM    H8T15059   6.058   7.038   6.265  0.7781  0.1646 -1.9599
  138OSM    C9S15060   6.063   6.846   6.174  0.1334 -0.6654 -0.6882
  138OSM    H9S15061   5.963   6.877   6.135  0.8071 -0.0523 -1.9747
  138OSM    H9T15062   6.052   6.742   6.211  0.8044 -1.2252 -2.0215
  138OSM   C10S15063   6.163   6.848   6.056 -0.2341 -0.1006  0.1353
  138OSM   H10S15064   6.140   6.759   5.993  2.0914  0.5191 -1.7385
  138OSM   H10T15065   6.266   6.831   6.093 -0.8717 -0.7258  1.7274
  138OSM   C11S15066   6.155   6.973   5.973  0.2293  0.0494  0.2217
  138OSM   H11S15067   6.159   7.067   6.031 -1.5403  0.0132  0.4601
  138OSM   H11T15068   6.064   6.979   5.910  1.8082  2.2357 -2.0692
  138OSM   C12S15069   6.266   6.977   5.871 -0.1253  0.6192 -0.0895
  138OSM   H12S15070   6.283   6.884   5.812  0.7067  0.7672 -0.0897
  138OSM   H12T15071   6.360   6.995   5.928  0.0346  1.4853 -0.6000
  138OSM   C13S15072   6.247   7.091   5.771 -0.1997  0.6995 -0.6649
  138OSM   H13S15073   6.262   7.183   5.831  1.1694  0.5487 -0.7533
  138OSM   H13T15074   6.145   7.087   5.726 -1.8764 -2.3673  2.8594
  138OSM   C14S15075   6.351   7.090   5.661 -0.4771  0.4195 -0.4764
  138OSM   H14S15076   6.437   7.023   5.684  0.5555  1.0176 -2.4387
  138OSM   H14T15077   6.392   7.193   5.661  0.7322 -0.0335  0.6634
  138OSM   C15S15078   6.301   7.055   5.520  0.0513 -0.0932  0.1198
  138OSM   H15S15079   6.257   6.954   5.507  2.2454 -0.7658 -3.2578
  138OSM   H15T15080   6.381   7.030   5.447 -1.3032 -0.6595 -1.2373
  138OSM   C16S15081   6.217   7.163   5.446  0.4937 -0.4220  0.0328
  138OSM   H16S15082   6.284   7.223   5.381  0.4859 -1.7023 -1.2002
  138OSM   H16T15083   6.189   7.232   5.529 -1.3171 -1.0112 -0.0447
  138OSM   C17S15084   6.101   7.103   5.367 -0.0109  0.6466  0.0607
  138OSM   H17S15085   6.043   7.189   5.327  0.4724  1.0115  0.1382
  138OSM   H17T15086   6.034   7.046   5.436 -0.7717  1.2208 -0.1896
  138OSM   C18S15087   6.137   7.001   5.252  0.4373 -0.4982  0.6668
  138OSM   H18S15088   6.048   6.970   5.193  0.8570  0.8884 -0.7646
  138OSM   H18T15089   6.181   6.909   5.296 -0.1920 -0.7524  0.7826
  138OSM   H18U15090   6.204   7.066   5.192 -0.5231 -1.2029 -1.2514
  138OSM    C1F15091   5.890   6.457   6.588 -0.4063  0.6120  0.2253
  138OSM     OF15092   5.776   6.418   6.609 -0.0271 -0.1707 -0.3169
  138OSM    C2F15093   5.975   6.434   6.470 -0.1730  0.3479  0.2467
  138OSM    H2F15094   5.995   6.326   6.453 -1.9685 -0.1885  1.2974
  138OSM    H2G15095   6.066   6.497   6.476 -0.0029  0.3810 -2.0295
  138OSM    C3F15096   5.905   6.498   6.349 -0.0964 -0.1040 -0.2564
  138OSM    H3F15097   5.902   6.608   6.362 -2.0836 -0.2983  1.4009
  138OSM    H3G15098   5.805   6.453   6.332  0.6138 -2.0772  0.3869
  138OSM    C4F15099   5.985   6.473   6.214  0.0490  0.2409 -0.1094
  138OSM    H4F15100   6.013   6.366   6.207 -1.5176 -0.1185 -1.9867
  138OSM    H4G15101   6.077   6.533   6.226 -1.1726  1.9731  1.0863
  138OSM    C5F15102   5.888   6.503   6.099 -0.0179  0.4164 -0.2901
  138OSM    H5F15103   5.845   6.603   6.123 -0.1609 -0.3669  3.0566
  138OSM    H5G15104   5.799   6.437   6.095  1.0126 -1.3807  2.8920
  138OSM    C6F15105   5.959   6.510   5.958 -0.0606  0.5446  0.3384
  138OSM    H6F15106   6.018   6.418   5.936 -2.4501 -0.2414 -3.8357
  138OSM    H6G15107   6.032   6.594   5.968  1.0141 -0.2510 -0.5963
  138OSM    C7F15108   5.869   6.545   5.850 -0.0440 -0.0707  0.4335
  138OSM    H7F15109   5.827   6.644   5.879  1.6177  0.1999  2.1007
  138OSM    H7G15110   5.788   6.469   5.840 -0.1997  0.3077 -1.7952
  138OSM    C8F15111   5.953   6.548   5.717 -0.1369  0.6418  0.4694
  138OSM    H8F15112   5.886   6.510   5.637 -1.2044 -0.0466  1.6495
  138OSM    H8G15113   6.027   6.466   5.722  0.7070  1.4485  1.9278
  138OSM    C9F15114   6.010   6.681   5.679  0.4153  0.0759 -0.2643
  138OSM    H9F15115   6.042   6.736   5.769 -0.1877 -0.8128  0.5219
  138OSM   C10F15116   6.008   6.749   5.558 -0.1695  0.3444 -0.3202
  138OSM   H10F15117   6.048   6.852   5.558  0.0504  0.3021  1.6971
  138OSM   C11F15118   5.951   6.690   5.430  0.4543  0.0960 -0.4848
  138OSM   H11F15119   5.938   6.580   5.428 -0.0035  0.1311  0.2338
  138OSM   H11G15120   6.024   6.717   5.351 -0.6170  0.2631 -1.4585
  138OSM   C12F15121   5.812   6.752   5.400  0.3042 -0.7536  0.6386
  138OSM   H12F15122   5.830   6.860   5.419  1.2831 -0.7232 -0.3542
  138OSM   H12G15123   5.751   6.703   5.479  0.0727 -3.2318 -0.9683
  138OSM   C13F15124   5.752   6.729   5.261  0.2147 -0.4529 -0.3434
  138OSM   H13F15125   5.653   6.682   5.274  1.2769 -2.2298  2.0061
  138OSM   H13G15126   5.799   6.645   5.205  0.9594 -0.9713  1.0028
  138OSM   C14F15127   5.747   6.860   5.184 -0.0541 -0.1325 -0.0256
  138OSM   H14F15128   5.850   6.899   5.199 -0.9103  1.4279  2.2975
  138OSM   H14G15129   5.677   6.933   5.229 -0.0133  0.5767 -1.0694
  138OSM   C15F15130   5.711   6.847   5.032 -0.1480 -0.0503 -0.0773
  138OSM   H15F15131   5.715   6.951   4.994 -1.0196 -0.2287 -0.6913
  138OSM   H15G15132   5.608   6.806   5.019  0.6513 -1.2896 -3.2714
  138OSM   C16F15133   5.810   6.758   4.965  1.5520 -0.4118  0.5139
  138OSM   H16F15134   5.807   6.652   4.998  0.5775 -0.2862  0.8762
  138OSM   H16G15135   5.915   6.790   4.981  1.4499 -0.6831  1.8985
  138OSM   C17F15136   5.782   6.761   4.808  0.7390  0.0265  0.3812
  138OSM   H17F15137   5.793   6.868   4.778 -1.6608  0.9741  2.5581
  138OSM   H17G15138   5.676   6.735   4.788  0.7707 -1.0760  1.5368
  138OSM   C18F15139   5.881   6.671   4.728 -0.4985 -0.6126  0.5828
  138OSM   H18F15140   5.873   6.690   4.618  2.6869 -0.0619  0.3401
  138OSM   H18G15141   5.868   6.564   4.752 -1.4956 -0.0833  2.6817
  138OSM   H18H15142   5.988   6.694   4.746 -0.7629 -0.0294  1.4674
  139OSM      N15143   0.183   2.833   7.344  0.2797 -0.4634 -0.1164
  139OSM    C1515144   0.073   2.837   7.439  0.0253  0.2926  0.1514
  139OSM   H15A15145  -0.007   2.775   7.400 -2.0098  1.5343  2.1411
  139OSM   H15B15146   0.035   2.937   7.454  0.9199  0.6860 -0.1664
  139OSM   H15C15147   0.094   2.798   7.537  4.1112 -0.9382 -1.0249
  139OSM    C1415148   0.300   2.896   7.407 -0.1737  0.8311 -0.0985
  139OSM   H14A15149   0.380   2.932   7.343  0.3574  2.6661  1.4945
  139OSM   H14B15150   0.338   2.833   7.486  0.4499 -0.0970 -1.1040
  139OSM   H14C15151   0.262   2.983   7.458 -2.0082 -1.0764  2.0046
  139OSM    C1315152   0.212   2.686   7.328 -0.7867  0.4659 -0.3932
  139OSM   H13A15153   0.308   2.662   7.286 -0.1224  0.4905  1.0582
  139OSM   H13B15154   0.136   2.623   7.283 -0.6191 -0.6140  0.7587
  139OSM   H13C15155   0.227   2.644   7.426 -1.4859  0.3117 -0.3448
  139OSM    C1215156   0.143   2.891   7.209  0.5220 -0.4667  0.1269
  139OSM   H12A15157   0.123   2.995   7.225 -1.9107 -1.0879  1.5997
  139OSM   H12B15158   0.053   2.847   7.169  1.3001 -2.0173 -0.0234
  139OSM    C1115159   0.250   2.898   7.092 -0.1585 -0.3935 -0.4055
  139OSM   H11A15160   0.207   2.924   6.993  0.8777 -0.9937 -1.0316
  139OSM   H11B15161   0.292   2.795   7.084  2.0270  0.3895  0.3558
  139OSM      P15162   0.326   3.147   7.155  0.2609 -0.5605 -0.0822
  139OSM    O1315163   0.202   3.179   7.228 -0.6206  0.2976  0.3858
  139OSM    O1415164   0.451   3.208   7.211 -0.6720 -0.4494 -0.3208
  139OSM    O1115165   0.311   3.208   7.007  0.2298 -0.1662  0.4057
  139OSM    O1215166   0.347   2.991   7.133 -0.2066 -0.6300 -0.5278
  139OSM    C1S15167   0.422   3.202   6.915  0.3342  0.6993 -0.4970
  139OSM    H1S15168   0.516   3.164   6.961  1.0373  1.0484 -1.6032
  139OSM    H1T15169   0.449   3.308   6.893  2.1169  0.2542 -0.6146
  139OSM     NF15170   0.492   3.141   6.697  0.1289  0.9069  0.4602
  139OSM    HNF15171   0.466   3.180   6.609  0.4223  1.4206  0.5988
  139OSM    C2S15172   0.383   3.125   6.785  0.7360  0.9224 -0.1797
  139OSM    H2S15173   0.375   3.017   6.808  1.7671  0.6177 -1.1963
  139OSM    C3S15174   0.249   3.178   6.726 -0.1673 -0.1537  0.3192
  139OSM    H3S15175   0.275   3.285   6.713 -0.9007  0.0262  0.3131
  139OSM     O315176   0.130   3.190   6.808  0.3808  0.6669  0.1991
  139OSM    HO315177   0.161   3.200   6.898  2.2979 -1.6247 -0.1219
  139OSM    C4S15178   0.203   3.121   6.588  0.8474 -0.6852  0.0432
  139OSM    H4S15179   0.266   3.150   6.502  0.4233 -1.4505 -0.5393
  139OSM    C5S15180   0.095   3.044   6.553  0.1034  0.6088 -0.1722
  139OSM    H5S15181   0.018   3.014   6.625 -0.0880 -2.5441 -1.5422
  139OSM    C6S15182   0.069   2.989   6.416  0.1349  0.1195 -0.3690
  139OSM    H6S15183  -0.027   3.035   6.385 -0.0486 -0.7798 -1.1906
  139OSM    H6T15184   0.055   2.879   6.418  0.6544 -0.0316 -2.5578
  139OSM    C7S15185   0.169   3.033   6.310 -0.4315 -0.3162  0.2863
  139OSM    H7S15186   0.274   3.009   6.338 -0.0697  0.3057 -0.4811
  139OSM    H7T15187   0.166   3.144   6.299 -1.3337 -0.3979 -0.3825
  139OSM    C8S15188   0.150   2.959   6.170 -0.2976 -0.0188 -0.5665
  139OSM    H8S15189   0.048   2.975   6.129  0.3181 -2.9765 -3.7181
  139OSM    H8T15190   0.164   2.851   6.193 -0.8131  0.1985  0.8162
  139OSM    C9S15191   0.261   2.999   6.066  0.5939 -0.1603 -0.0892
  139OSM    H9S15192   0.225   2.939   5.980 -0.7080 -1.9202  1.6191
  139OSM    H9T15193   0.357   2.952   6.095 -0.5397 -1.0902  2.4913
  139OSM   C10S15194   0.259   3.149   6.040  0.1867  0.1150  0.5200
  139OSM   H10S15195   0.299   3.195   6.132 -0.4357 -2.1851  2.0334
  139OSM   H10T15196   0.155   3.188   6.030  0.5397  0.8903 -0.3179
  139OSM   C11S15197   0.343   3.197   5.915 -0.6020  0.7558  0.1952
  139OSM   H11S15198   0.442   3.146   5.920 -2.2870 -2.8916 -0.0169
  139OSM   H11T15199   0.360   3.306   5.910  2.7333  0.4906  2.1102
  139OSM   C12S15200   0.273   3.156   5.785  0.4604 -0.8589 -0.0674
  139OSM   H12S15201   0.167   3.192   5.788  0.9647  0.7030  2.0034
  139OSM   H12T15202   0.278   3.046   5.775 -0.0933 -0.7437 -2.0170
  139OSM   C13S15203   0.339   3.223   5.663  0.7939 -0.1443 -0.3947
  139OSM   H13S15204   0.448   3.202   5.666  1.1213  1.4604  0.0150
  139OSM   H13T15205   0.335   3.334   5.668 -0.4697 -0.2097  0.4227
  139OSM   C14S15206   0.273   3.167   5.532  1.2088 -0.1533  0.5857
  139OSM   H14S15207   0.171   3.208   5.514  1.5910  0.6261  0.1675
  139OSM   H14T15208   0.262   3.057   5.544  0.5578 -0.4656 -2.3172
  139OSM   C15S15209   0.354   3.200   5.404 -0.2981  0.1905  0.3778
  139OSM   H15S15210   0.452   3.153   5.427  0.1877 -0.3626 -2.4701
  139OSM   H15T15211   0.359   3.311   5.393  2.6185 -0.0249 -1.4793
  139OSM   C16S15212   0.303   3.135   5.270 -0.6097 -0.4874  0.0395
  139OSM   H16S15213   0.198   3.169   5.260  0.0833  1.3323 -1.7025
  139OSM   H16T15214   0.301   3.027   5.296 -2.8412 -0.2126  1.2164
  139OSM   C17S15215   0.388   3.147   5.144 -0.1398  0.5046 -0.5829
  139OSM   H17S15216   0.491   3.106   5.147 -0.8790 -1.4228 -0.0530
  139OSM   H17T15217   0.397   3.256   5.125 -0.1151  0.2159 -2.4080
  139OSM   C18S15218   0.310   3.080   5.029 -0.2154  0.1347 -0.1142
  139OSM   H18S15219   0.202   3.081   5.056  0.3558  1.9552  2.5593
  139OSM   H18T15220   0.343   2.977   5.004 -0.9688  0.2899 -1.8457
  139OSM   H18U15221   0.313   3.149   4.942 -0.1518  0.1592 -0.0928
  139OSM    C1F15222   0.613   3.090   6.715  0.1590 -0.0782 -0.4015
  139OSM     OF15223   0.638   3.016   6.811  0.1347 -0.2476  0.3756
  139OSM    C2F15224   0.717   3.115   6.610 -0.0573 -0.3270 -0.6471
  139OSM    H2F15225   0.820   3.117   6.652 -1.0543  1.1014  2.0306
  139OSM    H2G15226   0.693   3.219   6.580  1.6279  0.7039  1.2845
  139OSM    C3F15227   0.725   3.019   6.481  0.0297 -0.4024 -0.3836
  139OSM    H3F15228   0.742   2.917   6.522  3.3279  0.7892  1.6116
  139OSM    H3G15229   0.819   3.036   6.424  0.4618  1.4619  0.7852
  139OSM    C4F15230   0.594   3.007   6.399  0.5181  0.4101  0.2731
  139OSM    H4F15231   0.570   3.107   6.359  1.0121  0.8501  1.0576
  139OSM    H4G15232   0.520   2.979   6.477  1.7013  0.3875  1.4389
  139OSM    C5F15233   0.596   2.920   6.272  0.2830  0.5975  0.0215
  139OSM    H5F15234   0.490   2.902   6.243  1.3543 -0.2378 -3.8353
  139OSM    H5G15235   0.639   2.818   6.286  1.5442  1.1027 -0.0354
  139OSM    C6F15236   0.666   2.991   6.164 -0.1641  0.3611  0.6041
  139OSM    H6F15237   0.773   2.991   6.196 -0.2172  1.8986  0.8660
  139OSM    H6G15238   0.641   3.098   6.150 -1.2953  0.0570  0.2359
  139OSM    C7F15239   0.649   2.912   6.031 -0.5616  0.0897  0.2815
  139OSM    H7F15240   0.540   2.918   6.008 -0.8112 -1.4528  0.9418
  139OSM    H7G15241   0.683   2.808   6.043  2.3833  0.5365 -2.6762
  139OSM    C8F15242   0.708   2.958   5.898 -0.3636 -0.1905  0.2273
  139OSM    H8F15243   0.665   3.061   5.893 -0.5969 -0.2828  0.3234
  139OSM    H8G15244   0.684   2.898   5.807  1.7383 -0.5471 -0.1595
  139OSM    C9F15245   0.854   2.967   5.902 -0.7753 -0.6407 -0.7189
  139OSM    H9F15246   0.891   3.020   5.991  2.1223  0.4427 -2.4478
  139OSM   C10F15247   0.952   2.933   5.813 -0.0004 -0.0301 -0.1791
  139OSM   H10F15248   1.058   2.948   5.839  0.0786  0.4221 -0.7337
  139OSM   C11F15249   0.932   2.885   5.675 -0.0387 -0.5863  0.3486
  139OSM   H11F15250   0.969   2.970   5.614  0.2260 -1.4635 -0.7487
  139OSM   H11G15251   0.822   2.875   5.660  0.0149 -1.0776  0.2482
  139OSM   C12F15252   1.003   2.752   5.637  0.1253 -0.2861 -0.0810
  139OSM   H12F15253   0.977   2.676   5.713  1.3894  0.7022  1.3857
  139OSM   H12G15254   1.110   2.768   5.659 -0.0175  0.6627 -0.0205
  139OSM   C13F15255   0.997   2.722   5.488 -0.4414  0.2945  0.1186
  139OSM   H13F15256   1.039   2.812   5.439  0.2565  1.6763  3.0136
  139OSM   H13G15257   0.892   2.715   5.452 -1.3471 -0.6636  2.6642
  139OSM   C14F15258   1.073   2.601   5.443 -0.4959  0.3375  0.2632
  139OSM   H14F15259   1.016   2.512   5.476  1.3352 -0.2047  2.1758
  139OSM   H14G15260   1.177   2.611   5.483 -1.0555 -1.2708  2.2831
  139OSM   C15F15261   1.080   2.583   5.285 -0.5491 -0.2389  0.0001
  139OSM   H15F15262   1.163   2.518   5.251 -1.0562 -0.3985 -0.9921
  139OSM   H15G15263   1.088   2.680   5.231 -1.1954 -0.8371 -1.2382
  139OSM   C16F15264   0.950   2.517   5.240  0.6469  0.0744  0.3022
  139OSM   H16F15265   0.857   2.579   5.243 -0.4155 -1.4086 -0.7691
  139OSM   H16G15266   0.937   2.426   5.303 -0.4598 -0.3313 -0.4927
  139OSM   C17F15267   0.971   2.466   5.095  0.5452 -0.0816  0.1515
  139OSM   H17F15268   1.071   2.424   5.076  0.8494  1.2448 -1.4123
  139OSM   H17G15269   0.956   2.554   5.029 -0.1936 -0.4893 -0.2468
  139OSM   C18F15270   0.862   2.374   5.052  0.7525 -0.5805  0.2893
  139OSM   H18F15271   0.894   2.349   4.948 -1.5720  2.5923 -1.3598
  139OSM   H18G15272   0.762   2.415   5.029  0.9639 -0.1280  0.1651
  139OSM   H18H15273   0.854   2.275   5.102 -1.3414  0.0482  1.2869
  140OSM      N15274   4.052   6.541   7.148  0.3627  0.2230 -0.2694
  140OSM    C1515275   3.965   6.472   7.248 -0.5619 -0.3557  0.2734
  140OSM   H15A15276   3.889   6.535   7.292 -1.6670 -1.6547  0.3026
  140OSM   H15B15277   4.026   6.428   7.324 -0.6296 -2.1324 -0.6484
  140OSM   H15C15278   3.918   6.387   7.200 -0.6562 -0.6470  0.8832
  140OSM    C1415279   4.146   6.624   7.227  0.0986  0.3441 -0.2599
  140OSM   H14A15280   4.212   6.669   7.153  0.6105 -0.0725 -0.0686
  140OSM   H14B15281   4.205   6.561   7.292  1.2679  0.3251 -1.2848
  140OSM   H14C15282   4.102   6.705   7.282 -0.1613  0.1258 -0.1452
  140OSM    C1315283   4.138   6.446   7.068 -0.3772  0.1118 -0.4054
  140OSM   H13A15284   4.079   6.373   7.015  0.2471 -0.6954 -0.0140
  140OSM   H13B15285   4.206   6.386   7.126  0.5758  1.2426 -0.3173
  140OSM   H13C15286   4.186   6.495   6.985  3.3111 -2.2741  0.1071
  140OSM    C1215287   3.969   6.629   7.052 -0.2759  0.5175  0.0331
  140OSM   H12A15288   3.905   6.570   6.988 -0.8150  0.2199  0.8199
  140OSM   H12B15289   4.036   6.670   6.979 -0.7467 -3.5449 -3.0386
  140OSM    C1115290   3.889   6.745   7.125  0.4423  0.4279  0.2371
  140OSM   H11A15291   3.857   6.820   7.049 -2.3954  1.5910  2.4136
  140OSM   H11B15292   3.954   6.810   7.188  0.0391  2.1268 -1.0258
  140OSM      P15293   3.644   6.648   7.134  0.4204 -0.2049 -0.3178
  140OSM    O1315294   3.651   6.499   7.137 -0.4196  0.1395 -0.6800
  140OSM    O1415295   3.526   6.705   7.207  0.0368 -0.0550  0.3416
  140OSM    O1115296   3.661   6.703   6.993 -0.5190 -0.8466 -0.3679
  140OSM    O1215297   3.776   6.699   7.202  0.7550 -0.1171 -0.1366
  140OSM    C1S15298   3.556   6.674   6.903  0.2432 -0.0392 -0.2694
  140OSM    H1S15299   3.459   6.690   6.954  0.8216 -2.0345  1.5735
  140OSM    H1T15300   3.562   6.568   6.873  0.1794 -0.3491  0.7782
  140OSM     NF15301   3.427   6.751   6.710 -0.7186  0.1482 -0.1657
  140OSM    HNF15302   3.424   6.701   6.624  0.6716  0.7137 -0.5716
  140OSM    C2S15303   3.556   6.764   6.773 -0.2157  0.2514  0.2219
  140OSM    H2S15304   3.565   6.871   6.802  1.6434  0.3793 -0.7107
  140OSM    C3S15305   3.675   6.732   6.686  0.2514 -0.0697  0.7541
  140OSM    H3S15306   3.647   6.637   6.634 -2.2199  0.8687  0.2482
  140OSM     O315307   3.795   6.691   6.749 -0.0887 -0.1887 -0.2110
  140OSM    HO315308   3.770   6.680   6.841  5.5944 -2.2549  1.4798
  140OSM    C4S15309   3.704   6.840   6.592 -0.7641  0.4140  0.0200
  140OSM    H4S15310   3.733   6.937   6.636 -0.6759  0.5888 -0.4185
  140OSM    C5S15311   3.711   6.830   6.459  0.4858  0.5021  0.2629
  140OSM    H5S15312   3.687   6.733   6.414 -0.8040  0.9149  0.0372
  140OSM    C6S15313   3.736   6.936   6.356  0.3714 -0.4052  0.0123
  140OSM    H6S15314   3.818   7.003   6.393  0.3456 -0.4551  0.1616
  140OSM    H6T15315   3.645   6.994   6.329  0.4703 -0.2528  0.0049
  140OSM    C7S15316   3.798   6.877   6.230  0.1950  0.1318 -0.6336
  140OSM    H7S15317   3.730   6.805   6.178 -1.3208  1.6516 -0.8407
  140OSM    H7T15318   3.895   6.826   6.248 -0.3248 -0.5269  0.3760
  140OSM    C8S15319   3.830   6.997   6.145 -0.0512  0.3818 -0.4875
  140OSM    H8S15320   3.911   7.049   6.199  0.3726 -0.9462  0.1892
  140OSM    H8T15321   3.738   7.060   6.135 -0.9323 -0.9942 -1.5042
  140OSM    C9S15322   3.870   6.970   5.994  0.4736  0.3162 -0.5065
  140OSM    H9S15323   3.779   6.930   5.944 -0.8869  0.8491  1.4212
  140OSM    H9T15324   3.955   6.899   6.003  0.1593  0.2039  3.3344
  140OSM   C10S15325   3.913   7.091   5.919 -0.0778 -0.5707 -0.2673
  140OSM   H10S15326   4.011   7.130   5.955 -0.3575  0.9112 -1.0090
  140OSM   H10T15327   3.843   7.171   5.951  1.0005  0.0346  0.6580
  140OSM   C11S15328   3.924   7.077   5.770 -0.0562 -0.5869  0.8166
  140OSM   H11S15329   3.829   7.049   5.720  0.8579  1.4922 -2.3766
  140OSM   H11T15330   3.990   6.989   5.755 -0.9246 -1.4115  1.7163
  140OSM   C12S15331   3.977   7.208   5.704  0.1316 -0.9282  0.1319
  140OSM   H12S15332   4.082   7.231   5.729 -0.4967  0.4321  1.6452
  140OSM   H12T15333   3.916   7.298   5.724  0.8774 -0.1523 -0.9719
  140OSM   C13S15334   3.963   7.209   5.548 -0.0517  0.2071  0.0745
  140OSM   H13S15335   3.853   7.202   5.528  0.0636 -0.9005 -0.2753
  140OSM   H13T15336   4.012   7.113   5.521  1.0293  0.0701  2.3154
  140OSM   C14S15337   4.008   7.336   5.480 -0.1639  0.1459  0.5134
  140OSM   H14S15338   4.114   7.366   5.495 -0.4423  2.1567 -1.2039
  140OSM   H14T15339   3.945   7.411   5.532 -2.9330 -1.2711 -0.5865
  140OSM   C15S15340   3.991   7.325   5.331 -0.1797  0.0160 -1.3554
  140OSM   H15S15341   3.938   7.230   5.310 -0.5164 -0.4058  1.1156
  140OSM   H15T15342   4.084   7.326   5.270 -0.0841  1.4404 -1.2260
  140OSM   C16S15343   3.905   7.445   5.284  0.2698 -0.3446 -0.6321
  140OSM   H16S15344   3.972   7.531   5.309  0.7437 -1.0452  0.5708
  140OSM   H16T15345   3.807   7.442   5.336  0.7362 -1.6357  0.2263
  140OSM   C17S15346   3.905   7.441   5.130 -0.4767 -1.0641  0.1551
  140OSM   H17S15347   3.864   7.341   5.106 -0.8175 -1.1220  0.9452
  140OSM   H17T15348   4.012   7.435   5.099 -0.5667  2.0359 -1.0920
  140OSM   C18S15349   3.835   7.553   5.051 -0.3007  0.2929 -0.7639
  140OSM   H18S15350   3.827   7.545   4.941  1.4735 -0.1025 -0.8948
  140OSM   H18T15351   3.865   7.654   5.089 -0.4834  0.1590 -0.2453
  140OSM   H18U15352   3.728   7.544   5.082 -0.0729 -0.4410 -0.1513
  140OSM    C1F15353   3.316   6.795   6.766 -1.0663 -1.0222 -0.1059
  140OSM     OF15354   3.310   6.844   6.881 -0.0375 -0.1599 -0.1426
  140OSM    C2F15355   3.192   6.766   6.691  0.0901  0.4528  0.0583
  140OSM    H2F15356   3.124   6.718   6.765 -0.2402  1.0426  0.1404
  140OSM    H2G15357   3.207   6.692   6.609 -2.3841 -0.9661  0.7590
  140OSM    C3F15358   3.119   6.897   6.639 -0.3571  0.4922 -0.5017
  140OSM    H3F15359   3.112   6.956   6.732  1.2650 -0.1535  0.0539
  140OSM    H3G15360   3.019   6.870   6.598 -1.6008  0.7797  2.1532
  140OSM    C4F15361   3.196   6.978   6.536  0.3586  0.4600  0.1779
  140OSM    H4F15362   3.197   6.912   6.447 -2.3406  0.8983 -0.2901
  140OSM    H4G15363   3.300   6.992   6.570  1.0048  1.1056 -1.8803
  140OSM    C5F15364   3.131   7.114   6.508  0.1811 -0.3509 -0.2788
  140OSM    H5F15365   3.133   7.175   6.601 -2.2840 -2.0522  1.0210
  140OSM    H5G15366   3.030   7.097   6.465 -0.9320  1.6073  1.3520
  140OSM    C6F15367   3.202   7.182   6.397 -0.6635  0.5515  0.0596
  140OSM    H6F15368   3.217   7.103   6.320  0.9606 -0.8934  1.7659
  140OSM    H6G15369   3.298   7.213   6.443 -0.8399  0.4203  0.5249
  140OSM    C7F15370   3.124   7.298   6.338  0.2104  0.2664 -0.2497
  140OSM    H7F15371   3.105   7.381   6.409 -0.0173 -0.0622  0.0763
  140OSM    H7G15372   3.023   7.267   6.303  0.1189 -0.8691  0.9343
  140OSM    C8F15373   3.209   7.378   6.230  0.1392  0.9517  0.0792
  140OSM    H8F15374   3.235   7.306   6.149  0.4921  2.2013 -0.9725
  140OSM    H8G15375   3.306   7.411   6.274  0.7678  0.3200 -0.7753
  140OSM    C9F15376   3.138   7.499   6.178 -0.2277 -0.1334  0.1838
  140OSM    H9F15377   3.077   7.541   6.260  1.0796 -0.8228  1.5731
  140OSM   C10F15378   3.136   7.548   6.051  0.1874 -0.8974 -0.7821
  140OSM   H10F15379   3.082   7.640   6.026  0.6241 -0.2882  0.4501
  140OSM   C11F15380   3.195   7.478   5.932  0.6282 -0.0708  0.3795
  140OSM   H11F15381   3.230   7.374   5.951  0.6939 -0.3280 -1.0609
  140OSM   H11G15382   3.290   7.529   5.902  0.4253  0.0507 -0.0665
  140OSM   C12F15383   3.106   7.490   5.799  0.5388  0.6345  0.4078
  140OSM   H12F15384   3.105   7.600   5.783 -1.8772  1.2751  3.8789
  140OSM   H12G15385   3.005   7.452   5.823  0.1113 -0.6252 -2.8879
  140OSM   C13F15386   3.167   7.405   5.688  0.5951  0.2997 -0.9794
  140OSM   H13F15387   3.095   7.391   5.605  1.2589  0.6626 -1.6318
  140OSM   H13G15388   3.183   7.305   5.733 -1.5204  0.9991  1.6509
  140OSM   C14F15389   3.299   7.451   5.628 -0.6807 -0.3272 -0.2691
  140OSM   H14F15390   3.378   7.470   5.704  0.5073  0.0435 -1.5631
  140OSM   H14G15391   3.285   7.547   5.573 -1.5288 -0.5208 -0.4106
  140OSM   C15F15392   3.352   7.361   5.529  0.4741  0.2850  0.3630
  140OSM   H15F15393   3.268   7.305   5.483  0.7296 -0.8930  1.2825
  140OSM   H15G15394   3.415   7.282   5.574  1.1767  0.8231  0.3462
  140OSM   C16F15395   3.441   7.420   5.416 -0.7228 -0.3511  0.0129
  140OSM   H16F15396   3.448   7.335   5.345 -2.1715  1.9774 -3.1457
  140OSM   H16G15397   3.545   7.441   5.451 -1.0059 -1.0606  1.3548
  140OSM   C17F15398   3.393   7.539   5.329  0.0558  0.1496 -0.5413
  140OSM   H17F15399   3.469   7.560   5.250 -3.1025  3.5244 -3.0732
  140OSM   H17G15400   3.389   7.635   5.384 -0.3422  0.8999 -1.8262
  140OSM   C18F15401   3.248   7.528   5.266 -0.7109 -0.1001 -0.1501
  140OSM   H18F15402   3.173   7.550   5.345  1.1886  3.3130  0.8769
  140OSM   H18G15403   3.231   7.429   5.219  1.9361  0.6112 -2.8818
  140OSM   H18H15404   3.226   7.609   5.194 -1.3821 -0.9026 -0.8749
  141OSM      N15405   1.911   3.499   7.406 -0.0284 -0.5874 -0.5850
  141OSM    C1515406   1.869   3.637   7.356  0.9602 -0.5541 -0.6124
  141OSM   H15A15407   1.791   3.633   7.282 -0.4853  2.3249  0.6102
  141OSM   H15B15408   1.955   3.690   7.317  1.5457 -0.1544  1.1472
  141OSM   H15C15409   1.824   3.703   7.428 -0.0826  1.9393 -3.3704
  141OSM    C1415410   2.031   3.527   7.491  0.0554 -0.1339  0.4639
  141OSM   H14A15411   2.016   3.602   7.568 -1.9848  0.6038 -0.5566
  141OSM   H14B15412   2.104   3.576   7.428 -1.5554 -0.0968 -1.4661
  141OSM   H14C15413   2.065   3.438   7.542 -2.2174 -1.0013  0.5557
  141OSM    C1315414   1.811   3.443   7.501 -0.4432 -0.1965  0.1736
  141OSM   H13A15415   1.838   3.346   7.540 -0.1797  1.2252  4.0341
  141OSM   H13B15416   1.719   3.424   7.449 -0.1370  0.9842 -0.8627
  141OSM   H13C15417   1.789   3.511   7.583 -0.6716  0.3096 -0.3015
  141OSM    C1215418   1.935   3.396   7.290 -0.4633  0.1959 -0.0134
  141OSM   H12A15419   2.020   3.434   7.237  0.4505 -0.2460  1.0866
  141OSM   H12B15420   1.843   3.383   7.234  0.0279 -0.2494 -0.7248
  141OSM    C1115421   1.991   3.259   7.333  0.7138 -0.4290 -0.3052
  141OSM   H11A15422   1.944   3.184   7.265  2.5905 -2.5732  0.6008
  141OSM   H11B15423   1.962   3.221   7.433 -1.1868  2.0133  0.1568
  141OSM      P15424   2.212   3.136   7.288  0.0010  0.2126  0.0291
  141OSM    O1315425   2.348   3.168   7.337  0.3824  0.5685  0.2516
  141OSM    O1415426   2.153   3.007   7.329 -0.1166  0.5470  0.4945
  141OSM    O1115427   2.221   3.148   7.132  0.2644  0.8674 -0.2399
  141OSM    O1215428   2.130   3.257   7.337 -0.7438  0.0779  0.2793
  141OSM    C1S15429   2.108   3.161   7.043 -0.2007  0.0125 -0.0845
  141OSM    H1S15430   2.068   3.264   7.057  1.0518  0.3517  1.0748
  141OSM    H1T15431   2.018   3.099   7.066 -0.2732 -0.7409 -2.1545
  141OSM     NF15432   2.028   3.176   6.806  0.4264 -0.3029  0.7767
  141OSM    HNF15433   1.974   3.103   6.766  1.6434  0.1855 -2.0084
  141OSM    C2S15434   2.143   3.141   6.889  0.6428 -0.4344 -0.6320
  141OSM    H2S15435   2.217   3.214   6.851  0.1366 -0.4470 -1.6982
  141OSM    C3S15436   2.204   2.994   6.878  0.1483  0.2961  0.1093
  141OSM    H3S15437   2.110   2.935   6.888  1.1233 -2.0996 -3.0501
  141OSM     O315438   2.289   2.939   6.980  0.0502 -0.0549  0.5394
  141OSM    HO315439   2.289   3.008   7.047 -0.4851  0.5546 -0.0786
  141OSM    C4S15440   2.264   2.983   6.740  0.8348 -0.1022 -0.6235
  141OSM    H4S15441   2.360   3.036   6.736  1.0760 -0.4592  0.3861
  141OSM    C5S15442   2.230   2.899   6.643 -0.4622 -0.6846  0.4137
  141OSM    H5S15443   2.145   2.831   6.662 -0.3881 -0.4983  1.4709
  141OSM    C6S15444   2.304   2.891   6.511 -0.6964 -0.1019  0.2727
  141OSM    H6S15445   2.326   2.784   6.486 -0.7986 -0.6380  2.3162
  141OSM    H6T15446   2.402   2.943   6.510 -0.5314 -0.4106 -0.4507
  141OSM    C7S15447   2.216   2.944   6.397 -0.1343 -0.9086 -0.8123
  141OSM    H7S15448   2.279   2.937   6.306  0.1009  0.5051 -0.7912
  141OSM    H7T15449   2.203   3.052   6.418  1.7041 -0.2856 -2.5082
  141OSM    C8S15450   2.090   2.854   6.371 -0.5434  0.3472 -0.2515
  141OSM    H8S15451   2.024   2.864   6.460 -2.2102 -0.9093 -1.2861
  141OSM    H8T15452   2.112   2.745   6.358 -0.7176 -0.1491  2.9217
  141OSM    C9S15453   2.002   2.920   6.260 -0.2131  0.7707 -0.1182
  141OSM    H9S15454   2.059   2.937   6.166 -2.5814 -0.5929 -1.9238
  141OSM    H9T15455   1.955   3.018   6.286 -0.5556  0.4770  0.3723
  141OSM   C10S15456   1.894   2.820   6.204 -0.0790  0.3734 -1.1219
  141OSM   H10S15457   1.815   2.808   6.281  0.6182  0.2744 -0.4051
  141OSM   H10T15458   1.947   2.723   6.194 -0.9495 -0.0759 -1.4421
  141OSM   C11S15459   1.836   2.880   6.080 -0.1772  0.4676  0.1186
  141OSM   H11S15460   1.903   2.894   5.992 -2.7580 -1.0582 -2.2451
  141OSM   H11T15461   1.811   2.985   6.106 -1.2309  0.4328 -0.6861
  141OSM   C12S15462   1.703   2.815   6.030  0.0398 -0.1733 -0.3492
  141OSM   H12S15463   1.616   2.830   6.098  2.3604  0.2356  2.7860
  141OSM   H12T15464   1.713   2.705   6.028 -1.9219 -0.3568 -1.5829
  141OSM   C13S15465   1.662   2.845   5.889  0.0289 -0.0504 -0.1417
  141OSM   H13S15466   1.684   2.951   5.864  0.5044 -0.3196 -0.8756
  141OSM   H13T15467   1.551   2.850   5.877  0.1463  0.7074 -0.9610
  141OSM   C14S15468   1.729   2.748   5.791 -0.1327  0.2673 -0.6085
  141OSM   H14S15469   1.716   2.644   5.829  0.3362  0.0702 -0.9858
  141OSM   H14T15470   1.836   2.768   5.773 -0.2492  0.3213 -1.2768
  141OSM   C15S15471   1.663   2.759   5.656  0.6010 -0.0622 -0.4922
  141OSM   H15S15472   1.733   2.717   5.581  0.1035 -0.9892 -0.4571
  141OSM   H15T15473   1.661   2.865   5.621 -1.0950 -0.6149 -2.2252
  141OSM   C16S15474   1.518   2.709   5.655  0.0406  0.3618 -0.1235
  141OSM   H16S15475   1.457   2.771   5.724  0.5011  1.3441 -0.5833
  141OSM   H16T15476   1.518   2.601   5.684 -1.3993  0.8125  1.7796
  141OSM   C17S15477   1.451   2.728   5.518  0.5922  0.3101  0.0452
  141OSM   H17S15478   1.470   2.830   5.478 -0.1621  0.7788  0.8447
  141OSM   H17T15479   1.341   2.731   5.531  0.6209  1.3334  0.1133
  141OSM   C18S15480   1.503   2.626   5.406 -0.2917 -0.5521 -0.7022
  141OSM   H18S15481   1.610   2.652   5.390 -0.2786 -0.3158 -0.2233
  141OSM   H18T15482   1.438   2.657   5.321 -0.6381  2.0507  0.4103
  141OSM   H18U15483   1.489   2.519   5.431 -1.0772 -0.5364 -1.0383
  141OSM    C1F15484   1.988   3.306   6.781  0.3526 -0.3399 -0.4447
  141OSM     OF15485   2.055   3.400   6.816 -0.4047  0.6678 -0.6151
  141OSM    C2F15486   1.854   3.337   6.727  0.2522 -0.1261 -0.0691
  141OSM    H2F15487   1.775   3.281   6.781  0.5387  0.9874  1.5719
  141OSM    H2G15488   1.851   3.319   6.617 -2.0244  2.5022 -0.5561
  141OSM    C3F15489   1.819   3.486   6.744 -0.5384  0.0776 -0.2977
  141OSM    H3F15490   1.887   3.549   6.683  0.3439 -1.4802 -1.0039
  141OSM    H3G15491   1.837   3.518   6.849 -1.0603 -1.9768  0.4705
  141OSM    C4F15492   1.673   3.513   6.699 -0.1503 -0.0182  0.5835
  141OSM    H4F15493   1.645   3.616   6.728  0.9077  0.4099  0.1210
  141OSM    H4G15494   1.611   3.437   6.752  1.7523 -0.9628  1.5947
  141OSM    C5F15495   1.641   3.486   6.550 -0.2711  0.6731  0.2328
  141OSM    H5F15496   1.530   3.496   6.550 -0.3681  0.2884  2.6973
  141OSM    H5G15497   1.664   3.381   6.524 -1.8282  0.4610 -0.3547
  141OSM    C6F15498   1.709   3.566   6.429  0.2487 -0.4786  0.0292
  141OSM    H6F15499   1.816   3.535   6.425  0.7571  0.9007  1.4466
  141OSM    H6G15500   1.690   3.674   6.446 -1.4935 -0.6370 -0.7575
  141OSM    C7F15501   1.636   3.528   6.299  0.1686 -0.0023  0.6670
  141OSM    H7F15502   1.528   3.546   6.314 -0.0063  0.9962 -1.3897
  141OSM    H7G15503   1.652   3.421   6.276  0.1218 -0.2832  1.9098
  141OSM    C8F15504   1.684   3.620   6.181  0.8977  0.0896 -0.0605
  141OSM    H8F15505   1.793   3.606   6.165  0.6081 -1.8096 -0.6458
  141OSM    H8G15506   1.663   3.724   6.215 -0.8734 -0.0483 -0.6189
  141OSM    C9F15507   1.616   3.577   6.049 -0.3375  0.0100  0.0814
  141OSM    H9F15508   1.511   3.607   6.040 -0.7868 -1.3119  0.6024
  141OSM   C10F15509   1.665   3.498   5.949 -0.7469 -0.3920  0.4262
  141OSM   H10F15510   1.604   3.482   5.859  0.3902  0.5980 -0.5578
  141OSM   C11F15511   1.806   3.443   5.952 -0.3686 -0.3859 -0.1813
  141OSM   H11F15512   1.857   3.454   6.051 -4.1359  2.6660  1.6729
  141OSM   H11G15513   1.867   3.515   5.894  0.5887  0.9539  2.3444
  141OSM   C12F15514   1.821   3.302   5.892  0.1187  0.6564  0.3594
  141OSM   H12F15515   1.759   3.227   5.945 -2.3248  0.6198 -2.3151
  141OSM   H12G15516   1.927   3.268   5.894  0.7908  2.5677  0.3896
  141OSM   C13F15517   1.797   3.298   5.735 -0.1282  0.1822 -0.8986
  141OSM   H13F15518   1.848   3.383   5.686  0.2178 -0.1367 -1.0922
  141OSM   H13G15519   1.686   3.305   5.731 -0.1908 -0.0146  0.1594
  141OSM   C14F15520   1.843   3.169   5.674 -0.0341  0.4834 -0.4333
  141OSM   H14F15521   1.825   3.087   5.748 -2.0349  2.1878  1.1226
  141OSM   H14G15522   1.953   3.183   5.672 -0.0050  0.1597 -2.0123
  141OSM   C15F15523   1.793   3.138   5.533  0.9457  0.4909 -0.0016
  141OSM   H15F15524   1.795   3.223   5.462  0.2944 -0.5204 -1.3007
  141OSM   H15G15525   1.685   3.113   5.545  1.4928 -1.4630  1.2954
  141OSM   C16F15526   1.869   3.014   5.476 -0.3693 -0.4096 -0.7215
  141OSM   H16F15527   1.850   2.923   5.538  0.8509  1.4331  2.5823
  141OSM   H16G15528   1.977   3.040   5.478  0.3868 -2.9469 -2.6780
  141OSM   C17F15529   1.833   2.993   5.327 -0.1791 -0.1603  0.7601
  141OSM   H17F15530   1.905   2.917   5.291  2.4571  1.0586  3.1357
  141OSM   H17G15531   1.855   3.082   5.264 -0.9986 -0.0088  0.6738
  141OSM   C18F15532   1.689   2.953   5.298 -0.3455 -0.0740 -0.4856
  141OSM   H18F15533   1.619   2.982   5.379 -1.0477 -1.2715 -0.6393
  141OSM   H18G15534   1.668   2.844   5.287  0.7470 -0.6296  2.2501
  141OSM   H18H15535   1.647   3.005   5.209 -2.4990 -0.7645  0.0679
  142OSM      N15536   4.194   5.658   6.564 -0.3857  0.0177 -0.1272
  142OSM    C1515537   4.271   5.642   6.434 -0.2408 -1.4309 -0.2722
  142OSM   H15A15538   4.209   5.667   6.349  0.3245  0.0138 -0.3027
  142OSM   H15B15539   4.309   5.542   6.427 -1.2366 -1.8606  0.2002
  142OSM   H15C15540   4.354   5.711   6.433 -0.2386 -1.4423 -0.9337
  142OSM    C1415541   4.120   5.527   6.564  0.1551 -0.4479 -0.4072
  142OSM   H14A15542   4.070   5.511   6.659  0.2798 -1.3001 -0.4793
  142OSM   H14B15543   4.178   5.442   6.533  0.2155 -0.6872  0.3477
  142OSM   H14C15544   4.029   5.537   6.507 -0.9580  0.6219  1.4250
  142OSM    C1315545   4.285   5.677   6.680 -0.7274 -0.1685  0.1778
  142OSM   H13A15546   4.355   5.760   6.677  1.4012 -1.8642  0.6648
  142OSM   H13B15547   4.343   5.591   6.708  2.2192  1.6784  0.2163
  142OSM   H13C15548   4.219   5.704   6.762 -0.6892 -1.7800  0.7590
  142OSM    C1215549   4.090   5.774   6.549  0.6368  0.1483  0.1402
  142OSM   H12A15550   4.144   5.866   6.538  2.3702 -0.8616 -0.0809
  142OSM   H12B15551   4.034   5.778   6.641 -0.4439  0.6399 -0.5129
  142OSM    C1115552   3.975   5.769   6.440 -1.0198  0.1053 -0.2008
  142OSM   H11A15553   4.030   5.742   6.347 -0.3033  1.8695 -0.3320
  142OSM   H11B15554   3.931   5.870   6.426 -0.4683  0.4177  0.2738
  142OSM      P15555   3.728   5.681   6.451 -0.0955 -0.0348  0.2365
  142OSM    O1315556   3.668   5.547   6.431  0.0659 -0.7942  0.2306
  142OSM    O1415557   3.674   5.757   6.565 -0.0841  0.7472  0.1891
  142OSM    O1115558   3.702   5.764   6.316 -0.8059 -0.3054  0.6957
  142OSM    O1215559   3.880   5.665   6.471 -0.7648 -0.3607 -0.6026
  142OSM    C1S15560   3.760   5.699   6.194  0.0123  0.9940 -0.1726
  142OSM    H1S15561   3.720   5.597   6.179  1.8734 -0.3927  3.2922
  142OSM    H1T15562   3.870   5.690   6.210 -0.0327 -1.4287 -0.9396
  142OSM     NF15563   3.787   5.711   5.946 -0.5155  0.1155  0.4514
  142OSM    HNF15564   3.868   5.743   5.898  0.4773 -1.7500  0.7659
  142OSM    C2S15565   3.750   5.786   6.066 -0.2053  0.3765 -0.2411
  142OSM    H2S15566   3.641   5.806   6.053  0.0651  2.1899 -0.0024
  142OSM    C3S15567   3.827   5.914   6.091  0.4776 -0.2190  0.7058
  142OSM    H3S15568   3.929   5.883   6.122  2.1654  1.9242 -2.2400
  142OSM     O315569   3.784   5.993   6.207 -0.1885 -0.1385 -0.2783
  142OSM    HO315570   3.747   5.920   6.258 -1.0300 -0.3236 -1.1235
  142OSM    C4S15571   3.837   5.996   5.963  0.2823 -0.6422 -0.2754
  142OSM    H4S15572   3.908   5.965   5.885 -1.4849 -0.8872 -1.8532
  142OSM    C5S15573   3.773   6.115   5.944 -0.8285  0.9758  0.0835
  142OSM    H5S15574   3.707   6.154   6.023  0.9563  0.6363  1.8173
  142OSM    C6S15575   3.790   6.208   5.830 -0.2928  0.5542 -0.3791
  142OSM    H6S15576   3.842   6.296   5.870 -0.5008 -0.3091  1.9202
  142OSM    H6T15577   3.685   6.235   5.804 -0.3421  1.0875  0.3674
  142OSM    C7S15578   3.870   6.176   5.694  0.2095 -0.8554 -0.3615
  142OSM    H7S15579   3.805   6.095   5.656 -0.0343 -1.2751  0.8853
  142OSM    H7T15580   3.973   6.142   5.719 -0.9183 -4.2368  0.1137
  142OSM    C8S15581   3.870   6.300   5.603 -0.1257  0.2678  0.5347
  142OSM    H8S15582   3.926   6.382   5.653  1.5655 -1.1063  0.9894
  142OSM    H8T15583   3.762   6.322   5.592 -0.4674 -1.1459  0.9141
  142OSM    C9S15584   3.927   6.274   5.461  0.0209 -0.6615 -0.0979
  142OSM    H9S15585   3.852   6.211   5.408  0.2322 -1.4463  0.5217
  142OSM    H9T15586   4.020   6.215   5.473  0.2554 -0.5929 -1.4368
  142OSM   C10S15587   3.967   6.394   5.376 -0.0192  0.1214 -0.2583
  142OSM   H10S15588   4.037   6.361   5.296 -0.9775 -2.0406 -0.2685
  142OSM   H10T15589   4.028   6.466   5.435 -0.5890  0.4816 -0.1044
  142OSM   C11S15590   3.851   6.462   5.313 -0.2952 -0.0674 -0.0004
  142OSM   H11S15591   3.796   6.519   5.391  1.6506  0.5141  0.9928
  142OSM   H11T15592   3.779   6.384   5.280 -0.9894  0.3070  0.6061
  142OSM   C12S15593   3.892   6.552   5.194 -0.0083  0.3852 -0.6440
  142OSM   H12S15594   3.964   6.497   5.129  1.5390  0.6097  0.8192
  142OSM   H12T15595   3.947   6.635   5.243 -0.2245 -0.4826  1.1720
  142OSM   C13S15596   3.769   6.591   5.119  0.1576 -0.0922  0.5317
  142OSM   H13S15597   3.784   6.680   5.055  1.7474 -1.3133 -0.8851
  142OSM   H13T15598   3.694   6.624   5.194 -1.2922 -1.7145 -0.1314
  142OSM   C14S15599   3.715   6.475   5.032  0.0349 -0.1099 -0.1099
  142OSM   H14S15600   3.751   6.382   5.081  2.2594  1.6775  1.8978
  142OSM   H14T15601   3.745   6.486   4.925  0.4846 -1.1347 -0.1060
  142OSM   C15S15602   3.563   6.454   5.019 -0.2048  0.2258  0.7714
  142OSM   H15S15603   3.537   6.388   5.104 -0.2929  0.5075  0.9673
  142OSM   H15T15604   3.546   6.389   4.931  2.7627 -1.0952  1.0455
  142OSM   C16S15605   3.465   6.573   5.002 -0.6241  0.0599  0.2604
  142OSM   H16S15606   3.515   6.638   4.927 -0.0034  0.7055  1.2172
  142OSM   H16T15607   3.453   6.629   5.097  0.5458 -1.7828  1.5603
  142OSM   C17S15608   3.328   6.537   4.935  0.2709  0.2480  0.0164
  142OSM   H17S15609   3.281   6.460   4.999 -1.5847  1.6111  0.3899
  142OSM   H17T15610   3.344   6.477   4.843  0.1857 -0.6438  0.5754
  142OSM   C18S15611   3.229   6.657   4.923  0.0815 -0.9201  0.4368
  142OSM   H18S15612   3.125   6.624   4.902  0.0351  0.2889 -1.4530
  142OSM   H18T15613   3.245   6.723   4.836 -0.5825  2.5838  2.7638
  142OSM   H18U15614   3.236   6.721   5.014  1.8528 -3.2054  2.0292
  142OSM    C1F15615   3.702   5.615   5.890 -0.6218 -0.2864 -0.9462
  142OSM     OF15616   3.627   5.556   5.966  0.2035 -0.5040  0.4535
  142OSM    C2F15617   3.714   5.586   5.743  0.2820 -0.5674 -0.1599
  142OSM    H2F15618   3.820   5.583   5.710  0.4012  2.3764 -0.2687
  142OSM    H2G15619   3.661   5.666   5.688 -3.5344 -2.5238  0.3555
  142OSM    C3F15620   3.636   5.460   5.711 -0.2118  0.4811 -0.1337
  142OSM    H3F15621   3.545   5.453   5.774  0.2800  1.6966  0.7420
  142OSM    H3G15622   3.702   5.373   5.730 -2.1504 -1.3516 -1.2365
  142OSM    C4F15623   3.611   5.470   5.559  0.6326  0.8794 -0.7416
  142OSM    H4F15624   3.700   5.513   5.509  0.2989  3.0235  0.3683
  142OSM    H4G15625   3.532   5.547   5.544 -1.5344 -0.8994  0.8013
  142OSM    C5F15626   3.561   5.339   5.494  0.5392  0.2302 -0.0704
  142OSM    H5F15627   3.470   5.311   5.553  0.4802 -2.9757 -1.4859
  142OSM    H5G15628   3.639   5.264   5.518 -0.8326 -0.8714  1.1866
  142OSM    C6F15629   3.537   5.370   5.346  0.1285  0.2693  0.5615
  142OSM    H6F15630   3.637   5.378   5.297 -0.1711  1.2994  0.0886
  142OSM    H6G15631   3.485   5.468   5.341 -0.8415 -0.2837 -0.8047
  142OSM    C7F15632   3.441   5.270   5.283 -0.0651  0.3061 -0.6514
  142OSM    H7F15633   3.351   5.273   5.348 -0.4585  1.9844 -1.2354
  142OSM    H7G15634   3.498   5.175   5.294  0.1307  0.2673 -1.8685
  142OSM    C8F15635   3.409   5.292   5.140 -0.3859  0.0299  0.5523
  142OSM    H8F15636   3.503   5.312   5.084  1.6995 -3.5535  2.4221
  142OSM    H8G15637   3.344   5.381   5.128  0.1851  0.1715 -2.2265
  142OSM    C9F15638   3.348   5.184   5.054 -1.1486 -0.0692  0.6899
  142OSM    H9F15639   3.238   5.180   5.053 -1.3426  2.8097 -0.7676
  142OSM   C10F15640   3.416   5.098   4.974 -0.3028 -0.4166  0.0221
  142OSM   H10F15641   3.365   5.033   4.902  3.9428 -2.0931 -1.7961
  142OSM   C11F15642   3.573   5.083   4.970 -0.2650  0.0075  0.7215
  142OSM   H11F15643   3.609   5.033   5.062  0.5775  0.4910  0.6694
  142OSM   H11G15644   3.633   5.177   4.966 -0.7937  0.5137  3.3137
  142OSM   C12F15645   3.594   4.998   4.841  0.2435  0.0545  0.3209
  142OSM   H12F15646   3.538   5.041   4.756  0.8197  0.6916  0.2529
  142OSM   H12G15647   3.553   4.896   4.861 -2.6545  0.9268 -0.8003
  142OSM   C13F15648   3.734   4.991   4.794  0.7030  0.1982 -0.4827
  142OSM   H13F15649   3.777   5.091   4.771 -0.6502  1.3695  1.7243
  142OSM   H13G15650   3.742   4.937   4.697  3.0768  0.1410 -0.3278
  142OSM   C14F15651   3.818   4.914   4.896 -0.4311  0.6297 -0.0420
  142OSM   H14F15652   3.776   4.811   4.898 -0.5108  0.6278 -1.1709
  142OSM   H14G15653   3.805   4.953   4.999 -3.1230  0.3799 -0.2237
  142OSM   C15F15654   3.968   4.903   4.878 -0.6239  0.6018 -0.0978
  142OSM   H15F15655   3.996   4.834   4.960 -0.4934 -0.7789 -1.2536
  142OSM   H15G15656   4.009   5.003   4.904  0.8181  0.2730 -0.9732
  142OSM   C16F15657   4.033   4.857   4.746 -0.0705 -0.1430  0.1269
  142OSM   H16F15658   3.967   4.780   4.701 -1.2574  1.4970 -1.0355
  142OSM   H16G15659   4.132   4.811   4.766 -1.3505 -1.3897  4.8570
  142OSM   C17F15660   4.042   4.973   4.635 -0.6470  0.5839 -0.2696
  142OSM   H17F15661   4.041   5.075   4.679  0.9940  0.2028  0.7347
  142OSM   H17G15662   3.940   4.970   4.592 -1.3493 -0.8146  1.3518
  142OSM   C18F15663   4.148   4.952   4.528 -1.1140  0.0231  0.2095
  142OSM   H18F15664   4.251   4.948   4.570 -1.5764  2.2420  1.7516
  142OSM   H18G15665   4.142   5.024   4.443 -0.6172  0.2287  0.3413
  142OSM   H18H15666   4.134   4.854   4.479 -1.8472  0.3510 -0.2640
  143OSM      N15667   2.264   4.509   6.560 -0.6204  0.5338 -0.3258
  143OSM    C1515668   2.406   4.480   6.538  0.1596  0.8764 -1.0489
  143OSM   H15A15669   2.441   4.504   6.439  1.8925 -0.1927 -0.7525
  143OSM   H15B15670   2.433   4.377   6.554  1.6824  1.3915  0.0137
  143OSM   H15C15671   2.464   4.537   6.610 -0.7985 -1.7882  2.1021
  143OSM    C1415672   2.177   4.400   6.494 -0.0273  0.4145 -0.2391
  143OSM   H14A15673   2.192   4.300   6.533 -0.8675  0.6615  0.7909
  143OSM   H14B15674   2.196   4.386   6.389 -1.1511  0.5531 -0.4713
  143OSM   H14C15675   2.072   4.420   6.506  0.0290  0.4429  0.2250
  143OSM    C1315676   2.230   4.507   6.708  0.3422 -1.0819 -0.1016
  143OSM   H13A15677   2.298   4.562   6.772  0.4366 -0.4350 -0.7411
  143OSM   H13B15678   2.229   4.404   6.740 -0.4475 -0.8281  0.7442
  143OSM   H13C15679   2.129   4.544   6.721 -0.4658 -3.3003  0.2949
  143OSM    C1215680   2.234   4.651   6.508  0.1432  1.1299  0.2936
  143OSM   H12A15681   2.318   4.715   6.530  0.1364  1.6882 -1.1750
  143OSM   H12B15682   2.145   4.691   6.554 -1.4273 -1.1818 -0.5821
  143OSM    C1115683   2.215   4.672   6.350 -0.3549 -0.4375 -0.1163
  143OSM   H11A15684   2.208   4.781   6.331 -3.2038  0.3103  3.8612
  143OSM   H11B15685   2.116   4.628   6.325 -0.7228 -0.0631  0.6248
  143OSM      P15686   2.442   4.704   6.225 -0.2105 -0.2066 -0.6215
  143OSM    O1315687   2.434   4.840   6.288  0.0496 -0.6710 -0.1168
  143OSM    O1415688   2.567   4.628   6.254 -0.5452 -0.1272 -0.1744
  143OSM    O1115689   2.419   4.715   6.070  0.0272 -0.1067  0.3453
  143OSM    O1215690   2.317   4.618   6.269 -1.1645  0.1436  0.0589
  143OSM    C1S15691   2.387   4.598   5.989 -0.9626  0.6986 -0.6721
  143OSM    H1S15692   2.410   4.503   6.040 -1.4352  1.1287  0.3669
  143OSM    H1T15693   2.461   4.602   5.905  0.4367  1.4878  0.5534
  143OSM     NF15694   2.231   4.475   5.854  0.3324 -0.1368  0.1911
  143OSM    HNF15695   2.252   4.496   5.759  0.0315  0.2332  0.2054
  143OSM    C2S15696   2.248   4.600   5.927 -0.3337 -0.4509 -0.1309
  143OSM    H2S15697   2.172   4.599   6.008 -0.8345  1.0577 -0.5606
  143OSM    C3S15698   2.226   4.726   5.834 -0.2993  0.2954  0.5857
  143OSM    H3S15699   2.307   4.733   5.759  0.2548  1.2804  1.2495
  143OSM     O315700   2.231   4.848   5.906  0.5988 -0.3478 -0.3253
  143OSM    HO315701   2.280   4.819   5.983  1.4448  0.4408 -0.5550
  143OSM    C4S15702   2.097   4.711   5.757 -0.0894 -0.1612 -0.8601
  143OSM    H4S15703   2.098   4.639   5.674 -2.3535 -1.8914  0.4775
  143OSM    C5S15704   1.987   4.787   5.763  0.4291 -0.0319  0.8600
  143OSM    H5S15705   2.007   4.883   5.814  1.7381 -1.1248  2.5033
  143OSM    C6S15706   1.869   4.775   5.669  0.8288  0.6029  0.9415
  143OSM    H6S15707   1.776   4.811   5.719  0.0402 -1.0745  0.7437
  143OSM    H6T15708   1.848   4.668   5.646  1.9132  0.4438  0.6395
  143OSM    C7S15709   1.898   4.832   5.525 -0.0803  0.5676  0.5955
  143OSM    H7S15710   1.980   4.779   5.472 -0.4983 -0.1165  0.6261
  143OSM    H7T15711   1.935   4.935   5.547  1.7566 -0.2024  1.3279
  143OSM    C8S15712   1.776   4.832   5.428  0.7667 -0.4810  0.3294
  143OSM    H8S15713   1.795   4.912   5.353  0.0397 -0.3803  0.2485
  143OSM    H8T15714   1.682   4.866   5.477 -0.3396 -1.6303 -0.9129
  143OSM    C9S15715   1.746   4.696   5.363 -1.4308  0.7440  0.1124
  143OSM    H9S15716   1.644   4.674   5.400 -1.2693  1.6494  1.1603
  143OSM    H9T15717   1.813   4.616   5.400 -0.7057  1.1397 -0.3064
  143OSM   C10S15718   1.744   4.695   5.209  0.9479  0.0881 -0.0886
  143OSM   H10S15719   1.847   4.701   5.169  0.5790 -1.2213 -1.2733
  143OSM   H10T15720   1.685   4.780   5.167  0.7034 -0.9661 -1.9711
  143OSM   C11S15721   1.680   4.563   5.156 -0.1144 -0.1182 -0.1092
  143OSM   H11S15722   1.577   4.552   5.196 -1.5665  1.8069 -2.9627
  143OSM   H11T15723   1.737   4.473   5.187 -2.1342 -2.1103 -1.8368
  143OSM   C12S15724   1.669   4.569   4.998 -0.1592 -0.0997 -0.9081
  143OSM   H12S15725   1.709   4.666   4.964 -1.6017  0.1459 -2.0421
  143OSM   H12T15726   1.560   4.576   4.977 -0.2678  0.1383 -0.2701
  143OSM   C13S15727   1.740   4.457   4.931 -0.2856 -0.4834 -0.6056
  143OSM   H13S15728   1.846   4.450   4.963 -0.4978  0.1911  0.2736
  143OSM   H13T15729   1.739   4.480   4.822  0.5459  1.8463 -0.1867
  143OSM   C14S15730   1.677   4.322   4.946  0.4477  0.8649 -0.6908
  143OSM   H14S15731   1.566   4.328   4.942  0.3023  1.4024  2.1376
  143OSM   H14T15732   1.704   4.283   5.047 -0.6120 -1.0207 -1.0726
  143OSM   C15S15733   1.715   4.218   4.843 -0.1614  0.2308  0.8520
  143OSM   H15S15734   1.825   4.200   4.846  0.0306 -0.0184 -2.7990
  143OSM   H15T15735   1.701   4.264   4.743  0.1632 -0.4044  0.5114
  143OSM   C16S15736   1.631   4.095   4.838  0.2603  0.2013  0.1837
  143OSM   H16S15737   1.653   4.035   4.747 -0.4744  1.4466 -0.8538
  143OSM   H16T15738   1.526   4.131   4.835  0.1480  0.2283  2.6917
  143OSM   C17S15739   1.645   4.002   4.960 -0.5680 -0.1765 -0.0965
  143OSM   H17S15740   1.571   3.921   4.943 -0.0016 -0.4056 -1.6070
  143OSM   H17T15741   1.624   4.067   5.048 -0.2425  0.4013 -0.4360
  143OSM   C18S15742   1.782   3.938   4.988 -0.1980  0.2133 -0.6237
  143OSM   H18S15743   1.861   4.016   4.989 -0.3137  0.3410  0.8994
  143OSM   H18T15744   1.797   3.852   4.919  2.7523 -1.3639  1.7562
  143OSM   H18U15745   1.785   3.901   5.092 -1.5695  1.0608 -0.2551
  143OSM    C1F15746   2.216   4.353   5.898 -0.3184  0.3443  1.2155
  143OSM     OF15747   2.232   4.332   6.013 -0.0681  0.1418  0.3724
  143OSM    C2F15748   2.198   4.242   5.799 -0.0616 -0.4084  0.1003
  143OSM    H2F15749   2.182   4.274   5.694  1.1908  0.2235  0.0780
  143OSM    H2G15750   2.102   4.191   5.818  0.5705 -1.0376  1.7729
  143OSM    C3F15751   2.317   4.139   5.806 -0.0601  0.3054  0.0831
  143OSM    H3F15752   2.282   4.057   5.873 -0.9451 -0.0398 -0.7808
  143OSM    H3G15753   2.397   4.187   5.867 -0.7487 -0.3544  1.5718
  143OSM    C4F15754   2.385   4.092   5.674  0.3148  0.3171 -0.4745
  143OSM    H4F15755   2.481   4.043   5.699 -0.0516 -1.0706 -1.6456
  143OSM    H4G15756   2.401   4.189   5.621  0.5070  0.4973 -0.0919
  143OSM    C5F15757   2.296   4.005   5.596 -0.3329  0.1923  0.3495
  143OSM    H5F15758   2.203   4.063   5.576 -1.5522 -1.8416 -0.1903
  143OSM    H5G15759   2.262   3.923   5.663  1.0825 -0.8046 -0.1256
  143OSM    C6F15760   2.341   3.951   5.457 -0.2462 -0.0981  0.1317
  143OSM    H6F15761   2.420   3.873   5.466 -0.2409 -0.3624 -1.7439
  143OSM    H6G15762   2.396   4.029   5.400  2.4413 -2.1012 -0.1881
  143OSM    C7F15763   2.226   3.892   5.379  0.5751 -0.2688  0.8879
  143OSM    H7F15764   2.135   3.953   5.397 -0.1361 -0.8540 -0.5522
  143OSM    H7G15765   2.204   3.784   5.396  1.4618 -0.9858 -1.9621
  143OSM    C8F15766   2.265   3.902   5.223  0.0942 -0.1759 -0.1942
  143OSM    H8F15767   2.362   3.850   5.206  0.6716  0.6517  0.4805
  143OSM    H8G15768   2.294   4.009   5.215  0.4375  0.1020  3.3357
  143OSM    C9F15769   2.154   3.845   5.132 -0.0807 -0.1592  0.3631
  143OSM    H9F15770   2.080   3.783   5.185  0.0597 -0.5748  0.0810
  143OSM   C10F15771   2.151   3.870   4.993  1.0747  0.5569  0.1958
  143OSM   H10F15772   2.073   3.819   4.936 -0.0852  2.5006 -0.0475
  143OSM   C11F15773   2.247   3.950   4.910 -0.0735  0.0953  0.2494
  143OSM   H11F15774   2.333   3.990   4.969  0.7932  2.9634 -2.6517
  143OSM   H11G15775   2.194   4.039   4.868  0.3673  0.1441 -0.2169
  143OSM   C12F15776   2.332   3.879   4.798  0.0446  0.4887 -0.2715
  143OSM   H12F15777   2.385   3.960   4.743  0.7438  0.5783  0.5142
  143OSM   H12G15778   2.264   3.833   4.723  0.1714 -0.6294  0.2852
  143OSM   C13F15779   2.433   3.771   4.841 -0.3373 -0.3916 -1.0462
  143OSM   H13F15780   2.390   3.707   4.921  1.9404  1.5830  1.9666
  143OSM   H13G15781   2.529   3.810   4.881  1.0896 -1.0357 -3.5961
  143OSM   C14F15782   2.469   3.678   4.729  0.3070  0.1908  0.3242
  143OSM   H14F15783   2.548   3.725   4.666  0.9785  2.5161  2.7074
  143OSM   H14G15784   2.385   3.641   4.668  1.4422  1.6305 -2.2617
  143OSM   C15F15785   2.536   3.554   4.777  0.5415  0.1177 -0.1694
  143OSM   H15F15786   2.474   3.514   4.860 -0.7642  1.4068 -0.4855
  143OSM   H15G15787   2.637   3.565   4.820  0.4932 -2.6973  0.9181
  143OSM   C16F15788   2.553   3.443   4.664 -0.3431 -0.2276  0.0969
  143OSM   H16F15789   2.636   3.470   4.594  1.3950  0.1826  2.1966
  143OSM   H16G15790   2.461   3.445   4.602  1.9558  0.0669 -3.6791
  143OSM   C17F15791   2.574   3.307   4.724 -0.4345  0.4738 -0.4845
  143OSM   H17F15792   2.489   3.291   4.794  1.4508 -0.9547  1.6395
  143OSM   H17G15793   2.665   3.316   4.787 -1.3261  0.4599  0.8402
  143OSM   C18F15794   2.583   3.189   4.630 -0.1273 -0.7778  0.4467
  143OSM   H18F15795   2.511   3.194   4.545 -2.1153  1.4228  2.1355
  143OSM   H18G15796   2.574   3.089   4.677  0.7144 -0.0248  2.2847
  143OSM   H18H15797   2.680   3.192   4.576 -0.4163 -0.2225 -0.0594
  144OSM      N15798   2.987   4.391   6.900 -0.4954  0.2389 -0.2961
  144OSM    C1515799   2.969   4.277   6.998  0.2845 -0.4601  0.1912
  144OSM   H15A15800   2.961   4.184   6.943  2.5441 -1.3126  1.1785
  144OSM   H15B15801   2.888   4.285   7.070  2.2049 -0.7679  2.4972
  144OSM   H15C15802   3.059   4.272   7.057  0.7739  1.6400 -0.3072
  144OSM    C1415803   3.015   4.523   6.985 -0.5466 -0.6420  0.3003
  144OSM   H14A15804   3.029   4.611   6.924 -0.7270 -0.8257 -0.0108
  144OSM   H14B15805   3.102   4.508   7.047  0.5590 -1.1902 -1.3140
  144OSM   H14C15806   2.933   4.532   7.054 -0.9138  1.7863 -0.3737
  144OSM    C1315807   3.118   4.365   6.824 -0.0653 -0.4119  0.0135
  144OSM   H13A15808   3.126   4.269   6.775 -0.0321 -2.0389  2.9476
  144OSM   H13B15809   3.194   4.356   6.900 -2.7372 -1.6281  2.7377
  144OSM   H13C15810   3.132   4.451   6.761 -1.0902 -0.6372 -0.5440
  144OSM    C1215811   2.875   4.405   6.803  0.2600 -0.4593 -0.6314
  144OSM   H12A15812   2.786   4.442   6.852  0.2502  1.3099 -1.8694
  144OSM   H12B15813   2.861   4.306   6.763  0.8822 -2.3071  3.2892
  144OSM    C1115814   2.885   4.500   6.682  0.2916 -0.5897 -0.1518
  144OSM   H11A15815   2.914   4.602   6.717 -1.8168  0.8641 -2.3677
  144OSM   H11B15816   2.783   4.520   6.644  0.2554  0.1763  0.3231
  144OSM      P15817   3.015   4.555   6.461  0.3172 -0.1999 -0.4468
  144OSM    O1315818   2.885   4.622   6.420 -0.4754  0.3708  0.0940
  144OSM    O1415819   3.128   4.634   6.511 -0.1023 -0.0588  0.0748
  144OSM    O1115820   3.060   4.461   6.346 -0.3688 -0.2041 -0.2177
  144OSM    O1215821   2.967   4.451   6.576 -0.5124 -0.0562  0.1225
  144OSM    C1S15822   3.137   4.349   6.368  0.0778 -0.4671 -0.2213
  144OSM    H1S15823   3.082   4.272   6.427 -1.6413  0.0764 -1.0422
  144OSM    H1T15824   3.234   4.370   6.418  0.2021 -0.5970 -0.4090
  144OSM     NF15825   3.242   4.160   6.254  0.1138 -0.3122 -0.2733
  144OSM    HNF15826   3.339   4.153   6.231  0.5584  1.3810  0.8786
  144OSM    C2S15827   3.175   4.285   6.225  0.3417 -0.7871  0.5287
  144OSM    H2S15828   3.077   4.261   6.177  0.2125  1.0842 -0.2178
  144OSM    C3S15829   3.243   4.385   6.133  0.1661 -0.0159  0.6938
  144OSM    H3S15830   3.331   4.432   6.182  0.4479  0.1655  0.0337
  144OSM     O315831   3.164   4.502   6.116 -0.2232 -0.5345 -0.1406
  144OSM    HO315832   3.118   4.512   6.200 -0.3309 -2.4962  0.0975
  144OSM    C4S15833   3.288   4.327   6.004  0.3834 -0.0636 -0.3510
  144OSM    H4S15834   3.219   4.249   5.969 -0.6589  0.6637  0.0576
  144OSM    C5S15835   3.403   4.349   5.937  0.2542  0.0346 -0.3614
  144OSM    H5S15836   3.481   4.408   5.987  0.6108 -2.4411  2.3337
  144OSM    C6S15837   3.453   4.282   5.815 -0.0706  1.1093  0.1198
  144OSM    H6S15838   3.543   4.218   5.824 -1.1226 -0.9028 -2.3765
  144OSM    H6T15839   3.477   4.364   5.744 -1.1814  1.3007 -0.0514
  144OSM    C7S15840   3.341   4.195   5.744  0.0941  0.6550  0.3041
  144OSM    H7S15841   3.247   4.254   5.733 -1.9590 -2.3016  0.6048
  144OSM    H7T15842   3.319   4.105   5.805  1.7406  0.2166  0.2957
  144OSM    C8S15843   3.381   4.138   5.602 -0.5778 -0.1449  0.7539
  144OSM    H8S15844   3.462   4.062   5.596 -0.6185 -0.0676 -1.7807
  144OSM    H8T15845   3.423   4.221   5.540  1.2398  0.3969  2.5767
  144OSM    C9S15846   3.263   4.092   5.518 -0.6528  0.3060  0.0067
  144OSM    H9S15847   3.189   4.169   5.490  0.1474  0.8861 -0.5638
  144OSM    H9T15848   3.218   4.000   5.560 -0.8490  0.7084  0.6845
  144OSM   C10S15849   3.316   4.046   5.382 -0.4436 -0.1660 -0.1497
  144OSM   H10S15850   3.382   4.121   5.333 -1.3101  0.4925 -0.3172
  144OSM   H10T15851   3.223   4.026   5.325 -2.2234 -0.6366  2.6702
  144OSM   C11S15852   3.397   3.914   5.388 -0.1227 -0.1434 -0.1515
  144OSM   H11S15853   3.364   3.858   5.479  0.0728 -0.3443 -0.2058
  144OSM   H11T15854   3.505   3.935   5.396 -0.5837  2.4069  0.0511
  144OSM   C12S15855   3.376   3.826   5.257  0.5484 -0.4542  0.0288
  144OSM   H12S15856   3.266   3.810   5.249  0.5444 -0.0670 -0.8854
  144OSM   H12T15857   3.432   3.731   5.269  1.1708 -0.2173 -0.9397
  144OSM   C13S15858   3.422   3.887   5.123  0.1615 -0.5508 -0.4712
  144OSM   H13S15859   3.533   3.887   5.129  0.1752  1.9849  0.7642
  144OSM   H13T15860   3.379   3.989   5.125  0.9916 -0.2010  0.0385
  144OSM   C14S15861   3.373   3.805   5.009 -0.6631  0.4706  0.1492
  144OSM   H14S15862   3.262   3.813   5.008 -0.6027  1.5440  0.6470
  144OSM   H14T15863   3.384   3.699   5.040 -1.8333  0.9278  2.3134
  144OSM   C15S15864   3.438   3.840   4.871  0.8591 -0.0419 -0.2369
  144OSM   H15S15865   3.407   3.770   4.791 -3.1794  1.6872 -0.4344
  144OSM   H15T15866   3.546   3.819   4.885  0.6901 -3.0984 -2.6223
  144OSM   C16S15867   3.397   3.970   4.815 -0.2888  0.0785 -0.1079
  144OSM   H16S15868   3.389   4.041   4.900  2.6528 -1.4229  1.5952
  144OSM   H16T15869   3.295   3.950   4.777 -0.6209  0.6869  0.4450
  144OSM   C17S15870   3.499   4.017   4.709 -0.2618 -0.2781  0.6057
  144OSM   H17S15871   3.514   3.928   4.645 -1.7394 -2.2037  2.7921
  144OSM   H17T15872   3.595   4.029   4.763 -1.3899  0.3016  2.6072
  144OSM   C18S15873   3.459   4.139   4.621  0.1087  0.1758  0.1100
  144OSM   H18S15874   3.387   4.111   4.542 -0.1123 -0.2352  0.4464
  144OSM   H18T15875   3.554   4.192   4.599 -0.6946  2.1710  1.2328
  144OSM   H18U15876   3.406   4.205   4.693 -0.8008 -2.3793  1.9272
  144OSM    C1F15877   3.181   4.057   6.308 -0.0066  0.4539 -0.1366
  144OSM     OF15878   3.060   4.054   6.340  0.5294 -0.4859 -0.5930
  144OSM    C2F15879   3.270   3.934   6.321 -0.7850  0.4587  0.3593
  144OSM    H2F15880   3.236   3.904   6.422  0.8640  0.3550  0.9120
  144OSM    H2G15881   3.378   3.957   6.338 -0.0979 -2.5059  0.4368
  144OSM    C3F15882   3.243   3.827   6.210  0.2303  0.7325  0.4215
  144OSM    H3F15883   3.135   3.802   6.223  0.3268  0.9248  1.6693
  144OSM    H3G15884   3.318   3.749   6.234  0.8178  1.2089  0.1368
  144OSM    C4F15885   3.268   3.871   6.070 -0.2789  0.2710  0.8356
  144OSM    H4F15886   3.369   3.916   6.082 -0.4977  0.3156  2.8173
  144OSM    H4G15887   3.191   3.943   6.034  0.0781 -0.1803 -0.9308
  144OSM    C5F15888   3.266   3.761   5.958  0.4523  0.2131  0.0382
  144OSM    H5F15889   3.158   3.735   5.956 -0.4026  3.4536 -0.6502
  144OSM    H5G15890   3.316   3.672   6.002  1.2573  1.7187  2.3785
  144OSM    C6F15891   3.305   3.801   5.817 -0.2460 -0.6459 -0.9871
  144OSM    H6F15892   3.405   3.850   5.818 -1.2785  1.5655 -0.1494
  144OSM    H6G15893   3.232   3.879   5.786 -1.8063 -1.9326 -0.6966
  144OSM    C7F15894   3.289   3.682   5.726  0.4177  0.6540  0.7391
  144OSM    H7F15895   3.306   3.709   5.620 -0.2143  2.5623  1.0845
  144OSM    H7G15896   3.179   3.662   5.722  0.4222  0.7818 -2.7973
  144OSM    C8F15897   3.373   3.551   5.754 -0.2054  0.9132 -0.0171
  144OSM    H8F15898   3.345   3.472   5.681  2.5865  1.3141 -1.6533
  144OSM    H8G15899   3.347   3.509   5.854 -0.3699  0.3433 -0.2960
  144OSM    C9F15900   3.518   3.582   5.727 -0.1577 -0.0719 -0.7142
  144OSM    H9F15901   3.575   3.587   5.820  0.3872 -1.7174 -0.9296
  144OSM   C10F15902   3.583   3.581   5.608 -0.1374  0.6950 -0.3163
  144OSM   H10F15903   3.689   3.610   5.611  0.0367  0.0582  1.7522
  144OSM   C11F15904   3.518   3.565   5.473  0.3464  0.1435 -0.2185
  144OSM   H11F15905   3.552   3.652   5.412  1.0831  0.2288  0.3014
  144OSM   H11G15906   3.407   3.563   5.471  0.3371 -0.2002 -2.4261
  144OSM   C12F15907   3.579   3.441   5.396  0.5440 -0.3928 -0.7948
  144OSM   H12F15908   3.538   3.347   5.440  1.0264 -0.9662 -1.5513
  144OSM   H12G15909   3.686   3.436   5.425  0.4026 -1.7055 -0.4298
  144OSM   C13F15910   3.564   3.454   5.251 -0.4820 -0.7306 -0.2363
  144OSM   H13F15911   3.629   3.540   5.224 -1.3172  0.3754  1.0797
  144OSM   H13G15912   3.462   3.488   5.222 -0.7827 -1.5018 -0.0951
  144OSM   C14F15913   3.599   3.335   5.161 -0.6811 -0.1299  0.1653
  144OSM   H14F15914   3.526   3.260   5.199  1.1104 -1.0824  1.9191
  144OSM   H14G15915   3.698   3.292   5.188 -1.2230 -1.7959 -0.4001
  144OSM   C15F15916   3.569   3.360   5.017 -0.4127 -0.0301  0.6332
  144OSM   H15F15917   3.637   3.437   4.975 -0.1671 -0.5183  0.1152
  144OSM   H15G15918   3.466   3.402   5.014 -0.6190 -0.5325  0.6265
  144OSM   C16F15919   3.579   3.229   4.935 -1.4163  0.0560  0.1810
  144OSM   H16F15920   3.539   3.242   4.832 -0.5437  2.7067  0.1126
  144OSM   H16G15921   3.513   3.151   4.979  0.5013 -0.2932  2.6227
  144OSM   C17F15922   3.721   3.170   4.936 -0.2442 -0.3485 -0.0564
  144OSM   H17F15923   3.735   3.131   5.039  0.1690  1.5052  0.6351
  144OSM   H17G15924   3.788   3.258   4.922  1.1924 -0.8007  3.0758
  144OSM   C18F15925   3.734   3.056   4.831  0.2745 -0.2598  0.0880
  144OSM   H18F15926   3.693   3.094   4.735 -2.0238  0.0889  1.1522
  144OSM   H18G15927   3.668   2.970   4.858 -0.4380 -0.5576 -2.3416
  144OSM   H18H15928   3.841   3.028   4.828  0.5761  0.7456  1.1799
  145OSM      N15929   5.162   4.790   6.609 -0.6309  0.4286  0.1575
  145OSM    C1515930   5.200   4.923   6.666  0.8439 -0.5188 -0.2660
  145OSM   H15A15931   5.152   4.944   6.760 -1.0560  1.5217 -1.5994
  145OSM   H15B15932   5.152   4.998   6.605 -1.9348 -2.0915 -0.1533
  145OSM   H15C15933   5.305   4.944   6.681 -0.0080  1.5190  5.7534
  145OSM    C1415934   5.196   4.695   6.717  0.7523 -1.2482  0.5108
  145OSM   H14A15935   5.296   4.703   6.756  1.0326 -1.6295 -0.1224
  145OSM   H14B15936   5.177   4.591   6.694 -0.3647 -1.2463  1.3237
  145OSM   H14C15937   5.126   4.713   6.797  0.8884  1.6900  0.0699
  145OSM    C1315938   5.014   4.789   6.581  0.0877  0.7637  0.3561
  145OSM   H13A15939   4.995   4.866   6.507  0.3025  1.3444  0.8974
  145OSM   H13B15940   4.961   4.804   6.674 -0.0821  1.1327  0.2053
  145OSM   H13C15941   4.983   4.699   6.531  0.5351 -0.9106  2.9220
  145OSM    C1215942   5.243   4.742   6.486  0.1080  0.0655  0.3364
  145OSM   H12A15943   5.347   4.764   6.503  0.4426  0.0239 -1.4420
  145OSM   H12B15944   5.214   4.801   6.400 -0.3336 -0.9454 -0.2186
  145OSM    C1115945   5.216   4.597   6.436  0.5177 -0.6776 -0.3592
  145OSM   H11A15946   5.243   4.571   6.332 -0.8175  0.8733 -1.1399
  145OSM   H11B15947   5.106   4.589   6.445  0.6959 -0.6153  3.5576
  145OSM      P15948   5.426   4.476   6.531  0.0270  0.0254 -0.5789
  145OSM    O1315949   5.488   4.597   6.599 -0.6259  0.6868  0.2867
  145OSM    O1415950   5.453   4.344   6.589  0.5538  0.3578  0.5002
  145OSM    O1115951   5.462   4.473   6.383  0.3154  0.1772 -0.2314
  145OSM    O1215952   5.268   4.500   6.529 -0.0600  0.2196 -0.0166
  145OSM    C1S15953   5.410   4.376   6.294  0.4233  0.2750  0.8157
  145OSM    H1S15954   5.310   4.343   6.330  0.8903 -1.5872  0.4824
  145OSM    H1T15955   5.479   4.290   6.303  3.2301  2.4586  1.7396
  145OSM     NF15956   5.331   4.319   6.066  0.3493  1.1675  0.2638
  145OSM    HNF15957   5.389   4.243   6.041 -2.0129 -0.5170 -0.4351
  145OSM    C2S15958   5.392   4.424   6.148  0.4985 -0.1734  0.0719
  145OSM    H2S15959   5.328   4.514   6.155  2.4600  1.3633 -0.7512
  145OSM    C3S15960   5.528   4.481   6.090 -0.3706 -0.6670 -0.2770
  145OSM    H3S15961   5.597   4.396   6.072  2.2670  1.1725  0.5504
  145OSM     O315962   5.606   4.571   6.170 -0.2077  0.3003 -0.0133
  145OSM    HO315963   5.583   4.544   6.259 -0.0029  0.0734 -0.0292
  145OSM    C4S15964   5.512   4.554   5.959  0.4988  0.0869  0.0929
  145OSM    H4S15965   5.577   4.509   5.882  0.3697  2.2872 -1.4208
  145OSM    C5S15966   5.457   4.666   5.925 -0.4475  0.1103 -0.5359
  145OSM    H5S15967   5.431   4.738   6.003  1.1008 -0.3583  0.4507
  145OSM    C6S15968   5.467   4.730   5.793  0.0638  0.8203  0.7394
  145OSM    H6S15969   5.553   4.800   5.795  1.4462 -0.8346  0.4295
  145OSM    H6T15970   5.373   4.786   5.774 -0.5767  0.1667  1.8184
  145OSM    C7S15971   5.494   4.641   5.673 -0.9595 -0.4522 -0.5611
  145OSM    H7S15972   5.422   4.556   5.676 -0.5183 -0.8175 -0.0194
  145OSM    H7T15973   5.596   4.599   5.658  0.1817  1.3006  1.7309
  145OSM    C8S15974   5.472   4.717   5.532  0.5690  0.6819  0.2488
  145OSM    H8S15975   5.541   4.804   5.529  0.6291  0.6573  0.7704
  145OSM    H8T15976   5.372   4.763   5.525  0.1703 -0.4107 -3.7181
  145OSM    C9S15977   5.482   4.621   5.409  0.4701 -0.1407 -0.3618
  145OSM    H9S15978   5.409   4.538   5.421 -1.3053  1.3857 -0.0602
  145OSM    H9T15979   5.583   4.578   5.395  0.2051 -0.8917  0.0058
  145OSM   C10S15980   5.442   4.700   5.287  0.4860  0.6065  0.2774
  145OSM   H10S15981   5.505   4.792   5.283 -0.7479  1.5366  1.3237
  145OSM   H10T15982   5.340   4.744   5.295  0.0819 -0.4721  1.4486
  145OSM   C11S15983   5.438   4.611   5.160  0.5962 -0.3469  0.4078
  145OSM   H11S15984   5.377   4.521   5.183  0.0960 -0.0411  0.2987
  145OSM   H11T15985   5.541   4.579   5.135  0.3819  0.0336 -1.0197
  145OSM   C12S15986   5.372   4.694   5.054  0.2184  0.3435  0.0776
  145OSM   H12S15987   5.448   4.771   5.030  3.2264 -2.8342 -1.3386
  145OSM   H12T15988   5.280   4.738   5.098  0.9712  0.5371  1.5273
  145OSM   C13S15989   5.334   4.611   4.928 -0.0685  0.2087  0.3401
  145OSM   H13S15990   5.243   4.558   4.961  0.9767 -2.1540 -0.3293
  145OSM   H13T15991   5.411   4.536   4.901 -0.8340  0.1780 -2.0657
  145OSM   C14S15992   5.309   4.699   4.808 -0.4472  0.7011  0.1271
  145OSM   H14S15993   5.293   4.635   4.719  0.5625 -1.5378  1.4732
  145OSM   H14T15994   5.394   4.759   4.768 -1.1732 -0.4800 -3.5637
  145OSM   C15S15995   5.193   4.794   4.828  0.4787  0.8138  0.5306
  145OSM   H15S15996   5.213   4.871   4.905  0.1878  0.3233  1.1007
  145OSM   H15T15997   5.104   4.736   4.859  1.2089 -0.2561  0.6988
  145OSM   C16S15998   5.145   4.879   4.701 -0.0962  0.1541  0.4611
  145OSM   H16S15999   5.236   4.939   4.681  0.2407 -0.7418 -0.7992
  145OSM   H16T16000   5.054   4.938   4.726 -0.3758  0.8869 -2.0202
  145OSM   C17S16001   5.109   4.805   4.566  0.0297  0.0468  0.6898
  145OSM   H17S16002   5.037   4.725   4.591  0.7447 -0.3274  1.6114
  145OSM   H17T16003   5.207   4.766   4.531 -0.3514 -0.7676  0.5106
  145OSM   C18S16004   5.041   4.904   4.468  0.4502 -0.0793 -0.0741
  145OSM   H18S16005   5.111   4.978   4.423 -0.5818  0.9977  0.0658
  145OSM   H18T16006   4.968   4.963   4.527  0.5090  1.6584 -1.6434
  145OSM   H18U16007   4.982   4.851   4.391  1.6834 -0.5211 -0.7508
  145OSM    C1F16008   5.202   4.292   6.082  0.9822 -0.6920 -0.0316
  145OSM     OF16009   5.127   4.365   6.141  0.8816  0.0786  0.1798
  145OSM    C2F16010   5.143   4.167   6.022  0.6095  0.2372  0.0010
  145OSM    H2F16011   5.226   4.096   6.003  0.5188  0.7644 -2.6863
  145OSM    H2G16012   5.096   4.198   5.926 -0.4881  1.6130  0.9329
  145OSM    C3F16013   5.035   4.099   6.103  0.4165 -0.0970  0.7891
  145OSM    H3F16014   4.946   4.163   6.123  0.4980  0.1506  0.3764
  145OSM    H3G16015   5.075   4.067   6.201  0.1168  3.9830  2.4460
  145OSM    C4F16016   4.989   3.971   6.026  0.0379  0.0388  0.0658
  145OSM    H4F16017   4.903   3.920   6.075  0.1766 -1.6671 -1.3492
  145OSM    H4G16018   5.072   3.900   6.007  0.2642  0.2041  0.4304
  145OSM    C5F16019   4.931   4.011   5.889  0.5488  0.4945  0.1412
  145OSM    H5F16020   5.020   4.045   5.832  1.3226 -1.2467  0.2464
  145OSM    H5G16021   4.848   4.083   5.907 -0.5572 -1.0819  1.7426
  145OSM    C6F16022   4.860   3.889   5.822  0.2041 -0.1669  0.3019
  145OSM    H6F16023   4.790   3.851   5.899 -1.0268 -1.4953 -1.3699
  145OSM    H6G16024   4.934   3.808   5.804 -0.8558 -1.0565 -0.1441
  145OSM    C7F16025   4.776   3.916   5.689 -0.4333  0.2491  0.5865
  145OSM    H7F16026   4.676   3.951   5.721 -0.9718 -1.1597  0.5060
  145OSM    H7G16027   4.763   3.817   5.640  1.0330  0.2618  0.1183
  145OSM    C8F16028   4.843   4.015   5.592 -0.2375  0.9801 -0.9444
  145OSM    H8F16029   4.869   4.116   5.631 -1.6893  0.6923  0.8411
  145OSM    H8G16030   4.778   4.025   5.502  0.7982 -1.3934 -2.0498
  145OSM    C9F16031   4.970   3.959   5.547 -0.1888 -0.3458  0.0563
  145OSM    H9F16032   5.030   3.913   5.627  1.5240 -0.2389 -1.1040
  145OSM   C10F16033   5.019   3.965   5.423 -0.4245 -0.1958  0.0247
  145OSM   H10F16034   5.121   3.926   5.405  0.0491  0.4925  1.1022
  145OSM   C11F16035   4.956   4.023   5.294  0.1600 -0.1203 -0.6723
  145OSM   H11F16036   5.025   4.069   5.221  0.2582  0.6451 -0.1082
  145OSM   H11G16037   4.883   4.104   5.315  0.5614 -0.1434  0.9830
  145OSM   C12F16038   4.873   3.909   5.220 -0.3107 -0.7412 -0.0594
  145OSM   H12F16039   4.802   3.866   5.293  0.9529  2.3282  3.2431
  145OSM   H12G16040   4.937   3.822   5.193 -1.2690 -1.2201 -0.8895
  145OSM   C13F16041   4.801   3.979   5.106 -0.0520  0.5041 -0.0564
  145OSM   H13F16042   4.875   4.032   5.042 -0.6795  0.9724 -0.3973
  145OSM   H13G16043   4.732   4.052   5.152 -0.3932 -0.5964  1.2269
  145OSM   C14F16044   4.715   3.886   5.020 -0.3961 -0.7200 -0.6382
  145OSM   H14F16045   4.652   3.936   4.944 -1.8959 -1.8144 -0.1634
  145OSM   H14G16046   4.642   3.846   5.094  0.3749  0.8597  1.0513
  145OSM   C15F16047   4.794   3.774   4.960  0.3222  0.0700  0.0304
  145OSM   H15F16048   4.822   3.708   5.045 -2.0559  0.1502  0.9479
  145OSM   H15G16049   4.878   3.820   4.905  0.0622  0.2786 -0.1950
  145OSM   C16F16050   4.712   3.685   4.863 -0.2171  0.0474 -0.7239
  145OSM   H16F16051   4.784   3.627   4.802 -1.4905 -2.7676  0.3214
  145OSM   H16G16052   4.656   3.756   4.798  1.9869  2.8623  0.2163
  145OSM   C17F16053   4.625   3.586   4.932  0.0805  0.5061  0.1475
  145OSM   H17F16054   4.566   3.625   5.018  0.5928  2.6336 -0.4013
  145OSM   H17G16055   4.691   3.507   4.973 -2.6721 -2.2139 -0.3449
  145OSM   C18F16056   4.541   3.508   4.830  0.6704 -0.0416 -0.2601
  145OSM   H18F16057   4.509   3.408   4.866 -1.1667 -0.8404 -3.7225
  145OSM   H18G16058   4.589   3.501   4.730  1.4453 -2.0715  0.2069
  145OSM   H18H16059   4.448   3.568   4.826 -0.3989 -1.7043 -1.2859
  146OSM      N16060   2.730   5.412   7.036 -0.1570  0.3094  0.0205
  146OSM    C1516061   2.769   5.540   7.097 -0.5281 -0.0474 -0.4609
  146OSM   H15A16062   2.876   5.552   7.095 -0.3930 -0.4055  1.9831
  146OSM   H15B16063   2.747   5.550   7.202 -1.0774  0.3220 -0.6030
  146OSM   H15C16064   2.728   5.622   7.039  1.1798 -0.4388 -2.3571
  146OSM    C1416065   2.820   5.303   7.065 -0.1693  0.0962 -0.2720
  146OSM   H14A16066   2.922   5.321   7.036 -0.6138  0.9453 -1.3967
  146OSM   H14B16067   2.792   5.204   7.031  0.2018  0.2569 -1.0640
  146OSM   H14C16068   2.826   5.295   7.173  1.1238  0.7972 -0.2748
  146OSM    C1316069   2.596   5.373   7.084  0.8473  0.1703 -0.2605
  146OSM   H13A16070   2.560   5.277   7.051  0.6919  0.4374 -0.8903
  146OSM   H13B16071   2.515   5.436   7.050  0.1839 -1.1260 -1.1548
  146OSM   H13C16072   2.597   5.361   7.191 -0.3246 -2.0776 -0.4387
  146OSM    C1216073   2.722   5.431   6.881 -0.1673  0.8961 -0.5599
  146OSM   H12A16074   2.707   5.333   6.839 -0.4524  0.3283  0.8168
  146OSM   H12B16075   2.816   5.471   6.845  0.5426  0.0318  0.2705
  146OSM    C1116076   2.595   5.507   6.835 -0.3249  0.2377  0.2143
  146OSM   H11A16077   2.507   5.449   6.869 -0.8936  2.1200  2.2454
  146OSM   H11B16078   2.609   5.500   6.725  1.2869  0.1801  0.4014
  146OSM      P16079   2.462   5.711   6.922  0.4965 -0.2908  0.0682
  146OSM    O1316080   2.345   5.621   6.904  0.1022  0.3716  0.0060
  146OSM    O1416081   2.466   5.777   7.053 -0.3226  0.8586 -0.0454
  146OSM    O1116082   2.445   5.833   6.818  0.1180 -0.1546  0.4259
  146OSM    O1216083   2.595   5.641   6.878 -0.2856 -0.0007  0.7812
  146OSM    C1S16084   2.492   5.815   6.687 -0.2173 -0.5020 -0.2727
  146OSM    H1S16085   2.447   5.727   6.637 -1.2359  1.5517 -3.2522
  146OSM    H1T16086   2.602   5.806   6.692 -0.0353  1.1840 -0.4617
  146OSM     NF16087   2.440   5.908   6.459  0.6760 -0.1104 -0.5418
  146OSM    HNF16088   2.512   5.919   6.392 -0.3413 -1.5624 -1.9348
  146OSM    C2S16089   2.468   5.943   6.604  0.5688 -0.0250  0.2337
  146OSM    H2S16090   2.376   5.985   6.651 -0.8258  0.1379 -2.4422
  146OSM    C3S16091   2.587   6.044   6.620  0.4006  0.8946 -0.3617
  146OSM    H3S16092   2.680   5.984   6.605 -0.7808 -0.7092 -1.6971
  146OSM     O316093   2.600   6.078   6.754  0.2712 -0.3058  0.1951
  146OSM    HO316094   2.535   6.018   6.792 -2.5972  1.4872 -1.4515
  146OSM    C4S16095   2.578   6.162   6.533  0.5505  0.0739 -0.0733
  146OSM    H4S16096   2.511   6.236   6.579  0.1879  0.5155 -1.2731
  146OSM    C5S16097   2.640   6.195   6.423 -0.5097  0.5906  0.3998
  146OSM    H5S16098   2.717   6.127   6.382 -0.4778 -0.7930  2.5684
  146OSM    C6S16099   2.619   6.315   6.347 -0.8841  0.2385 -0.2925
  146OSM    H6S16100   2.725   6.343   6.327 -0.4254  0.1754  1.8004
  146OSM    H6T16101   2.576   6.395   6.413 -0.5981 -0.6978  1.0723
  146OSM    C7S16102   2.541   6.287   6.216  0.3298 -0.4261 -0.5433
  146OSM    H7S16103   2.440   6.251   6.244  1.3920 -2.6546  0.6932
  146OSM    H7T16104   2.580   6.198   6.162  0.3412 -1.6607  1.4095
  146OSM    C8S16105   2.523   6.401   6.112 -0.0603  0.5485  0.1885
  146OSM    H8S16106   2.442   6.381   6.039  1.8469  1.8365 -2.4621
  146OSM    H8T16107   2.625   6.409   6.068 -0.0772 -1.5598 -0.3240
  146OSM    C9S16108   2.472   6.543   6.165 -0.6931  0.4465 -0.2688
  146OSM    H9S16109   2.530   6.565   6.258 -0.1754 -0.8052 -0.2734
  146OSM    H9T16110   2.368   6.539   6.203 -0.3516  0.4109  0.7134
  146OSM   C10S16111   2.487   6.657   6.063  0.3257 -1.0012  0.1022
  146OSM   H10S16112   2.595   6.663   6.038  0.4476  0.2396  0.8428
  146OSM   H10T16113   2.472   6.761   6.097 -1.7433 -0.1870 -2.9063
  146OSM   C11S16114   2.404   6.643   5.940  0.2167  0.6986 -0.0074
  146OSM   H11S16115   2.295   6.646   5.960  0.2939  1.6977  0.3034
  146OSM   H11T16116   2.428   6.554   5.879  1.1406  1.7566 -1.2504
  146OSM   C12S16117   2.421   6.753   5.831 -0.1777 -0.4725  0.0163
  146OSM   H12S16118   2.529   6.763   5.805  0.3120  2.1875  2.6120
  146OSM   H12T16119   2.394   6.855   5.867  0.3089  0.4028 -1.9420
  146OSM   C13S16120   2.335   6.721   5.708  0.5383 -0.0133 -0.0924
  146OSM   H13S16121   2.227   6.707   5.734 -0.3181 -0.1977 -3.3151
  146OSM   H13T16122   2.363   6.623   5.665 -1.0825 -1.1693  1.3251
  146OSM   C14S16123   2.357   6.824   5.601  0.0200 -0.8149  0.2370
  146OSM   H14S16124   2.465   6.832   5.576 -0.5852  0.6094 -2.3697
  146OSM   H14T16125   2.318   6.923   5.633 -1.1386 -1.1127 -0.1943
  146OSM   C15S16126   2.281   6.801   5.471  0.6083 -0.8521  0.0319
  146OSM   H15S16127   2.178   6.767   5.494 -1.2455  3.5082 -0.8908
  146OSM   H15T16128   2.337   6.729   5.407  0.0325  0.3967 -1.9913
  146OSM   C16S16129   2.265   6.926   5.384  0.8346 -0.0091 -0.2323
  146OSM   H16S16130   2.369   6.964   5.373  1.2939 -1.5947 -1.9544
  146OSM   H16T16131   2.208   7.009   5.430  1.1039  1.2180 -1.9726
  146OSM   C17S16132   2.218   6.898   5.236 -0.4930 -0.3468 -0.1503
  146OSM   H17S16133   2.123   6.842   5.242 -0.6716  0.0819  1.9193
  146OSM   H17T16134   2.298   6.832   5.198  1.8085  1.4318  1.3262
  146OSM   C18S16135   2.197   7.030   5.145  0.5777  0.1872  0.1487
  146OSM   H18S16136   2.111   7.095   5.172  0.1236  0.3056 -1.4495
  146OSM   H18T16137   2.165   6.991   5.046 -0.6107  0.1090  0.5486
  146OSM   H18U16138   2.292   7.086   5.133  0.8025 -0.1063  0.5217
  146OSM    C1F16139   2.328   5.851   6.413 -0.1910  0.1667 -0.5531
  146OSM     OF16140   2.237   5.815   6.486 -0.5617  0.3927  0.0846
  146OSM    C2F16141   2.318   5.840   6.260 -0.1416  0.4874  0.4006
  146OSM    H2F16142   2.345   5.736   6.234 -0.8304  0.0456  1.3767
  146OSM    H2G16143   2.397   5.916   6.242 -0.3514  0.9078  1.2045
  146OSM    C3F16144   2.179   5.867   6.203 -0.9803  0.0102  1.0262
  146OSM    H3F16145   2.133   5.956   6.250  1.6064  0.8066  2.2323
  146OSM    H3G16146   2.114   5.784   6.237 -0.7806 -0.1690  0.9714
  146OSM    C4F16147   2.197   5.881   6.048 -0.5884 -0.5549 -0.3059
  146OSM    H4F16148   2.279   5.812   6.019 -0.0013  1.3082 -3.6509
  146OSM    H4G16149   2.244   5.977   6.018 -0.7991 -0.2150  0.4470
  146OSM    C5F16150   2.074   5.849   5.965  0.0864  0.2989 -0.2184
  146OSM    H5F16151   1.991   5.908   6.009 -0.4291  0.1007 -0.9199
  146OSM    H5G16152   2.036   5.747   5.985  0.2170  0.2764 -0.0750
  146OSM    C6F16153   2.102   5.852   5.815  0.0161 -0.3714 -0.9497
  146OSM    H6F16154   2.149   5.752   5.798  0.5681 -0.1306 -0.8613
  146OSM    H6G16155   2.176   5.934   5.802  0.4303 -0.5259  0.3238
  146OSM    C7F16156   1.979   5.871   5.727  0.0825  0.5652 -0.0833
  146OSM    H7F16157   1.921   5.963   5.748 -0.0237  1.2471 -2.9570
  146OSM    H7G16158   1.906   5.787   5.730  0.1921  0.4952  0.5651
  146OSM    C8F16159   2.011   5.902   5.574 -0.0297 -0.5560 -0.5259
  146OSM    H8F16160   2.074   5.994   5.565 -0.0633 -0.7584 -4.5427
  146OSM    H8G16161   1.923   5.942   5.519  0.4912  3.2765  1.0833
  146OSM    C9F16162   2.087   5.793   5.501  0.1882  1.1081 -0.8191
  146OSM    H9F16163   2.195   5.778   5.519  0.2041 -0.3258 -1.9494
  146OSM   C10F16164   2.033   5.715   5.398  0.0037 -0.0705 -0.1121
  146OSM   H10F16165   2.102   5.640   5.357 -1.6015 -0.5134 -2.1521
  146OSM   C11F16166   1.896   5.711   5.344  0.4713 -0.6383  0.0377
  146OSM   H11F16167   1.837   5.766   5.420  0.9558  1.1883 -0.8441
  146OSM   H11G16168   1.847   5.612   5.332 -2.8004  0.8811 -0.3183
  146OSM   C12F16169   1.871   5.794   5.214  0.2357  0.2703  0.3290
  146OSM   H12F16170   1.767   5.771   5.181  0.8680 -2.4380  0.0004
  146OSM   H12G16171   1.937   5.748   5.138  0.3267 -0.9831  1.1337
  146OSM   C13F16172   1.888   5.947   5.224  0.1562  0.6199 -0.1072
  146OSM   H13F16173   1.983   5.967   5.278 -2.1997  2.1669  3.9572
  146OSM   H13G16174   1.816   5.987   5.299  1.5065  2.5049  0.2585
  146OSM   C14F16175   1.890   6.013   5.083 -0.0496 -0.4481  0.1172
  146OSM   H14F16176   1.952   6.104   5.076 -0.0666 -0.5049 -0.8902
  146OSM   H14G16177   1.940   5.942   5.014  2.4905  0.6580  0.7380
  146OSM   C15F16178   1.757   6.042   5.027 -0.1619  0.0902 -0.1971
  146OSM   H15F16179   1.684   6.085   5.099 -0.4124  0.7034 -0.8061
  146OSM   H15G16180   1.711   5.953   4.979 -0.6060  0.0417  0.3096
  146OSM   C16F16181   1.771   6.142   4.909 -0.7114 -0.5942  0.3642
  146OSM   H16F16182   1.802   6.243   4.945  2.1748 -1.0504 -0.6165
  146OSM   H16G16183   1.671   6.142   4.860 -0.7076 -4.4696  0.1224
  146OSM   C17F16184   1.880   6.105   4.807 -0.5260 -0.4722 -0.5060
  146OSM   H17F16185   1.877   5.998   4.780 -1.6892 -0.1352 -1.8584
  146OSM   H17G16186   1.980   6.129   4.848  0.2009 -3.3760 -0.4170
  146OSM   C18F16187   1.866   6.187   4.682  0.0976  0.6082  0.0276
  146OSM   H18F16188   1.947   6.157   4.612 -0.3290  0.8801 -0.5995
  146OSM   H18G16189   1.880   6.296   4.700 -1.8569  1.2652 -1.8855
  146OSM   H18H16190   1.774   6.178   4.620  0.7832  0.5687 -1.0166
  147OSM      N16191   5.277   4.852   2.352 -0.0965 -0.3666  0.2338
  147OSM    C1516192   5.191   4.923   2.253  0.5414 -0.7306 -0.4640
  147OSM   H15A16193   5.126   4.850   2.207  0.0590  0.1912 -1.2974
  147OSM   H15B16194   5.240   4.983   2.178 -0.1619  0.9788  0.4018
  147OSM   H15C16195   5.116   4.987   2.296  1.2505  0.6695 -1.2148
  147OSM    C1416196   5.364   4.958   2.415 -0.2056 -0.6459 -0.1061
  147OSM   H14A16197   5.437   4.995   2.345  3.4094 -1.3359  3.0019
  147OSM   H14B16198   5.401   4.918   2.508 -0.8674  0.9808  0.9019
  147OSM   H14C16199   5.301   5.039   2.451  1.5601  0.3686  0.8176
  147OSM    C1316200   5.189   4.793   2.452  0.2040 -0.7204  0.2229
  147OSM   H13A16201   5.120   4.871   2.480  1.4084  0.2850  0.4837
  147OSM   H13B16202   5.242   4.773   2.544  1.7185  1.0944 -0.2067
  147OSM   H13C16203   5.132   4.709   2.414 -0.1635  0.0083 -0.8967
  147OSM    C1216204   5.373   4.752   2.286  0.2727  0.0100 -0.1475
  147OSM   H12A16205   5.435   4.808   2.217 -1.0504  2.6715  0.6986
  147OSM   H12B16206   5.320   4.667   2.245  1.3705 -1.4132  1.2350
  147OSM    C1116207   5.470   4.677   2.378  0.3281 -0.6695 -0.1736
  147OSM   H11A16208   5.530   4.748   2.438  2.4010 -1.7774 -0.8469
  147OSM   H11B16209   5.540   4.621   2.313  0.2217 -0.8178 -0.1621
  147OSM      P16210   5.352   4.448   2.437 -0.2819  0.0749 -0.3408
  147OSM    O1316211   5.206   4.438   2.449 -0.2721  0.5691  0.6654
  147OSM    O1416212   5.412   4.405   2.314  0.0120 -0.3805 -0.0340
  147OSM    O1116213   5.409   4.362   2.550 -0.2559 -0.2498  0.1702
  147OSM    O1216214   5.408   4.589   2.472 -0.0885 -0.1416  0.0070
  147OSM    C1S16215   5.555   4.368   2.588 -0.0327 -0.0157 -0.3159
  147OSM    H1S16216   5.574   4.474   2.615 -2.5029  0.2036  0.8800
  147OSM    H1T16217   5.628   4.346   2.507  1.7966  0.0077  1.2608
  147OSM     NF16218   5.719   4.303   2.756  0.1956  0.4663  0.0803
  147OSM    HNF16219   5.791   4.241   2.725 -0.2791 -0.2491  0.3970
  147OSM    C2S16220   5.588   4.277   2.707 -0.3469  0.7739 -0.1586
  147OSM    H2S16221   5.520   4.297   2.793 -1.2751 -1.5487 -0.2859
  147OSM    C3S16222   5.564   4.120   2.678  0.3132  0.5813 -0.3297
  147OSM    H3S16223   5.650   4.094   2.613 -0.6818  1.3155 -1.9932
  147OSM     O316224   5.442   4.090   2.609 -0.3073  0.4728  0.0410
  147OSM    HO316225   5.426   4.168   2.556 -1.1509  0.6017  0.4696
  147OSM    C4S16226   5.585   4.044   2.805  0.0585 -0.6884  0.0957
  147OSM    H4S16227   5.688   4.013   2.826  0.6420 -0.4206 -2.1369
  147OSM    C5S16228   5.488   4.007   2.888 -0.1016  0.6458 -0.0320
  147OSM    H5S16229   5.383   4.041   2.877 -0.1690  0.3494 -0.3016
  147OSM    C6S16230   5.509   3.931   3.014  0.2650 -0.2044  0.0513
  147OSM    H6S16231   5.618   3.912   3.025  0.5259  0.7567 -0.7619
  147OSM    H6T16232   5.468   3.828   3.005 -0.1974 -0.0662  0.5259
  147OSM    C7S16233   5.447   4.016   3.134  0.0767  0.6997  0.5054
  147OSM    H7S16234   5.337   4.021   3.119 -0.1778 -0.1510  1.8611
  147OSM    H7T16235   5.487   4.119   3.124  0.6044  0.5083  0.5967
  147OSM    C8S16236   5.474   3.945   3.269 -0.1218 -0.0283 -0.2249
  147OSM    H8S16237   5.582   3.948   3.295  0.4794 -2.5292 -2.0453
  147OSM    H8T16238   5.431   3.842   3.267 -1.4117  0.5094 -1.8977
  147OSM    C9S16239   5.395   4.018   3.388 -0.4025 -1.0530 -0.2808
  147OSM    H9S16240   5.286   4.007   3.368 -0.2126  1.0858 -2.9733
  147OSM    H9T16241   5.426   4.124   3.386 -0.6788 -0.9426  0.8462
  147OSM   C10S16242   5.437   3.958   3.525  0.8229 -0.0242 -0.1700
  147OSM   H10S16243   5.510   3.878   3.501 -1.2498 -1.8020 -0.8333
  147OSM   H10T16244   5.348   3.899   3.555  0.7455 -0.6132 -1.5192
  147OSM   C11S16245   5.495   4.046   3.633 -0.3865 -0.4376 -0.8544
  147OSM   H11S16246   5.424   4.125   3.665  2.4076  1.2094  1.8438
  147OSM   H11T16247   5.591   4.091   3.599  0.9521 -0.2806  2.6647
  147OSM   C12S16248   5.543   3.971   3.760  0.7467 -0.3293  0.6005
  147OSM   H12S16249   5.590   4.046   3.827  1.7459  1.3957 -1.9153
  147OSM   H12T16250   5.615   3.891   3.735 -1.2339 -1.4946 -1.8503
  147OSM   C13S16251   5.428   3.916   3.842 -0.3650  0.2053  0.7794
  147OSM   H13S16252   5.458   3.838   3.915  0.8768 -0.0219  0.0607
  147OSM   H13T16253   5.359   3.863   3.773 -0.0015  0.9902 -0.2137
  147OSM   C14S16254   5.343   4.015   3.910  0.0117  0.0913 -0.0656
  147OSM   H14S16255   5.303   4.092   3.840 -0.7042  0.6882  0.9637
  147OSM   H14T16256   5.403   4.072   3.984  0.9072 -1.6650  0.6078
  147OSM   C15S16257   5.221   3.970   3.993  0.0535  0.3608 -1.0239
  147OSM   H15S16258   5.258   3.891   4.062 -2.8842 -0.0623  0.2165
  147OSM   H15T16259   5.133   3.940   3.933 -0.6872  3.3097 -1.6048
  147OSM   C16S16260   5.160   4.070   4.099 -0.0898  0.0013 -1.0638
  147OSM   H16S16261   5.102   4.152   4.051 -1.1033 -0.7221 -1.1077
  147OSM   H16T16262   5.244   4.127   4.144 -0.7542  1.4931 -1.6532
  147OSM   C17S16263   5.071   4.012   4.211  0.8200 -0.2548 -0.7525
  147OSM   H17S16264   5.038   4.098   4.274 -1.6164 -0.5665 -1.4859
  147OSM   H17T16265   5.127   3.953   4.287  0.5883 -0.0083 -0.3829
  147OSM   C18S16266   4.942   3.935   4.178  0.0247  0.3655  0.0534
  147OSM   H18S16267   4.874   4.003   4.124 -0.1427 -0.6633 -1.0719
  147OSM   H18T16268   4.888   3.899   4.269 -0.4231  0.0888 -0.3189
  147OSM   H18U16269   4.969   3.843   4.121  1.2434  0.2859  0.7196
  147OSM    C1F16270   5.764   4.413   2.818  0.4159 -0.2599  0.2886
  147OSM     OF16271   5.694   4.513   2.831  0.0535  0.2041  0.0853
  147OSM    C2F16272   5.900   4.411   2.879  0.3014  0.6390  0.1148
  147OSM    H2F16273   5.975   4.465   2.819  0.3071 -0.3509 -0.7924
  147OSM    H2G16274   5.943   4.311   2.898 -1.2888 -0.1801 -0.3736
  147OSM    C3F16275   5.895   4.470   3.017 -0.4324 -0.3139 -0.1585
  147OSM    H3F16276   5.810   4.435   3.079 -1.4649  0.3725 -1.1347
  147OSM    H3G16277   5.880   4.579   3.001 -1.3719 -0.3089  0.6651
  147OSM    C4F16278   6.029   4.450   3.088 -0.3855 -0.7989 -0.5126
  147OSM    H4F16279   6.103   4.462   3.006 -0.7631 -0.1676 -0.7656
  147OSM    H4G16280   6.049   4.348   3.126  2.2062  0.3157  1.4030
  147OSM    C5F16281   6.053   4.558   3.196 -0.0340  0.8944  0.3600
  147OSM    H5F16282   6.038   4.652   3.138  1.0663 -0.4629 -2.3346
  147OSM    H5G16283   6.161   4.562   3.223  0.2090 -1.7698  0.0908
  147OSM    C6F16284   5.958   4.531   3.320  0.2669 -0.2825 -0.1957
  147OSM    H6F16285   5.858   4.524   3.273  0.1839 -1.4376  0.1207
  147OSM    H6G16286   5.961   4.623   3.382 -1.2113  0.6917 -1.4891
  147OSM    C7F16287   5.993   4.412   3.412  0.0259 -0.2333  0.0704
  147OSM    H7F16288   6.040   4.455   3.503 -1.6093  0.9377  0.4119
  147OSM    H7G16289   6.072   4.343   3.375 -0.1521  0.0892 -0.9631
  147OSM    C8F16290   5.872   4.325   3.455 -0.9103  0.1042  0.4659
  147OSM    H8F16291   5.910   4.238   3.513  0.3913  1.7432  2.1902
  147OSM    H8G16292   5.816   4.287   3.367 -0.7730  1.5194 -0.2575
  147OSM    C9F16293   5.793   4.410   3.551  0.5611 -0.1267 -0.6495
  147OSM    H9F16294   5.711   4.467   3.506 -0.6971  0.7892  2.4704
  147OSM   C10F16295   5.803   4.417   3.682  0.5475  0.4824 -0.6873
  147OSM   H10F16296   5.722   4.465   3.740 -1.7104 -2.9466 -0.7166
  147OSM   C11F16297   5.894   4.328   3.763  0.4346 -0.1497  0.2306
  147OSM   H11F16298   5.978   4.400   3.764  1.5107 -1.2030 -2.9361
  147OSM   H11G16299   5.932   4.237   3.712 -0.5507 -1.2278  1.3484
  147OSM   C12F16300   5.846   4.305   3.906 -0.3355  0.1874  0.4552
  147OSM   H12F16301   5.926   4.237   3.940 -0.8556 -0.7187 -0.0972
  147OSM   H12G16302   5.751   4.246   3.911  0.0931 -0.4473  1.6310
  147OSM   C13F16303   5.830   4.430   3.988  0.6394  0.1934 -0.3740
  147OSM   H13F16304   5.749   4.486   3.936 -0.0471 -1.4984 -1.2141
  147OSM   H13G16305   5.924   4.488   3.995  0.7845 -0.1549  0.6433
  147OSM   C14F16306   5.778   4.405   4.132  0.5744  0.1544  0.1023
  147OSM   H14F16307   5.864   4.370   4.192 -0.3541 -0.7554  0.9492
  147OSM   H14G16308   5.708   4.319   4.126 -0.0972  0.6488  0.5781
  147OSM   C15F16309   5.726   4.535   4.200 -0.1200  0.1591  0.1262
  147OSM   H15F16310   5.646   4.571   4.132 -1.0566 -0.5538  0.8279
  147OSM   H15G16311   5.813   4.605   4.201 -0.1428  0.4792  5.2144
  147OSM   C16F16312   5.682   4.521   4.345  0.2187 -0.1475  0.2259
  147OSM   H16F16313   5.779   4.490   4.389  0.2401  0.2728  0.4793
  147OSM   H16G16314   5.603   4.445   4.365  1.7604 -1.9994 -0.3504
  147OSM   C17F16315   5.640   4.648   4.421  0.3659  1.3350  0.1413
  147OSM   H17F16316   5.542   4.676   4.378  0.9724  0.3384 -2.0369
  147OSM   H17G16317   5.709   4.734   4.417 -0.1690  1.7445 -0.6090
  147OSM   C18F16318   5.616   4.616   4.573  0.5178 -0.0219 -0.2318
  147OSM   H18F16319   5.705   4.644   4.635  0.1365 -1.0837  0.8286
  147OSM   H18G16320   5.582   4.513   4.592 -3.4931  1.0963 -0.5183
  147OSM   H18H16321   5.540   4.684   4.617  1.0029  0.5828 -0.3027
  148OSM      N16322   6.241   5.405   2.249 -0.3802 -0.4557  0.1939
  148OSM    C1516323   6.267   5.343   2.386 -0.4157 -0.2892  0.7319
  148OSM   H15A16324   6.189   5.269   2.400 -0.7569 -0.3802 -1.3178
  148OSM   H15B16325   6.270   5.419   2.462  1.7812  1.9172 -1.3791
  148OSM   H15C16326   6.360   5.289   2.395  1.2951  2.0724 -1.3743
  148OSM    C1416327   6.244   5.290   2.149 -0.1681 -0.4058  0.1929
  148OSM   H14A16328   6.336   5.237   2.169  0.2320  0.0600 -0.4003
  148OSM   H14B16329   6.243   5.330   2.049  0.0020  0.3127  0.4660
  148OSM   H14C16330   6.153   5.233   2.148 -0.9763  0.8212 -1.3102
  148OSM    C1316331   6.104   5.473   2.232  0.4556 -0.0990  0.0638
  148OSM   H13A16332   6.106   5.526   2.138  0.4908 -1.2468 -0.6121
  148OSM   H13B16333   6.085   5.548   2.307  1.5728  1.3216 -1.0281
  148OSM   H13C16334   6.030   5.394   2.230 -0.2567  0.5373 -2.3271
  148OSM    C1216335   6.350   5.497   2.213 -0.1218  0.7337  1.0181
  148OSM   H12A16336   6.451   5.460   2.228  1.2247  3.7738  0.2245
  148OSM   H12B16337   6.344   5.573   2.290  0.7914 -1.4720  3.4146
  148OSM    C1116338   6.351   5.563   2.069  0.2687  0.0430 -0.4709
  148OSM   H11A16339   6.349   5.474   2.003 -0.7484  0.0535 -0.4676
  148OSM   H11B16340   6.446   5.618   2.055  1.2180 -1.1716  0.9453
  148OSM      P16341   6.234   5.801   2.094  0.4825  0.0587  0.0161
  148OSM    O1316342   6.326   5.879   2.012  0.2746  0.1195  0.0316
  148OSM    O1416343   6.091   5.848   2.085  1.0682 -0.7410  0.2374
  148OSM    O1116344   6.285   5.800   2.250  0.6868  0.7084  0.2319
  148OSM    O1216345   6.233   5.647   2.049  0.2641 -0.3593 -0.2397
  148OSM    C1S16346   6.195   5.819   2.363  0.0411 -0.1427 -0.5862
  148OSM    H1S16347   6.155   5.720   2.394 -0.5259  0.2731  0.0410
  148OSM    H1T16348   6.106   5.883   2.347 -0.7224 -0.9675  0.2001
  148OSM     NF16349   6.183   5.875   2.601  0.4938  0.4696  0.2368
  148OSM    HNF16350   6.158   5.964   2.637 -1.0549  1.7127 -3.3696
  148OSM    C2S16351   6.271   5.878   2.485  0.5278  0.1354  0.0351
  148OSM    H2S16352   6.357   5.811   2.503 -0.3293 -1.4765 -1.6511
  148OSM    C3S16353   6.339   6.017   2.443  0.0873  0.6657  0.1442
  148OSM    H3S16354   6.252   6.083   2.423 -0.2793 -0.0246 -0.5855
  148OSM     O316355   6.414   6.020   2.318  0.1631  0.4964  0.1095
  148OSM    HO316356   6.410   5.931   2.283  0.3509  0.6401 -0.2857
  148OSM    C4S16357   6.419   6.069   2.565 -0.8378 -0.1729  0.3840
  148OSM    H4S16358   6.361   6.119   2.643  1.1556 -0.9769  2.5357
  148OSM    C5S16359   6.544   6.059   2.596 -0.0300  0.6571 -0.4758
  148OSM    H5S16360   6.606   6.000   2.526  1.3008 -1.4408  2.2934
  148OSM    C6S16361   6.601   6.116   2.719 -0.0655 -0.3801  0.6499
  148OSM    H6S16362   6.528   6.188   2.762 -0.5770 -0.1211 -0.6013
  148OSM    H6T16363   6.692   6.179   2.708 -0.9975  1.2875  1.8637
  148OSM    C7S16364   6.632   6.030   2.844  0.7168  0.6158  0.2768
  148OSM    H7S16365   6.704   5.949   2.824  1.2063  0.9937  0.4799
  148OSM    H7T16366   6.543   5.966   2.862  1.2702  0.5106  3.2432
  148OSM    C8S16367   6.668   6.088   2.977 -0.5851 -0.0730  0.3279
  148OSM    H8S16368   6.595   6.170   2.995 -0.7469 -0.2684  0.5515
  148OSM    H8T16369   6.768   6.135   2.964 -1.1254  1.2869  0.8154
  148OSM    C9S16370   6.662   5.984   3.093  0.3215  0.2177 -0.1154
  148OSM    H9S16371   6.717   5.890   3.070 -1.0310 -0.9118  1.0652
  148OSM    H9T16372   6.555   5.959   3.109  0.0048  0.4244 -1.7442
  148OSM   C10S16373   6.726   6.051   3.222  0.0263  0.3202  0.4187
  148OSM   H10S16374   6.668   6.144   3.234 -1.3969 -0.2833 -1.3789
  148OSM   H10T16375   6.833   6.073   3.201  0.1186 -0.2191  0.3046
  148OSM   C11S16376   6.709   5.959   3.345  0.0143 -0.0999 -0.2388
  148OSM   H11S16377   6.738   5.853   3.327 -2.5306 -0.9167  0.0555
  148OSM   H11T16378   6.600   5.964   3.369  0.1400 -1.6330  0.8386
  148OSM   C12S16379   6.762   6.013   3.477 -0.0870 -0.3979  1.4275
  148OSM   H12S16380   6.744   6.123   3.476 -0.8027 -0.4998 -0.2817
  148OSM   H12T16381   6.873   6.012   3.477  0.1192  2.4905 -2.3077
  148OSM   C13S16382   6.707   5.965   3.604  0.1879  0.8850 -0.1473
  148OSM   H13S16383   6.712   5.854   3.615  1.0381  0.7737 -1.4165
  148OSM   H13T16384   6.597   5.979   3.601  0.2080  1.1784  0.5258
  148OSM   C14S16385   6.772   6.039   3.718  0.7509  0.2720  0.4162
  148OSM   H14S16386   6.733   6.142   3.705 -0.1880 -0.1669 -0.4278
  148OSM   H14T16387   6.881   6.041   3.693  0.5904 -1.0680 -0.5194
  148OSM   C15S16388   6.752   5.984   3.860  0.4401  0.2969 -0.0524
  148OSM   H15S16389   6.643   5.966   3.874  0.5077 -1.6033 -1.5136
  148OSM   H15T16390   6.787   6.052   3.941 -1.2437  3.2270 -1.5915
  148OSM   C16S16391   6.825   5.846   3.856 -0.3138  0.1355 -0.9100
  148OSM   H16S16392   6.934   5.863   3.868 -0.0484 -2.0844  0.1795
  148OSM   H16T16393   6.801   5.782   3.768  2.1773  0.0779 -1.6231
  148OSM   C17S16394   6.768   5.753   3.972 -0.1159  0.1451 -0.2900
  148OSM   H17S16395   6.660   5.741   3.948 -0.7454  2.3381  1.1107
  148OSM   H17T16396   6.782   5.810   4.067  3.2074 -2.0115  0.6815
  148OSM   C18S16397   6.844   5.636   3.973 -0.3384  0.0655  0.1950
  148OSM   H18S16398   6.832   5.582   3.877 -0.3094  0.8388 -0.2517
  148OSM   H18T16399   6.823   5.565   4.056  0.0259 -2.6892 -1.9085
  148OSM   H18U16400   6.948   5.675   3.978 -0.0944 -0.6585  0.8955
  148OSM    C1F16401   6.154   5.760   2.657  0.7747  0.4108 -0.9346
  148OSM     OF16402   6.205   5.662   2.607 -0.2959  0.2509  0.6686
  148OSM    C2F16403   6.057   5.752   2.769 -0.4178  0.7464 -0.5383
  148OSM    H2F16404   5.967   5.700   2.729  0.4264 -1.1474 -0.0661
  148OSM    H2G16405   6.027   5.853   2.804  1.5050  1.7605 -1.6690
  148OSM    C3F16406   6.112   5.670   2.885 -0.2654 -0.1849  0.1905
  148OSM    H3F16407   6.212   5.695   2.926 -0.3688 -0.0962  0.3977
  148OSM    H3G16408   6.115   5.564   2.852  2.4406 -0.5133  1.2064
  148OSM    C4F16409   6.026   5.690   3.011 -0.4238 -0.2784  0.5188
  148OSM    H4F16410   5.919   5.679   2.981  0.0189 -1.5708 -0.6749
  148OSM    H4G16411   6.027   5.792   3.056  0.6369 -0.0201 -0.0731
  148OSM    C5F16412   6.049   5.579   3.112 -0.0763 -0.4129 -0.2282
  148OSM    H5F16413   6.154   5.556   3.141 -0.4283  1.5448  3.1946
  148OSM    H5G16414   6.015   5.490   3.056 -2.2135  1.0652 -1.3998
  148OSM    C6F16415   5.951   5.590   3.234  0.5054 -0.4015  0.4842
  148OSM    H6F16416   5.853   5.563   3.189 -0.6961  0.2744  2.5500
  148OSM    H6G16417   5.932   5.694   3.265 -0.4250  0.4441 -2.6136
  148OSM    C7F16418   5.989   5.499   3.348 -0.4395 -0.2525  0.5998
  148OSM    H7F16419   6.095   5.517   3.379 -0.0447 -1.3294 -0.0812
  148OSM    H7G16420   5.987   5.396   3.307  0.8044 -0.6513  1.4675
  148OSM    C8F16421   5.914   5.522   3.474 -0.1556 -0.0347 -0.2421
  148OSM    H8F16422   5.930   5.630   3.499  2.2122 -0.3711 -0.0570
  148OSM    H8G16423   5.962   5.461   3.554 -0.8036 -0.2677 -0.0271
  148OSM    C9F16424   5.764   5.499   3.484  0.5263  0.1344 -0.2036
  148OSM    H9F16425   5.704   5.539   3.401 -0.7831  0.3181  0.8077
  148OSM   C10F16426   5.696   5.419   3.567 -0.4775 -0.4868  0.9676
  148OSM   H10F16427   5.591   5.396   3.546 -1.1194  2.1130  1.0142
  148OSM   C11F16428   5.744   5.341   3.681  0.2737  0.5281 -0.5204
  148OSM   H11F16429   5.855   5.347   3.689  0.3766 -0.6071 -0.9829
  148OSM   H11G16430   5.711   5.236   3.669  1.0191  0.0315  1.5183
  148OSM   C12F16431   5.681   5.399   3.809 -0.5275 -0.1609  0.2476
  148OSM   H12F16432   5.718   5.503   3.822 -0.5496  0.1922 -2.0946
  148OSM   H12G16433   5.741   5.359   3.894 -0.5771  0.8858  0.7838
  148OSM   C13F16434   5.527   5.387   3.820 -0.9276 -0.1040  0.2382
  148OSM   H13F16435   5.474   5.430   3.732 -1.6356  0.7709  1.0638
  148OSM   H13G16436   5.492   5.440   3.911 -2.1168 -0.9273  0.2825
  148OSM   C14F16437   5.483   5.240   3.815 -0.2393  0.1004 -0.0126
  148OSM   H14F16438   5.516   5.186   3.724 -0.6112  0.7517 -0.5447
  148OSM   H14G16439   5.373   5.244   3.802 -0.2518 -1.6651 -0.7437
  148OSM   C15F16440   5.530   5.162   3.938  0.6789  0.1471  0.3244
  148OSM   H15F16441   5.484   5.210   4.026 -1.6591  1.7617 -1.6355
  148OSM   H15G16442   5.640   5.164   3.957  0.5511 -0.0644  1.0761
  148OSM   C16F16443   5.490   5.016   3.930  0.1595 -0.1836  0.1084
  148OSM   H16F16444   5.539   4.956   3.850 -1.8393  2.0367 -3.0293
  148OSM   H16G16445   5.386   5.015   3.891  0.7860 -0.5185 -1.6922
  148OSM   C17F16446   5.502   4.950   4.072 -0.4376 -0.0462  0.4950
  148OSM   H17F16447   5.458   4.849   4.064  0.6202 -0.3961 -1.9204
  148OSM   H17G16448   5.443   5.018   4.138  0.7448  0.8811  0.6311
  148OSM   C18F16449   5.645   4.930   4.130 -0.2685  0.4866  0.1884
  148OSM   H18F16450   5.639   4.845   4.202  0.2645 -1.7718 -2.2529
  148OSM   H18G16451   5.688   5.019   4.180 -0.1259  1.1795 -1.1310
  148OSM   H18H16452   5.710   4.890   4.050 -0.4323  0.0389  0.2764
  149OSM      N16453   4.263   2.904   2.449  0.6376  0.3764 -0.6503
  149OSM    C1516454   4.391   2.845   2.418  0.1500  0.1592 -0.2877
  149OSM   H15A16455   4.463   2.920   2.385  1.1010 -1.0841 -1.1356
  149OSM   H15B16456   4.379   2.758   2.355 -0.8622  0.9716 -1.2530
  149OSM   H15C16457   4.446   2.812   2.504  1.4774 -1.3957 -1.6576
  149OSM    C1416458   4.286   3.029   2.531 -0.8494 -0.2383  0.6561
  149OSM   H14A16459   4.193   3.071   2.566 -1.6356 -1.2082 -0.2188
  149OSM   H14B16460   4.339   3.103   2.474 -1.4207  0.2999  0.8207
  149OSM   H14C16461   4.348   3.012   2.618 -0.7663  1.8739  1.0485
  149OSM    C1316462   4.186   2.945   2.333 -0.3082  0.5052 -0.2621
  149OSM   H13A16463   4.232   3.028   2.282 -0.6991  0.9535  0.1071
  149OSM   H13B16464   4.086   2.977   2.361 -1.2683 -1.5839 -1.0219
  149OSM   H13C16465   4.168   2.862   2.266 -0.7953  0.2023  0.2351
  149OSM    C1216466   4.183   2.816   2.546  0.1959  0.0991 -1.0089
  149OSM   H12A16467   4.113   2.755   2.490  0.5081 -1.3079  0.0750
  149OSM   H12B16468   4.121   2.882   2.604  0.7503  0.6692 -1.0636
  149OSM    C1116469   4.250   2.718   2.653 -0.2740  0.3063  0.3219
  149OSM   H11A16470   4.167   2.687   2.720  0.6230 -2.9531  0.0796
  149OSM   H11B16471   4.333   2.771   2.706  0.2225  0.3247 -0.4600
  149OSM      P16472   4.228   2.481   2.553  0.2611  0.0097  0.2691
  149OSM    O1316473   4.124   2.503   2.454 -0.0529  0.2408  0.7893
  149OSM    O1416474   4.319   2.377   2.516 -0.2054 -0.3343  0.0744
  149OSM    O1116475   4.158   2.436   2.687 -0.5801  0.0718 -0.7132
  149OSM    O1216476   4.310   2.613   2.592 -0.4436  0.3630 -0.1232
  149OSM    C1S16477   4.230   2.387   2.806 -0.4565  0.1161  0.3961
  149OSM    H1S16478   4.338   2.413   2.812 -0.0971 -0.5014 -2.1546
  149OSM    H1T16479   4.227   2.276   2.810 -0.2177  0.1279  0.9748
  149OSM     NF16480   4.232   2.387   3.054 -0.0672  0.5006  0.4657
  149OSM    HNF16481   4.203   2.318   3.120 -0.1727  1.1397  1.0955
  149OSM    C2S16482   4.169   2.437   2.934 -0.4106  0.2582 -0.3709
  149OSM    H2S16483   4.178   2.547   2.930  0.0488  0.1899 -1.7080
  149OSM    C3S16484   4.021   2.394   2.940 -0.3052  0.5828  0.3875
  149OSM    H3S16485   4.016   2.284   2.926  1.0812  0.2832  1.9880
  149OSM     O316486   3.943   2.454   2.833  0.0569  0.8619  0.5160
  149OSM    HO316487   4.004   2.466   2.760 -1.3617  2.3441 -0.4917
  149OSM    C4S16488   3.967   2.442   3.074  0.1285  0.0726  0.5233
  149OSM    H4S16489   3.965   2.551   3.084  0.8400  0.0321  1.2064
  149OSM    C5S16490   3.940   2.370   3.180 -0.6930 -0.7032 -0.9987
  149OSM    H5S16491   3.958   2.261   3.182  0.9104 -0.4864  2.2043
  149OSM    C6S16492   3.886   2.437   3.305  0.7207 -0.0501 -0.4045
  149OSM    H6S16493   3.827   2.367   3.368 -1.6871  1.1105 -1.2389
  149OSM    H6T16494   3.797   2.497   3.274  0.6294 -0.4890 -1.0259
  149OSM    C7S16495   3.969   2.534   3.389 -0.2527 -0.4619 -0.2402
  149OSM    H7S16496   3.972   2.632   3.336  1.2277 -0.3262  0.0544
  149OSM    H7T16497   4.074   2.498   3.394  0.3335  1.2923  0.8244
  149OSM    C8S16498   3.915   2.560   3.536 -0.2836 -0.0316  0.5771
  149OSM    H8S16499   3.908   2.477   3.609 -1.6730  0.4829  1.0457
  149OSM    H8T16500   3.810   2.594   3.521 -0.2008 -0.1322 -0.3325
  149OSM    C9S16501   3.986   2.674   3.607  0.9124  0.3571 -0.7913
  149OSM    H9S16502   3.955   2.769   3.557  0.3681  1.1393  0.9643
  149OSM    H9T16503   4.096   2.676   3.593  1.2642  2.8199  1.5170
  149OSM   C10S16504   3.946   2.683   3.756  0.4666  0.2963 -0.5234
  149OSM   H10S16505   4.011   2.614   3.812 -1.0223 -0.2803  0.5619
  149OSM   H10T16506   3.838   2.659   3.771  0.9077 -1.4496  0.0783
  149OSM   C11S16507   3.979   2.826   3.815 -0.2749 -0.2520 -0.6513
  149OSM   H11S16508   3.906   2.903   3.781  0.0084  1.7978  2.8868
  149OSM   H11T16509   4.085   2.851   3.793 -0.1141  0.2029  0.5799
  149OSM   C12S16510   3.968   2.838   3.967 -0.2613 -0.5762 -0.1134
  149OSM   H12S16511   4.031   2.921   4.004 -0.7064 -0.1875 -0.2101
  149OSM   H12T16512   4.014   2.747   4.011  1.4740  0.5008  0.3695
  149OSM   C13S16513   3.828   2.872   4.024 -0.5772 -0.5987 -0.2875
  149OSM   H13S16514   3.757   2.851   3.941  0.1967 -0.6520 -0.9568
  149OSM   H13T16515   3.836   2.981   4.043  1.6041 -0.9721  1.4901
  149OSM   C14S16516   3.796   2.804   4.154  0.4293  0.2738 -0.3374
  149OSM   H14S16517   3.877   2.825   4.228 -0.5855 -1.7016  1.4526
  149OSM   H14T16518   3.786   2.694   4.145  0.0472  0.2886 -0.0943
  149OSM   C15S16519   3.655   2.861   4.205 -0.4403 -0.5388  0.6801
  149OSM   H15S16520   3.589   2.866   4.115  0.6992 -3.3807 -0.4624
  149OSM   H15T16521   3.667   2.964   4.245 -0.1573 -0.3427  0.1040
  149OSM   C16S16522   3.590   2.778   4.312  0.1806  0.3688  0.9315
  149OSM   H16S16523   3.661   2.740   4.389 -1.4915  0.4387  2.5583
  149OSM   H16T16524   3.540   2.689   4.268  0.0997  0.6293  0.4887
  149OSM   C17S16525   3.476   2.839   4.388  0.5393 -0.3088  0.4740
  149OSM   H17S16526   3.407   2.870   4.308  3.2780  2.4801 -1.0166
  149OSM   H17T16527   3.520   2.928   4.438 -0.3743  0.3115  0.1875
  149OSM   C18S16528   3.409   2.750   4.498 -0.0935 -0.7531  0.0503
  149OSM   H18S16529   3.354   2.814   4.569 -0.8285 -0.6778 -0.5683
  149OSM   H18T16530   3.493   2.695   4.547  1.3920 -0.1496 -1.6907
  149OSM   H18U16531   3.330   2.693   4.444 -0.7624  0.6241 -0.4719
  149OSM    C1F16532   4.351   2.425   3.086 -0.1106 -0.5476  1.0548
  149OSM     OF16533   4.410   2.513   3.023 -0.3672 -0.5466  0.5407
  149OSM    C2F16534   4.417   2.353   3.202 -0.1066 -0.3120  0.1888
  149OSM    H2F16535   4.526   2.350   3.182 -0.1256 -0.4903  0.1098
  149OSM    H2G16536   4.367   2.254   3.208 -0.2383 -0.1972  1.2872
  149OSM    C3F16537   4.396   2.432   3.343 -0.1097  0.2912  0.0487
  149OSM    H3F16538   4.289   2.458   3.360 -0.5201  0.3774 -2.3369
  149OSM    H3G16539   4.452   2.528   3.332  0.6992 -0.3084 -1.2706
  149OSM    C4F16540   4.453   2.344   3.449  0.2988 -0.2586 -0.8923
  149OSM    H4F16541   4.562   2.328   3.436  0.8501 -0.3545  2.8107
  149OSM    H4G16542   4.392   2.252   3.461  3.6844 -2.6204 -0.1514
  149OSM    C5F16543   4.436   2.403   3.596 -0.9749 -0.2850 -0.2829
  149OSM    H5F16544   4.340   2.458   3.607 -1.1209 -0.8829  2.1089
  149OSM    H5G16545   4.520   2.472   3.618 -0.5020 -0.8864 -0.1950
  149OSM    C6F16546   4.424   2.300   3.706 -0.2720 -0.4448  0.1589
  149OSM    H6F16547   4.492   2.213   3.691  0.0690 -0.3220  0.9338
  149OSM    H6G16548   4.322   2.257   3.694 -0.0736 -0.5372 -1.4762
  149OSM    C7F16549   4.450   2.357   3.851 -0.1657 -0.4325 -0.5559
  149OSM    H7F16550   4.552   2.400   3.857  0.1500 -1.2475  0.1024
  149OSM    H7G16551   4.446   2.267   3.915  2.8184  0.2128  0.7043
  149OSM    C8F16552   4.360   2.468   3.908  0.5693  0.6041  0.0970
  149OSM    H8F16553   4.377   2.559   3.846  0.9557 -1.3509 -2.8795
  149OSM    H8G16554   4.393   2.486   4.013  0.7259 -0.5403  0.2606
  149OSM    C9F16555   4.214   2.429   3.889  0.0450 -0.2813  0.1922
  149OSM    H9F16556   4.181   2.456   3.788  1.5975  1.7660  0.1607
  149OSM   C10F16557   4.124   2.402   3.989  0.2804 -0.4222  0.1886
  149OSM   H10F16558   4.017   2.384   3.974 -0.4757  3.0338  0.4512
  149OSM   C11F16559   4.165   2.387   4.134 -0.6638 -0.2177  0.3938
  149OSM   H11F16560   4.273   2.395   4.158 -0.5760 -1.5483  0.5253
  149OSM   H11G16561   4.125   2.287   4.162  3.7072 -2.5283 -0.6472
  149OSM   C12F16562   4.082   2.492   4.202  0.0802 -0.2257 -0.5780
  149OSM   H12F16563   3.972   2.489   4.189 -0.0891  0.7153  0.4271
  149OSM   H12G16564   4.123   2.593   4.178 -1.6264  0.6085 -0.1877
  149OSM   C13F16565   4.100   2.468   4.359 -0.3048 -0.4298  0.2552
  149OSM   H13F16566   4.206   2.479   4.389 -0.2259 -0.0611 -0.1479
  149OSM   H13G16567   4.064   2.365   4.377  0.6004 -0.8261 -0.1843
  149OSM   C14F16568   4.024   2.563   4.450  0.4122 -0.5059  0.4474
  149OSM   H14F16569   3.917   2.560   4.423  0.2553  0.9117  0.8189
  149OSM   H14G16570   4.049   2.667   4.421 -1.2352 -0.8105 -2.4224
  149OSM   C15F16571   4.044   2.529   4.596  0.0125 -0.2710 -0.2135
  149OSM   H15F16572   3.998   2.610   4.658 -0.3912 -0.9328  0.3669
  149OSM   H15G16573   4.155   2.523   4.605  0.3499  3.2016 -0.4847
  149OSM   C16F16574   3.973   2.400   4.637 -0.2400  0.2657  0.0783
  149OSM   H16F16575   4.026   2.314   4.590 -2.0683 -3.0124  3.4795
  149OSM   H16G16576   3.865   2.410   4.613  0.0296  0.5210 -1.1333
  149OSM   C17F16577   3.983   2.365   4.786  0.0985  0.1187  0.8858
  149OSM   H17F16578   3.933   2.266   4.797  0.2952 -0.6608 -3.3877
  149OSM   H17G16579   3.924   2.445   4.835 -2.2000 -0.7875 -0.2882
  149OSM   C18F16580   4.125   2.353   4.844 -0.1929  0.0018 -0.6228
  149OSM   H18F16581   4.171   2.454   4.838  1.0380 -0.6364 -2.3412
  149OSM   H18G16582   4.190   2.280   4.792 -0.5863 -1.6202  1.0538
  149OSM   H18H16583   4.130   2.342   4.955  3.6471  1.5860 -0.4729
  150OSM      N16584   2.850   4.804   1.815  0.7382  0.3136  0.1570
  150OSM    C1516585   2.881   4.950   1.813 -0.2187 -0.6208  0.0287
  150OSM   H15A16586   2.983   4.969   1.843 -0.8694  1.9443  0.8490
  150OSM   H15B16587   2.814   5.006   1.876  0.6972  0.9933 -0.3887
  150OSM   H15C16588   2.860   4.980   1.712 -0.0338  0.7436  0.3767
  150OSM    C1416589   2.706   4.789   1.767  0.1819 -0.1498  1.5040
  150OSM   H14A16590   2.678   4.689   1.736  0.6609  0.0282  0.4637
  150OSM   H14B16591   2.689   4.844   1.676 -1.4979 -1.7283  0.8095
  150OSM   H14C16592   2.641   4.831   1.842  1.1961  2.3934  1.0469
  150OSM    C1316593   2.928   4.736   1.705  0.2010 -0.4892  0.0210
  150OSM   H13A16594   3.032   4.736   1.734  0.4757  0.6537 -0.8531
  150OSM   H13B16595   2.919   4.784   1.608 -1.4968 -0.0326  0.3578
  150OSM   H13C16596   2.897   4.634   1.690 -0.6934 -0.2832  0.3571
  150OSM    C1216597   2.869   4.736   1.951 -0.4564  0.5157 -0.2488
  150OSM   H12A16598   2.854   4.629   1.956 -1.2749  0.6908  2.0065
  150OSM   H12B16599   2.800   4.776   2.023  0.4871 -2.1134  2.3072
  150OSM    C1116600   3.002   4.772   2.023  0.3030  0.4627 -0.0312
  150OSM   H11A16601   2.993   4.730   2.125  1.4461  0.1712 -0.0301
  150OSM   H11B16602   2.996   4.881   2.039  0.1153  0.2535  1.4468
  150OSM      P16603   3.197   4.603   1.976 -0.1363  0.0529 -0.1560
  150OSM    O1316604   3.155   4.501   1.873 -0.4553  0.2935  0.3523
  150OSM    O1416605   3.337   4.630   1.989  0.7965 -0.2482  1.3410
  150OSM    O1116606   3.149   4.572   2.121 -0.0422  0.5840 -0.1205
  150OSM    O1216607   3.117   4.735   1.943 -0.2528  0.3951  0.1430
  150OSM    C1S16608   3.177   4.441   2.171 -1.2752  0.2140  0.2140
  150OSM    H1S16609   3.284   4.411   2.176 -1.7648 -1.5716  0.9326
  150OSM    H1T16610   3.127   4.365   2.107  2.5219 -0.8096 -1.7781
  150OSM     NF16611   3.187   4.313   2.383  0.1605  0.7064  0.2153
  150OSM    HNF16612   3.135   4.228   2.385 -1.6632  1.7654 -0.0507
  150OSM    C2S16613   3.116   4.416   2.305  0.5373 -0.4214  0.5113
  150OSM    H2S16614   3.121   4.514   2.357 -0.3114 -0.1008  0.0083
  150OSM    C3S16615   2.959   4.401   2.277  0.2761  0.0252 -0.4004
  150OSM    H3S16616   2.955   4.302   2.227  1.6969 -0.8930  1.1757
  150OSM     O316617   2.904   4.493   2.188  0.1178  0.2400 -0.7114
  150OSM    HO316618   2.984   4.530   2.150 -0.4987  1.1555 -1.1554
  150OSM    C4S16619   2.882   4.380   2.404 -0.4000 -0.0618 -0.1255
  150OSM    H4S16620   2.876   4.272   2.423 -1.0389 -0.6008 -2.9673
  150OSM    C5S16621   2.810   4.461   2.486 -1.6668 -0.0890  0.4026
  150OSM    H5S16622   2.804   4.569   2.467 -0.4937 -0.4013 -2.0436
  150OSM    C6S16623   2.726   4.415   2.601  0.1170 -0.0971  0.5503
  150OSM    H6S16624   2.736   4.476   2.693 -1.4497 -0.7438  1.1757
  150OSM    H6T16625   2.744   4.308   2.624 -0.3068 -0.4699 -0.7653
  150OSM    C7S16626   2.584   4.428   2.565 -0.0357 -0.4154 -0.3027
  150OSM    H7S16627   2.550   4.345   2.500  2.0324 -0.0942 -1.8743
  150OSM    H7T16628   2.565   4.530   2.524  0.7996 -0.3063 -0.4367
  150OSM    C8S16629   2.498   4.403   2.682 -0.7229  0.5342  0.0633
  150OSM    H8S16630   2.509   4.493   2.745 -0.7555  0.4478  0.1935
  150OSM    H8T16631   2.532   4.315   2.741  0.9300 -0.8803 -2.7628
  150OSM    C9S16632   2.357   4.396   2.639 -0.0861  0.1064  0.4541
  150OSM    H9S16633   2.354   4.327   2.552 -2.5215  0.9912 -0.2346
  150OSM    H9T16634   2.334   4.503   2.618  0.9469  0.8187  2.6140
  150OSM   C10S16635   2.251   4.358   2.742 -0.7155  0.1412  0.1433
  150OSM   H10S16636   2.152   4.368   2.693  0.3245  0.4280 -2.0086
  150OSM   H10T16637   2.274   4.427   2.826  2.0868 -2.0643  1.3749
  150OSM   C11S16638   2.268   4.206   2.798 -0.4810 -0.5181 -0.0992
  150OSM   H11S16639   2.374   4.198   2.831 -0.2640  1.2338 -0.2636
  150OSM   H11T16640   2.250   4.125   2.724 -0.3795 -0.1977 -0.4786
  150OSM   C12S16641   2.191   4.194   2.926  0.6449 -0.6192 -0.4661
  150OSM   H12S16642   2.181   4.092   2.969 -0.3727  0.1078  1.1240
  150OSM   H12T16643   2.088   4.229   2.905  0.8271  0.2019 -0.0249
  150OSM   C13S16644   2.255   4.267   3.043 -0.7834 -0.7640  0.0223
  150OSM   H13S16645   2.186   4.260   3.130 -0.5922 -1.8359  0.0960
  150OSM   H13T16646   2.273   4.373   3.013 -1.0434 -0.7619 -0.1263
  150OSM   C14S16647   2.386   4.207   3.099  0.5135  0.1118  0.2954
  150OSM   H14S16648   2.454   4.217   3.011  0.4554  0.5461  0.2979
  150OSM   H14T16649   2.369   4.097   3.100 -0.4303  0.1812 -1.8840
  150OSM   C15S16650   2.448   4.280   3.217 -0.0689 -0.5913  0.1725
  150OSM   H15S16651   2.464   4.388   3.197  1.0436 -1.0309 -1.5288
  150OSM   H15T16652   2.551   4.241   3.232 -0.4928 -0.6179  4.0923
  150OSM   C16S16653   2.381   4.258   3.350 -0.9819 -0.4310 -0.6550
  150OSM   H16S16654   2.369   4.153   3.383 -1.4608 -0.0926  0.3103
  150OSM   H16T16655   2.278   4.299   3.350 -1.0560 -0.2804  2.7924
  150OSM   C17S16656   2.455   4.318   3.472  0.0718  1.0338 -0.5993
  150OSM   H17S16657   2.397   4.323   3.567  2.4131  1.8405  0.8924
  150OSM   H17T16658   2.468   4.427   3.455 -0.6314  1.0068 -1.3287
  150OSM   C18S16659   2.583   4.239   3.516  0.2859 -0.6288  0.0937
  150OSM   H18S16660   2.570   4.173   3.605  0.1668 -1.1410 -0.2984
  150OSM   H18T16661   2.661   4.312   3.544 -0.4342  0.4942 -0.7383
  150OSM   H18U16662   2.622   4.171   3.438 -0.9308 -0.3935 -0.7515
  150OSM    C1F16663   3.317   4.329   2.430  0.8958 -0.5441  0.2243
  150OSM     OF16664   3.368   4.441   2.405 -0.7182  0.8661 -0.2209
  150OSM    C2F16665   3.388   4.217   2.499  0.4573 -0.4689  0.0473
  150OSM    H2F16666   3.397   4.142   2.417 -0.1624  0.2924 -0.7320
  150OSM    H2G16667   3.331   4.186   2.589  0.9300  1.1101  0.9171
  150OSM    C3F16668   3.538   4.244   2.532 -0.0344  0.0299 -0.1227
  150OSM    H3F16669   3.544   4.324   2.608  1.0774  1.8599 -2.0109
  150OSM    H3G16670   3.584   4.290   2.442  0.3263 -0.3235 -0.1224
  150OSM    C4F16671   3.619   4.120   2.583  1.0191  0.4116  0.0715
  150OSM    H4F16672   3.661   4.064   2.497 -2.2088 -0.1124 -1.3007
  150OSM    H4G16673   3.539   4.050   2.614  2.1198 -0.0471  2.0567
  150OSM    C5F16674   3.721   4.158   2.690 -0.7219 -0.5977  0.1452
  150OSM    H5F16675   3.765   4.063   2.730 -0.2699 -0.9106 -1.0628
  150OSM    H5G16676   3.668   4.199   2.779 -1.2084 -2.6777  0.8848
  150OSM    C6F16677   3.836   4.247   2.650 -0.6365  0.4496 -0.5108
  150OSM    H6F16678   3.784   4.336   2.609  0.1906  0.3815 -1.7437
  150OSM    H6G16679   3.904   4.187   2.585 -0.7803  0.1506 -0.3866
  150OSM    C7F16680   3.916   4.297   2.780 -0.5251 -0.2326 -0.1463
  150OSM    H7F16681   3.922   4.217   2.857 -0.8979 -0.0692  0.0544
  150OSM    H7G16682   3.843   4.364   2.831  1.3190  0.6319  1.5091
  150OSM    C8F16683   4.054   4.358   2.752  0.1432  0.3523  0.4341
  150OSM    H8F16684   4.040   4.434   2.672 -0.2894 -1.3482 -1.1833
  150OSM    H8G16685   4.129   4.286   2.714 -0.6015 -0.1668 -0.0862
  150OSM    C9F16686   4.094   4.427   2.879  0.3024 -0.5520 -0.2823
  150OSM    H9F16687   4.019   4.491   2.929  3.3182  1.9394  1.3730
  150OSM   C10F16688   4.215   4.423   2.941  0.3692 -0.7258 -0.4856
  150OSM   H10F16689   4.227   4.500   3.018 -1.7031 -0.9172  0.1106
  150OSM   C11F16690   4.339   4.352   2.886 -0.3042  0.4543  0.5677
  150OSM   H11F16691   4.429   4.402   2.925  0.0616 -0.3562  0.7828
  150OSM   H11G16692   4.346   4.357   2.775  0.2981 -2.8747  0.3458
  150OSM   C12F16693   4.339   4.201   2.919 -0.6498 -0.2919  0.3345
  150OSM   H12F16694   4.420   4.155   2.858  0.3188  2.4205 -0.5633
  150OSM   H12G16695   4.245   4.159   2.877 -0.6814  1.4919 -1.5511
  150OSM   C13F16696   4.338   4.172   3.071 -0.0653 -0.5825  0.0681
  150OSM   H13F16697   4.250   4.218   3.120 -0.2164 -0.6571 -0.1330
  150OSM   H13G16698   4.430   4.216   3.115 -0.0237  0.6845 -1.2318
  150OSM   C14F16699   4.343   4.021   3.095 -0.3275  0.0703 -0.0338
  150OSM   H14F16700   4.404   3.982   3.011 -2.2048 -0.1719 -1.3537
  150OSM   H14G16701   4.238   3.984   3.091 -1.0937  2.1205 -0.2290
  150OSM   C15F16702   4.417   3.986   3.221  0.5849  0.9196 -0.6041
  150OSM   H15F16703   4.518   3.950   3.190 -0.2601  0.0119 -2.4676
  150OSM   H15G16704   4.364   3.894   3.254  0.2018  1.4726  0.3503
  150OSM   C16F16705   4.417   4.091   3.333  0.7356 -0.6165 -0.4782
  150OSM   H16F16706   4.308   4.111   3.348  1.1150  1.2535  0.1067
  150OSM   H16G16707   4.471   4.182   3.299  0.2659 -0.5977 -1.2166
  150OSM   C17F16708   4.458   4.030   3.470 -0.3965 -0.2642  0.8651
  150OSM   H17F16709   4.392   3.957   3.522 -0.7075  1.1564  2.5525
  150OSM   H17G16710   4.458   4.114   3.543 -1.3563 -1.0277  1.7885
  150OSM   C18F16711   4.597   3.960   3.470 -0.6866 -0.4984  0.7666
  150OSM   H18F16712   4.675   4.034   3.441  0.8331 -1.7391  1.5986
  150OSM   H18G16713   4.589   3.885   3.389 -2.4613  1.5122 -1.0699
  150OSM   H18H16714   4.619   3.918   3.570 -2.7463  0.2052  1.5623
  151OSM      N16715   4.213   4.436   1.976 -0.1766  0.0951 -0.3730
  151OSM    C1516716   4.239   4.340   1.862  0.1906 -0.1967  0.0123
  151OSM   H15A16717   4.150   4.279   1.850 -0.7015  1.2259 -0.9652
  151OSM   H15B16718   4.303   4.259   1.893 -0.4980 -0.1647  1.6047
  151OSM   H15C16719   4.275   4.380   1.768 -0.4818 -0.7945 -0.5116
  151OSM    C1416720   4.324   4.535   1.959 -0.2568  0.4719  0.3958
  151OSM   H14A16721   4.310   4.575   1.860  1.3243  0.3358  0.1043
  151OSM   H14B16722   4.423   4.495   1.974 -1.2891 -2.0639  0.9324
  151OSM   H14C16723   4.313   4.625   2.018  1.2080  2.6873 -2.4729
  151OSM    C1316724   4.082   4.498   1.958 -0.5130 -0.2559 -0.0392
  151OSM   H13A16725   3.991   4.440   1.945 -1.8078  1.8626 -1.0590
  151OSM   H13B16726   4.095   4.570   1.878 -1.9792  2.0994  1.6919
  151OSM   H13C16727   4.063   4.558   2.046  0.3696 -0.5799  0.3776
  151OSM    C1216728   4.218   4.367   2.109  0.0954 -0.9310  0.2170
  151OSM   H12A16729   4.130   4.307   2.125 -2.0034  2.3151  1.8904
  151OSM   H12B16730   4.213   4.449   2.179 -0.7597  0.4136 -1.3521
  151OSM    C1116731   4.338   4.271   2.149  0.1511 -0.0525 -0.6170
  151OSM   H11A16732   4.333   4.259   2.259 -0.9991  0.4112 -0.6037
  151OSM   H11B16733   4.433   4.322   2.124 -0.7839  2.9181  1.3706
  151OSM      P16734   4.231   4.028   2.126 -0.1591  0.3692  0.2977
  151OSM    O1316735   4.092   4.055   2.089  0.2498 -0.0776  1.3190
  151OSM    O1416736   4.284   3.902   2.081  0.0946  0.2975 -0.1708
  151OSM    O1116737   4.249   4.042   2.279  0.0142 -0.4005  0.0622
  151OSM    O1216738   4.331   4.142   2.083  0.1103 -0.1418  0.1307
  151OSM    C1S16739   4.317   3.936   2.354  0.2445 -0.0699 -0.2227
  151OSM    H1S16740   4.423   3.963   2.374 -0.1513  0.2669  1.5684
  151OSM    H1T16741   4.323   3.838   2.301  0.6057  0.0387 -0.3879
  151OSM     NF16742   4.345   3.828   2.567  0.5676  0.7762  0.3569
  151OSM    HNF16743   4.313   3.738   2.594  1.2652 -0.3271 -2.2185
  151OSM    C2S16744   4.263   3.924   2.497  0.6435  0.5592  0.3446
  151OSM    H2S16745   4.240   4.019   2.550 -0.3914  0.3199  0.3576
  151OSM    C3S16746   4.112   3.875   2.482  0.6145 -0.2929 -0.1387
  151OSM    H3S16747   4.113   3.785   2.417  0.8270 -0.5536  0.2260
  151OSM     O316748   4.022   3.967   2.420 -0.0424  0.3472 -0.7503
  151OSM    HO316749   4.075   4.020   2.359 -0.6395  0.7573 -0.9216
  151OSM    C4S16750   4.052   3.814   2.612 -0.0792  0.1173  0.5003
  151OSM    H4S16751   4.086   3.710   2.620  0.3925  0.3956  3.0072
  151OSM    C5S16752   3.973   3.866   2.700  0.2511  0.3063 -0.9481
  151OSM    H5S16753   3.928   3.966   2.693 -0.5002  0.1524  1.0802
  151OSM    C6S16754   3.935   3.784   2.819 -0.5551  0.1268 -0.4366
  151OSM    H6S16755   3.940   3.676   2.794  1.1446  0.0699 -0.0204
  151OSM    H6T16756   3.831   3.813   2.846 -1.7400 -3.2568 -0.8790
  151OSM    C7S16757   4.031   3.817   2.938 -0.3904 -0.1476 -0.3379
  151OSM    H7S16758   4.014   3.923   2.966 -1.0554 -0.5586  0.8602
  151OSM    H7T16759   4.136   3.821   2.902 -0.4385  1.4644 -0.3955
  151OSM    C8S16760   4.012   3.731   3.062  0.2952 -0.1583  0.1483
  151OSM    H8S16761   4.013   3.625   3.029 -0.7070 -0.0491 -0.2782
  151OSM    H8T16762   3.903   3.738   3.084  0.2066 -2.5392  0.7551
  151OSM    C9S16763   4.101   3.751   3.186  0.1331  0.3591 -0.5861
  151OSM    H9S16764   4.200   3.788   3.152 -0.8835  3.8178 -0.1385
  151OSM    H9T16765   4.111   3.654   3.239  0.8184 -0.1718 -1.6373
  151OSM   C10S16766   4.043   3.850   3.286  0.7455  0.1234 -0.0935
  151OSM   H10S16767   3.933   3.845   3.301  0.3961  1.7511 -1.7567
  151OSM   H10T16768   4.070   3.951   3.248  1.4778 -0.2414 -0.5519
  151OSM   C11S16769   4.123   3.844   3.419  0.2024 -0.4823 -0.1823
  151OSM   H11S16770   4.227   3.883   3.408 -0.1137  0.4662  0.0346
  151OSM   H11T16771   4.119   3.738   3.451  0.6371 -0.5968 -0.5129
  151OSM   C12S16772   4.041   3.909   3.536 -0.8545  0.6472  0.2753
  151OSM   H12S16773   3.946   3.853   3.549 -0.6081 -0.1781 -1.1692
  151OSM   H12T16774   4.027   4.017   3.513  0.2649  1.1042  1.6044
  151OSM   C13S16775   4.113   3.886   3.670 -0.5103 -1.3074  0.3441
  151OSM   H13S16776   4.202   3.951   3.678  0.0959 -2.1869  0.9792
  151OSM   H13T16777   4.145   3.781   3.686  0.9767 -0.8444  0.4821
  151OSM   C14S16778   4.026   3.921   3.794  0.0963 -0.2347 -0.1822
  151OSM   H14S16779   4.082   3.891   3.885  1.7883  1.1530 -0.7293
  151OSM   H14T16780   3.936   3.857   3.775  1.1349 -1.1703 -2.3046
  151OSM   C15S16781   3.968   4.062   3.809  0.5397 -0.0246 -0.2006
  151OSM   H15S16782   3.938   4.108   3.712 -0.3419  0.6102  0.3620
  151OSM   H15T16783   4.052   4.127   3.842  0.6347 -0.0117 -0.4606
  151OSM   C16S16784   3.843   4.060   3.900 -0.2749  0.2543  0.1751
  151OSM   H16S16785   3.862   4.017   4.001  0.2242 -0.4682 -0.2157
  151OSM   H16T16786   3.764   4.005   3.844 -2.8232  2.6105  1.1915
  151OSM   C17S16787   3.783   4.195   3.929  0.6643  0.1518 -0.8697
  151OSM   H17S16788   3.752   4.236   3.830 -0.7235 -0.8877 -0.8891
  151OSM   H17T16789   3.860   4.255   3.982 -0.2659  2.8418 -2.3526
  151OSM   C18S16790   3.660   4.190   4.024  0.2606  0.5664  0.2487
  151OSM   H18S16791   3.589   4.113   3.985 -0.8279  1.2723  0.7782
  151OSM   H18T16792   3.609   4.288   4.028 -1.4311 -0.2928  0.9753
  151OSM   H18U16793   3.681   4.148   4.125  0.3286  1.0280  0.4263
  151OSM    C1F16794   4.462   3.867   2.611 -0.5164  0.7569 -0.3528
  151OSM     OF16795   4.505   3.975   2.573 -0.0294 -0.3031  0.2929
  151OSM    C2F16796   4.532   3.777   2.713 -0.4189  0.3472 -0.2094
  151OSM    H2F16797   4.594   3.708   2.652 -2.5820 -1.1888 -0.8042
  151OSM    H2G16798   4.458   3.719   2.772 -0.5626  3.1370  2.6395
  151OSM    C3F16799   4.612   3.848   2.825 -0.2373 -0.4817 -0.4487
  151OSM    H3F16800   4.544   3.916   2.881 -1.1589  0.4183 -2.5565
  151OSM    H3G16801   4.691   3.912   2.779 -0.4165 -1.6676 -2.4942
  151OSM    C4F16802   4.683   3.750   2.923 -0.3759 -0.9010  0.4940
  151OSM    H4F16803   4.745   3.674   2.871 -2.1814 -1.8204 -0.4302
  151OSM    H4G16804   4.595   3.703   2.972  0.8129 -0.3716  3.3375
  151OSM    C5F16805   4.747   3.825   3.041  0.4900  0.4123  0.5923
  151OSM    H5F16806   4.693   3.916   3.074  2.6909  2.7940 -1.8460
  151OSM    H5G16807   4.846   3.858   3.003  1.4406 -3.3618 -0.6634
  151OSM    C6F16808   4.771   3.733   3.157 -0.5438 -0.2965 -0.0683
  151OSM    H6F16809   4.809   3.638   3.115 -1.0887 -0.7391  0.4313
  151OSM    H6G16810   4.685   3.711   3.223 -0.2735  0.3096  0.5038
  151OSM    C7F16811   4.878   3.793   3.251  0.1381  0.5942  0.9894
  151OSM    H7F16812   4.831   3.884   3.294 -0.5585  0.4738  0.4991
  151OSM    H7G16813   4.970   3.830   3.199 -0.5886  1.7173  0.4587
  151OSM    C8F16814   4.931   3.703   3.359 -0.1544  0.9688 -0.2094
  151OSM    H8F16815   4.962   3.616   3.298 -1.8640  1.7898 -2.3818
  151OSM    H8G16816   4.835   3.676   3.409  0.9578 -1.8952  0.5779
  151OSM    C9F16817   5.046   3.759   3.441  0.1163  0.7971  0.0132
  151OSM    H9F16818   5.125   3.802   3.378 -1.7138 -0.4519 -3.3659
  151OSM   C10F16819   5.069   3.744   3.569  0.1301  0.4787 -0.4770
  151OSM   H10F16820   5.162   3.783   3.613 -0.8746 -1.2783  3.6789
  151OSM   C11F16821   4.991   3.664   3.672 -0.5432 -0.1901 -0.0796
  151OSM   H11F16822   4.906   3.613   3.621 -0.0087  0.6746 -1.9323
  151OSM   H11G16823   4.949   3.744   3.736 -1.7092  0.0917 -1.1469
  151OSM   C12F16824   5.077   3.551   3.740  0.0594 -0.3150 -0.1792
  151OSM   H12F16825   5.131   3.488   3.666  1.5242 -2.2856  2.4209
  151OSM   H12G16826   5.006   3.487   3.795 -1.8996  1.6544 -0.2581
  151OSM   C13F16827   5.167   3.613   3.848 -0.2090  0.2142  0.1898
  151OSM   H13F16828   5.100   3.686   3.900  0.0257  0.6469 -0.1057
  151OSM   H13G16829   5.254   3.658   3.796  0.1410 -0.6784 -0.0048
  151OSM   C14F16830   5.224   3.519   3.953  0.2872  0.2704  0.0130
  151OSM   H14F16831   5.232   3.417   3.909 -0.3063  0.2088  0.0436
  151OSM   H14G16832   5.151   3.519   4.037 -1.2303  4.1060 -1.1285
  151OSM   C15F16833   5.362   3.562   4.001 -0.3231 -0.3142 -0.1726
  151OSM   H15F16834   5.351   3.666   4.037  0.4713  0.7191 -2.7024
  151OSM   H15G16835   5.434   3.574   3.918  0.6761  1.6838  0.9209
  151OSM   C16F16836   5.428   3.464   4.105  0.0282  0.2878 -0.0708
  151OSM   H16F16837   5.479   3.378   4.056 -1.8708 -1.6039  1.0528
  151OSM   H16G16838   5.345   3.431   4.172 -1.6711  2.0440 -1.2181
  151OSM   C17F16839   5.543   3.525   4.193 -0.1830  0.1939 -0.3073
  151OSM   H17F16840   5.580   3.440   4.254 -3.0577 -0.6687  0.3811
  151OSM   H17G16841   5.513   3.599   4.271 -0.1413 -0.5377  0.4130
  151OSM   C18F16842   5.657   3.578   4.109 -0.5109 -0.7105 -0.2164
  151OSM   H18F16843   5.727   3.638   4.172 -0.7108  0.1792 -0.8114
  151OSM   H18G16844   5.635   3.630   4.013 -0.5147  0.9433  0.6515
  151OSM   H18H16845   5.710   3.483   4.089  1.3246 -0.5497  3.0804
  152OSM      N16846   5.850   6.226   2.561 -0.0212  0.6820 -0.3784
  152OSM    C1516847   5.901   6.362   2.513  0.3626  0.1308  0.3176
  152OSM   H15A16848   5.993   6.379   2.568  0.6782 -2.1686  0.5995
  152OSM   H15B16849   5.818   6.428   2.530  0.3426  0.0821  0.4125
  152OSM   H15C16850   5.919   6.367   2.407  0.3098 -1.0245  0.2357
  152OSM    C1416851   5.730   6.174   2.496  0.1664  0.2793  0.0374
  152OSM   H14A16852   5.664   6.260   2.495  1.8203  1.6383  1.2273
  152OSM   H14B16853   5.680   6.103   2.560 -1.0533  0.4541 -0.6975
  152OSM   H14C16854   5.760   6.135   2.400  1.0432  2.9998 -0.8964
  152OSM    C1316855   5.968   6.131   2.544  0.3060  0.2774 -0.4612
  152OSM   H13A16856   5.943   6.036   2.589 -1.2635  0.6663 -0.4386
  152OSM   H13B16857   6.044   6.184   2.599  0.2079  0.3330 -0.3772
  152OSM   H13C16858   5.995   6.117   2.440  3.3481 -0.0870  0.3042
  152OSM    C1216859   5.809   6.231   2.711 -0.1116  0.4609  0.8347
  152OSM   H12A16860   5.890   6.267   2.774 -1.1458  2.1897  1.2354
  152OSM   H12B16861   5.782   6.132   2.744  0.7824 -0.4485 -0.9909
  152OSM    C1116862   5.701   6.340   2.752  0.3163 -0.1604 -0.1579
  152OSM   H11A16863   5.724   6.436   2.701  0.7970 -0.1027  0.1535
  152OSM   H11B16864   5.714   6.354   2.862  1.4342 -0.4140 -0.2402
  152OSM      P16865   5.460   6.390   2.673  0.4794  0.4502 -0.1418
  152OSM    O1316866   5.518   6.501   2.593  0.1408 -0.3934  0.7719
  152OSM    O1416867   5.359   6.300   2.610  0.1449  0.0879 -0.1100
  152OSM    O1116868   5.396   6.451   2.805  0.1512 -0.1664  1.2115
  152OSM    O1216869   5.574   6.290   2.719  0.2999 -0.6470  0.0627
  152OSM    C1S16870   5.362   6.377   2.923  0.1153 -0.3112 -0.0771
  152OSM    H1S16871   5.392   6.270   2.914 -0.0457 -0.2989 -0.8138
  152OSM    H1T16872   5.254   6.384   2.947 -0.0060  2.7168 -1.1466
  152OSM     NF16873   5.396   6.339   3.172 -0.1291 -0.4104 -0.3216
  152OSM    HNF16874   5.312   6.358   3.222  0.6488  0.3524  0.7451
  152OSM    C2S16875   5.417   6.433   3.061 -0.7030  0.4467  0.3393
  152OSM    H2S16876   5.527   6.442   3.049 -0.9404  1.0592 -1.8506
  152OSM    C3S16877   5.371   6.580   3.080  0.4170 -0.1510  0.9989
  152OSM    H3S16878   5.260   6.570   3.087  0.2111  1.0604 -0.0372
  152OSM     O316879   5.388   6.661   2.966  0.1755 -0.3521  0.2840
  152OSM    HO316880   5.387   6.597   2.894 -1.3319  0.6363 -0.6317
  152OSM    C4S16881   5.439   6.646   3.200 -0.7432 -0.4992  0.2399
  152OSM    H4S16882   5.548   6.633   3.203 -0.7524 -0.4941  0.5518
  152OSM    C5S16883   5.389   6.718   3.297  0.0658 -0.8439  0.7926
  152OSM    H5S16884   5.279   6.719   3.307 -0.1334 -2.1049 -0.7455
  152OSM    C6S16885   5.466   6.766   3.418  0.1337  0.1655 -0.6941
  152OSM    H6S16886   5.416   6.735   3.513  1.9458  1.9266  0.9310
  152OSM    H6T16887   5.449   6.876   3.420  0.0140  0.1519  1.4617
  152OSM    C7S16888   5.618   6.744   3.426 -0.2440 -0.1697  0.6279
  152OSM    H7S16889   5.679   6.799   3.351 -2.3222  1.6683  0.1856
  152OSM    H7T16890   5.633   6.635   3.411  0.7183  0.2208 -1.8128
  152OSM    C8S16891   5.680   6.778   3.561 -0.3565 -0.0802 -0.0511
  152OSM    H8S16892   5.784   6.739   3.568 -1.0466 -2.0939 -0.3367
  152OSM    H8T16893   5.628   6.731   3.647 -1.2546  0.8433 -0.0780
  152OSM    C9S16894   5.682   6.927   3.593 -0.4812 -0.0712 -0.1363
  152OSM    H9S16895   5.577   6.963   3.599 -0.2702  0.8326 -1.4136
  152OSM    H9T16896   5.718   6.983   3.503  0.8052  0.1354  0.4876
  152OSM   C10S16897   5.754   6.967   3.735  0.3747 -0.6899  0.8237
  152OSM   H10S16898   5.844   6.904   3.747 -0.4521 -1.8011  1.3963
  152OSM   H10T16899   5.671   6.934   3.802 -1.1698  0.8200 -0.2307
  152OSM   C11S16900   5.774   7.115   3.746 -0.0180 -0.2238 -0.0770
  152OSM   H11S16901   5.671   7.155   3.731 -1.7183 -2.9485  3.0062
  152OSM   H11T16902   5.836   7.142   3.658 -1.0748  1.4744 -0.3438
  152OSM   C12S16903   5.819   7.160   3.883 -0.2539 -0.3763  0.2567
  152OSM   H12S16904   5.929   7.143   3.878 -0.0820  0.9215 -0.6774
  152OSM   H12T16905   5.781   7.116   3.978 -0.9857  2.1248  1.2022
  152OSM   C13S16906   5.800   7.314   3.893  0.5446  0.7760  0.3750
  152OSM   H13S16907   5.703   7.361   3.866  0.3361  0.5908  0.7749
  152OSM   H13T16908   5.875   7.350   3.821  1.6716 -1.8653  0.0953
  152OSM   C14S16909   5.854   7.376   4.024  0.1650 -0.5722 -0.4862
  152OSM   H14S16910   5.957   7.340   4.045  1.4972  2.1373 -1.7363
  152OSM   H14T16911   5.802   7.324   4.106 -1.0231 -2.0598 -2.0995
  152OSM   C15S16912   5.849   7.532   4.034  0.0109 -0.3451 -0.6318
  152OSM   H15S16913   5.871   7.578   3.936 -0.0908  1.2569  0.0621
  152OSM   H15T16914   5.932   7.554   4.106 -0.2333 -2.5613  0.4136
  152OSM   C16S16915   5.719   7.596   4.092  0.4300 -0.1381  0.4792
  152OSM   H16S16916   5.641   7.596   4.013 -1.0093 -0.2111  1.8331
  152OSM   H16T16917   5.737   7.705   4.103  1.3540 -0.3514  1.2256
  152OSM   C17S16918   5.656   7.524   4.211 -0.0179 -0.6376 -0.3679
  152OSM   H17S16919   5.727   7.492   4.289 -0.0347 -0.6952 -0.3760
  152OSM   H17T16920   5.616   7.430   4.167 -0.6738 -0.8499  0.6397
  152OSM   C18S16921   5.549   7.614   4.270  0.3982 -0.4333  0.0895
  152OSM   H18S16922   5.598   7.707   4.306  1.9877 -0.7372 -1.1272
  152OSM   H18T16923   5.491   7.561   4.348  1.9946 -0.8026  1.0661
  152OSM   H18U16924   5.471   7.642   4.196 -1.5126 -0.7133  1.9068
  152OSM    C1F16925   5.470   6.223   3.183 -0.0816  0.4116  0.7170
  152OSM     OF16926   5.551   6.185   3.094  0.0387  0.3793  0.1280
  152OSM    C2F16927   5.434   6.134   3.293  0.4939  0.8861 -0.3644
  152OSM    H2F16928   5.332   6.094   3.271  0.6728  1.2366 -2.0173
  152OSM    H2G16929   5.438   6.195   3.385  0.1557  1.6539 -0.8545
  152OSM    C3F16930   5.534   6.018   3.317  0.5788 -0.4082  0.7100
  152OSM    H3F16931   5.635   6.064   3.316 -0.6749  2.5155 -0.4504
  152OSM    H3G16932   5.523   5.939   3.239 -0.3411  1.4006 -1.1006
  152OSM    C4F16933   5.513   5.958   3.460 -0.1923 -0.4569  0.0412
  152OSM    H4F16934   5.404   5.947   3.480 -0.5567 -1.9690 -2.3117
  152OSM    H4G16935   5.556   6.027   3.536  2.5685 -1.6391 -0.3361
  152OSM    C5F16936   5.567   5.815   3.472  0.4835 -0.4839  0.0809
  152OSM    H5F16937   5.677   5.809   3.455  0.1314  0.6814 -3.1126
  152OSM    H5G16938   5.526   5.757   3.387 -2.8616 -0.5375  1.5626
  152OSM    C6F16939   5.530   5.748   3.606  0.2196 -0.1621  0.2032
  152OSM    H6F16940   5.530   5.637   3.603 -0.1447 -0.1931  1.1446
  152OSM    H6G16941   5.428   5.781   3.631 -0.5201  1.0617 -3.7836
  152OSM    C7F16942   5.610   5.807   3.725  0.0592  0.5612 -0.3131
  152OSM    H7F16943   5.637   5.912   3.700 -1.2478  0.9191 -0.2795
  152OSM    H7G16944   5.708   5.755   3.717  1.0678  2.1868  0.7519
  152OSM    C8F16945   5.544   5.801   3.867 -0.4512 -0.1637 -0.4866
  152OSM    H8F16946   5.535   5.695   3.898 -1.6402 -0.2139 -0.9481
  152OSM    H8G16947   5.448   5.849   3.838  0.3954  1.0468 -1.4068
  152OSM    C9F16948   5.595   5.881   3.983 -0.1190 -0.4011 -0.3773
  152OSM    H9F16949   5.528   5.963   4.011  0.4613 -0.1591  0.3281
  152OSM   C10F16950   5.706   5.847   4.054 -0.4861 -0.6168  0.1370
  152OSM   H10F16951   5.730   5.913   4.139 -1.8990  2.6403 -1.7922
  152OSM   C11F16952   5.810   5.734   4.016  0.4697  0.3664  0.2796
  152OSM   H11F16953   5.907   5.785   3.995 -0.7880  1.9262 -2.1194
  152OSM   H11G16954   5.778   5.694   3.918 -1.3808  1.2384  0.4861
  152OSM   C12F16955   5.825   5.627   4.127 -0.1181 -0.0371 -0.4930
  152OSM   H12F16956   5.852   5.672   4.225  0.1549 -1.1375 -0.0541
  152OSM   H12G16957   5.909   5.559   4.104 -0.7039 -0.3752 -1.6965
  152OSM   C13F16958   5.693   5.556   4.157 -0.0821  0.8018 -0.2628
  152OSM   H13F16959   5.651   5.537   4.056 -2.4114  1.8122  0.4427
  152OSM   H13G16960   5.618   5.620   4.209  1.4483  0.4297  2.6316
  152OSM   C14F16961   5.708   5.429   4.250  0.3485 -0.0326  0.3726
  152OSM   H14F16962   5.775   5.461   4.333  1.1658 -1.6308  0.3670
  152OSM   H14G16963   5.749   5.344   4.192  0.6173  0.7703 -0.6379
  152OSM   C15F16964   5.566   5.393   4.306  0.4593  0.0114 -0.7879
  152OSM   H15F16965   5.501   5.399   4.216  0.2195  1.5776 -0.5292
  152OSM   H15G16966   5.527   5.477   4.368  0.9315 -0.2221 -0.1585
  152OSM   C16F16967   5.579   5.264   4.393  0.7764 -0.1289  0.2316
  152OSM   H16F16968   5.651   5.284   4.475  2.9528 -0.6168 -1.4401
  152OSM   H16G16969   5.618   5.180   4.331 -0.8001  0.6826 -1.9921
  152OSM   C17F16970   5.442   5.220   4.451  0.2608  0.0924 -0.0146
  152OSM   H17F16971   5.398   5.298   4.517  0.4927 -0.3846  0.7213
  152OSM   H17G16972   5.445   5.129   4.513 -4.0623 -0.1195  0.2007
  152OSM   C18F16973   5.323   5.199   4.346  0.6760 -0.5646  0.3621
  152OSM   H18F16974   5.231   5.245   4.388  0.5512 -2.5289  2.4841
  152OSM   H18G16975   5.296   5.091   4.345 -1.6029 -0.0605  0.8610
  152OSM   H18H16976   5.352   5.236   4.246  1.3956  2.1715  1.4814
  153OSM      N16977   4.578   6.000   2.397  0.3025 -0.1702  0.3978
  153OSM    C1516978   4.549   6.005   2.250  0.1021  0.8191  0.6779
  153OSM   H15A16979   4.509   5.914   2.210  1.6837  1.8760 -3.9793
  153OSM   H15B16980   4.634   6.032   2.188  0.6039 -1.8613  0.0902
  153OSM   H15C16981   4.468   6.072   2.229  0.9070  1.3194 -1.0623
  153OSM    C1416982   4.458   5.942   2.467  0.4364 -0.1287  0.1634
  153OSM   H14A16983   4.470   5.950   2.574 -2.5183 -1.4960  0.7053
  153OSM   H14B16984   4.462   5.836   2.446 -0.4688 -0.4694  1.5231
  153OSM   H14C16985   4.366   5.983   2.428  1.0973 -0.3050 -1.6500
  153OSM    C1316986   4.704   5.911   2.411  0.2113  0.4651 -0.0197
  153OSM   H13A16987   4.765   5.929   2.498  0.4146  1.0096 -0.2704
  153OSM   H13B16988   4.774   5.933   2.332 -0.3213  2.8046  0.0908
  153OSM   H13C16989   4.678   5.806   2.416  2.4806 -0.1188  0.4378
  153OSM    C1216990   4.602   6.144   2.447 -0.7129  0.4259 -0.0737
  153OSM   H12A16991   4.506   6.193   2.440 -2.5548 -2.5746  1.7718
  153OSM   H12B16992   4.673   6.198   2.387 -0.0558  0.9997  1.1796
  153OSM    C1116993   4.633   6.154   2.601 -0.4729  0.4844 -0.7290
  153OSM   H11A16994   4.556   6.117   2.672  1.6200 -0.0370  1.4047
  153OSM   H11B16995   4.634   6.265   2.616  0.9954  0.5014 -0.8474
  153OSM      P16996   4.894   6.163   2.620  0.0575  0.0870 -0.3204
  153OSM    O1316997   4.994   6.058   2.586 -0.3327  0.4916 -0.2386
  153OSM    O1416998   4.882   6.288   2.539 -0.1305  0.8558  0.3692
  153OSM    O1116999   4.940   6.208   2.764  0.2615  0.1442  0.1568
  153OSM    O1217000   4.759   6.095   2.635 -0.6456 -0.2092 -0.3951
  153OSM    C1S17001   4.833   6.241   2.859 -0.1923  0.1098 -0.5877
  153OSM    H1S17002   4.730   6.231   2.818 -0.9889 -0.0927  1.3409
  153OSM    H1T17003   4.843   6.348   2.887 -1.8499  0.7049 -2.0700
  153OSM     NF17004   4.730   6.186   3.080  0.6320  0.2014 -0.0098
  153OSM    HNF17005   4.762   6.218   3.169  1.6066  1.6713 -0.8339
  153OSM    C2S17006   4.837   6.152   2.988  0.6318 -0.5855  0.4929
  153OSM    H2S17007   4.822   6.048   2.953 -0.1561  0.6030 -3.0563
  153OSM    C3S17008   4.972   6.162   3.065  0.2658  0.1405  0.0637
  153OSM    H3S17009   4.967   6.259   3.119 -1.5705 -0.1968  0.5823
  153OSM     O317010   5.094   6.160   2.991 -0.5275 -0.0065  0.5072
  153OSM    HO317011   5.065   6.188   2.903  0.3567 -0.6049  0.0109
  153OSM    C4S17012   4.974   6.058   3.172  0.6283  0.0047  0.6039
  153OSM    H4S17013   4.948   5.956   3.141  0.1917  0.0472  0.8156
  153OSM    C5S17014   4.995   6.068   3.300 -0.3444  0.6129 -0.5129
  153OSM    H5S17015   5.021   6.163   3.348  1.1783  0.7054 -1.4572
  153OSM    C6S17016   4.976   5.945   3.390 -0.1357  0.7517 -0.4870
  153OSM    H6S17017   5.073   5.894   3.402 -0.2217  0.4328 -1.0698
  153OSM    H6T17018   4.907   5.875   3.337  0.6612  0.8742 -1.7272
  153OSM    C7S17019   4.909   5.970   3.532 -0.5103 -0.9034  0.3065
  153OSM    H7S17020   4.873   5.872   3.569 -2.2067  0.4991  2.6078
  153OSM    H7T17021   4.827   6.044   3.530  0.6135  0.3794 -0.4617
  153OSM    C8S17022   5.011   6.041   3.628 -0.1768  0.1525 -0.4729
  153OSM    H8S17023   5.028   6.145   3.593  2.4211 -0.3588 -0.9323
  153OSM    H8T17024   5.110   5.993   3.616  0.2293  0.6011  0.8433
  153OSM    C9S17025   4.977   6.014   3.781 -0.5947 -0.0854  0.7419
  153OSM    H9S17026   4.961   5.907   3.807  1.5266 -0.2711  1.3962
  153OSM    H9T17027   4.886   6.075   3.799 -0.3897  0.4435  0.0274
  153OSM   C10S17028   5.078   6.069   3.885 -0.5565  0.2481  0.5209
  153OSM   H10S17029   5.101   6.175   3.862 -1.8741  0.8135  1.6756
  153OSM   H10T17030   5.168   6.004   3.887 -2.2651 -2.6577 -3.6578
  153OSM   C11S17031   5.009   6.089   4.025  0.0199 -0.2560  0.7124
  153OSM   H11S17032   4.987   5.992   4.074  0.2789 -0.7388 -0.0923
  153OSM   H11T17033   4.908   6.130   4.009  1.0717  1.3265 -2.8010
  153OSM   C12S17034   5.096   6.181   4.121  0.0312  0.3150  0.3584
  153OSM   H12S17035   5.139   6.266   4.064  0.5031  0.5066  0.9872
  153OSM   H12T17036   5.177   6.122   4.170  0.9918  1.0618 -0.2931
  153OSM   C13S17037   5.007   6.250   4.226 -0.9931  0.3973 -0.2150
  153OSM   H13S17038   4.922   6.304   4.178 -1.8214  0.4194  1.2203
  153OSM   H13T17039   5.070   6.333   4.265  0.0668  0.3713 -1.7650
  153OSM   C14S17040   4.977   6.157   4.350  0.9478  0.5078 -0.2116
  153OSM   H14S17041   4.875   6.114   4.344  0.3639  1.4384  2.0019
  153OSM   H14T17042   4.976   6.224   4.439  0.3145  1.9653 -1.2778
  153OSM   C15S17043   5.073   6.032   4.380 -0.3307 -0.3345 -0.0212
  153OSM   H15S17044   5.182   6.051   4.374 -0.2179 -0.7626  0.5936
  153OSM   H15T17045   5.063   5.967   4.291  0.3736 -2.0249  1.0932
  153OSM   C16S17046   5.030   5.943   4.502 -0.3729  0.4302 -0.5122
  153OSM   H16S17047   5.098   5.855   4.492  1.2113  1.7736 -2.6573
  153OSM   H16T17048   4.925   5.909   4.499 -0.7942  1.7168 -1.2159
  153OSM   C17S17049   5.058   6.027   4.622 -0.4108 -0.1686  0.5519
  153OSM   H17S17050   4.983   6.108   4.629 -0.6295 -0.3159 -0.0286
  153OSM   H17T17051   5.157   6.078   4.616 -0.9375  0.7590 -0.7399
  153OSM   C18S17052   5.046   5.941   4.749 -0.0829 -0.1277  1.1436
  153OSM   H18S17053   4.964   5.868   4.731  1.1417 -1.1406 -0.6447
  153OSM   H18T17054   5.024   6.016   4.828 -0.2559  0.7933  0.2525
  153OSM   H18U17055   5.138   5.885   4.775  1.1870  0.9842 -0.6704
  153OSM    C1F17056   4.601   6.165   3.056  0.1796 -0.1104  0.1064
  153OSM     OF17057   4.569   6.112   2.952  0.0654 -0.4565 -0.2197
  153OSM    C2F17058   4.500   6.213   3.144  0.1884  0.0573 -0.7038
  153OSM    H2F17059   4.414   6.251   3.085  2.5100  4.1147 -1.8672
  153OSM    H2G17060   4.529   6.296   3.212 -1.5503 -1.4122  2.0100
  153OSM    C3F17061   4.461   6.104   3.246  0.3984 -0.1143  0.1820
  153OSM    H3F17062   4.542   6.072   3.315  0.0558 -2.1077 -0.2809
  153OSM    H3G17063   4.438   6.010   3.190  0.1548 -0.0200  0.1196
  153OSM    C4F17064   4.343   6.143   3.333  1.0836 -0.0809 -0.4579
  153OSM    H4F17065   4.253   6.159   3.271  0.4848  0.0965  0.4311
  153OSM    H4G17066   4.365   6.240   3.383  0.1555 -0.5570  0.9433
  153OSM    C5F17067   4.315   6.037   3.444  0.1143  0.4198 -0.2793
  153OSM    H5F17068   4.341   6.085   3.541 -1.2710  0.2976  0.1697
  153OSM    H5G17069   4.365   5.938   3.434  1.0572  0.6710  1.5504
  153OSM    C6F17070   4.161   6.002   3.464 -0.7048  0.3620 -0.6247
  153OSM    H6F17071   4.103   6.093   3.489 -2.0258 -0.1333 -1.7558
  153OSM    H6G17072   4.160   5.936   3.553  0.4946 -0.8392 -1.4544
  153OSM    C7F17073   4.090   5.921   3.353 -1.1921  0.2657  0.4468
  153OSM    H7F17074   4.090   5.973   3.254  0.2371  0.3969  0.5004
  153OSM    H7G17075   3.984   5.898   3.377 -1.0445 -1.1972 -0.1875
  153OSM    C8F17076   4.161   5.786   3.319 -0.8803  0.6164 -0.0850
  153OSM    H8F17077   4.265   5.803   3.285 -1.0466  0.4322 -0.6990
  153OSM    H8G17078   4.114   5.736   3.231 -1.2385  0.4245  0.2119
  153OSM    C9F17079   4.154   5.686   3.434  0.7142 -0.0293 -0.1514
  153OSM    H9F17080   4.057   5.662   3.479  1.3123 -0.1997  1.1149
  153OSM   C10F17081   4.257   5.630   3.502  0.6314 -0.7407 -0.3063
  153OSM   H10F17082   4.233   5.565   3.587 -1.8014 -0.1772 -0.4650
  153OSM   C11F17083   4.403   5.637   3.459 -0.4689  0.0932  0.6449
  153OSM   H11F17084   4.430   5.697   3.369  0.2627 -2.3894 -0.8927
  153OSM   H11G17085   4.449   5.540   3.431  0.3877  0.8132 -0.5482
  153OSM   C12F17086   4.502   5.688   3.564  0.1572 -0.0981 -0.1603
  153OSM   H12F17087   4.467   5.784   3.608 -1.1507 -0.8579  0.5018
  153OSM   H12G17088   4.599   5.714   3.515  0.1487 -0.6121 -0.4582
  153OSM   C13F17089   4.531   5.592   3.679  0.0328  0.2115  0.0480
  153OSM   H13F17090   4.529   5.492   3.629 -0.2681 -0.3544  1.1474
  153OSM   H13G17091   4.446   5.584   3.751 -1.6980 -1.7935 -2.0667
  153OSM   C14F17092   4.651   5.624   3.758 -0.5412 -0.6978 -0.1525
  153OSM   H14F17093   4.747   5.614   3.703  1.4181  0.7968  2.7158
  153OSM   H14G17094   4.656   5.557   3.846 -1.9503 -0.0060  0.4879
  153OSM   C15F17095   4.648   5.768   3.818 -0.0880  0.3120  0.0984
  153OSM   H15F17096   4.540   5.769   3.844 -0.4525 -1.2634 -1.1858
  153OSM   H15G17097   4.673   5.844   3.741  1.3428 -0.6811 -0.4567
  153OSM   C16F17098   4.741   5.788   3.938 -0.2709 -0.3156 -0.1285
  153OSM   H16F17099   4.746   5.896   3.966 -0.6310 -0.2039 -0.4839
  153OSM   H16G17100   4.836   5.752   3.895 -0.4234 -2.5306  1.2174
  153OSM   C17F17101   4.712   5.712   4.063 -0.3952  0.1575 -1.2401
  153OSM   H17F17102   4.722   5.604   4.041  0.0254  0.4326 -2.4499
  153OSM   H17G17103   4.606   5.730   4.092  0.3469 -1.0222  2.9654
  153OSM   C18F17104   4.795   5.745   4.192  0.1747 -0.0726  0.0467
  153OSM   H18F17105   4.757   5.699   4.285  0.0644 -2.8738 -1.2948
  153OSM   H18G17106   4.815   5.854   4.204  0.6009  0.4748 -4.1066
  153OSM   H18H17107   4.896   5.702   4.183  0.0934 -0.3988  0.6863
  154OSM      N17108   3.171   2.853   2.163  0.5737 -0.0511 -0.6164
  154OSM    C1517109   3.284   2.839   2.059 -0.0576 -0.8514  0.2125
  154OSM   H15A17110   3.372   2.783   2.089  0.4732  0.3828  1.0203
  154OSM   H15B17111   3.313   2.938   2.026  1.6521 -0.4636  2.6404
  154OSM   H15C17112   3.238   2.785   1.977  0.7887 -1.2979  0.0168
  154OSM    C1417113   3.052   2.905   2.093  0.0820  0.4576  0.4601
  154OSM   H14A17114   3.068   2.997   2.039 -0.3291  1.0288  1.2981
  154OSM   H14B17115   2.968   2.924   2.158  1.1869  3.2507  1.2363
  154OSM   H14C17116   3.033   2.826   2.022  3.0333 -0.1748  0.2310
  154OSM    C1317117   3.136   2.717   2.211  0.3869  0.1859 -1.0236
  154OSM   H13A17118   3.216   2.665   2.260  0.4141 -0.0695 -1.3383
  154OSM   H13B17119   3.094   2.669   2.124 -0.0504 -0.0363 -0.6963
  154OSM   H13C17120   3.053   2.721   2.281  0.3288 -0.7496 -1.0260
  154OSM    C1217121   3.215   2.944   2.274  0.2145  0.0206 -0.1407
  154OSM   H12A17122   3.199   3.043   2.235  0.6198  0.4856  0.8611
  154OSM   H12B17123   3.318   2.927   2.298  0.1578 -0.3627 -0.1549
  154OSM    C1117124   3.133   2.940   2.412 -0.7915 -0.3342  0.6520
  154OSM   H11A17125   3.169   3.027   2.472  0.0981  1.2538 -1.9801
  154OSM   H11B17126   3.165   2.844   2.457 -1.4830 -2.0088 -2.1856
  154OSM      P17127   2.896   2.850   2.467 -0.1996  0.3524  0.0229
  154OSM    O1317128   2.763   2.904   2.436 -0.0821  0.1064  0.2463
  154OSM    O1417129   2.924   2.708   2.434  0.3800 -0.0297 -0.3707
  154OSM    O1117130   2.934   2.867   2.615  0.7902 -0.4148 -0.4516
  154OSM    O1217131   2.999   2.941   2.392 -0.0856  0.1660  0.5048
  154OSM    C1S17132   2.942   3.003   2.666 -0.2383  0.0053  0.4320
  154OSM    H1S17133   2.869   3.072   2.619  1.5837  1.7353  0.0170
  154OSM    H1T17134   3.044   3.046   2.655 -0.2451  0.2926  1.4775
  154OSM     NF17135   2.935   3.145   2.871 -0.9115 -0.5879  0.3243
  154OSM    HNF17136   3.025   3.164   2.909 -1.0031  0.9258 -0.1399
  154OSM    C2S17137   2.920   3.009   2.820  0.5860  1.1598 -0.0657
  154OSM    H2S17138   2.817   2.970   2.835  0.2818  2.2464  0.7607
  154OSM    C3S17139   3.018   2.908   2.895 -0.3772  0.7427  0.0449
  154OSM    H3S17140   3.121   2.948   2.901  0.7160 -1.8692  0.0143
  154OSM     O317141   3.037   2.781   2.843 -0.2529  0.2075 -0.2609
  154OSM    HO317142   2.985   2.782   2.762 -1.6564 -1.1641  0.5729
  154OSM    C4S17143   2.970   2.888   3.033  0.4344  0.3806  0.1870
  154OSM    H4S17144   2.866   2.851   3.025  0.0993  1.3239  0.1445
  154OSM    C5S17145   3.023   2.901   3.153 -0.3208  0.5069 -0.2310
  154OSM    H5S17146   3.132   2.913   3.158 -0.3441  0.9487 -0.7217
  154OSM    C6S17147   2.957   2.888   3.284 -0.2534 -0.2950  0.3610
  154OSM    H6S17148   2.981   2.978   3.344  0.5694 -1.0780  1.2595
  154OSM    H6T17149   3.002   2.799   3.334  1.9866  0.3189 -0.4136
  154OSM    C7S17150   2.802   2.863   3.286  0.0289 -0.2639 -0.5851
  154OSM    H7S17151   2.776   2.797   3.201 -1.6214  0.2157 -0.4854
  154OSM    H7T17152   2.751   2.961   3.272 -0.4067 -0.5783 -1.2671
  154OSM    C8S17153   2.740   2.809   3.414 -0.3587 -0.6364  0.1133
  154OSM    H8S17154   2.771   2.704   3.434 -0.2201 -0.5057  0.5924
  154OSM    H8T17155   2.629   2.802   3.408 -0.3600 -0.2435 -0.3771
  154OSM    C9S17156   2.785   2.876   3.545  0.3647 -0.2215  0.2910
  154OSM    H9S17157   2.771   2.986   3.532  0.2060 -0.2793 -0.0338
  154OSM    H9T17158   2.895   2.869   3.563  0.5958  0.4674 -0.7290
  154OSM   C10S17159   2.711   2.825   3.673  0.8280 -0.0286 -0.7164
  154OSM   H10S17160   2.713   2.714   3.679  1.3325  0.0165  0.0878
  154OSM   H10T17161   2.601   2.841   3.666  0.0095 -3.0225  2.5119
  154OSM   C11S17162   2.759   2.901   3.800  0.0010  0.2136 -0.2091
  154OSM   H11S17163   2.868   2.889   3.816 -0.2293 -0.2686  1.1476
  154OSM   H11T17164   2.713   2.856   3.890 -2.2604  3.2393  0.3140
  154OSM   C12S17165   2.728   3.050   3.795 -0.4468 -0.0785 -0.5574
  154OSM   H12S17166   2.622   3.060   3.762 -0.0696 -0.0941 -1.8184
  154OSM   H12T17167   2.780   3.100   3.711  0.4060  0.8232  0.4869
  154OSM   C13S17168   2.750   3.121   3.932  0.2951 -0.2594  0.2435
  154OSM   H13S17169   2.858   3.146   3.942 -0.0008  1.8969 -1.2012
  154OSM   H13T17170   2.723   3.057   4.018 -2.2527 -1.3351 -1.2637
  154OSM   C14S17171   2.667   3.244   3.929 -0.3277  0.1633 -0.0773
  154OSM   H14S17172   2.557   3.228   3.926 -0.8806  2.6153  2.5573
  154OSM   H14T17173   2.685   3.310   3.841 -0.4998  1.0171  0.5169
  154OSM   C15S17174   2.700   3.330   4.053 -0.1387 -0.5251  0.5064
  154OSM   H15S17175   2.653   3.430   4.053 -1.5310 -1.1053  2.5496
  154OSM   H15T17176   2.807   3.354   4.041 -0.2421  0.2594  1.0618
  154OSM   C16S17177   2.663   3.277   4.195 -0.4249 -1.0687 -0.2037
  154OSM   H16S17178   2.732   3.189   4.197  2.7553  1.2085 -1.4740
  154OSM   H16T17179   2.555   3.254   4.204 -0.4475 -1.7270 -1.7958
  154OSM   C17S17180   2.718   3.364   4.305 -0.0596  0.3651  0.6159
  154OSM   H17S17181   2.691   3.323   4.405 -0.2318 -3.6856 -0.9070
  154OSM   H17T17182   2.658   3.458   4.307 -0.5002  0.1786 -1.5752
  154OSM   C18S17183   2.867   3.393   4.305 -0.7008 -0.1477 -0.4169
  154OSM   H18S17184   2.911   3.406   4.204 -0.6988 -0.6921 -0.4921
  154OSM   H18T17185   2.924   3.308   4.347 -0.9496  0.4548  1.2134
  154OSM   H18U17186   2.892   3.480   4.369  1.3516 -1.1202  0.1604
  154OSM    C1F17187   2.841   3.238   2.850 -0.1645  0.0232  1.2732
  154OSM     OF17188   2.736   3.220   2.789 -0.1785 -0.7292 -0.4209
  154OSM    C2F17189   2.872   3.376   2.894 -0.1526 -0.6221 -0.4348
  154OSM    H2F17190   2.874   3.443   2.806 -2.0514  0.4095  0.2547
  154OSM    H2G17191   2.970   3.386   2.945 -1.2540 -1.0515  1.9001
  154OSM    C3F17192   2.766   3.420   2.998  0.0033  0.9839  0.9622
  154OSM    H3F17193   2.667   3.392   2.956  0.6530  0.3159 -0.1766
  154OSM    H3G17194   2.765   3.531   3.000 -0.4180  1.0346 -0.7353
  154OSM    C4F17195   2.773   3.352   3.128  0.3956  0.9369 -0.3663
  154OSM    H4F17196   2.766   3.243   3.109 -2.1940  1.4458 -3.0611
  154OSM    H4G17197   2.691   3.379   3.198  0.9620  0.1528  0.6166
  154OSM    C5F17198   2.909   3.371   3.196  0.3698 -0.0288  0.0195
  154OSM    H5F17199   2.924   3.478   3.221  0.3706 -0.3294  1.3847
  154OSM    H5G17200   2.988   3.325   3.132  0.0781 -1.7961  0.8534
  154OSM    C6F17201   2.917   3.310   3.347  0.5036  0.4638  0.6115
  154OSM    H6F17202   2.891   3.203   3.330 -1.1443  0.6331  1.8812
  154OSM    H6G17203   2.851   3.345   3.429 -0.6528 -2.2413  0.9605
  154OSM    C7F17204   3.062   3.301   3.394  0.3955  0.7125  0.7086
  154OSM    H7F17205   3.107   3.402   3.401  1.3291  0.3250  0.3965
  154OSM    H7G17206   3.123   3.255   3.314  2.8996 -0.0844  2.9022
  154OSM    C8F17207   3.072   3.231   3.531  0.3367 -0.2933  0.2590
  154OSM    H8F17208   3.026   3.130   3.532 -0.4562 -0.0671 -2.8548
  154OSM    H8G17209   3.015   3.288   3.607 -0.2954  0.4632 -0.7475
  154OSM    C9F17210   3.217   3.218   3.569  0.2361  0.6304 -0.7799
  154OSM    H9F17211   3.275   3.153   3.502  0.4129  0.5051 -0.5060
  154OSM   C10F17212   3.281   3.283   3.671 -0.3928  0.1711  0.2269
  154OSM   H10F17213   3.388   3.264   3.691 -0.1731 -0.2410 -1.2240
  154OSM   C11F17214   3.227   3.381   3.765 -0.1386 -0.9222  0.4208
  154OSM   H11F17215   3.118   3.401   3.754 -0.0531  0.3446  1.5653
  154OSM   H11G17216   3.284   3.476   3.753  2.4286 -2.2191  1.5860
  154OSM   C12F17217   3.240   3.343   3.915  0.0998 -0.0129  0.5338
  154OSM   H12F17218   3.224   3.441   3.964  0.4217  1.3916 -2.0032
  154OSM   H12G17219   3.346   3.311   3.929  0.8173  1.1430 -1.6935
  154OSM   C13F17220   3.144   3.227   3.956 -0.7554  0.1002  0.6889
  154OSM   H13F17221   3.159   3.137   3.892  0.7931  0.6654  0.2264
  154OSM   H13G17222   3.044   3.260   3.920  0.2262 -1.9097 -4.9797
  154OSM   C14F17223   3.160   3.184   4.100  0.0435 -0.3436 -0.2627
  154OSM   H14F17224   3.144   3.275   4.161 -0.9834  0.8425 -2.2045
  154OSM   H14G17225   3.262   3.141   4.103  0.0490 -0.4147 -1.3142
  154OSM   C15F17226   3.054   3.085   4.155 -0.2343 -0.5585  0.0282
  154OSM   H15F17227   3.048   2.992   4.096 -3.1156 -0.6172  0.2525
  154OSM   H15G17228   2.957   3.136   4.137  0.6135  0.9154 -0.5680
  154OSM   C16F17229   3.065   3.044   4.306 -0.9832  0.2298  0.4211
  154OSM   H16F17230   3.084   3.127   4.378 -0.9433 -1.1695  2.0901
  154OSM   H16G17231   3.155   2.979   4.311 -1.2685 -0.4401 -2.0045
  154OSM   C17F17232   2.938   2.985   4.355  0.0364 -0.0091  0.2936
  154OSM   H17F17233   2.934   2.878   4.324 -1.4617 -0.5596  2.1456
  154OSM   H17G17234   2.845   3.031   4.314 -0.0688 -1.6357 -1.4150
  154OSM   C18F17235   2.920   2.973   4.511 -0.1582 -0.1388  0.1804
  154OSM   H18F17236   3.009   2.927   4.557  0.0711  0.9879  0.9208
  154OSM   H18G17237   2.833   2.907   4.532  0.4690 -1.8502 -2.2525
  154OSM   H18H17238   2.908   3.075   4.554 -0.6001 -0.0167 -0.2109
  155OSM      N17239   5.171   2.357   2.044  0.3681  0.4600 -0.0819
  155OSM    C1517240   5.115   2.340   1.903 -0.0136  0.0498  0.3646
  155OSM   H15A17241   5.088   2.237   1.884 -2.3334  1.0756 -2.8528
  155OSM   H15B17242   5.181   2.368   1.822 -0.9581  0.4985 -0.2636
  155OSM   H15C17243   5.022   2.395   1.898 -0.0490  0.0127  0.5981
  155OSM    C1417244   5.057   2.412   2.131  0.0456  0.3533  0.6323
  155OSM   H14A17245   4.989   2.337   2.166 -0.1094  0.4283  0.4921
  155OSM   H14B17246   4.999   2.492   2.087 -2.3920 -1.8112 -0.3282
  155OSM   H14C17247   5.096   2.465   2.217 -0.3387  1.0101  0.4108
  155OSM    C1317248   5.197   2.218   2.093  0.2361 -0.1780 -0.0826
  155OSM   H13A17249   5.266   2.165   2.029  0.2817 -1.6225  1.1016
  155OSM   H13B17250   5.107   2.160   2.085  1.0060 -1.1626 -2.6062
  155OSM   H13C17251   5.230   2.204   2.195  0.2072 -0.7538 -0.1455
  155OSM    C1217252   5.294   2.439   2.047 -0.3229  0.3642  0.2639
  155OSM   H12A17253   5.276   2.537   2.006  2.0874  0.8866  0.2905
  155OSM   H12B17254   5.362   2.390   1.979 -1.8107 -2.1839  0.4798
  155OSM    C1117255   5.367   2.451   2.181  0.4595  0.1205  0.6911
  155OSM   H11A17256   5.466   2.489   2.147  1.2869 -1.5630  1.0992
  155OSM   H11B17257   5.383   2.352   2.229  0.7438 -0.8190 -1.2537
  155OSM      P17258   5.373   2.658   2.336 -0.2165  0.1632 -0.0201
  155OSM    O1317259   5.462   2.730   2.243  0.5966 -0.2914  0.1630
  155OSM    O1417260   5.281   2.743   2.417 -0.8533  0.0931  0.4385
  155OSM    O1117261   5.467   2.582   2.447  0.6280  0.4843 -0.8797
  155OSM    O1217262   5.296   2.542   2.268  0.3813  0.4014  0.1350
  155OSM    C1S17263   5.427   2.459   2.514 -0.5295  0.8198 -0.8668
  155OSM    H1S17264   5.461   2.373   2.453  2.0903  0.8642  0.3515
  155OSM    H1T17265   5.318   2.443   2.529 -0.5312  1.1518 -0.4848
  155OSM     NF17266   5.500   2.320   2.702  0.4028  0.2927 -0.5670
  155OSM    HNF17267   5.433   2.289   2.769 -0.0336  1.6708 -0.3208
  155OSM    C2S17268   5.486   2.455   2.661 -0.2193 -0.0314  0.6523
  155OSM    H2S17269   5.593   2.487   2.659  0.1212 -1.1208  0.7330
  155OSM    C3S17270   5.397   2.551   2.747  1.1734 -0.0525  0.3071
  155OSM    H3S17271   5.298   2.502   2.755  0.1882  1.9900  1.4393
  155OSM     O317272   5.353   2.669   2.680 -0.1336 -0.2677 -0.2389
  155OSM    HO317273   5.373   2.663   2.587 -1.4023  1.7301 -0.7179
  155OSM    C4S17274   5.449   2.578   2.888 -0.6685 -0.3630  0.2887
  155OSM    H4S17275   5.413   2.516   2.972 -0.9563  0.9066  1.1246
  155OSM    C5S17276   5.524   2.689   2.927 -0.0108  0.7492  0.0207
  155OSM    H5S17277   5.539   2.767   2.851 -0.3491  0.9193  0.1253
  155OSM    C6S17278   5.579   2.717   3.068  0.1771  0.2334  0.5198
  155OSM    H6S17279   5.506   2.786   3.115 -0.2346  0.4158 -0.3639
  155OSM    H6T17280   5.678   2.768   3.058 -0.9066  2.3154 -0.1665
  155OSM    C7S17281   5.612   2.603   3.163 -0.4680 -0.6467 -0.5932
  155OSM    H7S17282   5.513   2.560   3.189 -1.3288  0.8111 -1.3989
  155OSM    H7T17283   5.660   2.649   3.253 -0.6498 -0.8210 -0.4061
  155OSM    C8S17284   5.730   2.506   3.136  0.0433 -0.2848 -0.8012
  155OSM    H8S17285   5.815   2.577   3.128 -0.5438  0.6416  0.8057
  155OSM    H8T17286   5.726   2.452   3.039 -1.9687 -1.7734  0.0421
  155OSM    C9S17287   5.768   2.408   3.244 -0.4807  0.5216 -0.6643
  155OSM    H9S17288   5.865   2.360   3.218 -0.9822 -0.5530 -0.6105
  155OSM    H9T17289   5.687   2.332   3.255 -0.5681  0.7675  0.4662
  155OSM   C10S17290   5.781   2.473   3.379 -0.2738  0.2786 -0.0241
  155OSM   H10S17291   5.673   2.480   3.406 -0.3963 -0.7504 -0.2001
  155OSM   H10T17292   5.830   2.572   3.372 -1.5852  1.1030  1.7200
  155OSM   C11S17293   5.867   2.393   3.480  0.4278 -0.3980 -0.0994
  155OSM   H11S17294   5.975   2.378   3.455  0.4313 -0.7269  0.1087
  155OSM   H11T17295   5.827   2.290   3.488  0.4023 -0.2694  1.9891
  155OSM   C12S17296   5.871   2.456   3.622  0.6038  0.5144 -0.3801
  155OSM   H12S17297   5.779   2.515   3.644 -0.4081 -0.1446 -2.4936
  155OSM   H12T17298   5.948   2.535   3.633  0.6600  0.2995  0.8610
  155OSM   C13S17299   5.890   2.352   3.739  0.5081  0.0227  0.6180
  155OSM   H13S17300   5.982   2.293   3.719  0.9220  0.5221  1.0196
  155OSM   H13T17301   5.802   2.286   3.725  0.1845  0.2917  1.3262
  155OSM   C14S17302   5.902   2.412   3.870  0.6121 -0.3739 -0.2902
  155OSM   H14S17303   5.881   2.337   3.949  0.5083 -0.4980 -0.4356
  155OSM   H14T17304   5.826   2.493   3.870  0.3528 -0.6142 -0.7435
  155OSM   C15S17305   6.032   2.478   3.895 -0.8559 -0.0078 -0.4003
  155OSM   H15S17306   6.051   2.557   3.819  0.6703  1.0521  1.0207
  155OSM   H15T17307   6.114   2.405   3.880 -0.5254  0.7403 -2.5792
  155OSM   C16S17308   6.047   2.552   4.028 -0.5418 -0.1552  0.0405
  155OSM   H16S17309   6.139   2.613   4.019 -0.7697  0.2114  0.1395
  155OSM   H16T17310   6.060   2.485   4.116  0.4290  1.4249  1.1729
  155OSM   C17S17311   5.939   2.659   4.054  0.3610  0.9239  0.5773
  155OSM   H17S17312   5.838   2.614   4.051  0.7302  0.0966  0.2141
  155OSM   H17T17313   5.947   2.715   3.958  0.1094 -1.7225 -1.0759
  155OSM   C18S17314   5.974   2.739   4.175  0.3476 -0.1279  0.5729
  155OSM   H18S17315   5.986   2.667   4.259  0.2268  0.3267  0.9899
  155OSM   H18T17316   5.897   2.811   4.212  0.3654 -0.3440  1.0369
  155OSM   H18U17317   6.065   2.798   4.154 -0.9741  1.9042  0.1728
  155OSM    C1F17318   5.596   2.237   2.656 -0.5074  0.0697 -0.0115
  155OSM     OF17319   5.684   2.273   2.582 -0.3776 -0.2351 -0.0346
  155OSM    C2F17320   5.592   2.096   2.705  0.1415  0.1677  0.3401
  155OSM    H2F17321   5.633   2.031   2.625 -0.7700 -0.0090  0.0050
  155OSM    H2G17322   5.484   2.068   2.707 -0.2151  1.4575  0.6230
  155OSM    C3F17323   5.664   2.066   2.840 -0.4620  0.1358  0.1787
  155OSM    H3F17324   5.761   2.119   2.832 -0.8449  0.7026 -0.9798
  155OSM    H3G17325   5.691   1.959   2.847  0.7447  0.3105 -1.2868
  155OSM    C4F17326   5.591   2.111   2.962  0.0948 -0.0872 -0.7968
  155OSM    H4F17327   5.490   2.064   2.964  0.8611 -1.7670  0.6327
  155OSM    H4G17328   5.585   2.220   2.979  1.3755 -0.0819 -0.2858
  155OSM    C5F17329   5.664   2.064   3.089 -0.6012  0.1163  0.6661
  155OSM    H5F17330   5.754   2.130   3.090 -1.2352  1.1921 -2.3843
  155OSM    H5G17331   5.681   1.954   3.088 -4.0555 -0.5575  1.8428
  155OSM    C6F17332   5.576   2.090   3.212  0.4323 -0.7630 -0.2302
  155OSM    H6F17333   5.491   2.019   3.206  1.0538 -1.6352  0.8952
  155OSM    H6G17334   5.549   2.197   3.196  0.7089 -0.8365 -1.2457
  155OSM    C7F17335   5.644   2.075   3.345 -0.4029  0.5543 -0.0897
  155OSM    H7F17336   5.738   2.135   3.353  0.1078 -0.2888  0.4426
  155OSM    H7G17337   5.687   1.972   3.342  1.4258  1.2799 -0.3896
  155OSM    C8F17338   5.558   2.099   3.473  0.1371 -0.4665  0.7782
  155OSM    H8F17339   5.527   2.205   3.478  0.3190 -0.3054 -0.9836
  155OSM    H8G17340   5.616   2.082   3.567  2.6042 -2.3201 -0.9370
  155OSM    C9F17341   5.437   2.003   3.481  0.3361 -0.7584 -0.2863
  155OSM    H9F17342   5.431   1.925   3.403 -0.7053 -0.8091 -0.1764
  155OSM   C10F17343   5.335   2.006   3.570  0.0499 -0.4580  0.5167
  155OSM   H10F17344   5.250   1.937   3.558  0.9980 -1.3741 -1.3347
  155OSM   C11F17345   5.322   2.108   3.680  0.3427  0.4341 -0.5917
  155OSM   H11F17346   5.220   2.112   3.724 -0.4750 -1.5566 -2.1299
  155OSM   H11G17347   5.343   2.212   3.647  1.7393 -0.2312 -1.9103
  155OSM   C12F17348   5.406   2.059   3.802 -0.2218 -0.2256 -0.8425
  155OSM   H12F17349   5.514   2.065   3.775  0.5201  0.3662  1.8899
  155OSM   H12G17350   5.393   1.951   3.823  1.1483 -0.2702 -0.1069
  155OSM   C13F17351   5.371   2.138   3.929  0.2637  0.2268  0.0308
  155OSM   H13F17352   5.263   2.160   3.944  0.4905  2.9349 -1.8018
  155OSM   H13G17353   5.414   2.240   3.919  0.2214  0.5518  2.4928
  155OSM   C14F17354   5.431   2.077   4.049 -0.0213 -0.2818 -0.0724
  155OSM   H14F17355   5.537   2.053   4.028  0.4378  1.2431  0.3305
  155OSM   H14G17356   5.374   1.990   4.090  0.1726  0.4400  1.8653
  155OSM   C15F17357   5.448   2.174   4.178 -0.5525 -0.3097  1.0650
  155OSM   H15F17358   5.523   2.247   4.142 -0.7915 -0.8535 -0.6263
  155OSM   H15G17359   5.494   2.118   4.262  1.6268  1.9319  1.4774
  155OSM   C16F17360   5.322   2.247   4.223 -0.8921  0.0467  0.2354
  155OSM   H16F17361   5.311   2.328   4.148  1.0333 -0.7152 -0.9456
  155OSM   H16G17362   5.356   2.289   4.321  2.4454 -0.9708 -0.3800
  155OSM   C17F17363   5.199   2.167   4.249  0.7115  0.3243 -0.1493
  155OSM   H17F17364   5.231   2.079   4.309 -0.2780 -0.2939 -0.4940
  155OSM   H17G17365   5.158   2.122   4.155 -0.9303 -0.4890  0.8912
  155OSM   C18F17366   5.093   2.222   4.340 -0.3641  0.2875  0.5551
  155OSM   H18F17367   5.140   2.241   4.439  1.2437 -2.5008  0.4139
  155OSM   H18G17368   5.005   2.157   4.357 -0.7553  0.9391  1.0764
  155OSM   H18H17369   5.066   2.326   4.312 -0.2787  0.3561  0.7305
  156OSM      N17370   6.468   0.767   2.722  0.2206  0.6015 -0.4357
  156OSM    C1517371   6.429   0.623   2.741 -0.2950 -0.0500 -0.5313
  156OSM   H15A17372   6.391   0.571   2.654  0.2759 -0.9702 -0.2427
  156OSM   H15B17373   6.355   0.611   2.819 -0.1665 -1.3261 -0.5921
  156OSM   H15C17374   6.515   0.566   2.772  0.4146 -0.5445 -3.1284
  156OSM    C1417375   6.527   0.811   2.863 -0.2677 -0.6825  1.0580
  156OSM   H14A17376   6.441   0.817   2.928 -0.9538  2.6427  0.0348
  156OSM   H14B17377   6.586   0.901   2.857  0.9323 -1.5177 -1.1147
  156OSM   H14C17378   6.602   0.737   2.886  0.7889  0.3210  0.9307
  156OSM    C1317379   6.576   0.770   2.617  0.1917  0.9041  0.3941
  156OSM   H13A17380   6.621   0.868   2.610  0.6996  1.0596  4.0374
  156OSM   H13B17381   6.543   0.749   2.516  3.6358  1.1707 -0.9221
  156OSM   H13C17382   6.658   0.702   2.635  0.7080  1.8544  1.8647
  156OSM    C1217383   6.341   0.842   2.685  0.1181 -0.8535 -0.0674
  156OSM   H12A17384   6.321   0.832   2.579 -2.4413 -0.9391  0.3727
  156OSM   H12B17385   6.359   0.946   2.706 -1.1797 -0.7710  0.7144
  156OSM    C1117386   6.214   0.811   2.764  0.4443  0.6499  0.1325
  156OSM   H11A17387   6.154   0.719   2.749  0.2001  1.1963 -2.6597
  156OSM   H11B17388   6.144   0.887   2.723 -0.1156  0.6198  1.0043
  156OSM      P17389   6.178   0.733   3.024 -0.0321  0.0225 -0.0114
  156OSM    O1317390   6.101   0.808   3.130  0.3810  0.4549  0.7905
  156OSM    O1417391   6.094   0.632   2.959 -0.2344  0.4481  0.4587
  156OSM    O1117392   6.303   0.672   3.095  0.0672 -0.7216  0.2788
  156OSM    O1217393   6.236   0.834   2.910  0.3570 -0.0550 -0.1287
  156OSM    C1S17394   6.403   0.743   3.167  0.6745  0.1229  0.4312
  156OSM    H1S17395   6.397   0.853   3.150  1.0683 -0.0225 -0.7097
  156OSM    H1T17396   6.504   0.705   3.141 -0.0968 -1.4009 -0.4713
  156OSM     NF17397   6.480   0.803   3.400  0.1282 -0.4002  0.0679
  156OSM    HNF17398   6.570   0.762   3.408 -0.1751 -0.9556  0.7894
  156OSM    C2S17399   6.379   0.718   3.322  0.6977 -0.1261  0.0557
  156OSM    H2S17400   6.283   0.767   3.347  1.1526  1.4348 -1.0814
  156OSM    C3S17401   6.375   0.568   3.353  0.0433 -0.5227 -0.4351
  156OSM    H3S17402   6.469   0.517   3.322  0.5010 -1.1447  1.7933
  156OSM     O317403   6.270   0.491   3.282 -0.6296 -0.2402 -0.1069
  156OSM    HO317404   6.235   0.548   3.212 -0.2585  0.9595  0.6534
  156OSM    C4S17405   6.360   0.541   3.497  0.5107  0.3328 -1.0384
  156OSM    H4S17406   6.269   0.577   3.546  2.1558 -1.2632  3.6894
  156OSM    C5S17407   6.442   0.474   3.576 -0.3579 -0.0187 -0.5351
  156OSM    H5S17408   6.535   0.425   3.542 -1.2849 -1.5850 -0.9261
  156OSM    C6S17409   6.412   0.466   3.721  1.1120  1.1698 -0.1280
  156OSM    H6S17410   6.463   0.554   3.765  1.6818  0.3950  0.7940
  156OSM    H6T17411   6.453   0.371   3.763 -0.5884  0.1608 -0.6380
  156OSM    C7S17412   6.264   0.467   3.769 -1.0261  0.4353  0.0328
  156OSM    H7S17413   6.210   0.389   3.710  3.3578 -1.1697 -2.3070
  156OSM    H7T17414   6.226   0.566   3.734 -0.3281  0.2561 -1.3168
  156OSM    C8S17415   6.236   0.441   3.918 -0.5242 -0.0171 -1.0445
  156OSM    H8S17416   6.271   0.341   3.949  0.7415  0.5513 -0.5967
  156OSM    H8T17417   6.125   0.450   3.913 -0.3503  2.1550 -2.1809
  156OSM    C9S17418   6.307   0.546   4.018  0.5793 -0.3099  0.1483
  156OSM    H9S17419   6.311   0.646   3.970  2.4675 -0.6673 -0.5309
  156OSM    H9T17420   6.414   0.522   4.035  0.2379 -2.0052  0.0573
  156OSM   C10S17421   6.264   0.535   4.166  0.3415 -0.0613  0.8569
  156OSM   H10S17422   6.164   0.582   4.176  0.7232  0.7835  0.7630
  156OSM   H10T17423   6.335   0.599   4.224  0.7880 -1.3907  1.8312
  156OSM   C11S17424   6.266   0.392   4.215 -0.8392 -0.1469 -0.4249
  156OSM   H11S17425   6.372   0.363   4.226 -0.6067  0.6763 -0.4130
  156OSM   H11T17426   6.210   0.326   4.145  0.2922 -1.0986 -0.4630
  156OSM   C12S17427   6.219   0.387   4.363  0.3206 -0.5428 -0.4300
  156OSM   H12S17428   6.287   0.461   4.411 -0.1601  1.1877 -2.2542
  156OSM   H12T17429   6.238   0.286   4.406 -1.6719 -1.5229 -1.6846
  156OSM   C13S17430   6.073   0.434   4.387  0.0456  0.2148  0.3898
  156OSM   H13S17431   5.998   0.359   4.351  0.3479  0.2674 -0.3811
  156OSM   H13T17432   6.064   0.532   4.335  2.9797  1.2614  1.6579
  156OSM   C14S17433   6.026   0.463   4.528  0.3675 -0.0175 -1.5419
  156OSM   H14S17434   6.021   0.375   4.595 -0.1752 -0.5201 -2.2357
  156OSM   H14T17435   5.923   0.502   4.515  0.2196 -0.7916 -2.7661
  156OSM   C15S17436   6.108   0.573   4.589 -0.0439 -0.5049  0.2215
  156OSM   H15S17437   6.109   0.655   4.514  2.3670 -1.6604 -1.1154
  156OSM   H15T17438   6.216   0.551   4.599  0.1933  1.2296  2.0625
  156OSM   C16S17439   6.043   0.624   4.725  0.1737  0.0453  0.4136
  156OSM   H16S17440   6.054   0.541   4.798 -0.6427  0.3640  0.9129
  156OSM   H16T17441   5.934   0.645   4.719 -0.2146 -1.5422  1.2225
  156OSM   C17S17442   6.102   0.749   4.794 -0.3819 -0.0880  0.7034
  156OSM   H17S17443   6.098   0.839   4.729  0.6831  0.4762  1.3922
  156OSM   H17T17444   6.210   0.741   4.820 -0.3494 -1.2031  0.2963
  156OSM   C18S17445   6.037   0.789   4.919 -0.4573  0.2491  0.3896
  156OSM   H18S17446   5.935   0.831   4.903 -0.5208 -0.5463 -1.6031
  156OSM   H18T17447   6.099   0.864   4.973 -1.2253  0.6722  0.6959
  156OSM   H18U17448   6.032   0.697   4.981  0.9266  0.0733  0.2773
  156OSM    C1F17449   6.470   0.936   3.420 -0.0673  0.2244  1.1508
  156OSM     OF17450   6.386   1.001   3.359  0.3823  0.1879 -0.0327
  156OSM    C2F17451   6.575   1.002   3.497  0.0659 -0.1526 -0.2095
  156OSM    H2F17452   6.623   1.081   3.435 -1.1693  0.5768 -0.2493
  156OSM    H2G17453   6.652   0.928   3.529  1.3713  2.1949  2.5815
  156OSM    C3F17454   6.523   1.062   3.626  0.2652 -0.5108 -0.0715
  156OSM    H3F17455   6.472   0.982   3.685  0.5020 -1.4591 -1.1133
  156OSM    H3G17456   6.450   1.141   3.598  2.2283  1.2401 -0.5405
  156OSM    C4F17457   6.631   1.121   3.716 -0.6991  0.2520 -0.3514
  156OSM    H4F17458   6.697   1.188   3.656  1.2592 -2.3315 -1.2473
  156OSM    H4G17459   6.705   1.052   3.761 -0.6480 -0.0797 -0.9324
  156OSM    C5F17460   6.573   1.203   3.830 -0.0297 -0.4135  0.0446
  156OSM    H5F17461   6.469   1.229   3.798  0.5103  1.3440 -0.3649
  156OSM    H5G17462   6.640   1.290   3.844 -0.4940 -0.0328 -0.0692
  156OSM    C6F17463   6.561   1.123   3.962 -0.1905 -0.0627  0.1808
  156OSM    H6F17464   6.661   1.091   3.996 -0.0396  0.5478  0.3280
  156OSM    H6G17465   6.498   1.032   3.946 -1.6169  0.9927 -0.4642
  156OSM    C7F17466   6.476   1.201   4.061 -0.0277  1.0561 -0.0907
  156OSM    H7F17467   6.377   1.222   4.016 -0.3035  0.9519  0.4606
  156OSM    H7G17468   6.522   1.301   4.074 -0.0537  1.4369 -2.5247
  156OSM    C8F17469   6.460   1.132   4.198  0.5456 -0.4488 -0.1082
  156OSM    H8F17470   6.421   1.028   4.192 -3.5714  0.9438 -0.4639
  156OSM    H8G17471   6.378   1.188   4.248  2.5267  2.9775 -0.3636
  156OSM    C9F17472   6.587   1.131   4.279 -0.2492  0.1004 -0.1680
  156OSM    H9F17473   6.673   1.084   4.230 -0.0267 -0.6765  0.9429
  156OSM   C10F17474   6.605   1.179   4.404 -0.2740 -0.4927  0.2459
  156OSM   H10F17475   6.704   1.173   4.453 -0.1684 -1.1218 -0.0304
  156OSM   C11F17476   6.506   1.250   4.487 -0.2629 -0.4140 -0.2126
  156OSM   H11F17477   6.440   1.316   4.427  0.2037 -1.0047 -1.4060
  156OSM   H11G17478   6.558   1.311   4.564 -0.8165 -0.9609  0.6042
  156OSM   C12F17479   6.425   1.156   4.572  0.0860 -0.2536  0.1485
  156OSM   H12F17480   6.482   1.129   4.663 -1.7474  1.8641  2.0103
  156OSM   H12G17481   6.404   1.065   4.511  0.3970  1.0404 -1.9950
  156OSM   C13F17482   6.295   1.208   4.627  0.3029  0.0650 -0.6591
  156OSM   H13F17483   6.220   1.223   4.547 -0.5630 -0.8710 -0.0358
  156OSM   H13G17484   6.308   1.311   4.667 -1.9385  0.5121 -0.9443
  156OSM   C14F17485   6.236   1.126   4.749 -0.2350 -0.3289  0.1706
  156OSM   H14F17486   6.319   1.082   4.809 -0.2878 -1.7282 -0.7204
  156OSM   H14G17487   6.177   1.038   4.717  0.4024 -1.6460  2.3675
  156OSM   C15F17488   6.137   1.212   4.841  0.1464  0.1382  0.5082
  156OSM   H15F17489   6.174   1.314   4.818  0.0594 -0.3206 -1.9810
  156OSM   H15G17490   6.155   1.193   4.949  2.0882  1.5875  0.5121
  156OSM   C16F17491   5.988   1.193   4.812  0.6439  0.1671 -0.3043
  156OSM   H16F17492   5.956   1.088   4.794  0.5382 -0.0010  0.7893
  156OSM   H16G17493   5.957   1.245   4.718  1.5231 -1.3131 -1.4668
  156OSM   C17F17494   5.908   1.249   4.931  0.7577 -0.5400 -0.1778
  156OSM   H17F17495   5.963   1.336   4.972 -2.0544  0.9377  0.6804
  156OSM   H17G17496   5.889   1.168   5.005  1.7306 -1.5139 -0.9475
  156OSM   C18F17497   5.780   1.307   4.875  0.6148  0.5608 -0.1096
  156OSM   H18F17498   5.719   1.359   4.952 -0.8612  0.6529 -1.2780
  156OSM   H18G17499   5.706   1.239   4.826  1.0847 -1.9285  2.3722
  156OSM   H18H17500   5.802   1.383   4.798 -0.0928  0.1136 -0.7730
  157OSM      N17501   6.560   1.937   1.839 -0.0077  0.2382  0.5490
  157OSM    C1517502   6.564   1.802   1.773 -0.2067 -0.4516  0.3853
  157OSM   H15A17503   6.617   1.731   1.834  0.3170 -0.7405 -0.3975
  157OSM   H15B17504   6.623   1.821   1.685  2.0126  1.0228  2.0828
  157OSM   H15C17505   6.461   1.771   1.759 -1.3290  1.8256  2.5448
  157OSM    C1417506   6.707   1.972   1.848 -0.4325 -0.1743 -0.2373
  157OSM   H14A17507   6.727   2.070   1.889  0.5375  0.0307 -1.1448
  157OSM   H14B17508   6.756   1.952   1.754 -0.4859  2.7654 -0.9809
  157OSM   H14C17509   6.760   1.917   1.925  1.7318  1.4169 -0.5224
  157OSM    C1317510   6.499   2.034   1.744  0.3499  0.2081 -0.2847
  157OSM   H13A17511   6.399   2.009   1.710  1.1347 -2.0311 -1.1456
  157OSM   H13B17512   6.564   2.057   1.662  1.4712 -0.9269  0.2417
  157OSM   H13C17513   6.490   2.129   1.795  1.4814  0.4620 -0.5429
  157OSM    C1217514   6.492   1.933   1.969  0.1770  0.0755 -0.6845
  157OSM   H12A17515   6.545   1.865   2.033  2.4104  1.4906 -0.9146
  157OSM   H12B17516   6.392   1.893   1.963 -0.2084  0.6179  1.3381
  157OSM    C1117517   6.477   2.066   2.050  0.3531 -0.1540 -0.0560
  157OSM   H11A17518   6.410   2.052   2.137 -2.1059 -1.3062 -2.0156
  157OSM   H11B17519   6.417   2.129   1.982 -2.7651  0.5242  3.0416
  157OSM      P17520   6.682   2.071   2.220  0.2376  0.6846  0.0852
  157OSM    O1317521   6.720   1.930   2.183  0.2615  0.2127 -1.0258
  157OSM    O1417522   6.798   2.154   2.251  0.2400 -0.1686 -0.5334
  157OSM    O1117523   6.568   2.074   2.340 -0.0758  0.1246 -0.6524
  157OSM    O1217524   6.605   2.123   2.087 -0.1935  0.0678  0.2886
  157OSM    C1S17525   6.616   2.049   2.472  0.0691 -0.1647  0.5682
  157OSM    H1S17526   6.704   2.110   2.502 -0.4348  1.1251 -0.4709
  157OSM    H1T17527   6.625   1.939   2.480 -1.1386 -0.8089 -4.0581
  157OSM     NF17528   6.559   2.050   2.715  0.2814 -0.4278  0.3288
  157OSM    HNF17529   6.541   1.962   2.759  0.0850  0.3760  1.9289
  157OSM    C2S17530   6.506   2.077   2.584 -0.0044  0.0239  0.0536
  157OSM    H2S17531   6.473   2.183   2.587 -0.4085 -0.1027  0.2754
  157OSM    C3S17532   6.370   1.999   2.552 -0.3216  0.8634  0.1736
  157OSM    H3S17533   6.385   1.889   2.565 -0.0775  0.6666 -1.5252
  157OSM     O317534   6.327   2.014   2.415 -0.3666 -0.3915 -0.0885
  157OSM    HO317535   6.393   2.071   2.375  0.0922  0.3436  1.6130
  157OSM    C4S17536   6.256   2.041   2.641  0.6077 -0.1537 -0.5654
  157OSM    H4S17537   6.223   1.960   2.707  0.0988  2.3349  2.4365
  157OSM    C5S17538   6.185   2.157   2.643  0.0842  0.6990 -0.4445
  157OSM    H5S17539   6.201   2.239   2.572  1.7088 -0.0263 -0.9607
  157OSM    C6S17540   6.075   2.170   2.746  0.9418 -0.3872 -0.1233
  157OSM    H6S17541   6.036   2.075   2.789  0.7169 -0.5237 -0.6191
  157OSM    H6T17542   5.988   2.225   2.704  0.8033  3.5623  4.4482
  157OSM    C7S17543   6.106   2.258   2.866  0.8653 -0.6453  0.1991
  157OSM    H7S17544   6.025   2.252   2.942  1.0939 -2.8293  0.3237
  157OSM    H7T17545   6.104   2.366   2.841 -0.6174 -0.1197  2.2762
  157OSM    C8S17546   6.231   2.225   2.938  0.2745 -0.7258 -0.8582
  157OSM    H8S17547   6.317   2.238   2.869 -0.1279 -1.7413 -1.5775
  157OSM    H8T17548   6.227   2.116   2.960 -1.1220 -0.8467 -1.6300
  157OSM    C9S17549   6.239   2.295   3.077 -0.4012 -0.0721  0.2783
  157OSM    H9S17550   6.158   2.252   3.140 -0.2686 -2.5201 -1.0688
  157OSM    H9T17551   6.213   2.402   3.062 -1.3102 -0.3612 -0.3508
  157OSM   C10S17552   6.377   2.287   3.155 -0.5107  0.0743  0.3906
  157OSM   H10S17553   6.461   2.313   3.087 -0.6458 -0.5696 -0.0319
  157OSM   H10T17554   6.386   2.183   3.194 -0.9085 -0.2737 -0.4147
  157OSM   C11S17555   6.376   2.392   3.269  0.3650  0.0694 -0.3278
  157OSM   H11S17556   6.364   2.491   3.220  2.6024  1.0748  1.0225
  157OSM   H11T17557   6.477   2.384   3.314  1.0487  0.9093 -1.6707
  157OSM   C12S17558   6.271   2.358   3.378  0.4580 -0.3980  0.2523
  157OSM   H12S17559   6.263   2.248   3.391  0.6574 -0.8758 -2.8857
  157OSM   H12T17560   6.171   2.388   3.338 -0.4036 -4.1411 -0.8847
  157OSM   C13S17561   6.296   2.418   3.510  0.2663  0.0335 -0.1548
  157OSM   H13S17562   6.216   2.388   3.582  0.7681  1.7642  1.1891
  157OSM   H13T17563   6.292   2.529   3.506 -0.1453  0.0274  0.0269
  157OSM   C14S17564   6.428   2.377   3.574 -0.1618 -0.3407 -0.5046
  157OSM   H14S17565   6.512   2.424   3.519  1.8068 -1.0042  1.7212
  157OSM   H14T17566   6.437   2.266   3.574  1.7565 -0.3667  3.3336
  157OSM   C15S17567   6.452   2.418   3.721 -0.4459 -0.0827 -0.1108
  157OSM   H15S17568   6.382   2.361   3.786 -0.0465 -1.4056 -0.8129
  157OSM   H15T17569   6.435   2.528   3.733 -1.4959 -0.2428 -0.0167
  157OSM   C16S17570   6.598   2.396   3.765 -0.0829 -0.4522  0.0653
  157OSM   H16S17571   6.658   2.469   3.706  0.8357 -1.1860  0.0579
  157OSM   H16T17572   6.634   2.294   3.737  0.9314  0.2740 -1.4065
  157OSM   C17S17573   6.620   2.414   3.917 -0.1870 -0.4551  0.0910
  157OSM   H17S17574   6.559   2.331   3.960  0.6483 -1.4112 -0.5220
  157OSM   H17T17575   6.566   2.508   3.941  0.5600  0.1043 -0.3807
  157OSM   C18S17576   6.766   2.409   3.967  0.1970  0.0514 -0.1562
  157OSM   H18S17577   6.800   2.304   3.951 -0.0935 -0.0729  0.0522
  157OSM   H18T17578   6.769   2.431   4.076 -1.3082  0.3385 -0.1594
  157OSM   H18U17579   6.836   2.477   3.914 -1.3046 -0.4484 -3.0264
  157OSM    C1F17580   6.639   2.135   2.777  1.0165  0.1920  0.0489
  157OSM     OF17581   6.658   2.247   2.735  0.0369  0.1949  0.8290
  157OSM    C2F17582   6.702   2.089   2.901  0.1508 -0.3234  0.1310
  157OSM    H2F17583   6.767   2.001   2.884  0.3551  0.2899 -2.6230
  157OSM    H2G17584   6.613   2.062   2.962  0.7369  0.8766  1.6040
  157OSM    C3F17585   6.767   2.204   2.985  0.3231  0.1000  0.4008
  157OSM    H3F17586   6.714   2.302   2.984  2.1163  1.1167  1.3013
  157OSM    H3G17587   6.867   2.219   2.940  0.3155 -0.2711  0.2582
  157OSM    C4F17588   6.790   2.158   3.130 -0.3959  0.2073 -1.0383
  157OSM    H4F17589   6.845   2.062   3.134 -1.4538 -0.4425 -1.5523
  157OSM    H4G17590   6.693   2.127   3.174 -0.3325 -0.3636 -1.2913
  157OSM    C5F17591   6.849   2.267   3.225 -0.0087 -0.0206 -0.3824
  157OSM    H5F17592   6.771   2.346   3.223  0.2415  0.2774  0.8704
  157OSM    H5G17593   6.948   2.302   3.187  0.7104 -2.0215 -0.4765
  157OSM    C6F17594   6.853   2.220   3.372 -0.0531  0.0482  0.2103
  157OSM    H6F17595   6.941   2.153   3.381  1.8925  2.6360  1.6686
  157OSM    H6G17596   6.762   2.160   3.393  0.2539 -0.2577  0.6985
  157OSM    C7F17597   6.854   2.331   3.475  0.0854 -0.4053 -0.0763
  157OSM    H7F17598   6.820   2.293   3.573  2.9404 -2.6697  0.1448
  157OSM    H7G17599   6.785   2.416   3.453  1.0097  1.1543  2.5701
  157OSM    C8F17600   6.995   2.395   3.489 -0.5110  0.1669  0.8902
  157OSM    H8F17601   7.048   2.404   3.391 -0.9175 -1.4489  0.4815
  157OSM    H8G17602   7.058   2.319   3.542 -0.0745  0.4085  0.7253
  157OSM    C9F17603   7.008   2.524   3.571  0.0260  0.8283 -0.4251
  157OSM    H9F17604   6.993   2.615   3.511  1.9941  0.3468 -1.7708
  157OSM   C10F17605   7.046   2.532   3.702  0.2271 -0.2203  0.0428
  157OSM   H10F17606   7.058   2.632   3.747 -1.6389 -0.2175  0.6233
  157OSM   C11F17607   7.083   2.410   3.787  0.1165  0.6180 -0.0514
  157OSM   H11F17608   7.120   2.319   3.736 -1.9879 -1.3390  1.7307
  157OSM   H11G17609   6.997   2.372   3.845  1.7771 -0.9776  1.4750
  157OSM   C12F17610   7.187   2.448   3.898 -0.4346 -0.2658  0.2097
  157OSM   H12F17611   7.285   2.465   3.847 -0.4422 -1.3545 -0.1859
  157OSM   H12G17612   7.194   2.369   3.976 -1.1872 -0.0818  0.4755
  157OSM   C13F17613   7.149   2.581   3.971  0.4374 -0.3687 -0.2711
  157OSM   H13F17614   7.038   2.582   3.965  0.4787 -0.5110 -1.3526
  157OSM   H13G17615   7.171   2.661   3.896 -1.7419 -1.1973 -1.9069
  157OSM   C14F17616   7.193   2.593   4.117  0.2050  0.2372  0.7409
  157OSM   H14F17617   7.190   2.702   4.137 -1.5213  0.0848  1.4023
  157OSM   H14G17618   7.297   2.558   4.134  0.3640  0.2775 -0.0959
  157OSM   C15F17619   7.113   2.514   4.215  0.0501 -0.1931  0.2812
  157OSM   H15F17620   7.114   2.409   4.181 -0.6434 -0.5807  1.4044
  157OSM   H15G17621   7.010   2.558   4.215 -0.5403 -1.5278 -0.1435
  157OSM   C16F17622   7.175   2.530   4.356 -0.1355 -0.3356  0.1029
  157OSM   H16F17623   7.167   2.638   4.381  1.5571  0.3470 -2.0331
  157OSM   H16G17624   7.283   2.511   4.337 -0.0115 -0.1007  0.5593
  157OSM   C17F17625   7.117   2.427   4.448 -0.2981  0.0069  0.5067
  157OSM   H17F17626   7.153   2.328   4.413  1.0254  0.5247  0.3554
  157OSM   H17G17627   7.008   2.424   4.424 -0.0647  0.0529 -0.6155
  157OSM   C18F17628   7.157   2.439   4.592  0.5106 -0.2199  0.2109
  157OSM   H18F17629   7.268   2.443   4.587  0.4659 -0.4574 -1.6103
  157OSM   H18G17630   7.121   2.342   4.634 -1.7523 -0.7715 -2.6884
  157OSM   H18H17631   7.112   2.524   4.647 -0.1547  0.4137 -1.2858
  158OSM      N17632   3.595   6.050   2.602  0.0161 -0.3817  0.3910
  158OSM    C1517633   3.573   5.905   2.619  0.2177  0.1196  0.1678
  158OSM   H15A17634   3.656   5.861   2.672  0.7199 -0.2506 -0.8905
  158OSM   H15B17635   3.584   5.851   2.526  2.1518 -0.0215  0.4326
  158OSM   H15C17636   3.475   5.889   2.661  0.4205 -3.4825 -0.4078
  158OSM    C1417637   3.468   6.098   2.530 -0.8845  0.3596 -0.1468
  158OSM   H14A17638   3.375   6.066   2.576 -0.4769  0.7308  0.9763
  158OSM   H14B17639   3.471   6.063   2.428 -1.1458 -0.6581  0.1770
  158OSM   H14C17640   3.457   6.204   2.548  1.5749  0.4860  1.0818
  158OSM    C1317641   3.596   6.112   2.738 -0.5242 -0.8326 -0.3925
  158OSM   H13A17642   3.680   6.067   2.790  0.8526  0.9869 -0.9179
  158OSM   H13B17643   3.505   6.107   2.796 -0.3209  3.8485  0.7642
  158OSM   H13C17644   3.612   6.218   2.722  0.6363 -1.2906 -2.6975
  158OSM    C1217645   3.726   6.072   2.532 -0.3227 -0.0571  0.3096
  158OSM   H12A17646   3.709   6.159   2.470 -2.0720  0.3890  1.3427
  158OSM   H12B17647   3.743   5.993   2.461  0.4766 -0.6014  1.1031
  158OSM    C1117648   3.859   6.088   2.608 -0.0041  0.0534  0.5256
  158OSM   H11A17649   3.863   6.173   2.679 -1.0684  0.3070  0.2974
  158OSM   H11B17650   3.944   6.115   2.543  1.4169 -1.4610  1.6558
  158OSM      P17651   3.975   5.854   2.611  0.0044 -0.1776 -0.2300
  158OSM    O1317652   3.910   5.753   2.528 -0.5110  0.0576 -0.3980
  158OSM    O1417653   4.090   5.932   2.554 -0.1853  0.3818  0.4403
  158OSM    O1117654   4.013   5.782   2.751 -0.1516 -0.5606  0.4877
  158OSM    O1217655   3.867   5.961   2.670  1.1967  0.3785  0.3617
  158OSM    C1S17656   4.036   5.641   2.766  0.1575  0.1065 -0.3646
  158OSM    H1S17657   4.144   5.621   2.751  0.4413  1.4849 -0.2998
  158OSM    H1T17658   3.987   5.580   2.687 -0.6634 -0.0524  0.2392
  158OSM     NF17659   4.085   5.482   2.945 -0.7614  0.2353  0.6713
  158OSM    HNF17660   4.045   5.391   2.940 -0.4967  0.1770 -1.3044
  158OSM    C2S17661   3.994   5.589   2.904  0.0019  0.1238  0.1604
  158OSM    H2S17662   4.005   5.675   2.974  1.0610  0.2122 -0.1135
  158OSM    C3S17663   3.845   5.549   2.909  0.0752  0.3103 -0.5491
  158OSM    H3S17664   3.839   5.454   2.851  1.1806  1.8649 -3.4086
  158OSM     O317665   3.762   5.640   2.838  0.1146 -0.0863 -0.0948
  158OSM    HO317666   3.820   5.712   2.813  1.4189 -0.9735  0.2558
  158OSM    C4S17667   3.799   5.519   3.051  0.1284 -0.7215 -0.6601
  158OSM    H4S17668   3.784   5.411   3.065  0.1527 -0.7140 -0.5794
  158OSM    C5S17669   3.773   5.613   3.147  0.1500 -0.3505 -0.0049
  158OSM    H5S17670   3.774   5.718   3.114  0.4722 -0.3696 -0.0553
  158OSM    C6S17671   3.744   5.584   3.289  0.5873  1.0601 -0.2957
  158OSM    H6S17672   3.688   5.673   3.325  1.1015  1.7115 -1.0897
  158OSM    H6T17673   3.840   5.577   3.344 -0.3620 -0.9648  1.2732
  158OSM    C7S17674   3.673   5.442   3.322  0.1810 -0.0813  0.1144
  158OSM    H7S17675   3.736   5.360   3.282 -0.2933 -0.0261 -0.7747
  158OSM    H7T17676   3.582   5.444   3.258  0.1512 -0.3164  0.1520
  158OSM    C8S17677   3.653   5.427   3.471  0.5419 -0.1225 -0.4528
  158OSM    H8S17678   3.727   5.491   3.523 -1.6174  1.4420  0.8933
  158OSM    H8T17679   3.668   5.319   3.488  1.1841  0.1254  0.6406
  158OSM    C9S17680   3.509   5.456   3.515 -0.1456  0.7522  0.2698
  158OSM    H9S17681   3.443   5.374   3.480 -1.7848  2.2566 -0.3583
  158OSM    H9T17682   3.494   5.546   3.451  1.1987 -0.5627 -2.0110
  158OSM   C10S17683   3.492   5.493   3.670 -0.4674 -0.1434  0.0767
  158OSM   H10S17684   3.384   5.513   3.686 -0.3014  1.0068 -0.1789
  158OSM   H10T17685   3.539   5.588   3.702 -2.0593  1.0229 -0.8890
  158OSM   C11S17686   3.532   5.381   3.769  0.7857 -0.1015 -0.4924
  158OSM   H11S17687   3.637   5.348   3.750  0.6244 -0.7070 -0.3725
  158OSM   H11T17688   3.466   5.295   3.745 -1.8219  1.0804  1.8732
  158OSM   C12S17689   3.510   5.418   3.926  0.1046  0.0684  0.3674
  158OSM   H12S17690   3.403   5.407   3.956  0.7227 -0.2492  2.6566
  158OSM   H12T17691   3.543   5.523   3.939 -2.5283  1.1967 -1.2267
  158OSM   C13S17692   3.583   5.334   4.024 -0.1598  0.2040  0.3243
  158OSM   H13S17693   3.688   5.370   4.035 -0.3578  0.7206  0.5649
  158OSM   H13T17694   3.584   5.225   4.001 -0.6765  0.1878  0.3810
  158OSM   C14S17695   3.526   5.338   4.166  0.1115  0.5684 -0.6257
  158OSM   H14S17696   3.423   5.296   4.172  0.6717 -0.7133  0.3019
  158OSM   H14T17697   3.514   5.446   4.190 -2.7918 -0.1255  1.6142
  158OSM   C15S17698   3.616   5.263   4.266 -0.3442  0.0672  0.2920
  158OSM   H15S17699   3.711   5.321   4.265 -0.4349  0.2139  0.0087
  158OSM   H15T17700   3.641   5.160   4.232 -0.3975 -0.1895  1.0219
  158OSM   C16S17701   3.567   5.254   4.409  0.0474  0.0362  0.2257
  158OSM   H16S17702   3.659   5.227   4.466  0.5245  2.7951  0.9620
  158OSM   H16T17703   3.498   5.167   4.418  1.5055 -1.2746 -0.8426
  158OSM   C17S17704   3.504   5.379   4.476 -0.1505  0.3660  0.7345
  158OSM   H17S17705   3.415   5.404   4.414  0.8758 -0.0386 -0.9574
  158OSM   H17T17706   3.569   5.469   4.478 -2.4822  2.3679 -2.5826
  158OSM   C18S17707   3.470   5.355   4.624  0.0908  0.1235  0.0791
  158OSM   H18S17708   3.451   5.457   4.663 -0.9682  0.2941 -0.8224
  158OSM   H18T17709   3.555   5.313   4.681  0.5601  0.1765 -0.5725
  158OSM   H18U17710   3.386   5.283   4.636  2.5673 -2.9377  0.3125
  158OSM    C1F17711   4.214   5.505   2.969  0.3064 -0.0749  0.3145
  158OSM     OF17712   4.259   5.622   2.968  0.9941 -0.0340  0.7737
  158OSM    C2F17713   4.295   5.375   3.002  0.2901 -0.0671 -0.0634
  158OSM    H2F17714   4.265   5.296   2.930  0.8265  1.1074 -1.6403
  158OSM    H2G17715   4.277   5.346   3.107  1.0868 -0.1837  0.0458
  158OSM    C3F17716   4.443   5.395   3.004 -0.3662  0.7161  0.5909
  158OSM    H3F17717   4.464   5.434   2.902 -1.6532  0.2250  0.1122
  158OSM    H3G17718   4.495   5.297   3.004  1.8243  1.7421 -2.3532
  158OSM    C4F17719   4.498   5.470   3.125 -0.6706  0.1680  0.9273
  158OSM    H4F17720   4.439   5.447   3.216  0.1701 -0.7220  1.2625
  158OSM    H4G17721   4.484   5.579   3.109 -0.0541  0.2122  0.6456
  158OSM    C5F17722   4.653   5.452   3.149  0.3467 -0.3895  0.1226
  158OSM    H5F17723   4.712   5.462   3.056  2.2590 -0.4126  1.2851
  158OSM    H5G17724   4.667   5.349   3.188  2.7512 -0.4586 -0.8033
  158OSM    C6F17725   4.698   5.563   3.248  0.2145 -0.8980 -0.4619
  158OSM    H6F17726   4.645   5.546   3.344 -0.1363  0.0203 -0.4850
  158OSM    H6G17727   4.653   5.661   3.222  1.1292 -0.0811  0.8847
  158OSM    C7F17728   4.852   5.571   3.271  0.1861  0.2904  0.3613
  158OSM    H7F17729   4.870   5.660   3.335  1.5897 -0.8943  1.6940
  158OSM    H7G17730   4.891   5.589   3.169 -0.0419  0.0924  0.2373
  158OSM    C8F17731   4.908   5.446   3.343  0.2667 -0.1467  0.4685
  158OSM    H8F17732   4.865   5.353   3.300 -0.7517  0.3051  0.4938
  158OSM    H8G17733   4.867   5.451   3.446 -1.9834  0.4303 -0.3976
  158OSM    C9F17734   5.060   5.445   3.347 -0.3664 -0.3493  0.0385
  158OSM    H9F17735   5.108   5.438   3.248 -2.3559 -0.9779 -0.9231
  158OSM   C10F17736   5.138   5.439   3.455  0.6689 -1.1898 -0.2320
  158OSM   H10F17737   5.247   5.438   3.446  0.9720  1.3897  1.9556
  158OSM   C11F17738   5.100   5.439   3.601 -0.7532  0.6272  0.5362
  158OSM   H11F17739   5.119   5.336   3.637  1.9642 -0.3966 -3.2236
  158OSM   H11G17740   4.990   5.455   3.611 -0.7098  0.2149  1.8102
  158OSM   C12F17741   5.179   5.540   3.681 -0.5088  0.0605 -0.6087
  158OSM   H12F17742   5.171   5.647   3.653 -0.2494  0.6787  1.5049
  158OSM   H12G17743   5.285   5.521   3.654 -0.6462 -1.7045 -0.0760
  158OSM   C13F17744   5.159   5.525   3.834  0.2425  0.3949 -0.0726
  158OSM   H13F17745   5.202   5.425   3.852 -1.5638 -0.5775 -0.8824
  158OSM   H13G17746   5.048   5.516   3.843  0.0933  1.2815 -0.8273
  158OSM   C14F17747   5.214   5.638   3.912 -0.3514  0.6478 -0.5321
  158OSM   H14F17748   5.169   5.738   3.895  0.4589  1.6542  2.5642
  158OSM   H14G17749   5.322   5.642   3.887 -0.2503  0.1447 -0.1929
  158OSM   C15F17750   5.204   5.617   4.059 -0.8672  0.1880 -0.6774
  158OSM   H15F17751   5.247   5.520   4.093  0.1251  0.9822  0.4155
  158OSM   H15G17752   5.096   5.598   4.079 -0.5495  0.4544  1.5150
  158OSM   C16F17753   5.266   5.726   4.156 -0.3803  0.0910  0.3294
  158OSM   H16F17754   5.227   5.829   4.141 -0.5879  0.1504  1.2620
  158OSM   H16G17755   5.371   5.731   4.119 -0.1403 -0.6802  0.8842
  158OSM   C17F17756   5.280   5.669   4.298  0.3066 -0.0028 -0.6843
  158OSM   H17F17757   5.289   5.559   4.284 -1.9847 -0.1923 -1.0770
  158OSM   H17G17758   5.177   5.681   4.338  1.2143 -0.5958  2.0535
  158OSM   C18F17759   5.380   5.737   4.388  0.2670  0.3389 -0.0860
  158OSM   H18F17760   5.380   5.846   4.405 -0.3057  0.4156 -0.5613
  158OSM   H18G17761   5.485   5.720   4.354 -0.2467  0.3429 -1.7758
  158OSM   H18H17762   5.361   5.687   4.485 -0.3225 -1.5821 -1.1303
  159OSM      N17763   5.961   1.230   2.969  0.4931  0.6029  1.1330
  159OSM    C1517764   5.952   1.333   3.074 -0.6955 -0.7404 -0.7949
  159OSM   H15A17765   5.941   1.435   3.042 -0.4232 -0.2741  0.5572
  159OSM   H15B17766   6.045   1.326   3.128 -0.5087 -0.5877 -1.0938
  159OSM   H15C17767   5.869   1.315   3.141 -1.5312 -0.8812 -1.8258
  159OSM    C1417768   6.104   1.229   2.905 -0.2601 -0.4186 -0.2240
  159OSM   H14A17769   6.117   1.323   2.854  0.8547 -1.4984 -2.0346
  159OSM   H14B17770   6.102   1.154   2.826  0.7811 -0.1106 -0.5558
  159OSM   H14C17771   6.175   1.204   2.982  0.1606 -2.1873 -1.1307
  159OSM    C1317772   5.936   1.094   3.024  0.2877 -0.0846 -0.2969
  159OSM   H13A17773   5.833   1.076   3.051  0.5587  0.0154  0.8551
  159OSM   H13B17774   5.988   1.076   3.117 -0.1430  0.5383  0.0664
  159OSM   H13C17775   5.968   1.011   2.962  0.4106 -0.2821  0.0310
  159OSM    C1217776   5.853   1.263   2.866 -0.1169  0.6938 -0.4573
  159OSM   H12A17777   5.758   1.264   2.918  0.6045  0.5729  0.9052
  159OSM   H12B17778   5.849   1.191   2.786 -0.5987 -0.8016  0.8673
  159OSM    C1117779   5.875   1.402   2.803  0.2321 -1.0050  0.0522
  159OSM   H11A17780   5.880   1.479   2.883 -1.3192 -0.2983 -0.4925
  159OSM   H11B17781   5.785   1.426   2.743 -0.0028  0.0261  0.7970
  159OSM      P17782   6.032   1.535   2.635  0.1708  0.1061  0.2655
  159OSM    O1317783   6.158   1.507   2.562  0.2827  0.3280 -0.3445
  159OSM    O1417784   5.915   1.577   2.557 -0.1756 -0.1175  0.0685
  159OSM    O1117785   6.050   1.643   2.748  0.2632 -0.1349  0.0704
  159OSM    O1217786   5.997   1.405   2.722  0.2588 -0.3854  0.2398
  159OSM    C1S17787   6.163   1.616   2.833 -0.3301 -0.2250 -0.2516
  159OSM    H1S17788   6.252   1.619   2.766 -0.4652  0.1801 -0.4230
  159OSM    H1T17789   6.163   1.512   2.870 -1.3919 -0.5712 -1.1560
  159OSM     NF17790   6.289   1.697   3.030  0.0664  0.2608 -0.2567
  159OSM    HNF17791   6.285   1.638   3.110 -0.6920  1.5076  0.6596
  159OSM    C2S17792   6.170   1.718   2.952 -0.1183  0.0251 -0.7740
  159OSM    H2S17793   6.166   1.816   2.900  2.1937  0.3460 -0.4566
  159OSM    C3S17794   6.049   1.705   3.036  0.3878  0.1296  0.3649
  159OSM    H3S17795   6.050   1.605   3.084  1.5378  0.8098  1.8267
  159OSM     O317796   5.923   1.709   2.975  0.4011 -0.5349  0.2959
  159OSM    HO317797   5.936   1.700   2.881  0.5681  1.5140  0.0800
  159OSM    C4S17798   6.060   1.798   3.157  0.4797 -0.4443 -0.1109
  159OSM    H4S17799   6.121   1.758   3.239  1.2545  0.6002 -0.1620
  159OSM    C5S17800   5.991   1.918   3.172  0.6140  0.3375 -0.0681
  159OSM    H5S17801   5.931   1.956   3.088  1.2674  2.7674  0.5009
  159OSM    C6S17802   6.014   2.012   3.291  0.0541  0.6218 -0.1021
  159OSM    H6S17803   5.921   2.053   3.336 -0.8311 -0.2784 -1.0590
  159OSM    H6T17804   6.062   2.104   3.251  2.3469  0.1248  1.3661
  159OSM    C7S17805   6.111   1.966   3.406  0.1442 -0.3116 -0.8975
  159OSM    H7S17806   6.216   1.972   3.370  1.8922 -2.2529  3.2142
  159OSM    H7T17807   6.090   1.858   3.421 -0.4160  0.0597  1.4002
  159OSM    C8S17808   6.089   2.038   3.538  0.5890  0.3684 -0.8120
  159OSM    H8S17809   5.998   1.993   3.582  1.1815 -1.6173 -1.4980
  159OSM    H8T17810   6.087   2.146   3.514 -0.5039  0.0797 -2.1700
  159OSM    C9S17811   6.200   2.021   3.649 -0.2971  0.0776 -0.3952
  159OSM    H9S17812   6.288   2.079   3.612  0.0880  0.2745  0.8053
  159OSM    H9T17813   6.208   1.911   3.659 -1.9724  0.0024  0.4724
  159OSM   C10S17814   6.159   2.078   3.785  0.5272  0.1344 -0.0361
  159OSM   H10S17815   6.052   2.054   3.800  0.7513 -2.0767 -1.5291
  159OSM   H10T17816   6.176   2.187   3.798  0.6140  0.2361 -0.9261
  159OSM   C11S17817   6.224   2.011   3.905  0.5697  0.5949 -0.1934
  159OSM   H11S17818   6.332   1.999   3.880  0.7181  0.5485  0.4635
  159OSM   H11T17819   6.184   1.908   3.913  2.3921 -0.2426 -1.0798
  159OSM   C12S17820   6.190   2.078   4.037  0.1204  0.2755  0.1780
  159OSM   H12S17821   6.220   2.184   4.052  0.6368  0.2087 -0.3798
  159OSM   H12T17822   6.270   2.045   4.106  0.2591 -2.1808 -1.0789
  159OSM   C13S17823   6.051   2.050   4.102  0.0816  0.5746  0.3061
  159OSM   H13S17824   6.025   1.948   4.067 -0.7480  1.6058 -2.3488
  159OSM   H13T17825   5.978   2.114   4.048  0.0280 -0.1619 -0.5196
  159OSM   C14S17826   6.043   2.077   4.247 -0.2874 -0.0483 -0.5095
  159OSM   H14S17827   6.093   1.998   4.307  2.5467  2.2890  0.3901
  159OSM   H14T17828   5.935   2.090   4.273  0.1194  4.6776 -0.3617
  159OSM   C15S17829   6.118   2.204   4.282  0.0684 -0.1963 -0.3324
  159OSM   H15S17830   6.098   2.282   4.205  1.0152 -1.3626 -1.8210
  159OSM   H15T17831   6.227   2.183   4.290 -0.0719 -1.0060 -0.4229
  159OSM   C16S17832   6.076   2.269   4.417  0.5005 -0.2043 -0.3091
  159OSM   H16S17833   6.070   2.191   4.496 -1.7311 -2.1219 -2.2362
  159OSM   H16T17834   5.968   2.294   4.406  0.4033  0.4355  1.6566
  159OSM   C17S17835   6.161   2.386   4.457  0.1894 -0.1078 -0.7530
  159OSM   H17S17836   6.181   2.445   4.365 -0.3767  0.1764 -0.6976
  159OSM   H17T17837   6.261   2.357   4.496 -0.6342 -0.9528  0.8386
  159OSM   C18S17838   6.092   2.478   4.568 -0.4015 -0.0166 -0.7057
  159OSM   H18S17839   6.159   2.562   4.596 -2.2197  1.0771  0.5454
  159OSM   H18T17840   6.080   2.412   4.657 -1.9919 -1.0765 -1.6596
  159OSM   H18U17841   5.990   2.514   4.543  0.1051  0.3415 -2.3717
  159OSM    C1F17842   6.406   1.730   2.978 -0.8798 -0.7416 -0.3895
  159OSM     OF17843   6.417   1.811   2.886 -0.1521  0.5280 -0.1863
  159OSM    C2F17844   6.529   1.668   3.040  0.3467 -0.5859 -0.1508
  159OSM    H2F17845   6.594   1.639   2.955  1.4667  0.6091  0.2552
  159OSM    H2G17846   6.481   1.582   3.091  0.1785  0.0013  0.7027
  159OSM    C3F17847   6.599   1.757   3.149  0.5294 -0.1110 -0.4725
  159OSM    H3F17848   6.633   1.856   3.110 -0.6601 -0.5400 -2.7118
  159OSM    H3G17849   6.690   1.706   3.187 -0.1339 -1.8388 -1.1328
  159OSM    C4F17850   6.517   1.784   3.269  0.2152 -0.3304 -0.0034
  159OSM    H4F17851   6.521   1.688   3.324  1.2492  0.0844  0.6762
  159OSM    H4G17852   6.409   1.805   3.251  0.0898 -0.7347  0.2650
  159OSM    C5F17853   6.576   1.885   3.370 -0.0115 -0.2001  0.2863
  159OSM    H5F17854   6.571   1.987   3.328 -0.0701 -1.1735 -2.2229
  159OSM    H5G17855   6.683   1.859   3.382  0.4069  1.2089 -0.2010
  159OSM    C6F17856   6.518   1.882   3.505  0.0808 -0.2390  0.2982
  159OSM    H6F17857   6.541   1.787   3.558 -0.7226 -0.9063 -0.5034
  159OSM    H6G17858   6.407   1.892   3.496 -0.3568 -2.8450  1.7215
  159OSM    C7F17859   6.576   1.986   3.596 -0.0155  0.0941  0.2670
  159OSM    H7F17860   6.515   1.988   3.689 -0.8683 -2.3216 -0.1872
  159OSM    H7G17861   6.568   2.081   3.539  0.4465 -0.9400 -1.5823
  159OSM    C8F17862   6.723   1.949   3.640 -0.4961  0.3012  0.1665
  159OSM    H8F17863   6.786   1.936   3.549  0.5425  1.4107  0.6975
  159OSM    H8G17864   6.708   1.847   3.683  0.3025  0.3829  0.6526
  159OSM    C9F17865   6.793   2.036   3.741  0.4259 -0.6672 -0.1653
  159OSM    H9F17866   6.850   2.112   3.686 -0.3238 -0.8073 -1.1616
  159OSM   C10F17867   6.792   2.031   3.872  0.5352 -0.3336 -0.2464
  159OSM   H10F17868   6.849   2.109   3.925  1.2914 -0.4462 -0.8764
  159OSM   C11F17869   6.718   1.938   3.956  1.0998 -0.6458  0.2137
  159OSM   H11F17870   6.784   1.879   4.024 -0.8901  0.8405  3.7422
  159OSM   H11G17871   6.669   1.863   3.892 -1.1808  0.5031  0.5051
  159OSM   C12F17872   6.623   2.008   4.062 -0.9137 -0.5474  0.0415
  159OSM   H12F17873   6.555   1.937   4.113 -1.1405 -1.2174 -1.1495
  159OSM   H12G17874   6.556   2.076   4.006 -3.6297 -3.7069 -0.8586
  159OSM   C13F17875   6.708   2.075   4.175  0.1412  0.1210  0.4800
  159OSM   H13F17876   6.771   2.157   4.137  0.7302 -0.3485  0.4218
  159OSM   H13G17877   6.781   2.000   4.213  0.8660  1.0736  0.9859
  159OSM   C14F17878   6.624   2.126   4.292 -1.2094 -0.2983 -1.1842
  159OSM   H14F17879   6.583   2.041   4.351 -1.5881  2.0465  2.1921
  159OSM   H14G17880   6.546   2.189   4.243  0.0654  1.0959 -1.4692
  159OSM   C15F17881   6.711   2.211   4.387  0.3839 -0.0302 -0.2518
  159OSM   H15F17882   6.747   2.295   4.325 -0.1664  1.3632  1.2559
  159OSM   H15G17883   6.802   2.149   4.404  0.2188  0.0469  1.0060
  159OSM   C16F17884   6.633   2.256   4.509 -0.1955  0.1553  0.1404
  159OSM   H16F17885   6.548   2.324   4.486  1.1154  3.2913  3.6522
  159OSM   H16G17886   6.702   2.322   4.566 -0.3418  1.0115 -0.6419
  159OSM   C17F17887   6.584   2.142   4.603  0.3829  0.2295  0.3864
  159OSM   H17F17888   6.496   2.087   4.563 -0.4351  1.4615  0.4575
  159OSM   H17G17889   6.543   2.193   4.693  0.1104  0.1348  0.3156
  159OSM   C18F17890   6.691   2.036   4.633  0.8164 -0.3227 -0.1071
  159OSM   H18F17891   6.640   1.959   4.694 -1.9033 -0.9021 -2.8336
  159OSM   H18G17892   6.771   2.093   4.685  0.3924  0.3823 -0.2128
  159OSM   H18H17893   6.718   1.992   4.535  0.6009  1.1316 -0.8531
  160OSM      N17894   3.076   1.526   2.505 -0.0362  0.3935  0.1809
  160OSM    C1517895   2.950   1.588   2.455  0.0200  0.3493 -0.1098
  160OSM   H15A17896   2.977   1.682   2.408  0.4849 -0.1362 -0.8541
  160OSM   H15B17897   2.880   1.600   2.536  1.7307 -1.0398  1.6894
  160OSM   H15C17898   2.893   1.526   2.387 -3.1005  3.3577 -0.5080
  160OSM    C1417899   3.042   1.403   2.581 -0.0107  0.0675  0.0195
  160OSM   H14A17900   2.968   1.432   2.654 -0.9554  1.0149 -1.2907
  160OSM   H14B17901   3.136   1.382   2.632 -0.3187  0.2417  0.6767
  160OSM   H14C17902   3.005   1.323   2.518  2.1639 -1.3768  0.4591
  160OSM    C1317903   3.169   1.491   2.392 -0.8599  0.3538  0.4742
  160OSM   H13A17904   3.240   1.420   2.431 -0.9564  0.1606  0.3001
  160OSM   H13B17905   3.241   1.564   2.357  0.6610 -0.4736  1.7816
  160OSM   H13C17906   3.117   1.445   2.309 -1.2421  0.9002  0.4005
  160OSM    C1217907   3.136   1.619   2.608  0.1178 -0.0308 -0.0742
  160OSM   H12A17908   3.155   1.713   2.558  0.8611  0.8448  1.7229
  160OSM   H12B17909   3.236   1.584   2.631 -0.1524 -0.6622  0.1566
  160OSM    C1117910   3.074   1.639   2.755  0.2085 -0.2517 -0.2830
  160OSM   H11A17911   3.134   1.710   2.816 -0.6651 -0.6847  1.1368
  160OSM   H11B17912   3.095   1.542   2.804  0.7310 -0.7313 -1.4194
  160OSM      P17913   2.832   1.633   2.855  0.2094 -0.3188  0.4718
  160OSM    O1317914   2.727   1.733   2.847  0.0258 -0.4883 -0.2966
  160OSM    O1417915   2.790   1.490   2.848 -0.1319 -0.2874 -0.2469
  160OSM    O1117916   2.912   1.653   2.996 -0.7461 -0.1563  0.1136
  160OSM    O1217917   2.936   1.676   2.744  0.2968  0.2051 -0.5854
  160OSM    C1S17918   2.904   1.779   3.071 -0.2764 -1.0013 -0.4838
  160OSM    H1S17919   2.801   1.813   3.096  0.9937  1.4298  2.0649
  160OSM    H1T17920   2.957   1.858   3.013  1.8322 -1.1851  1.0481
  160OSM     NF17921   2.940   1.879   3.299  0.1578  0.4958  0.3479
  160OSM    HNF17922   3.002   1.957   3.305 -0.0077  0.5362  2.0884
  160OSM    C2S17923   2.978   1.764   3.210  0.2033  0.3415  0.1119
  160OSM    H2S17924   2.947   1.677   3.271  3.7590  0.2518  2.0715
  160OSM    C3S17925   3.130   1.752   3.181 -1.3912  0.5119 -0.9932
  160OSM    H3S17926   3.157   1.855   3.149 -0.6620  0.7826  0.4347
  160OSM     O317927   3.174   1.661   3.077  0.7056  0.1449 -0.1931
  160OSM    HO317928   3.092   1.626   3.042  0.5395  0.9052 -0.5894
  160OSM    C4S17929   3.215   1.724   3.308 -0.2428 -0.2228  0.1719
  160OSM    H4S17930   3.260   1.814   3.354  0.8222 -0.6351 -0.0328
  160OSM    C5S17931   3.257   1.609   3.358  0.4417  0.5674 -0.1900
  160OSM    H5S17932   3.226   1.521   3.299  0.4180  1.0732 -0.9427
  160OSM    C6S17933   3.347   1.583   3.475  0.1351 -0.0010 -0.0846
  160OSM    H6S17934   3.431   1.655   3.471 -0.7952  1.2371  1.2315
  160OSM    H6T17935   3.398   1.485   3.464  0.3237  0.3172 -2.5859
  160OSM    C7S17936   3.283   1.579   3.619 -0.1763  0.0184  0.4807
  160OSM    H7S17937   3.194   1.514   3.633 -1.5960  1.6414 -0.6813
  160OSM    H7T17938   3.267   1.686   3.640 -2.4446 -0.2719  0.4645
  160OSM    C8S17939   3.389   1.538   3.727  0.0239  0.1000 -0.6317
  160OSM    H8S17940   3.457   1.625   3.739 -0.1863  0.3984 -1.4680
  160OSM    H8T17941   3.464   1.456   3.711  3.3603  2.4740  1.5562
  160OSM    C9S17942   3.315   1.513   3.858 -0.3820  0.4958 -0.4524
  160OSM    H9S17943   3.259   1.417   3.856  0.1376  0.1039  1.6016
  160OSM    H9T17944   3.239   1.593   3.869  0.5090  1.0823  2.1692
  160OSM   C10S17945   3.395   1.512   3.990  0.5086  0.0543  0.2348
  160OSM   H10S17946   3.444   1.612   3.994 -1.4695  1.1036 -0.4034
  160OSM   H10T17947   3.468   1.428   3.990 -0.4391 -0.7932 -0.5488
  160OSM   C11S17948   3.313   1.490   4.117  0.1294 -0.1746  0.4953
  160OSM   H11S17949   3.273   1.386   4.119 -0.1437 -0.0749  0.2543
  160OSM   H11T17950   3.226   1.559   4.114  0.4146  0.1361 -1.6063
  160OSM   C12S17951   3.391   1.523   4.247  0.4055  0.1346  0.0645
  160OSM   H12S17952   3.429   1.626   4.229  1.4744 -0.6302 -2.5534
  160OSM   H12T17953   3.484   1.464   4.264 -0.1459 -1.0005 -0.7245
  160OSM   C13S17954   3.310   1.520   4.383  0.5199  0.3687  0.6216
  160OSM   H13S17955   3.226   1.593   4.380 -0.1218 -0.3862 -0.3513
  160OSM   H13T17956   3.389   1.548   4.456  0.6027  0.2772  0.5661
  160OSM   C14S17957   3.251   1.394   4.424  0.0940 -0.3081 -0.3145
  160OSM   H14S17958   3.331   1.318   4.440 -1.1917 -2.0599 -1.7489
  160OSM   H14T17959   3.214   1.359   4.325 -0.2488  0.0004 -0.2958
  160OSM   C15S17960   3.141   1.393   4.532 -0.4368 -0.4643 -0.1971
  160OSM   H15S17961   3.063   1.467   4.502  2.7373  1.7322 -3.9808
  160OSM   H15T17962   3.189   1.426   4.626 -1.9937  0.6454  0.2609
  160OSM   C16S17963   3.065   1.262   4.549  0.1599  0.0350  0.4946
  160OSM   H16S17964   3.142   1.201   4.600 -0.0561 -0.1605  0.5915
  160OSM   H16T17965   3.041   1.212   4.453 -1.3899 -0.8197  1.2787
  160OSM   C17S17966   2.938   1.265   4.640  0.4822 -0.0277  0.6675
  160OSM   H17S17967   2.864   1.343   4.612  1.6896  1.5530  1.6894
  160OSM   H17T17968   2.963   1.302   4.742 -1.2290  2.0614  0.3900
  160OSM   C18S17969   2.860   1.135   4.641 -0.4111  0.2124  0.1538
  160OSM   H18S17970   2.750   1.149   4.633 -0.3116  1.3177  0.5319
  160OSM   H18T17971   2.889   1.097   4.741  1.9469  1.3688 -0.0267
  160OSM   H18U17972   2.893   1.069   4.558 -0.4920  0.0050  0.2883
  160OSM    C1F17973   2.824   1.878   3.355 -0.0211 -0.1633  0.5361
  160OSM     OF17974   2.728   1.805   3.311 -0.1912 -0.0487 -0.4963
  160OSM    C2F17975   2.816   1.968   3.475  0.2838  0.7723 -0.3181
  160OSM    H2F17976   2.761   2.059   3.443 -1.8160 -0.4693 -0.4208
  160OSM    H2G17977   2.911   1.999   3.523  0.2730  1.2572 -0.6037
  160OSM    C3F17978   2.729   1.908   3.588 -0.1189 -0.7223 -0.2171
  160OSM    H3F17979   2.776   1.819   3.637 -1.4187 -1.7896 -0.8409
  160OSM    H3G17980   2.629   1.867   3.562 -0.6694  0.8309 -0.6149
  160OSM    C4F17981   2.722   2.017   3.701  0.1344  0.4444 -0.5445
  160OSM    H4F17982   2.648   2.098   3.679 -0.6368 -0.2120 -0.4013
  160OSM    H4G17983   2.819   2.071   3.704  0.6493 -0.5098  0.7540
  160OSM    C5F17984   2.698   1.955   3.842  0.2699  0.3972 -0.1028
  160OSM    H5F17985   2.763   1.865   3.855 -0.3177 -0.1956 -1.2124
  160OSM    H5G17986   2.592   1.924   3.848  0.3598 -0.0288 -0.6391
  160OSM    C6F17987   2.730   2.051   3.957  0.6140 -0.0757  0.0830
  160OSM    H6F17988   2.841   2.050   3.963  0.5687 -1.6120  1.6464
  160OSM    H6G17989   2.701   1.995   4.049  0.6109  0.9961  0.7575
  160OSM    C7F17990   2.685   2.202   3.944  0.1055  0.3289 -0.2259
  160OSM    H7F17991   2.585   2.222   3.987  0.4350  0.2927  0.5752
  160OSM    H7G17992   2.673   2.235   3.839 -0.9740  0.5433 -0.0466
  160OSM    C8F17993   2.775   2.295   4.021  0.0961  0.2879  0.5863
  160OSM    H8F17994   2.742   2.398   3.994 -1.8741 -0.5881 -0.6189
  160OSM    H8G17995   2.878   2.278   3.983 -0.2664 -1.9494  0.4722
  160OSM    C9F17996   2.749   2.281   4.168 -0.8910 -0.1311 -0.0907
  160OSM    H9F17997   2.791   2.192   4.217 -0.0261 -1.1728 -2.5283
  160OSM   C10F17998   2.695   2.377   4.246  0.6020  0.3976 -0.3204
  160OSM   H10F17999   2.709   2.372   4.355  2.0728 -0.4201 -0.5200
  160OSM   C11F18000   2.628   2.503   4.202 -0.6387 -0.4357 -0.1738
  160OSM   H11F18001   2.684   2.560   4.124 -2.3978  0.8342 -0.5513
  160OSM   H11G18002   2.622   2.576   4.285 -0.3941  1.0537 -1.4063
  160OSM   C12F18003   2.481   2.486   4.159  0.0158 -0.4715  0.1763
  160OSM   H12F18004   2.475   2.402   4.087 -0.3089 -1.9303  1.8226
  160OSM   H12G18005   2.457   2.584   4.111  0.8022  0.0989  0.9156
  160OSM   C13F18006   2.384   2.450   4.274 -0.2706 -0.3853 -0.3312
  160OSM   H13F18007   2.437   2.372   4.332  1.5680 -0.4619 -2.0172
  160OSM   H13G18008   2.299   2.395   4.227 -0.8355 -0.7587  1.0711
  160OSM   C14F18009   2.350   2.566   4.365  0.3569 -0.5550 -0.1399
  160OSM   H14F18010   2.329   2.656   4.304  1.1852 -1.0585 -1.1866
  160OSM   H14G18011   2.449   2.583   4.412  0.7334 -1.2778 -0.6598
  160OSM   C15F18012   2.239   2.532   4.466  0.0842  0.0124  0.3039
  160OSM   H15F18013   2.268   2.441   4.522  0.5849 -0.1964 -0.2944
  160OSM   H15G18014   2.145   2.511   4.410  0.1088  0.6953  0.0011
  160OSM   C16F18015   2.230   2.654   4.561  0.7079  0.4304  0.1388
  160OSM   H16F18016   2.215   2.750   4.506 -1.2814 -0.4153 -0.9257
  160OSM   H16G18017   2.330   2.667   4.606  0.3856  1.0738  0.6961
  160OSM   C17F18018   2.116   2.640   4.664  0.2971 -0.5278  0.4761
  160OSM   H17F18019   2.100   2.534   4.693 -1.1763  0.3486  3.3036
  160OSM   H17G18020   2.017   2.667   4.621 -0.4635 -1.2282  1.7290
  160OSM   C18F18021   2.151   2.708   4.795  0.0525  0.0678 -0.1488
  160OSM   H18F18022   2.085   2.653   4.866  0.6559 -1.4491 -0.7348
  160OSM   H18G18023   2.133   2.818   4.800 -0.3336  0.0635 -1.2507
  160OSM   H18H18024   2.257   2.687   4.818 -0.0836 -0.0134  0.4162
  161OSM      N18025   6.402   0.186   2.917  0.8642 -0.2749 -0.1683
  161OSM    C1518026   6.383   0.057   3.001  0.1863  0.1679  0.1545
  161OSM   H15A18027   6.453   0.047   3.082 -0.1678 -3.5920  0.1425
  161OSM   H15B18028   6.405  -0.028   2.938 -2.4698  0.4063 -1.2353
  161OSM   H15C18029   6.282   0.052   3.038 -0.2037 -0.5200 -0.9717
  161OSM    C1418030   6.291   0.193   2.813  0.0500 -0.0100  0.0097
  161OSM   H14A18031   6.198   0.192   2.868 -0.1048 -0.1539 -0.2567
  161OSM   H14B18032   6.300   0.111   2.744  1.5264  2.1357 -2.5181
  161OSM   H14C18033   6.291   0.282   2.752  0.7085  1.7085  2.3402
  161OSM    C1318034   6.386   0.299   3.016 -0.0398 -0.7320  0.0865
  161OSM   H13A18035   6.281   0.320   3.021 -0.0010 -0.7166  1.0952
  161OSM   H13B18036   6.444   0.385   2.984 -2.2302  0.9294  0.3029
  161OSM   H13C18037   6.411   0.268   3.116 -1.5057 -2.0944  0.0543
  161OSM    C1218038   6.543   0.184   2.859 -0.2673  0.3672 -0.3651
  161OSM   H12A18039   6.546   0.099   2.792 -0.0488  0.2766 -0.2409
  161OSM   H12B18040   6.610   0.162   2.941  1.6683  1.4670 -1.5847
  161OSM    C1118041   6.589   0.308   2.782 -0.4073  0.0502 -0.2756
  161OSM   H11A18042   6.504   0.334   2.714 -0.1816 -0.1128 -0.6242
  161OSM   H11B18043   6.674   0.271   2.721 -1.0768 -2.7827  0.3483
  161OSM      P18044   6.740   0.465   2.939  0.0333 -0.4515 -0.2500
  161OSM    O1318045   6.857   0.385   2.899  0.0056  0.2601 -0.3143
  161OSM    O1418046   6.745   0.612   2.922 -0.1808  0.0165  0.0205
  161OSM    O1118047   6.717   0.416   3.083 -0.0833 -0.1154  0.0545
  161OSM    O1218048   6.613   0.420   2.870  0.5953 -0.6344  0.1508
  161OSM    C1S18049   6.794   0.484   3.192 -0.5249 -0.1136 -0.3802
  161OSM    H1S18050   6.755   0.588   3.204  1.1436  0.3083  2.2234
  161OSM    H1T18051   6.904   0.491   3.178 -0.6824  1.9935 -0.9162
  161OSM     NF18052   6.862   0.484   3.439  0.1359 -0.0366  0.3285
  161OSM    HNF18053   6.956   0.451   3.441 -0.4223 -1.7458  0.0071
  161OSM    C2S18054   6.777   0.416   3.338 -0.3723 -0.0379  0.0479
  161OSM    H2S18055   6.670   0.439   3.357 -0.6456 -0.1889 -1.2170
  161OSM    C3S18056   6.796   0.267   3.331  0.3820 -0.0959  0.7612
  161OSM    H3S18057   6.895   0.243   3.285 -0.0585 -2.7512  1.0771
  161OSM     O318058   6.695   0.208   3.248  0.0475  0.4608 -0.3669
  161OSM    HO318059   6.657   0.280   3.197 -0.9954 -0.3040 -0.6974
  161OSM    C4S18060   6.776   0.203   3.470  0.7199  0.6801 -0.2367
  161OSM    H4S18061   6.667   0.200   3.482  0.7247 -0.6363 -0.4114
  161OSM    C5S18062   6.865   0.160   3.563 -0.0776 -0.2492  1.0121
  161OSM    H5S18063   6.973   0.179   3.551 -0.0398 -0.2731  1.2871
  161OSM    C6S18064   6.826   0.109   3.694  0.0820  1.0169 -0.9654
  161OSM    H6S18065   6.911   0.075   3.757 -0.6754 -2.0726 -1.4227
  161OSM    H6T18066   6.768   0.016   3.675  2.4363 -0.7733  0.1200
  161OSM    C7S18067   6.736   0.205   3.781  0.8958  0.2776 -0.4132
  161OSM    H7S18068   6.655   0.250   3.721  1.4990  3.1637  0.7206
  161OSM    H7T18069   6.798   0.295   3.806 -0.0820  0.7665  0.3270
  161OSM    C8S18070   6.688   0.144   3.911 -0.3218  0.2661 -0.6219
  161OSM    H8S18071   6.726   0.041   3.918 -1.1609  0.0312  0.9403
  161OSM    H8T18072   6.577   0.140   3.909 -0.3682  1.0341 -0.2428
  161OSM    C9S18073   6.743   0.221   4.039  0.5710  0.7644  0.4564
  161OSM    H9S18074   6.711   0.328   4.044 -0.2796  0.6094 -1.0259
  161OSM    H9T18075   6.854   0.212   4.043  0.6193  0.3901 -1.1239
  161OSM   C10S18076   6.685   0.150   4.158 -0.2040 -0.0707  0.3250
  161OSM   H10S18077   6.705   0.042   4.140 -2.5731 -0.1134 -2.8391
  161OSM   H10T18078   6.576   0.168   4.152 -0.4295 -1.6156 -0.9837
  161OSM   C11S18079   6.728   0.196   4.296 -0.3330  0.0549  0.5316
  161OSM   H11S18080   6.687   0.299   4.304 -0.3786 -0.0487  1.8293
  161OSM   H11T18081   6.839   0.197   4.306  0.0646 -0.0569 -2.7455
  161OSM   C12S18082   6.689   0.097   4.406 -0.0629 -0.2939 -0.0940
  161OSM   H12S18083   6.757   0.010   4.398  1.7954  1.0402  0.4765
  161OSM   H12T18084   6.586   0.056   4.401 -0.6542  0.6543  2.6612
  161OSM   C13S18085   6.712   0.150   4.549  0.3768 -0.0305 -0.2032
  161OSM   H13S18086   6.643   0.237   4.556 -1.2431 -1.2486 -0.3225
  161OSM   H13T18087   6.816   0.187   4.560  0.1235  0.2891  1.5132
  161OSM   C14S18088   6.661   0.055   4.653 -0.3988 -0.0982 -0.8794
  161OSM   H14S18089   6.723  -0.037   4.644  1.0298  0.8116 -0.5987
  161OSM   H14T18090   6.552   0.035   4.643 -0.4769 -0.8112  1.1126
  161OSM   C15S18091   6.680   0.112   4.792 -0.1882  0.4208 -0.6099
  161OSM   H15S18092   6.605   0.192   4.806 -0.6418 -0.0129 -0.5449
  161OSM   H15T18093   6.785   0.148   4.800 -0.2205  0.2981  0.4153
  161OSM   C16S18094   6.661   0.006   4.904 -0.2680  0.4899 -0.3479
  161OSM   H16S18095   6.675   0.061   5.000 -2.4841  1.7039 -0.6655
  161OSM   H16T18096   6.727  -0.081   4.885 -3.5046 -1.7093 -2.3909
  161OSM   C17S18097   6.525  -0.065   4.915  0.4469 -0.5947  0.3818
  161OSM   H17S18098   6.511  -0.121   4.820  1.0424 -1.2388  0.6645
  161OSM   H17T18099   6.449   0.016   4.919 -0.7015 -1.6778  2.5866
  161OSM   C18S18100   6.510  -0.153   5.036 -0.7429 -0.2000 -0.7076
  161OSM   H18S18101   6.601  -0.218   5.041  1.5808  2.8484 -0.3746
  161OSM   H18T18102   6.413  -0.208   5.040 -1.2072  0.6854  1.1681
  161OSM   H18U18103   6.518  -0.093   5.129 -1.4596 -2.0376  0.5988
  161OSM    C1F18104   6.834   0.609   3.481  1.1495 -0.5692  0.0867
  161OSM     OF18105   6.738   0.672   3.441  0.1721 -0.3634 -0.8522
  161OSM    C2F18106   6.942   0.667   3.570  0.2726 -0.0956  0.1732
  161OSM    H2F18107   6.997   0.724   3.493 -0.5243  1.7616  0.9289
  161OSM    H2G18108   7.011   0.589   3.610 -0.7525 -1.8806 -1.3835
  161OSM    C3F18109   6.902   0.779   3.669  0.6286  0.5982 -0.4848
  161OSM    H3F18110   6.852   0.861   3.614 -0.2978 -0.6807 -1.6248
  161OSM    H3G18111   6.989   0.825   3.720  0.4813  0.7537 -0.3739
  161OSM    C4F18112   6.817   0.726   3.788 -0.4575  0.0435  0.0179
  161OSM    H4F18113   6.719   0.687   3.754 -0.6522  0.5737 -0.0491
  161OSM    H4G18114   6.796   0.818   3.846  3.2732  1.4977 -0.6189
  161OSM    C5F18115   6.891   0.623   3.870  0.0047 -0.0168  0.0552
  161OSM    H5F18116   6.991   0.660   3.901  0.9999 -1.4371 -1.3209
  161OSM    H5G18117   6.908   0.531   3.811 -1.2857 -0.3585  0.1851
  161OSM    C6F18118   6.803   0.575   3.996 -1.1516 -0.0448 -0.0737
  161OSM    H6F18119   6.863   0.494   4.043  2.2815 -0.3865 -4.3925
  161OSM    H6G18120   6.698   0.540   3.984 -1.2895  0.2694  0.2030
  161OSM    C7F18121   6.795   0.689   4.103  0.0898  0.6184 -0.0566
  161OSM    H7F18122   6.741   0.778   4.064 -2.7887 -0.1654  1.8477
  161OSM    H7G18123   6.893   0.733   4.132  2.0041 -1.4227 -2.9477
  161OSM    C8F18124   6.717   0.647   4.234 -0.0428 -0.1803 -0.1791
  161OSM    H8F18125   6.780   0.589   4.305 -0.5534  0.1252  0.5312
  161OSM    H8G18126   6.625   0.588   4.220 -0.2883  0.4725 -1.4284
  161OSM    C9F18127   6.669   0.778   4.301 -0.4423  0.6165 -0.0514
  161OSM    H9F18128   6.619   0.851   4.236  1.4620  2.7258  0.7114
  161OSM   C10F18129   6.708   0.814   4.426  0.4408 -0.5546  0.4165
  161OSM   H10F18130   6.671   0.913   4.458  0.1634 -0.9208  1.2364
  161OSM   C11F18131   6.793   0.731   4.528 -0.7758  0.2704 -0.0334
  161OSM   H11F18132   6.867   0.795   4.580  0.3302 -0.5251 -0.5782
  161OSM   H11G18133   6.862   0.663   4.473  0.0451  0.7662  0.3628
  161OSM   C12F18134   6.701   0.655   4.631  0.2186  0.5066  0.5373
  161OSM   H12F18135   6.762   0.612   4.714  0.4961  0.8089  0.4926
  161OSM   H12G18136   6.639   0.579   4.579 -0.7546  0.9201  1.0588
  161OSM   C13F18137   6.601   0.749   4.703  0.0911  0.3784  0.5481
  161OSM   H13F18138   6.521   0.772   4.630  0.0947  1.5336  0.8747
  161OSM   H13G18139   6.640   0.849   4.732 -0.6165  0.5999  0.7624
  161OSM   C14F18140   6.550   0.681   4.827  0.4622  0.3882  0.5120
  161OSM   H14F18141   6.501   0.755   4.894 -0.0620  0.3583  0.1701
  161OSM   H14G18142   6.636   0.631   4.876  0.2464 -0.0582  0.4461
  161OSM   C15F18143   6.439   0.574   4.800 -0.9728 -0.1035 -1.2979
  161OSM   H15F18144   6.483   0.488   4.744 -0.8475  0.3449 -1.8999
  161OSM   H15G18145   6.359   0.620   4.739 -0.7314  1.5581 -0.4195
  161OSM   C16F18146   6.368   0.523   4.929  0.0408  0.2164  0.0027
  161OSM   H16F18147   6.273   0.481   4.890 -0.3479  1.4545 -0.4218
  161OSM   H16G18148   6.345   0.608   4.996  0.7700 -0.4578  1.1454
  161OSM   C17F18149   6.459   0.432   5.018 -0.0455 -0.1851 -0.2784
  161OSM   H17F18150   6.533   0.492   5.074  0.2603 -2.7800  2.3175
  161OSM   H17G18151   6.517   0.367   4.949  2.1176  1.7801 -0.4212
  161OSM   C18F18152   6.377   0.361   5.123 -0.5193 -0.5392  0.0016
  161OSM   H18F18153   6.287   0.313   5.078 -1.7447  1.9880 -0.4091
  161OSM   H18G18154   6.344   0.442   5.192  2.4959  0.0471  0.9238
  161OSM   H18H18155   6.431   0.280   5.177 -0.8063 -2.2653 -2.1767
  162OSM      N18156   1.379   0.711   2.498 -0.1104 -0.1789  0.7708
  162OSM    C1518157   1.248   0.686   2.438  0.1742  0.2238  0.3509
  162OSM   H15A18158   1.198   0.775   2.403 -1.5663 -0.3924  1.1346
  162OSM   H15B18159   1.180   0.656   2.516  0.6207  2.0229  1.4744
  162OSM   H15C18160   1.245   0.618   2.353  0.7883 -1.4411  1.5960
  162OSM    C1418161   1.432   0.579   2.554  0.1550 -0.3805 -0.3329
  162OSM   H14A18162   1.371   0.550   2.638  1.9174  1.5768  1.7577
  162OSM   H14B18163   1.532   0.577   2.596  0.1097  2.2855  0.0783
  162OSM   H14C18164   1.433   0.504   2.476  1.3946 -1.6841  0.8757
  162OSM    C1318165   1.478   0.766   2.402  0.9254  0.3760 -0.1487
  162OSM   H13A18166   1.570   0.772   2.459  1.5489  0.5107 -1.1351
  162OSM   H13B18167   1.452   0.864   2.367 -1.1974 -0.5842 -1.4493
  162OSM   H13C18168   1.478   0.697   2.319  1.8677 -1.0249  0.9631
  162OSM    C1218169   1.361   0.802   2.617 -0.6231  0.1538  0.6614
  162OSM   H12A18170   1.311   0.890   2.580 -1.1604  1.0916  3.4430
  162OSM   H12B18171   1.462   0.824   2.647  0.5305 -0.1274 -2.5909
  162OSM    C1118172   1.277   0.737   2.732 -0.0630 -0.4938 -0.1576
  162OSM   H11A18173   1.293   0.784   2.832 -1.3295 -3.9737  1.8602
  162OSM   H11B18174   1.298   0.629   2.750 -0.3648 -0.1581  2.7364
  162OSM      P18175   1.061   0.872   2.701 -0.0939 -0.4744 -0.7132
  162OSM    O1318176   1.087   0.949   2.572  0.1946  0.0995 -0.3618
  162OSM    O1418177   0.916   0.851   2.723 -0.3578 -0.3302 -0.3103
  162OSM    O1118178   1.131   0.946   2.817  0.4480 -0.0201 -0.5119
  162OSM    O1218179   1.143   0.737   2.693 -0.0676  0.1178 -0.1046
  162OSM    C1S18180   1.058   0.935   2.941 -0.0753 -0.6824 -1.2107
  162OSM    H1S18181   1.073   0.834   2.984 -0.9907 -1.1804 -2.0329
  162OSM    H1T18182   0.950   0.961   2.933 -0.3162 -1.4592 -0.6161
  162OSM     NF18183   1.049   1.011   3.181 -0.4667  0.5325  0.2975
  162OSM    HNF18184   0.975   1.073   3.202 -1.8176 -0.7036 -0.6562
  162OSM    C2S18185   1.111   1.040   3.049  0.6492 -0.6761  0.5010
  162OSM    H2S18186   1.222   1.037   3.056  0.8390  3.5792  3.2932
  162OSM    C3S18187   1.089   1.186   2.992 -0.4585 -0.3522 -0.2586
  162OSM    H3S18188   0.982   1.214   3.000 -0.4321 -0.6386  1.9222
  162OSM     O318189   1.139   1.197   2.861 -0.1690 -0.0960  0.4195
  162OSM    HO318190   1.149   1.105   2.835  1.2235  0.6610 -2.0343
  162OSM    C4S18191   1.163   1.285   3.085 -0.2933 -0.1379  0.3879
  162OSM    H4S18192   1.091   1.321   3.160  1.0256 -2.6518  3.0517
  162OSM    C5S18193   1.293   1.313   3.097  0.0554 -0.2303  0.4529
  162OSM    H5S18194   1.362   1.263   3.028  1.3863 -1.4189  2.5534
  162OSM    C6S18195   1.353   1.422   3.184 -0.1722 -0.0399  0.0838
  162OSM    H6S18196   1.405   1.501   3.125 -2.0442  1.1813 -0.0168
  162OSM    H6T18197   1.438   1.376   3.239  0.1982 -1.3018 -1.4796
  162OSM    C7S18198   1.272   1.503   3.283  0.3502  0.5580  0.1390
  162OSM    H7S18199   1.175   1.536   3.241  0.0998  1.3291  1.2765
  162OSM    H7T18200   1.325   1.599   3.300  0.7321  0.6007 -1.1279
  162OSM    C8S18201   1.229   1.429   3.409 -0.8394  0.9012 -0.3999
  162OSM    H8S18202   1.306   1.369   3.463 -3.2662 -1.2797  0.8263
  162OSM    H8T18203   1.144   1.359   3.395 -1.1168  1.4456 -1.5046
  162OSM    C9S18204   1.210   1.539   3.517  0.8441  0.3912  0.4495
  162OSM    H9S18205   1.137   1.612   3.476  0.1010 -0.2678  0.5837
  162OSM    H9T18206   1.303   1.600   3.527  0.5796  1.0198 -0.7832
  162OSM   C10S18207   1.168   1.468   3.651 -0.2249 -0.3170  0.2274
  162OSM   H10S18208   1.243   1.395   3.689  2.1528  1.5706 -0.5521
  162OSM   H10T18209   1.073   1.416   3.625 -0.7305  1.1177 -0.9189
  162OSM   C11S18210   1.142   1.570   3.761  0.0425 -0.4266 -0.3415
  162OSM   H11S18211   1.083   1.657   3.725 -0.4388 -0.4302  0.4028
  162OSM   H11T18212   1.241   1.598   3.801  1.8273 -5.1863 -0.7538
  162OSM   C12S18213   1.074   1.509   3.881  0.4766  0.9992 -0.1567
  162OSM   H12S18214   1.129   1.419   3.915  0.2288  1.0259  0.3154
  162OSM   H12T18215   0.969   1.493   3.849  0.3352  0.6860  0.4437
  162OSM   C13S18216   1.057   1.586   4.023  0.0190 -0.0936  0.1816
  162OSM   H13S18217   1.016   1.689   4.012  1.9530  0.9404  1.9476
  162OSM   H13T18218   1.162   1.589   4.059  0.0114 -2.0306  0.4370
  162OSM   C14S18219   0.980   1.517   4.134 -0.5102  0.3561  0.6669
  162OSM   H14S18220   1.006   1.409   4.134 -1.1724  0.1946  0.8343
  162OSM   H14T18221   0.874   1.516   4.100 -0.3456 -0.3988  0.1476
  162OSM   C15S18222   0.992   1.596   4.262 -0.0206  0.4153  0.1241
  162OSM   H15S18223   0.981   1.704   4.236 -1.0730  0.2544 -0.1412
  162OSM   H15T18224   1.096   1.582   4.299  0.8442  0.0024 -2.3064
  162OSM   C16S18225   0.895   1.552   4.368  0.8283 -0.1694 -0.2797
  162OSM   H16S18226   0.914   1.452   4.412 -2.3609  0.2995  2.5546
  162OSM   H16T18227   0.797   1.549   4.316  1.1413 -1.2778 -0.8454
  162OSM   C17S18228   0.878   1.650   4.489 -0.5232 -0.0211  0.1418
  162OSM   H17S18229   0.872   1.756   4.456 -1.5385 -0.2698 -0.5132
  162OSM   H17T18230   0.974   1.638   4.543  0.1201  2.2326 -0.3934
  162OSM   C18S18231   0.752   1.618   4.578 -0.4651 -0.8038  0.3925
  162OSM   H18S18232   0.751   1.696   4.657  1.4586  1.4818 -1.6695
  162OSM   H18T18233   0.764   1.522   4.632  1.6556 -0.8001  0.0378
  162OSM   H18U18234   0.652   1.616   4.529  0.8222 -0.7728 -2.4371
  162OSM    C1F18235   1.081   0.914   3.262 -0.2825  0.0811 -0.9284
  162OSM     OF18236   1.147   0.821   3.221  0.3315 -0.5280 -0.1949
  162OSM    C2F18237   1.020   0.913   3.398  0.0410  0.6792 -0.5776
  162OSM    H2F18238   0.957   0.822   3.403 -1.8959  1.9696  0.0817
  162OSM    H2G18239   0.958   1.004   3.415 -0.0926  0.3816  0.6230
  162OSM    C3F18240   1.120   0.905   3.513 -0.5773  0.6566 -0.2012
  162OSM    H3F18241   1.192   0.820   3.511 -0.3541  0.8661 -1.4197
  162OSM    H3G18242   1.062   0.896   3.608 -0.9145 -2.1723 -0.5768
  162OSM    C4F18243   1.206   1.033   3.520  0.1005 -0.0836 -0.7932
  162OSM    H4F18244   1.159   1.132   3.539 -0.6010 -0.3369 -1.1638
  162OSM    H4G18245   1.261   1.059   3.427  2.2436  1.1954  0.7405
  162OSM    C5F18246   1.303   1.026   3.639 -0.6672  0.1683 -0.0616
  162OSM    H5F18247   1.378   1.107   3.626 -0.0706 -0.2497  0.6937
  162OSM    H5G18248   1.359   0.930   3.642  1.2985  1.2826  0.5795
  162OSM    C6F18249   1.231   1.054   3.772 -0.4736 -0.2167  0.1788
  162OSM    H6F18250   1.150   0.985   3.804  0.1946 -1.0328  0.1519
  162OSM    H6G18251   1.195   1.158   3.759  0.6236  0.0090 -1.3430
  162OSM    C7F18252   1.340   1.060   3.885 -0.0953  0.2669 -0.1734
  162OSM    H7F18253   1.412   1.141   3.860 -1.2949  0.9597 -1.5277
  162OSM    H7G18254   1.378   0.956   3.896 -2.3911 -0.5219  1.1252
  162OSM    C8F18255   1.277   1.111   4.019 -0.6530  0.1864  0.5164
  162OSM    H8F18256   1.241   1.211   3.988  1.7170  0.7959 -0.4973
  162OSM    H8G18257   1.360   1.142   4.086  1.2698  0.1639 -1.7116
  162OSM    C9F18258   1.191   1.008   4.081  0.3430 -0.7831  0.0432
  162OSM    H9F18259   1.163   0.917   4.025  2.0167 -0.9005 -0.6541
  162OSM   C10F18260   1.136   1.009   4.209 -0.0673 -0.0911 -0.2910
  162OSM   H10F18261   1.067   0.928   4.237 -0.1445 -0.3527 -1.1986
  162OSM   C11F18262   1.154   1.116   4.308 -0.7513 -0.4267  0.1077
  162OSM   H11F18263   1.057   1.130   4.361 -0.6369  0.3461  0.1233
  162OSM   H11G18264   1.178   1.214   4.262 -0.5064  0.6024  2.3087
  162OSM   C12F18265   1.270   1.071   4.400 -0.3714 -0.5998 -0.3234
  162OSM   H12F18266   1.299   1.151   4.471  0.3067  0.0691 -1.3218
  162OSM   H12G18267   1.361   1.047   4.341  1.4807  0.1895  2.0582
  162OSM   C13F18268   1.251   0.939   4.478 -0.1755 -0.4706 -0.0086
  162OSM   H13F18269   1.220   0.856   4.410 -1.4934  0.5104 -0.6376
  162OSM   H13G18270   1.171   0.949   4.554  2.6518  0.1775  3.0924
  162OSM   C14F18271   1.381   0.899   4.556  0.0152  0.2201 -0.1102
  162OSM   H14F18272   1.420   0.987   4.611  1.4951 -1.6070  1.9196
  162OSM   H14G18273   1.456   0.873   4.478 -0.8194  1.2779 -1.3178
  162OSM   C15F18274   1.370   0.773   4.646  0.1317  0.8414 -0.7696
  162OSM   H15F18275   1.291   0.778   4.724  0.6207  3.2331 -0.3302
  162OSM   H15G18276   1.465   0.766   4.702 -0.1612  1.7868 -0.1264
  162OSM   C16F18277   1.353   0.647   4.557 -0.0022 -0.2351 -0.8976
  162OSM   H16F18278   1.449   0.638   4.502  1.3970 -0.0024  1.3559
  162OSM   H16G18279   1.253   0.648   4.508 -0.8605  1.2109  0.7207
  162OSM   C17F18280   1.344   0.522   4.643 -0.5697  0.1907  0.3937
  162OSM   H17F18281   1.321   0.439   4.573 -0.9649  0.4023  0.2729
  162OSM   H17G18282   1.257   0.525   4.712 -0.4290  2.5257  0.5385
  162OSM   C18F18283   1.473   0.484   4.717 -0.3785  0.2659  0.5403
  162OSM   H18F18284   1.543   0.447   4.639 -0.9737 -1.1439  0.6310
  162OSM   H18G18285   1.453   0.401   4.788 -2.3061  0.0605 -0.1894
  162OSM   H18H18286   1.524   0.572   4.761  1.5046 -0.8555  0.7344
  163OSM      N18287   6.893   1.391   2.749  0.9122 -0.3060  0.0604
  163OSM    C1518288   6.918   1.244   2.777 -0.4807  0.1278 -0.1377
  163OSM   H15A18289   6.965   1.234   2.874 -1.3279  1.1895  0.4008
  163OSM   H15B18290   6.970   1.187   2.701  2.2385 -0.4197  1.9688
  163OSM   H15C18291   6.825   1.191   2.793 -0.5895 -0.0245 -1.2337
  163OSM    C1418292   6.768   1.410   2.666 -0.5995  0.3311  0.4819
  163OSM   H14A18293   6.743   1.515   2.664 -0.3545  0.3819 -1.0643
  163OSM   H14B18294   6.682   1.357   2.703  0.0326  0.1367  1.7044
  163OSM   H14C18295   6.780   1.382   2.562 -1.1621  1.2910  0.1371
  163OSM    C1318296   6.881   1.479   2.873  0.0940 -0.2302  0.1583
  163OSM   H13A18297   6.792   1.456   2.930 -0.9159  2.6903 -0.0385
  163OSM   H13B18298   6.862   1.582   2.846  1.1514 -0.2026 -0.5387
  163OSM   H13C18299   6.965   1.475   2.940  0.1530  1.4177  0.2197
  163OSM    C1218300   7.014   1.441   2.667  0.2708  0.3080  0.2607
  163OSM   H12A18301   7.021   1.374   2.582  3.4597 -0.5443  1.0780
  163OSM   H12B18302   7.103   1.429   2.725  0.6064 -1.2429 -0.5206
  163OSM    C1118303   7.000   1.582   2.603  0.5261  0.1332  0.2841
  163OSM   H11A18304   6.911   1.575   2.537  1.5053 -1.9357 -0.8966
  163OSM   H11B18305   7.095   1.601   2.548  1.6949  2.4736  2.8114
  163OSM      P18306   6.910   1.804   2.679 -0.3093 -0.2400  0.1187
  163OSM    O1318307   6.911   1.838   2.535  0.1205 -0.3059  0.1535
  163OSM    O1418308   6.771   1.780   2.735 -0.3032 -0.4110  1.2150
  163OSM    O1118309   6.986   1.914   2.754  0.1374 -0.1805 -0.3347
  163OSM    O1218310   6.995   1.678   2.708  0.2774  0.1254  0.5413
  163OSM    C1S18311   7.114   1.973   2.716 -0.1606  0.8963 -0.5078
  163OSM    H1S18312   7.091   2.055   2.645  0.5676  0.2810 -1.4677
  163OSM    H1T18313   7.176   1.908   2.651 -0.7844  2.0931 -2.3828
  163OSM     NF18314   7.327   2.081   2.791  0.2551  0.8783  0.3112
  163OSM    HNF18315   7.401   2.016   2.805 -0.7963 -0.2332  0.9553
  163OSM    C2S18316   7.202   2.027   2.838  1.0655  0.2916  0.3765
  163OSM    H2S18317   7.146   2.110   2.887  0.8119  0.2549  0.1554
  163OSM    C3S18318   7.219   1.925   2.951 -0.0230  0.3018  0.2623
  163OSM    H3S18319   7.296   1.850   2.923 -0.1818 -0.0363  0.7267
  163OSM     O318320   7.109   1.840   2.979  0.5797 -0.0947  0.0667
  163OSM    HO318321   7.039   1.864   2.917 -0.0801  1.8872  1.4597
  163OSM    C4S18322   7.274   1.984   3.081  0.2748 -0.1018  0.4057
  163OSM    H4S18323   7.378   1.952   3.098  0.1772 -2.5811 -2.7713
  163OSM    C5S18324   7.206   2.063   3.168 -0.0489  0.0151 -0.1243
  163OSM    H5S18325   7.105   2.094   3.137 -1.2600  0.8795  4.0434
  163OSM    C6S18326   7.257   2.111   3.303  0.5432 -0.0750 -0.9731
  163OSM    H6S18327   7.172   2.135   3.371  0.4674  0.5565 -1.2851
  163OSM    H6T18328   7.305   2.211   3.294 -2.2559  1.5107  0.2709
  163OSM    C7S18329   7.345   2.018   3.377 -0.3826 -0.0357  0.0306
  163OSM    H7S18330   7.447   2.027   3.335 -0.2239 -0.3575  0.3397
  163OSM    H7T18331   7.324   1.909   3.366  0.0841 -0.1451  0.2265
  163OSM    C8S18332   7.379   2.052   3.525 -0.2825  0.0635  0.0490
  163OSM    H8S18333   7.425   2.153   3.534  2.7052 -0.8458 -3.0269
  163OSM    H8T18334   7.460   1.981   3.554 -0.5359 -0.7027 -1.0452
  163OSM    C9S18335   7.261   2.047   3.623  0.2166  0.3213  0.6323
  163OSM    H9S18336   7.227   1.941   3.620  1.8674 -0.2728  1.5307
  163OSM    H9T18337   7.176   2.113   3.595  0.8824  0.9379  0.0378
  163OSM   C10S18338   7.298   2.085   3.764  0.4876 -0.3588  0.2234
  163OSM   H10S18339   7.333   2.189   3.779  0.1444 -0.4658  1.9678
  163OSM   H10T18340   7.385   2.029   3.804  0.4334 -0.2950  0.4332
  163OSM   C11S18341   7.195   2.051   3.868 -0.2696 -0.3076 -0.6003
  163OSM   H11S18342   7.155   1.955   3.831  3.5601 -1.6292 -1.7456
  163OSM   H11T18343   7.107   2.119   3.862  0.5704  0.9013  0.1135
  163OSM   C12S18344   7.250   2.037   4.014 -1.0800  0.6028  0.3274
  163OSM   H12S18345   7.286   2.138   4.045 -0.2513  1.0583 -1.9012
  163OSM   H12T18346   7.334   1.966   4.023 -1.2582  0.5018  1.2544
  163OSM   C13S18347   7.147   1.992   4.111 -0.2555 -0.2940  0.5218
  163OSM   H13S18348   7.105   1.891   4.090  0.6218 -0.8997  1.5988
  163OSM   H13T18349   7.056   2.055   4.101 -1.6528 -2.0894  1.2458
  163OSM   C14S18350   7.205   1.993   4.258 -0.2988 -0.1385 -0.0382
  163OSM   H14S18351   7.247   2.094   4.277 -2.0887  0.7399 -0.5310
  163OSM   H14T18352   7.286   1.918   4.271  0.2092  0.6548  1.6556
  163OSM   C15S18353   7.100   1.972   4.371  0.0234 -0.6002  0.1378
  163OSM   H15S18354   7.063   1.868   4.380  1.0189 -0.8570  1.3967
  163OSM   H15T18355   7.020   2.047   4.352  1.1738  0.3439 -1.1919
  163OSM   C16S18356   7.150   2.014   4.507  0.1903  0.1162 -0.2400
  163OSM   H16S18357   7.209   2.108   4.506  0.6478 -0.1475  0.5022
  163OSM   H16T18358   7.230   1.941   4.533  1.0601  0.5850 -1.4704
  163OSM   C17S18359   7.048   1.999   4.622 -0.2968 -0.0564  0.1377
  163OSM   H17S18360   6.989   1.905   4.619 -1.1015  0.3501  1.9977
  163OSM   H17T18361   6.975   2.082   4.612 -0.2572 -0.2203 -2.0064
  163OSM   C18S18362   7.110   2.019   4.761 -0.2442 -0.2237 -0.1724
  163OSM   H18S18363   7.201   1.956   4.752  0.8603  1.2284  0.4193
  163OSM   H18T18364   7.044   1.987   4.844  1.0724 -1.4108  0.4590
  163OSM   H18U18365   7.143   2.124   4.776  0.1021 -0.4190  0.4764
  163OSM    C1F18366   7.347   2.184   2.716 -0.0603  0.2307  0.0452
  163OSM     OF18367   7.264   2.272   2.696  0.2230  0.2618  0.0305
  163OSM    C2F18368   7.484   2.204   2.655  0.2455  0.3248  0.2110
  163OSM    H2F18369   7.470   2.239   2.551 -2.4972 -1.6058 -0.1807
  163OSM    H2G18370   7.550   2.115   2.647  2.5793  2.1114 -1.9800
  163OSM    C3F18371   7.571   2.315   2.728 -0.7152 -0.3831 -0.0047
  163OSM    H3F18372   7.507   2.405   2.715 -1.4129 -1.1501 -2.3257
  163OSM    H3G18373   7.662   2.328   2.667 -1.2521  2.5066 -0.3393
  163OSM    C4F18374   7.600   2.289   2.879  0.5481 -0.2042 -1.0757
  163OSM    H4F18375   7.502   2.308   2.928  0.5345  0.3935 -1.3239
  163OSM    H4G18376   7.676   2.361   2.918  0.7556 -0.4099 -1.0949
  163OSM    C5F18377   7.662   2.156   2.914  0.4681 -0.2593 -0.2892
  163OSM    H5F18378   7.769   2.153   2.884  1.5545 -0.3134  3.1881
  163OSM    H5G18379   7.611   2.066   2.871  2.0390 -2.8791  2.8830
  163OSM    C6F18380   7.650   2.135   3.064  0.1721 -0.2709 -0.7022
  163OSM    H6F18381   7.663   2.029   3.095  0.0523 -0.6383 -1.8571
  163OSM    H6G18382   7.550   2.154   3.109 -0.0907 -0.9583 -0.9939
  163OSM    C7F18383   7.746   2.226   3.145  1.0902  0.0720 -0.5102
  163OSM    H7F18384   7.708   2.329   3.162  0.6476 -0.2302  0.4042
  163OSM    H7G18385   7.840   2.244   3.089  1.1084  1.9059  0.0275
  163OSM    C8F18386   7.789   2.176   3.282 -0.5398  0.0804 -0.0508
  163OSM    H8F18387   7.825   2.073   3.261  1.3584  0.4498  1.2252
  163OSM    H8G18388   7.694   2.173   3.340 -0.5349  1.6365  0.0950
  163OSM    C9F18389   7.891   2.269   3.344  0.5867  0.7940  0.5754
  163OSM    H9F18390   7.983   2.278   3.285  0.7988 -0.1278  0.7423
  163OSM   C10F18391   7.884   2.329   3.462 -0.2195 -1.3804 -0.0755
  163OSM   H10F18392   7.967   2.393   3.495 -0.8852  0.5188 -1.8653
  163OSM   C11F18393   7.773   2.337   3.566 -0.7316  0.0855  0.5528
  163OSM   H11F18394   7.677   2.327   3.511 -0.3123  1.2932 -0.4411
  163OSM   H11G18395   7.781   2.440   3.607  0.6669 -0.3773  1.5431
  163OSM   C12F18396   7.787   2.236   3.686  0.4595 -0.5531  0.0944
  163OSM   H12F18397   7.867   2.284   3.745 -1.0828 -1.0800  2.7649
  163OSM   H12G18398   7.832   2.139   3.657  1.7980  0.3289 -0.8832
  163OSM   C13F18399   7.660   2.234   3.783  0.1831 -0.9376  0.5157
  163OSM   H13F18400   7.689   2.172   3.871  1.2494 -0.8353  0.2463
  163OSM   H13G18401   7.577   2.177   3.736 -1.2628 -0.7751  2.7548
  163OSM   C14F18402   7.609   2.376   3.825  0.1090  0.0693 -0.3099
  163OSM   H14F18403   7.533   2.356   3.904 -0.1588 -1.9324 -1.0137
  163OSM   H14G18404   7.567   2.419   3.732 -1.9951  0.6931  0.8417
  163OSM   C15F18405   7.713   2.466   3.890 -0.4189 -0.1914  0.0555
  163OSM   H15F18406   7.799   2.455   3.821  1.0128 -3.6696  2.1150
  163OSM   H15G18407   7.751   2.423   3.985 -1.5627 -0.2851  0.4851
  163OSM   C16F18408   7.672   2.608   3.924 -0.1837  0.0744  1.0010
  163OSM   H16F18409   7.652   2.652   3.824  3.0392 -0.6911 -0.0959
  163OSM   H16G18410   7.758   2.658   3.972  0.7707  1.0109 -1.5117
  163OSM   C17F18411   7.540   2.620   3.997  0.2600 -0.0355  0.4501
  163OSM   H17F18412   7.544   2.544   4.079 -1.4517  1.3523  1.9141
  163OSM   H17G18413   7.455   2.599   3.928 -1.0613  3.0375  0.9679
  163OSM   C18F18414   7.521   2.762   4.047 -0.1916 -0.1410 -0.2444
  163OSM   H18F18415   7.615   2.803   4.090 -0.5914  0.9258 -0.3591
  163OSM   H18G18416   7.442   2.762   4.126  2.6305 -2.6739  2.9161
  163OSM   H18H18417   7.511   2.833   3.963  0.7534 -0.9565 -1.0797
  164OSM      N18418   2.340   1.377   2.779 -0.5366  0.1965  0.3517
  164OSM    C1518419   2.284   1.493   2.703 -0.2236  0.6314  1.0173
  164OSM   H15A18420   2.346   1.516   2.617 -0.9062 -0.9751  0.0505
  164OSM   H15B18421   2.279   1.579   2.768 -1.3356  0.6759  0.8883
  164OSM   H15C18422   2.185   1.473   2.664  0.4075  1.7431 -1.3489
  164OSM    C1418423   2.374   1.263   2.697 -0.5808 -0.3339 -0.1366
  164OSM   H14A18424   2.455   1.300   2.637  0.5504  1.6965  2.4175
  164OSM   H14B18425   2.287   1.245   2.636 -1.4713  4.4462 -0.6780
  164OSM   H14C18426   2.412   1.181   2.756  1.5409  1.3444  0.9932
  164OSM    C1318427   2.446   1.436   2.857  0.0966 -0.2642 -0.4996
  164OSM   H13A18428   2.406   1.476   2.949 -2.0117 -1.8600 -0.6491
  164OSM   H13B18429   2.512   1.507   2.810  0.1808  0.3853  0.5796
  164OSM   H13C18430   2.514   1.356   2.880  0.0956 -0.5849 -1.5406
  164OSM    C1218431   2.238   1.325   2.886  0.3799 -1.0901  0.4893
  164OSM   H12A18432   2.152   1.294   2.829 -0.3764 -0.2228  1.1206
  164OSM   H12B18433   2.187   1.407   2.936 -1.1613 -2.9705  2.1598
  164OSM    C1118434   2.279   1.210   2.982  0.0090  0.2270 -0.4151
  164OSM   H11A18435   2.337   1.129   2.932  0.0674  0.5900 -0.9335
  164OSM   H11B18436   2.178   1.169   3.005  0.9869 -1.8440  0.4627
  164OSM      P18437   2.477   1.194   3.142  0.0218  0.0504  0.1589
  164OSM    O1318438   2.447   1.060   3.193  0.1152 -0.2243  0.0341
  164OSM    O1418439   2.570   1.194   3.025 -0.2042 -0.1335 -0.4070
  164OSM    O1118440   2.539   1.288   3.250 -0.2258 -0.3980  0.3046
  164OSM    O1218441   2.343   1.259   3.097 -0.2654 -0.1602  0.4554
  164OSM    C1S18442   2.531   1.429   3.230  0.5408  0.2561 -0.4375
  164OSM    H1S18443   2.427   1.465   3.213 -0.4128 -1.0423  2.0602
  164OSM    H1T18444   2.599   1.455   3.147 -0.4920 -1.9629 -2.0921
  164OSM     NF18445   2.528   1.619   3.389  0.5152 -0.3343  0.5785
  164OSM    HNF18446   2.595   1.683   3.354  1.1194  0.5594  3.1798
  164OSM    C2S18447   2.569   1.486   3.376 -0.3063 -0.4523  0.3558
  164OSM    H2S18448   2.509   1.425   3.446 -1.3384  0.1174 -0.0130
  164OSM    C3S18449   2.716   1.467   3.414 -0.4881 -0.4562 -0.0984
  164OSM    H3S18450   2.786   1.522   3.348  0.8509 -3.2675 -1.1829
  164OSM     O318451   2.760   1.337   3.391 -0.5343  0.2716  0.2785
  164OSM    HO318452   2.678   1.304   3.353 -1.5986  1.6209  1.3046
  164OSM    C4S18453   2.747   1.500   3.553  0.5758 -0.5362 -0.1817
  164OSM    H4S18454   2.757   1.607   3.574  0.2703 -0.3146 -1.1017
  164OSM    C5S18455   2.758   1.420   3.656  0.2586  0.3076  0.0072
  164OSM    H5S18456   2.753   1.311   3.643  0.3795  0.6176 -3.3867
  164OSM    C6S18457   2.787   1.475   3.797  0.6756 -0.0978  0.4637
  164OSM    H6S18458   2.690   1.455   3.848 -0.3874 -1.2531 -1.8319
  164OSM    H6T18459   2.804   1.584   3.799  2.4566 -0.2974 -1.1033
  164OSM    C7S18460   2.906   1.402   3.860  0.2311  0.2252  0.3121
  164OSM    H7S18461   2.992   1.436   3.798 -1.0904  2.3264 -0.5103
  164OSM    H7T18462   2.905   1.291   3.860 -0.7579  0.2210  0.0910
  164OSM    C8S18463   2.939   1.448   4.005  0.2112 -0.0335  0.1185
  164OSM    H8S18464   2.972   1.554   4.009 -0.3869  0.1318  0.9893
  164OSM    H8T18465   3.027   1.391   4.040  1.3384  0.9250 -1.0516
  164OSM    C9S18466   2.822   1.425   4.100  0.2529 -0.0001 -0.2764
  164OSM    H9S18467   2.781   1.324   4.077  0.5709  0.3024 -2.3235
  164OSM    H9T18468   2.746   1.501   4.072 -0.6583 -0.6359  0.3812
  164OSM   C10S18469   2.851   1.455   4.244 -0.6236 -0.1585  0.1326
  164OSM   H10S18470   2.850   1.566   4.248 -0.9161 -0.1658  0.2674
  164OSM   H10T18471   2.954   1.436   4.281 -1.0700 -1.3677  0.8030
  164OSM   C11S18472   2.758   1.390   4.352 -0.5922 -0.2540  0.1952
  164OSM   H11S18473   2.814   1.409   4.446  2.4754  0.1809 -1.5761
  164OSM   H11T18474   2.756   1.280   4.338 -2.4185 -0.1019 -1.3186
  164OSM   C12S18475   2.614   1.449   4.357  0.2310  0.2419  0.1916
  164OSM   H12S18476   2.548   1.404   4.280 -1.2398  2.0830  0.3041
  164OSM   H12T18477   2.623   1.557   4.331  2.8374 -0.4479 -2.3945
  164OSM   C13S18478   2.551   1.432   4.499  0.1020 -0.4151 -0.6727
  164OSM   H13S18479   2.574   1.326   4.524  0.3163 -0.8424 -2.5103
  164OSM   H13T18480   2.442   1.450   4.492  0.1626  0.4749  0.5270
  164OSM   C14S18481   2.605   1.528   4.608  0.5476 -0.4366 -0.0829
  164OSM   H14S18482   2.589   1.631   4.571  0.1002 -0.1768  0.8143
  164OSM   H14T18483   2.716   1.520   4.614  0.5852  0.2195  0.1317
  164OSM   C15S18484   2.540   1.512   4.751  0.0005  0.1241  0.1542
  164OSM   H15S18485   2.534   1.402   4.765  0.9804  0.0636  0.1928
  164OSM   H15T18486   2.439   1.555   4.770 -0.1226  0.3628 -0.9382
  164OSM   C16S18487   2.631   1.575   4.856 -0.1963  0.1926  0.0457
  164OSM   H16S18488   2.642   1.680   4.824 -0.5133 -0.1814 -1.3849
  164OSM   H16T18489   2.730   1.527   4.865 -0.0526  0.7418  1.7108
  164OSM   C17S18490   2.579   1.568   4.998 -0.1223  1.1266 -0.0717
  164OSM   H17S18491   2.572   1.459   5.020 -0.0955  1.1908  0.2520
  164OSM   H17T18492   2.475   1.607   5.006  0.4680  2.5002  1.2128
  164OSM   C18S18493   2.667   1.645   5.094  0.1263 -0.0638  0.3218
  164OSM   H18S18494   2.774   1.657   5.070  0.5793 -0.8184  1.8224
  164OSM   H18T18495   2.651   1.607   5.198 -2.0488 -3.0686 -0.9570
  164OSM   H18U18496   2.629   1.749   5.101 -0.4140 -0.3323  1.9001
  164OSM    C1F18497   2.397   1.653   3.407  0.5911  0.6760  0.3870
  164OSM     OF18498   2.316   1.570   3.442  0.5199  0.0940 -0.4856
  164OSM    C2F18499   2.356   1.795   3.384  0.6182 -0.2151 -1.0441
  164OSM    H2F18500   2.395   1.814   3.282  0.2501  1.3042 -0.9233
  164OSM    H2G18501   2.410   1.862   3.454 -2.1339  3.0650 -1.8078
  164OSM    C3F18502   2.207   1.823   3.392 -0.4077 -0.3835  0.3264
  164OSM    H3F18503   2.164   1.769   3.479  0.6010  1.1284  1.8130
  164OSM    H3G18504   2.158   1.782   3.300 -0.6705 -1.2608  0.8424
  164OSM    C4F18505   2.172   1.970   3.416  0.2575 -0.0076  0.2414
  164OSM    H4F18506   2.063   1.987   3.408  0.2946 -0.2373 -0.8046
  164OSM    H4G18507   2.211   2.030   3.331 -2.1803 -1.2185 -1.8644
  164OSM    C5F18508   2.226   2.051   3.538 -0.0391 -0.1640  0.0669
  164OSM    H5F18509   2.192   2.155   3.518  0.2761 -0.1220 -0.2538
  164OSM    H5G18510   2.336   2.038   3.527 -0.0761 -1.6533  1.0820
  164OSM    C6F18511   2.182   2.003   3.679 -0.1753 -0.7354 -0.0717
  164OSM    H6F18512   2.214   1.896   3.676 -0.4141 -0.8609  1.2096
  164OSM    H6G18513   2.073   1.993   3.699 -0.1319 -0.1191  0.5149
  164OSM    C7F18514   2.248   2.096   3.785  0.0786 -0.4644 -0.4370
  164OSM    H7F18515   2.200   2.196   3.793  0.1984 -0.4267 -0.1908
  164OSM    H7G18516   2.354   2.108   3.754  0.4151 -2.5605 -0.2603
  164OSM    C8F18517   2.251   2.030   3.923  0.1437 -0.0655 -0.0859
  164OSM    H8F18518   2.311   1.937   3.921  1.1877  0.5623  0.9153
  164OSM    H8G18519   2.147   2.004   3.953 -0.5127  2.5290  0.1839
  164OSM    C9F18520   2.314   2.115   4.034  0.3800  0.1873 -1.0738
  164OSM    H9F18521   2.306   2.224   4.022 -1.1706  0.6622  2.8331
  164OSM   C10F18522   2.358   2.066   4.152 -0.1297  0.2652 -0.0915
  164OSM   H10F18523   2.376   2.150   4.221 -3.7489  0.8176  0.3695
  164OSM   C11F18524   2.346   1.926   4.205 -0.7456 -0.2448  0.2497
  164OSM   H11F18525   2.285   1.859   4.142  1.5158 -0.8524 -1.4388
  164OSM   H11G18526   2.295   1.928   4.304  2.4435  0.3637  2.0663
  164OSM   C12F18527   2.485   1.862   4.207 -0.6789 -0.8525  0.5971
  164OSM   H12F18528   2.528   1.856   4.105 -0.5270  2.0763  0.4145
  164OSM   H12G18529   2.478   1.758   4.248  0.0205 -0.4449  1.7875
  164OSM   C13F18530   2.597   1.918   4.301 -0.3169 -0.2964  0.1415
  164OSM   H13F18531   2.628   2.018   4.265  0.5537 -0.8458 -0.6567
  164OSM   H13G18532   2.691   1.859   4.297 -0.4537 -0.4944 -0.1997
  164OSM   C14F18533   2.562   1.936   4.449 -0.2830  0.1553 -0.1059
  164OSM   H14F18534   2.555   1.841   4.506 -1.6111  0.7061  0.6983
  164OSM   H14G18535   2.460   1.980   4.453 -0.2476  0.1580  0.9994
  164OSM   C15F18536   2.653   2.033   4.529 -0.4513 -0.4482 -0.4010
  164OSM   H15F18537   2.636   2.126   4.471  0.7497 -1.2642 -2.1815
  164OSM   H15G18538   2.758   2.000   4.512 -0.1414  0.7911 -1.0086
  164OSM   C16F18539   2.624   2.033   4.682 -0.3003 -0.6108 -0.0301
  164OSM   H16F18540   2.634   1.926   4.711  0.5903 -0.6122 -0.2975
  164OSM   H16G18541   2.527   2.087   4.685  0.4796  0.8013  1.1874
  164OSM   C17F18542   2.735   2.106   4.760  0.2015  0.3833 -0.2527
  164OSM   H17F18543   2.747   2.206   4.712  3.4153  0.3527  0.2601
  164OSM   H17G18544   2.840   2.071   4.759  1.0971  2.8461  0.8377
  164OSM   C18F18545   2.694   2.131   4.905  0.4045 -0.3207 -0.2975
  164OSM   H18F18546   2.666   2.043   4.966 -0.8861  1.0956  1.2661
  164OSM   H18G18547   2.596   2.183   4.907  0.7210  0.2704  0.2778
  164OSM   H18H18548   2.751   2.204   4.966 -0.2923  1.2551 -1.4502
  165SAPS     N18549   0.047   2.183   7.245  0.2203 -0.3728 -0.2334
  165SAPS   HN118550   0.017   2.198   7.343  0.5807  1.3361 -0.3594
  165SAPS   HN218551   0.135   2.236   7.235  1.0035 -1.7719 -1.0948
  165SAPS   HN318552  -0.024   2.217   7.176  0.0358 -2.5368 -1.1923
  165SAPS   C1218553   0.074   2.034   7.228  0.2659 -0.9107 -0.3120
  165SAPS  H12A18554   0.133   2.014   7.316 -0.2302  3.9031  1.4286
  165SAPS   C1318555  -0.052   1.945   7.236  0.8746  0.0175  0.2365
  165SAPS  O13A18556  -0.161   1.994   7.269 -0.3404  0.8976 -0.1893
  165SAPS  O13B18557  -0.033   1.822   7.223  0.2051  0.3711  0.0988
  165SAPS   C1118558   0.155   2.003   7.094  0.1310  0.2307  0.7351
  165SAPS  H11A18559   0.117   2.072   7.016  1.8423  2.5968  1.8810
  165SAPS  H11B18560   0.134   1.898   7.064  0.1730  0.3134  0.4146
  165SAPS     P18561   0.370   2.160   7.117  0.0123  0.4582 -0.0479
  165SAPS   O1318562   0.308   2.250   7.221  0.1243  0.1664  0.2769
  165SAPS   O1418563   0.517   2.128   7.129  0.3494 -0.4547 -0.7243
  165SAPS   O1218564   0.297   2.022   7.120  0.4540  0.5372  0.0190
  165SAPS   O1118565   0.336   2.213   6.973 -0.7715 -0.8722  0.4531
  165SAPS    C118566   0.394   2.162   6.854  0.3005  0.9230  0.0898
  165SAPS    HA18567   0.427   2.057   6.866  2.0004  1.3555 -0.5869
  165SAPS    HB18568   0.319   2.165   6.772 -1.9423 -4.9615  1.4392
  165SAPS    C218569   0.517   2.236   6.805 -0.4169 -0.0547  0.5873
  165SAPS    HS18570   0.591   2.210   6.885 -1.8328 -0.9112  1.6677
  165SAPS   O2118571   0.491   2.380   6.783 -0.2082 -0.8205  0.0982
  165SAPS   C2118572   0.597   2.459   6.789  0.1639  0.4298 -1.0182
  165SAPS   O2218573   0.712   2.419   6.797 -0.3638 -0.1412 -0.3681
  165SAPS   C2218574   0.563   2.607   6.806  0.4939  0.0666 -0.2789
  165SAPS   H2R18575   0.452   2.607   6.807  0.4488 -1.5434 -1.4105
  165SAPS   H2S18576   0.605   2.642   6.903 -0.0208 -2.0478  0.7532
  165SAPS    C318577   0.568   2.173   6.673  0.5043  0.2240  0.5260
  165SAPS    HX18578   0.601   2.068   6.687  0.9637  0.4782  1.4491
  165SAPS    HY18579   0.662   2.221   6.640 -0.4227  1.7922  0.0512
  165SAPS   O3118580   0.466   2.183   6.564 -0.4239 -0.5349 -0.8311
  165SAPS   C3118581   0.511   2.261   6.460  0.1751 -0.8142  0.1583
  165SAPS   O3218582   0.625   2.293   6.442  0.1196 -0.7219 -0.3497
  165SAPS   C3218583   0.389   2.268   6.361  0.3260  0.4646  0.3850
  165SAPS   H2X18584   0.410   2.328   6.270 -1.9329 -0.0430 -0.5360
  165SAPS   H2Y18585   0.311   2.334   6.405  0.5795  1.2962 -0.3747
  165SAPS   C2318586   0.606   2.698   6.686  0.3533 -0.3247  0.0243
  165SAPS   H3R18587   0.713   2.672   6.669  0.4911  0.5249 -0.5127
  165SAPS   H3S18588   0.603   2.804   6.719 -1.0277 -0.7736  1.4182
  165SAPS   C2418589   0.518   2.678   6.563  0.4665  0.5265  0.2336
  165SAPS   H4R18590   0.531   2.570   6.544 -0.0735  0.9400 -3.1623
  165SAPS   H4S18591   0.570   2.730   6.480  0.4503 -3.1318 -2.2821
  165SAPS   C2518592   0.370   2.707   6.582 -0.6090 -0.0329  0.5484
  165SAPS   H5R18593   0.324   2.702   6.682  0.0072 -0.8960  0.8009
  165SAPS   C2618594   0.286   2.696   6.479 -0.5264 -0.1519 -0.0780
  165SAPS   H6R18595   0.178   2.710   6.494 -0.4804  0.4458 -0.2855
  165SAPS   C2718596   0.325   2.657   6.342 -0.3269 -0.5684 -0.2016
  165SAPS   H7R18597   0.431   2.627   6.331 -0.3939 -1.6036  1.5150
  165SAPS   H7S18598   0.326   2.754   6.288 -0.2769 -0.2518  0.3649
  165SAPS   C2818599   0.226   2.573   6.258 -0.0169 -0.1930 -0.1195
  165SAPS   H8R18600   0.124   2.555   6.293 -0.7836 -0.8880 -2.5256
  165SAPS   C2918601   0.257   2.544   6.129 -0.2965 -0.3451 -0.7439
  165SAPS   H9R18602   0.188   2.480   6.072 -2.6449  1.8462 -0.5646
  165SAPS  C21018603   0.378   2.612   6.056  0.4942  0.9841 -0.1072
  165SAPS  H10R18604   0.471   2.605   6.117  0.6341 -0.7305 -0.4705
  165SAPS  H10S18605   0.350   2.719   6.046 -3.3761  0.0385 -0.9586
  165SAPS  C21118606   0.427   2.550   5.925 -0.5947  0.4064  0.1000
  165SAPS  H11R18607   0.451   2.444   5.941  0.8628  0.8687  1.2374
  165SAPS  C21218608   0.435   2.600   5.805 -0.1182  0.0686 -0.4941
  165SAPS  H12R18609   0.454   2.520   5.731  1.8767  0.5091 -0.5030
  165SAPS  C21318610   0.421   2.741   5.757  0.9877 -0.3475  0.0509
  165SAPS  H13R18611   0.507   2.785   5.702  0.9597  0.3840  0.5659
  165SAPS  H13S18612   0.413   2.814   5.840 -2.1589 -0.8071  0.2876
  165SAPS  C21418613   0.306   2.748   5.655  0.0298 -0.1862 -0.3053
  165SAPS  H14R18614   0.205   2.769   5.690  0.0119 -0.2632 -0.3094
  165SAPS  C21518615   0.321   2.721   5.526 -0.2598 -1.0311  0.0970
  165SAPS  H15R18616   0.234   2.726   5.458  0.1783 -1.5742 -0.5202
  165SAPS  C21618617   0.455   2.701   5.458  0.5764  0.4993 -0.0776
  165SAPS  H16R18618   0.443   2.613   5.390  0.3424  1.0730 -0.7912
  165SAPS  H16S18619   0.538   2.667   5.522  2.2296 -0.6259 -2.6356
  165SAPS  C21718620   0.497   2.819   5.374 -0.4247 -0.2314 -0.1862
  165SAPS  H17R18621   0.476   2.914   5.427  0.5711  0.9439 -1.8246
  165SAPS  H17S18622   0.450   2.822   5.274  3.2745  0.3147 -2.0783
  165SAPS  C21818623   0.644   2.797   5.338  0.2189 -0.2820 -0.1315
  165SAPS  H18R18624   0.657   2.697   5.292 -0.5596 -0.3963 -0.1202
  165SAPS  H18S18625   0.690   2.816   5.437  0.6385  1.6675 -0.6575
  165SAPS  C21918626   0.701   2.910   5.252  0.2982  0.0844 -0.0735
  165SAPS  H19R18627   0.728   2.995   5.317  0.4833  0.3842 -0.5354
  165SAPS  H19S18628   0.615   2.947   5.192 -0.0547  0.2904  0.5598
  165SAPS  C22018629   0.813   2.871   5.158 -0.4140  0.1706  0.1502
  165SAPS  H20R18630   0.901   2.848   5.222  0.3362  1.2791 -0.4620
  165SAPS  H20S18631   0.851   2.965   5.113 -2.9477  1.3227  0.2220
  165SAPS  H20T18632   0.791   2.780   5.099  1.2005 -0.6558  0.7605
  165SAPS   C3318633   0.339   2.128   6.312 -0.1016  0.7428  0.9295
  165SAPS   H3X18634   0.293   2.078   6.400 -0.7393 -1.5179 -0.6098
  165SAPS   H3Y18635   0.422   2.068   6.271 -2.7488 -2.5730 -0.0430
  165SAPS   C3418636   0.233   2.140   6.206  0.3317 -0.6692  0.0612
  165SAPS   H4X18637   0.166   2.227   6.198  2.6001  1.1774  0.0431
  165SAPS   H4Y18638   0.173   2.047   6.197  0.1603 -0.3922 -2.2937
  165SAPS   C3518639   0.305   2.147   6.070  0.5240  0.0049 -0.2293
  165SAPS   H5X18640   0.380   2.065   6.069  2.4801  1.6724 -2.0479
  165SAPS   H5Y18641   0.356   2.246   6.063 -1.3936  0.9283 -2.1814
  165SAPS   C3618642   0.201   2.134   5.950 -0.3040  0.0961 -0.0723
  165SAPS   H6X18643   0.110   2.194   5.971 -1.0767 -0.5586 -1.4251
  165SAPS   H6Y18644   0.172   2.027   5.947 -0.0302  0.0124  0.2637
  165SAPS   C3718645   0.272   2.174   5.821  0.7819  0.1363 -0.5458
  165SAPS   H7X18646   0.356   2.109   5.787 -0.8797 -2.1399 -0.5575
  165SAPS   H7Y18647   0.298   2.281   5.837 -3.0586  1.1912 -0.4468
  165SAPS   C3818648   0.160   2.180   5.708  0.7621 -0.2002  0.1990
  165SAPS   H8X18649   0.084   2.257   5.734  3.0855  1.8077  1.5702
  165SAPS   H8Y18650   0.113   2.082   5.689 -1.6644  0.3949  2.5260
  165SAPS   C3918651   0.216   2.230   5.572 -0.2577  0.0049  0.0239
  165SAPS   H9X18652   0.305   2.170   5.544  0.9524  0.6392  2.3029
  165SAPS   H9Y18653   0.251   2.335   5.581  1.4936 -0.7020  2.4858
  165SAPS  C31018654   0.119   2.208   5.460  0.6143  0.5455  0.7794
  165SAPS  H10X18655   0.041   2.284   5.481 -0.0266 -0.4340  2.1243
  165SAPS  H10Y18656   0.064   2.112   5.474  0.9886 -0.1354 -1.8841
  165SAPS  C31118657   0.169   2.220   5.315  0.6413  0.3544 -0.8533
  165SAPS  H11X18658   0.086   2.187   5.248 -1.6499 -0.7928  2.3290
  165SAPS  H11Y18659   0.242   2.137   5.295 -1.1303 -2.0717  1.9038
  165SAPS  C31218660   0.233   2.357   5.282 -0.0110  0.3448 -0.0710
  165SAPS  H12X18661   0.299   2.397   5.361  1.3491  2.0077 -1.9376
  165SAPS  H12Y18662   0.154   2.435   5.274  0.5336  0.7457 -2.8814
  165SAPS  C31318663   0.305   2.368   5.149 -0.0593  0.1770 -0.0699
  165SAPS  H13X18664   0.221   2.351   5.078  0.1483 -0.8952 -0.0817
  165SAPS  H13Y18665   0.376   2.282   5.146  0.5514  0.6873 -0.4281
  165SAPS  C31418666   0.381   2.491   5.117 -0.3271 -0.1983  0.5225
  165SAPS  H14X18667   0.465   2.507   5.187 -0.4472 -0.0061  0.6243
  165SAPS  H14Y18668   0.316   2.580   5.134 -1.2601 -0.9400  0.9119
  165SAPS  C31518669   0.434   2.499   4.974  0.0535 -0.1340 -0.0520
  165SAPS  H15X18670   0.365   2.458   4.897 -1.0055  0.6011  0.4969
  165SAPS  H15Y18671   0.526   2.437   4.970  0.7642  0.9211 -0.8478
  165SAPS  C31618672   0.469   2.637   4.927  0.1443  0.2399 -0.6234
  165SAPS  H16X18673   0.536   2.697   4.993 -0.4916 -0.3083  0.5528
  165SAPS  H16Y18674   0.372   2.692   4.919 -0.1402 -0.4987 -2.9552
  165SAPS  C31718675   0.517   2.644   4.779 -0.5930  0.2167  0.4229
  165SAPS  H17X18676   0.434   2.609   4.714  1.8484  0.7638 -3.2863
  165SAPS  H17Y18677   0.606   2.579   4.764 -0.9126 -0.2918  0.7117
  165SAPS  C31818678   0.548   2.792   4.733 -0.2609  0.0283 -0.4440
  165SAPS  H18X18679   0.614   2.840   4.808 -0.1241 -0.7040 -0.0836
  165SAPS  H18Y18680   0.452   2.848   4.726 -0.6061 -0.0497  2.2641
  165SAPS  H18Z18681   0.603   2.803   4.637 -0.6672  2.5599 -0.4566
  166SAPS     N18682   5.258   3.407   7.012  0.5831 -0.1805 -0.1067
  166SAPS   HN118683   5.158   3.404   7.040  1.3866 -2.0941  3.0504
  166SAPS   HN218684   5.268   3.409   6.909 -0.7227  1.2120 -0.2355
  166SAPS   HN318685   5.299   3.317   7.045  0.6047  0.3443  1.3777
  166SAPS   C1218686   5.326   3.517   7.092 -0.0033 -0.6390 -0.1481
  166SAPS  H12A18687   5.288   3.612   7.058 -0.1766 -0.7745 -0.3402
  166SAPS   C1318688   5.307   3.499   7.246  0.0144 -0.6353 -0.1954
  166SAPS  O13A18689   5.215   3.431   7.297  0.1516 -0.2037  0.1186
  166SAPS  O13B18690   5.366   3.582   7.314 -0.5458 -0.2958 -0.0059
  166SAPS   C1118691   5.477   3.518   7.064 -0.1740 -0.3873 -0.1927
  166SAPS  H11A18692   5.518   3.417   7.089 -0.0204 -0.7534 -1.8005
  166SAPS  H11B18693   5.532   3.583   7.134  2.5054 -0.3330 -2.1690
  166SAPS     P18694   5.597   3.667   6.887  0.0067  0.2121 -0.4925
  166SAPS   O1318695   5.515   3.792   6.893  0.1090 -0.2611 -0.0243
  166SAPS   O1418696   5.727   3.667   6.955  0.3351  0.3147  0.8451
  166SAPS   O1218697   5.508   3.542   6.926 -0.4061 -0.3215 -0.0978
  166SAPS   O1118698   5.631   3.632   6.735  0.0194 -0.2614 -0.1673
  166SAPS    C118699   5.538   3.562   6.648  0.0602 -0.2513 -0.1385
  166SAPS    HA18700   5.564   3.454   6.652 -0.3704 -0.3756 -0.6461
  166SAPS    HB18701   5.434   3.588   6.678 -0.2565 -0.0325 -1.3825
  166SAPS    C218702   5.555   3.621   6.501  0.1362 -0.2900 -0.2540
  166SAPS    HS18703   5.503   3.719   6.515  1.4198  0.3102  0.5062
  166SAPS   O2118704   5.489   3.537   6.401 -0.4857 -0.1655  0.8502
  166SAPS   C2118705   5.356   3.544   6.403  0.2005 -0.0921  0.4013
  166SAPS   O2218706   5.289   3.625   6.468 -0.1591  0.0388  0.2053
  166SAPS   C2218707   5.294   3.433   6.314 -0.0398  0.8772  0.1688
  166SAPS   H2R18708   5.351   3.430   6.219  0.2921  1.5155  0.3468
  166SAPS   H2S18709   5.314   3.336   6.366  1.2802  1.5665  1.0004
  166SAPS    C318710   5.702   3.655   6.467  0.6939  0.0054 -0.2923
  166SAPS    HX18711   5.766   3.573   6.506  1.2234  0.3109 -0.5033
  166SAPS    HY18712   5.733   3.748   6.519  0.5203  1.1528 -2.1451
  166SAPS   O3118713   5.711   3.667   6.328 -0.4662 -0.1281  0.9653
  166SAPS   C3118714   5.843   3.674   6.288  0.3820  0.3550  0.0682
  166SAPS   O3218715   5.942   3.662   6.362 -0.5797 -0.0053  0.1669
  166SAPS   C3218716   5.855   3.683   6.138 -0.3017 -0.8659  0.3857
  166SAPS   H2X18717   5.794   3.770   6.105  2.4083  1.3015  0.7205
  166SAPS   H2Y18718   5.807   3.592   6.095  3.0466 -0.6690 -4.5189
  166SAPS   C2318719   5.134   3.438   6.293  0.2736  0.3766  0.7254
  166SAPS   H3R18720   5.088   3.493   6.377 -0.1886  1.5476 -0.2711
  166SAPS   H3S18721   5.092   3.335   6.283  0.0643  0.6835 -3.3893
  166SAPS   C2418722   5.099   3.516   6.164 -0.4282  0.1494 -1.0570
  166SAPS   H4R18723   5.171   3.487   6.085 -0.2811  0.4751 -1.0459
  166SAPS   H4S18724   5.115   3.625   6.180  0.3571 -0.3279  2.1434
  166SAPS   C2518725   4.954   3.495   6.127 -0.1441 -0.0511  0.3461
  166SAPS   H5R18726   4.880   3.553   6.184 -0.3280 -0.4448  0.5097
  166SAPS   C2618727   4.913   3.432   6.017  0.9354  0.2402  0.2323
  166SAPS   H6R18728   4.804   3.420   6.005  0.8707  1.4372 -0.5413
  166SAPS   C2718729   4.993   3.368   5.907  0.6968 -0.2563 -0.4518
  166SAPS   H7R18730   4.982   3.258   5.910 -1.5394 -0.0644  0.4561
  166SAPS   H7S18731   5.103   3.383   5.913  0.8022 -0.6641 -1.2846
  166SAPS   C2818732   4.951   3.413   5.773  0.6777  0.0407  0.4843
  166SAPS   H8R18733   4.893   3.506   5.760 -0.9138 -1.2521 -2.7072
  166SAPS   C2918734   4.997   3.353   5.660 -0.3721  0.0754  0.0902
  166SAPS   H9R18735   4.974   3.404   5.565 -1.5500 -2.1897 -0.9304
  166SAPS  C21018736   5.082   3.227   5.648 -1.3378  0.0105  0.4897
  166SAPS  H10R18737   5.081   3.170   5.743 -1.9006  0.8519  1.0039
  166SAPS  H10S18738   5.187   3.255   5.624 -1.9318  0.8183 -1.3293
  166SAPS  C21118739   5.028   3.147   5.526  0.3822  1.0013  0.2201
  166SAPS  H11R18740   4.976   3.207   5.450 -1.4163 -0.7792 -0.0465
  166SAPS  C21218741   5.029   3.012   5.509 -0.8282  0.4048 -0.7283
  166SAPS  H12R18742   4.995   2.971   5.413 -0.7250 -1.4458 -0.0087
  166SAPS  C21318743   5.099   2.908   5.604  0.7610  0.0206 -0.1524
  166SAPS  H13R18744   5.099   2.936   5.712 -2.7434  0.1580 -0.0492
  166SAPS  H13S18745   5.205   2.896   5.574  0.8709  4.2564 -2.2108
  166SAPS  C21418746   5.038   2.770   5.600 -0.5718 -0.5598 -1.2253
  166SAPS  H14R18747   4.984   2.733   5.689  2.9116 -3.8803 -0.2460
  166SAPS  C21518748   5.052   2.681   5.501  0.0311  0.5476  1.0245
  166SAPS  H15R18749   5.019   2.578   5.519  0.6752  0.2086  0.3092
  166SAPS  C21618750   5.139   2.706   5.375 -0.2916  1.0035  0.4304
  166SAPS  H16R18751   5.196   2.611   5.363 -1.9377  0.1084 -0.7167
  166SAPS  H16S18752   5.208   2.792   5.386  2.4153 -0.9203 -0.4300
  166SAPS  C21718753   5.066   2.733   5.246  0.5472 -0.5142 -0.0912
  166SAPS  H17R18754   4.977   2.797   5.266 -0.8971 -2.1648 -0.9742
  166SAPS  H17S18755   5.020   2.637   5.215  2.0043 -1.2053 -0.1573
  166SAPS  C21818756   5.154   2.789   5.136  0.9946  0.0803  0.5599
  166SAPS  H18R18757   5.210   2.716   5.075  1.5919  0.2416  0.9107
  166SAPS  H18S18758   5.226   2.865   5.172  1.0541  0.9337 -1.2496
  166SAPS  C21918759   5.082   2.873   5.026  0.0801  0.2038  0.5115
  166SAPS  H19R18760   5.162   2.931   4.975  0.4134 -2.7473 -2.7015
  166SAPS  H19S18761   5.021   2.950   5.077  1.4627  1.4468  0.3441
  166SAPS  C22018762   4.995   2.795   4.934  0.0156  0.2595 -0.2322
  166SAPS  H20R18763   4.920   2.737   4.992  0.7028 -0.6388 -0.2023
  166SAPS  H20S18764   5.058   2.728   4.871  0.2983 -0.8273  1.1445
  166SAPS  H20T18765   4.938   2.869   4.873 -3.4801 -2.2540 -0.3332
  166SAPS   C3318766   5.994   3.705   6.071 -0.5712 -0.0734 -0.2036
  166SAPS   H3X18767   6.043   3.780   6.137 -0.8323 -0.8541  0.8989
  166SAPS   H3Y18768   5.982   3.740   5.967  2.5895 -0.3341 -0.7741
  166SAPS   C3418769   6.081   3.575   6.070 -0.0412  0.4547 -0.6175
  166SAPS   H4X18770   6.017   3.501   6.018 -1.4144  2.2989 -1.6539
  166SAPS   H4Y18771   6.110   3.527   6.167  0.9503  1.4331 -0.4098
  166SAPS   C3518772   6.217   3.594   5.985  0.3026 -0.5251 -0.8026
  166SAPS   H5X18773   6.283   3.655   6.050  1.7941 -1.6718 -1.2142
  166SAPS   H5Y18774   6.193   3.652   5.893 -2.4861 -0.3624 -0.0726
  166SAPS   C3618775   6.269   3.459   5.952 -0.0869 -1.2578 -0.4206
  166SAPS   H6X18776   6.184   3.389   5.932  1.3477 -2.4761 -2.7368
  166SAPS   H6Y18777   6.337   3.416   6.029  0.5281 -0.2598 -0.3953
  166SAPS   C3718778   6.341   3.464   5.818 -0.1430  0.7059 -0.6357
  166SAPS   H7X18779   6.426   3.534   5.833  1.6219 -1.7961  2.1401
  166SAPS   H7Y18780   6.270   3.523   5.756 -1.5503  1.5714  1.6517
  166SAPS   C3818781   6.378   3.329   5.755  0.6215  0.4192 -0.6595
  166SAPS   H8X18782   6.296   3.262   5.791  0.7241 -0.2693 -1.6743
  166SAPS   H8Y18783   6.465   3.288   5.810 -0.0264 -1.3175 -0.8716
  166SAPS   C3918784   6.392   3.335   5.606 -0.3963 -0.5603  0.3128
  166SAPS   H9X18785   6.299   3.382   5.566  0.3082  1.2632  0.6935
  166SAPS   H9Y18786   6.400   3.234   5.561  0.5944  0.0500 -0.9483
  166SAPS  C31018787   6.519   3.407   5.568  0.1259 -0.0797  0.0888
  166SAPS  H10X18788   6.602   3.350   5.616  0.0711 -0.2545 -0.0233
  166SAPS  H10Y18789   6.516   3.512   5.603 -2.8861 -0.2652  0.6161
  166SAPS  C31118790   6.542   3.395   5.414 -0.1990 -0.4927 -0.3022
  166SAPS  H11X18791   6.576   3.292   5.391 -0.3888 -0.2854 -1.5359
  166SAPS  H11Y18792   6.624   3.462   5.380 -0.2551 -2.6857 -5.7690
  166SAPS  C31218793   6.415   3.425   5.326 -0.3036 -0.2406 -0.4675
  166SAPS  H12X18794   6.376   3.527   5.348 -0.6445 -0.3775 -0.4210
  166SAPS  H12Y18795   6.336   3.353   5.357 -2.0331  0.8674 -2.0621
  166SAPS  C31318796   6.451   3.405   5.183  0.5154  0.0058 -0.3560
  166SAPS  H13X18797   6.356   3.399   5.125 -0.5398 -0.7026  1.3823
  166SAPS  H13Y18798   6.517   3.316   5.169  2.4465  1.1207  1.1739
  166SAPS  C31418799   6.530   3.512   5.112  0.3586  0.1072  0.9857
  166SAPS  H14X18800   6.635   3.497   5.146 -0.4619  1.0918  4.3431
  166SAPS  H14Y18801   6.501   3.609   5.159  0.3372  0.9527 -0.7152
  166SAPS  C31518802   6.503   3.526   4.962  0.5197 -0.1829 -0.1611
  166SAPS  H15X18803   6.551   3.617   4.919  1.9967 -0.7889  0.1665
  166SAPS  H15Y18804   6.395   3.552   4.953  0.6402  0.9807  1.3335
  166SAPS  C31618805   6.529   3.406   4.873  0.1162  0.3600  0.3522
  166SAPS  H16X18806   6.466   3.322   4.910  2.0685 -0.6962  1.4147
  166SAPS  H16Y18807   6.637   3.384   4.885  0.1429  0.2444 -0.0717
  166SAPS  C31718808   6.491   3.427   4.734 -0.2525 -0.7887  0.6664
  166SAPS  H17X18809   6.544   3.505   4.675  0.5929 -1.6145  0.3113
  166SAPS  H17Y18810   6.385   3.462   4.732  0.2497  0.8414 -2.1545
  166SAPS  C31818811   6.495   3.296   4.651 -0.3988  0.0698 -0.5944
  166SAPS  H18X18812   6.450   3.208   4.702  0.4796 -0.1969 -0.2601
  166SAPS  H18Y18813   6.603   3.273   4.642  0.0395  1.8850 -0.3243
  166SAPS  H18Z18814   6.451   3.307   4.549  0.6276 -2.6905 -1.4345
  167SAPS     N18815   1.304   4.862   7.084 -0.1068 -0.0790 -0.6209
  167SAPS   HN118816   1.238   4.783   7.102 -2.8605  2.0158 -0.8254
  167SAPS   HN218817   1.246   4.947   7.096  0.6137  0.4036 -0.5248
  167SAPS   HN318818   1.332   4.841   6.986  0.4947  1.2251 -0.7440
  167SAPS   C1218819   1.415   4.863   7.185 -0.6407 -0.3880 -0.3664
  167SAPS  H12A18820   1.489   4.930   7.144 -2.0032  1.9374  0.7760
  167SAPS   C1318821   1.375   4.919   7.324 -0.4620  0.2143  0.5005
  167SAPS  O13A18822   1.258   4.963   7.331  0.4242 -0.2678 -0.8084
  167SAPS  O13B18823   1.464   4.939   7.418  0.3185  0.0620 -0.1043
  167SAPS   C1118824   1.456   4.713   7.197  0.5665 -0.5306 -0.3997
  167SAPS  H11A18825   1.522   4.702   7.286 -0.8227 -1.8752  0.5280
  167SAPS  H11B18826   1.511   4.685   7.105 -0.8011 -0.4060 -1.2731
  167SAPS     P18827   1.339   4.469   7.245 -0.0464  0.1870 -0.0397
  167SAPS   O1318828   1.454   4.422   7.334  0.0838  0.2470  0.3301
  167SAPS   O1418829   1.200   4.437   7.285  0.3116 -0.1490 -0.0965
  167SAPS   O1218830   1.344   4.626   7.220  0.8530  0.0545 -0.0738
  167SAPS   O1118831   1.371   4.406   7.100 -0.8824 -0.0154 -0.4738
  167SAPS    C118832   1.330   4.468   6.972  0.2065  0.5791 -0.1627
  167SAPS    HA18833   1.220   4.470   6.960  0.1402 -0.7855  0.0248
  167SAPS    HB18834   1.359   4.575   6.970 -0.4735  0.7566 -1.2814
  167SAPS    C218835   1.390   4.372   6.858  0.3996 -0.0734 -0.2040
  167SAPS    HS18836   1.400   4.431   6.765 -0.7652  0.3338 -0.0851
  167SAPS   O2118837   1.316   4.245   6.833 -0.0523 -0.7889  0.0509
  167SAPS   C2118838   1.229   4.249   6.743 -0.7499 -0.8889 -0.4924
  167SAPS   O2218839   1.189   4.348   6.685 -0.4214  0.4847  0.1070
  167SAPS   C2218840   1.180   4.112   6.719 -0.0053  0.2319  0.2636
  167SAPS   H2R18841   1.106   4.092   6.800  0.3895 -1.1601  0.3110
  167SAPS   H2S18842   1.124   4.107   6.623  2.1257 -2.9192 -0.9582
  167SAPS    C318843   1.540   4.334   6.889  0.1087  0.6169 -0.4207
  167SAPS    HX18844   1.546   4.262   6.973  2.3096  1.4014  0.1850
  167SAPS    HY18845   1.590   4.425   6.930  2.8883 -0.5026 -1.1054
  167SAPS   O3118846   1.607   4.279   6.773  0.2567  0.2544  0.4944
  167SAPS   C3118847   1.620   4.147   6.766 -0.3769  0.4594 -0.7438
  167SAPS   O3218848   1.594   4.072   6.856 -0.0782  0.0332 -0.5571
  167SAPS   C3218849   1.695   4.106   6.644  0.5702  0.4778 -0.4575
  167SAPS   H2X18850   1.784   4.172   6.644 -0.8467  2.5376  1.9117
  167SAPS   H2Y18851   1.638   4.135   6.553  0.8252  2.7360  0.0410
  167SAPS   C2318852   1.290   4.003   6.720  0.6845  0.3261 -0.4678
  167SAPS   H3R18853   1.350   3.995   6.813  0.1366 -2.0945 -0.2720
  167SAPS   H3S18854   1.364   3.994   6.638  0.9458 -1.2640 -0.0753
  167SAPS   C2418855   1.220   3.865   6.717  0.2393 -0.6357 -0.0281
  167SAPS   H4R18856   1.151   3.857   6.804  0.7471  1.5563  0.6443
  167SAPS   H4S18857   1.303   3.792   6.728  2.2485  1.4695 -0.4035
  167SAPS   C2518858   1.149   3.841   6.583 -0.8400  0.4846 -0.1554
  167SAPS   H5R18859   1.062   3.908   6.568 -1.6532 -1.1599 -3.8893
  167SAPS   C2618860   1.186   3.755   6.488 -0.0858  0.5347  0.3567
  167SAPS   H6R18861   1.121   3.761   6.400 -2.6679  3.4160  2.2854
  167SAPS   C2718862   1.306   3.651   6.484  0.4277  0.7894  0.2523
  167SAPS   H7R18863   1.397   3.686   6.536  0.3955  1.3425 -0.0570
  167SAPS   H7S18864   1.335   3.634   6.378 -2.3059 -1.2681 -0.3074
  167SAPS   C2818865   1.263   3.524   6.559 -0.6096 -0.6849  0.5049
  167SAPS   H8R18866   1.264   3.544   6.667  2.8425  0.9115  0.2960
  167SAPS   C2918867   1.244   3.402   6.504  0.2684  1.1320  0.1440
  167SAPS   H9R18868   1.210   3.321   6.570  0.4014  0.9871  0.0365
  167SAPS  C21018869   1.246   3.358   6.359  0.0862 -0.4829 -0.1231
  167SAPS  H10R18870   1.352   3.344   6.329  0.2704  0.5636  0.0097
  167SAPS  H10S18871   1.217   3.443   6.294 -0.2301  0.0811  0.7443
  167SAPS  C21118872   1.164   3.237   6.320 -0.9996  0.2834  0.1877
  167SAPS  H11R18873   1.208   3.138   6.339  2.6343  0.7723 -3.8780
  167SAPS  C21218874   1.050   3.248   6.255  0.9540 -0.2410  0.4909
  167SAPS  H12R18875   1.006   3.156   6.213  0.3723  1.0596 -1.9126
  167SAPS  C21318876   0.978   3.374   6.201 -0.1821  0.6866 -0.8969
  167SAPS  H13R18877   0.979   3.379   6.090  1.1682 -2.0261 -1.1016
  167SAPS  H13S18878   1.022   3.465   6.246  1.5501  0.0614 -1.2576
  167SAPS  C21418879   0.837   3.368   6.257 -0.5148 -0.6494 -0.5117
  167SAPS  H14R18880   0.825   3.334   6.360 -0.4656 -1.8554 -0.8865
  167SAPS  C21518881   0.732   3.408   6.182  0.0395  0.4245  0.0362
  167SAPS  H15R18882   0.634   3.400   6.232 -0.6524 -5.3630 -1.6034
  167SAPS  C21618883   0.728   3.463   6.041  0.2952  0.3463  0.1525
  167SAPS  H16R18884   0.829   3.496   6.008  0.5074 -1.1752 -0.8295
  167SAPS  H16S18885   0.661   3.551   6.043  0.9340  0.9552 -2.0395
  167SAPS  C21718886   0.664   3.352   5.947 -0.5156 -0.2880  0.0807
  167SAPS  H17R18887   0.559   3.330   5.976 -0.4165  1.6911  2.2047
  167SAPS  H17S18888   0.719   3.255   5.959  1.4333  0.2516 -3.1628
  167SAPS  C21818889   0.671   3.395   5.798  0.7375  0.2542  0.5795
  167SAPS  H18R18890   0.614   3.488   5.777  0.2978 -0.5854 -2.4114
  167SAPS  H18S18891   0.622   3.306   5.752 -2.4431  2.4056 -0.4734
  167SAPS  C21918892   0.813   3.425   5.734 -0.8558  0.1151  0.0192
  167SAPS  H19R18893   0.841   3.519   5.786 -0.7884 -0.5970  1.3211
  167SAPS  H19S18894   0.793   3.452   5.628 -0.2049  0.5902  0.0085
  167SAPS  C22018895   0.912   3.310   5.748  0.3256  0.1765 -0.0717
  167SAPS  H20R18896   1.007   3.329   5.692 -1.0057  2.2276 -1.8020
  167SAPS  H20S18897   0.881   3.211   5.708  1.2628  0.1066 -0.6501
  167SAPS  H20T18898   0.933   3.290   5.855 -0.1597 -1.2146 -0.2216
  167SAPS   C3318899   1.732   3.958   6.640  0.5678 -0.1962  0.2714
  167SAPS   H3X18900   1.643   3.892   6.624 -0.0207  0.2779  1.4789
  167SAPS   H3Y18901   1.760   3.918   6.739 -1.0584  0.9498  1.2468
  167SAPS   C3418902   1.840   3.926   6.541  0.1271 -0.3730 -0.3970
  167SAPS   H4X18903   1.880   3.823   6.546 -0.3044 -0.5263 -0.0021
  167SAPS   H4Y18904   1.930   3.988   6.557  0.9561 -1.6984  0.2163
  167SAPS   C3518905   1.807   3.982   6.395 -0.1706 -0.0275  0.8806
  167SAPS   H5X18906   1.797   4.092   6.388 -0.8861 -0.1303  0.0754
  167SAPS   H5Y18907   1.707   3.941   6.367 -0.4143  1.5905 -0.8107
  167SAPS   C3618908   1.905   3.926   6.291 -0.4067 -0.6034 -0.7406
  167SAPS   H6X18909   1.924   3.817   6.303  3.9337 -0.1409 -1.8440
  167SAPS   H6Y18910   2.000   3.968   6.330 -0.9408 -0.0091 -0.0498
  167SAPS   C3718911   1.860   3.969   6.148 -0.1107  0.7274 -0.0882
  167SAPS   H7X18912   1.879   4.078   6.150  0.3607  0.7582 -2.6942
  167SAPS   H7Y18913   1.750   3.957   6.139 -0.4135  1.9564  1.4751
  167SAPS   C3818914   1.937   3.895   6.036 -0.6919 -0.2838 -0.3742
  167SAPS   H8X18915   1.925   3.785   6.044  0.2393 -0.4407 -0.9708
  167SAPS   H8Y18916   2.045   3.916   6.053 -1.1561  0.7069  1.7086
  167SAPS   C3918917   1.889   3.931   5.892  0.1187 -0.3374  0.3495
  167SAPS   H9X18918   1.938   3.860   5.822 -1.5506 -0.7108 -0.4957
  167SAPS   H9Y18919   1.919   4.035   5.867  0.8667  0.0538  2.6579
  167SAPS  C31018920   1.737   3.903   5.870 -0.4389 -0.1003 -0.1025
  167SAPS  H10X18921   1.672   3.987   5.899  0.9791  0.8467  0.4592
  167SAPS  H10Y18922   1.707   3.817   5.934 -1.3003  0.0345 -0.3162
  167SAPS  C31118923   1.709   3.875   5.721  0.6641  0.2768  0.9165
  167SAPS  H11X18924   1.768   3.939   5.652  1.3009 -2.1459 -0.9132
  167SAPS  H11Y18925   1.604   3.904   5.699  0.2547 -2.0531 -0.5738
  167SAPS  C31218926   1.716   3.722   5.673 -0.2155 -0.6668  0.6594
  167SAPS  H12X18927   1.638   3.662   5.724 -0.3548 -2.3628 -1.4246
  167SAPS  H12Y18928   1.817   3.685   5.698  0.5287  0.7236 -0.1914
  167SAPS  C31318929   1.673   3.696   5.527 -0.5568  0.0102 -0.2952
  167SAPS  H13X18930   1.598   3.765   5.483  0.1109  0.1640 -1.2037
  167SAPS  H13Y18931   1.618   3.599   5.529 -0.7158  0.0940 -0.6552
  167SAPS  C31418932   1.798   3.694   5.440 -0.2931  0.3622  0.4629
  167SAPS  H14X18933   1.866   3.612   5.469  1.6842  1.1965 -1.5609
  167SAPS  H14Y18934   1.846   3.793   5.459 -2.1120  1.4483 -0.3183
  167SAPS  C31518935   1.757   3.693   5.295 -1.2132  1.0062  0.1671
  167SAPS  H15X18936   1.845   3.686   5.229 -0.7564 -0.9511  0.8988
  167SAPS  H15Y18937   1.714   3.794   5.275 -1.0000  0.9001 -0.8371
  167SAPS  C31618938   1.668   3.586   5.243  1.0134  0.9606 -0.4106
  167SAPS  H16X18939   1.650   3.603   5.135 -1.2800 -2.3794 -0.7064
  167SAPS  H16Y18940   1.567   3.577   5.288 -0.8537  0.6861 -4.2404
  167SAPS  C31718941   1.732   3.444   5.259  0.2246  0.2260 -0.7284
  167SAPS  H17X18942   1.778   3.439   5.360 -0.8234 -0.5442 -0.2654
  167SAPS  H17Y18943   1.824   3.434   5.198  1.3427 -0.8391  1.0209
  167SAPS  C31818944   1.632   3.327   5.231 -0.5014 -0.3092  0.3048
  167SAPS  H18X18945   1.587   3.347   5.132 -0.0378 -0.0295  0.1483
  167SAPS  H18Y18946   1.566   3.301   5.317  1.7353 -1.1433  1.8858
  167SAPS  H18Z18947   1.692   3.233   5.223 -1.5343 -1.2906  2.9032
  168SAPS     N18948   0.058   3.687   7.012  0.5878  0.3923  0.0134
  168SAPS   HN118949   0.029   3.707   7.110  4.8501  0.2380  1.5214
  168SAPS   HN218950   0.013   3.604   6.968  1.1719  0.2118 -0.2582
  168SAPS   HN318951   0.162   3.679   7.010  0.6567  1.0510  0.6579
  168SAPS   C1218952   0.006   3.796   6.932  0.1500  0.0038 -0.6198
  168SAPS  H12A18953  -0.100   3.803   6.948  0.1438  0.9968 -1.0527
  168SAPS   C1318954   0.050   3.935   6.980 -0.3680  0.3629 -0.5317
  168SAPS  O13A18955   0.122   3.937   7.084  0.0739 -0.3423 -0.2108
  168SAPS  O13B18956  -0.016   4.033   6.929 -0.1827 -0.6001  0.1560
  168SAPS   C1118957   0.041   3.780   6.787 -0.1571  0.1682 -0.1266
  168SAPS  H11A18958   0.014   3.863   6.719  2.0843 -1.2995 -3.0625
  168SAPS  H11B18959  -0.018   3.692   6.754  1.7793 -1.5409  0.7440
  168SAPS     P18960   0.244   3.778   6.616  0.3348  0.0313 -0.2075
  168SAPS   O1318961   0.231   3.920   6.572  0.1601  0.5885 -0.3631
  168SAPS   O1418962   0.381   3.717   6.608 -0.4856  0.3415  0.1031
  168SAPS   O1218963   0.183   3.763   6.763  0.0731 -0.5296 -0.5102
  168SAPS   O1118964   0.136   3.696   6.532 -0.0870  0.0296  0.1779
  168SAPS    C118965   0.163   3.557   6.521  0.6534  1.0597  0.0315
  168SAPS    HA18966   0.264   3.521   6.495  0.1034 -1.5733  1.2541
  168SAPS    HB18967   0.129   3.500   6.610  0.0243 -0.3111 -1.0536
  168SAPS    C218968   0.060   3.495   6.426  0.5931  0.3525 -0.0965
  168SAPS    HS18969   0.079   3.385   6.422  0.9413  0.3580  0.9943
  168SAPS   O2118970   0.086   3.560   6.297  1.0674  0.5667 -0.2844
  168SAPS   C2118971   0.194   3.515   6.240  0.8767  0.6621  0.0158
  168SAPS   O2218972   0.253   3.413   6.277 -0.1942 -0.6213 -1.0668
  168SAPS   C2218973   0.229   3.606   6.129 -0.0556 -0.0245  0.4033
  168SAPS   H2R18974   0.156   3.598   6.046  0.8689 -1.2599 -0.3272
  168SAPS   H2S18975   0.223   3.712   6.162 -2.0829  0.7833 -2.2299
  168SAPS    C318976  -0.093   3.517   6.474  0.5515  0.2593  0.0896
  168SAPS    HX18977  -0.106   3.628   6.469  0.8624  0.2603 -1.1843
  168SAPS    HY18978  -0.105   3.477   6.576  2.5471 -0.9575 -0.0947
  168SAPS   O3118979  -0.195   3.457   6.385 -0.2645  0.4754  0.5925
  168SAPS   C3118980  -0.218   3.328   6.402  0.5955 -0.1087 -1.0347
  168SAPS   O3218981  -0.172   3.256   6.487 -0.5921 -0.3621 -0.9319
  168SAPS   C3218982  -0.309   3.274   6.285  0.3126 -0.3973 -0.8637
  168SAPS   H2X18983  -0.358   3.355   6.227  0.3182 -0.3712 -0.8316
  168SAPS   H2Y18984  -0.384   3.222   6.348 -0.1282 -0.9929 -1.8500
  168SAPS   C2318985   0.375   3.579   6.071  0.4076  0.4090 -0.7925
  168SAPS   H3R18986   0.392   3.469   6.069  0.3259  0.1121  3.6821
  168SAPS   H3S18987   0.441   3.611   6.155 -0.2296 -1.0077  0.2935
  168SAPS   C2418988   0.403   3.660   5.949 -0.0342  0.0412  0.5908
  168SAPS   H4R18989   0.511   3.658   5.924 -0.5891  0.0380 -2.0741
  168SAPS   H4S18990   0.376   3.764   5.976 -1.0341  0.0125 -0.2504
  168SAPS   C2518991   0.321   3.616   5.824  0.4171  0.4275 -0.2996
  168SAPS   H5R18992   0.235   3.554   5.851  1.3724  0.7150  4.1803
  168SAPS   C2618993   0.327   3.652   5.696 -0.0605 -0.0904  0.0571
  168SAPS   H6R18994   0.262   3.592   5.631  1.8647 -1.9928 -0.2190
  168SAPS   C2718995   0.425   3.745   5.636  0.2527  0.0144  0.0767
  168SAPS   H7R18996   0.508   3.681   5.599  1.0376  1.4033 -0.6685
  168SAPS   H7S18997   0.456   3.828   5.703 -0.5085  2.5813 -2.5440
  168SAPS   C2818998   0.372   3.829   5.525  0.2568 -0.4769  0.5463
  168SAPS   H8R18999   0.293   3.902   5.549  1.5180  0.3791  2.3649
  168SAPS   C2919000   0.389   3.812   5.391 -0.5325  0.1809 -1.4019
  168SAPS   H9R19001   0.338   3.884   5.326  1.1304  1.6346 -1.1733
  168SAPS  C21019002   0.473   3.698   5.337 -0.2266 -0.6685 -0.0744
  168SAPS  H10R19003   0.415   3.603   5.340  0.4462 -1.0911 -0.0565
  168SAPS  H10S19004   0.560   3.681   5.403 -0.3525  1.6977  0.7901
  168SAPS  C21119005   0.516   3.729   5.192 -0.8792  0.2977 -0.4162
  168SAPS  H11R19006   0.575   3.820   5.180  1.1688 -0.9716 -0.5227
  168SAPS  C21219007   0.481   3.666   5.081 -0.4142 -0.7465  0.5994
  168SAPS  H12R19008   0.519   3.704   4.986 -1.4462 -1.2010 -0.0129
  168SAPS  C21319009   0.394   3.540   5.070 -0.2067 -0.2259 -0.1171
  168SAPS  H13R19010   0.427   3.462   5.142  0.1515 -1.2034 -1.2981
  168SAPS  H13S19011   0.395   3.504   4.964  0.6753 -1.5359  0.3094
  168SAPS  C21419012   0.254   3.572   5.116 -0.3982 -0.1673  0.8764
  168SAPS  H14R19013   0.235   3.542   5.220  0.6845  0.0321  1.1561
  168SAPS  C21519014   0.158   3.614   5.039 -0.1053 -0.1018 -0.4218
  168SAPS  H15R19015   0.055   3.629   5.077 -0.5295 -1.3264 -1.0196
  168SAPS  C21619016   0.158   3.635   4.895 -0.2062 -0.1304  0.4080
  168SAPS  H16R19017   0.260   3.637   4.851 -0.2704 -3.2683 -0.1737
  168SAPS  H16S19018   0.116   3.736   4.875  0.5334  0.0833 -0.1394
  168SAPS  C21719019   0.101   3.528   4.804 -0.3747  0.3158 -0.0761
  168SAPS  H17R19020   0.160   3.435   4.820  1.2762  1.2971 -0.2253
  168SAPS  H17S19021   0.107   3.556   4.697 -1.6752  2.7365  0.4125
  168SAPS  C21819022  -0.047   3.489   4.822 -0.0755 -0.6320 -0.4774
  168SAPS  H18R19023  -0.108   3.581   4.834  1.7682  0.9356 -2.3443
  168SAPS  H18S19024  -0.051   3.429   4.915  0.3541  2.6266  1.8040
  168SAPS  C21919025  -0.087   3.389   4.719  0.3510  0.2348  0.2847
  168SAPS  H19R19026  -0.176   3.339   4.763  0.9513 -0.9949  0.1361
  168SAPS  H19S19027  -0.014   3.308   4.695 -1.5068 -1.0956 -1.1409
  168SAPS  C22019028  -0.129   3.442   4.579  0.0096  0.3659  0.4482
  168SAPS  H20R19029  -0.052   3.503   4.527 -2.0328  2.1902 -0.6234
  168SAPS  H20S19030  -0.209   3.517   4.596  0.2334  0.5804  0.5512
  168SAPS  H20T19031  -0.161   3.356   4.517 -0.1520  0.8725 -0.1752
  168SAPS   C3319032  -0.241   3.173   6.193 -0.4806  0.2729  0.7662
  168SAPS   H3X19033  -0.324   3.138   6.128 -0.2219  1.4536 -0.2494
  168SAPS   H3Y19034  -0.208   3.087   6.255  2.6136  0.6220 -0.2312
  168SAPS   C3419035  -0.119   3.230   6.113  0.4136 -0.5787  0.4880
  168SAPS   H4X19036  -0.121   3.180   6.014 -1.8169  3.0105 -1.5370
  168SAPS   H4Y19037  -0.025   3.219   6.171  1.9722  1.2977 -1.5066
  168SAPS   C3519038  -0.140   3.376   6.066  0.0639 -0.0163 -0.0900
  168SAPS   H5X19039  -0.122   3.440   6.155  0.9101 -0.2658 -0.0680
  168SAPS   H5Y19040  -0.245   3.377   6.031 -0.3855  1.0604  1.1750
  168SAPS   C3619041  -0.045   3.420   5.951 -0.3124  0.5508  0.4889
  168SAPS   H6X19042   0.060   3.393   5.975 -0.0849  2.7050  2.3166
  168SAPS   H6Y19043  -0.048   3.531   5.952 -0.4816  0.6156 -2.1401
  168SAPS   C3719044  -0.078   3.359   5.811 -0.8197 -0.0159 -0.7069
  168SAPS   H7X19045  -0.187   3.373   5.797 -1.1663 -0.5135  1.1959
  168SAPS   H7Y19046  -0.048   3.252   5.818 -1.1832 -0.0519  0.5635
  168SAPS   C3819047  -0.016   3.428   5.686  0.6838  0.2878 -0.0092
  168SAPS   H8X19048   0.094   3.411   5.690  0.6382 -0.3974 -1.1931
  168SAPS   H8Y19049  -0.040   3.537   5.688  0.1729  0.1950 -0.6486
  168SAPS   C3919050  -0.065   3.373   5.547  0.1953 -0.2095 -0.3217
  168SAPS   H9X19051  -0.172   3.404   5.543  0.6219  1.9257  1.9732
  168SAPS   H9Y19052  -0.061   3.262   5.543  0.4812 -0.1684 -1.4699
  168SAPS  C31019053   0.008   3.432   5.427 -0.7599 -0.2134 -0.4032
  168SAPS  H10X19054   0.111   3.392   5.443 -0.2257  1.3831  0.3764
  168SAPS  H10Y19055   0.018   3.542   5.445  1.0855 -0.1691 -1.4390
  168SAPS  C31119056  -0.044   3.402   5.284 -0.4260  0.5912 -0.0088
  168SAPS  H11X19057   0.035   3.425   5.210 -1.1337  2.8112 -0.1627
  168SAPS  H11Y19058  -0.121   3.477   5.254  0.2284  1.8563  1.3271
  168SAPS  C31219059  -0.093   3.264   5.259 -0.3182 -0.3438 -0.2397
  168SAPS  H12X19060  -0.192   3.248   5.307  0.2086 -1.4474  0.5090
  168SAPS  H12Y19061  -0.024   3.180   5.281 -0.4259 -1.1102 -2.6098
  168SAPS  C31319062  -0.131   3.241   5.108  0.2625  0.6997 -0.1007
  168SAPS  H13X19063  -0.042   3.214   5.047  0.5910  1.7433 -0.1007
  168SAPS  H13Y19064  -0.182   3.333   5.071 -0.3057  0.2638 -0.4097
  168SAPS  C31419065  -0.227   3.125   5.086 -0.0495  0.1517 -0.4940
  168SAPS  H14X19066  -0.323   3.168   5.122 -0.5169  0.5487 -2.1131
  168SAPS  H14Y19067  -0.197   3.039   5.149  0.9011  1.1429  0.4315
  168SAPS  C31519068  -0.231   3.084   4.935  0.4000  0.2086  0.2642
  168SAPS  H15X19069  -0.129   3.052   4.905  1.0351  0.5297  1.9458
  168SAPS  H15Y19070  -0.265   3.165   4.866 -2.4688 -0.0053  1.2902
  168SAPS  C31619071  -0.317   2.954   4.908 -0.4257  0.4361  0.0633
  168SAPS  H16X19072  -0.419   2.953   4.951 -0.1524  1.8726  0.8242
  168SAPS  H16Y19073  -0.259   2.871   4.953 -0.5966  0.6741  0.7301
  168SAPS  C31719074  -0.340   2.923   4.757  0.3597 -0.2235  0.6206
  168SAPS  H17X19075  -0.241   2.905   4.709 -0.7269 -2.2080 -0.9984
  168SAPS  H17Y19076  -0.377   3.010   4.698  0.3796 -0.2944  0.5037
  168SAPS  C31819077  -0.441   2.808   4.735  0.3109  0.2220  0.0181
  168SAPS  H18X19078  -0.399   2.719   4.785  1.5025  1.1488  0.7309
  168SAPS  H18Y19079  -0.466   2.794   4.628  0.2128 -2.2187  0.3178
  168SAPS  H18Z19080  -0.537   2.825   4.787 -0.9883 -0.5848 -1.9975
  169SAPS     N19081   2.163   5.633   6.693  0.3519 -0.1431  0.0077
  169SAPS   HN119082   2.167   5.547   6.635  2.2126  1.2494 -2.0865
  169SAPS   HN219083   2.188   5.711   6.629 -3.3622  2.9504  1.9198
  169SAPS   HN319084   2.241   5.619   6.760  1.0808  1.1928 -0.5102
  169SAPS   C1219085   2.033   5.649   6.761 -0.2074 -0.2863 -0.2305
  169SAPS  H12A19086   1.960   5.659   6.682 -0.8900 -0.2213  0.4016
  169SAPS   C1319087   1.988   5.532   6.852  0.7163  0.0935  0.1522
  169SAPS  O13A19088   2.040   5.423   6.834  0.3093  0.0017  0.1834
  169SAPS  O13B19089   1.888   5.546   6.925 -0.4117 -0.1121 -0.0770
  169SAPS   C1119090   2.030   5.781   6.855  0.4049  0.1215  0.7606
  169SAPS  H11A19091   2.091   5.757   6.944 -0.2426  0.5827  1.3355
  169SAPS  H11B19092   1.924   5.797   6.884  0.6362  1.8550  0.7368
  169SAPS     P19093   2.083   6.032   6.867  0.3974 -0.4528 -0.0896
  169SAPS   O1319094   1.972   6.037   6.964 -0.0878  0.5640  0.3074
  169SAPS   O1419095   2.219   6.070   6.921 -0.7464 -0.0746  0.3369
  169SAPS   O1219096   2.086   5.895   6.786  0.3654 -0.2768 -0.2982
  169SAPS   O1119097   2.039   6.136   6.753  0.0265 -0.0559 -0.4946
  169SAPS    C119098   2.077   6.126   6.615  0.4747 -0.7703  0.0358
  169SAPS    HA19099   2.117   6.025   6.593 -0.6721 -1.6886  1.9416
  169SAPS    HB19100   1.990   6.156   6.552 -0.6428  0.4437  2.0316
  169SAPS    C219101   2.187   6.231   6.585  0.4479 -0.3799 -0.6562
  169SAPS    HS19102   2.282   6.195   6.630  0.2163  0.3172  0.4030
  169SAPS   O2119103   2.144   6.356   6.643 -0.2172 -0.1393 -0.0458
  169SAPS   C2119104   2.234   6.456   6.643  0.0507  0.6176  0.2555
  169SAPS   O2219105   2.349   6.443   6.605 -0.2110 -0.2591  0.5532
  169SAPS   C2219106   2.169   6.586   6.692 -0.1831 -0.4760  0.0471
  169SAPS   H2R19107   2.066   6.587   6.649 -1.2442 -2.2854  2.2999
  169SAPS   H2S19108   2.145   6.563   6.798  2.2603  0.5421  0.8798
  169SAPS    C319109   2.215   6.232   6.426 -0.7473  0.3464  0.3335
  169SAPS    HX19110   2.251   6.131   6.396  1.3104  0.4608  2.1685
  169SAPS    HY19111   2.296   6.304   6.403 -1.6242  1.4639  0.6536
  169SAPS   O3119112   2.087   6.263   6.357  0.3357 -0.2563 -0.3833
  169SAPS   C3119113   2.097   6.291   6.226 -0.2427 -0.0115 -0.6169
  169SAPS   O3219114   2.206   6.293   6.165  0.4314  0.1900  0.1323
  169SAPS   C3219115   1.954   6.310   6.170 -0.3536 -0.1992  0.9384
  169SAPS   H2X19116   1.916   6.405   6.213 -0.2115 -0.9936  2.8935
  169SAPS   H2Y19117   1.898   6.220   6.202 -1.7760 -0.0086 -0.8751
  169SAPS   C2319118   2.241   6.719   6.664  0.2446 -0.8403 -0.0907
  169SAPS   H3R19119   2.161   6.793   6.682  1.1478  0.1615 -0.1184
  169SAPS   H3S19120   2.270   6.733   6.558  1.3135 -1.5985  0.0799
  169SAPS   C2419121   2.357   6.745   6.760 -0.7306  0.1156  0.7844
  169SAPS   H4R19122   2.423   6.656   6.767 -1.3403 -0.2494  2.4129
  169SAPS   H4S19123   2.328   6.763   6.866 -0.1292 -2.2118  1.4042
  169SAPS   C2519124   2.434   6.871   6.719  0.3467  0.5052  0.1958
  169SAPS   H5R19125   2.419   6.949   6.796 -1.8334 -0.3078  0.6773
  169SAPS   C2619126   2.520   6.889   6.617  0.6590 -0.6545 -0.1785
  169SAPS   H6R19127   2.568   6.986   6.598 -2.3523  1.0212  0.2192
  169SAPS   C2719128   2.560   6.787   6.515 -0.3940  1.0011  0.2572
  169SAPS   H7R19129   2.590   6.824   6.414  1.1671 -2.3294 -0.6471
  169SAPS   H7S19130   2.476   6.722   6.484  0.7351  0.2466 -1.3579
  169SAPS   C2819131   2.674   6.696   6.570  1.0527 -0.0239  0.5304
  169SAPS   H8R19132   2.649   6.668   6.674 -2.9822  1.0059  0.0106
  169SAPS   C2919133   2.757   6.623   6.496 -0.3774 -0.6748 -0.4099
  169SAPS   H9R19134   2.815   6.550   6.555 -2.3458 -1.2124  0.9614
  169SAPS  C21019135   2.799   6.633   6.353 -0.1086  0.8971  0.3452
  169SAPS  H10R19136   2.714   6.662   6.287 -2.0975  0.6547  2.6590
  169SAPS  H10S19137   2.819   6.528   6.323 -0.0734  0.7522  0.8764
  169SAPS  C21119138   2.913   6.724   6.340 -0.6352 -0.2529  0.0269
  169SAPS  H11R19139   3.005   6.681   6.383  0.4565  1.3363 -0.6227
  169SAPS  C21219140   2.931   6.830   6.262  0.3258  0.4921  0.1383
  169SAPS  H12R19141   3.030   6.879   6.257  0.5313  0.3608  2.1650
  169SAPS  C21319142   2.823   6.868   6.167  0.1057 -0.1779 -1.0878
  169SAPS  H13R19143   2.730   6.862   6.228  1.8133  0.3113  1.7158
  169SAPS  H13S19144   2.822   6.796   6.082 -0.2370 -1.1055 -0.3106
  169SAPS  C21419145   2.824   7.008   6.122 -0.3139  0.1856  0.1673
  169SAPS  H14R19146   2.851   7.074   6.205 -0.9031 -0.2606  0.7303
  169SAPS  C21519147   2.811   7.061   5.996 -0.3520 -0.1937  0.4647
  169SAPS  H15R19148   2.826   7.170   5.993 -1.8010  0.0435 -3.0347
  169SAPS  C21619149   2.787   6.994   5.859  0.5795  0.0755 -0.2348
  169SAPS  H16R19150   2.735   6.899   5.888 -0.4990  1.1251  1.4330
  169SAPS  H16S19151   2.885   6.978   5.809 -0.7762 -0.8707 -2.7877
  169SAPS  C21719152   2.707   7.103   5.780 -0.0498  0.5678 -0.1657
  169SAPS  H17R19153   2.629   7.147   5.846 -0.9557 -0.4424 -0.5564
  169SAPS  H17S19154   2.652   7.051   5.699 -0.2173  1.6931 -0.7975
  169SAPS  C21819155   2.779   7.225   5.715  0.4331  0.4486 -0.8464
  169SAPS  H18R19156   2.843   7.181   5.636  0.5314  0.1767 -0.6158
  169SAPS  H18S19157   2.843   7.276   5.790  0.6852 -0.9332 -0.0847
  169SAPS  C21919158   2.678   7.330   5.656  0.5280 -0.0009  0.2275
  169SAPS  H19R19159   2.714   7.433   5.672 -0.2936  0.2441  0.5563
  169SAPS  H19S19160   2.580   7.320   5.707 -1.1321 -1.4310 -2.9268
  169SAPS  C22019161   2.654   7.312   5.508  0.0455 -0.5977 -0.4874
  169SAPS  H20R19162   2.576   7.379   5.465  0.2065  0.5114  0.8701
  169SAPS  H20S19163   2.620   7.207   5.494  0.1777 -0.7268  0.1566
  169SAPS  H20T19164   2.749   7.321   5.450  1.6950 -0.4160  2.0853
  169SAPS   C3319165   1.955   6.326   6.013 -0.4243 -0.5190 -0.6455
  169SAPS   H3X19166   2.006   6.239   5.967  1.1797 -0.4087  0.8587
  169SAPS   H3Y19167   2.013   6.417   5.989 -2.1770  0.7101 -0.4122
  169SAPS   C3419168   1.820   6.334   5.949 -0.2668 -0.0936  0.7335
  169SAPS   H4X19169   1.752   6.392   6.015 -1.7778 -2.2902  1.2314
  169SAPS   H4Y19170   1.780   6.230   5.940  1.8332 -1.1973  2.8012
  169SAPS   C3519171   1.821   6.389   5.807 -0.5854  0.5179 -0.1659
  169SAPS   H5X19172   1.847   6.301   5.744 -1.3817 -0.3865  0.7377
  169SAPS   H5Y19173   1.898   6.468   5.791  1.2666 -1.2513 -0.4487
  169SAPS   C3619174   1.684   6.449   5.759 -0.4040  0.2539  0.5524
  169SAPS   H6X19175   1.638   6.516   5.835  1.6917  1.1054  1.1369
  169SAPS   H6Y19176   1.605   6.371   5.751  0.9937 -1.1222 -0.3044
  169SAPS   C3719177   1.685   6.516   5.616  0.0592 -0.1404 -0.2275
  169SAPS   H7X19178   1.730   6.455   5.535  0.2255  1.3263 -1.2583
  169SAPS   H7Y19179   1.750   6.605   5.622 -0.1567  0.0450 -0.6661
  169SAPS   C3819180   1.555   6.585   5.570 -0.5237  0.3358  0.0391
  169SAPS   H8X19181   1.546   6.674   5.636  1.3232  0.5471  0.0535
  169SAPS   H8Y19182   1.479   6.507   5.591 -1.2925  1.0888  0.1115
  169SAPS   C3919183   1.562   6.630   5.425  1.4570 -0.3860 -0.3543
  169SAPS   H9X19184   1.564   6.537   5.364 -0.6339 -1.9993  1.8364
  169SAPS   H9Y19185   1.645   6.702   5.412 -1.2734  2.8885 -1.1083
  169SAPS  C31019186   1.449   6.729   5.374  0.0009 -0.0125  0.1373
  169SAPS  H10X19187   1.462   6.831   5.415 -1.3591  0.6216 -0.9252
  169SAPS  H10Y19188   1.350   6.693   5.411  0.7880 -4.0040 -1.1115
  169SAPS  C31119189   1.425   6.735   5.227  0.4942  0.3138  0.2402
  169SAPS  H11X19190   1.400   6.637   5.181 -0.5775  1.2227 -1.1902
  169SAPS  H11Y19191   1.509   6.780   5.171 -0.7851  0.5617 -1.5898
  169SAPS  C31219192   1.306   6.822   5.183  0.3926  0.3301  0.6266
  169SAPS  H12X19193   1.320   6.926   5.220 -1.4942  0.4488  1.0863
  169SAPS  H12Y19194   1.215   6.790   5.238 -1.2395  2.5143 -0.6217
  169SAPS  C31319195   1.277   6.821   5.031 -0.2470  0.0525 -0.0279
  169SAPS  H13X19196   1.375   6.847   4.984  0.0391 -0.0649  0.4930
  169SAPS  H13Y19197   1.213   6.910   5.013 -1.4220 -0.7262  0.2428
  169SAPS  C31419198   1.208   6.697   4.975 -0.0091  0.6933 -0.5835
  169SAPS  H14X19199   1.110   6.703   5.027  0.6689  1.3189  0.6717
  169SAPS  H14Y19200   1.248   6.600   5.011 -0.6518  0.7826  0.4184
  169SAPS  C31519201   1.193   6.685   4.830  0.5797  0.1019  0.0986
  169SAPS  H15X19202   1.292   6.658   4.786 -0.0446  0.4717 -1.5922
  169SAPS  H15Y19203   1.166   6.788   4.800  0.8990 -0.0522 -0.7516
  169SAPS  C31619204   1.096   6.582   4.778 -0.5737  0.3346 -0.5299
  169SAPS  H16X19205   0.992   6.620   4.792  0.6331  2.9807  2.5597
  169SAPS  H16Y19206   1.122   6.496   4.844  1.0995  1.4710  0.3641
  169SAPS  C31719207   1.118   6.559   4.625 -1.2943  0.3542  0.1927
  169SAPS  H17X19208   1.225   6.546   4.599 -0.9179  1.9544  0.8403
  169SAPS  H17Y19209   1.079   6.641   4.561  1.1815  0.9346 -0.6877
  169SAPS  C31819210   1.049   6.435   4.569 -0.8079  0.4536 -0.2459
  169SAPS  H18X19211   0.939   6.446   4.573 -0.9037 -0.1797 -0.9270
  169SAPS  H18Y19212   1.080   6.349   4.631 -1.7074  0.3440  0.0622
  169SAPS  H18Z19213   1.079   6.423   4.463  2.1197  1.8859  0.3166
  170SAPS     N19214   3.477   5.786   6.728  0.0448 -0.1517  0.1898
  170SAPS   HN119215   3.528   5.819   6.813  0.1904 -0.0466  0.0624
  170SAPS   HN219216   3.547   5.760   6.656  1.7996  1.6282  1.1226
  170SAPS   HN319217   3.432   5.871   6.689 -0.9898 -0.2236  1.1680
  170SAPS   C1219218   3.387   5.669   6.769  0.1822  0.4091 -0.3022
  170SAPS  H12A19219   3.443   5.596   6.825 -1.2480  0.8256  1.7908
  170SAPS   C1319220   3.271   5.704   6.866 -0.0199 -0.2864  0.0838
  170SAPS  O13A19221   3.267   5.821   6.913 -0.5987  0.4981  0.0577
  170SAPS  O13B19222   3.194   5.616   6.914  0.6612  0.0759  0.0906
  170SAPS   C1119223   3.333   5.595   6.645  0.8701 -0.2280 -0.7121
  170SAPS  H11A19224   3.269   5.508   6.670 -0.8028  1.5352  1.5231
  170SAPS  H11B19225   3.424   5.555   6.595  2.8264  0.0115  2.4400
  170SAPS     P19226   3.192   5.634   6.433  0.2022 -0.0506 -0.1716
  170SAPS   O1319227   3.167   5.485   6.453 -0.0269  0.1560 -0.0519
  170SAPS   O1419228   3.076   5.724   6.419 -0.7366 -0.1696  0.5446
  170SAPS   O1219229   3.269   5.685   6.560  0.6489  1.2020  0.4782
  170SAPS   O1119230   3.291   5.658   6.309 -0.2204 -0.0477 -0.0605
  170SAPS    C119231   3.386   5.774   6.320  0.2793  0.4149  0.3865
  170SAPS    HA19232   3.404   5.816   6.421  1.7455 -4.5287  2.5019
  170SAPS    HB19233   3.483   5.730   6.288 -0.6101  0.0016 -1.9508
  170SAPS    C219234   3.341   5.888   6.227 -0.8749 -0.4535 -0.3956
  170SAPS    HS19235   3.238   5.916   6.259 -0.6256  2.8276 -2.0563
  170SAPS   O2119236   3.335   5.838   6.091 -0.0109 -0.0327 -0.7310
  170SAPS   C2119237   3.242   5.888   6.010  0.3404  0.0546 -0.5560
  170SAPS   O2219238   3.144   5.955   6.043  0.9854 -0.0229  0.0778
  170SAPS   C2219239   3.272   5.848   5.866  0.5707  0.9124  0.4618
  170SAPS   H2R19240   3.281   5.737   5.865  1.7472  0.9962 -0.6938
  170SAPS   H2S19241   3.182   5.865   5.802  1.7504 -2.6039 -2.4417
  170SAPS    C319242   3.438   6.009   6.227  0.2554  0.4458  0.7202
  170SAPS    HX19243   3.539   5.967   6.211 -0.2269 -0.4839  0.0061
  170SAPS    HY19244   3.441   6.062   6.325  1.6419 -1.7161  1.9153
  170SAPS   O3119245   3.403   6.098   6.117  0.2057  0.6652  0.5121
  170SAPS   C3119246   3.310   6.184   6.142  0.4090  0.4134  0.0908
  170SAPS   O3219247   3.248   6.190   6.252 -0.0936 -0.4679  0.0853
  170SAPS   C3219248   3.287   6.287   6.030  0.5207  0.0300  0.3795
  170SAPS   H2X19249   3.267   6.386   6.076 -0.2541 -0.0075  0.1448
  170SAPS   H2Y19250   3.192   6.262   5.977 -0.8843 -0.9779  3.2027
  170SAPS   C2319251   3.394   5.924   5.798 -0.5882  0.4028 -1.0683
  170SAPS   H3R19252   3.468   5.961   5.872  2.1693 -0.1505 -3.3331
  170SAPS   H3S19253   3.361   6.022   5.757 -0.2852  0.2956 -1.5823
  170SAPS   C2419254   3.461   5.835   5.688  0.4331 -0.4169  0.2290
  170SAPS   H4R19255   3.466   5.732   5.729  2.5234 -1.7432 -2.9938
  170SAPS   H4S19256   3.567   5.862   5.671  0.3756 -0.7559 -0.6699
  170SAPS   C2519257   3.389   5.828   5.556 -0.2434  0.0769 -0.5485
  170SAPS   H5R19258   3.299   5.764   5.562 -0.5114  0.2687 -2.1315
  170SAPS   C2619259   3.432   5.870   5.439 -0.6258 -0.3046 -0.0129
  170SAPS   H6R19260   3.375   5.835   5.352  0.2529 -2.8587  0.3762
  170SAPS   C2719261   3.563   5.938   5.418 -0.3351  0.3789  0.0889
  170SAPS   H7R19262   3.645   5.872   5.381 -0.3683  0.2552  0.2366
  170SAPS   H7S19263   3.607   5.973   5.514 -0.9580 -1.3204  1.0373
  170SAPS   C2819264   3.548   6.041   5.304 -0.7358  0.6952  0.0046
  170SAPS   H8R19265   3.555   5.996   5.203 -2.5229 -0.6225  0.4219
  170SAPS   C2919266   3.514   6.170   5.319  0.0635 -0.0819 -0.0126
  170SAPS   H9R19267   3.516   6.239   5.233 -1.0246  1.0754  0.8615
  170SAPS  C21019268   3.494   6.246   5.446 -0.2930  0.1957  0.7021
  170SAPS  H10R19269   3.581   6.219   5.510 -0.3195  0.1075  0.7011
  170SAPS  H10S19270   3.408   6.189   5.487 -0.6105  0.1698  0.0123
  170SAPS  C21119271   3.481   6.396   5.441 -0.1597  0.1758 -0.7060
  170SAPS  H11R19272   3.577   6.444   5.416  1.7936 -2.6651  0.8256
  170SAPS  C21219273   3.371   6.473   5.457  0.6706  0.2160 -0.3197
  170SAPS  H12R19274   3.379   6.581   5.475  1.7300 -0.0278  0.8052
  170SAPS  C21319275   3.232   6.426   5.485 -0.3455  0.7562  0.8684
  170SAPS  H13R19276   3.214   6.441   5.593 -0.8061  2.2907  0.6103
  170SAPS  H13S19277   3.222   6.318   5.462 -0.4021  1.1254 -1.0087
  170SAPS  C21419278   3.130   6.498   5.397 -0.1694  0.6333 -0.2385
  170SAPS  H14R19279   3.171   6.555   5.313  1.7729  0.8178  0.7766
  170SAPS  C21519280   3.002   6.519   5.425 -0.1625 -0.8832  0.5507
  170SAPS  H15R19281   2.940   6.568   5.349  0.4249  2.0708  1.8578
  170SAPS  C21619282   2.914   6.455   5.531 -0.2431  0.1907 -0.4451
  170SAPS  H16R19283   2.965   6.362   5.565  1.1316  1.4780  1.2089
  170SAPS  H16S19284   2.815   6.419   5.496  0.6877 -1.0562 -1.8911
  170SAPS  C21719285   2.891   6.542   5.661 -0.2674  0.5646 -0.0050
  170SAPS  H17R19286   2.796   6.500   5.699 -0.4631  0.0213 -1.0751
  170SAPS  H17S19287   2.870   6.649   5.637  2.9796  1.3970  0.2972
  170SAPS  C21819288   3.000   6.536   5.762  0.1375  0.2409  0.0864
  170SAPS  H18R19289   3.095   6.576   5.721  0.2758  0.3317  0.4882
  170SAPS  H18S19290   3.022   6.429   5.781 -3.4534 -0.4214  1.2278
  170SAPS  C21919291   2.957   6.603   5.889  1.3334  0.1707 -0.3299
  170SAPS  H19R19292   2.866   6.552   5.929  2.7421  0.2621  3.4208
  170SAPS  H19S19293   2.928   6.709   5.878 -1.1013 -0.1652  1.7537
  170SAPS  C22019294   3.080   6.608   5.991  0.0796  0.1286  0.2234
  170SAPS  H20R19295   3.040   6.652   6.084  0.0424  1.4957 -0.4100
  170SAPS  H20S19296   3.169   6.666   5.957  0.7549  0.0814  1.8446
  170SAPS  H20T19297   3.106   6.505   6.025  2.8252  0.6873  0.0324
  170SAPS   C3319298   3.405   6.317   5.932  0.6875  0.8090 -0.3534
  170SAPS   H3X19299   3.411   6.232   5.862 -2.3764 -1.3246  1.7185
  170SAPS   H3Y19300   3.503   6.303   5.983  0.3103 -1.7641 -0.2265
  170SAPS   C3419301   3.397   6.454   5.869  0.2579 -0.0218  0.0060
  170SAPS   H4X19302   3.384   6.525   5.954  1.5244  1.3310 -0.8951
  170SAPS   H4Y19303   3.308   6.473   5.805 -0.1538  2.0676  1.0810
  170SAPS   C3519304   3.532   6.491   5.801  1.3494 -0.0578 -0.2961
  170SAPS   H5X19305   3.547   6.424   5.714  1.7542  0.0344 -0.2974
  170SAPS   H5Y19306   3.627   6.486   5.858  2.4369  1.6528 -1.8234
  170SAPS   C3619307   3.518   6.635   5.741  0.1682  0.6537  0.4049
  170SAPS   H6X19308   3.513   6.699   5.832 -1.4682 -0.6209  1.2557
  170SAPS   H6Y19309   3.428   6.634   5.677  1.9775 -1.9077 -2.3775
  170SAPS   C3719310   3.632   6.670   5.647  1.2491 -0.3189 -0.2961
  170SAPS   H7X19311   3.642   6.589   5.572  0.8974 -0.6213 -0.0201
  170SAPS   H7Y19312   3.724   6.667   5.709  1.5824  0.0120 -0.7683
  170SAPS   C3819313   3.622   6.797   5.569  0.0290 -0.8151  0.1306
  170SAPS   H8X19314   3.599   6.883   5.635  0.9927  1.9644 -2.8853
  170SAPS   H8Y19315   3.537   6.797   5.497  0.6054 -0.3657 -0.5672
  170SAPS   C3919316   3.747   6.839   5.493  0.7671  0.4853  0.3774
  170SAPS   H9X19317   3.760   6.752   5.425 -5.1458  0.3796 -1.2464
  170SAPS   H9Y19318   3.826   6.831   5.570  1.9221 -0.9923 -0.8952
  170SAPS  C31019319   3.740   6.972   5.428 -0.0304  0.3785 -0.8005
  170SAPS  H10X19320   3.846   7.005   5.426  0.1408 -0.0077  0.4450
  170SAPS  H10Y19321   3.685   7.039   5.498  0.4991 -0.5832  0.5861
  170SAPS  C31119322   3.690   6.979   5.279 -0.2657  0.2681 -0.2757
  170SAPS  H11X19323   3.756   6.917   5.215 -1.6795 -1.4455 -0.1404
  170SAPS  H11Y19324   3.697   7.087   5.251  0.0900  0.7253  1.4785
  170SAPS  C31219325   3.542   6.944   5.259 -0.3901 -0.4462  0.4255
  170SAPS  H12X19326   3.481   7.028   5.300  0.2960 -0.1077  0.7773
  170SAPS  H12Y19327   3.523   6.850   5.316 -1.0173 -2.2122 -2.5215
  170SAPS  C31319328   3.492   6.935   5.109 -0.6810  0.3899  0.0199
  170SAPS  H13X19329   3.403   6.869   5.113  0.1394 -0.8003 -0.8113
  170SAPS  H13Y19330   3.564   6.882   5.044 -0.2181  2.2128 -1.0232
  170SAPS  C31419331   3.450   7.071   5.039 -0.1345 -0.6260 -0.8940
  170SAPS  H14X19332   3.404   7.132   5.119 -0.6480 -1.3190 -0.6561
  170SAPS  H14Y19333   3.367   7.061   4.966 -1.2614 -0.7865  0.3759
  170SAPS  C31519334   3.558   7.139   4.965 -0.2425 -0.1323  0.0348
  170SAPS  H15X19335   3.589   7.076   4.879 -2.1860 -0.8012 -0.2430
  170SAPS  H15Y19336   3.641   7.156   5.037 -1.6660 -0.3353  1.7992
  170SAPS  C31619337   3.510   7.276   4.914 -0.1747  0.4840  0.2245
  170SAPS  H16X19338   3.409   7.279   4.867 -1.5493 -1.8234  2.7621
  170SAPS  H16Y19339   3.599   7.317   4.862  0.1812 -0.5024  0.0414
  170SAPS  C31719340   3.494   7.387   5.024  0.2914  0.2533 -0.3903
  170SAPS  H17X19341   3.559   7.371   5.112  0.8207 -1.3232 -1.0217
  170SAPS  H17Y19342   3.393   7.360   5.062  0.3478 -0.3922 -0.6743
  170SAPS  C31819343   3.482   7.530   4.969 -0.0242 -0.0728 -0.2409
  170SAPS  H18X19344   3.586   7.556   4.943  0.0367  1.1121  1.0472
  170SAPS  H18Y19345   3.443   7.600   5.046 -0.3250 -0.6255  0.1169
  170SAPS  H18Z19346   3.409   7.535   4.886 -1.5111  2.6336  1.0699
  171SAPS     N19347   1.494   5.677   6.445  0.4187 -0.6865 -0.5305
  171SAPS   HN119348   1.435   5.722   6.373  0.7731 -0.3682 -0.6247
  171SAPS   HN219349   1.454   5.714   6.533  2.0110 -1.0819  0.4168
  171SAPS   HN319350   1.595   5.702   6.437  0.1488  0.3062 -0.9527
  171SAPS   C1219351   1.471   5.531   6.451 -0.3922  0.9118  0.8318
  171SAPS  H12A19352   1.477   5.493   6.350 -1.5069  2.8617 -0.0191
  171SAPS   C1319353   1.563   5.460   6.555  0.6620 -1.0310 -0.4534
  171SAPS  O13A19354   1.645   5.523   6.630  0.1560 -0.0215 -0.0711
  171SAPS  O13B19355   1.548   5.336   6.576 -0.1336 -0.3215  0.3178
  171SAPS   C1119356   1.322   5.502   6.476 -0.0383 -0.0066 -0.4411
  171SAPS  H11A19357   1.312   5.391   6.475  1.2439 -0.1512  0.6409
  171SAPS  H11B19358   1.258   5.540   6.394 -1.8443 -2.1376 -0.1362
  171SAPS     P19359   1.182   5.506   6.711 -0.0031 -0.1095 -0.0188
  171SAPS   O1319360   1.208   5.364   6.741 -0.0778  0.4492 -0.4789
  171SAPS   O1419361   1.178   5.597   6.826 -0.3385  0.1795 -0.0563
  171SAPS   O1219362   1.281   5.558   6.600 -0.0421 -0.6160  0.1468
  171SAPS   O1119363   1.050   5.531   6.632 -0.0674  0.3692 -0.0546
  171SAPS    C119364   1.016   5.666   6.601  0.2545  0.5072  0.7300
  171SAPS    HA19365   0.957   5.709   6.684 -0.3893  0.8964  0.0796
  171SAPS    HB19366   1.106   5.729   6.585 -1.3070  2.5745 -0.3484
  171SAPS    C219367   0.939   5.672   6.464 -0.1182 -0.0137 -0.1685
  171SAPS    HS19368   0.840   5.628   6.486  0.6885 -2.1990 -0.6316
  171SAPS   O2119369   1.011   5.596   6.372 -0.4530 -0.0797  0.1128
  171SAPS   C2119370   0.931   5.547   6.276 -0.8188  0.1932  0.3171
  171SAPS   O2219371   0.813   5.564   6.261 -0.5740  0.1686 -0.2942
  171SAPS   C2219372   1.025   5.493   6.168 -0.5119 -0.2223  0.1213
  171SAPS   H2R19373   1.107   5.568   6.172  0.1829 -0.6781 -3.0105
  171SAPS   H2S19374   1.062   5.394   6.201 -0.4538 -0.3742 -0.4021
  171SAPS    C319375   0.930   5.820   6.435  0.2788 -0.9041 -0.3741
  171SAPS    HX19376   1.029   5.871   6.436 -0.4709  0.6391 -0.5536
  171SAPS    HY19377   0.885   5.867   6.524 -0.7710 -1.4397 -0.6135
  171SAPS   O3119378   0.853   5.847   6.324 -0.0045  0.3509  0.7452
  171SAPS   C3119379   0.910   5.875   6.210  0.9325 -0.1618 -0.0104
  171SAPS   O3219380   1.030   5.879   6.186 -0.9724 -0.4667 -0.1837
  171SAPS   C3219381   0.808   5.884   6.095 -0.4327  0.2895 -1.1130
  171SAPS   H2X19382   0.712   5.903   6.148  0.6841 -1.4390  1.8106
  171SAPS   H2Y19383   0.811   5.781   6.053  1.8035 -0.0611 -0.2209
  171SAPS   C2319384   0.961   5.490   6.029 -1.3806  0.3221 -0.3831
  171SAPS   H3R19385   0.893   5.577   6.019 -0.8286  1.1251  2.2040
  171SAPS   H3S19386   0.887   5.409   6.015  0.2241 -1.3727  0.5351
  171SAPS   C2419387   1.057   5.500   5.909  0.0625  0.4153  0.7955
  171SAPS   H4R19388   1.109   5.598   5.915  1.2733 -0.0867 -0.7396
  171SAPS   H4S19389   0.999   5.493   5.815 -0.9639 -2.9088  1.5642
  171SAPS   C2519390   1.155   5.384   5.902 -0.3662  0.4194  0.1608
  171SAPS   H5R19391   1.191   5.361   6.004 -1.4142  0.6376  0.5959
  171SAPS   C2619392   1.199   5.323   5.792 -0.2360  0.2062 -0.1114
  171SAPS   H6R19393   1.273   5.242   5.805 -0.2362  0.5797  2.6979
  171SAPS   C2719394   1.159   5.356   5.644 -0.4295 -0.6380 -0.1887
  171SAPS   H7R19395   1.244   5.381   5.576 -0.1545 -1.4952 -0.1751
  171SAPS   H7S19396   1.102   5.451   5.655  1.0327  0.2767 -0.2294
  171SAPS   C2819397   1.076   5.244   5.580 -0.1890 -0.1114  0.7081
  171SAPS   H8R19398   1.026   5.182   5.655 -0.9706  0.0121  0.2984
  171SAPS   C2919399   1.040   5.226   5.454 -0.2552 -0.5763  0.5291
  171SAPS   H9R19400   0.981   5.135   5.438 -0.1882 -0.4267 -0.6592
  171SAPS  C21019401   1.074   5.317   5.334  0.5056 -0.1119 -0.4346
  171SAPS  H10R19402   1.179   5.312   5.299  0.3511  0.4923 -1.0047
  171SAPS  H10S19403   1.062   5.423   5.364  1.5475  0.3135 -1.4847
  171SAPS  C21119404   0.965   5.297   5.225 -0.2793 -0.3504  0.2079
  171SAPS  H11R19405   0.869   5.267   5.268 -0.3484  1.5592  1.5499
  171SAPS  C21219406   0.976   5.310   5.095 -0.2860  0.2026  0.3424
  171SAPS  H12R19407   0.881   5.303   5.040 -0.0975  2.6545 -0.4319
  171SAPS  C21319408   1.094   5.355   5.016 -0.5804 -0.0447 -0.2455
  171SAPS  H13R19409   1.157   5.418   5.082 -1.3730 -0.8726  1.3689
  171SAPS  H13S19410   1.065   5.426   4.936 -1.6378 -0.9616 -0.7071
  171SAPS  C21419411   1.181   5.247   4.955  0.0209 -0.1197  0.6124
  171SAPS  H14R19412   1.242   5.190   5.027  0.5276  0.7094  0.8436
  171SAPS  C21519413   1.192   5.224   4.822 -0.0058  0.5648 -0.1397
  171SAPS  H15R19414   1.261   5.150   4.779 -0.4219  0.9140 -1.4335
  171SAPS  C21619415   1.121   5.303   4.715 -0.4462  0.8478 -0.3368
  171SAPS  H16R19416   1.133   5.409   4.744 -1.3837  0.4442  1.6867
  171SAPS  H16S19417   1.012   5.278   4.713 -0.5472  1.2930 -0.6209
  171SAPS  C21719418   1.187   5.287   4.577 -0.6423  0.0946 -0.3425
  171SAPS  H17R19419   1.198   5.177   4.564  0.9915 -0.2624  3.0681
  171SAPS  H17S19420   1.288   5.331   4.574 -2.0841  3.7301 -2.7554
  171SAPS  C21819421   1.116   5.369   4.474 -0.2368 -0.3212 -0.0347
  171SAPS  H18R19422   1.118   5.478   4.496 -0.7546 -0.1011 -0.9908
  171SAPS  H18S19423   1.012   5.335   4.455  0.0270  0.0430 -2.4796
  171SAPS  C21919424   1.179   5.356   4.336 -0.5027  0.4131  0.2443
  171SAPS  H19R19425   1.194   5.248   4.319 -1.0240  0.5917 -1.5027
  171SAPS  H19S19426   1.281   5.401   4.333  1.0746 -2.9280 -0.9158
  171SAPS  C22019427   1.100   5.429   4.224 -0.2962  0.3370 -0.2823
  171SAPS  H20R19428   0.998   5.388   4.207  0.4841 -1.7170 -0.3125
  171SAPS  H20S19429   1.158   5.421   4.129 -1.5498 -1.3262 -0.9658
  171SAPS  H20T19430   1.071   5.534   4.245 -0.6474  0.4242 -1.1397
  171SAPS   C3319431   0.828   6.001   6.003 -0.1565  0.5895  0.4191
  171SAPS   H3X19432   0.854   6.091   6.062 -0.8963  0.1542  1.4411
  171SAPS   H3Y19433   0.731   6.011   5.950 -0.4836  1.2053  1.1189
  171SAPS   C3419434   0.932   5.970   5.902 -0.5604 -0.2728  0.2883
  171SAPS   H4X19435   0.919   5.868   5.862 -1.1648 -1.2975  2.8758
  171SAPS   H4Y19436   1.031   5.982   5.951 -1.5240  2.2316  1.8265
  171SAPS   C3519437   0.937   6.059   5.781  0.6327  0.5032  0.3702
  171SAPS   H5X19438   0.920   6.168   5.797  0.1118  0.3156  1.1456
  171SAPS   H5Y19439   0.847   6.034   5.722 -0.5164  1.4540  1.6469
  171SAPS   C3619440   1.071   6.034   5.700  0.2038  0.5400  0.1788
  171SAPS   H6X19441   1.102   5.928   5.698 -0.6416  0.2909 -0.0947
  171SAPS   H6Y19442   1.161   6.085   5.741 -1.0857  2.2826  1.0467
  171SAPS   C3719443   1.056   6.064   5.549  0.4155  0.1468  0.7033
  171SAPS   H7X19444   0.960   6.024   5.508 -1.3567  1.7351  3.0964
  171SAPS   H7Y19445   1.133   6.012   5.487 -0.2111 -1.1155  0.9422
  171SAPS   C3819446   1.060   6.215   5.511  0.1319  0.7742  0.2235
  171SAPS   H8X19447   1.166   6.245   5.532  1.1153 -1.6686 -0.8847
  171SAPS   H8Y19448   0.989   6.270   5.577  0.8515  0.0312  1.6685
  171SAPS   C3919449   1.041   6.240   5.361 -0.4570 -1.1313  0.2492
  171SAPS   H9X19450   0.944   6.202   5.322 -2.2073  0.5315  2.6691
  171SAPS   H9Y19451   1.113   6.181   5.301 -1.3933 -2.4577  0.3716
  171SAPS  C31019452   1.075   6.384   5.318 -0.6358  0.6253  0.0895
  171SAPS  H10X19453   1.182   6.388   5.291 -1.3305  0.1995 -3.2710
  171SAPS  H10Y19454   1.053   6.437   5.412 -1.4285  0.0592  0.2357
  171SAPS  C31119455   1.003   6.442   5.195 -0.3182 -0.5300  0.1494
  171SAPS  H11X19456   1.022   6.377   5.107  0.6899 -0.1595  0.0766
  171SAPS  H11Y19457   1.052   6.536   5.160 -0.5734  0.1832  1.6594
  171SAPS  C31219458   0.844   6.446   5.204 -0.1129  0.2335 -0.1490
  171SAPS  H12X19459   0.814   6.521   5.280 -0.9805  0.7448 -0.9904
  171SAPS  H12Y19460   0.809   6.343   5.229 -1.7507  1.0054  0.8830
  171SAPS  C31319461   0.767   6.491   5.082  0.1789 -0.0976  0.1327
  171SAPS  H13X19462   0.788   6.598   5.058  1.8701 -0.5281 -0.4686
  171SAPS  H13Y19463   0.662   6.490   5.119  0.4654 -2.7793  1.0639
  171SAPS  C31419464   0.782   6.403   4.953  0.6880 -0.1064 -0.2516
  171SAPS  H14X19465   0.809   6.297   4.968 -1.5441 -0.8511 -1.1323
  171SAPS  H14Y19466   0.878   6.441   4.911  0.7566  1.2166  1.0025
  171SAPS  C31519467   0.663   6.414   4.855  0.0411  0.4574 -0.8075
  171SAPS  H15X19468   0.699   6.386   4.754 -0.0035 -2.8964 -0.0017
  171SAPS  H15Y19469   0.639   6.522   4.852  0.4712  0.6242  0.8987
  171SAPS  C31619470   0.533   6.342   4.887  0.0849 -0.6312  0.0373
  171SAPS  H16X19471   0.495   6.366   4.989 -1.4633 -1.4559 -0.3031
  171SAPS  H16Y19472   0.581   6.242   4.876  0.2352 -0.4806 -0.7198
  171SAPS  C31719473   0.432   6.366   4.777  0.7755  0.0355 -0.0202
  171SAPS  H17X19474   0.482   6.375   4.678 -1.0768 -0.5046 -1.0545
  171SAPS  H17Y19475   0.397   6.471   4.782  1.0169  0.1653 -0.8771
  171SAPS  C31819476   0.316   6.266   4.784 -0.0453 -0.1217  0.6530
  171SAPS  H18X19477   0.252   6.285   4.873 -2.7970  2.0514 -1.6126
  171SAPS  H18Y19478   0.350   6.160   4.790 -1.5912 -0.8933 -2.4952
  171SAPS  H18Z19479   0.250   6.262   4.695 -0.4425 -0.9151  0.9707
  172SAPS     N19480   3.252   5.229   6.472 -0.1930  0.8702 -0.3362
  172SAPS   HN119481   3.238   5.332   6.470  0.3893  1.0265  1.2964
  172SAPS   HN219482   3.281   5.183   6.383  1.5424 -0.9302  1.0575
  172SAPS   HN319483   3.157   5.195   6.496 -0.5310  0.5710 -2.0100
  172SAPS   C1219484   3.359   5.190   6.570  0.1609 -0.2247  0.1658
  172SAPS  H12A19485   3.447   5.250   6.552  0.5424 -0.2582  1.7914
  172SAPS   C1319486   3.325   5.219   6.721  0.3459 -0.3501 -0.2822
  172SAPS  O13A19487   3.209   5.264   6.746 -0.7712  0.0575 -0.0611
  172SAPS  O13B19488   3.415   5.209   6.810  0.8890 -0.2532 -0.3398
  172SAPS   C1119489   3.384   5.034   6.565  0.0484 -0.1930 -0.6167
  172SAPS  H11A19490   3.291   4.991   6.609  1.3359 -0.7619  1.7770
  172SAPS  H11B19491   3.465   5.007   6.636 -0.6199 -0.9840 -0.1428
  172SAPS     P19492   3.523   4.891   6.399  0.1376  0.2250  0.0694
  172SAPS   O1319493   3.613   4.977   6.317 -0.2716  0.3049 -0.1016
  172SAPS   O1419494   3.579   4.816   6.520 -0.9720 -0.0884 -0.2354
  172SAPS   O1219495   3.398   4.978   6.436 -0.0991 -0.0238 -0.2028
  172SAPS   O1119496   3.457   4.784   6.301 -0.0958  0.1997 -0.3612
  172SAPS    C119497   3.365   4.829   6.198 -0.2332  0.2344 -0.0541
  172SAPS    HA19498   3.266   4.790   6.228  1.2522 -4.4816 -0.5438
  172SAPS    HB19499   3.359   4.939   6.182  1.2707  0.6245  1.6982
  172SAPS    C219500   3.387   4.769   6.063 -0.4975  0.0666 -0.5230
  172SAPS    HS19501   3.371   4.660   6.074  0.1656 -0.2206 -2.0934
  172SAPS   O2119502   3.514   4.811   6.015 -0.4246 -0.0191  0.4606
  172SAPS   C2119503   3.616   4.730   6.047  0.1373  0.4241 -1.0867
  172SAPS   O2219504   3.611   4.628   6.113  0.0883 -0.4737  0.2750
  172SAPS   C2219505   3.748   4.793   6.003 -0.8866 -0.9829  0.0465
  172SAPS   H2R19506   3.743   4.903   6.017  1.2483 -0.9133  0.6560
  172SAPS   H2S19507   3.834   4.764   6.067  0.3600  2.7175  0.2969
  172SAPS    C319508   3.273   4.812   5.966  0.1162 -0.4300  0.8734
  172SAPS    HX19509   3.300   4.912   5.926  1.6814 -1.4094 -0.6427
  172SAPS    HY19510   3.173   4.809   6.014 -1.7610 -1.0590 -2.6971
  172SAPS   O3119511   3.260   4.712   5.868  0.3657  0.0849 -0.1312
  172SAPS   C3119512   3.331   4.733   5.760  0.2686  0.2225  0.0179
  172SAPS   O3219513   3.421   4.813   5.752 -0.2412 -0.0529  0.0907
  172SAPS   C3219514   3.301   4.622   5.654  0.1137 -0.2055  0.3590
  172SAPS   H2X19515   3.193   4.627   5.629 -0.5976 -0.3827  3.0795
  172SAPS   H2Y19516   3.309   4.529   5.714 -2.6109  0.3596  1.7749
  172SAPS   C2319517   3.794   4.761   5.850 -1.1150 -0.3031  0.4396
  172SAPS   H3R19518   3.869   4.842   5.833 -2.1508  0.6309  0.2057
  172SAPS   H3S19519   3.702   4.787   5.794 -1.6015 -0.4218  1.1794
  172SAPS   C2419520   3.841   4.616   5.822  0.3645 -1.0772  0.2872
  172SAPS   H4R19521   3.755   4.547   5.833 -1.8266  1.3542 -0.5458
  172SAPS   H4S19522   3.917   4.592   5.899  2.0325 -0.0223 -0.9416
  172SAPS   C2519523   3.914   4.613   5.691  0.0291  0.5091  0.6764
  172SAPS   H5R19524   3.981   4.699   5.676  1.4662 -0.8276 -1.0106
  172SAPS   C2619525   3.897   4.529   5.584  0.0681 -0.1125 -0.1381
  172SAPS   H6R19526   3.955   4.560   5.496  1.7376  0.9971  1.2736
  172SAPS   C2719527   3.807   4.406   5.568 -0.0411 -0.2860 -0.6558
  172SAPS   H7R19528   3.702   4.430   5.541 -0.7927 -0.6416  1.7425
  172SAPS   H7S19529   3.798   4.370   5.673  0.5648 -3.3762 -1.5640
  172SAPS   C2819530   3.870   4.298   5.488 -0.7816  0.7553 -0.7016
  172SAPS   H8R19531   3.954   4.253   5.544 -1.1040 -0.1761 -0.9435
  172SAPS   C2919532   3.831   4.240   5.377  0.2123  0.2756  0.1772
  172SAPS   H9R19533   3.892   4.155   5.345  2.0656  0.9611  1.6723
  172SAPS  C21019534   3.716   4.277   5.283  0.4636 -0.3283  0.4102
  172SAPS  H10R19535   3.745   4.370   5.229  1.1330 -1.7021 -1.6886
  172SAPS  H10S19536   3.619   4.294   5.334 -0.0439 -2.3281  0.2040
  172SAPS  C21119537   3.685   4.165   5.184 -1.1324  0.1744 -0.6043
  172SAPS  H11R19538   3.621   4.089   5.231 -1.3093  2.2905  2.8921
  172SAPS  C21219539   3.725   4.149   5.059 -0.1969  0.6429  0.4783
  172SAPS  H12R19540   3.688   4.060   5.005  1.7675  0.9219 -1.4362
  172SAPS  C21319541   3.814   4.228   4.969 -0.8201  0.1573 -0.6039
  172SAPS  H13R19542   3.913   4.176   4.963 -0.0445  1.5510 -0.3339
  172SAPS  H13S19543   3.833   4.328   5.013  0.8375 -0.2369 -0.3413
  172SAPS  C21419544   3.758   4.251   4.829  0.1954  0.3431 -0.4111
  172SAPS  H14R19545   3.649   4.236   4.827  0.2830 -0.6277  0.8779
  172SAPS  C21519546   3.823   4.266   4.717  0.1598 -0.7139 -0.2458
  172SAPS  H15R19547   3.787   4.301   4.620 -0.3243 -1.3278 -0.2958
  172SAPS  C21619548   3.972   4.279   4.716  0.1488  1.0199 -0.0203
  172SAPS  H16R19549   4.026   4.250   4.809 -0.6217 -2.1167 -0.4338
  172SAPS  H16S19550   3.998   4.385   4.696  3.3137  0.1089 -1.2317
  172SAPS  C21719551   4.051   4.187   4.608  0.4348  0.4484  0.4681
  172SAPS  H17R19552   4.035   4.082   4.638 -1.0556  0.7178  0.6801
  172SAPS  H17S19553   4.161   4.198   4.614  0.4143  0.1736  1.5162
  172SAPS  C21819554   4.002   4.200   4.461  0.2690 -0.1589  0.0224
  172SAPS  H18R19555   4.030   4.292   4.406  0.0210 -0.5463 -0.7701
  172SAPS  H18S19556   3.891   4.190   4.463  0.2932 -0.8019 -1.0269
  172SAPS  C21919557   4.060   4.086   4.367 -0.3900 -0.5121 -0.1282
  172SAPS  H19R19558   4.040   3.995   4.428  0.9807 -1.3167 -0.8265
  172SAPS  H19S19559   4.168   4.106   4.351 -0.6356  1.0975  0.0870
  172SAPS  C22019560   3.988   4.063   4.238 -0.3705  0.7565  0.0628
  172SAPS  H20R19561   4.033   3.991   4.167  2.8466  0.9342  1.7091
  172SAPS  H20S19562   3.991   4.158   4.180  2.0590  1.5712  1.3275
  172SAPS  H20T19563   3.884   4.033   4.261  0.1324 -0.9778  0.1644
  172SAPS   C3319564   3.401   4.619   5.542 -0.2175  0.6516  0.1012
  172SAPS   H3X19565   3.493   4.580   5.591  1.0951  1.9746 -1.2322
  172SAPS   H3Y19566   3.418   4.721   5.502 -1.5132  1.4291  1.4218
  172SAPS   C3419567   3.358   4.525   5.433  0.2790  0.1453 -0.0137
  172SAPS   H4X19568   3.252   4.545   5.404  0.9570  0.3956 -2.5086
  172SAPS   H4Y19569   3.358   4.423   5.477 -0.1652  0.1365 -0.0286
  172SAPS   C3519570   3.446   4.529   5.307  0.0730 -0.1811  0.4165
  172SAPS   H5X19571   3.541   4.471   5.312  0.5887  0.7090  1.2833
  172SAPS   H5Y19572   3.479   4.634   5.290  1.7722 -1.0094 -2.0174
  172SAPS   C3619573   3.375   4.489   5.180 -0.3521  0.0694  0.8152
  172SAPS   H6X19574   3.286   4.554   5.168 -0.3251  0.2364  1.4909
  172SAPS   H6Y19575   3.313   4.400   5.204  0.0148 -0.6862 -0.8944
  172SAPS   C3719576   3.462   4.485   5.054 -0.0124 -0.3624 -0.1101
  172SAPS   H7X19577   3.539   4.405   5.062 -0.3385 -0.8740 -1.7385
  172SAPS   H7Y19578   3.506   4.586   5.043  0.4239 -0.4935  0.4059
  172SAPS   C3819579   3.383   4.450   4.925 -0.6254 -0.0049 -0.1318
  172SAPS   H8X19580   3.339   4.348   4.934  2.8420 -1.6617 -0.4299
  172SAPS   H8Y19581   3.458   4.439   4.844  0.2357 -1.6184  0.8399
  172SAPS   C3919582   3.296   4.565   4.873  0.6876  0.6848 -0.1042
  172SAPS   H9X19583   3.338   4.664   4.899 -1.0790  1.6428 -0.7214
  172SAPS   H9Y19584   3.200   4.563   4.929 -0.2512 -1.0938 -1.6291
  172SAPS  C31019585   3.263   4.552   4.723  0.6142 -0.6553  0.1223
  172SAPS  H10X19586   3.153   4.541   4.724  0.5673 -0.2974 -0.4807
  172SAPS  H10Y19587   3.291   4.450   4.688 -0.5897 -1.0240  0.1788
  172SAPS  C31119588   3.314   4.663   4.635  0.9491  0.1878  0.4361
  172SAPS  H11X19589   3.284   4.763   4.673  1.5158  0.0484  1.2918
  172SAPS  H11Y19590   3.270   4.653   4.534  2.3298 -0.8494 -0.0835
  172SAPS  C31219591   3.464   4.643   4.611  0.4896 -0.5377  0.5678
  172SAPS  H12X19592   3.478   4.539   4.575  1.2729 -1.0165  2.1664
  172SAPS  H12Y19593   3.524   4.645   4.704 -0.5568 -1.3788  1.2797
  172SAPS  C31319594   3.517   4.739   4.511  0.5527  0.0014 -0.5875
  172SAPS  H13X19595   3.527   4.841   4.553  0.1830 -0.5781  1.0133
  172SAPS  H13Y19596   3.450   4.754   4.424 -0.3394  2.8241  0.4885
  172SAPS  C31419597   3.660   4.693   4.472  0.1469 -0.0763  0.1724
  172SAPS  H14X19598   3.667   4.588   4.439  0.5312 -0.1921  0.6089
  172SAPS  H14Y19599   3.729   4.699   4.559 -0.8022 -2.7315  1.2173
  172SAPS  C31519600   3.711   4.785   4.355 -0.7260  0.0213 -0.4743
  172SAPS  H15X19601   3.701   4.892   4.382 -1.0329  0.0658 -0.7734
  172SAPS  H15Y19602   3.636   4.764   4.277 -1.2585 -1.7831  0.4634
  172SAPS  C31619603   3.849   4.755   4.300  0.4201  0.2565 -0.0445
  172SAPS  H16X19604   3.870   4.834   4.224  1.2291 -1.0827 -1.2620
  172SAPS  H16Y19605   3.927   4.780   4.374  2.4612 -2.0806 -1.2750
  172SAPS  C31719606   3.873   4.614   4.239 -0.8007  0.1373  0.3867
  172SAPS  H17X19607   3.838   4.542   4.316  1.9070  0.5310  2.1236
  172SAPS  H17Y19608   3.978   4.588   4.215  0.2864  2.3479  2.2760
  172SAPS  C31819609   3.794   4.587   4.105 -0.4640 -0.2809  0.6351
  172SAPS  H18X19610   3.684   4.590   4.122 -0.5124  0.2492  0.2409
  172SAPS  H18Y19611   3.815   4.483   4.070  0.3184 -0.6119  1.9905
  172SAPS  H18Z19612   3.816   4.666   4.031 -4.4293  1.0043  0.5641
  173SAPS     N19613   0.837   6.912   2.360 -0.0737 -0.5695 -0.1535
  173SAPS   HN119614   0.842   6.854   2.446 -2.0923 -1.8274 -0.8068
  173SAPS   HN219615   0.912   6.893   2.290 -0.3712  0.1734 -0.6879
  173SAPS   HN319616   0.866   7.007   2.392 -1.8563  0.5262 -1.5745
  173SAPS   C1219617   0.703   6.915   2.310  0.3816  0.1053 -0.7915
  173SAPS  H12A19618   0.702   6.984   2.226 -1.9858  1.0803 -0.0540
  173SAPS   C1319619   0.659   6.780   2.245 -0.6636  0.1219 -0.5973
  173SAPS  O13A19620   0.735   6.685   2.251 -0.2990  0.5978  0.0211
  173SAPS  O13B19621   0.550   6.777   2.185  0.2450 -0.2916 -0.2345
  173SAPS   C1119622   0.604   6.970   2.408  0.0909 -0.1597 -0.4246
  173SAPS  H11A19623   0.600   6.902   2.496 -0.2438  0.5704  0.1242
  173SAPS  H11B19624   0.498   6.977   2.377 -1.7776  0.2637  5.0746
  173SAPS     P19625   0.557   7.166   2.553 -0.3216  0.0951  0.3889
  173SAPS   O1319626   0.591   7.310   2.577 -0.1809 -0.1877 -0.0408
  173SAPS   O1419627   0.416   7.134   2.530  0.2000  0.1028  0.0610
  173SAPS   O1219628   0.650   7.105   2.439 -0.2592 -0.5977  0.6852
  173SAPS   O1119629   0.598   7.077   2.674 -0.4989 -0.6322  0.9647
  173SAPS    C119630   0.723   7.093   2.742 -0.1649  0.2739  0.2877
  173SAPS    HA19631   0.776   6.999   2.715 -0.1659  0.3754 -0.0774
  173SAPS    HB19632   0.793   7.168   2.700  1.0843 -1.5187 -1.0479
  173SAPS    C219633   0.706   7.110   2.896  0.2575  0.4175  0.0213
  173SAPS    HS19634   0.808   7.099   2.940  1.3455  2.0941 -1.9310
  173SAPS   O2119635   0.622   7.006   2.941  0.7868 -0.3305 -0.0281
  173SAPS   C2119636   0.675   6.881   2.937  0.0869  0.2771 -0.4605
  173SAPS   O2219637   0.794   6.863   2.913 -0.3535 -0.0295 -0.3566
  173SAPS   C2219638   0.574   6.777   2.996 -0.3283 -0.8888  0.0250
  173SAPS   H2R19639   0.470   6.794   2.962 -0.5370  0.5720  1.2938
  173SAPS   H2S19640   0.615   6.678   2.968  0.8654 -1.4301  3.2247
  173SAPS    C319641   0.659   7.256   2.936  0.4023  0.4956 -0.3377
  173SAPS    HX19642   0.559   7.272   2.889  1.3529  0.7512 -2.3610
  173SAPS    HY19643   0.732   7.323   2.887  0.6757 -0.9236 -1.9856
  173SAPS   O3119644   0.668   7.272   3.076  0.4461  0.2679  0.0699
  173SAPS   C3119645   0.558   7.235   3.142  0.3373  0.1075 -0.4569
  173SAPS   O3219646   0.452   7.202   3.088  0.2354 -0.0297  0.4250
  173SAPS   C3219647   0.600   7.237   3.289  0.0909 -0.0212  0.3748
  173SAPS   H2X19648   0.597   7.341   3.326  1.6685 -0.2150  1.1548
  173SAPS   H2Y19649   0.707   7.207   3.288  0.0300 -0.2939 -1.6052
  173SAPS   C2319650   0.573   6.789   3.153  0.4190  0.3870 -0.2006
  173SAPS   H3R19651   0.503   6.869   3.184 -2.5605 -1.3371 -2.0025
  173SAPS   H3S19652   0.675   6.805   3.197  0.3578  2.1746 -0.6548
  173SAPS   C2419653   0.528   6.652   3.219 -0.3646 -0.4099 -0.2827
  173SAPS   H4R19654   0.551   6.666   3.327  0.5944 -0.6310 -0.4506
  173SAPS   H4S19655   0.598   6.572   3.189 -0.8189 -0.7006 -0.5790
  173SAPS   C2519656   0.393   6.596   3.192 -0.0571  0.3005  0.0035
  173SAPS   H5R19657   0.396   6.540   3.097  0.0075 -1.3047  0.9156
  173SAPS   C2619658   0.282   6.610   3.269 -0.2681 -0.4385 -0.4547
  173SAPS   H6R19659   0.188   6.561   3.237 -2.3732  2.9124  0.1042
  173SAPS   C2719660   0.265   6.689   3.400  0.0561  0.0603  0.7562
  173SAPS   H7R19661   0.166   6.738   3.396  1.3319  2.7448 -1.7618
  173SAPS   H7S19662   0.348   6.763   3.400  2.0087 -1.9309 -1.3979
  173SAPS   C2819663   0.292   6.591   3.514  0.0753  0.6906 -0.2412
  173SAPS   H8R19664   0.346   6.498   3.494  2.0162  1.7646 -0.2459
  173SAPS   C2919665   0.277   6.628   3.643 -0.7018 -0.0707 -0.0727
  173SAPS   H9R19666   0.298   6.546   3.712 -1.0238 -0.5077 -0.4899
  173SAPS  C21019667   0.236   6.763   3.696 -0.2348  0.7274  0.2323
  173SAPS  H10R19668   0.264   6.843   3.624 -0.0606  1.5448  1.1870
  173SAPS  H10S19669   0.308   6.770   3.781  1.6956 -2.6618 -0.8912
  173SAPS  C21119670   0.089   6.771   3.726  0.2739  0.1591  0.1228
  173SAPS  H11R19671   0.023   6.785   3.639  2.6769  0.5470 -1.7817
  173SAPS  C21219672   0.041   6.781   3.853 -0.2344  0.2571  0.4217
  173SAPS  H12R19673  -0.068   6.790   3.869 -0.3191 -1.7969  1.3082
  173SAPS  C21319674   0.112   6.785   3.983 -0.8036  0.8306  0.1686
  173SAPS  H13R19675   0.221   6.805   3.971 -0.3078 -0.7433  1.5761
  173SAPS  H13S19676   0.112   6.676   4.006 -1.3187  0.7000 -0.4394
  173SAPS  C21419677   0.050   6.885   4.082 -0.3336 -0.2994  0.8147
  173SAPS  H14R19678   0.063   6.993   4.064 -1.3302 -0.3947 -0.6786
  173SAPS  C21519679  -0.032   6.854   4.181 -0.0091 -0.3042 -0.5797
  173SAPS  H15R19680  -0.049   6.935   4.253  2.1074 -1.6237  1.5854
  173SAPS  C21619681  -0.071   6.716   4.224  0.6237 -0.5731  0.0550
  173SAPS  H16R19682  -0.079   6.644   4.140 -0.0123  0.8577 -1.1523
  173SAPS  H16S19683  -0.173   6.714   4.266 -0.0332  1.2632 -1.3182
  173SAPS  C21719684   0.014   6.646   4.334 -0.6330 -0.4243 -0.3734
  173SAPS  H17R19685   0.118   6.682   4.315 -0.8650 -0.6710 -2.2794
  173SAPS  H17S19686   0.007   6.536   4.325 -1.5469 -0.4972  1.0703
  173SAPS  C21819687  -0.025   6.694   4.473  0.2498  0.2632  0.4316
  173SAPS  H18R19688  -0.122   6.649   4.502  0.8880 -1.8673 -0.5349
  173SAPS  H18S19689  -0.041   6.804   4.462 -2.2108  0.0251  1.1021
  173SAPS  C21919690   0.077   6.674   4.584 -0.6403 -0.5322 -0.3979
  173SAPS  H19R19691   0.060   6.730   4.678  0.1324 -0.6080 -0.2049
  173SAPS  H19S19692   0.168   6.714   4.534 -1.1894  2.4434  0.8146
  173SAPS  C22019693   0.098   6.527   4.619 -0.2370 -0.4808  0.0947
  173SAPS  H20R19694  -0.003   6.488   4.642 -0.8897  0.3416 -1.2053
  173SAPS  H20S19695   0.173   6.511   4.700  1.5161  0.2821 -1.2957
  173SAPS  H20T19696   0.134   6.462   4.536 -1.5469 -2.6147  1.1166
  173SAPS   C3319697   0.507   7.143   3.382  0.4585 -0.9274  0.5352
  173SAPS   H3X19698   0.522   7.037   3.351 -0.8684 -0.5626 -1.5469
  173SAPS   H3Y19699   0.401   7.167   3.364  0.3204 -1.9272 -0.0781
  173SAPS   C3419700   0.545   7.176   3.524 -0.6398 -0.3371  0.3836
  173SAPS   H4X19701   0.524   7.279   3.560 -1.8026 -0.1935 -0.6454
  173SAPS   H4Y19702   0.654   7.164   3.537 -0.4562  1.0687  0.2856
  173SAPS   C3519703   0.471   7.084   3.617  0.4404 -0.1463 -0.0473
  173SAPS   H5X19704   0.493   6.981   3.581  2.1018  0.1503  0.0296
  173SAPS   H5Y19705   0.362   7.102   3.605  0.6622  1.3568  0.0393
  173SAPS   C3619706   0.524   7.103   3.757 -0.6272 -0.1638  0.0235
  173SAPS   H6X19707   0.514   7.209   3.790  3.5538 -0.3465  2.6049
  173SAPS   H6Y19708   0.634   7.090   3.759 -0.3444  1.8435 -0.0351
  173SAPS   C3719709   0.452   7.004   3.853  0.6647  0.1792  0.0185
  173SAPS   H7X19710   0.483   6.899   3.833  0.8812  0.3495 -0.5798
  173SAPS   H7Y19711   0.342   7.016   3.843  0.9412  1.4996 -2.2847
  173SAPS   C3819712   0.490   7.047   3.996 -0.3645 -0.7129  0.0246
  173SAPS   H8X19713   0.472   7.156   3.997  1.9643 -0.2692 -0.1922
  173SAPS   H8Y19714   0.599   7.033   4.014 -0.1733  0.8472  0.1816
  173SAPS   C3919715   0.401   6.977   4.101  0.3406 -0.2538 -0.7314
  173SAPS   H9X19716   0.418   6.868   4.108  1.9670  0.0670  0.9029
  173SAPS   H9Y19717   0.293   6.998   4.080  0.3705 -0.1734 -0.8108
  173SAPS  C31019718   0.442   7.028   4.245  0.5582  0.1938  0.0914
  173SAPS  H10X19719   0.422   7.136   4.258 -2.2310  0.2104 -3.0061
  173SAPS  H10Y19720   0.545   6.998   4.275  0.8236  1.4824  0.5062
  173SAPS  C31119721   0.353   6.952   4.354  0.1616 -0.1620  0.2805
  173SAPS  H11X19722   0.364   6.842   4.341  1.1986  0.2187 -2.9006
  173SAPS  H11Y19723   0.248   6.987   4.350 -0.3337 -1.3690  1.9422
  173SAPS  C31219724   0.416   6.977   4.497  0.3571 -0.1978  0.4943
  173SAPS  H12X19725   0.415   7.087   4.516  0.5356  0.0646 -0.9199
  173SAPS  H12Y19726   0.524   6.950   4.495  0.6216  0.6752  1.4727
  173SAPS  C31319727   0.352   6.897   4.614 -0.3989 -0.0556  0.4703
  173SAPS  H13X19728   0.379   6.791   4.594  1.1356  0.0434  1.7737
  173SAPS  H13Y19729   0.243   6.920   4.622 -0.3477  1.1674 -1.6536
  173SAPS  C31419730   0.417   6.930   4.751 -0.0574  0.1630  0.1702
  173SAPS  H14X19731   0.374   6.856   4.821 -1.4243  0.6325 -0.1556
  173SAPS  H14Y19732   0.383   7.032   4.778  0.7952  0.7832 -0.9774
  173SAPS  C31519733   0.572   6.926   4.757 -0.1923 -0.0887  0.1268
  173SAPS  H15X19734   0.583   6.911   4.866  0.8127 -0.8623 -0.0673
  173SAPS  H15Y19735   0.618   7.023   4.729 -0.3587  0.7580  2.5795
  173SAPS  C31619736   0.630   6.798   4.686  0.6342 -0.3487  0.4768
  173SAPS  H16X19737   0.623   6.791   4.575 -3.8936  1.6283  0.4261
  173SAPS  H16Y19738   0.575   6.711   4.726 -0.0439 -1.0455 -1.7818
  173SAPS  C31719739   0.777   6.775   4.713  0.0627  0.1434 -0.4110
  173SAPS  H17X19740   0.801   6.668   4.694 -1.1525 -0.2052 -0.0509
  173SAPS  H17Y19741   0.797   6.784   4.822 -1.1816  0.4032 -0.1951
  173SAPS  C31819742   0.867   6.872   4.637  0.6476  0.4017 -0.1777
  173SAPS  H18X19743   0.974   6.849   4.659  0.5373  0.2244  0.1701
  173SAPS  H18Y19744   0.850   6.978   4.665 -2.9864 -0.0076 -0.4049
  173SAPS  H18Z19745   0.856   6.865   4.526  2.9352 -0.8317 -0.3940
  174SAPS     N19746   0.007   4.517   2.135 -0.1404  0.8128  0.1175
  174SAPS   HN119747  -0.037   4.494   2.044  0.9527 -0.5867 -0.0959
  174SAPS   HN219748   0.092   4.573   2.113 -0.8886  1.7242 -0.5527
  174SAPS   HN319749   0.039   4.430   2.183  1.9732 -0.2374 -2.8996
  174SAPS   C1219750  -0.082   4.593   2.221 -0.8652  0.1546 -0.1685
  174SAPS  H12A19751  -0.019   4.613   2.306  1.9145 -3.3150 -1.1835
  174SAPS   C1319752  -0.124   4.728   2.163 -0.3896 -0.3314  0.2341
  174SAPS  O13A19753  -0.067   4.778   2.068  0.2643 -0.5870  0.0232
  174SAPS  O13B19754  -0.200   4.801   2.237  0.0118 -0.6029  0.0835
  174SAPS   C1119755  -0.202   4.507   2.259 -0.0250 -0.0598 -0.0901
  174SAPS  H11A19756  -0.268   4.491   2.170 -0.5714  0.2782  0.2460
  174SAPS  H11B19757  -0.263   4.576   2.321  0.6309  1.3599 -0.9645
  174SAPS     P19758  -0.278   4.287   2.379  0.0651 -0.0512 -0.0882
  174SAPS   O1319759  -0.385   4.366   2.448 -0.1963  0.1776  0.4705
  174SAPS   O1419760  -0.329   4.211   2.266 -0.0969 -0.2398  0.1686
  174SAPS   O1219761  -0.169   4.391   2.329  0.0882 -0.1645  0.0279
  174SAPS   O1119762  -0.203   4.200   2.488 -0.4564  0.1724  0.5854
  174SAPS    C119763  -0.118   4.259   2.583 -0.8671 -0.2638 -0.6404
  174SAPS    HA19764  -0.039   4.193   2.624 -1.3494 -0.1410  0.5089
  174SAPS    HB19765  -0.052   4.334   2.532  2.0177 -0.4088  2.5219
  174SAPS    C219766  -0.197   4.336   2.693 -0.1695  0.0085 -0.2212
  174SAPS    HS19767  -0.244   4.425   2.646  0.2551  0.9083  0.9905
  174SAPS   O2119768  -0.097   4.369   2.788 -0.0284 -0.0083 -0.4603
  174SAPS   C2119769  -0.122   4.485   2.855  0.2042 -0.8002 -0.2346
  174SAPS   O2219770  -0.219   4.556   2.826 -0.3128 -0.2262 -0.2305
  174SAPS   C2219771  -0.022   4.521   2.963 -0.0694  1.0052 -0.0383
  174SAPS   H2R19772   0.042   4.432   2.980 -1.3081 -0.0840 -0.8822
  174SAPS   H2S19773   0.035   4.606   2.918  1.8904 -1.9441 -3.7392
  174SAPS    C319774  -0.307   4.250   2.760 -0.2842 -0.3443  0.1411
  174SAPS    HX19775  -0.262   4.153   2.789  0.2683 -0.4303 -0.9302
  174SAPS    HY19776  -0.373   4.227   2.674  1.3729  1.1142 -1.6284
  174SAPS   O3119777  -0.372   4.311   2.870 -0.1873 -0.0749  0.1976
  174SAPS   C3119778  -0.488   4.384   2.851 -0.3562  0.1047  0.1522
  174SAPS   O3219779  -0.546   4.393   2.746 -0.0499 -0.6286  0.9190
  174SAPS   C3219780  -0.538   4.430   2.984 -0.6752 -0.3495 -0.6920
  174SAPS   H2X19781  -0.626   4.494   2.960 -1.2847 -0.2248  1.6222
  174SAPS   H2Y19782  -0.455   4.492   3.024 -1.4511 -0.0146  0.4823
  174SAPS   C2319783  -0.085   4.565   3.097 -0.0336 -0.1152  0.3172
  174SAPS   H3R19784  -0.184   4.615   3.081  0.4191  0.8443  0.4571
  174SAPS   H3S19785  -0.016   4.632   3.153 -0.4132  1.5360 -1.0737
  174SAPS   C2419786  -0.109   4.440   3.183 -0.0564  0.1116  0.8518
  174SAPS   H4R19787  -0.009   4.396   3.203 -0.2535 -1.1336 -0.6868
  174SAPS   H4S19788  -0.164   4.368   3.118  1.0007 -0.7221  0.8433
  174SAPS   C2519789  -0.186   4.444   3.308  0.5516  0.5246 -0.6258
  174SAPS   H5R19790  -0.290   4.478   3.293  1.1933  3.2919  0.7780
  174SAPS   C2619791  -0.146   4.422   3.434 -0.6285  0.3141  0.4032
  174SAPS   H6R19792  -0.223   4.425   3.513  0.0353  0.7707  1.0488
  174SAPS   C2719793  -0.001   4.375   3.478  0.6728  0.2440  0.3069
  174SAPS   H7R19794   0.072   4.384   3.395 -1.7078  0.3973 -1.8974
  174SAPS   H7S19795   0.001   4.267   3.504  0.5505 -0.1350 -1.1552
  174SAPS   C2819796   0.038   4.460   3.599 -0.5160 -0.1064  0.0449
  174SAPS   H8R19797   0.045   4.567   3.576  1.7933 -0.7250 -2.7409
  174SAPS   C2919798   0.056   4.418   3.721 -0.9088  0.3404 -0.1960
  174SAPS   H9R19799   0.076   4.491   3.801 -1.9710  0.4096  0.0297
  174SAPS  C21019800   0.075   4.282   3.783  0.2447 -0.5988  0.0736
  174SAPS  H10R19801   0.118   4.284   3.885  2.0088 -2.2372 -0.5925
  174SAPS  H10S19802   0.139   4.212   3.725  0.4491  1.6238 -2.5516
  174SAPS  C21119803  -0.063   4.223   3.796  0.6811 -0.1621 -0.0942
  174SAPS  H11R19804  -0.089   4.151   3.717  1.5643  0.1054 -0.6410
  174SAPS  C21219805  -0.153   4.230   3.896 -0.0926  0.1184  0.2297
  174SAPS  H12R19806  -0.240   4.164   3.888 -0.2727  0.5012 -1.2333
  174SAPS  C21319807  -0.125   4.314   4.018  0.7781 -0.2625  0.3453
  174SAPS  H13R19808  -0.074   4.410   3.994 -0.5497  1.2044  2.8997
  174SAPS  H13S19809  -0.065   4.252   4.088  0.0312 -2.0968 -0.5705
  174SAPS  C21419810  -0.249   4.361   4.090 -1.2815  0.1308  0.1187
  174SAPS  H14R19811  -0.335   4.371   4.022 -0.9405  0.2464 -0.2992
  174SAPS  C21519812  -0.254   4.399   4.220  0.4483  0.7093  0.4740
  174SAPS  H15R19813  -0.358   4.423   4.248  0.6428  0.4109  1.4882
  174SAPS  C21619814  -0.146   4.395   4.325  0.1261 -0.4096 -0.1344
  174SAPS  H16R19815  -0.046   4.420   4.283  0.2622  2.5796  1.7360
  174SAPS  H16S19816  -0.138   4.293   4.370  1.2857  0.6320  2.1799
  174SAPS  C21719817  -0.184   4.466   4.448 -0.0522 -0.2526  0.3708
  174SAPS  H17R19818  -0.107   4.449   4.527 -0.5346 -0.0167  0.9026
  174SAPS  H17S19819  -0.276   4.421   4.490 -2.2310  1.3566 -2.3985
  174SAPS  C21819820  -0.208   4.619   4.431  0.6438 -0.8283  0.2521
  174SAPS  H18R19821  -0.302   4.633   4.373  1.2219 -1.0463 -0.7537
  174SAPS  H18S19822  -0.126   4.659   4.368  1.6914 -1.7779  0.9680
  174SAPS  C21919823  -0.226   4.687   4.564 -0.0299 -0.2661  0.1120
  174SAPS  H19R19824  -0.141   4.657   4.628 -0.2000 -1.6908 -0.3028
  174SAPS  H19S19825  -0.327   4.663   4.601 -0.6928  1.1806 -0.6670
  174SAPS  C22019826  -0.229   4.844   4.563  0.3118  0.3201  0.3719
  174SAPS  H20R19827  -0.136   4.884   4.516  0.8628  1.1791  2.0907
  174SAPS  H20S19828  -0.218   4.879   4.668  0.1746 -1.3968  0.9800
  174SAPS  H20T19829  -0.314   4.884   4.503  1.8946  3.0820 -0.2262
  174SAPS   C3319830  -0.594   4.312   3.077  0.7623 -0.0530 -0.1147
  174SAPS   H3X19831  -0.675   4.263   3.019  1.0178  1.6339 -2.0055
  174SAPS   H3Y19832  -0.648   4.360   3.162  1.0274  2.3683 -1.2344
  174SAPS   C3419833  -0.496   4.219   3.133 -0.8999  0.3303  0.4856
  174SAPS   H4X19834  -0.406   4.268   3.177  0.8558  0.2506 -2.7072
  174SAPS   H4Y19835  -0.452   4.153   3.055 -0.1377 -0.1588  1.3043
  174SAPS   C3519836  -0.556   4.107   3.231 -0.0518  0.1924  0.6488
  174SAPS   H5X19837  -0.500   4.012   3.243 -0.3847 -0.0715  0.1321
  174SAPS   H5Y19838  -0.655   4.076   3.192  0.4686  1.1911 -1.6401
  174SAPS   C3619839  -0.587   4.166   3.366  0.0744  0.3997  0.4411
  174SAPS   H6X19840  -0.659   4.246   3.342 -0.4021 -0.2542 -0.3673
  174SAPS   H6Y19841  -0.498   4.207   3.420  0.2092  2.0916 -1.0074
  174SAPS   C3719842  -0.642   4.067   3.473  0.0484 -0.0480  0.4547
  174SAPS   H7X19843  -0.622   4.095   3.579 -0.2028  0.6603  0.3232
  174SAPS   H7Y19844  -0.599   3.968   3.448 -0.3964  0.0302 -0.6862
  174SAPS   C3819845  -0.792   4.035   3.470 -0.0359  0.7455  0.0947
  174SAPS   H8X19846  -0.815   4.003   3.367 -0.2051  0.8660  0.0943
  174SAPS   H8Y19847  -0.851   4.124   3.502 -1.1113 -0.1509  0.6907
  174SAPS   C3919848  -0.823   3.933   3.585  0.0395 -0.2334  0.4329
  174SAPS   H9X19849  -0.799   3.985   3.680 -1.6390  3.5046 -0.9569
  174SAPS   H9Y19850  -0.777   3.833   3.571 -0.2953 -0.3117 -0.1785
  174SAPS  C31019851  -0.976   3.904   3.591  0.5874 -0.2412 -0.1085
  174SAPS  H10X19852  -1.027   4.002   3.573 -3.0427 -1.4997  2.1112
  174SAPS  H10Y19853  -1.000   3.866   3.693 -0.7699  0.8572  0.0083
  174SAPS  C31119854  -1.035   3.806   3.486  0.0386 -0.5512  0.3249
  174SAPS  H11X19855  -0.999   3.705   3.516 -1.5616 -0.5850  2.2658
  174SAPS  H11Y19856  -1.003   3.840   3.385 -2.0066 -1.6770 -0.7730
  174SAPS  C31219857  -1.185   3.792   3.473 -0.6540 -0.4877  0.7274
  174SAPS  H12X19858  -1.221   3.895   3.456 -1.1620 -0.8238 -0.3106
  174SAPS  H12Y19859  -1.232   3.762   3.570 -3.1780 -1.6459 -0.7528
  174SAPS  C31319860  -1.236   3.691   3.364 -0.7263 -0.1013  0.6771
  174SAPS  H13X19861  -1.347   3.694   3.359 -0.6665  1.8468 -0.6262
  174SAPS  H13Y19862  -1.201   3.591   3.395 -1.1041 -0.4406  0.0382
  174SAPS  C31419863  -1.202   3.726   3.217 -0.3566 -0.4719  0.2208
  174SAPS  H14X19864  -1.096   3.702   3.194 -0.6133 -2.1402  0.6610
  174SAPS  H14Y19865  -1.215   3.835   3.200 -0.5326 -0.3673  1.0232
  174SAPS  C31519866  -1.275   3.641   3.113 -0.6168 -0.1551  0.0905
  174SAPS  H15X19867  -1.382   3.670   3.117  0.0541  2.5480  0.9861
  174SAPS  H15Y19868  -1.268   3.535   3.145 -1.1600 -0.0598  0.5340
  174SAPS  C31619869  -1.234   3.661   2.963 -0.9956 -0.0027 -0.1416
  174SAPS  H16X19870  -1.131   3.631   2.934 -0.3432 -0.0610  2.0414
  174SAPS  H16Y19871  -1.239   3.771   2.948 -1.2408  0.1738  1.1368
  174SAPS  C31719872  -1.327   3.588   2.873  0.4748 -0.2893 -0.1536
  174SAPS  H17X19873  -1.430   3.598   2.911  0.3200 -0.3217 -0.5582
  174SAPS  H17Y19874  -1.310   3.479   2.881 -1.3120 -0.5488  0.5242
  174SAPS  C31819875  -1.305   3.628   2.722  0.3818 -0.6032 -0.3157
  174SAPS  H18X19876  -1.346   3.731   2.707 -0.7269 -1.2324 -2.0374
  174SAPS  H18Y19877  -1.360   3.556   2.657  0.8880 -0.0547 -1.3909
  174SAPS  H18Z19878  -1.195   3.628   2.710  0.9033 -2.4105  3.1756
  175SAPS     N19879   1.670   4.116   2.123 -0.1004  0.5780 -0.4614
  175SAPS   HN119880   1.714   4.173   2.198 -0.3783  1.4520 -0.9379
  175SAPS   HN219881   1.573   4.146   2.098 -0.9021 -2.8349 -2.1380
  175SAPS   HN319882   1.657   4.022   2.166  3.2658 -0.2231 -0.9591
  175SAPS   C1219883   1.753   4.130   2.006 -0.2803 -0.1403 -0.1566
  175SAPS  H12A19884   1.728   4.054   1.934  2.1656  0.1361 -1.4057
  175SAPS   C1319885   1.750   4.277   1.941 -0.4315  0.2112 -0.8329
  175SAPS  O13A19886   1.675   4.359   1.993  0.1320  0.1269 -0.3798
  175SAPS  O13B19887   1.818   4.315   1.840 -0.0560 -0.5450  0.1914
  175SAPS   C1119888   1.898   4.081   2.025 -1.0190  0.0539 -0.0177
  175SAPS  H11A19889   1.952   4.091   1.928 -0.9857  2.1701  0.1535
  175SAPS  H11B19890   1.907   3.975   2.056  0.6911  0.5708  1.3994
  175SAPS     P19891   2.112   4.182   2.133 -0.1006  0.0349  0.0667
  175SAPS   O1319892   2.168   4.065   2.064 -0.2290 -0.3104  0.0520
  175SAPS   O1419893   2.152   4.313   2.084  0.1441  0.4891 -0.0270
  175SAPS   O1219894   1.951   4.162   2.136  0.3625 -0.4850 -0.6995
  175SAPS   O1119895   2.137   4.188   2.288  0.6561 -0.1186 -0.3692
  175SAPS    C119896   2.225   4.100   2.361  0.2603 -0.6018 -0.4138
  175SAPS    HA19897   2.311   4.056   2.306  0.7296 -1.3580  0.8720
  175SAPS    HB19898   2.288   4.155   2.434  0.5557  0.8671 -1.7248
  175SAPS    C219899   2.156   3.973   2.418 -0.4662  0.1930  0.4143
  175SAPS    HS19900   2.082   3.941   2.341  1.7144 -4.0496 -0.1699
  175SAPS   O2119901   2.101   4.009   2.545 -0.1992 -0.2760  0.0023
  175SAPS   C2119902   2.010   3.928   2.591  0.0052  0.4514  0.6572
  175SAPS   O2219903   1.989   3.816   2.539  0.1167  0.4913 -0.2232
  175SAPS   C2219904   1.938   3.977   2.715 -0.0365 -0.2536  0.2466
  175SAPS   H2R19905   2.012   3.961   2.796 -0.9133 -2.5233  0.6798
  175SAPS   H2S19906   1.942   4.088   2.705  3.5987 -0.3859 -1.3212
  175SAPS    C319907   2.264   3.853   2.437  0.7301 -0.8079 -0.0707
  175SAPS    HX19908   2.315   3.833   2.340  3.0376  0.2356  0.8467
  175SAPS    HY19909   2.219   3.757   2.470 -0.5870  0.3388  1.6416
  175SAPS   O3119910   2.372   3.890   2.528  0.0136  0.2077 -0.3529
  175SAPS   C3119911   2.364   3.840   2.653  0.4047  0.3892 -0.3276
  175SAPS   O3219912   2.267   3.772   2.697  0.1519 -0.8181  0.3238
  175SAPS   C3219913   2.475   3.893   2.747  0.7855  0.3078  0.5803
  175SAPS   H2X19914   2.476   4.003   2.729 -0.8963  0.1657 -0.6651
  175SAPS   H2Y19915   2.570   3.841   2.721  1.2801  1.4325  0.0582
  175SAPS   C2319916   1.807   3.908   2.748 -0.0546  0.3272  0.6223
  175SAPS   H3R19917   1.823   3.801   2.772 -1.6267  0.0973  0.7986
  175SAPS   H3S19918   1.731   3.919   2.668  1.2552 -1.0291 -0.8570
  175SAPS   C2419919   1.747   3.978   2.875 -0.3805 -0.3369 -0.2005
  175SAPS   H4R19920   1.831   3.980   2.948 -0.0858 -2.2818 -0.4535
  175SAPS   H4S19921   1.663   3.911   2.901 -0.7134  0.1490 -0.0007
  175SAPS   C2519922   1.694   4.118   2.847 -1.1885 -0.2532 -0.0669
  175SAPS   H5R19923   1.748   4.150   2.757 -1.6622 -2.4389 -1.1994
  175SAPS   C2619924   1.601   4.186   2.906  0.0785  0.0945 -0.0626
  175SAPS   H6R19925   1.591   4.290   2.870 -1.1958 -0.1168 -0.3785
  175SAPS   C2719926   1.527   4.145   3.032 -0.2819 -0.4557  0.2755
  175SAPS   H7R19927   1.536   4.227   3.106  0.2465  0.4375 -0.7379
  175SAPS   H7S19928   1.574   4.052   3.070  0.1827 -0.4649 -0.3042
  175SAPS   C2819929   1.380   4.108   3.004 -0.3202 -0.0231  0.3861
  175SAPS   H8R19930   1.351   4.116   2.898  1.4086  1.1776 -0.0462
  175SAPS   C2919931   1.293   4.048   3.087 -0.5788 -0.9031 -0.1368
  175SAPS   H9R19932   1.199   4.008   3.045 -0.2145  0.6897 -2.6882
  175SAPS  C21019933   1.324   4.048   3.236  0.0515  0.2932 -0.3675
  175SAPS  H10R19934   1.433   4.032   3.246  0.3092  2.6368  1.4321
  175SAPS  H10S19935   1.273   3.961   3.283  0.9966  0.7599  1.6245
  175SAPS  C21119936   1.261   4.157   3.322  0.0358 -0.2403  0.2700
  175SAPS  H11R19937   1.191   4.222   3.267 -0.2754  0.5329  1.5351
  175SAPS  C21219938   1.317   4.201   3.443  0.2236  0.2354  0.2284
  175SAPS  H12R19939   1.260   4.277   3.499  0.0037  0.9437 -0.9096
  175SAPS  C21319940   1.432   4.136   3.512  0.2657 -0.4661 -0.0078
  175SAPS  H13R19941   1.527   4.173   3.468  0.6709  0.2859  1.4265
  175SAPS  H13S19942   1.437   4.026   3.496 -1.2410 -0.1949 -2.9939
  175SAPS  C21419943   1.426   4.178   3.659  0.0867 -0.0259 -0.3732
  175SAPS  H14R19944   1.481   4.269   3.686 -0.9291  0.1623  1.1775
  175SAPS  C21519945   1.364   4.106   3.755 -0.2859 -0.6132  0.2415
  175SAPS  H15R19946   1.364   4.151   3.856 -0.8530  2.4639 -1.0162
  175SAPS  C21619947   1.287   3.976   3.732 -0.3196  0.2929  0.5934
  175SAPS  H16R19948   1.267   3.958   3.624 -1.4420 -0.5488  0.9260
  175SAPS  H16S19949   1.188   3.981   3.783 -0.4415 -1.2127  0.5430
  175SAPS  C21719950   1.367   3.846   3.777  0.2767 -0.2471  1.0450
  175SAPS  H17R19951   1.391   3.842   3.885  0.5955 -1.2728  0.9503
  175SAPS  H17S19952   1.461   3.851   3.719  1.6346 -1.7107  2.9878
  175SAPS  C21819953   1.287   3.721   3.741  1.0240  0.5347  0.1414
  175SAPS  H18R19954   1.182   3.728   3.775  0.8601 -1.4676  0.1757
  175SAPS  H18S19955   1.327   3.631   3.792 -0.1188 -0.5920 -0.9013
  175SAPS  C21919956   1.272   3.688   3.587  0.7590  0.1825 -0.4977
  175SAPS  H19R19957   1.373   3.656   3.551 -0.5161 -3.2175 -1.3723
  175SAPS  H19S19958   1.234   3.781   3.539  1.3023  1.3249  1.2042
  175SAPS  C22019959   1.178   3.580   3.548 -0.1560  0.2728  0.3657
  175SAPS  H20R19960   1.185   3.478   3.590 -0.5118  0.2346  0.3353
  175SAPS  H20S19961   1.193   3.559   3.440  3.7712 -1.5649  1.0799
  175SAPS  H20T19962   1.073   3.611   3.566 -0.9764 -1.0371 -1.8005
  175SAPS   C3319963   2.436   3.882   2.900  0.2336 -0.5109  0.0711
  175SAPS   H3X19964   2.329   3.907   2.915  0.1582 -1.0809  0.5343
  175SAPS   H3Y19965   2.506   3.951   2.951  2.3886 -1.6858 -1.1271
  175SAPS   C3419966   2.463   3.746   2.952  0.0177  0.3937  0.0187
  175SAPS   H4X19967   2.565   3.714   2.920  0.2051 -0.9402  1.7679
  175SAPS   H4Y19968   2.396   3.672   2.904  1.2198 -1.6796  1.3611
  175SAPS   C3519969   2.456   3.739   3.108 -0.3750 -0.1483  0.0400
  175SAPS   H5X19970   2.496   3.823   3.168 -0.2359  1.0769 -1.6684
  175SAPS   H5Y19971   2.507   3.647   3.143  1.1229  0.4953 -0.3541
  175SAPS   C3619972   2.309   3.752   3.148  0.0333 -0.6426  1.0458
  175SAPS   H6X19973   2.247   3.671   3.105  0.7267 -1.5398  1.7163
  175SAPS   H6Y19974   2.266   3.847   3.108  1.0123 -0.7322 -0.2839
  175SAPS   C3719975   2.283   3.719   3.294  0.2745 -0.7200 -0.7170
  175SAPS   H7X19976   2.308   3.616   3.328  1.0556  0.5146  3.0140
  175SAPS   H7Y19977   2.173   3.727   3.306  0.3796  1.6163 -0.7063
  175SAPS   C3819978   2.348   3.816   3.394  0.1335 -0.0644  0.7518
  175SAPS   H8X19979   2.346   3.923   3.362 -0.9893  0.0068  0.9826
  175SAPS   H8Y19980   2.453   3.785   3.407 -0.1575 -2.4885 -1.7289
  175SAPS   C3919981   2.279   3.818   3.532  0.7114  0.2306 -0.0496
  175SAPS   H9X19982   2.289   3.719   3.582  1.3474 -0.3858 -1.3540
  175SAPS   H9Y19983   2.173   3.846   3.519  0.5030  0.5957  2.1174
  175SAPS  C31019984   2.345   3.916   3.625  0.3332 -0.4088 -0.2602
  175SAPS  H10X19985   2.336   4.022   3.596 -0.1918 -0.3148  0.2307
  175SAPS  H10Y19986   2.454   3.894   3.621  0.4724 -0.1315  1.1818
  175SAPS  C31119987   2.289   3.888   3.768  0.4309 -0.0856  0.1934
  175SAPS  H11X19988   2.306   3.781   3.791 -2.7472 -0.8702 -0.5659
  175SAPS  H11Y19989   2.178   3.891   3.761  0.4619  1.3119 -0.0552
  175SAPS  C31219990   2.347   3.975   3.878  0.8403 -0.2144 -0.1060
  175SAPS  H12X19991   2.283   3.968   3.969 -0.0570  0.8209 -0.6477
  175SAPS  H12Y19992   2.333   4.079   3.843 -2.9749 -0.5142  0.0952
  175SAPS  C31319993   2.496   3.947   3.901  0.3795  0.8797  0.5017
  175SAPS  H13X19994   2.552   3.986   3.813 -0.2029  1.6666  0.4698
  175SAPS  H13Y19995   2.513   3.838   3.913 -0.4241  0.5662 -0.9355
  175SAPS  C31419996   2.551   4.018   4.024  0.3960  0.3406  0.2063
  175SAPS  H14X19997   2.508   4.120   4.017 -0.0415  0.0674 -1.6498
  175SAPS  H14Y19998   2.661   4.036   4.018  1.0575 -3.2019 -0.4398
  175SAPS  C31519999   2.501   3.956   4.151  0.0450  0.0677 -0.1760
  175SAPS  H15X20000   2.549   3.856   4.164 -0.0896 -0.0695 -0.6990
  175SAPS  H15Y20001   2.390   3.953   4.148 -0.0583  1.9649 -4.1487
  175SAPS  C31620002   2.553   4.035   4.275 -0.4900 -0.0151 -0.1606
  175SAPS  H16X20003   2.500   4.132   4.286 -1.1373 -0.2295 -1.2814
  175SAPS  H16Y20004   2.660   4.064   4.268 -0.7641  0.8630 -0.9427
  175SAPS  C31720005   2.537   3.948   4.395  0.6090  0.5230 -0.3237
  175SAPS  H17X20006   2.588   3.850   4.390 -0.2993  0.0818 -1.0730
  175SAPS  H17Y20007   2.432   3.912   4.404 -0.2102  2.8092 -0.0066
  175SAPS  C31820008   2.574   4.021   4.528  0.2639 -0.4936 -0.5678
  175SAPS  H18X20009   2.679   4.059   4.520  0.3441  0.5031  3.3403
  175SAPS  H18Y20010   2.585   3.945   4.608 -1.0873  0.8412  0.9586
  175SAPS  H18Z20011   2.501   4.103   4.546 -0.5569 -0.9620 -1.6756
  176SAPS     N20012   4.407   2.141   2.574  0.1992  0.2214  0.1367
  176SAPS   HN120013   4.428   2.142   2.676  0.3811 -1.0093  0.1252
  176SAPS   HN220014   4.497   2.111   2.531  0.0425 -2.6025  1.5317
  176SAPS   HN320015   4.380   2.236   2.541 -0.0744 -0.4299 -1.6118
  176SAPS   C1220016   4.284   2.049   2.539  0.0730 -0.4334 -0.6980
  176SAPS  H12A20017   4.204   2.121   2.538  1.5922  1.3944  1.1898
  176SAPS   C1320018   4.304   1.988   2.400  0.4320 -0.5298  0.0483
  176SAPS  O13A20019   4.422   1.992   2.352  0.2070 -0.2362 -0.5334
  176SAPS  O13B20020   4.206   1.978   2.323  0.2860  0.6487 -0.4465
  176SAPS   C1120021   4.257   1.941   2.645 -0.5246  0.1904  0.3308
  176SAPS  H11A20022   4.342   1.869   2.643  0.7374  1.6282 -0.4114
  176SAPS  H11B20023   4.169   1.880   2.615  0.3115 -1.2203  0.6705
  176SAPS     P20024   4.346   1.985   2.887  0.3337 -0.2138 -0.1880
  176SAPS   O1320025   4.457   2.070   2.840 -0.1923  0.2162  0.1528
  176SAPS   O1420026   4.287   2.023   3.018  0.2254 -0.3533  0.4579
  176SAPS   O1220027   4.237   1.992   2.777 -0.8113  0.5463  0.6457
  176SAPS   O1120028   4.392   1.835   2.883 -0.3784  0.2144  0.4789
  176SAPS    C120029   4.324   1.729   2.929  1.0091  1.0917 -0.5692
  176SAPS    HA20030   4.214   1.718   2.912  0.8526 -2.3724  1.7485
  176SAPS    HB20031   4.369   1.646   2.871 -1.3657 -0.9877  0.3866
  176SAPS    C220032   4.342   1.688   3.079  0.0690 -0.4146 -0.0160
  176SAPS    HS20033   4.267   1.744   3.139  0.1635 -0.2992 -0.0058
  176SAPS   O2120034   4.470   1.739   3.134  0.3709 -0.4683  0.3344
  176SAPS   C2120035   4.468   1.772   3.265 -0.5174 -0.6114 -0.9127
  176SAPS   O2220036   4.374   1.760   3.338 -0.4454 -0.3950 -0.1283
  176SAPS   C2220037   4.604   1.837   3.295 -0.8812  0.7672 -0.4350
  176SAPS   H2R20038   4.670   1.750   3.321 -2.4345 -0.5840 -0.8408
  176SAPS   H2S20039   4.647   1.887   3.206  0.8845 -1.7532 -1.1237
  176SAPS    C320040   4.317   1.534   3.099 -0.6399  0.2948  0.8131
  176SAPS    HX20041   4.392   1.476   3.043 -1.7958  0.5082 -1.0419
  176SAPS    HY20042   4.219   1.511   3.051  0.5177  1.0184 -2.0700
  176SAPS   O3120043   4.316   1.491   3.240 -0.3379 -0.3090  0.5653
  176SAPS   C3120044   4.190   1.518   3.295 -0.9310  0.2581  0.2343
  176SAPS   O3220045   4.100   1.572   3.235 -0.6127 -0.0438  0.4745
  176SAPS   C3220046   4.184   1.461   3.437  0.3556 -0.0741 -0.5858
  176SAPS   H2X20047   4.268   1.507   3.493  0.1282  1.2532 -1.2974
  176SAPS   H2Y20048   4.204   1.352   3.430 -0.3551 -0.3541  1.2409
  176SAPS   C2320049   4.619   1.923   3.429 -0.6307  0.0344 -0.6138
  176SAPS   H3R20050   4.544   1.886   3.503 -0.6696  1.7471  0.2706
  176SAPS   H3S20051   4.592   2.030   3.411 -1.6633 -0.1214 -0.1113
  176SAPS   C2420052   4.759   1.918   3.488 -0.1899 -0.5502 -0.4226
  176SAPS   H4R20053   4.786   1.817   3.525 -0.1004 -0.9191 -1.4499
  176SAPS   H4S20054   4.771   1.974   3.583  0.5768 -1.4218  0.0163
  176SAPS   C2520055   4.846   1.980   3.384  0.4148  0.3933  0.0324
  176SAPS   H5R20056   4.833   1.932   3.286 -2.0126  1.6742 -0.3353
  176SAPS   C2620057   4.944   2.074   3.400 -0.4065 -1.6390 -0.3883
  176SAPS   H6R20058   4.992   2.127   3.316  0.5906  0.4906  1.4331
  176SAPS   C2720059   4.993   2.138   3.529 -0.5910 -0.1168  0.3638
  176SAPS   H7R20060   5.103   2.152   3.513 -0.5328 -0.4670  0.4465
  176SAPS   H7S20061   4.995   2.069   3.615 -2.1705  1.8136  2.0374
  176SAPS   C2820062   4.927   2.274   3.572  1.1349 -0.3592 -0.7429
  176SAPS   H8R20063   4.900   2.353   3.500 -1.7770  1.3641  1.9813
  176SAPS   C2920064   4.903   2.302   3.700 -0.4560  0.6155  0.2983
  176SAPS   H9R20065   4.852   2.396   3.722  3.4693  2.7785  1.0057
  176SAPS  C21020066   4.939   2.222   3.823  0.4115 -0.4254 -0.3724
  176SAPS  H10R20067   4.979   2.293   3.899 -2.3727  0.6437  0.2001
  176SAPS  H10S20068   5.011   2.141   3.798  0.9821  0.0180 -0.2082
  176SAPS  C21120069   4.818   2.162   3.889  0.0441  0.9088  0.1106
  176SAPS  H11R20070   4.785   2.074   3.831  0.0548  0.5453  0.6531
  176SAPS  C21220071   4.753   2.196   4.002  0.5522  0.2152  0.3792
  176SAPS  H12R20072   4.661   2.140   4.022 -0.2990  1.2217 -0.5624
  176SAPS  C21320073   4.777   2.317   4.093 -0.0203  0.7708  0.1775
  176SAPS  H13R20074   4.827   2.402   4.042  1.4960 -0.1472  0.0680
  176SAPS  H13S20075   4.845   2.281   4.173  1.0980  2.4164  0.0089
  176SAPS  C21420076   4.642   2.354   4.151 -0.2909  0.3207 -0.1518
  176SAPS  H14R20077   4.552   2.343   4.088 -0.2325  0.7441 -0.3116
  176SAPS  C21520078   4.612   2.435   4.253 -0.4305 -0.9857 -0.1086
  176SAPS  H15R20079   4.506   2.440   4.280 -0.6755 -2.0019 -0.7960
  176SAPS  C21620080   4.715   2.505   4.335  0.4611  0.2333 -0.1893
  176SAPS  H16R20081   4.755   2.602   4.300  2.8691 -0.3241  0.8153
  176SAPS  H16S20082   4.809   2.448   4.329  1.6984  2.2868 -1.6709
  176SAPS  C21720083   4.657   2.528   4.481 -0.3142 -0.0325  0.0283
  176SAPS  H17R20084   4.565   2.591   4.478 -0.1295  0.2034 -0.9178
  176SAPS  H17S20085   4.733   2.593   4.528 -0.1303 -0.1653 -0.0829
  176SAPS  C21820086   4.634   2.390   4.560  0.2334 -0.6479 -0.4426
  176SAPS  H18R20087   4.735   2.347   4.576 -0.2665 -1.9406 -0.6358
  176SAPS  H18S20088   4.577   2.323   4.492 -2.2042 -0.2132  1.0509
  176SAPS  C21920089   4.556   2.415   4.690 -0.0492  0.7256 -0.2917
  176SAPS  H19R20090   4.546   2.313   4.734 -2.1936  0.8902 -0.2837
  176SAPS  H19S20091   4.450   2.445   4.673 -0.2070 -0.8837 -2.5806
  176SAPS  C22020092   4.626   2.508   4.795 -0.4882  0.2784 -0.1287
  176SAPS  H20R20093   4.592   2.479   4.897  3.6936 -2.3924  0.7444
  176SAPS  H20S20094   4.622   2.618   4.779  0.2784  0.2098 -0.8486
  176SAPS  H20T20095   4.734   2.485   4.792 -0.7055 -1.3105  2.0330
  176SAPS   C3320096   4.044   1.476   3.496 -0.1309 -0.0378 -0.4450
  176SAPS   H3X20097   3.958   1.457   3.428  0.1265  1.6202 -1.2837
  176SAPS   H3Y20098   4.027   1.581   3.526  0.9095 -0.1545  0.6445
  176SAPS   C3420099   4.045   1.385   3.622 -0.0185  0.3508  0.3244
  176SAPS   H4X20100   4.133   1.409   3.686  0.9922 -1.5222 -0.2655
  176SAPS   H4Y20101   4.062   1.276   3.602  0.8934  0.6537 -0.6745
  176SAPS   C3520102   3.905   1.402   3.688 -0.5445 -0.0644 -0.5333
  176SAPS   H5X20103   3.829   1.388   3.609 -1.2013  0.9187 -0.0987
  176SAPS   H5Y20104   3.903   1.506   3.728 -0.2089 -0.6307  1.0383
  176SAPS   C3620105   3.887   1.299   3.808  0.1783  0.1429  0.0734
  176SAPS   H6X20106   3.963   1.326   3.884  0.4285  1.9727 -0.7775
  176SAPS   H6Y20107   3.908   1.195   3.776 -0.7660  0.4937 -1.8513
  176SAPS   C3720108   3.748   1.294   3.879 -0.1291  0.1863 -0.8317
  176SAPS   H7X20109   3.665   1.270   3.808  1.5684 -0.4813 -2.6794
  176SAPS   H7Y20110   3.723   1.393   3.922 -0.8116 -0.4542  0.3166
  176SAPS   C3820111   3.748   1.187   3.987  0.3009 -0.4376 -0.3226
  176SAPS   H8X20112   3.788   1.091   3.949  2.7711  0.2247  0.4278
  176SAPS   H8Y20113   3.642   1.171   4.019  0.6374 -0.7200  0.6919
  176SAPS   C3920114   3.824   1.232   4.113 -0.1027 -0.8064  0.2771
  176SAPS   H9X20115   3.923   1.268   4.079  0.2710 -0.5728  1.5672
  176SAPS   H9Y20116   3.842   1.138   4.170 -0.0871  0.2467  2.0747
  176SAPS  C31020117   3.745   1.331   4.202  0.1246 -0.2431 -0.5449
  176SAPS  H10X20118   3.665   1.272   4.251  0.0198 -0.2274 -0.6940
  176SAPS  H10Y20119   3.682   1.402   4.144  2.7444  1.3895 -1.5988
  176SAPS  C31120120   3.831   1.400   4.310  0.3164  0.3290  0.1526
  176SAPS  H11X20121   3.895   1.478   4.264 -0.8403  1.8791  1.1002
  176SAPS  H11Y20122   3.910   1.332   4.348 -0.5352  0.3983  2.2042
  176SAPS  C31220123   3.754   1.455   4.427 -0.3963  0.0437 -0.0331
  176SAPS  H12X20124   3.678   1.524   4.384 -0.3780 -1.1601 -2.1570
  176SAPS  H12Y20125   3.823   1.515   4.490 -0.1807  0.7503 -0.9152
  176SAPS  C31320126   3.703   1.340   4.513 -0.2846  0.5254 -0.7935
  176SAPS  H13X20127   3.794   1.322   4.574 -1.7941 -0.1385  1.3760
  176SAPS  H13Y20128   3.676   1.246   4.460 -0.9877  1.2482 -1.7524
  176SAPS  C31420129   3.592   1.370   4.609 -0.3281 -0.1136  0.3317
  176SAPS  H14X20130   3.506   1.389   4.542  0.2882  1.2148 -0.1347
  176SAPS  H14Y20131   3.617   1.459   4.672  0.2631 -0.5062  0.6582
  176SAPS  C31520132   3.557   1.250   4.702 -0.5230 -0.6184 -0.0150
  176SAPS  H15X20133   3.641   1.218   4.767 -1.7886 -2.1189  0.9574
  176SAPS  H15Y20134   3.525   1.169   4.633  0.4507 -0.7715 -0.2976
  176SAPS  C31620135   3.436   1.287   4.791  0.2414 -0.4230  0.6311
  176SAPS  H16X20136   3.365   1.350   4.735 -0.1635 -2.5761 -1.4292
  176SAPS  H16Y20137   3.464   1.357   4.873 -1.8466  0.7501  0.3987
  176SAPS  C31720138   3.370   1.165   4.862 -0.4664 -0.6319  0.7551
  176SAPS  H17X20139   3.310   1.111   4.785  0.0820  2.0306 -1.7138
  176SAPS  H17Y20140   3.293   1.192   4.937 -0.8750 -0.5593  0.3182
  176SAPS  C31820141   3.466   1.057   4.909 -0.4489  0.0113  0.1695
  176SAPS  H18X20142   3.503   1.004   4.819 -2.6310 -0.1321 -0.7194
  176SAPS  H18Y20143   3.410   0.978   4.963  0.0685 -0.5085 -0.0454
  176SAPS  H18Z20144   3.546   1.084   4.981 -1.2999 -1.3930  1.7095
  177SAPS     N20145   0.729   6.067   1.987  0.1123 -0.8299  0.0202
  177SAPS   HN120146   0.787   5.981   1.977 -0.3349 -0.8079 -4.4379
  177SAPS   HN220147   0.669   6.064   2.072 -0.8711 -0.8302 -0.6570
  177SAPS   HN320148   0.677   6.058   1.898 -1.8137  0.1260  0.9768
  177SAPS   C1220149   0.808   6.189   1.996 -0.0951  0.5470  0.7578
  177SAPS  H12A20150   0.865   6.200   1.905 -1.9414 -2.6917 -1.0184
  177SAPS   C1320151   0.717   6.318   2.014  0.3817  0.3492  0.0921
  177SAPS  O13A20152   0.597   6.308   2.041  0.5226 -0.4400  0.3820
  177SAPS  O13B20153   0.773   6.433   2.007  0.0827  1.1244 -0.2517
  177SAPS   C1120154   0.914   6.175   2.109  0.0561  0.2107 -0.2745
  177SAPS  H11A20155   0.860   6.156   2.205 -2.1285 -3.4729 -1.9938
  177SAPS  H11B20156   0.956   6.277   2.124 -0.2948  0.2940  0.1951
  177SAPS     P20157   1.021   5.936   2.147  0.0543 -0.2030 -0.1884
  177SAPS   O1320158   0.897   5.863   2.132  0.6528 -0.5626  0.3084
  177SAPS   O1420159   1.148   5.871   2.104 -0.1241  0.5484  0.0849
  177SAPS   O1220160   1.011   6.080   2.089  0.1252 -0.7755  0.5081
  177SAPS   O1120161   1.037   5.976   2.300  0.0121 -0.1439  0.4258
  177SAPS    C120162   1.164   6.014   2.354 -0.6292 -0.3600  0.0817
  177SAPS    HA20163   1.251   6.009   2.285  1.9148 -0.5946  3.1307
  177SAPS    HB20164   1.166   6.119   2.392 -0.7964 -1.2880  2.8502
  177SAPS    C220165   1.197   5.918   2.473 -0.6176  0.6169  0.7465
  177SAPS    HS20166   1.215   5.817   2.430  0.1395 -0.1698  2.7962
  177SAPS   O2120167   1.083   5.906   2.557 -0.2610 -0.0931 -0.4504
  177SAPS   C2120168   1.075   5.801   2.629  0.4273 -0.4667  0.5170
  177SAPS   O2220169   1.155   5.707   2.638 -0.6704 -0.2391 -0.0726
  177SAPS   C2220170   0.946   5.807   2.715 -0.0301  0.3034 -0.4344
  177SAPS   H2R20171   0.939   5.906   2.764  1.1038 -0.5077  1.4537
  177SAPS   H2S20172   0.862   5.793   2.643  1.1152  1.9091 -2.1638
  177SAPS    C320173   1.337   5.963   2.539 -0.2330 -0.6262  0.4669
  177SAPS    HX20174   1.320   6.069   2.567 -2.4180 -0.3400 -1.5819
  177SAPS    HY20175   1.433   5.969   2.483 -0.2913 -0.0218  0.4255
  177SAPS   O3120176   1.361   5.901   2.658  0.1670  0.0752  0.1855
  177SAPS   C3120177   1.445   5.793   2.668 -0.3280 -0.2735  0.0763
  177SAPS   O3220178   1.497   5.735   2.577  0.0892  0.3632  0.0292
  177SAPS   C3220179   1.462   5.746   2.815 -0.2025  0.1329 -0.2151
  177SAPS   H2X20180   1.436   5.835   2.876 -0.0677 -0.0905  0.1748
  177SAPS   H2Y20181   1.569   5.720   2.832 -0.0201 -0.8775 -2.5689
  177SAPS   C2320182   0.943   5.689   2.816 -0.0770  0.7311 -0.1804
  177SAPS   H3R20183   1.043   5.685   2.864  0.1524 -1.0105 -0.7068
  177SAPS   H3S20184   0.928   5.585   2.779  0.6977 -0.2819  2.1398
  177SAPS   C2420185   0.850   5.720   2.934  0.2453  0.9110 -0.2433
  177SAPS   H4R20186   0.748   5.709   2.892 -0.0791 -0.1959  0.7771
  177SAPS   H4S20187   0.880   5.824   2.961  0.6537  0.7663 -0.1394
  177SAPS   C2520188   0.846   5.627   3.055 -0.0774  0.7338  0.3713
  177SAPS   H5R20189   0.807   5.527   3.029  1.3070  0.3354 -0.3104
  177SAPS   C2620190   0.868   5.655   3.182 -0.2823 -0.4649  0.3765
  177SAPS   H6R20191   0.861   5.577   3.259 -1.3450 -0.8326 -0.0677
  177SAPS   C2720192   0.909   5.790   3.245 -0.8582  0.5321 -0.7905
  177SAPS   H7R20193   0.946   5.865   3.171 -0.3795  1.0594 -0.0396
  177SAPS   H7S20194   0.992   5.772   3.317 -0.8111  0.3684 -0.8856
  177SAPS   C2820195   0.806   5.864   3.316  0.0273 -0.7081 -0.5815
  177SAPS   H8R20196   0.780   5.954   3.257  0.2553 -1.0688 -1.2420
  177SAPS   C2920197   0.759   5.843   3.439  0.1508 -0.3054 -0.2618
  177SAPS   H9R20198   0.667   5.894   3.470 -1.6034 -3.0609 -0.6042
  177SAPS  C21020199   0.803   5.733   3.529 -0.5170 -0.7182 -0.3998
  177SAPS  H10R20200   0.794   5.762   3.636  2.2341  0.9813 -0.5220
  177SAPS  H10S20201   0.910   5.706   3.511 -0.8660 -1.3768 -1.5792
  177SAPS  C21120202   0.730   5.600   3.514  0.7669 -0.0588 -0.2363
  177SAPS  H11R20203   0.737   5.549   3.417  2.6669  0.7568 -0.5693
  177SAPS  C21220204   0.656   5.547   3.613  0.8179 -0.0023 -1.0112
  177SAPS  H12R20205   0.603   5.453   3.592 -1.1755  0.6016  0.9279
  177SAPS  C21320206   0.625   5.614   3.748 -0.2308  0.5601  0.7433
  177SAPS  H13R20207   0.717   5.665   3.785 -0.5003  1.9617 -0.4050
  177SAPS  H13S20208   0.590   5.537   3.819 -0.5662  1.7192  1.8754
  177SAPS  C21420209   0.523   5.727   3.736 -0.1783 -0.8440  0.0377
  177SAPS  H14R20210   0.536   5.793   3.649  1.9082  0.6312  1.3794
  177SAPS  C21520211   0.420   5.752   3.820 -0.2159  0.8772  0.2497
  177SAPS  H15R20212   0.350   5.831   3.791 -1.2366 -0.6063 -1.5573
  177SAPS  C21620213   0.386   5.675   3.944  0.4199 -0.0028 -0.3602
  177SAPS  H16R20214   0.478   5.631   3.987  0.7814  0.3527 -0.7661
  177SAPS  H16S20215   0.317   5.591   3.920  0.5371 -1.2354  3.0416
  177SAPS  C21720216   0.323   5.768   4.047 -0.0476  0.1587 -0.3011
  177SAPS  H17R20217   0.244   5.829   3.997 -1.9409 -2.0344 -0.1713
  177SAPS  H17S20218   0.408   5.834   4.072  0.0322  0.9673 -2.5353
  177SAPS  C21820219   0.258   5.703   4.167 -0.2630 -0.3448  0.1010
  177SAPS  H18R20220   0.195   5.616   4.138 -0.5821  0.5207 -1.9752
  177SAPS  H18S20221   0.194   5.780   4.214 -0.7128 -1.4167  1.3048
  177SAPS  C21920222   0.364   5.677   4.271  0.0979 -0.1419 -1.2180
  177SAPS  H19R20223   0.420   5.771   4.287 -2.9722  1.5631  0.6030
  177SAPS  H19S20224   0.440   5.607   4.232  2.0300  0.0674  1.7903
  177SAPS  C22020225   0.314   5.628   4.413 -0.4159  0.6534 -0.3207
  177SAPS  H20R20226   0.404   5.601   4.472 -1.1381 -0.7355  0.1783
  177SAPS  H20S20227   0.246   5.541   4.402  0.9785 -0.3549 -1.2956
  177SAPS  H20T20228   0.263   5.720   4.451  0.7867  0.8884  0.7702
  177SAPS   C3320229   1.378   5.618   2.860  0.0459  0.3345  0.4510
  177SAPS   H3X20230   1.401   5.541   2.783  2.1279  1.0566  0.2752
  177SAPS   H3Y20231   1.271   5.645   2.867  0.0384  0.2050  0.8526
  177SAPS   C3420232   1.409   5.577   3.004  0.3393  0.3847 -0.3401
  177SAPS   H4X20233   1.520   5.576   3.002  0.3501  1.5757 -1.4863
  177SAPS   H4Y20234   1.381   5.472   3.027 -2.0832  1.2956  1.3532
  177SAPS   C3520235   1.364   5.670   3.119 -0.2754 -0.0967 -0.0280
  177SAPS   H5X20236   1.253   5.671   3.110 -0.1233  0.2315 -2.6019
  177SAPS   H5Y20237   1.388   5.772   3.084 -0.7010 -0.2642 -0.8446
  177SAPS   C3620238   1.430   5.639   3.255  0.4749  0.0375  1.3431
  177SAPS   H6X20239   1.540   5.653   3.252  0.3925  0.9914  2.4149
  177SAPS   H6Y20240   1.405   5.530   3.253 -1.4320  0.3981 -1.9494
  177SAPS   C3720241   1.358   5.709   3.368  0.2340 -0.4008  0.3965
  177SAPS   H7X20242   1.411   5.681   3.461 -0.7298  0.5589  1.2626
  177SAPS   H7Y20243   1.259   5.661   3.384  0.0353 -0.5555 -1.1583
  177SAPS   C3820244   1.348   5.858   3.360  0.9508 -0.5223 -0.6463
  177SAPS   H8X20245   1.290   5.887   3.269  0.3004 -0.2513 -0.1484
  177SAPS   H8Y20246   1.454   5.893   3.357  0.8701 -0.2726 -3.0106
  177SAPS   C3920247   1.288   5.927   3.484 -1.0771  1.0331 -0.2572
  177SAPS   H9X20248   1.359   5.905   3.567 -1.7791  1.2472  0.4189
  177SAPS   H9Y20249   1.191   5.881   3.512  0.3759 -1.2226  1.5224
  177SAPS  C31020250   1.286   6.076   3.458 -0.6695  0.0355 -0.7704
  177SAPS  H10X20251   1.210   6.106   3.383  0.2325  2.7672 -0.7237
  177SAPS  H10Y20252   1.383   6.100   3.409 -0.4189  1.7327  0.4520
  177SAPS  C31120253   1.260   6.158   3.588 -0.1133  0.0837  0.6378
  177SAPS  H11X20254   1.338   6.132   3.663  0.8517  1.9806  0.3572
  177SAPS  H11Y20255   1.158   6.130   3.621  0.3172 -1.3148  0.8503
  177SAPS  C31220256   1.254   6.309   3.562 -0.2843 -0.0327 -0.5476
  177SAPS  H12X20257   1.170   6.326   3.492 -3.5760 -4.1036  1.8576
  177SAPS  H12Y20258   1.354   6.335   3.521 -0.0171 -1.5865 -0.9693
  177SAPS  C31320259   1.222   6.388   3.692  0.1557 -0.1717 -0.5272
  177SAPS  H13X20260   1.116   6.366   3.719 -0.0273 -0.5309 -1.4819
  177SAPS  H13Y20261   1.217   6.496   3.667 -4.4318  0.4487  1.8784
  177SAPS  C31420262   1.330   6.386   3.799  0.5665 -0.4231 -0.2388
  177SAPS  H14X20263   1.405   6.453   3.754  0.7195 -1.1394 -1.0820
  177SAPS  H14Y20264   1.363   6.281   3.816  1.1379 -0.3055 -0.6283
  177SAPS  C31520265   1.294   6.465   3.923  0.1173 -0.1449 -0.1900
  177SAPS  H15X20266   1.244   6.562   3.902  1.4374  0.2962 -1.3949
  177SAPS  H15Y20267   1.387   6.480   3.981 -0.8971  1.3414  1.1558
  177SAPS  C31620268   1.202   6.394   4.030  0.5760 -0.4653 -0.3825
  177SAPS  H16X20269   1.246   6.305   4.080  0.4745  0.1092  0.7573
  177SAPS  H16Y20270   1.102   6.361   3.996  0.4656 -1.6136  0.9448
  177SAPS  C31720271   1.188   6.492   4.149 -0.7664 -0.2999  0.3042
  177SAPS  H17X20272   1.099   6.469   4.211 -0.3407  2.7223  2.2444
  177SAPS  H17Y20273   1.162   6.598   4.125  2.2592  0.2970 -0.7983
  177SAPS  C31820274   1.313   6.491   4.246  0.6832 -0.3143  0.4721
  177SAPS  H18X20275   1.408   6.516   4.192  0.7586 -1.5107  0.0168
  177SAPS  H18Y20276   1.315   6.386   4.283 -2.4812 -0.9193 -0.8066
  177SAPS  H18Z20277   1.293   6.561   4.329 -0.7335 -0.4302  0.2438
  178SAPS     N20278   5.845   0.536   3.036  0.5872  0.0074 -0.5237
  178SAPS   HN120279   5.876   0.483   3.119 -0.7916  0.5817  0.3953
  178SAPS   HN220280   5.922   0.520   2.968 -0.1487 -0.8520 -1.1808
  178SAPS   HN320281   5.834   0.636   3.060 -0.8739 -0.2267 -0.1378
  178SAPS   C1220282   5.719   0.477   2.984  0.1311  0.4592 -1.2675
  178SAPS  H12A20283   5.651   0.468   3.067  0.2226 -0.4005 -1.2786
  178SAPS   C1320284   5.638   0.573   2.887 -0.8606 -0.0835  0.0166
  178SAPS  O13A20285   5.700   0.674   2.832  0.1634  0.1111  0.4393
  178SAPS  O13B20286   5.533   0.528   2.843  0.1744 -0.5151  0.8473
  178SAPS   C1120287   5.740   0.331   2.934 -0.3119  0.1415  0.0920
  178SAPS  H11A20288   5.785   0.321   2.833 -0.2758 -0.0587  0.1291
  178SAPS  H11B20289   5.642   0.283   2.912 -0.3592  0.5536 -0.6471
  178SAPS     P20290   5.938   0.169   2.992 -0.4982 -0.3574  0.0966
  178SAPS   O1320291   6.018   0.254   2.901 -0.8740  0.2928  0.3238
  178SAPS   O1420292   6.013   0.128   3.117  0.1534 -0.1535  0.1274
  178SAPS   O1220293   5.809   0.252   3.029 -0.1862  0.0771  0.5042
  178SAPS   O1120294   5.897   0.046   2.907  0.1982 -0.0916 -0.5152
  178SAPS    C120295   5.765  -0.003   2.875 -0.6674  0.3194  0.4211
  178SAPS    HA20296   5.694   0.081   2.860  1.5687  2.0781 -0.7355
  178SAPS    HB20297   5.765  -0.055   2.776 -0.2656  0.7517  0.1931
  178SAPS    C220298   5.720  -0.111   2.975  0.1420 -0.4784  1.1843
  178SAPS    HS20299   5.627  -0.166   2.949  0.1796 -1.0711  2.2243
  178SAPS   O2120300   5.698  -0.045   3.101  0.8308  0.6031 -0.2834
  178SAPS   C2120301   5.575   0.015   3.108  0.3644  0.1827 -0.1672
  178SAPS   O2220302   5.484   0.003   3.028  0.3312  0.3647 -0.1756
  178SAPS   C2220303   5.572   0.113   3.228  0.4654 -0.5964  0.0047
  178SAPS   H2R20304   5.639   0.074   3.308  1.3353 -1.3432 -1.0570
  178SAPS   H2S20305   5.626   0.199   3.183 -2.1067  0.0892 -2.0255
  178SAPS    C320306   5.827  -0.220   3.000 -0.1397 -0.0671 -0.4011
  178SAPS    HX20307   5.918  -0.166   3.034  1.3705 -2.5398 -0.2435
  178SAPS    HY20308   5.856  -0.272   2.906  1.7223  2.3430 -1.2667
  178SAPS   O3120309   5.800  -0.318   3.101 -0.0274 -0.7811  0.0621
  178SAPS   C3120310   5.901  -0.396   3.138 -0.7012 -0.0371 -0.3280
  178SAPS   O3220311   6.014  -0.399   3.093  0.5057 -0.0586  0.4181
  178SAPS   C3220312   5.856  -0.510   3.228  1.0323 -0.4483 -0.1515
  178SAPS   H2X20313   5.907  -0.605   3.201 -0.1126 -1.1975  0.2674
  178SAPS   H2Y20314   5.749  -0.528   3.203  1.2413 -2.8810  0.4648
  178SAPS   C2320315   5.433   0.172   3.259  0.4101  0.7061  0.0703
  178SAPS   H3R20316   5.374   0.083   3.291 -0.5511  1.3616  0.1865
  178SAPS   H3S20317   5.382   0.223   3.174  0.3335  0.0550 -0.2820
  178SAPS   C2420318   5.424   0.268   3.381  0.2202  0.0087  0.0375
  178SAPS   H4R20319   5.483   0.217   3.460 -1.8148 -0.8132  1.1181
  178SAPS   H4S20320   5.318   0.261   3.416  0.4893  0.1576  0.9015
  178SAPS   C2520321   5.465   0.408   3.359  0.5862 -0.4527  0.0932
  178SAPS   H5R20322   5.397   0.460   3.289 -0.0962 -1.7004 -0.2013
  178SAPS   C2620323   5.562   0.476   3.423  0.7868 -0.8943  0.3967
  178SAPS   H6R20324   5.588   0.581   3.401 -0.1100 -0.3770  1.6751
  178SAPS   C2720325   5.658   0.423   3.527 -0.1274 -0.3366  0.2484
  178SAPS   H7R20326   5.652   0.317   3.558  1.4961 -0.4014  0.3816
  178SAPS   H7S20327   5.638   0.472   3.624  2.1163  0.9957  0.1059
  178SAPS   C2820328   5.802   0.449   3.477  0.2367  0.1188  0.5946
  178SAPS   H8R20329   5.833   0.370   3.407  1.1024  2.0554 -1.3103
  178SAPS   C2920330   5.892   0.534   3.514  0.8067  0.3020 -0.3573
  178SAPS   H9R20331   5.995   0.526   3.477  0.1463 -0.4296 -2.1405
  178SAPS  C21020332   5.868   0.653   3.595 -0.2008 -0.1786 -0.3988
  178SAPS  H10R20333   5.867   0.626   3.702 -1.7505  0.6784 -0.1651
  178SAPS  H10S20334   5.763   0.680   3.567  0.1065  0.7190 -0.7163
  178SAPS  C21120335   5.952   0.772   3.551  0.4490 -0.0465  0.4730
  178SAPS  H11R20336   5.947   0.786   3.442  1.2125 -2.3578  0.0942
  178SAPS  C21220337   6.020   0.852   3.635 -0.0704  0.0594 -0.0833
  178SAPS  H12R20338   6.083   0.933   3.595 -0.9218  0.9966  0.4004
  178SAPS  C21320339   6.022   0.849   3.788 -0.3565 -0.3434  0.1711
  178SAPS  H13R20340   5.958   0.771   3.834  0.1792 -0.8980 -0.0173
  178SAPS  H13S20341   5.974   0.947   3.812  0.2092 -0.5139  2.1637
  178SAPS  C21420342   6.166   0.844   3.832  0.8768  0.0346 -0.1413
  178SAPS  H14R20343   6.238   0.796   3.764  1.3675  1.7745 -0.9074
  178SAPS  C21520344   6.207   0.906   3.940 -0.6081 -0.2866 -0.9393
  178SAPS  H15R20345   6.307   0.873   3.971 -0.4078 -0.0918 -1.3616
  178SAPS  C21620346   6.132   0.992   4.035  0.1805  0.1040 -0.2170
  178SAPS  H16R20347   6.024   1.009   4.013  0.6753  2.5806 -0.9893
  178SAPS  H16S20348   6.185   1.089   4.036 -1.1819  0.8881 -1.1739
  178SAPS  C21720349   6.117   0.919   4.165  0.6571  0.2767 -0.2498
  178SAPS  H17R20350   6.212   0.905   4.220 -0.5954 -0.6257  1.7712
  178SAPS  H17S20351   6.072   0.819   4.150  0.0527  0.5268 -0.1416
  178SAPS  C21820352   6.025   0.993   4.264 -0.2995 -0.2495 -0.4796
  178SAPS  H18R20353   5.929   1.023   4.217 -0.3455  2.6882  1.2637
  178SAPS  H18S20354   6.072   1.093   4.281 -0.1997 -0.3934  0.0991
  178SAPS  C21920355   5.981   0.908   4.386  0.0154 -0.1569  0.1563
  178SAPS  H19R20356   5.921   0.963   4.461 -0.7681 -1.5487  0.6001
  178SAPS  H19S20357   6.074   0.875   4.438  0.5111 -0.4211 -0.8575
  178SAPS  C22020358   5.912   0.778   4.350  0.4216 -0.2370  0.8104
  178SAPS  H20R20359   5.870   0.712   4.429 -2.3734  1.3045  0.7363
  178SAPS  H20S20360   5.987   0.713   4.299 -0.2484 -1.0572  0.8508
  178SAPS  H20T20361   5.826   0.792   4.281  0.0335  0.1422  1.3655
  178SAPS   C3320362   5.868  -0.483   3.379  0.4795 -0.1703 -0.2622
  178SAPS   H3X20363   5.839  -0.379   3.406 -1.6251 -0.4511 -1.3120
  178SAPS   H3Y20364   5.977  -0.499   3.395  0.4743 -0.6800 -0.7103
  178SAPS   C3420365   5.801  -0.582   3.467 -0.2684  0.3354 -0.4307
  178SAPS   H4X20366   5.804  -0.685   3.424  0.6948 -0.2575  1.0021
  178SAPS   H4Y20367   5.692  -0.563   3.475  0.0701  2.3743 -0.1518
  178SAPS   C3520368   5.862  -0.581   3.610  0.1457 -0.4213  0.6202
  178SAPS   H5X20369   5.819  -0.492   3.661  0.5038  1.0295 -1.4445
  178SAPS   H5Y20370   5.973  -0.569   3.616  0.0117  2.0405 -0.3140
  178SAPS   C3620371   5.823  -0.699   3.691 -0.4992  0.2075 -0.3078
  178SAPS   H6X20372   5.863  -0.787   3.637  2.0273  0.3412  1.1708
  178SAPS   H6Y20373   5.714  -0.716   3.703 -0.5571  0.6108 -0.2536
  178SAPS   C3720374   5.889  -0.707   3.826 -0.2444 -0.5620  0.4366
  178SAPS   H7X20375   5.861  -0.611   3.875 -2.2187 -0.5662 -0.5816
  178SAPS   H7Y20376   5.997  -0.708   3.801 -0.8986  0.0128 -2.8216
  178SAPS   C3820377   5.848  -0.824   3.917  0.6182 -0.0028 -0.2097
  178SAPS   H8X20378   5.874  -0.924   3.875 -0.8558 -0.8405  0.7900
  178SAPS   H8Y20379   5.737  -0.835   3.915  0.4794  0.2961  2.7255
  178SAPS   C3920380   5.892  -0.804   4.065 -0.3700  0.2097 -0.0684
  178SAPS   H9X20381   5.833  -0.886   4.110  0.6620 -0.1847  0.6049
  178SAPS   H9Y20382   5.861  -0.703   4.099  2.8682  2.1082 -2.1992
  178SAPS  C31020383   6.042  -0.814   4.080 -0.3019 -0.3385 -0.0546
  178SAPS  H10X20384   6.085  -0.720   4.040 -2.2661  0.1968 -1.0504
  178SAPS  H10Y20385   6.076  -0.894   4.011  0.2120  1.3581 -1.8522
  178SAPS  C31120386   6.095  -0.836   4.217 -0.0083 -0.0340  0.1456
  178SAPS  H11X20387   6.204  -0.856   4.208  0.2888  2.2573 -3.0933
  178SAPS  H11Y20388   6.046  -0.929   4.255 -0.1411  0.7400  2.0107
  178SAPS  C31220389   6.048  -0.731   4.316 -0.5650  0.0480  0.0918
  178SAPS  H12X20390   5.937  -0.723   4.321 -0.7561 -2.2375  0.5828
  178SAPS  H12Y20391   6.098  -0.638   4.281 -0.6507  0.1042  0.1162
  178SAPS  C31320392   6.107  -0.766   4.459 -0.0210 -0.1293 -0.3242
  178SAPS  H13X20393   6.213  -0.736   4.441  0.1217  1.1084  2.2110
  178SAPS  H13Y20394   6.127  -0.875   4.469  0.7075 -0.2495 -2.4769
  178SAPS  C31420395   6.038  -0.703   4.579  0.2012 -0.4724  0.8482
  178SAPS  H14X20396   6.034  -0.592   4.570 -1.1991 -0.3468  2.5995
  178SAPS  H14Y20397   6.100  -0.724   4.669  0.0793 -2.0296  0.5997
  178SAPS  C31520398   5.892  -0.755   4.597 -0.5266 -0.1687 -0.7820
  178SAPS  H15X20399   5.880  -0.865   4.583 -0.5531 -0.2822  0.0689
  178SAPS  H15Y20400   5.835  -0.705   4.516 -1.2986 -0.1435 -0.2370
  178SAPS  C31620401   5.826  -0.729   4.737 -0.6772  0.2868  0.3425
  178SAPS  H16X20402   5.847  -0.626   4.774 -1.4071  0.1811  1.0903
  178SAPS  H16Y20403   5.879  -0.792   4.812  0.5624  0.5845 -0.2513
  178SAPS  C31720404   5.676  -0.765   4.748  0.3731  0.3955  0.3186
  178SAPS  H17X20405   5.656  -0.870   4.717  0.7903  0.2830  0.4197
  178SAPS  H17Y20406   5.617  -0.691   4.691 -1.0570 -0.2604  0.9051
  178SAPS  C31820407   5.637  -0.756   4.897  0.1684  0.6400  0.3403
  178SAPS  H18X20408   5.664  -0.849   4.951  0.0691 -0.7387 -1.8471
  178SAPS  H18Y20409   5.527  -0.745   4.903 -0.1006  1.1391 -3.0982
  178SAPS  H18Z20410   5.692  -0.684   4.961 -0.8391  1.7452 -0.0208
  179SAPS     N20411   6.937   2.995   2.081  0.2546 -0.0711 -0.1644
  179SAPS   HN120412   7.023   3.053   2.075  1.2976 -1.5143  0.3198
  179SAPS   HN220413   6.954   2.927   2.157 -2.1993  1.3063  1.7741
  179SAPS   HN320414   6.933   2.943   1.991  1.9485 -0.0184 -0.2885
  179SAPS   C1220415   6.811   3.073   2.118 -0.6040 -0.3477  0.3143
  179SAPS  H12A20416   6.833   3.148   2.193 -0.4816 -1.2915  1.2378
  179SAPS   C1320417   6.761   3.163   2.001 -0.2494  0.2337 -0.2662
  179SAPS  O13A20418   6.841   3.199   1.907  0.7237  0.1608 -0.2438
  179SAPS  O13B20419   6.653   3.218   2.015  0.1566 -0.1171 -0.5022
  179SAPS   C1120420   6.709   2.976   2.177 -0.0838 -0.2897 -0.2590
  179SAPS  H11A20421   6.668   2.908   2.099  0.0556  2.4713 -2.9180
  179SAPS  H11B20422   6.624   3.036   2.217 -0.8944 -2.8089  2.1534
  179SAPS     P20423   6.679   2.789   2.354  0.3157  0.1872  0.3123
  179SAPS   O1320424   6.585   2.722   2.260 -0.2206  0.1945  0.4614
  179SAPS   O1420425   6.765   2.698   2.434  0.1223  0.5448 -0.6753
  179SAPS   O1220426   6.771   2.896   2.281 -0.4369 -0.1045 -0.7426
  179SAPS   O1120427   6.591   2.876   2.453 -0.3673  0.7596 -0.5906
  179SAPS    C120428   6.637   2.994   2.520 -0.0427  0.1373  0.5148
  179SAPS    HA20429   6.704   3.050   2.451 -0.1770 -0.7710 -0.3704
  179SAPS    HB20430   6.551   3.064   2.527  0.5063  0.9666 -0.5621
  179SAPS    C220431   6.699   2.976   2.665 -0.5966 -0.5467 -0.3486
  179SAPS    HS20432   6.793   2.917   2.654  0.7973  1.2699  1.2248
  179SAPS   O2120433   6.603   2.904   2.751 -0.3136  0.6377  0.1914
  179SAPS   C2120434   6.637   2.783   2.792  0.0694  0.5275 -0.5619
  179SAPS   O2220435   6.742   2.726   2.770 -0.2475 -0.6625  0.2185
  179SAPS   C2220436   6.509   2.710   2.839 -0.0011 -0.4264 -0.4190
  179SAPS   H2R20437   6.432   2.786   2.863  1.2625  0.8556 -0.2717
  179SAPS   H2S20438   6.463   2.653   2.755 -1.5947  1.0208 -0.5909
  179SAPS    C320439   6.743   3.115   2.733 -0.7159  0.3777 -0.6136
  179SAPS    HX20440   6.655   3.182   2.732 -0.5453  0.6499 -2.8520
  179SAPS    HY20441   6.813   3.154   2.656 -0.2642 -1.9532 -1.4533
  179SAPS   O3120442   6.804   3.096   2.872 -0.3041  0.0250  0.5805
  179SAPS   C3120443   6.926   3.140   2.885 -0.5620 -0.4467  0.3869
  179SAPS   O3220444   7.002   3.179   2.797  0.1117  0.3771  0.3134
  179SAPS   C3220445   6.965   3.125   3.031 -0.6457 -0.0636 -0.4403
  179SAPS   H2X20446   7.059   3.065   3.030 -0.1158  0.7392  0.5048
  179SAPS   H2Y20447   6.883   3.064   3.075  0.8202 -2.8356 -1.2651
  179SAPS   C2320448   6.548   2.604   2.947  0.2048 -0.5785  0.2043
  179SAPS   H3R20449   6.606   2.525   2.896  0.3142 -0.0677 -0.4698
  179SAPS   H3S20450   6.458   2.560   2.995  1.1516 -0.6724  1.9624
  179SAPS   C2420451   6.629   2.662   3.066 -0.0022  0.7701 -0.7259
  179SAPS   H4R20452   6.723   2.708   3.027 -0.5729  0.3503 -2.7269
  179SAPS   H4S20453   6.659   2.572   3.124  2.5813  2.0495  0.0700
  179SAPS   C2520454   6.559   2.758   3.156  0.3993  0.8026  0.0455
  179SAPS   H5R20455   6.479   2.813   3.104 -0.9530 -0.3744  0.8033
  179SAPS   C2620456   6.581   2.789   3.282 -0.1046  0.0519  0.2396
  179SAPS   H6R20457   6.521   2.866   3.333 -0.5262 -0.3151  0.2982
  179SAPS   C2720458   6.689   2.730   3.374 -0.3714 -0.4780 -0.1264
  179SAPS   H7R20459   6.727   2.637   3.326  0.0445 -0.7909  0.7902
  179SAPS   H7S20460   6.639   2.691   3.465 -3.0906 -0.1304 -1.3906
  179SAPS   C2820461   6.797   2.840   3.390 -0.5300 -0.1899 -0.1027
  179SAPS   H8R20462   6.872   2.839   3.310  0.4546 -3.3522  0.7068
  179SAPS   C2920463   6.810   2.929   3.489 -0.5692  0.4111  0.1495
  179SAPS   H9R20464   6.896   2.998   3.487 -0.2333  0.0408 -3.1369
  179SAPS  C21020465   6.712   2.940   3.604  0.5082  0.5504 -0.1128
  179SAPS  H10R20466   6.611   2.942   3.559 -0.0978 -1.8979  0.9393
  179SAPS  H10S20467   6.723   3.043   3.644  1.1872  0.4572 -0.0508
  179SAPS  C21120468   6.732   2.834   3.717 -0.2573 -0.0554  0.2808
  179SAPS  H11R20469   6.682   2.737   3.700  1.4591 -0.5462 -2.5724
  179SAPS  C21220470   6.787   2.862   3.841 -0.3001  0.2324 -0.3843
  179SAPS  H12R20471   6.798   2.776   3.908  0.4066  1.8334  1.6427
  179SAPS  C21320472   6.857   2.987   3.883  0.1802 -0.2340 -0.3982
  179SAPS  H13R20473   6.801   3.022   3.972  2.0838  1.4756  0.2033
  179SAPS  H13S20474   6.859   3.063   3.802 -1.1622  0.1969 -0.0445
  179SAPS  C21420475   7.000   2.964   3.927  0.2275  0.4372  0.1218
  179SAPS  H14R20476   7.067   2.950   3.841 -0.9181  0.3427 -0.7769
  179SAPS  C21520477   7.046   2.956   4.053 -0.3395  1.2715  0.2943
  179SAPS  H15R20478   7.153   2.932   4.051 -0.6709 -1.5725  4.1570
  179SAPS  C21620479   6.980   2.966   4.188 -0.1517 -0.1674 -0.5219
  179SAPS  H16R20480   6.986   2.867   4.239  2.9842 -0.4495 -1.2135
  179SAPS  H16S20481   6.876   2.999   4.168  0.2548  1.6456  0.0923
  179SAPS  C21720482   7.052   3.074   4.270 -0.8764 -0.1294 -0.2291
  179SAPS  H17R20483   7.072   3.164   4.208  1.3047 -1.2243 -1.2381
  179SAPS  H17S20484   7.159   3.043   4.279 -0.4476  0.6606 -2.1263
  179SAPS  C21820485   6.999   3.102   4.406 -0.1985  0.1281  0.3607
  179SAPS  H18R20486   6.888   3.095   4.405 -0.1532 -4.0427  2.2042
  179SAPS  H18S20487   7.031   3.204   4.437  0.0993 -0.1617  1.0416
  179SAPS  C21920488   7.039   2.992   4.514 -0.2668 -0.5542  0.8175
  179SAPS  H19R20489   6.989   2.895   4.490  0.7021 -0.3107 -2.7360
  179SAPS  H19S20490   6.988   3.024   4.607 -1.2176  0.2609  0.0423
  179SAPS  C22020491   7.183   2.972   4.536  0.0199  0.3167 -0.1140
  179SAPS  H20R20492   7.236   2.926   4.450  2.3861  0.1082  1.3540
  179SAPS  H20S20493   7.206   2.899   4.617 -0.7713  0.2682  0.0714
  179SAPS  H20T20494   7.222   3.069   4.575 -1.4498  0.2241  1.7123
  179SAPS   C3320495   6.987   3.265   3.100  0.2424  0.2859 -1.3459
  179SAPS   H3X20496   7.050   3.344   3.053 -1.8780  2.2220 -1.0844
  179SAPS   H3Y20497   7.044   3.242   3.193 -0.7165  0.2557 -0.7490
  179SAPS   C3420498   6.856   3.323   3.143 -0.4980  0.0155  0.0193
  179SAPS   H4X20499   6.799   3.257   3.212  0.1112  3.3250  4.0901
  179SAPS   H4Y20500   6.786   3.326   3.056 -0.4345 -1.4088 -0.1083
  179SAPS   C3520501   6.861   3.465   3.207  0.5858  0.4987  0.4450
  179SAPS   H5X20502   6.758   3.503   3.228  0.5765 -1.1583  4.3041
  179SAPS   H5Y20503   6.894   3.535   3.128  0.1013 -1.8037 -1.9237
  179SAPS   C3620504   6.940   3.483   3.341  0.2872 -0.2006  0.0021
  179SAPS   H6X20505   6.914   3.584   3.378  0.2388 -0.5836  1.0539
  179SAPS   H6Y20506   7.047   3.505   3.321  0.3808 -0.3791  0.2940
  179SAPS   C3720507   6.919   3.374   3.442  0.1337 -0.5283 -0.5422
  179SAPS   H7X20508   6.955   3.273   3.414 -0.7587 -0.8671 -0.5160
  179SAPS   H7Y20509   6.809   3.358   3.453 -0.1693  2.4020  2.6714
  179SAPS   C3820510   6.967   3.421   3.573  0.5275 -0.7308 -0.0840
  179SAPS   H8X20511   6.924   3.520   3.599  0.3009 -0.8844  0.1300
  179SAPS   H8Y20512   7.078   3.428   3.582  0.7971 -2.5331 -1.4619
  179SAPS   C3920513   6.932   3.317   3.681  0.0825  0.1930 -0.3769
  179SAPS   H9X20514   7.000   3.230   3.669 -0.1078  0.1432 -1.1170
  179SAPS   H9Y20515   6.828   3.278   3.673 -0.5570  1.9037 -0.9564
  179SAPS  C31020516   6.940   3.380   3.814 -0.0932 -0.8140 -0.0538
  179SAPS  H10X20517   6.897   3.326   3.901 -1.2643 -0.1158 -0.1773
  179SAPS  H10Y20518   6.886   3.477   3.805  1.5066 -0.0492 -1.9658
  179SAPS  C31120519   7.088   3.419   3.852  0.5641 -0.5188 -0.6187
  179SAPS  H11X20520   7.129   3.513   3.810  1.2840 -1.5808 -2.4224
  179SAPS  H11Y20521   7.157   3.342   3.812 -2.5235 -1.3460 -5.0394
  179SAPS  C31220522   7.107   3.427   4.008  0.1297  0.1358  0.2597
  179SAPS  H12X20523   7.059   3.334   4.046  1.9124 -0.1825  1.9089
  179SAPS  H12Y20524   7.051   3.514   4.048 -0.4199  0.6413 -1.5001
  179SAPS  C31320525   7.244   3.432   4.062 -0.3964 -0.9331 -0.5274
  179SAPS  H13X20526   7.302   3.518   4.021 -0.8574  0.6575  1.9356
  179SAPS  H13Y20527   7.301   3.337   4.062  0.4779 -0.4592 -2.7747
  179SAPS  C31420528   7.230   3.454   4.218 -0.3793  0.1885  0.7491
  179SAPS  H14X20529   7.183   3.363   4.261  0.2939 -0.7226 -0.3853
  179SAPS  H14Y20530   7.160   3.540   4.231 -3.6382 -1.8904 -1.6174
  179SAPS  C31520531   7.364   3.490   4.283 -0.2975 -0.7284 -0.1062
  179SAPS  H15X20532   7.381   3.595   4.251  0.0306 -0.0498  2.0793
  179SAPS  H15Y20533   7.454   3.436   4.247  1.0368  0.8316  0.7211
  179SAPS  C31620534   7.349   3.496   4.438  0.1485  0.2561  0.2929
  179SAPS  H16X20535   7.248   3.526   4.472 -0.6288 -3.5726  1.8980
  179SAPS  H16Y20536   7.417   3.576   4.472  0.0242 -0.4272  2.2472
  179SAPS  C31720537   7.377   3.358   4.497  0.1547 -0.0303  0.4844
  179SAPS  H17X20538   7.466   3.318   4.444 -2.0012 -2.2977 -1.7455
  179SAPS  H17Y20539   7.297   3.282   4.479  0.1867 -0.0500  0.4280
  179SAPS  C31820540   7.374   3.359   4.654  0.3225  1.1848  0.5394
  179SAPS  H18X20541   7.403   3.258   4.693  0.5804  0.9824 -0.1665
  179SAPS  H18Y20542   7.276   3.395   4.691 -2.0401 -3.9876  0.1844
  179SAPS  H18Z20543   7.449   3.431   4.694 -0.0265  1.0885  1.3826
  180SAPS     N20544   0.138   0.370   2.879 -0.4733  0.1061 -0.0136
  180SAPS   HN120545   0.165   0.355   2.978 -1.1467 -0.8326  0.0410
  180SAPS   HN220546   0.035   0.380   2.870 -0.3120  2.0477 -0.2575
  180SAPS   HN320547   0.177   0.288   2.829  3.8173  0.5115  2.2348
  180SAPS   C1220548   0.220   0.491   2.832  0.7097  0.3406 -0.1032
  180SAPS  H12A20549   0.326   0.474   2.844  0.7284 -0.0802 -0.8746
  180SAPS   C1320550   0.201   0.526   2.682  0.5393 -0.1804  0.2134
  180SAPS  O13A20551   0.142   0.451   2.600  0.3419  0.4132 -0.6437
  180SAPS  O13B20552   0.250   0.629   2.629 -0.3886  0.6570  0.1064
  180SAPS   C1120553   0.179   0.608   2.918  0.5680 -0.3464 -0.4975
  180SAPS  H11A20554   0.073   0.628   2.893 -0.1321 -0.4940  2.1090
  180SAPS  H11B20555   0.236   0.700   2.890  0.0188 -0.3522 -1.6933
  180SAPS     P20556   0.284   0.671   3.152 -0.0332  0.2353 -0.4142
  180SAPS   O1320557   0.300   0.598   3.281 -0.2833 -0.4165 -0.2791
  180SAPS   O1420558   0.412   0.722   3.092 -0.0658  0.4787  0.0849
  180SAPS   O1220559   0.202   0.579   3.055 -0.0649  0.2369 -0.2128
  180SAPS   O1120560   0.188   0.801   3.175  0.3681  0.0459 -0.1293
  180SAPS    C120561   0.049   0.793   3.180  0.4135  0.5999  0.5809
  180SAPS    HA20562   0.008   0.747   3.087 -0.2862 -0.3450  1.3241
  180SAPS    HB20563   0.021   0.725   3.263  3.1557  1.3664  2.2525
  180SAPS    C220564  -0.017   0.928   3.203 -0.4656  0.0498 -0.1285
  180SAPS    HS20565   0.013   1.003   3.127 -0.5995  0.1431 -0.0886
  180SAPS   O2120566   0.024   0.972   3.340  0.4668  0.8592  0.2763
  180SAPS   C2120567   0.133   1.040   3.343 -0.0639  0.0693  0.4630
  180SAPS   O2220568   0.187   1.108   3.259 -0.3873 -0.2895  0.0252
  180SAPS   C2220569   0.188   1.027   3.475 -0.2936 -0.4473  0.1246
  180SAPS   H2R20570   0.176   0.929   3.525  2.4152 -0.3803  1.0862
  180SAPS   H2S20571   0.297   1.049   3.471 -0.3075 -0.1263  1.1567
  180SAPS    C320572  -0.174   0.919   3.193  0.5425  0.4944 -0.6270
  180SAPS    HX20573  -0.207   0.875   3.289 -1.6868 -1.3809 -2.1245
  180SAPS    HY20574  -0.205   0.843   3.119  0.1932 -0.8813  0.8872
  180SAPS   O3120575  -0.244   1.041   3.175  0.0133  0.4615  0.5321
  180SAPS   C3120576  -0.244   1.087   3.050  0.8256  0.2966  0.1151
  180SAPS   O3220577  -0.199   1.024   2.953  0.5390 -0.4042 -0.3318
  180SAPS   C3220578  -0.310   1.226   3.042 -0.4817 -0.3700  0.3862
  180SAPS   H2X20579  -0.406   1.225   2.986  0.6342 -0.6915 -1.5953
  180SAPS   H2Y20580  -0.241   1.297   2.993 -1.8494 -0.4492 -1.8269
  180SAPS   C2320581   0.126   1.130   3.578  0.1217  0.6165 -0.9440
  180SAPS   H3R20582   0.016   1.118   3.581  0.3300 -1.7952  1.4503
  180SAPS   H3S20583   0.167   1.224   3.535  4.2443 -0.6410 -0.2358
  180SAPS   C2420584   0.177   1.106   3.727  0.0421 -0.2761 -0.6183
  180SAPS   H4R20585   0.276   1.056   3.731  0.8260  1.3217  1.2156
  180SAPS   H4S20586   0.107   1.030   3.769 -0.1295  1.4247  2.3724
  180SAPS   C2520587   0.189   1.228   3.809 -0.0362  0.9542  0.2988
  180SAPS   H5R20588   0.253   1.302   3.759  3.5964 -2.1200  0.0101
  180SAPS   C2620589   0.122   1.256   3.916 -0.6122  0.1873  0.0369
  180SAPS   H6R20590   0.134   1.358   3.955 -3.4030  1.5827 -2.3770
  180SAPS   C2720591   0.016   1.182   3.993  0.4232 -0.0344 -1.6535
  180SAPS   H7R20592  -0.070   1.160   3.926 -2.1365  0.6162  1.2155
  180SAPS   H7S20593  -0.018   1.251   4.073  0.5627 -0.0740 -1.5587
  180SAPS   C2820594   0.068   1.056   4.058  0.1950  0.0672 -0.2021
  180SAPS   H8R20595   0.109   0.976   3.995  0.5672  0.5577 -0.5908
  180SAPS   C2920596   0.067   1.023   4.186  0.3123 -0.1562 -0.5909
  180SAPS   H9R20597   0.103   0.925   4.221 -0.1833 -0.8493 -1.9775
  180SAPS  C21020598   0.017   1.111   4.298 -0.6027  0.3990  0.3155
  180SAPS  H10R20599  -0.039   1.043   4.365 -0.9386  1.7577  1.4644
  180SAPS  H10S20600  -0.053   1.189   4.261 -1.3439  0.1606  1.1875
  180SAPS  C21120601   0.126   1.180   4.369 -0.0686  0.3084 -0.2725
  180SAPS  H11R20602   0.208   1.228   4.313  0.9815 -0.8814  0.1992
  180SAPS  C21220603   0.141   1.175   4.506  0.4193 -0.6719  0.4353
  180SAPS  H12R20604   0.230   1.220   4.553 -1.4638  0.9448  2.6545
  180SAPS  C21320605   0.039   1.137   4.615 -0.5316 -0.4218  0.1869
  180SAPS  H13R20606  -0.067   1.159   4.590 -0.5775  0.7718  1.2966
  180SAPS  H13S20607   0.045   1.209   4.699 -1.3016  2.0317 -1.7124
  180SAPS  C21420608   0.053   0.993   4.664  0.7714 -0.2792 -0.3092
  180SAPS  H14R20609   0.082   0.931   4.577  1.0582  2.0068 -1.9438
  180SAPS  C21520610   0.048   0.945   4.786 -0.8844  0.3073  0.7330
  180SAPS  H15R20611   0.068   0.839   4.807  2.0335  0.3876 -0.9912
  180SAPS  C21620612   0.008   1.030   4.903 -0.3354  0.1910 -0.1649
  180SAPS  H16R20613   0.044   1.135   4.906 -1.5746  0.7264 -2.1392
  180SAPS  H16S20614   0.041   0.987   5.000 -0.5452  1.5502  0.5423
  180SAPS  C21720615  -0.143   1.040   4.922 -0.6610 -0.1733  0.3829
  180SAPS  H17R20616  -0.175   0.935   4.942  0.7243 -0.5376  0.8373
  180SAPS  H17S20617  -0.182   1.079   4.826  2.0494 -1.7109 -1.4958
  180SAPS  C21820618  -0.184   1.128   5.035  0.8968 -0.0381  0.5730
  180SAPS  H18R20619  -0.157   1.230   5.001 -0.4875 -0.7384 -3.1455
  180SAPS  H18S20620  -0.129   1.104   5.129  0.0316  0.3940  1.1970
  180SAPS  C21920621  -0.339   1.130   5.053  0.8188  0.3481  0.1261
  180SAPS  H19R20622  -0.373   1.031   5.092 -0.6663  0.3656 -1.0475
  180SAPS  H19S20623  -0.387   1.130   4.953  1.2452  1.2940 -0.0892
  180SAPS  C22020624  -0.389   1.245   5.131 -0.4660 -0.1729  0.0783
  180SAPS  H20R20625  -0.387   1.335   5.066 -2.1003  0.4092  0.7886
  180SAPS  H20S20626  -0.490   1.226   5.174 -0.5970  0.8109  0.2073
  180SAPS  H20T20627  -0.324   1.281   5.213 -1.7469  2.2250  0.1285
  180SAPS   C3320628  -0.334   1.296   3.183 -0.4174  0.2872 -0.8337
  180SAPS   H3X20629  -0.392   1.218   3.238 -0.8537  0.2511 -1.3368
  180SAPS   H3Y20630  -0.401   1.384   3.174  0.8256  1.3843  0.2214
  180SAPS   C3420631  -0.205   1.342   3.244  0.0456 -0.7774  0.3022
  180SAPS   H4X20632  -0.147   1.412   3.180  0.7340 -0.6783  1.0124
  180SAPS   H4Y20633  -0.146   1.248   3.255 -1.2897 -1.5371  1.1858
  180SAPS   C3520634  -0.219   1.408   3.386  0.3164  0.1310  0.7294
  180SAPS   H5X20635  -0.291   1.351   3.449  1.2680 -0.2157  1.5346
  180SAPS   H5Y20636  -0.271   1.502   3.359 -0.3644 -0.0899  1.2405
  180SAPS   C3620637  -0.091   1.429   3.469  0.0927 -0.8125  0.2811
  180SAPS   H6X20638  -0.022   1.505   3.425  0.6138 -1.4803 -0.0631
  180SAPS   H6Y20639  -0.031   1.336   3.466  0.4442 -0.5764 -1.2764
  180SAPS   C3720640  -0.107   1.455   3.618  0.1560  0.7491 -0.3892
  180SAPS   H7X20641  -0.020   1.403   3.663  0.8093  1.1209 -1.2052
  180SAPS   H7Y20642  -0.196   1.408   3.665 -0.6048  2.3636 -0.1478
  180SAPS   C3820643  -0.093   1.602   3.661 -0.0961  0.3162 -0.1523
  180SAPS   H8X20644  -0.186   1.656   3.633 -0.9922 -1.6590 -1.1701
  180SAPS   H8Y20645  -0.024   1.648   3.587 -1.4363 -1.3514 -2.5346
  180SAPS   C3920646  -0.035   1.622   3.802  0.0881 -0.0948  0.1582
  180SAPS   H9X20647   0.015   1.720   3.821 -1.3759  0.3863  1.7405
  180SAPS   H9Y20648   0.053   1.555   3.819 -0.5664 -0.6638  1.4453
  180SAPS  C31020649  -0.138   1.591   3.916 -0.5690 -0.9245  0.7883
  180SAPS  H10X20650  -0.168   1.486   3.895  0.3183 -0.9463 -0.4638
  180SAPS  H10Y20651  -0.225   1.660   3.916 -2.3158 -2.9903  2.4848
  180SAPS  C31120652  -0.081   1.605   4.059  0.1067 -0.0548 -0.2576
  180SAPS  H11X20653  -0.042   1.706   4.081  1.5562 -0.7650  0.6304
  180SAPS  H11Y20654  -0.001   1.529   4.077 -0.8104 -0.4807  2.6453
  180SAPS  C31220655  -0.183   1.555   4.163  0.0455 -0.0395 -0.0206
  180SAPS  H12X20656  -0.224   1.455   4.137  0.0502  0.6023 -2.7799
  180SAPS  H12Y20657  -0.265   1.629   4.156 -0.1768 -0.0319  1.9775
  180SAPS  C31320658  -0.137   1.566   4.308  0.3115  0.2053  0.0897
  180SAPS  H13X20659  -0.059   1.643   4.329  0.9409 -0.5777  0.6974
  180SAPS  H13Y20660  -0.080   1.477   4.342  1.5178  1.2603  0.9788
  180SAPS  C31420661  -0.250   1.605   4.401 -0.6972  0.2827  0.6345
  180SAPS  H14X20662  -0.329   1.528   4.388 -0.2878 -0.2253  1.1420
  180SAPS  H14Y20663  -0.296   1.705   4.384 -0.5108  0.7137  2.4374
  180SAPS  C31520664  -0.196   1.611   4.541  0.6439  0.9842 -0.6368
  180SAPS  H15X20665  -0.134   1.702   4.554  2.1210 -0.2068  1.2497
  180SAPS  H15Y20666  -0.140   1.520   4.574 -0.8525 -0.0319 -0.7989
  180SAPS  C31620667  -0.310   1.614   4.648  0.0546  0.0603  0.2578
  180SAPS  H16X20668  -0.372   1.523   4.639 -2.8410  1.8540  0.7441
  180SAPS  H16Y20669  -0.377   1.700   4.624  2.3733  2.2497  1.1461
  180SAPS  C31720670  -0.267   1.630   4.791  0.4510 -0.1287 -0.5137
  180SAPS  H17X20671  -0.362   1.607   4.844  0.1691 -1.8600 -1.7022
  180SAPS  H17Y20672  -0.227   1.732   4.811  2.2900 -0.5802 -1.6516
  180SAPS  C31820673  -0.164   1.541   4.850  0.2367 -0.1305  0.5475
  180SAPS  H18X20674  -0.192   1.436   4.823 -0.5123  0.3655 -0.6833
  180SAPS  H18Y20675  -0.156   1.549   4.960  0.6360 -1.3958  0.6237
  180SAPS  H18Z20676  -0.061   1.547   4.810  0.3791  1.2950  1.0963
  181POPC     N20677   5.668   2.791   7.337 -0.0125  0.2161  0.7082
  181POPC   C1220678   5.604   2.727   7.215 -0.8058 -1.1183 -0.5538
  181POPC  H12A20679   5.642   2.788   7.134 -0.1279  1.8421  1.8053
  181POPC  H12B20680   5.497   2.734   7.219 -0.7918 -0.0663 -1.3894
  181POPC   C1320681   5.617   2.732   7.474  0.6658  0.8939  0.1917
  181POPC  H13A20682   5.514   2.756   7.496  0.7227  0.3808  1.0760
  181POPC  H13B20683   5.614   2.624   7.461 -1.5799  1.0189 -0.7638
  181POPC  H13C20684   5.688   2.756   7.551  0.5499 -0.0926  0.6350
  181POPC   C1420685   5.819   2.768   7.336  0.9625 -0.2841 -0.1984
  181POPC  H14A20686   5.870   2.845   7.393  1.9164 -0.9188 -0.1630
  181POPC  H14B20687   5.843   2.671   7.378  0.7436 -0.2072  0.1123
  181POPC  H14C20688   5.866   2.777   7.239  1.4579 -0.2882  0.0369
  181POPC   C1520689   5.644   2.936   7.318 -0.3549  0.1431 -0.4619
  181POPC  H15A20690   5.540   2.966   7.317 -0.3902  0.0170 -0.6000
  181POPC  H15B20691   5.695   2.985   7.236  0.7994  1.4956  0.9976
  181POPC  H15C20692   5.687   2.999   7.395  1.1114  1.9735 -2.6455
  181POPC   C1120693   5.643   2.578   7.195  0.3796  0.5101  0.1642
  181POPC  H11A20694   5.751   2.559   7.209 -0.0093 -1.6046  0.7405
  181POPC  H11B20695   5.606   2.550   7.093 -2.1541  1.8723  0.6227
  181POPC     P20696   5.429   2.460   7.297  0.4810  0.1942  0.1443
  181POPC   O1320697   5.333   2.572   7.309  0.5513  0.2573 -0.4799
  181POPC   O1420698   5.413   2.342   7.385 -0.2119  0.1278 -0.5682
  181POPC   O1220699   5.585   2.498   7.299  0.1265  0.3939  0.3769
  181POPC   O1120700   5.416   2.409   7.149 -0.0318  0.0951  0.0304
  181POPC    C120701   5.310   2.319   7.105 -1.5903 -0.2977 -0.3577
  181POPC    HA20702   5.213   2.338   7.156 -0.5519 -2.5956  2.8328
  181POPC    HB20703   5.346   2.217   7.130 -1.5333 -0.5879 -1.5611
  181POPC    C220704   5.294   2.330   6.954  1.2346 -0.6429  0.5774
  181POPC    HS20705   5.190   2.296   6.935  0.4645  1.9174 -0.2281
  181POPC   O2120706   5.395   2.263   6.870 -0.1152 -0.3816  0.2740
  181POPC   C2120707   5.403   2.133   6.852 -0.0580 -0.2680  0.5643
  181POPC   O2220708   5.335   2.055   6.915  0.5177 -0.1664 -0.8426
  181POPC   C2220709   5.506   2.105   6.751 -0.9987  0.3068 -1.5718
  181POPC   H2R20710   5.570   2.027   6.797 -0.4261  1.0057 -1.1710
  181POPC   H2S20711   5.576   2.187   6.725 -0.5184 -0.1657 -1.7620
  181POPC    C320712   5.308   2.483   6.921  0.5451  0.2239 -0.0536
  181POPC    HX20713   5.410   2.519   6.943  0.6440 -0.2828  0.3403
  181POPC    HY20714   5.246   2.538   6.994  1.7111  2.0285 -0.3718
  181POPC   O3120715   5.267   2.510   6.789  0.6065  0.2113 -0.0520
  181POPC   C3120716   5.367   2.522   6.691 -0.1260  0.5639 -1.3136
  181POPC   O3220717   5.484   2.516   6.725  0.0017 -0.3659 -0.2269
  181POPC   C3220718   5.305   2.563   6.555  0.4553 -0.0818 -0.2693
  181POPC   H2X20719   5.273   2.670   6.552 -0.9280 -0.2894  3.2062
  181POPC   H2Y20720   5.210   2.508   6.539 -1.2621  2.5716  0.0254
  181POPC   C2320721   5.457   2.045   6.615  0.0733 -0.2479  0.1421
  181POPC   H3R20722   5.374   1.975   6.642 -0.3894  0.7513  1.4264
  181POPC   H3S20723   5.545   1.989   6.578  0.7555  1.2536 -0.5909
  181POPC   C2420724   5.409   2.153   6.517  0.3414  0.8039 -0.2080
  181POPC   H4R20725   5.491   2.201   6.460 -0.9568  0.0175 -2.9303
  181POPC   H4S20726   5.344   2.225   6.570 -1.3886  0.1226 -1.3140
  181POPC   C2520727   5.324   2.085   6.406 -0.2387 -0.7526 -0.0078
  181POPC   H5R20728   5.259   2.017   6.465 -0.0546 -1.3837 -0.5215
  181POPC   H5S20729   5.390   2.012   6.355 -0.3840 -0.0635 -1.2162
  181POPC   C2620730   5.237   2.176   6.323 -0.0899  0.0412  0.0816
  181POPC   H6R20731   5.301   2.259   6.285  0.5798  1.3778  3.6726
  181POPC   H6S20732   5.165   2.227   6.391 -0.9186  0.0152 -0.7571
  181POPC   C2720733   5.180   2.100   6.196 -0.6822  0.2145 -0.2250
  181POPC   H7R20734   5.118   2.015   6.231 -3.3425  0.8600 -2.9157
  181POPC   H7S20735   5.266   2.064   6.135  1.3341  2.4449  1.1572
  181POPC   C2820736   5.082   2.190   6.114  0.1437 -0.0272  0.6017
  181POPC   H8R20737   5.013   2.226   6.194  1.9622  0.6312  1.9518
  181POPC   H8S20738   5.018   2.129   6.048  0.3258  0.0271  0.3725
  181POPC   C2920739   5.134   2.301   6.031 -0.1261  0.3906  0.1483
  181POPC   H9120740   5.124   2.400   6.078 -0.5981 -0.5731  2.2023
  181POPC  C21020741   5.190   2.290   5.907 -0.0074 -0.6479 -0.3942
  181POPC  H10120742   5.233   2.380   5.861 -1.5678 -0.0325 -0.7121
  181POPC  C21120743   5.206   2.168   5.826  0.3005  0.2796  0.2765
  181POPC  H11R20744   5.172   2.071   5.868 -1.8253  0.5708 -0.6517
  181POPC  H11S20745   5.313   2.148   5.807  0.2151  0.9743 -1.0545
  181POPC  C21220746   5.134   2.196   5.693  0.0134 -0.6302 -0.5636
  181POPC  H12R20747   5.025   2.213   5.707 -0.0646  0.1406 -1.9385
  181POPC  H12S20748   5.144   2.098   5.641 -1.3291 -1.8191  1.3075
  181POPC  C21320749   5.203   2.302   5.600 -0.6386 -0.1184  0.2515
  181POPC  H13R20750   5.310   2.318   5.625 -0.6257  1.5213 -0.7325
  181POPC  H13S20751   5.147   2.398   5.606  0.4724  0.6430 -1.1341
  181POPC  C21420752   5.206   2.259   5.451 -0.3516  0.3543  0.1140
  181POPC  H14R20753   5.249   2.159   5.428 -0.6077  0.6188 -1.6443
  181POPC  H14S20754   5.284   2.320   5.400 -0.7331 -0.2935 -1.2978
  181POPC  C21520755   5.067   2.265   5.382  0.3209 -0.0449  0.7109
  181POPC  H15R20756   5.002   2.326   5.448 -1.1985 -1.9182  1.0379
  181POPC  H15S20757   5.025   2.162   5.384 -0.6973  0.3395 -0.0930
  181POPC  C21620758   5.087   2.318   5.233 -0.9819 -0.2610 -0.2509
  181POPC  H16R20759   5.165   2.252   5.189  0.7124  1.2294  0.4335
  181POPC  H16S20760   5.127   2.420   5.250 -1.3348  0.0363 -1.1251
  181POPC  C21720761   4.971   2.322   5.130  0.4190  0.2568  0.4147
  181POPC  H17R20762   4.889   2.394   5.151  0.0284  0.2583 -1.0268
  181POPC  H17S20763   4.929   2.219   5.137  1.2952 -0.0123  5.0972
  181POPC  C21820764   5.014   2.359   4.993 -0.1391  0.2735 -0.3588
  181POPC  H18R20765   5.051   2.464   4.996 -1.0089  0.6780 -2.2845
  181POPC  H18S20766   4.937   2.348   4.914  2.2864  3.0928 -3.4244
  181POPC  H18T20767   5.096   2.291   4.960 -0.4489  0.1749 -0.9343
  181POPC   C3320768   5.393   2.535   6.433 -0.1375  0.3655  0.0753
  181POPC   H3X20769   5.442   2.435   6.435 -0.1979  0.3434  2.5129
  181POPC   H3Y20770   5.475   2.609   6.445  1.0805 -1.0064  0.5300
  181POPC   C3420771   5.322   2.559   6.296  0.6006 -0.4796 -0.1929
  181POPC   H4X20772   5.263   2.653   6.296  0.4242 -0.5809 -1.0476
  181POPC   H4Y20773   5.263   2.466   6.280  1.7830 -1.0752 -1.2808
  181POPC   C3520774   5.431   2.566   6.183  0.6874 -1.1549  0.1313
  181POPC   H5X20775   5.485   2.469   6.182 -0.2632 -1.7036 -0.5148
  181POPC   H5Y20776   5.498   2.648   6.216 -0.9256 -0.1899  1.1906
  181POPC   C3620777   5.362   2.605   6.055  0.1700  0.2363 -0.0170
  181POPC   H6X20778   5.303   2.698   6.059 -0.5575 -0.0479 -2.5020
  181POPC   H6Y20779   5.294   2.519   6.034  0.0851 -0.5802  3.1209
  181POPC   C3720780   5.459   2.609   5.944 -0.7495 -0.4343 -0.4191
  181POPC   H7X20781   5.517   2.516   5.926 -0.1039 -0.0593 -0.3197
  181POPC   H7Y20782   5.530   2.691   5.967 -0.7075  0.8454 -4.3293
  181POPC   C3820783   5.402   2.644   5.798 -0.3174  0.5346 -0.1076
  181POPC   H8X20784   5.359   2.746   5.812  0.2984  1.1915 -2.5213
  181POPC   H8Y20785   5.328   2.566   5.771 -1.9902  1.7644  0.6875
  181POPC   C3920786   5.515   2.660   5.691  0.2083  0.5201  0.5466
  181POPC   H9X20787   5.587   2.575   5.687  1.0272  1.2366 -0.3783
  181POPC   H9Y20788   5.578   2.749   5.714  0.4968  0.1248  1.3318
  181POPC  C31020789   5.447   2.669   5.554 -0.7082 -0.1920 -0.5785
  181POPC  H10X20790   5.410   2.773   5.539  2.7855  1.0131 -1.8989
  181POPC  H10Y20791   5.359   2.601   5.542 -0.2970 -0.8613  0.1742
  181POPC  C31120792   5.535   2.620   5.438 -0.7324 -0.8717  0.5408
  181POPC  H11X20793   5.596   2.534   5.473 -0.6100 -0.2558  1.8884
  181POPC  H11Y20794   5.609   2.701   5.422  0.6044 -2.1864 -0.1722
  181POPC  C31220795   5.467   2.590   5.300  0.5549 -0.6885 -0.2795
  181POPC  H12X20796   5.405   2.679   5.274  1.0045 -0.7299 -1.5715
  181POPC  H12Y20797   5.405   2.498   5.305 -0.7039  0.1206 -0.4341
  181POPC  C31320798   5.573   2.582   5.186  0.5038  0.1668 -0.2911
  181POPC  H13X20799   5.626   2.484   5.193 -0.5037 -0.3263  1.2213
  181POPC  H13Y20800   5.646   2.665   5.193  0.8733 -0.1073 -0.8344
  181POPC  C31420801   5.496   2.590   5.053 -0.1282  0.4681 -0.2394
  181POPC  H14X20802   5.557   2.597   4.961 -0.7191 -0.6747 -0.7393
  181POPC  H14Y20803   5.441   2.687   5.060 -1.0189  0.0006 -0.5810
  181POPC  C31520804   5.394   2.481   5.031  0.2042 -0.3666  0.0432
  181POPC  H15X20805   5.308   2.491   5.100 -0.2854 -0.2053 -0.5713
  181POPC  H15Y20806   5.439   2.380   5.038 -1.5008 -1.0994  1.0200
  181POPC  C31620807   5.343   2.493   4.886 -0.3758  0.3535 -0.6509
  181POPC  H16X20808   5.266   2.417   4.861 -0.9871  0.2775  1.2418
  181POPC  H16Y20809   5.426   2.477   4.814  1.0193 -0.5014  1.0635
  181POPC  H16Z20810   5.295   2.592   4.875  0.4800  0.6710 -1.7172
  182POPC     N20811   1.032   6.778   7.302 -0.0422  0.3564  0.7517
  182POPC   C1220812   0.973   6.673   7.207 -0.0766 -0.4992 -0.5363
  182POPC  H12A20813   1.063   6.629   7.166  1.0718 -0.3471  1.6300
  182POPC  H12B20814   0.917   6.717   7.126 -1.3937  0.8142  1.0273
  182POPC   C1320815   1.126   6.714   7.399 -0.2652  0.2236 -0.1053
  182POPC  H13A20816   1.187   6.646   7.342 -1.4142 -0.6311 -0.3402
  182POPC  H13B20817   1.180   6.793   7.450 -0.5051  0.8810 -0.8609
  182POPC  H13C20818   1.082   6.642   7.466 -2.3169  1.9199  0.4518
  182POPC   C1420819   1.113   6.881   7.227  0.0348 -1.1681  0.3045
  182POPC  H14A20820   1.187   6.833   7.165 -0.4273  0.9191 -2.0511
  182POPC  H14B20821   1.060   6.933   7.148  0.9988 -1.5572 -0.6252
  182POPC  H14C20822   1.149   6.957   7.295 -0.6520 -1.6720  1.2493
  182POPC   C1520823   0.924   6.856   7.362 -0.5866  0.1963 -0.2212
  182POPC  H15A20824   0.860   6.791   7.419  2.1652 -1.5192  1.0957
  182POPC  H15B20825   0.868   6.903   7.282 -0.7394  1.0929  0.3930
  182POPC  H15C20826   0.956   6.927   7.437 -0.3090 -1.4807  1.3188
  182POPC   C1120827   0.889   6.564   7.273  0.2726  0.0018 -0.5646
  182POPC  H11A20828   0.941   6.519   7.360 -1.0654 -1.0190 -0.2617
  182POPC  H11B20829   0.876   6.472   7.212  1.2507  0.9723 -2.3274
  182POPC     P20830   0.641   6.644   7.203 -0.2687 -0.2012  0.0497
  182POPC   O1320831   0.559   6.764   7.232  0.2677  0.5644  0.4239
  182POPC   O1420832   0.573   6.513   7.179 -0.4702  0.2013 -0.0226
  182POPC   O1220833   0.761   6.618   7.309  0.1329 -0.9785  0.1760
  182POPC   O1120834   0.732   6.669   7.073 -0.0424 -0.8338  0.1701
  182POPC    C120835   0.755   6.801   7.013  0.1620  0.1632  0.6678
  182POPC    HA20836   0.860   6.804   6.976 -0.0640  0.4520  0.0383
  182POPC    HB20837   0.740   6.884   7.084  0.8228 -0.4915  1.5977
  182POPC    C220838   0.663   6.819   6.890  0.4474 -0.0927 -0.0768
  182POPC    HS20839   0.557   6.807   6.921  0.2944  0.3213 -0.4262
  182POPC   O2120840   0.698   6.727   6.786 -0.0564  0.0639 -0.1832
  182POPC   C2120841   0.598   6.692   6.704  0.5176  0.4106  0.3031
  182POPC   O2220842   0.479   6.704   6.726 -0.1902 -0.0852 -0.0521
  182POPC   C2220843   0.663   6.620   6.585 -0.1652 -0.3427 -0.3143
  182POPC   H2R20844   0.738   6.550   6.628 -0.1735 -0.0058  0.2650
  182POPC   H2S20845   0.724   6.698   6.535 -2.5758  2.2391  0.5039
  182POPC    C320846   0.664   6.959   6.838  0.1781 -0.6736 -0.3202
  182POPC    HX20847   0.771   6.973   6.812  0.5193 -1.0995  0.8002
  182POPC    HY20848   0.640   7.017   6.929  0.0993  0.3001 -0.9418
  182POPC   O3120849   0.565   6.983   6.729  0.7586 -0.0073  0.0348
  182POPC   C3120850   0.495   7.093   6.731  0.5133  0.1642 -0.0822
  182POPC   O3220851   0.494   7.175   6.822 -0.4389  0.7595 -0.1911
  182POPC   C3220852   0.414   7.099   6.596  0.5484 -0.1141 -0.1429
  182POPC   H2X20853   0.350   7.008   6.601 -1.0087  0.9741  0.4318
  182POPC   H2Y20854   0.487   7.088   6.513  0.8608  0.3596  0.0652
  182POPC   C2320855   0.573   6.557   6.482  0.2020 -0.4377  0.0865
  182POPC   H3R20856   0.503   6.485   6.530  1.6572 -0.7741  1.8082
  182POPC   H3S20857   0.628   6.492   6.411 -2.1308 -1.9645 -0.4472
  182POPC   C2420858   0.474   6.653   6.411  0.0351 -0.0491  0.5761
  182POPC   H4R20859   0.538   6.729   6.360 -0.6019  0.2511  0.2169
  182POPC   H4S20860   0.412   6.717   6.477  0.9296 -0.3802  1.7761
  182POPC   C2520861   0.384   6.577   6.311  0.7539 -0.0277 -0.2848
  182POPC   H5R20862   0.299   6.516   6.349 -1.0820  0.5297 -3.1529
  182POPC   H5S20863   0.438   6.492   6.264 -3.1310 -2.6026 -0.6144
  182POPC   C2620864   0.319   6.676   6.204 -0.1801  0.1272 -1.0562
  182POPC   H6R20865   0.258   6.619   6.130 -0.5173 -0.4155 -0.3772
  182POPC   H6S20866   0.396   6.737   6.152  0.7858  0.2514  0.4658
  182POPC   C2720867   0.228   6.771   6.283  0.5757 -0.4992 -0.4408
  182POPC   H7R20868   0.291   6.849   6.331 -0.0515 -1.4897  2.1781
  182POPC   H7S20869   0.180   6.705   6.358  0.5854  0.8510  0.7963
  182POPC   C2820870   0.125   6.840   6.189  0.2840 -0.4290 -0.5176
  182POPC   H8R20871   0.065   6.759   6.140 -1.8225  1.1457 -0.7000
  182POPC   H8S20872   0.181   6.886   6.105  0.9387  1.0370  0.6903
  182POPC   C2920873   0.043   6.925   6.282  0.1206 -0.8121  0.2832
  182POPC   H9120874   0.018   6.876   6.377 -1.7645  0.2985  0.4135
  182POPC  C21020875  -0.007   7.050   6.254  0.0784 -0.0853  0.4835
  182POPC  H10120876  -0.057   7.114   6.328 -1.3649 -1.1484  0.4680
  182POPC  C21120877   0.020   7.119   6.120 -0.4659  0.3560  0.5236
  182POPC  H11R20878  -0.008   7.061   6.029 -0.8892 -1.6115  1.8320
  182POPC  H11S20879   0.124   7.154   6.113 -0.2288 -0.0897  1.5387
  182POPC  C21220880  -0.077   7.235   6.111 -0.2687 -0.6238 -0.6758
  182POPC  H12R20881  -0.066   7.310   6.192 -1.6109  0.3816 -1.3889
  182POPC  H12S20882  -0.180   7.194   6.113 -0.2428 -0.6778 -0.3344
  182POPC  C21320883  -0.067   7.304   5.977  0.6018 -0.4738 -0.7815
  182POPC  H13R20884   0.043   7.318   5.965 -0.0141  3.9175 -3.3336
  182POPC  H13S20885  -0.120   7.400   5.992 -0.8614 -1.2617 -0.7245
  182POPC  C21420886  -0.131   7.230   5.853 -0.1434 -0.3232 -0.9784
  182POPC  H14R20887  -0.238   7.201   5.862 -0.3356  0.8791  1.2137
  182POPC  H14S20888  -0.067   7.141   5.831  1.2937  0.2048  0.8454
  182POPC  C21520889  -0.120   7.323   5.730  0.6794  0.9624  0.5116
  182POPC  H15R20890  -0.183   7.412   5.747  1.8200  2.2459 -1.5538
  182POPC  H15S20891  -0.168   7.267   5.647  1.9811  0.5230  0.0130
  182POPC  C21620892   0.027   7.359   5.702  1.2537  0.6013 -0.3206
  182POPC  H16R20893   0.084   7.265   5.689  2.4392  0.8191  2.6523
  182POPC  H16S20894   0.058   7.414   5.793  0.9221 -1.7661  1.2941
  182POPC  C21720895   0.030   7.452   5.586 -0.3400  0.3650  0.1634
  182POPC  H17R20896  -0.041   7.534   5.608 -0.9854  0.1955 -1.1882
  182POPC  H17S20897  -0.028   7.395   5.510  0.1993  0.5731 -0.4126
  182POPC  C21820898   0.168   7.497   5.550 -0.0958 -0.1681 -0.1841
  182POPC  H18R20899   0.176   7.594   5.495 -1.2075  0.2096  0.2802
  182POPC  H18S20900   0.224   7.409   5.513  0.3772 -0.0328  0.2029
  182POPC  H18T20901   0.210   7.516   5.651 -0.8024 -1.9878  0.4969
  182POPC   C3320902   0.344   7.233   6.590  0.5496  0.2605  0.4993
  182POPC   H3X20903   0.406   7.318   6.626 -0.2525  0.2329  2.0464
  182POPC   H3Y20904   0.248   7.221   6.645 -0.4959 -0.7570 -1.4381
  182POPC   C3420905   0.284   7.263   6.448  0.7814  0.3112  0.0740
  182POPC   H4X20906   0.245   7.164   6.415  1.2699 -0.6892  2.2944
  182POPC   H4Y20907   0.367   7.297   6.384  0.3265  3.1625  0.8592
  182POPC   C3520908   0.175   7.366   6.449  0.5192  0.1427  0.0106
  182POPC   H5X20909   0.142   7.380   6.343  0.0542 -1.3476 -0.0674
  182POPC   H5Y20910   0.215   7.464   6.482 -2.3870  1.8790 -1.1742
  182POPC   C3620911   0.054   7.331   6.535 -0.6424 -0.0739  0.0831
  182POPC   H6X20912   0.069   7.355   6.642  2.1637 -0.0333 -0.2582
  182POPC   H6Y20913   0.028   7.223   6.532 -1.4931  0.1105  0.6353
  182POPC   C3720914  -0.075   7.413   6.493  0.2366 -0.6869 -0.4708
  182POPC   H7X20915  -0.054   7.458   6.394  2.3839  1.0765  0.6937
  182POPC   H7Y20916  -0.090   7.495   6.566 -2.3807 -0.1964 -1.4665
  182POPC   C3820917  -0.202   7.327   6.487 -0.3544 -0.0411 -0.4654
  182POPC   H8X20918  -0.246   7.308   6.587 -1.1887 -4.1009 -1.4399
  182POPC   H8Y20919  -0.181   7.227   6.443 -2.7335 -0.3057 -1.1358
  182POPC   C3920920  -0.308   7.383   6.399 -0.0709  0.7225 -0.1810
  182POPC   H9X20921  -0.308   7.340   6.297  3.0141 -1.6435  0.6642
  182POPC   H9Y20922  -0.300   7.492   6.381  1.1625  0.5344 -0.8425
  182POPC  C31020923  -0.450   7.346   6.453 -0.5951  0.4889 -0.8650
  182POPC  H10X20924  -0.480   7.420   6.530  1.1019 -0.4331  0.7691
  182POPC  H10Y20925  -0.453   7.248   6.506 -0.1863  1.2276  0.5624
  182POPC  C31120926  -0.557   7.335   6.343  0.1144  0.5543 -0.3267
  182POPC  H11X20927  -0.529   7.254   6.273  1.0121  0.3121  0.3063
  182POPC  H11Y20928  -0.546   7.429   6.284  1.7298 -0.2094 -1.2867
  182POPC  C31220929  -0.690   7.336   6.416 -0.3905  0.0438  0.1668
  182POPC  H12X20930  -0.705   7.434   6.466  2.9065  0.6966  0.1240
  182POPC  H12Y20931  -0.697   7.264   6.501 -2.3288  1.3888  1.2094
  182POPC  C31320932  -0.806   7.323   6.318  0.0467 -0.6802 -0.0205
  182POPC  H13X20933  -0.897   7.329   6.381  0.4426  2.4070  0.4499
  182POPC  H13Y20934  -0.805   7.216   6.289 -0.1047 -0.9330  0.8702
  182POPC  C31420935  -0.806   7.415   6.196 -0.2549 -0.5090 -0.2242
  182POPC  H14X20936  -0.711   7.397   6.141 -0.8203  1.1723 -1.8440
  182POPC  H14Y20937  -0.808   7.517   6.241  1.7004 -0.3635 -0.3849
  182POPC  C31520938  -0.934   7.400   6.109  0.0231  0.4580  0.1220
  182POPC  H15X20939  -1.013   7.459   6.161  0.5102 -0.0985  1.5666
  182POPC  H15Y20940  -0.963   7.293   6.119 -0.6314  0.4669 -1.4804
  182POPC  C31620941  -0.916   7.442   5.967  0.1502 -0.5658 -0.0419
  182POPC  H16X20942  -1.009   7.478   5.917  0.2015 -0.6060 -0.1654
  182POPC  H16Y20943  -0.866   7.368   5.901 -0.3438 -0.4704 -0.5293
  182POPC  H16Z20944  -0.846   7.527   5.981  0.0750 -0.3585 -0.8481
  183POPC     N20945   0.219   4.892   6.742 -0.6445  0.9677 -0.6944
  183POPC   C1220946   0.183   5.013   6.666 -0.6782 -0.0617 -0.3613
  183POPC  H12A20947   0.250   5.016   6.582  1.0243 -0.6270  0.9240
  183POPC  H12B20948   0.199   5.099   6.729 -1.0333 -2.0267  2.6390
  183POPC   C1320949   0.136   4.879   6.866 -0.5854 -0.2229  0.0188
  183POPC  H13A20950   0.150   4.959   6.937 -1.1115  0.5067 -0.6906
  183POPC  H13B20951   0.031   4.870   6.842 -1.0182 -0.1998  1.7660
  183POPC  H13C20952   0.162   4.788   6.920 -1.9730 -0.2207  0.7491
  183POPC   C1420953   0.193   4.765   6.667 -0.0147  0.0853  0.7478
  183POPC  H14A20954   0.087   4.753   6.651 -0.2732  0.1241  2.3213
  183POPC  H14B20955   0.239   4.772   6.569  0.1555  0.5707  0.8542
  183POPC  H14C20956   0.234   4.684   6.725  2.0871  1.2948  1.1024
  183POPC   C1520957   0.374   4.893   6.767  0.0373  0.3524  0.6514
  183POPC  H15A20958   0.430   4.878   6.675 -1.5273  1.9304 -0.6351
  183POPC  H15B20959   0.395   4.812   6.835 -2.0429 -1.0497 -0.2608
  183POPC  H15C20960   0.398   4.994   6.798 -1.1955  0.6566  0.6650
  183POPC   C1120961   0.042   5.033   6.602 -0.1668 -0.0687 -0.0090
  183POPC  H11A20962   0.039   4.947   6.531 -0.7678 -2.9358  3.2094
  183POPC  H11B20963   0.035   5.124   6.538 -0.5171 -0.6834 -0.8644
  183POPC     P20964  -0.116   5.139   6.776  0.1686  0.1100  0.3740
  183POPC   O1320965  -0.011   5.243   6.799  0.1747 -0.0746 -0.3447
  183POPC   O1420966  -0.194   5.096   6.892 -0.0089  0.4194 -0.4915
  183POPC   O1220967  -0.057   5.017   6.705  0.0215 -0.2035  0.2349
  183POPC   O1120968  -0.213   5.191   6.661 -0.1448  0.2062  0.1387
  183POPC    C120969  -0.325   5.112   6.612  0.4570 -0.1638 -0.4091
  183POPC    HA20970  -0.413   5.174   6.585 -0.6655 -1.3313  0.4201
  183POPC    HB20971  -0.355   5.045   6.695  0.8649 -1.9777 -1.6537
  183POPC    C220972  -0.292   5.033   6.473 -0.5221 -0.5271 -0.1424
  183POPC    HS20973  -0.205   4.973   6.507  1.2917  1.4384 -1.1114
  183POPC   O2120974  -0.257   5.123   6.371 -0.1930 -0.8363 -0.3507
  183POPC   C2120975  -0.168   5.069   6.280  0.1111  0.1457 -0.6272
  183POPC   O2220976  -0.122   4.955   6.284 -0.2606  0.1871  0.0270
  183POPC   C2220977  -0.156   5.155   6.159 -0.2195 -0.3364 -0.4346
  183POPC   H2R20978  -0.118   5.257   6.184  1.7579 -0.9463 -0.7801
  183POPC   H2S20979  -0.257   5.161   6.114  0.5878 -2.0960 -2.6877
  183POPC    C320980  -0.413   4.947   6.429 -0.6836  0.2950 -0.5328
  183POPC    HX20981  -0.448   4.878   6.508  1.5448  0.3366  0.5360
  183POPC    HY20982  -0.366   4.882   6.352  0.3135  1.6080 -1.0735
  183POPC   O3120983  -0.523   5.025   6.371  0.2573 -0.8124  0.0877
  183POPC   C3120984  -0.646   5.011   6.411  0.3926  0.1498 -0.5398
  183POPC   O3220985  -0.666   4.953   6.520  0.3506  0.3533  0.1793
  183POPC   C3220986  -0.746   5.082   6.328 -0.3127  0.3420 -0.2278
  183POPC   H2X20987  -0.796   5.156   6.394 -0.6520  0.1406 -0.2554
  183POPC   H2Y20988  -0.819   5.007   6.292 -0.2102  0.4360 -0.6360
  183POPC   C2320989  -0.047   5.116   6.058  0.6524  0.2432 -0.2534
  183POPC   H3R20990  -0.078   5.013   6.030 -1.0965  0.9161 -0.8767
  183POPC   H3S20991   0.054   5.121   6.105  2.6117 -0.8624 -3.9660
  183POPC   C2420992  -0.037   5.201   5.933 -0.2414 -0.1920  0.0732
  183POPC   H4R20993   0.066   5.191   5.892 -0.6845  0.0746 -1.1336
  183POPC   H4S20994  -0.045   5.305   5.971 -2.3220 -0.9124  1.8714
  183POPC   C2520995  -0.146   5.184   5.823 -0.5887 -0.1743  0.0122
  183POPC   H5R20996  -0.236   5.150   5.878 -1.7383  1.9050 -0.4801
  183POPC   H5S20997  -0.108   5.105   5.754  1.0372  1.6792 -1.3425
  183POPC   C2620998  -0.172   5.317   5.750 -0.4686  0.4359 -0.1735
  183POPC   H6R20999  -0.076   5.340   5.699  0.2417 -0.6424  0.6311
  183POPC   H6S21000  -0.200   5.397   5.821 -0.0700  2.1894 -1.9032
  183POPC   C2721001  -0.295   5.315   5.656  0.1393 -0.1647 -0.2379
  183POPC   H7R21002  -0.308   5.413   5.606 -1.1912 -0.7907 -1.1877
  183POPC   H7S21003  -0.387   5.300   5.717  1.5412 -5.0798  1.0939
  183POPC   C2821004  -0.312   5.219   5.540 -1.0399  0.2943  0.4327
  183POPC   H8R21005  -0.414   5.234   5.499 -0.7574 -0.7709 -0.7293
  183POPC   H8S21006  -0.328   5.117   5.581 -1.9885 -0.0258 -0.6549
  183POPC   C2921007  -0.191   5.232   5.453  0.5212  0.5356  0.5504
  183POPC   H9121008  -0.098   5.247   5.511  1.4772  1.4049 -1.0983
  183POPC  C21021009  -0.185   5.238   5.315  0.0694 -0.0327 -0.1246
  183POPC  H10121010  -0.090   5.266   5.268 -0.8591  3.1551 -0.3819
  183POPC  C21121011  -0.298   5.219   5.222 -0.0996  0.2794  0.4078
  183POPC  H11R21012  -0.390   5.171   5.262 -0.3129  1.6313  1.6098
  183POPC  H11S21013  -0.271   5.147   5.141 -4.0277 -1.3560  0.3376
  183POPC  C21221014  -0.356   5.346   5.152 -0.0070 -0.2392  0.4663
  183POPC  H12R21015  -0.356   5.434   5.220  0.7465  0.1022  0.0483
  183POPC  H12S21016  -0.458   5.318   5.119 -0.3991  1.2039  0.3833
  183POPC  C21321017  -0.270   5.376   5.027 -0.0626  0.4966 -0.1114
  183POPC  H13R21018  -0.227   5.285   4.980  0.7783  0.3498  0.9102
  183POPC  H13S21019  -0.182   5.434   5.063 -0.1249 -0.0110  0.8852
  183POPC  C21421020  -0.354   5.454   4.934 -0.4761 -0.9299 -1.0048
  183POPC  H14R21021  -0.406   5.541   4.979  0.3136 -0.8394 -0.2555
  183POPC  H14S21022  -0.430   5.384   4.891  0.0698 -1.8735 -0.4622
  183POPC  C21521023  -0.258   5.513   4.827  0.7690  0.0067 -0.9839
  183POPC  H15R21024  -0.199   5.597   4.871 -1.2572  1.0138 -0.0055
  183POPC  H15S21025  -0.327   5.557   4.752 -0.7518 -1.3701 -0.4426
  183POPC  C21621026  -0.172   5.410   4.755  0.2371  0.6957  0.2505
  183POPC  H16R21027  -0.246   5.335   4.721 -0.1488  1.6317 -1.0623
  183POPC  H16S21028  -0.091   5.357   4.809 -0.7058  0.1783  1.1890
  183POPC  C21721029  -0.110   5.479   4.632 -0.2384 -0.4920 -0.0963
  183POPC  H17R21030  -0.039   5.558   4.666  0.2921 -0.6320 -0.8509
  183POPC  H17S21031  -0.193   5.513   4.567 -1.5554 -2.0942  0.6452
  183POPC  C21821032  -0.021   5.379   4.545 -0.5739 -0.5485  0.1251
  183POPC  H18R21033   0.045   5.322   4.615  0.3903  0.9534  0.4938
  183POPC  H18S21034   0.036   5.432   4.465 -1.0406  2.3818  1.6061
  183POPC  H18T21035  -0.099   5.311   4.506 -2.0299 -0.0867  2.1114
  183POPC   C3321036  -0.691   5.143   6.197 -0.4711 -0.2069 -0.4683
  183POPC   H3X21037  -0.595   5.198   6.206 -0.7212  0.2527 -0.6024
  183POPC   H3Y21038  -0.767   5.210   6.151  1.5255  0.6005 -2.8364
  183POPC   C3421039  -0.682   5.032   6.085  0.4864 -0.0594 -0.2301
  183POPC   H4X21040  -0.783   4.986   6.072 -0.3803  0.4484  3.5548
  183POPC   H4Y21041  -0.638   4.942   6.132 -3.9030 -2.3555  0.0465
  183POPC   C3521042  -0.616   5.074   5.959  0.3979  0.1581 -0.0297
  183POPC   H5X21043  -0.511   5.100   5.986  0.3823 -0.9001  1.1108
  183POPC   H5Y21044  -0.671   5.164   5.925 -0.7760 -0.1140  1.0766
  183POPC   C3621045  -0.632   4.966   5.849 -0.0741 -0.7076 -0.5701
  183POPC   H6X21046  -0.741   4.946   5.846 -0.3345 -0.2089  2.6115
  183POPC   H6Y21047  -0.579   4.872   5.873  2.0950  0.0849 -1.9782
  183POPC   C3721048  -0.590   5.023   5.715 -0.1924 -0.4003  0.3141
  183POPC   H7X21049  -0.481   5.043   5.721 -0.2192  0.9801 -2.2014
  183POPC   H7Y21050  -0.639   5.122   5.698  2.7985  1.4269  1.5756
  183POPC   C3821051  -0.622   4.921   5.606 -0.4067  0.1010  0.2400
  183POPC   H8X21052  -0.725   4.882   5.621  0.1625 -1.1765  0.9553
  183POPC   H8Y21053  -0.551   4.836   5.614 -0.4324  0.0922  0.3834
  183POPC   C3921054  -0.621   4.984   5.469  0.1393  0.4647  0.1795
  183POPC   H9X21055  -0.542   5.062   5.458 -0.1004  0.9346  1.6104
  183POPC   H9Y21056  -0.713   5.046   5.459 -0.5443 -0.3699  1.2139
  183POPC  C31021057  -0.622   4.890   5.354  0.8499  0.8731 -0.2193
  183POPC  H10X21058  -0.723   4.843   5.351  1.4392 -0.4219 -2.0733
  183POPC  H10Y21059  -0.548   4.808   5.363 -0.4821 -0.3090  0.4860
  183POPC  C31121060  -0.608   4.953   5.216 -0.1980 -0.1809  0.7084
  183POPC  H11X21061  -0.506   4.993   5.201 -0.9034  2.2037  1.7830
  183POPC  H11Y21062  -0.672   5.044   5.207  0.7885  0.3689 -1.7592
  183POPC  C31221063  -0.663   4.863   5.106  0.1099  0.1890 -0.0419
  183POPC  H12X21064  -0.766   4.831   5.132  0.3089  0.7576  1.5180
  183POPC  H12Y21065  -0.599   4.772   5.105  0.9797  0.6920  2.5881
  183POPC  C31321066  -0.670   4.944   4.971 -0.0359  1.0712 -0.0652
  183POPC  H13X21067  -0.727   5.035   5.000  2.1066  2.8059 -1.0116
  183POPC  H13Y21068  -0.729   4.891   4.892  2.5520 -0.1174 -1.3426
  183POPC  C31421069  -0.530   4.977   4.912 -0.5061  0.1994 -0.0654
  183POPC  H14X21070  -0.496   4.878   4.873 -0.3587  0.4435 -0.5548
  183POPC  H14Y21071  -0.453   5.009   4.986  0.2002 -2.1368  0.3044
  183POPC  C31521072  -0.530   5.059   4.777  0.4652  0.3374 -0.7961
  183POPC  H15X21073  -0.424   5.046   4.745  1.2637  0.2462  1.6429
  183POPC  H15Y21074  -0.545   5.163   4.811 -1.0050 -1.2397  4.2595
  183POPC  C31621075  -0.610   5.011   4.665  0.4143  0.1454 -0.0069
  183POPC  H16X21076  -0.712   5.054   4.673 -0.5980 -2.1771  0.4342
  183POPC  H16Y21077  -0.620   4.900   4.668  1.3409 -0.0184 -1.6812
  183POPC  H16Z21078  -0.567   5.029   4.564  0.4938  0.3571  0.0654
  184POPC     N21079   0.482   4.021   6.835 -0.3723 -1.0728 -0.2942
  184POPC   C1221080   0.427   4.100   6.724  0.4901 -0.2939  0.1648
  184POPC  H12A21081   0.374   4.181   6.771  2.2481  1.0317 -0.0126
  184POPC  H12B21082   0.354   4.043   6.669  0.9318  1.3714 -2.3002
  184POPC   C1321083   0.372   3.950   6.906 -0.5869  0.0654 -0.8860
  184POPC  H13A21084   0.405   3.877   6.979 -2.1520  0.7667  0.5777
  184POPC  H13B21085   0.315   4.022   6.961 -1.2855 -2.5710  2.1020
  184POPC  H13C21086   0.302   3.902   6.839 -1.0340 -0.3430 -0.1330
  184POPC   C1421087   0.563   3.911   6.785  0.4188 -0.4383  0.4040
  184POPC  H14A21088   0.560   3.829   6.856  1.9843 -0.7154  0.1884
  184POPC  H14B21089   0.529   3.881   6.687  0.2993  1.4079 -0.1535
  184POPC  H14C21090   0.663   3.952   6.776 -0.5556  1.9876 -0.1748
  184POPC   C1521091   0.568   4.101   6.931  0.0903  0.4555 -0.2171
  184POPC  H15A21092   0.631   4.166   6.873 -1.4246  3.5505  1.3758
  184POPC  H15B21093   0.625   4.026   6.983 -1.5580 -0.0327  0.9948
  184POPC  H15C21094   0.512   4.170   6.992  1.3395  1.2690  0.0341
  184POPC   C1121095   0.527   4.158   6.628 -0.1460  0.3050  0.8503
  184POPC  H11A21096   0.464   4.188   6.542 -0.2397 -1.4546  0.2696
  184POPC  H11B21097   0.600   4.083   6.590 -1.6576 -1.4641  1.3020
  184POPC     P21098   0.746   4.300   6.677  0.5154 -0.4092  0.0906
  184POPC   O1321099   0.822   4.182   6.728  0.3165 -0.7149 -0.1460
  184POPC   O1421100   0.777   4.435   6.725  0.5346 -0.1701 -0.3104
  184POPC   O1221101   0.587   4.276   6.690 -0.0930 -0.3831 -0.7869
  184POPC   O1121102   0.780   4.299   6.523 -0.1401  0.5278  0.3252
  184POPC    C121103   0.734   4.393   6.430  0.6139 -0.3129 -0.7159
  184POPC    HA21104   0.819   4.438   6.374 -0.8626  2.0982 -1.1851
  184POPC    HB21105   0.669   4.472   6.475  1.5717  0.0302  0.1127
  184POPC    C221106   0.641   4.333   6.333 -0.1812  0.6192 -1.1456
  184POPC    HS21107   0.543   4.310   6.381  1.0148 -2.4435  0.0484
  184POPC   O2121108   0.697   4.214   6.277  0.1420  0.3816  0.0643
  184POPC   C2121109   0.611   4.119   6.259  0.2837 -0.3258  0.2291
  184POPC   O2221110   0.495   4.116   6.290  0.1386 -0.1302 -0.2170
  184POPC   C2221111   0.675   4.004   6.180 -0.4624 -0.2499  0.8029
  184POPC   H2R21112   0.641   3.909   6.227  0.9819  0.0793  2.6730
  184POPC   H2S21113   0.785   4.013   6.184 -0.6407  3.2045  1.1130
  184POPC    C321114   0.602   4.433   6.220  0.4486  0.1085  0.5160
  184POPC    HX21115   0.693   4.464   6.163  0.1212 -0.4497 -0.3193
  184POPC    HY21116   0.571   4.529   6.266 -1.1576 -0.9380  1.7202
  184POPC   O3121117   0.509   4.378   6.124  0.3306 -0.6129  0.2244
  184POPC   C3121118   0.380   4.378   6.153 -0.7845 -0.4415  0.0130
  184POPC   O3221119   0.325   4.431   6.246  0.6878  0.3522  0.2665
  184POPC   C3221120   0.306   4.300   6.038  0.1848 -0.1419 -0.7401
  184POPC   H2X21121   0.262   4.212   6.089  0.4490 -0.1037 -0.4493
  184POPC   H2Y21122   0.384   4.278   5.962 -1.3733 -1.1001 -2.1420
  184POPC   C2321123   0.627   3.998   6.030 -1.3681  0.1079  0.9113
  184POPC   H3R21124   0.516   3.999   6.028 -1.3620  1.1560  0.6430
  184POPC   H3S21125   0.668   3.902   5.992 -1.3415  1.1446 -1.9495
  184POPC   C2421126   0.686   4.114   5.953  0.5715  0.2893 -0.3081
  184POPC   H4R21127   0.794   4.089   5.948 -0.0874 -3.0280 -0.1968
  184POPC   H4S21128   0.683   4.209   6.011  2.0339 -0.8968  1.8454
  184POPC   C2521129   0.630   4.140   5.814  0.0763 -0.2416 -0.2396
  184POPC   H5R21130   0.641   4.248   5.788 -0.5553 -0.1424 -0.0994
  184POPC   H5S21131   0.526   4.104   5.796 -0.4198  1.0703 -0.1570
  184POPC   C2621132   0.713   4.063   5.712  0.2588 -0.2202  0.5495
  184POPC   H6R21133   0.692   3.954   5.722 -0.4638 -0.0140  1.3444
  184POPC   H6S21134   0.823   4.075   5.718 -0.1124  3.3367  2.4092
  184POPC   C2721135   0.661   4.089   5.572 -0.0143 -0.6669 -0.1746
  184POPC   H7R21136   0.689   4.193   5.544 -2.2984  0.3150  0.9264
  184POPC   H7S21137   0.550   4.090   5.576 -0.0582 -1.9382 -0.6676
  184POPC   C2821138   0.715   3.981   5.480 -0.2645  0.4307 -0.3414
  184POPC   H8R21139   0.658   3.994   5.385 -1.3076 -2.8257 -0.2765
  184POPC   H8S21140   0.696   3.874   5.504  1.2258  0.5230  1.4468
  184POPC   C2921141   0.860   3.986   5.447 -0.0430  0.3405  0.1116
  184POPC   H9121142   0.908   3.917   5.517  0.7136  0.4941 -0.2428
  184POPC  C21021143   0.917   4.030   5.339  0.5341  0.5379 -0.1226
  184POPC  H10121144   1.025   4.010   5.327  0.6072  0.7074  0.2587
  184POPC  C21121145   0.846   4.104   5.233 -0.8038 -0.2252  0.2202
  184POPC  H11R21146   0.863   4.214   5.228 -1.3792 -0.1902 -2.4136
  184POPC  H11S21147   0.736   4.090   5.232 -0.8937  0.4373  0.1074
  184POPC  C21221148   0.887   4.054   5.096  0.2157 -0.2654 -0.3392
  184POPC  H12R21149   0.987   4.091   5.064 -0.6857  1.0185 -1.8193
  184POPC  H12S21150   0.810   4.093   5.026 -0.7288 -0.4155  0.5961
  184POPC  C21321151   0.881   3.907   5.077  0.0069 -0.2579  0.2207
  184POPC  H13R21152   0.777   3.880   5.105 -1.2915  4.0155  0.2632
  184POPC  H13S21153   0.949   3.855   5.148 -0.1304 -0.4388  0.2211
  184POPC  C21421154   0.909   3.853   4.944 -0.2108 -0.7754  0.3455
  184POPC  H14R21155   1.019   3.863   4.930 -0.0008  0.9372  2.5669
  184POPC  H14S21156   0.860   3.916   4.866 -0.0373 -0.1149  0.7589
  184POPC  C21521157   0.874   3.709   4.927  0.3841  0.0656  0.2029
  184POPC  H15R21158   0.763   3.704   4.926  0.4177 -0.6506 -0.3273
  184POPC  H15S21159   0.925   3.639   4.996  0.8779 -0.5401 -0.7528
  184POPC  C21621160   0.914   3.665   4.775 -0.3662 -0.0802  0.0418
  184POPC  H16R21161   0.920   3.555   4.778 -0.6582 -0.0801  1.5236
  184POPC  H16S21162   1.007   3.718   4.744 -1.9092  2.4919 -0.5540
  184POPC  C21721163   0.806   3.706   4.668  0.6540 -0.0808  0.8595
  184POPC  H17R21164   0.798   3.816   4.680  0.5220 -0.0350  0.3934
  184POPC  H17S21165   0.707   3.663   4.697  0.8878 -1.0986  0.1984
  184POPC  C21821166   0.838   3.655   4.529 -0.5840  0.2097  0.1298
  184POPC  H18R21167   0.748   3.662   4.464  0.7255  2.4090 -1.5919
  184POPC  H18S21168   0.875   3.551   4.534 -0.4034  0.1344 -1.8994
  184POPC  H18T21169   0.917   3.702   4.466 -1.7554  1.7744 -0.2327
  184POPC   C3321170   0.197   4.391   5.978  0.4651 -0.2800 -0.2587
  184POPC   H3X21171   0.134   4.420   6.065  1.3549 -0.0750  0.3283
  184POPC   H3Y21172   0.134   4.330   5.910 -1.1057  0.2399  0.6551
  184POPC   C3421173   0.243   4.519   5.899  0.2943  0.0462 -0.3196
  184POPC   H4X21174   0.300   4.589   5.963 -0.5639  0.2067  0.2964
  184POPC   H4Y21175   0.157   4.571   5.852  1.0268  0.4697 -1.2164
  184POPC   C3521176   0.332   4.480   5.776  1.0316  0.5338  0.4208
  184POPC   H5X21177   0.430   4.443   5.811  1.8771  4.1107  2.3424
  184POPC   H5Y21178   0.349   4.579   5.729 -2.3845  2.3231  2.5105
  184POPC   C3621179   0.264   4.395   5.665  0.1886 -0.0125 -0.0574
  184POPC   H6X21180   0.179   4.459   5.634  2.1810  2.7086 -0.3239
  184POPC   H6Y21181   0.220   4.298   5.694 -1.3053  1.3843  2.6743
  184POPC   C3721182   0.344   4.386   5.540 -0.0269  0.5883  0.7628
  184POPC   H7X21183   0.439   4.334   5.566 -0.4284 -0.4704  0.1870
  184POPC   H7Y21184   0.390   4.483   5.511 -0.5346  1.2999  2.2630
  184POPC   C3821185   0.289   4.316   5.416  1.0535  1.4548 -0.3098
  184POPC   H8X21186   0.233   4.384   5.347 -0.7295  0.1780 -0.1987
  184POPC   H8Y21187   0.226   4.229   5.444  1.8943 -0.3049 -3.4462
  184POPC   C3921188   0.402   4.250   5.331  0.2054 -0.2560 -0.1733
  184POPC   H9X21189   0.458   4.187   5.403  2.3961  1.5714 -0.1776
  184POPC   H9Y21190   0.469   4.333   5.298 -0.2863  0.5831  0.8659
  184POPC  C31021191   0.365   4.168   5.205  0.1839 -0.1393 -0.6325
  184POPC  H10X21192   0.274   4.218   5.166 -0.5685  0.2812  1.5537
  184POPC  H10Y21193   0.336   4.071   5.250 -1.7633  0.4552 -0.5143
  184POPC  C31121194   0.470   4.153   5.099  0.1766 -0.0724  0.2084
  184POPC  H11X21195   0.558   4.104   5.146  1.0258 -0.8539 -2.0178
  184POPC  H11Y21196   0.493   4.252   5.054 -0.2006 -0.5449 -1.0937
  184POPC  C31221197   0.423   4.059   4.986  0.0659 -0.2568 -0.0401
  184POPC  H12X21198   0.337   4.106   4.935 -0.5249 -1.0855  0.1840
  184POPC  H12Y21199   0.379   3.966   5.027  0.3043 -0.8675 -1.1262
  184POPC  C31321200   0.535   4.014   4.898 -0.0981 -0.2554  0.6390
  184POPC  H13X21201   0.612   3.962   4.959  0.7152  0.9501  0.6786
  184POPC  H13Y21202   0.594   4.104   4.870  1.5678 -0.8226  2.1677
  184POPC  C31421203   0.489   3.923   4.786  0.2997  0.4176  0.0010
  184POPC  H14X21204   0.442   3.836   4.835  0.6270  0.9871  1.3664
  184POPC  H14Y21205   0.569   3.887   4.718  0.9075  0.8195  0.4974
  184POPC  C31521206   0.387   3.987   4.691 -0.2129  0.3006 -0.3370
  184POPC  H15X21207   0.440   4.079   4.659  1.2828 -0.6930 -0.8657
  184POPC  H15Y21208   0.291   4.021   4.733  0.1032  0.3666  0.3341
  184POPC  C31621209   0.367   3.898   4.571  0.2457 -0.3029  0.4506
  184POPC  H16X21210   0.326   3.947   4.480  2.4586 -1.2043 -1.1151
  184POPC  H16Y21211   0.308   3.805   4.589 -0.5189  0.1105  0.1328
  184POPC  H16Z21212   0.460   3.851   4.533  0.6514 -0.9088  2.0981
  185POPC     N21213   4.752   3.952   2.252  0.1558  0.0040  0.3556
  185POPC   C1221214   4.722   4.004   2.390 -0.9521  0.1054  0.0677
  185POPC  H12A21215   4.799   3.956   2.448 -0.3119 -1.8843 -2.2382
  185POPC  H12B21216   4.627   3.963   2.422 -0.0699 -0.5767  1.9458
  185POPC   C1321217   4.648   3.990   2.152 -0.0461  0.0977  0.1009
  185POPC  H13A21218   4.576   3.911   2.137  0.8791 -1.2785  2.4710
  185POPC  H13B21219   4.610   4.085   2.185 -0.8998  0.2780 -1.3038
  185POPC  H13C21220   4.701   4.005   2.058  1.8442 -2.2862  0.6692
  185POPC   C1421221   4.876   4.023   2.218 -0.1655  0.1945 -0.2350
  185POPC  H14A21222   4.860   4.129   2.226  0.7478  0.3465 -0.3861
  185POPC  H14B21223   4.965   3.986   2.266  1.9997  0.2969 -3.8519
  185POPC  H14C21224   4.897   4.000   2.115 -0.3179 -2.6202  0.2634
  185POPC   C1521225   4.772   3.806   2.250 -0.0996  0.1325 -0.3220
  185POPC  H15A21226   4.804   3.775   2.152 -0.6946  1.8777 -1.1059
  185POPC  H15B21227   4.684   3.748   2.274 -0.0674 -1.2291 -3.0505
  185POPC  H15C21228   4.851   3.772   2.316 -0.9698 -2.5729 -0.5359
  185POPC   C1121229   4.736   4.154   2.415  0.0275 -0.0623 -0.1025
  185POPC  H11A21230   4.844   4.182   2.417  0.5471 -1.5395 -2.5272
  185POPC  H11B21231   4.700   4.177   2.518  2.5872  1.9422  0.4398
  185POPC     P21232   4.704   4.370   2.278  0.0501 -0.1099  0.3141
  185POPC   O1321233   4.601   4.448   2.203  0.0843 -0.6526 -0.2788
  185POPC   O1421234   4.824   4.338   2.196 -0.4540  0.1312 -0.7317
  185POPC   O1221235   4.652   4.231   2.326  0.4116  0.5359  0.6944
  185POPC   O1121236   4.750   4.446   2.409 -0.2201  0.2201  0.2744
  185POPC    C121237   4.653   4.513   2.489 -0.4663  0.1932  0.5342
  185POPC    HA21238   4.547   4.491   2.460 -0.6922  1.3677  0.3985
  185POPC    HB21239   4.661   4.620   2.459 -0.7668  0.4123  1.2292
  185POPC    C221240   4.687   4.507   2.642 -0.3274 -0.9624  0.3548
  185POPC    HS21241   4.794   4.539   2.645 -0.1359 -1.4017 -1.0663
  185POPC   O2121242   4.680   4.376   2.686  1.1052  0.7382 -0.0690
  185POPC   C2121243   4.780   4.299   2.721  0.0236 -1.0008 -0.4563
  185POPC   O2221244   4.899   4.331   2.698  0.6542  0.2924  0.0144
  185POPC   C2221245   4.737   4.175   2.801  0.3035 -0.1901 -0.1198
  185POPC   H2R21246   4.806   4.090   2.787 -0.9650 -1.5743  1.5565
  185POPC   H2S21247   4.634   4.150   2.766 -0.4719  2.1963  0.2657
  185POPC    C321248   4.605   4.595   2.734  0.6284 -0.3123 -0.4563
  185POPC    HX21249   4.503   4.552   2.725  0.3952  0.2399 -0.5265
  185POPC    HY21250   4.606   4.700   2.697 -0.4547 -0.3165 -0.5198
  185POPC   O3121251   4.638   4.592   2.874 -0.0403  0.2441 -1.2253
  185POPC   C3121252   4.745   4.662   2.906 -0.3497  0.2759 -0.0370
  185POPC   O3221253   4.804   4.734   2.833 -0.0615 -0.0472  0.2184
  185POPC   C3221254   4.770   4.660   3.062  0.7404 -0.5897 -0.2952
  185POPC   H2X21255   4.679   4.629   3.119  0.7931 -0.5864 -0.2100
  185POPC   H2Y21256   4.794   4.764   3.091 -0.1520 -0.5501  0.3547
  185POPC   C2321257   4.731   4.199   2.962 -0.2856 -0.0745  0.0748
  185POPC   H3R21258   4.688   4.108   3.010 -0.5062 -0.6099 -1.0957
  185POPC   H3S21259   4.659   4.278   2.992 -2.2339 -1.6033 -0.3223
  185POPC   C2421260   4.875   4.204   3.016 -0.1985 -1.0514  0.5672
  185POPC   H4R21261   4.926   4.298   2.988  1.6770 -1.5001  2.2544
  185POPC   H4S21262   4.930   4.128   2.956  0.3094  2.5769 -4.1981
  185POPC   C2521263   4.892   4.177   3.162 -0.2087  0.9110 -0.0812
  185POPC   H5R21264   4.856   4.073   3.174 -1.8729  1.3541 -0.9537
  185POPC   H5S21265   4.827   4.252   3.212  0.0967  0.5643  0.8521
  185POPC   C2621266   5.037   4.195   3.211  0.4020 -0.0124 -0.5574
  185POPC   H6R21267   5.079   4.271   3.142  2.8383 -1.0627 -0.3191
  185POPC   H6S21268   5.094   4.104   3.185 -0.7312 -0.8547 -0.1404
  185POPC   C2721269   5.048   4.245   3.354 -0.4307 -0.1914 -0.0194
  185POPC   H7R21270   4.981   4.330   3.377  0.3638  0.1155  1.2084
  185POPC   H7S21271   5.154   4.275   3.366 -1.0179  2.3728 -0.6951
  185POPC   C2821272   5.021   4.133   3.453 -0.0035  0.5952 -0.3729
  185POPC   H8R21273   5.077   4.047   3.410  0.4873  1.1554 -0.8691
  185POPC   H8S21274   4.914   4.104   3.453  0.5627 -1.8734 -2.5564
  185POPC   C2921275   5.073   4.168   3.592  0.4796 -0.4611  0.2997
  185POPC   H9121276   5.176   4.206   3.588 -0.8828  3.6182 -0.4413
  185POPC  C21021277   5.012   4.156   3.715  0.9511 -0.0790  0.7830
  185POPC  H10121278   5.053   4.188   3.811  0.4300  0.3314  0.8740
  185POPC  C21121279   4.870   4.119   3.744 -0.8800  0.9751 -0.3441
  185POPC  H11R21280   4.870   4.074   3.846 -1.4816  1.5505 -0.0798
  185POPC  H11S21281   4.822   4.046   3.677 -2.7207  0.9903  0.8675
  185POPC  C21221282   4.774   4.237   3.735 -0.3902 -0.0237  0.2599
  185POPC  H12R21283   4.781   4.280   3.633  1.1789 -0.0579  0.3290
  185POPC  H12S21284   4.796   4.316   3.811 -0.5765 -1.0435  1.4061
  185POPC  C21321285   4.628   4.193   3.764 -0.0893 -0.0965  0.3650
  185POPC  H13R21286   4.619   4.158   3.869  0.0178 -0.2998  0.3077
  185POPC  H13S21287   4.596   4.104   3.705 -0.8173 -0.1975  0.8906
  185POPC  C21421288   4.535   4.311   3.735 -0.0283  0.7387 -0.6908
  185POPC  H14R21289   4.526   4.321   3.625 -1.6647  1.7677 -0.5016
  185POPC  H14S21290   4.584   4.401   3.777  0.3053 -0.1413  0.9016
  185POPC  C21521291   4.390   4.298   3.793 -0.0342  0.4593  0.3031
  185POPC  H15R21292   4.389   4.276   3.902  0.0061 -0.0174  0.2092
  185POPC  H15S21293   4.336   4.211   3.749  0.2596  0.9163 -1.0181
  185POPC  C21621294   4.312   4.430   3.768  0.2842  0.2722 -0.8841
  185POPC  H16R21295   4.282   4.427   3.661  1.2092  1.0814 -1.1789
  185POPC  H16S21296   4.382   4.514   3.787 -1.0416  2.0804 -3.3832
  185POPC  C21721297   4.201   4.450   3.869  0.1178 -0.6808 -0.3661
  185POPC  H17R21298   4.226   4.405   3.968  0.4822 -0.6393 -0.4368
  185POPC  H17S21299   4.114   4.392   3.833  0.4291 -3.0054  2.2727
  185POPC  C21821300   4.152   4.593   3.878 -0.3064  0.4516  0.3864
  185POPC  H18R21301   4.218   4.659   3.938  0.2366  0.0249  0.2730
  185POPC  H18S21302   4.045   4.608   3.902 -1.2156 -1.1390 -2.2359
  185POPC  H18T21303   4.169   4.640   3.778  0.1349 -2.1051 -0.8320
  185POPC   C3321304   4.887   4.568   3.117  0.0604  0.1954  0.0803
  185POPC   H3X21305   4.980   4.588   3.061  0.5078 -1.7736  0.0327
  185POPC   H3Y21306   4.856   4.463   3.096  1.3834  0.2708 -2.7524
  185POPC   C3421307   4.916   4.591   3.267  0.8179 -0.6676  0.3616
  185POPC   H4X21308   4.953   4.695   3.283  0.3116 -0.7275  2.2071
  185POPC   H4Y21309   4.994   4.522   3.305  0.0903 -0.6183  2.0586
  185POPC   C3521310   4.795   4.582   3.364 -0.9835  0.1474  0.9720
  185POPC   H5X21311   4.747   4.483   3.348 -0.5754  0.4237 -2.8647
  185POPC   H5Y21312   4.715   4.652   3.330 -1.0415 -0.6821 -0.6605
  185POPC   C3621313   4.842   4.600   3.512  0.7851 -0.2267 -0.4328
  185POPC   H6X21314   4.883   4.703   3.512 -0.2130  0.1896  0.9791
  185POPC   H6Y21315   4.920   4.524   3.534 -0.2725 -1.0666  0.5438
  185POPC   C3721316   4.741   4.610   3.627 -0.1516  0.0193 -0.0722
  185POPC   H7X21317   4.713   4.510   3.665 -0.4455  0.2945  0.4551
  185POPC   H7Y21318   4.655   4.670   3.588  0.4280 -0.0999 -1.5970
  185POPC   C3821319   4.799   4.681   3.749  0.2846 -0.1852 -0.2732
  185POPC   H8X21320   4.829   4.786   3.727 -1.1898  0.9639  2.6140
  185POPC   H8Y21321   4.885   4.615   3.771 -0.6204 -1.4646 -0.4322
  185POPC   C3921322   4.699   4.674   3.867  1.0633  0.2240  0.2686
  185POPC   H9X21323   4.749   4.700   3.962 -2.6012 -0.0238  2.4886
  185POPC   H9Y21324   4.661   4.571   3.885 -1.3631  0.5943 -1.9853
  185POPC  C31021325   4.581   4.763   3.833  0.0016  0.1585 -0.0472
  185POPC  H10X21326   4.508   4.721   3.760 -1.3244  0.7327  0.8960
  185POPC  H10Y21327   4.622   4.856   3.788  2.5453 -1.0708 -0.4425
  185POPC  C31121328   4.496   4.799   3.959 -0.2785 -0.7384  0.1524
  185POPC  H11X21329   4.475   4.698   4.000  0.3691 -0.6753  0.6536
  185POPC  H11Y21330   4.407   4.854   3.923  1.2735  0.8412 -1.5556
  185POPC  C31221331   4.557   4.890   4.062  0.4482 -0.3888  0.2011
  185POPC  H12X21332   4.580   4.983   4.006  0.3834  0.1175  1.0107
  185POPC  H12Y21333   4.651   4.849   4.106  2.1919  2.3201 -0.7608
  185POPC  C31321334   4.462   4.926   4.171  0.1244 -0.6401  0.4220
  185POPC  H13X21335   4.367   4.971   4.134  0.2264 -0.2971  0.5704
  185POPC  H13Y21336   4.500   5.014   4.228 -0.4792 -0.2869  0.2917
  185POPC  C31421337   4.441   4.821   4.283 -0.4468  0.5895  0.8403
  185POPC  H14X21338   4.386   4.739   4.232  2.7349 -1.1530 -0.1101
  185POPC  H14Y21339   4.379   4.865   4.363 -1.1820  0.8981  0.1172
  185POPC  C31521340   4.575   4.767   4.343  0.2444 -1.1157 -0.5094
  185POPC  H15X21341   4.644   4.721   4.269  3.4396  0.8490  1.0278
  185POPC  H15Y21342   4.559   4.683   4.413  0.4952  0.5852  1.6895
  185POPC  C31621343   4.655   4.866   4.439  0.6569 -0.3268  0.0832
  185POPC  H16X21344   4.613   4.877   4.541  0.0558 -0.8468 -0.1055
  185POPC  H16Y21345   4.670   4.965   4.390  1.8237 -0.9454 -0.8522
  185POPC  H16Z21346   4.759   4.828   4.442  0.9614  0.3215 -1.5170
  186POPC     N21347   2.299   6.624   2.799  0.6045 -0.7485  0.4731
  186POPC   C1221348   2.258   6.474   2.809 -0.1089 -0.5281  1.3837
  186POPC  H12A21349   2.333   6.408   2.766  0.0520 -0.7286  1.9692
  186POPC  H12B21350   2.173   6.463   2.743  0.9791  0.2524 -0.2150
  186POPC   C1321351   2.415   6.665   2.889 -0.0271  0.2606  0.4254
  186POPC  H13A21352   2.507   6.623   2.851 -1.3465 -1.8936 -0.5614
  186POPC  H13B21353   2.437   6.771   2.885  1.7381  0.0065  2.0986
  186POPC  H13C21354   2.403   6.645   2.994  1.2299  1.5499  0.8484
  186POPC   C1421355   2.331   6.661   2.654 -0.7690 -0.0772 -0.4445
  186POPC  H14A21356   2.246   6.646   2.590 -0.2788 -1.7556 -0.7635
  186POPC  H14B21357   2.361   6.765   2.650  0.0742 -0.2634  0.5610
  186POPC  H14C21358   2.407   6.589   2.625 -1.3178 -0.4089 -1.0881
  186POPC   C1521359   2.183   6.707   2.844  0.2497  0.2646 -0.2084
  186POPC  H15A21360   2.088   6.674   2.804 -0.8242 -0.6481  2.7626
  186POPC  H15B21361   2.181   6.806   2.801  1.8247  0.6238  0.4776
  186POPC  H15C21362   2.172   6.723   2.951 -2.0089 -0.5571 -0.2668
  186POPC   C1121363   2.228   6.420   2.952 -0.3727  0.2192 -0.5200
  186POPC  H11A21364   2.191   6.315   2.942 -1.2823  0.5028 -0.2199
  186POPC  H11B21365   2.139   6.464   3.002 -1.1160 -2.0462  0.2791
  186POPC     P21366   2.351   6.474   3.180 -0.0835  0.1971  0.0783
  186POPC   O1321367   2.428   6.601   3.198 -0.7058 -0.5341 -0.3010
  186POPC   O1421368   2.414   6.361   3.255 -0.1010  0.0857  0.3148
  186POPC   O1221369   2.346   6.429   3.030 -0.0844 -0.0981 -0.1267
  186POPC   O1121370   2.204   6.490   3.227 -0.6622 -0.3769 -0.1012
  186POPC    C121371   2.127   6.395   3.302  0.3260  1.1256 -0.1437
  186POPC    HA21372   2.147   6.292   3.266  0.1131  1.0477 -0.0401
  186POPC    HB21373   2.020   6.422   3.289 -0.3335  0.8435  3.6069
  186POPC    C221374   2.150   6.405   3.453 -0.3067 -0.1839  0.2388
  186POPC    HS21375   2.257   6.400   3.482 -1.0883 -0.9527  3.3654
  186POPC   O2121376   2.071   6.313   3.526  0.0138  0.0071 -0.0092
  186POPC   C2121377   2.137   6.202   3.559 -0.3524  0.0023 -0.3221
  186POPC   O2221378   2.249   6.170   3.520  0.2037 -0.3650  0.1428
  186POPC   C2221379   2.060   6.109   3.656  0.7380 -1.0574 -0.3149
  186POPC   H2R21380   1.988   6.049   3.596 -0.1532  0.6358 -1.0161
  186POPC   H2S21381   1.995   6.176   3.717 -0.6956  0.1219 -2.9351
  186POPC    C321382   2.115   6.551   3.496  0.2879 -0.0167 -0.0865
  186POPC    HX21383   2.038   6.593   3.428 -0.4689  2.1504  1.9976
  186POPC    HY21384   2.205   6.613   3.476  0.0205  0.1455 -0.8374
  186POPC   O3121385   2.069   6.558   3.635  0.3674 -0.0160 -0.1222
  186POPC   C3121386   2.163   6.561   3.732  0.0526 -0.1392 -0.6518
  186POPC   O3221387   2.283   6.571   3.712 -0.5914 -0.5506  0.0866
  186POPC   C3221388   2.086   6.574   3.863  0.1068 -0.6336  0.1435
  186POPC   H2X21389   1.979   6.552   3.840 -0.1530 -0.3654  1.0637
  186POPC   H2Y21390   2.089   6.678   3.902  2.0546 -0.9409  0.8993
  186POPC   C2321391   2.141   6.013   3.746  0.7855 -0.0241  1.0276
  186POPC   H3R21392   2.215   6.067   3.810  0.7733  0.8782  0.2979
  186POPC   H3S21393   2.199   5.951   3.675  1.4069 -0.1698  1.6571
  186POPC   C2421394   2.050   5.920   3.823  0.0323  0.6567 -0.1093
  186POPC   H4R21395   2.006   5.834   3.767 -1.0588  0.8291  0.4397
  186POPC   H4S21396   1.972   5.992   3.858  0.7600  1.4266 -0.0455
  186POPC   C2521397   2.117   5.854   3.953 -0.4568  0.2205  0.5546
  186POPC   H5R21398   2.132   5.938   4.023 -0.1328  0.1339  0.5865
  186POPC   H5S21399   2.211   5.799   3.933 -0.7060 -0.2036  0.5242
  186POPC   C2621400   2.012   5.762   4.027 -0.7193 -0.2124 -0.3182
  186POPC   H6R21401   2.004   5.661   3.981  0.9686 -1.4704  1.9330
  186POPC   H6S21402   1.924   5.818   3.990  0.8728  1.7115 -1.3682
  186POPC   C2721403   2.017   5.756   4.186 -0.0169  0.2126 -0.0548
  186POPC   H7R21404   2.027   5.863   4.216 -0.6594  0.1281  0.4838
  186POPC   H7S21405   2.114   5.704   4.206 -0.9301 -1.3968  0.3659
  186POPC   C2821406   1.892   5.675   4.241  0.0346 -0.4188  0.4647
  186POPC   H8R21407   1.894   5.574   4.195  0.1671 -0.0668 -0.3196
  186POPC   H8S21408   1.794   5.724   4.224 -0.1319  0.2412  3.0020
  186POPC   C2921409   1.919   5.677   4.389  0.4045  0.5177  0.0708
  186POPC   H9121410   1.982   5.595   4.427  0.8371  1.1712  0.7998
  186POPC  C21021411   1.891   5.772   4.481 -0.2249 -0.8055  0.7268
  186POPC  H10121412   1.927   5.756   4.584  0.4220  0.1278  0.6674
  186POPC  C21121413   1.810   5.899   4.456  0.0187  0.0206 -0.0465
  186POPC  H11R21414   1.781   5.907   4.349 -0.6594 -1.0989  0.0291
  186POPC  H11S21415   1.876   5.985   4.480 -1.5577  1.6450 -1.3390
  186POPC  C21221416   1.677   5.893   4.542  0.0476  0.3042  0.0330
  186POPC  H12R21417   1.646   5.997   4.565 -2.4721 -0.0150 -1.5086
  186POPC  H12S21418   1.705   5.857   4.644 -0.5355  0.5442  0.2811
  186POPC  C21321419   1.553   5.805   4.494 -0.8738 -1.2532 -0.4758
  186POPC  H13R21420   1.600   5.705   4.490  0.4976 -0.6421 -0.3127
  186POPC  H13S21421   1.536   5.833   4.388  0.3287 -1.4435 -0.7363
  186POPC  C21421422   1.422   5.809   4.570  0.2081  0.2100  0.2784
  186POPC  H14R21423   1.400   5.918   4.578 -0.6401  0.0701 -0.0885
  186POPC  H14S21424   1.427   5.777   4.677 -1.8125 -1.8765 -0.1814
  186POPC  C21521425   1.312   5.720   4.500 -0.0981 -0.5555 -0.1175
  186POPC  H15R21426   1.329   5.614   4.526  1.2493  0.0180  1.5079
  186POPC  H15S21427   1.337   5.729   4.392 -1.4773  0.1585 -0.3991
  186POPC  C21621428   1.166   5.765   4.508  0.0139  0.4030 -0.2344
  186POPC  H16R21429   1.151   5.822   4.602 -0.9705 -0.8704  0.4177
  186POPC  H16S21430   1.097   5.678   4.500  0.5776 -0.2225  1.2966
  186POPC  C21721431   1.129   5.858   4.392  0.3117 -0.9334  0.4476
  186POPC  H17R21432   1.115   5.799   4.300  2.4317 -1.2254  0.2647
  186POPC  H17S21433   1.214   5.928   4.372 -0.0532 -0.6262 -0.0481
  186POPC  C21821434   1.006   5.937   4.431 -0.3726  0.0869 -0.5355
  186POPC  H18R21435   1.031   6.005   4.515  1.0211 -0.4109 -0.5154
  186POPC  H18S21436   0.966   5.999   4.347 -1.0957  1.3454  0.6985
  186POPC  H18T21437   0.926   5.868   4.466 -0.3488 -0.5825 -1.7387
  186POPC   C3321438   2.131   6.474   3.970  0.2078 -0.1621  0.1431
  186POPC   H3X21439   2.215   6.519   4.028  0.1047 -2.6439  2.4259
  186POPC   H3Y21440   2.164   6.379   3.923 -1.5815 -1.0034  0.5236
  186POPC   C3421441   2.018   6.432   4.059 -0.1171  0.1457 -0.9661
  186POPC   H4X21442   1.936   6.399   3.992 -1.4406  0.1571  0.5956
  186POPC   H4Y21443   1.981   6.518   4.120  0.3225 -0.4795  0.2126
  186POPC   C3521444   2.058   6.311   4.146  0.1328 -0.1939 -0.1940
  186POPC   H5X21445   2.123   6.327   4.234 -0.0783  0.8192 -0.2113
  186POPC   H5Y21446   2.112   6.242   4.077  0.3212  0.7287 -0.9867
  186POPC   C3621447   1.936   6.233   4.189 -0.6018  0.0093 -0.7555
  186POPC   H6X21448   1.953   6.155   4.266 -2.2172 -0.8672 -1.2345
  186POPC   H6Y21449   1.898   6.175   4.103 -1.5923 -0.9563  0.2980
  186POPC   C3721450   1.825   6.313   4.246  0.3612  0.7430  0.5830
  186POPC   H7X21451   1.783   6.386   4.173 -3.0028 -1.4419  0.1743
  186POPC   H7Y21452   1.864   6.376   4.329  2.6108 -1.8521  1.6384
  186POPC   C3821453   1.701   6.234   4.293  0.4482  0.1545  0.5182
  186POPC   H8X21454   1.632   6.309   4.338 -2.3308 -0.8274 -1.8184
  186POPC   H8Y21455   1.732   6.158   4.368 -1.6735 -0.9971  0.3136
  186POPC   C3921456   1.624   6.167   4.170 -0.8689 -0.1866 -0.2328
  186POPC   H9X21457   1.697   6.097   4.125 -2.4874  0.0472 -3.4543
  186POPC   H9Y21458   1.606   6.243   4.091  0.6722  0.5494  0.0766
  186POPC  C31021459   1.501   6.098   4.191 -0.3851 -0.2036  0.1199
  186POPC  H10X21460   1.423   6.166   4.231 -0.6585 -0.4559  0.0177
  186POPC  H10Y21461   1.498   6.009   4.257 -3.9158  0.4044  0.9726
  186POPC  C31121462   1.448   6.029   4.057 -0.0094 -0.1727 -0.3938
  186POPC  H11X21463   1.534   5.978   4.007  0.6569 -0.5965  1.1226
  186POPC  H11Y21464   1.414   6.113   3.992  1.5926  0.8200  0.0000
  186POPC  C31221465   1.340   5.923   4.090 -1.2181  1.1197 -0.3163
  186POPC  H12X21466   1.249   5.969   4.135 -1.8628 -0.6018  0.1942
  186POPC  H12Y21467   1.386   5.848   4.158 -1.3431  0.1862 -1.2426
  186POPC  C31321468   1.285   5.851   3.963 -0.1095 -0.2206 -0.1989
  186POPC  H13X21469   1.365   5.810   3.898 -0.8104  0.2498 -1.3801
  186POPC  H13Y21470   1.233   5.931   3.906 -0.5270  1.0805  1.8649
  186POPC  C31421471   1.192   5.730   4.002 -0.0685 -0.5368  0.5088
  186POPC  H14X21472   1.093   5.776   4.022  0.9988  1.3083  1.8303
  186POPC  H14Y21473   1.224   5.671   4.091 -3.7493 -0.3231  2.1472
  186POPC  C31521474   1.162   5.625   3.894 -0.2756 -0.0724 -0.2535
  186POPC  H15X21475   1.076   5.562   3.926  0.8099 -1.5016 -0.0844
  186POPC  H15Y21476   1.246   5.553   3.884 -1.6148 -2.1116  2.0085
  186POPC  C31621477   1.141   5.692   3.758 -0.1998 -0.4929  0.0650
  186POPC  H16X21478   1.124   5.615   3.679 -0.1366 -1.0492  0.5871
  186POPC  H16Y21479   1.227   5.752   3.720 -1.1741 -0.7905 -2.8323
  186POPC  H16Z21480   1.057   5.764   3.758  1.6850  1.8280  0.6746
  187POPC     N21481   2.305   5.144   1.742 -0.7424  0.0991 -0.0445
  187POPC   C1221482   2.228   5.038   1.813 -0.4303  0.1368 -0.1567
  187POPC  H12A21483   2.303   4.993   1.876  1.0062  1.0578 -1.1613
  187POPC  H12B21484   2.210   4.959   1.742 -0.5578 -0.8368  0.9157
  187POPC   C1321485   2.232   5.212   1.633 -0.7468  0.3208  0.1166
  187POPC  H13A21486   2.301   5.282   1.588 -0.3973  0.0317  0.2022
  187POPC  H13B21487   2.199   5.149   1.552  1.7000 -1.3153  0.2743
  187POPC  H13C21488   2.155   5.273   1.678  0.2450  0.7601  1.2720
  187POPC   C1421489   2.364   5.248   1.838 -0.0746  0.8706 -0.1393
  187POPC  H14A21490   2.432   5.311   1.783  0.7134 -0.9660 -1.3668
  187POPC  H14B21491   2.275   5.299   1.870 -0.5294  2.3270 -3.4085
  187POPC  H14C21492   2.419   5.200   1.918  0.6556 -1.7964 -2.0687
  187POPC   C1521493   2.414   5.070   1.678 -0.6120 -0.1474  0.3200
  187POPC  H15A21494   2.479   5.144   1.633  1.4641 -1.9738  0.1592
  187POPC  H15B21495   2.373   5.015   1.595 -0.1938 -0.4973  0.3451
  187POPC  H15C21496   2.477   5.003   1.734  0.4585  0.3982 -0.2036
  187POPC   C1121497   2.089   5.074   1.882 -0.4708  0.3482  0.3637
  187POPC  H11A21498   2.046   4.980   1.922 -1.8741  0.8881  0.1803
  187POPC  H11B21499   2.011   5.107   1.810  1.3359  1.4859 -1.1700
  187POPC     P21500   2.173   5.131   2.120  0.1024  0.4291 -0.2126
  187POPC   O1321501   2.170   5.250   2.205  0.7321 -0.2031 -0.1962
  187POPC   O1421502   2.305   5.071   2.101 -0.3509  0.3239  0.5496
  187POPC   O1221503   2.107   5.177   1.981  0.0628 -0.1995  0.3579
  187POPC   O1121504   2.068   5.021   2.181  0.0403  0.0843 -0.7174
  187POPC    C121505   1.924   5.041   2.194 -0.5236  0.5357  0.4752
  187POPC    HA21506   1.871   4.946   2.215 -3.0486  1.6472 -0.5186
  187POPC    HB21507   1.885   5.099   2.108  2.6742  1.5840 -0.4337
  187POPC    C221508   1.887   5.120   2.321  0.6896 -0.0728  0.1200
  187POPC    HS21509   1.927   5.222   2.302 -0.8130  0.5017 -0.1495
  187POPC   O2121510   1.943   5.054   2.436 -0.9241 -0.3640 -0.2480
  187POPC   C2121511   1.960   5.125   2.547 -0.1837 -0.0221 -0.2914
  187POPC   O2221512   1.943   5.246   2.561 -0.2974 -0.0986 -0.5750
  187POPC   C2221513   1.988   5.033   2.663  0.0847  0.0686  0.4873
  187POPC   H2R21514   2.055   4.951   2.627  0.2530  0.5510 -0.3383
  187POPC   H2S21515   1.890   4.994   2.698 -0.1835  0.3470  0.0566
  187POPC    C321516   1.731   5.145   2.325 -0.5952 -0.1706  0.1968
  187POPC    HX21517   1.677   5.052   2.298  1.9439 -1.1660 -1.8899
  187POPC    HY21518   1.712   5.217   2.242 -1.3118 -2.9698 -2.2165
  187POPC   O3121519   1.691   5.184   2.459 -0.1235  0.2686  0.1009
  187POPC   C3121520   1.579   5.248   2.478  0.3800  0.1197 -0.1208
  187POPC   O3221521   1.490   5.263   2.398  0.0478  0.0109 -0.5042
  187POPC   C3221522   1.583   5.310   2.618  0.9460 -0.1759 -0.6485
  187POPC   H2X21523   1.527   5.404   2.602  1.0663 -0.3213 -1.9921
  187POPC   H2Y21524   1.686   5.344   2.643  0.3844  1.7877 -0.8784
  187POPC   C2321525   2.041   5.101   2.793  0.0346 -0.4223  0.0768
  187POPC   H3R21526   1.981   5.194   2.798 -0.6024 -0.8752  1.2110
  187POPC   H3S21527   2.150   5.125   2.789  0.2834 -1.6247 -1.7172
  187POPC   C2421528   2.012   5.020   2.918 -0.3486  1.2460 -0.2693
  187POPC   H4R21529   2.071   4.926   2.923 -0.3388  1.1665 -1.5643
  187POPC   H4S21530   1.906   4.991   2.902  0.5950 -3.3672  0.4112
  187POPC   C2521531   2.054   5.087   3.048  0.1194 -0.4546 -0.3066
  187POPC   H5R21532   1.983   5.167   3.076 -0.3719 -0.4286 -1.5693
  187POPC   H5S21533   2.158   5.119   3.022  0.2756 -0.5860  0.1469
  187POPC   C2621534   2.058   4.991   3.176 -0.0625  0.3295 -0.3774
  187POPC   H6R21535   2.144   5.024   3.237  1.3084 -0.0497 -2.0375
  187POPC   H6S21536   2.083   4.888   3.141 -1.8294 -0.6036  0.9234
  187POPC   C2721537   1.928   5.006   3.258  0.7277  0.6867 -0.2439
  187POPC   H7R21538   1.843   4.982   3.191  2.7866 -1.7111 -2.1908
  187POPC   H7S21539   1.908   5.113   3.280 -2.8093  0.1323 -0.2317
  187POPC   C2821540   1.920   4.915   3.384 -0.5001  0.4210 -0.6356
  187POPC   H8R21541   1.920   4.805   3.365 -0.4419  0.1781  0.6402
  187POPC   H8S21542   1.816   4.922   3.423 -0.0221  1.1281  0.5840
  187POPC   C2921543   2.030   4.951   3.486  0.0514 -0.3269  0.5149
  187POPC   H9121544   2.130   4.917   3.456 -0.0432  1.1212 -1.6969
  187POPC  C21021545   2.029   5.031   3.596 -0.0278  0.0052  0.3016
  187POPC  H10121546   2.123   5.038   3.653  1.1898 -0.5957 -1.5565
  187POPC  C21121547   1.920   5.103   3.655  0.7460  0.3532  0.0629
  187POPC  H11R21548   1.819   5.087   3.611  0.0229  1.0244  1.3832
  187POPC  H11S21549   1.937   5.212   3.649 -0.9062  0.5833 -1.0043
  187POPC  C21221550   1.898   5.071   3.810 -0.3591  0.5023 -0.6648
  187POPC  H12R21551   1.841   5.154   3.857  0.7280  0.0678  1.5367
  187POPC  H12S21552   1.991   5.074   3.871 -1.2197  0.0516  0.7027
  187POPC  C21321553   1.832   4.935   3.841 -0.7295 -0.4490  0.5270
  187POPC  H13R21554   1.902   4.864   3.791 -0.3781  0.2147  0.0728
  187POPC  H13S21555   1.731   4.932   3.794  0.2327 -0.6499 -1.6686
  187POPC  C21421556   1.832   4.901   3.989 -0.1399  0.3907  0.6035
  187POPC  H14R21557   1.932   4.907   4.038  0.5590 -2.5801 -0.2244
  187POPC  H14S21558   1.801   4.794   3.995  1.9874 -0.2113  3.2199
  187POPC  C21521559   1.730   4.973   4.081  0.0022 -0.5020  0.3692
  187POPC  H15R21560   1.631   4.958   4.033  0.1839  1.5885 -0.7988
  187POPC  H15S21561   1.754   5.081   4.070  0.5087 -0.7215 -0.8193
  187POPC  C21621562   1.739   4.915   4.225 -0.0693 -0.1311 -1.2048
  187POPC  H16R21563   1.690   4.987   4.294  1.1317  2.3736 -2.8141
  187POPC  H16S21564   1.841   4.920   4.270 -0.4165  1.6590 -0.5447
  187POPC  C21721565   1.677   4.779   4.244 -0.1644 -0.1298  0.7312
  187POPC  H17R21566   1.746   4.702   4.205 -0.5643 -0.5232  0.7940
  187POPC  H17S21567   1.587   4.767   4.180 -0.2131 -0.7921  0.9159
  187POPC  C21821568   1.649   4.746   4.392  0.3698  0.1176  0.0877
  187POPC  H18R21569   1.572   4.666   4.399  0.1011  0.3566 -0.0956
  187POPC  H18S21570   1.608   4.840   4.438 -1.2669 -0.1798 -0.6761
  187POPC  H18T21571   1.737   4.718   4.453 -0.0541  0.2361  0.7747
  187POPC   C3321572   1.513   5.235   2.739 -0.7213 -0.2840  0.3379
  187POPC   H3X21573   1.408   5.215   2.709 -0.5370 -0.2428 -0.3448
  187POPC   H3Y21574   1.505   5.305   2.826  1.6345 -0.9273  1.1433
  187POPC   C3421575   1.590   5.109   2.775 -0.4184  0.1090  0.0610
  187POPC   H4X21576   1.698   5.122   2.799 -0.3050 -1.6119  0.6664
  187POPC   H4Y21577   1.597   5.039   2.690 -0.5725 -0.1263  0.2404
  187POPC   C3521578   1.544   5.035   2.909 -0.2711 -0.2329  0.1011
  187POPC   H5X21579   1.596   4.937   2.922  0.1237 -0.1734 -0.9138
  187POPC   H5Y21580   1.433   5.022   2.904 -0.7084  2.1362  1.9773
  187POPC   C3621581   1.570   5.116   3.033  0.2681 -0.2949  0.0383
  187POPC   H6X21582   1.524   5.216   3.027  1.8766  0.4509 -0.5368
  187POPC   H6Y21583   1.676   5.146   3.049  0.6148  0.0651 -2.5971
  187POPC   C3721584   1.532   5.044   3.162  0.4799  0.2809  0.2304
  187POPC   H7X21585   1.589   4.949   3.174 -1.6685 -0.8378  2.5783
  187POPC   H7Y21586   1.425   5.017   3.146  0.8910 -1.4314  0.2269
  187POPC   C3821587   1.557   5.139   3.289  0.1467  0.5329  0.0734
  187POPC   H8X21588   1.512   5.237   3.266  1.2540  1.1069  0.3003
  187POPC   H8Y21589   1.665   5.161   3.299  1.1585 -2.0839 -3.2714
  187POPC   C3921590   1.503   5.084   3.421  0.0873 -0.0435 -0.2319
  187POPC   H9X21591   1.561   4.994   3.450 -0.4564 -0.3039  0.0472
  187POPC   H9Y21592   1.394   5.067   3.409  0.5696 -2.2552 -2.1109
  187POPC  C31021593   1.516   5.190   3.529 -0.2108 -0.4350 -0.1843
  187POPC  H10X21594   1.494   5.288   3.481  0.8151 -0.4519 -0.7178
  187POPC  H10Y21595   1.621   5.194   3.565 -0.3700 -0.3647  0.2744
  187POPC  C31121596   1.415   5.181   3.637  0.4259 -0.1007  0.3081
  187POPC  H11X21597   1.360   5.085   3.640 -0.0845 -0.1871 -4.4018
  187POPC  H11Y21598   1.339   5.258   3.612 -0.3262 -0.6233  0.9274
  187POPC  C31221599   1.464   5.211   3.778 -0.6139 -0.0951 -0.1006
  187POPC  H12X21600   1.545   5.139   3.804 -1.4384 -0.5085  1.4920
  187POPC  H12Y21601   1.384   5.183   3.850  0.2017  0.7320  1.1642
  187POPC  C31321602   1.506   5.359   3.796 -0.4158 -0.1171  0.1112
  187POPC  H13X21603   1.420   5.428   3.789 -0.4015 -0.1881 -0.9391
  187POPC  H13Y21604   1.564   5.377   3.702  0.7308 -0.8788  0.6477
  187POPC  C31421605   1.587   5.389   3.926  0.2173 -0.1711  0.0979
  187POPC  H14X21606   1.632   5.489   3.911 -0.7612  0.1490 -0.8268
  187POPC  H14Y21607   1.671   5.321   3.951 -0.4646 -0.3259  2.1754
  187POPC  C31521608   1.500   5.397   4.046 -0.2114 -0.2861  0.3157
  187POPC  H15X21609   1.457   5.297   4.069  1.8918 -1.3413 -0.1193
  187POPC  H15Y21610   1.415   5.468   4.034 -2.1458 -1.6279  4.2436
  187POPC  C31621611   1.578   5.455   4.163  0.5088 -0.1218 -0.0397
  187POPC  H16X21612   1.599   5.563   4.146 -0.2167  0.0187 -0.0600
  187POPC  H16Y21613   1.678   5.412   4.183  0.5063 -0.0015  0.2362
  187POPC  H16Z21614   1.517   5.443   4.256 -0.0345  1.9242 -0.0774
  188POPC     N21615   5.361   4.026   2.173 -0.2926  0.0354 -0.0342
  188POPC   C1221616   5.263   3.974   2.271  1.0201  0.6582 -0.2672
  188POPC  H12A21617   5.174   3.953   2.214 -0.7076  1.3124  2.0624
  188POPC  H12B21618   5.246   4.056   2.339  3.0039  0.9548 -0.0495
  188POPC   C1321619   5.411   3.929   2.073 -0.1078 -0.4458 -0.1124
  188POPC  H13A21620   5.498   3.962   2.018 -0.5263  0.2764 -0.3554
  188POPC  H13B21621   5.441   3.835   2.117  1.4554  0.6048  1.1552
  188POPC  H13C21622   5.330   3.909   2.004  1.2410 -3.5353 -1.0071
  188POPC   C1421623   5.306   4.147   2.100 -0.2635 -0.5454  0.4971
  188POPC  H14A21624   5.295   4.232   2.165 -1.0505  0.1536 -0.5148
  188POPC  H14B21625   5.377   4.178   2.025  0.0128  1.2630  1.4366
  188POPC  H14C21626   5.214   4.114   2.053  0.0115  0.0235 -0.4688
  188POPC   C1521627   5.478   4.075   2.250  0.0805 -0.6078  0.8683
  188POPC  H15A21628   5.439   4.147   2.321  0.3125  2.4409 -1.8403
  188POPC  H15B21629   5.548   4.124   2.184 -1.9273  0.5234 -0.5357
  188POPC  H15C21630   5.523   3.994   2.305  1.3226 -0.5663 -0.0446
  188POPC   C1121631   5.270   3.839   2.340  0.6607  0.3579  0.0175
  188POPC  H11A21632   5.193   3.828   2.419  1.7014 -0.1876  0.9760
  188POPC  H11B21633   5.367   3.838   2.394  0.2573 -0.7855  0.7612
  188POPC     P21634   5.136   3.692   2.180 -0.7315  0.0145 -0.0526
  188POPC   O1321635   5.146   3.568   2.101  0.0347  0.0177 -0.1967
  188POPC   O1421636   5.092   3.819   2.110  0.4322 -0.1856  0.1803
  188POPC   O1221637   5.272   3.722   2.259  0.6585 -0.2310  0.5068
  188POPC   O1121638   5.036   3.659   2.298  0.2827 -0.3653 -0.1355
  188POPC    C121639   5.027   3.528   2.353  0.5539 -1.0869 -0.3165
  188POPC    HA21640   5.122   3.471   2.365  0.5946 -0.5226  2.6957
  188POPC    HB21641   4.957   3.470   2.289 -0.2407  0.2377 -0.6894
  188POPC    C221642   4.964   3.535   2.496  0.7360  0.1419 -0.0411
  188POPC    HS21643   4.900   3.625   2.507  0.9989  0.5043 -1.3087
  188POPC   O2121644   5.082   3.529   2.584 -0.1636  0.0336 -0.3884
  188POPC   C2121645   5.066   3.589   2.700 -0.5412  0.6942  0.1680
  188POPC   O2221646   4.963   3.645   2.736 -0.0980  0.2763  1.1505
  188POPC   C2221647   5.200   3.596   2.754 -0.4314  0.4835 -0.2789
  188POPC   H2R21648   5.262   3.631   2.669 -0.7386 -0.4381 -0.8999
  188POPC   H2S21649   5.228   3.489   2.769 -0.8198  0.2098 -1.4217
  188POPC    C321650   4.868   3.421   2.511 -0.1624 -0.3528  0.5591
  188POPC    HX21651   4.914   3.325   2.476  0.9559  0.3227  0.1166
  188POPC    HY21652   4.774   3.439   2.454  1.5747  1.6558 -1.9144
  188POPC   O3121653   4.817   3.412   2.641 -0.2545 -0.0023 -0.4798
  188POPC   C3121654   4.877   3.334   2.734 -0.1889  0.0237  0.3285
  188POPC   O3221655   4.992   3.288   2.715  0.1525  0.3242 -0.7662
  188POPC   C3221656   4.806   3.323   2.871  0.1840 -0.5940  0.4866
  188POPC   H2X21657   4.723   3.254   2.842  1.7585 -1.8970 -1.2421
  188POPC   H2Y21658   4.766   3.426   2.885 -0.5346 -0.7304 -0.4593
  188POPC   C2321659   5.211   3.704   2.871 -0.3726  0.2547 -0.3693
  188POPC   H3R21660   5.162   3.802   2.849 -0.7082  0.5925  1.7146
  188POPC   H3S21661   5.319   3.729   2.867 -0.5618  0.9936 -1.8764
  188POPC   C2421662   5.179   3.649   3.012  0.6021  0.1077  0.0509
  188POPC   H4R21663   5.093   3.580   3.001 -0.1102  1.1367 -0.9344
  188POPC   H4S21664   5.139   3.728   3.079  1.4491  1.0494 -0.5254
  188POPC   C2521665   5.295   3.566   3.066  0.1582  0.2986 -0.2301
  188POPC   H5R21666   5.361   3.641   3.114 -0.3611  0.0658  0.8757
  188POPC   H5S21667   5.342   3.508   2.984 -0.4781  0.5177 -0.7564
  188POPC   C2621668   5.239   3.484   3.185  0.6553  0.2268 -0.6053
  188POPC   H6R21669   5.162   3.418   3.140  1.6918 -1.2549 -0.2791
  188POPC   H6S21670   5.181   3.545   3.257 -4.4968 -2.9640 -1.5338
  188POPC   C2721671   5.338   3.389   3.259 -0.6102 -0.1726 -0.3497
  188POPC   H7R21672   5.392   3.343   3.174 -2.1236 -0.0365 -1.4219
  188POPC   H7S21673   5.284   3.317   3.324  1.5478 -0.5138  1.1935
  188POPC   C2821674   5.452   3.465   3.339 -0.2607  0.2941  1.3438
  188POPC   H8R21675   5.503   3.544   3.280  1.2258  0.1566  2.4005
  188POPC   H8S21676   5.535   3.395   3.360 -0.7999 -0.7707  0.0432
  188POPC   C2921677   5.403   3.523   3.467  0.3992 -0.1324 -0.4795
  188POPC   H9121678   5.322   3.597   3.464 -0.3149 -0.9372 -1.4462
  188POPC  C21021679   5.438   3.470   3.589  0.0991 -0.2516 -0.0025
  188POPC  H10121680   5.395   3.525   3.675 -0.7513  0.1841 -0.6964
  188POPC  C21121681   5.535   3.360   3.625 -0.1361 -0.4523  0.2848
  188POPC  H11R21682   5.559   3.293   3.540 -0.9825 -2.0732  1.2897
  188POPC  H11S21683   5.524   3.298   3.717  0.9090  0.1063  0.8107
  188POPC  C21221684   5.666   3.432   3.667 -0.6670 -0.8808 -0.9338
  188POPC  H12R21685   5.640   3.494   3.756 -0.2668 -1.3457 -0.4861
  188POPC  H12S21686   5.696   3.500   3.585 -0.8528  2.4653  1.5636
  188POPC  C21321687   5.785   3.346   3.700  0.1777 -0.3568  0.0271
  188POPC  H13R21688   5.809   3.271   3.622  0.9705 -0.2780  0.1851
  188POPC  H13S21689   5.759   3.301   3.798  0.0961  0.9181  0.6097
  188POPC  C21421690   5.913   3.431   3.727  0.0375  0.4181 -0.2115
  188POPC  H14R21691   5.905   3.501   3.812  0.6671  0.5977 -0.2944
  188POPC  H14S21692   5.936   3.497   3.640  1.9091 -2.1148 -1.7679
  188POPC  C21521693   6.035   3.339   3.736 -0.8021 -0.3488 -0.3331
  188POPC  H15R21694   6.128   3.394   3.708 -1.7985  0.1727 -2.8912
  188POPC  H15S21695   6.028   3.250   3.670 -0.7237 -0.0274 -0.7801
  188POPC  C21621696   6.043   3.294   3.888 -0.5160 -0.2452  0.0991
  188POPC  H16R21697   5.947   3.246   3.919  0.2049 -0.7525  1.6267
  188POPC  H16S21698   6.054   3.385   3.951  0.9782 -0.1073 -0.3239
  188POPC  C21721699   6.150   3.182   3.912 -0.4644  0.2219 -0.8296
  188POPC  H17R21700   6.252   3.210   3.878  0.5095 -2.0069  0.0608
  188POPC  H17S21701   6.126   3.107   3.834  1.4236 -1.5165  0.1593
  188POPC  C21821702   6.144   3.134   4.059  0.5140 -0.2657 -0.0569
  188POPC  H18R21703   6.151   3.224   4.124  0.0724 -0.8670  0.8411
  188POPC  H18S21704   6.211   3.053   4.094  0.2868 -0.7919 -0.8104
  188POPC  H18T21705   6.044   3.088   4.075  1.0466 -1.7407 -0.7937
  188POPC   C3321706   4.895   3.272   2.990  0.2148 -0.4027  0.5579
  188POPC   H3X21707   4.998   3.314   2.978  1.2830 -2.3785  2.1306
  188POPC   H3Y21708   4.901   3.162   2.975 -2.2976 -0.6046  0.7399
  188POPC   C3421709   4.834   3.302   3.132  0.1131  1.0424 -0.0708
  188POPC   H4X21710   4.725   3.285   3.126  0.1838  0.2902  0.5423
  188POPC   H4Y21711   4.870   3.402   3.164 -0.9119  1.5959 -0.6145
  188POPC   C3521712   4.889   3.200   3.231 -0.1976  0.4138  0.1278
  188POPC   H5X21713   4.999   3.216   3.235 -0.2495  1.9445 -2.4905
  188POPC   H5Y21714   4.875   3.096   3.196  1.0538  0.0703  0.5727
  188POPC   C3621715   4.809   3.211   3.363 -0.3451 -0.1595 -0.7788
  188POPC   H6X21716   4.835   3.134   3.438  1.3140  0.9258 -0.1789
  188POPC   H6Y21717   4.701   3.199   3.340 -0.4688 -3.5945  1.0932
  188POPC   C3721718   4.844   3.340   3.441 -0.2177 -0.2252  0.2016
  188POPC   H7X21719   4.825   3.433   3.382  1.8483 -1.0976 -2.0180
  188POPC   H7Y21720   4.945   3.335   3.488 -0.9867 -0.9061  1.8688
  188POPC   C3821721   4.762   3.352   3.572 -0.2109  0.1110  0.6195
  188POPC   H8X21722   4.655   3.325   3.563  0.0679 -1.0122  0.4859
  188POPC   H8Y21723   4.774   3.456   3.608  1.7000  0.1863 -0.0978
  188POPC   C3921724   4.804   3.250   3.687  0.1701  0.2976 -0.0500
  188POPC   H9X21725   4.895   3.291   3.735 -1.0346  1.2230  1.5450
  188POPC   H9Y21726   4.829   3.147   3.653  2.1479  0.8561 -0.4066
  188POPC  C31021727   4.681   3.236   3.776  0.0360 -0.2685 -0.6158
  188POPC  H10X21728   4.608   3.181   3.713  0.6222 -3.6109  1.3769
  188POPC  H10Y21729   4.626   3.332   3.788  1.0196  0.4103 -1.3364
  188POPC  C31121730   4.699   3.170   3.911  0.0356  0.1727  0.3339
  188POPC  H11X21731   4.769   3.085   3.893 -0.4792 -0.1775 -0.0444
  188POPC  H11Y21732   4.610   3.116   3.950  1.3759 -1.9333  0.6270
  188POPC  C31221733   4.764   3.253   4.026 -0.2183 -0.3162  0.3129
  188POPC  H12X21734   4.864   3.293   3.999 -1.4821  2.3636 -0.7314
  188POPC  H12Y21735   4.784   3.191   4.116  4.4945 -1.8726 -1.4780
  188POPC  C31321736   4.667   3.371   4.062  0.0728  0.4512  0.0237
  188POPC  H13X21737   4.559   3.347   4.055 -0.4916  2.3281  1.2859
  188POPC  H13Y21738   4.675   3.450   3.984 -0.7914  1.4324  0.8915
  188POPC  C31421739   4.698   3.434   4.203  0.1816  0.0662  0.1702
  188POPC  H14X21740   4.694   3.544   4.209  0.3142 -0.0167  3.2584
  188POPC  H14Y21741   4.800   3.405   4.237 -0.0668  0.1011  0.9481
  188POPC  C31521742   4.595   3.392   4.309 -0.4610 -0.2117 -0.0929
  188POPC  H15X21743   4.494   3.430   4.281 -0.2260 -1.5672 -3.2439
  188POPC  H15Y21744   4.624   3.444   4.402  0.5470 -0.9895  0.0417
  188POPC  C31621745   4.604   3.237   4.320 -0.2245 -0.4723 -0.7216
  188POPC  H16X21746   4.708   3.203   4.299  0.4916  1.5650 -0.6996
  188POPC  H16Y21747   4.541   3.195   4.239 -0.2454  1.1873 -1.5995
  188POPC  H16Z21748   4.573   3.209   4.423 -0.9382  2.0944 -0.1732
  189SAPI   C1221749   1.005   1.110   7.343  0.9181  0.4668 -0.1244
  189SAPI    H221750   1.083   1.163   7.285 -0.0493  0.8528 -1.1115
  189SAPI    O221751   1.061   0.994   7.395 -0.1851 -0.3736  0.1852
  189SAPI   HO221752   1.120   0.943   7.339  0.6761 -0.7668  1.4043
  189SAPI   C1321753   0.960   1.198   7.457 -0.6401 -0.2057 -0.3116
  189SAPI    H321754   0.918   1.293   7.417  1.3323  1.0391  0.4201
  189SAPI    O321755   1.078   1.241   7.534  0.3679  0.0441 -0.7218
  189SAPI   HO321756   1.124   1.163   7.565  1.2040  0.7687 -0.0720
  189SAPI   C1421757   0.845   1.142   7.538  0.2657 -0.2795 -0.6283
  189SAPI    H421758   0.895   1.061   7.595  1.0463  0.9752  0.5622
  189SAPI    O421759   0.790   1.230   7.636 -0.4107 -0.4296 -0.4204
  189SAPI   HO421760   0.775   1.317   7.597 -3.3349  0.5642  2.4241
  189SAPI   C1521761   0.735   1.070   7.451 -0.2654  0.2131  0.0147
  189SAPI    H521762   0.678   1.165   7.440  0.8728  1.4141  3.1027
  189SAPI    O521763   0.658   0.976   7.531 -0.4448 -1.0923 -0.5121
  189SAPI   HO521764   0.707   0.897   7.555  1.2946 -0.1762 -0.8759
  189SAPI   C1621765   0.765   1.024   7.307  0.0995  0.1180  0.0380
  189SAPI    H621766   0.790   0.916   7.315  1.4481  0.4138 -0.0037
  189SAPI    O621767   0.657   1.034   7.216  0.5802  0.1463  0.3878
  189SAPI   HO621768   0.643   1.126   7.193 -0.9226 -0.4335 -1.2301
  189SAPI   C1121769   0.890   1.086   7.248  0.7747  0.2678  0.6356
  189SAPI    H121770   0.863   1.185   7.206  0.0113 -0.3423 -0.3450
  189SAPI     P21771   1.029   1.087   7.011 -0.1603  0.0444 -0.2012
  189SAPI   O1321772   1.147   1.006   6.984 -0.0353 -0.1112  0.2694
  189SAPI   O1421773   1.052   1.229   7.050 -0.3347 -0.0582 -0.1630
  189SAPI   O1221774   0.945   1.013   7.134 -0.1594  0.8751 -0.2941
  189SAPI   O1121775   0.938   1.105   6.879  0.6247 -0.4160 -0.3126
  189SAPI    C121776   0.806   1.049   6.872  0.2408 -0.3955 -0.3898
  189SAPI    HA21777   0.794   0.969   6.949  0.4450  0.7569  0.8871
  189SAPI    HB21778   0.735   1.127   6.905  1.8130  1.3739 -0.9632
  189SAPI    C221779   0.778   1.004   6.730 -0.2344 -0.0088 -0.4436
  189SAPI    HS21780   0.797   1.097   6.671  0.0921  0.0205 -0.2941
  189SAPI   O2121781   0.640   0.971   6.745  0.6041  0.1893  0.1666
  189SAPI   C2121782   0.563   1.000   6.643  0.2570 -0.3723 -0.1651
  189SAPI   O2221783   0.598   1.027   6.530  0.3701  0.2041 -0.1137
  189SAPI   C2221784   0.414   0.997   6.688 -0.0038 -0.0414  0.7323
  189SAPI   H2R21785   0.415   0.940   6.783  2.5046 -3.0439 -0.9081
  189SAPI   H2S21786   0.381   1.099   6.717 -1.4050 -0.8334  2.0613
  189SAPI    C321787   0.863   0.879   6.680 -0.0489 -0.6532 -0.2089
  189SAPI    HX21788   0.848   0.805   6.762  1.8142 -0.9684 -0.1156
  189SAPI    HY21789   0.968   0.916   6.688 -1.2667  2.7842  2.1452
  189SAPI   O3121790   0.817   0.830   6.550 -0.5536  0.6332  0.6942
  189SAPI   C3121791   0.873   0.889   6.447  0.6800  0.2635  0.1410
  189SAPI   O3221792   0.972   0.954   6.451  0.0680 -0.2700  0.3291
  189SAPI   C3221793   0.793   0.859   6.321 -0.1665 -0.1576 -0.0138
  189SAPI   H2X21794   0.767   0.956   6.274  0.5350 -0.2431 -0.5950
  189SAPI   H2Y21795   0.693   0.827   6.356  0.6854 -2.2564  0.6805
  189SAPI   C2321796   0.306   0.923   6.597 -0.1297 -0.0848  0.2584
  189SAPI   H3R21797   0.287   0.977   6.502  0.8265  0.4865  0.3836
  189SAPI   H3S21798   0.214   0.968   6.642 -0.3914  1.2609 -1.5082
  189SAPI   C2421799   0.298   0.772   6.611 -0.0652 -0.1520  0.6688
  189SAPI   H4R21800   0.213   0.743   6.545  1.3467 -0.7270 -0.9981
  189SAPI   H4S21801   0.274   0.746   6.716 -1.8894  0.2354  0.3892
  189SAPI   C2521802   0.419   0.699   6.565 -0.8338 -0.0674  0.3247
  189SAPI   H5R21803   0.495   0.690   6.643 -2.8535  3.6119  3.0176
  189SAPI   C2621804   0.451   0.662   6.441  0.3304 -0.2039 -0.2715
  189SAPI   H6R21805   0.548   0.611   6.425  1.4485  1.3319  1.2034
  189SAPI   C2721806   0.365   0.668   6.315  0.1866  0.0782  0.2296
  189SAPI   H7R21807   0.263   0.709   6.330  0.5464  1.3861 -0.7394
  189SAPI   H7S21808   0.352   0.562   6.285  0.3483 -0.2894  1.3966
  189SAPI   C2821809   0.438   0.738   6.212  0.2386 -0.0823  0.9519
  189SAPI   H8R21810   0.520   0.807   6.238  0.8475  0.0940 -1.2446
  189SAPI   C2921811   0.404   0.717   6.080 -0.1186  0.2907 -0.1937
  189SAPI   H9R21812   0.474   0.763   6.009  1.7411  0.2713  1.5343
  189SAPI  C21021813   0.322   0.620   6.004  1.1057 -0.6290  0.2743
  189SAPI  H10R21814   0.338   0.521   6.051  0.1412 -1.0700 -0.2865
  189SAPI  H10S21815   0.356   0.619   5.898  1.1150  2.5629  0.1615
  189SAPI  C21121816   0.170   0.650   6.005 -0.0018  0.0526 -0.5535
  189SAPI  H11R21817   0.112   0.607   6.088 -0.6180  0.2779 -0.8652
  189SAPI  C21221818   0.094   0.732   5.926  0.5314  0.1030 -0.4596
  189SAPI  H12R21819  -0.012   0.743   5.954  0.2445 -1.7998 -0.6994
  189SAPI  C21321820   0.145   0.815   5.810 -0.3937 -0.0961 -0.7695
  189SAPI  H13R21821   0.107   0.759   5.722 -1.4033 -1.4897  0.4966
  189SAPI  H13S21822   0.255   0.802   5.813 -0.3316  0.1336 -1.6730
  189SAPI  C21421823   0.095   0.958   5.800 -0.1790  0.6344 -0.2341
  189SAPI  H14R21824   0.148   1.035   5.857  1.5706 -0.7935  0.1489
  189SAPI  C21521825  -0.007   0.997   5.721  0.0040 -0.7190 -0.6096
  189SAPI  H15R21826  -0.040   1.102   5.726 -3.7654 -1.7702 -0.4205
  189SAPI  C21621827  -0.090   0.911   5.633  0.3880 -0.4575 -0.5160
  189SAPI  H16R21828  -0.193   0.952   5.642 -0.2139 -1.1841 -3.1754
  189SAPI  H16S21829  -0.097   0.810   5.679  1.8012 -1.1744 -1.7814
  189SAPI  C21721830  -0.055   0.903   5.482 -0.4352 -0.1627  0.0285
  189SAPI  H17R21831   0.046   0.858   5.468 -0.6984 -0.8755  0.4030
  189SAPI  H17S21832  -0.037   1.006   5.446  0.9203 -0.3959 -0.0224
  189SAPI  C21821833  -0.165   0.831   5.403  0.5097  0.5722  0.4654
  189SAPI  H18R21834  -0.260   0.882   5.431  0.8070  1.0844  0.5579
  189SAPI  H18S21835  -0.168   0.724   5.433 -2.2276  0.6756  0.8576
  189SAPI  C21921836  -0.150   0.829   5.246  0.3011 -0.5567 -0.6349
  189SAPI  H19R21837  -0.048   0.801   5.213 -0.5857 -2.6052 -1.7852
  189SAPI  H19S21838  -0.172   0.934   5.216  2.0070 -0.5890 -2.2188
  189SAPI  C22021839  -0.261   0.752   5.167 -0.2757 -0.4327 -0.3590
  189SAPI  H20R21840  -0.229   0.749   5.061  0.4215  1.6246 -0.2638
  189SAPI  H20S21841  -0.356   0.809   5.172  0.0921  0.2318 -0.7575
  189SAPI  H20T21842  -0.266   0.649   5.208  2.5754 -1.2293 -1.7966
  189SAPI   C3321843   0.864   0.761   6.226 -0.2558 -0.3511 -0.2165
  189SAPI   H3X21844   0.896   0.664   6.270 -1.1433 -0.9516 -0.8668
  189SAPI   H3Y21845   0.958   0.806   6.187  0.3647 -0.8353  0.6634
  189SAPI   C3421846   0.779   0.738   6.107 -0.6023  0.5343 -0.1848
  189SAPI   H4X21847   0.753   0.840   6.070 -0.0153  1.1446  1.0223
  189SAPI   H4Y21848   0.690   0.679   6.135  1.8974 -2.6011  1.8942
  189SAPI   C3521849   0.825   0.653   5.991  0.1137  0.1090  0.0748
  189SAPI   H5X21850   0.832   0.546   6.019 -1.8437  0.3219  1.6209
  189SAPI   H5Y21851   0.926   0.683   5.955  1.3417 -0.8979  2.4032
  189SAPI   C3621852   0.726   0.650   5.866 -0.7412 -0.2441  0.6084
  189SAPI   H6X21853   0.673   0.746   5.843  0.1605  0.5772  1.8499
  189SAPI   H6Y21854   0.644   0.577   5.883 -1.6418  0.5145 -0.2988
  189SAPI   C3721855   0.797   0.587   5.742  0.0287  0.5469 -0.2518
  189SAPI   H7X21856   0.884   0.526   5.773  0.2782  1.4410  0.9012
  189SAPI   H7Y21857   0.835   0.670   5.679  0.8515  0.6217  0.3337
  189SAPI   C3821858   0.712   0.500   5.652  0.2175  0.2973 -0.2970
  189SAPI   H8X21859   0.664   0.422   5.715 -2.5660  0.9567 -1.4485
  189SAPI   H8Y21860   0.780   0.445   5.584 -1.0156 -1.0875 -0.4590
  189SAPI   C3921861   0.605   0.576   5.563  0.0387  0.7013  0.6240
  189SAPI   H9X21862   0.513   0.609   5.616 -0.1032  1.3864 -0.0199
  189SAPI   H9Y21863   0.570   0.508   5.482  0.2336  1.6879 -0.3151
  189SAPI  C31021864   0.660   0.691   5.484  0.6995 -0.4644  0.2354
  189SAPI  H10X21865   0.696   0.770   5.554 -1.1015  1.0931 -0.5289
  189SAPI  H10Y21866   0.570   0.736   5.437  1.2973 -0.2688 -0.7738
  189SAPI  C31121867   0.769   0.649   5.382  0.0894 -0.0224 -0.1048
  189SAPI  H11X21868   0.726   0.587   5.301  0.0728 -0.6328  0.3663
  189SAPI  H11Y21869   0.844   0.596   5.445  0.4229 -0.8204 -1.1538
  189SAPI  C31221870   0.840   0.772   5.314  0.1729 -0.1756  0.3735
  189SAPI  H12X21871   0.879   0.844   5.388  0.3806 -0.3248  0.4096
  189SAPI  H12Y21872   0.776   0.819   5.236  1.8628 -0.4180 -1.2514
  189SAPI  C31321873   0.966   0.724   5.238  0.6365 -0.1931  0.7718
  189SAPI  H13X21874   0.944   0.633   5.178  1.9258 -0.1640  0.2280
  189SAPI  H13Y21875   1.062   0.716   5.293  0.7369 -4.3403  0.3250
  189SAPI  C31421876   1.012   0.825   5.138  0.1209 -0.2717 -0.3178
  189SAPI  H14X21877   1.120   0.830   5.115  0.5206  1.6324  1.6204
  189SAPI  H14Y21878   0.987   0.927   5.175 -1.4068  0.2705 -2.6059
  189SAPI  C31521879   0.933   0.819   5.004 -0.2869  0.2452 -0.1120
  189SAPI  H15X21880   0.968   0.906   4.946  0.4458  0.6064  0.8522
  189SAPI  H15Y21881   0.826   0.821   5.035  0.2695 -0.4812  2.0208
  189SAPI  C31621882   0.964   0.693   4.932 -0.1941  0.0642  0.1731
  189SAPI  H16X21883   0.912   0.608   4.980 -0.4223 -0.2590 -0.6295
  189SAPI  H16Y21884   1.072   0.668   4.940 -0.5876 -2.2475 -0.8946
  189SAPI  C31721885   0.929   0.689   4.782  0.1540 -0.2710 -0.1705
  189SAPI  H17X21886   0.820   0.686   4.764 -0.0224 -1.3003  1.0052
  189SAPI  H17Y21887   0.966   0.595   4.735 -0.7000  0.4799 -2.5176
  189SAPI  C31821888   0.984   0.807   4.696  0.3256  0.0054 -0.1998
  189SAPI  H18X21889   1.075   0.832   4.755 -0.9468  0.3551  1.7398
  189SAPI  H18Y21890   0.926   0.902   4.688  0.8424  0.1790 -2.4121
  189SAPI  H18Z21891   1.011   0.765   4.598  2.2994 -1.4765  0.9211
  190SAPI   C1221892   6.354   5.507   7.461  0.1008  0.2310 -0.7577
  190SAPI    H221893   6.463   5.526   7.470 -0.3230  1.8307  1.8625
  190SAPI    O221894   6.336   5.374   7.504  0.0374  0.7650  0.1292
  190SAPI   HO221895   6.419   5.327   7.491 -0.1198  0.7584 -0.9611
  190SAPI   C1321896   6.297   5.616   7.548 -0.4414  0.6066  0.8550
  190SAPI    H321897   6.324   5.717   7.510  1.1126 -0.3518 -0.7779
  190SAPI    O321898   6.359   5.613   7.677  0.2608 -0.1418 -0.1619
  190SAPI   HO321899   6.347   5.532   7.728  0.4764  0.0387  0.1759
  190SAPI   C1421900   6.144   5.604   7.551  0.4295 -0.3448 -0.0053
  190SAPI    H421901   6.133   5.512   7.613 -0.2397 -0.2636  0.0056
  190SAPI    O421902   6.080   5.707   7.624 -0.5274 -0.5457 -0.0263
  190SAPI   HO421903   6.076   5.687   7.718  1.7427  0.9969  0.4904
  190SAPI   C1521904   6.071   5.566   7.420 -0.0428 -0.0289  0.9821
  190SAPI    H521905   6.031   5.665   7.389 -1.0483  0.1113  2.6230
  190SAPI    O521906   5.957   5.486   7.439  0.4416 -0.6562 -0.3103
  190SAPI   HO521907   5.889   5.530   7.388  2.0769  0.8525 -1.3206
  190SAPI   C1621908   6.155   5.512   7.306 -0.6888 -0.1303 -0.2153
  190SAPI    H621909   6.135   5.402   7.300 -2.3757  0.1593 -0.5351
  190SAPI    O621910   6.118   5.562   7.182 -0.1207  0.5091 -0.0316
  190SAPI   HO621911   6.134   5.656   7.180  0.6855  0.3930  0.3139
  190SAPI   C1121912   6.313   5.540   7.320  0.0403 -0.1827 -0.2522
  190SAPI    H121913   6.319   5.648   7.298 -0.5927 -0.2430 -0.7289
  190SAPI     P21914   6.527   5.511   7.171 -0.2070 -0.2781 -0.4269
  190SAPI   O1321915   6.622   5.401   7.171  0.0589  1.0582 -0.2235
  190SAPI   O1421916   6.562   5.638   7.235 -0.7480  0.2263 -0.6329
  190SAPI   O1221917   6.386   5.452   7.230 -0.0774 -0.1129  0.1169
  190SAPI   O1121918   6.495   5.538   7.022  0.0857 -0.1859  0.6735
  190SAPI    C121919   6.399   5.644   6.986 -0.4493  0.0644 -0.0959
  190SAPI    HA21920   6.296   5.607   7.001 -0.6325  1.1010  1.4595
  190SAPI    HB21921   6.407   5.740   7.041 -2.7226 -0.6357  1.5863
  190SAPI    C221922   6.412   5.682   6.829 -0.2235 -0.5986  0.2005
  190SAPI    HS21923   6.316   5.731   6.804  0.1838 -0.4185 -1.0700
  190SAPI   O2121924   6.441   5.562   6.758  0.0656  0.0471 -0.6251
  190SAPI   C2121925   6.363   5.538   6.660 -0.0747 -0.1819  0.8207
  190SAPI   O2221926   6.261   5.595   6.636  0.5230  0.6565 -0.0867
  190SAPI   C2221927   6.441   5.446   6.567  0.4850  0.2108  0.1369
  190SAPI   H2R21928   6.550   5.463   6.578  0.4073  1.8975 -1.2776
  190SAPI   H2S21929   6.425   5.348   6.617 -0.5431 -0.2588 -1.0334
  190SAPI    C321930   6.527   5.786   6.827 -0.4467  0.7374 -0.0053
  190SAPI    HX21931   6.623   5.732   6.843 -0.3878 -0.2429 -2.9526
  190SAPI    HY21932   6.512   5.853   6.914  0.1803  1.9567 -0.8123
  190SAPI   O3121933   6.526   5.866   6.712 -0.7376  0.0544 -0.6145
  190SAPI   C3121934   6.610   5.833   6.618 -0.6356 -0.2598  0.4812
  190SAPI   O3221935   6.676   5.733   6.611 -0.7667 -0.1785  0.5192
  190SAPI   C3221936   6.617   5.954   6.521  0.0566 -0.1582  0.5649
  190SAPI   H2X21937   6.716   5.999   6.543  1.0785 -2.3869  0.7112
  190SAPI   H2Y21938   6.533   6.024   6.544 -1.7137 -1.4907 -1.5512
  190SAPI   C2321939   6.388   5.418   6.418 -0.4207  0.1414 -0.4570
  190SAPI   H3R21940   6.278   5.406   6.424 -0.3042 -1.4157 -0.9942
  190SAPI   H3S21941   6.413   5.317   6.380 -2.7932 -0.0133 -1.7835
  190SAPI   C2421942   6.435   5.527   6.329 -0.5057 -0.8635  0.2978
  190SAPI   H4R21943   6.449   5.625   6.379  0.3847 -1.3423  1.0396
  190SAPI   H4S21944   6.353   5.524   6.255  1.3470 -0.8781 -1.8773
  190SAPI   C2521945   6.570   5.486   6.261  0.4486 -0.8711  0.1764
  190SAPI   H5R21946   6.653   5.484   6.333 -0.9065 -1.3621  1.7809
  190SAPI   C2621947   6.593   5.457   6.130 -0.2194 -0.5058 -0.6762
  190SAPI   H6R21948   6.695   5.420   6.114  0.8432  1.9924 -0.0805
  190SAPI   C2721949   6.503   5.460   6.005  0.7574  0.3004 -0.0648
  190SAPI   H7R21950   6.430   5.376   6.012 -0.7510  1.5581 -0.1039
  190SAPI   H7S21951   6.557   5.449   5.909 -2.7972  2.7647 -2.5681
  190SAPI   C2821952   6.428   5.591   5.992  0.6344  0.6601 -0.4189
  190SAPI   H8R21953   6.392   5.635   6.086  1.2114  2.1084 -0.8501
  190SAPI   C2921954   6.416   5.678   5.895 -0.9895  0.0311 -0.2932
  190SAPI   H9R21955   6.366   5.773   5.919 -0.6167  0.5953 -1.6839
  190SAPI  C21021956   6.462   5.653   5.755  0.2937 -0.1997  0.3651
  190SAPI  H10R21957   6.462   5.547   5.721  0.1989 -1.1320  3.0429
  190SAPI  H10S21958   6.563   5.693   5.735 -0.3811  0.1894 -2.8888
  190SAPI  C21121959   6.360   5.723   5.667  0.2383 -0.1766  0.0383
  190SAPI  H11R21960   6.256   5.705   5.697  0.8780 -3.5144  0.7110
  190SAPI  C21221961   6.382   5.783   5.549 -0.1104 -0.2569  0.2860
  190SAPI  H12R21962   6.300   5.835   5.496 -0.7300 -2.1237 -0.6641
  190SAPI  C21321963   6.523   5.809   5.500  0.0986 -0.0756 -0.4975
  190SAPI  H13R21964   6.579   5.851   5.586 -1.9266  3.4001 -0.6832
  190SAPI  H13S21965   6.531   5.888   5.423 -1.4329 -0.1935 -0.8140
  190SAPI  C21421966   6.590   5.685   5.451  0.3814 -0.6549 -0.3958
  190SAPI  H14R21967   6.531   5.593   5.464 -0.0571 -0.3371 -0.0805
  190SAPI  C21521968   6.689   5.683   5.354  0.4277  0.4452 -0.5763
  190SAPI  H15R21969   6.719   5.587   5.310  0.2573  0.2640 -0.2985
  190SAPI  C21621970   6.756   5.805   5.305 -0.1551  0.1741  0.2920
  190SAPI  H16R21971   6.864   5.796   5.328 -0.1929  0.8911  0.8116
  190SAPI  H16S21972   6.732   5.898   5.361  0.9745  0.1265  0.8735
  190SAPI  C21721973   6.737   5.830   5.154 -0.3439  0.5518  0.3719
  190SAPI  H17R21974   6.742   5.729   5.108 -1.4307 -0.8293  3.0477
  190SAPI  H17S21975   6.814   5.902   5.120 -0.9340  2.3069  2.5241
  190SAPI  C21821976   6.595   5.884   5.128 -0.5946 -0.1469 -0.6800
  190SAPI  H18R21977   6.588   5.955   5.213  4.4359  0.2862 -0.3158
  190SAPI  H18S21978   6.516   5.806   5.135 -0.1476 -0.5775 -0.3154
  190SAPI  C21921979   6.564   5.942   4.988  0.1694 -1.0241  0.4595
  190SAPI  H19R21980   6.456   5.925   4.971  0.4296 -1.9184 -0.4241
  190SAPI  H19S21981   6.612   5.883   4.907  0.4842 -0.6476  0.3638
  190SAPI  C22021982   6.605   6.089   4.960 -0.2675 -0.1857 -0.1226
  190SAPI  H20R21983   6.526   6.161   4.990  0.0405  0.0942  0.0159
  190SAPI  H20S21984   6.635   6.115   4.857 -2.8957 -3.0126 -1.7669
  190SAPI  H20T21985   6.684   6.117   5.032 -1.0927 -0.6370  0.9996
  190SAPI   C3321986   6.615   5.910   6.378 -0.5908  0.1827  1.1203
  190SAPI   H3X21987   6.525   5.850   6.352  0.3914 -1.1192  0.6249
  190SAPI   H3Y21988   6.703   5.844   6.363  0.2769  1.6050 -0.2969
  190SAPI   C3421989   6.622   6.028   6.280 -0.0516  0.2463 -0.3079
  190SAPI   H4X21990   6.695   6.108   6.305 -0.3079  0.2385  0.5189
  190SAPI   H4Y21991   6.521   6.075   6.289 -0.6238 -1.2563  2.1758
  190SAPI   C3521992   6.656   5.980   6.139 -0.8452  0.8412  0.2036
  190SAPI   H5X21993   6.586   5.905   6.097  1.5567 -0.8289 -1.0367
  190SAPI   H5Y21994   6.757   5.935   6.141 -1.6666 -1.1815 -0.9765
  190SAPI   C3621995   6.670   6.100   6.047 -0.6896  0.2055 -0.0009
  190SAPI   H6X21996   6.756   6.166   6.072 -1.2343  0.5046  1.1290
  190SAPI   H6Y21997   6.582   6.168   6.054 -1.6749 -0.8067 -1.8240
  190SAPI   C3721998   6.684   6.063   5.892 -0.2166  0.2106 -0.5988
  190SAPI   H7X21999   6.618   5.976   5.870  0.1095 -0.7152  1.7543
  190SAPI   H7Y22000   6.787   6.024   5.873  1.5435  4.1918 -0.3269
  190SAPI   C3822001   6.672   6.178   5.792 -0.5504  0.2107  0.3614
  190SAPI   H8X22002   6.736   6.263   5.822 -1.0593  0.7061  0.0548
  190SAPI   H8Y22003   6.563   6.204   5.793 -0.0372  2.6035  0.1852
  190SAPI   C3922004   6.716   6.150   5.645  0.6650  0.1352  0.6247
  190SAPI   H9X22005   6.644   6.076   5.604 -1.4001  2.5529 -0.4073
  190SAPI   H9Y22006   6.819   6.109   5.635  0.6641  0.7416 -3.0092
  190SAPI  C31022007   6.714   6.274   5.558  0.1332 -0.2487 -0.4041
  190SAPI  H10X22008   6.789   6.346   5.595 -0.4650  0.6011 -0.8014
  190SAPI  H10Y22009   6.610   6.315   5.556  0.8599  1.6361 -1.5190
  190SAPI  C31122010   6.738   6.229   5.412 -0.1035  0.3248 -0.3786
  190SAPI  H11X22011   6.660   6.158   5.376 -0.1787 -1.0244  2.2177
  190SAPI  H11Y22012   6.840   6.187   5.401  1.3883  3.7092 -0.7235
  190SAPI  C31222013   6.723   6.348   5.313 -0.3930  0.1525  0.4602
  190SAPI  H12X22014   6.624   6.398   5.320  0.5851  2.7760 -2.4765
  190SAPI  H12Y22015   6.739   6.305   5.212  0.4786 -2.5202  1.6326
  190SAPI  C31322016   6.836   6.457   5.322  0.0808  0.0587  0.0152
  190SAPI  H13X22017   6.934   6.411   5.344  0.8714  1.5450 -0.2985
  190SAPI  H13Y22018   6.806   6.516   5.411  1.9808 -1.5686  1.8207
  190SAPI  C31422019   6.848   6.537   5.195 -0.0645  0.2924  1.3135
  190SAPI  H14X22020   6.757   6.600   5.207 -1.2171 -1.0332 -0.1614
  190SAPI  H14Y22021   6.831   6.467   5.111 -0.3687 -0.2693  1.8286
  190SAPI  C31522022   6.969   6.628   5.184  0.5458  0.2220  0.3799
  190SAPI  H15X22023   7.059   6.564   5.177  0.5719  0.2302  0.6309
  190SAPI  H15Y22024   6.974   6.692   5.274 -3.5089  0.8747  0.3272
  190SAPI  C31622025   6.960   6.721   5.067  0.0925 -0.1756  0.5340
  190SAPI  H16X22026   6.870   6.782   5.087  0.5812  0.0379  2.2475
  190SAPI  H16Y22027   6.948   6.679   4.965  0.9651  1.6829 -0.3766
  190SAPI  C31722028   7.088   6.806   5.056  0.8368 -0.3362  0.5326
  190SAPI  H17X22029   7.179   6.749   5.028  0.0798 -1.2894 -0.0504
  190SAPI  H17Y22030   7.105   6.842   5.160 -2.0746 -2.9956  2.0886
  190SAPI  C31822031   7.068   6.930   4.965 -0.2138  0.4516  0.0544
  190SAPI  H18X22032   6.988   6.998   5.002 -0.6775 -0.0646  0.0129
  190SAPI  H18Y22033   7.043   6.915   4.858  0.3242  0.6550 -0.1008
  190SAPI  H18Z22034   7.165   6.984   4.964  0.3832 -0.5703  0.4552
  191SAPI   C1222035   2.952   0.131   3.176  0.0757  0.3016  0.2060
  191SAPI    H222036   2.943   0.182   3.275  0.1492  0.9915 -0.1358
  191SAPI    O222037   2.879   0.009   3.186  0.1260 -0.7276  0.1103
  191SAPI   HO222038   2.928  -0.041   3.251  0.4893 -0.3615  0.1164
  191SAPI   C1322039   2.883   0.226   3.077 -0.8522  0.3087 -0.0203
  191SAPI    H322040   2.955   0.310   3.069  1.6678 -1.7197 -0.1065
  191SAPI    O322041   2.754   0.270   3.114 -0.0393  0.0585 -0.3056
  191SAPI   HO322042   2.758   0.361   3.143 -1.5629  0.4192 -1.1401
  191SAPI   C1422043   2.885   0.169   2.936  0.0364 -0.2102  0.3917
  191SAPI    H422044   2.807   0.090   2.935  0.8068 -0.9873  0.8702
  191SAPI    O422045   2.855   0.268   2.836 -0.1458 -0.1444  0.2717
  191SAPI   HO422046   2.762   0.248   2.820 -1.1599  0.6895  4.1049
  191SAPI   C1522047   3.010   0.087   2.902  0.1537  0.5000  0.1135
  191SAPI    H522048   3.072   0.161   2.846  1.4067 -1.8356 -1.7602
  191SAPI    O522049   2.982  -0.019   2.806 -0.0445  0.0697 -0.3588
  191SAPI   HO522050   3.066  -0.053   2.774 -0.1813 -1.8611  1.1325
  191SAPI   C1622051   3.103   0.032   3.009 -0.2065  0.0111  0.1503
  191SAPI    H622052   3.062  -0.069   3.031 -0.5637  0.3095  0.8483
  191SAPI    O622053   3.238   0.017   2.967 -0.1890  0.1667 -0.4796
  191SAPI   HO622054   3.291   0.053   3.039  0.0794 -0.7586 -0.2023
  191SAPI   C1122055   3.101   0.108   3.139  0.0936 -0.2401  0.0047
  191SAPI    H122056   3.147   0.206   3.113 -0.8882  0.1988 -0.1046
  191SAPI     P22057   3.311   0.086   3.295 -0.1964  0.3071  0.2839
  191SAPI   O1322058   3.390   0.126   3.178 -0.3503 -0.3299  0.7101
  191SAPI   O1422059   3.378  -0.010   3.386  0.6763 -0.2981  0.7780
  191SAPI   O1222060   3.167   0.042   3.243 -0.1388 -0.2421 -0.3082
  191SAPI   O1122061   3.278   0.215   3.368 -0.3115 -0.3685  0.4586
  191SAPI    C122062   3.355   0.335   3.386 -0.0095  0.5157  0.6252
  191SAPI    HA22063   3.414   0.352   3.294  1.7272 -2.1367  1.1340
  191SAPI    HB22064   3.288   0.423   3.399 -1.2443 -0.5303  1.6271
  191SAPI    C222065   3.436   0.321   3.517  0.2801  0.0586 -0.0743
  191SAPI    HS22066   3.518   0.247   3.509  2.7628  2.2676  2.6931
  191SAPI   O2122067   3.339   0.303   3.625  0.2046  0.1627  0.2832
  191SAPI   C2122068   3.366   0.197   3.705  0.2875 -0.0077  0.4223
  191SAPI   O2222069   3.461   0.123   3.696 -0.2577 -0.0018 -0.1072
  191SAPI   C2222070   3.266   0.188   3.818  0.6452 -0.1710 -0.3910
  191SAPI   H2R22071   3.177   0.240   3.775  0.8584  1.6784  1.2572
  191SAPI   H2S22072   3.238   0.081   3.827 -1.0981  0.3629  1.2607
  191SAPI    C322073   3.517   0.450   3.546  0.6376 -0.7177  0.9932
  191SAPI    HX22074   3.445   0.533   3.558  3.1354  2.0590 -1.6492
  191SAPI    HY22075   3.580   0.487   3.463 -0.0792  0.0186  0.7579
  191SAPI   O3122076   3.574   0.443   3.677  0.0553 -0.6778 -0.8937
  191SAPI   C3122077   3.696   0.385   3.678 -0.5916  0.3613  1.1163
  191SAPI   O3222078   3.764   0.363   3.576  0.4379  0.3878  0.5160
  191SAPI   C3222079   3.735   0.358   3.824 -0.8062  0.0834 -0.3829
  191SAPI   H2X22080   3.701   0.256   3.852  0.5323  0.1245  1.5767
  191SAPI   H2Y22081   3.702   0.438   3.893 -2.1463 -0.1851 -0.6892
  191SAPI   C2322082   3.311   0.241   3.953 -0.3006 -0.2099 -0.1976
  191SAPI   H3R22083   3.399   0.185   3.994  1.9052  3.9003  1.2359
  191SAPI   H3S22084   3.236   0.221   4.033  0.8897  2.7824  1.8567
  191SAPI   C2422085   3.354   0.385   3.952  0.9406  0.2397 -0.5856
  191SAPI   H4R22086   3.280   0.437   3.888 -0.7842  0.0732  1.1683
  191SAPI   H4S22087   3.450   0.377   3.897  0.3710 -1.7359 -1.3935
  191SAPI   C2522088   3.360   0.446   4.090  0.4297  0.5169  0.4818
  191SAPI   H5R22089   3.455   0.433   4.144  2.0090 -1.7214 -2.5682
  191SAPI   C2622090   3.246   0.489   4.153 -0.3110  0.2925 -0.1430
  191SAPI   H6R22091   3.263   0.533   4.252  0.4894 -0.4830  0.0782
  191SAPI   C2722092   3.111   0.520   4.102  0.1030 -0.5629 -0.2463
  191SAPI   H7R22093   3.114   0.546   3.994  0.8124  0.3050 -0.0367
  191SAPI   H7S22094   3.086   0.607   4.167 -0.1517 -0.7327 -0.1178
  191SAPI   C2822095   3.010   0.402   4.124 -0.3120 -0.6962  0.5506
  191SAPI   H8R22096   3.004   0.330   4.041  2.1286 -0.3985  0.0406
  191SAPI   C2922097   2.914   0.394   4.221  0.3286  0.3751 -0.6499
  191SAPI   H9R22098   2.847   0.307   4.224  0.9474 -0.1839 -2.0366
  191SAPI  C21022099   2.892   0.488   4.331  0.1524 -0.0203 -0.4837
  191SAPI  H10R22100   2.805   0.555   4.314  1.2123  1.0053 -2.2070
  191SAPI  H10S22101   2.977   0.559   4.339  1.7621 -1.5109 -3.0559
  191SAPI  C21122102   2.868   0.416   4.460 -0.1507 -0.2637 -0.8674
  191SAPI  H11R22103   2.762   0.411   4.492  0.4739 -0.7050  1.3381
  191SAPI  C21222104   2.950   0.361   4.548 -0.2475  0.0743 -0.1054
  191SAPI  H12R22105   2.904   0.318   4.638 -1.3519  0.0544 -0.6642
  191SAPI  C21322106   3.101   0.373   4.542  0.2675  0.0099  0.5785
  191SAPI  H13R22107   3.150   0.384   4.641  1.1699  2.2969 -0.0680
  191SAPI  H13S22108   3.118   0.470   4.492  0.3752 -0.7895 -0.9941
  191SAPI  C21422109   3.154   0.263   4.453  0.1059  0.3401  0.1423
  191SAPI  H14R22110   3.088   0.242   4.367 -0.0610 -1.7299  0.7217
  191SAPI  C21522111   3.263   0.185   4.474  0.2666  0.2058  0.3655
  191SAPI  H15R22112   3.286   0.107   4.400  1.6152 -0.3280  1.3202
  191SAPI  C21622113   3.362   0.182   4.587 -0.4894 -0.2941  0.3242
  191SAPI  H16R22114   3.381   0.077   4.619 -1.3875 -1.0591 -1.5016
  191SAPI  H16S22115   3.324   0.243   4.671 -0.1079  1.4002 -0.6640
  191SAPI  C21722116   3.502   0.244   4.571  0.3159 -0.7928 -1.1156
  191SAPI  H17R22117   3.546   0.184   4.488  1.6369 -0.3448 -0.7593
  191SAPI  H17S22118   3.551   0.235   4.670 -2.0389  0.9787  0.3198
  191SAPI  C21822119   3.495   0.396   4.549 -0.4490  0.6112 -0.0460
  191SAPI  H18R22120   3.465   0.453   4.640  1.3390  1.6089 -0.0405
  191SAPI  H18S22121   3.427   0.425   4.466 -1.5348 -0.3733  0.4675
  191SAPI  C21922122   3.635   0.454   4.505  0.5690  0.5065 -0.2213
  191SAPI  H19R22123   3.712   0.432   4.582 -1.7687 -2.1863  1.5859
  191SAPI  H19S22124   3.635   0.564   4.497  1.4620  0.8280  2.9666
  191SAPI  C22022125   3.677   0.404   4.364 -1.2669 -0.8390 -0.6266
  191SAPI  H20R22126   3.777   0.443   4.337 -0.7207 -0.8456  1.2837
  191SAPI  H20S22127   3.604   0.421   4.281  0.9232 -1.3777 -2.7947
  191SAPI  H20T22128   3.684   0.297   4.391  0.2292 -0.2126  1.7139
  191SAPI   C3322129   3.886   0.365   3.834 -0.0518  0.1957 -0.5642
  191SAPI   H3X22130   3.931   0.453   3.783  0.8331 -0.2223 -0.5281
  191SAPI   H3Y22131   3.936   0.281   3.783  3.2747 -0.4723  3.2721
  191SAPI   C3422132   3.940   0.372   3.980  0.4732  0.0894 -0.5156
  191SAPI   H4X22133   3.899   0.461   4.032  0.7551 -0.0413 -0.0638
  191SAPI   H4Y22134   4.051   0.372   3.976  0.6692 -3.6565  0.4795
  191SAPI   C3522135   3.889   0.242   4.053  0.2820  1.1841  0.1451
  191SAPI   H5X22136   3.910   0.152   3.992 -0.2415  2.7191 -2.4573
  191SAPI   H5Y22137   3.779   0.244   4.069  0.1017 -0.5529 -0.6818
  191SAPI   C3622138   3.936   0.234   4.196  0.0616 -0.5015  0.0309
  191SAPI   H6X22139   3.862   0.176   4.255 -1.0956 -0.2418 -1.0949
  191SAPI   H6Y22140   3.952   0.331   4.247 -0.4440  0.0113 -0.7566
  191SAPI   C3722141   4.061   0.140   4.212 -0.0181 -0.9937  0.0194
  191SAPI   H7X22142   4.143   0.199   4.167 -1.6950 -0.3106 -2.3634
  191SAPI   H7Y22143   4.042   0.049   4.151 -1.1577 -1.4020  0.9554
  191SAPI   C3822144   4.084   0.111   4.363  0.6807 -0.3591  0.5017
  191SAPI   H8X22145   3.988   0.071   4.400 -0.5890  0.4150 -1.7723
  191SAPI   H8Y22146   4.104   0.210   4.410  0.3176  0.8968 -1.8220
  191SAPI   C3922147   4.195   0.001   4.378  0.8076 -1.0016 -0.2774
  191SAPI   H9X22148   4.289   0.056   4.354  0.5354 -1.3304 -2.2949
  191SAPI   H9Y22149   4.178  -0.078   4.302 -1.1384 -0.7254 -0.1719
  191SAPI  C31022150   4.213  -0.044   4.521 -0.6084  0.5938  0.0870
  191SAPI  H10X22151   4.128  -0.090   4.575 -1.3070  1.5569 -0.1661
  191SAPI  H10Y22152   4.243   0.042   4.584  0.9353  1.1170 -1.2726
  191SAPI  C31122153   4.338  -0.137   4.526  0.4547 -0.4108  0.4853
  191SAPI  H11X22154   4.433  -0.090   4.493  0.3525  0.3692  1.2651
  191SAPI  H11Y22155   4.307  -0.226   4.467 -0.8256 -0.5840  1.3661
  191SAPI  C31222156   4.367  -0.180   4.669  0.1716 -0.6118  0.0449
  191SAPI  H12X22157   4.273  -0.213   4.719  0.2638  0.6570  1.0948
  191SAPI  H12Y22158   4.412  -0.093   4.721  1.4125  0.2358 -2.2953
  191SAPI  C31322159   4.463  -0.297   4.679  0.6295  0.5094 -0.2836
  191SAPI  H13X22160   4.548  -0.278   4.610  0.5137 -3.0978 -1.6567
  191SAPI  H13Y22161   4.410  -0.384   4.635  1.5923 -1.8166  2.8098
  191SAPI  C31422162   4.507  -0.325   4.823  0.6304 -0.3797  0.3661
  191SAPI  H14X22163   4.550  -0.235   4.871  0.5070 -0.1548  0.0578
  191SAPI  H14Y22164   4.594  -0.393   4.810  0.3481 -0.6228 -0.2832
  191SAPI  C31522165   4.402  -0.395   4.914 -0.0339 -0.5719  0.2779
  191SAPI  H15X22166   4.371  -0.492   4.869  0.2563 -1.1023  1.2006
  191SAPI  H15Y22167   4.312  -0.330   4.908 -0.0961 -0.4113  2.3681
  191SAPI  C31622168   4.451  -0.416   5.053 -0.4211  0.1002 -0.1220
  191SAPI  H16X22169   4.451  -0.325   5.116  1.8761  1.0466 -1.3479
  191SAPI  H16Y22170   4.553  -0.460   5.062  0.0986  0.8365 -1.9490
  191SAPI  C31722171   4.349  -0.508   5.128 -0.3890  0.2114 -0.8439
  191SAPI  H17X22172   4.326  -0.587   5.053 -0.4327  0.1865 -0.8034
  191SAPI  H17Y22173   4.253  -0.453   5.143 -1.7972 -1.3895 -3.2930
  191SAPI  C31822174   4.397  -0.575   5.261 -0.8557  0.3312 -0.6929
  191SAPI  H18X22175   4.495  -0.626   5.253 -0.5727  0.6398  0.6172
  191SAPI  H18Y22176   4.317  -0.644   5.297 -0.9938  1.7372  1.9183
  191SAPI  H18Z22177   4.406  -0.502   5.344  0.8248  0.7040 -1.1742
  192SAPI   C1222178   4.225   0.469   2.990 -0.5676 -0.1351 -0.0675
  192SAPI    H222179   4.214   0.565   3.045  1.9807  1.7713 -2.5985
  192SAPI    O222180   4.368   0.437   2.994 -0.3761  0.1296 -0.3645
  192SAPI   HO222181   4.410   0.496   2.931  1.4096 -0.3029  0.3790
  192SAPI   C1322182   4.140   0.356   3.038  0.1347  0.0368  0.5281
  192SAPI    H322183   4.039   0.404   3.042  0.6104  1.4948 -2.2981
  192SAPI    O322184   4.184   0.308   3.166  0.0134  0.0270  0.3484
  192SAPI   HO322185   4.279   0.302   3.160  0.0584  1.4368 -2.8556
  192SAPI   C1422186   4.133   0.244   2.927 -0.2088 -0.4312  0.0723
  192SAPI    H422187   4.226   0.186   2.945 -1.3134 -1.9843  1.0202
  192SAPI    O422188   4.034   0.152   2.965 -0.1338  0.5054  0.4165
  192SAPI   HO422189   4.063   0.084   3.026 -0.1280 -0.8754 -1.0866
  192SAPI   C1522190   4.130   0.283   2.779 -0.2568  0.3245  0.7150
  192SAPI    H522191   4.025   0.306   2.753 -0.0483 -1.0234 -1.6403
  192SAPI    O522192   4.174   0.172   2.700 -0.2960 -0.5028  0.2363
  192SAPI   HO522193   4.104   0.106   2.692 -0.8515  0.1405 -0.4590
  192SAPI   C1622194   4.215   0.400   2.742  0.5214  0.4649 -0.4860
  192SAPI    H622195   4.324   0.380   2.733  0.4173 -0.8356  0.7211
  192SAPI    O622196   4.158   0.449   2.616 -0.3542  0.1229 -0.4824
  192SAPI   HO622197   4.216   0.518   2.581 -0.1994  0.4743  0.4344
  192SAPI   C1122198   4.193   0.510   2.843 -0.2493  0.8367  0.2974
  192SAPI    H122199   4.084   0.535   2.843 -0.1786  1.1480 -0.0288
  192SAPI     P22200   4.212   0.787   2.834  0.5888 -0.0011  0.0911
  192SAPI   O1322201   4.065   0.809   2.823  0.6796 -0.1900 -0.1683
  192SAPI   O1422202   4.299   0.883   2.763 -0.0846  0.7880 -0.0648
  192SAPI   O1222203   4.259   0.634   2.802  0.4410  0.4928  0.1709
  192SAPI   O1122204   4.250   0.811   2.988  0.7703 -0.0025  0.0895
  192SAPI    C122205   4.392   0.805   3.030  0.2688  0.1932  0.1845
  192SAPI    HA22206   4.447   0.725   2.976 -1.7337  1.0237 -3.4435
  192SAPI    HB22207   4.438   0.905   3.017 -0.4127  0.7336  1.7065
  192SAPI    C222208   4.415   0.796   3.187  0.2737  0.0332 -0.2308
  192SAPI    HS22209   4.522   0.822   3.205 -0.4462  1.2275  3.0606
  192SAPI   O2122210   4.380   0.661   3.229  0.1500  0.0871  0.2534
  192SAPI   C2122211   4.461   0.606   3.312 -0.4992 -0.3713 -0.1415
  192SAPI   O2222212   4.571   0.650   3.355  0.7445  0.2333 -0.2334
  192SAPI   C2222213   4.406   0.470   3.349 -0.0027  0.1262 -0.1227
  192SAPI   H2R22214   4.297   0.479   3.371 -0.0519  4.0999 -1.2698
  192SAPI   H2S22215   4.426   0.401   3.264  2.2036  1.7150 -0.9835
  192SAPI    C322216   4.340   0.909   3.270 -0.3512  0.2184 -0.0306
  192SAPI    HX22217   4.232   0.895   3.248 -0.0724  0.4715 -1.6726
  192SAPI    HY22218   4.359   1.007   3.221 -3.3465  0.7168 -0.4124
  192SAPI   O3122219   4.359   0.900   3.415  0.1935  0.4993  0.4410
  192SAPI   C3122220   4.471   0.957   3.454  0.4679  0.2227 -0.4777
  192SAPI   O3222221   4.553   1.009   3.379 -0.1974 -0.5310 -0.2126
  192SAPI   C3222222   4.488   0.951   3.607 -0.2078  0.1713  0.4087
  192SAPI   H2X22223   4.418   0.877   3.652  0.5111 -0.3723  0.6634
  192SAPI   H2Y22224   4.453   1.050   3.644 -0.0065  0.1223  0.7317
  192SAPI   C2322225   4.467   0.405   3.475 -0.2122  0.1010  0.1719
  192SAPI   H3R22226   4.576   0.413   3.455  0.1589  0.6719  2.2389
  192SAPI   H3S22227   4.445   0.296   3.480  0.1431  0.0841  2.4907
  192SAPI   C2422228   4.439   0.462   3.617 -0.2875 -0.2166 -0.5418
  192SAPI   H4R22229   4.513   0.543   3.634  0.1712 -0.8608  0.7060
  192SAPI   H4S22230   4.461   0.373   3.681 -0.4026  0.5275  0.5519
  192SAPI   C2522231   4.292   0.487   3.644  0.0418  0.2691  0.1794
  192SAPI   H5R22232   4.228   0.436   3.569  0.3106  0.1851  0.0035
  192SAPI   C2622233   4.231   0.567   3.736 -1.2278 -0.1223 -0.2277
  192SAPI   H6R22234   4.123   0.586   3.723 -0.9239  0.4462 -2.2934
  192SAPI   C2722235   4.304   0.636   3.853  0.0985 -0.5871 -0.0271
  192SAPI   H7R22236   4.354   0.727   3.813 -1.4986  0.3389  0.0106
  192SAPI   H7S22237   4.386   0.568   3.885 -0.8333 -1.0871  1.4298
  192SAPI   C2822238   4.211   0.664   3.969  0.6160 -0.2748  0.0909
  192SAPI   H8R22239   4.166   0.571   4.005 -0.7855 -0.0588 -1.0423
  192SAPI   C2922240   4.201   0.779   4.039  0.0352 -0.5767  0.4600
  192SAPI   H9R22241   4.140   0.774   4.131  1.3898  0.3190  1.4557
  192SAPI  C21022242   4.269   0.911   4.007  0.4214  0.6262  0.3492
  192SAPI  H10R22243   4.372   0.889   3.972 -0.1736  0.3461 -1.2982
  192SAPI  H10S22244   4.281   0.975   4.097  0.6191  1.7141 -0.4379
  192SAPI  C21122245   4.214   0.992   3.895  0.4503 -0.2571  0.1817
  192SAPI  H11R22246   4.156   0.933   3.823  0.3448 -0.0950  0.1333
  192SAPI  C21222247   4.213   1.130   3.894  0.2555  0.6091  0.1356
  192SAPI  H12R22248   4.153   1.166   3.810 -0.8728 -1.2606  0.0854
  192SAPI  C21322249   4.274   1.231   3.991 -0.4787  0.2134  0.5253
  192SAPI  H13R22250   4.374   1.198   4.026 -0.3461  2.2537  2.2754
  192SAPI  H13S22251   4.213   1.233   4.084 -0.6820 -3.6707  0.6518
  192SAPI  C21422252   4.294   1.367   3.926  0.4496  0.8159  0.5270
  192SAPI  H14R22253   4.323   1.376   3.820  1.7608  0.9087  0.8737
  192SAPI  C21522254   4.275   1.488   3.987  0.1517 -0.4851  0.1021
  192SAPI  H15R22255   4.293   1.581   3.932 -0.9162 -0.7456 -0.7464
  192SAPI  C21622256   4.229   1.501   4.137 -0.4437 -1.0366 -0.4157
  192SAPI  H16R22257   4.136   1.442   4.153 -1.4244  0.4314 -0.5393
  192SAPI  H16S22258   4.193   1.605   4.157  2.3003 -0.4623  2.2675
  192SAPI  C21722259   4.333   1.463   4.248  0.0447  0.4279 -1.0126
  192SAPI  H17R22260   4.412   1.540   4.242  0.9739 -0.4694 -0.6605
  192SAPI  H17S22261   4.387   1.368   4.226 -2.8942 -1.8019  0.5326
  192SAPI  C21822262   4.267   1.469   4.385 -0.5108  0.4219 -0.0038
  192SAPI  H18R22263   4.183   1.396   4.388  0.0270 -0.2597 -1.1401
  192SAPI  H18S22264   4.223   1.568   4.412 -0.7349  0.7488 -1.4843
  192SAPI  C21922265   4.373   1.457   4.500 -0.1715  0.7273  0.1636
  192SAPI  H19R22266   4.433   1.547   4.476  0.1204  0.2048 -1.0949
  192SAPI  H19S22267   4.429   1.365   4.474  0.6544  1.6714 -1.5018
  192SAPI  C22022268   4.307   1.449   4.642  0.2130 -0.4589  0.9143
  192SAPI  H20R22269   4.271   1.550   4.670  0.7088  0.3645 -1.2695
  192SAPI  H20S22270   4.384   1.417   4.717  0.8957 -0.1047  0.3773
  192SAPI  H20T22271   4.233   1.367   4.638 -1.7457  1.2118  1.3608
  192SAPI   C3322272   4.624   0.927   3.665  1.1140  0.2401 -0.4812
  192SAPI   H3X22273   4.689   1.015   3.647  2.1456 -0.0539  1.4859
  192SAPI   H3Y22274   4.661   0.828   3.631  0.4318 -0.4919  0.7877
  192SAPI   C3422275   4.628   0.920   3.817 -0.0644  0.9175  0.1661
  192SAPI   H4X22276   4.720   0.871   3.854 -0.5060 -1.4521 -1.6008
  192SAPI   H4Y22277   4.543   0.853   3.843  0.2680 -0.0894 -1.2478
  192SAPI   C3522278   4.617   1.052   3.887  0.1328 -0.6470  0.0701
  192SAPI   H5X22279   4.595   1.032   3.994  1.5739 -1.8573  0.1733
  192SAPI   H5Y22280   4.547   1.123   3.836 -1.1552  0.8814  3.6508
  192SAPI   C3622281   4.755   1.118   3.886 -0.7315 -0.0282  0.5818
  192SAPI   H6X22282   4.776   1.129   3.777  1.3003  0.5553  0.9970
  192SAPI   H6Y22283   4.827   1.050   3.936 -0.4335  0.3268  0.6410
  192SAPI   C3722284   4.767   1.264   3.949 -0.0620 -0.5595  0.9524
  192SAPI   H7X22285   4.716   1.338   3.883  0.0250  0.7025  2.2517
  192SAPI   H7Y22286   4.872   1.298   3.951 -0.6316  1.5585 -0.7844
  192SAPI   C3822287   4.703   1.286   4.084  0.3938 -0.2302  0.1294
  192SAPI   H8X22288   4.594   1.270   4.073  0.8125 -1.5606 -3.2024
  192SAPI   H8Y22289   4.727   1.391   4.112  1.4920 -0.7968  1.4037
  192SAPI   C3922290   4.759   1.197   4.192  0.2578  0.0395  0.4798
  192SAPI   H9X22291   4.870   1.200   4.201  0.2451 -1.1182  1.2550
  192SAPI   H9Y22292   4.727   1.092   4.177 -0.7063  0.6831 -2.8030
  192SAPI  C31022293   4.712   1.233   4.331  0.9320  0.0466  0.0777
  192SAPI  H10X22294   4.604   1.210   4.332  0.8995  0.2152  0.9736
  192SAPI  H10Y22295   4.716   1.343   4.347  1.0239  0.1956 -0.8957
  192SAPI  C31122296   4.773   1.169   4.452  0.3865 -0.5881  0.8424
  192SAPI  H11X22297   4.879   1.196   4.474 -0.0622  2.6511 -0.3967
  192SAPI  H11Y22298   4.769   1.059   4.438  2.6266 -0.6981  0.7235
  192SAPI  C31222299   4.712   1.209   4.594 -0.1083 -0.3225  0.4927
  192SAPI  H12X22300   4.602   1.225   4.589 -0.4099 -1.8483  1.4104
  192SAPI  H12Y22301   4.764   1.300   4.629 -1.6982  0.5273  0.7754
  192SAPI  C31322302   4.732   1.098   4.699  0.8732  0.0970 -0.4029
  192SAPI  H13X22303   4.676   1.011   4.660 -0.3586  0.5545  0.2982
  192SAPI  H13Y22304   4.698   1.137   4.797  0.3602  0.8618 -0.8717
  192SAPI  C31422305   4.871   1.051   4.716 -0.4891 -0.8328  0.6686
  192SAPI  H14X22306   4.917   1.009   4.624 -0.7580 -1.3288  0.7544
  192SAPI  H14Y22307   4.874   0.962   4.782 -0.5325 -0.7818  0.7402
  192SAPI  C31522308   4.957   1.153   4.790 -0.4745 -0.5268 -0.4929
  192SAPI  H15X22309   4.891   1.186   4.873  1.0981 -0.7100  0.8963
  192SAPI  H15Y22310   4.984   1.238   4.725  0.4044  0.4532  1.0713
  192SAPI  C31622311   5.092   1.101   4.860  0.8138  0.1282 -0.0146
  192SAPI  H16X22312   5.146   1.043   4.782 -0.4503 -1.4664  0.2302
  192SAPI  H16Y22313   5.059   1.030   4.939 -1.5004 -1.1894 -2.0320
  192SAPI  C31722314   5.180   1.213   4.919 -0.1078  0.7961 -0.1185
  192SAPI  H17X22315   5.234   1.160   5.001  0.2290 -0.3258 -1.0364
  192SAPI  H17Y22316   5.115   1.288   4.968 -1.1316  1.0132 -1.7326
  192SAPI  C31822317   5.271   1.279   4.829  0.0044 -0.1030 -0.4649
  192SAPI  H18X22318   5.357   1.212   4.805  0.1710 -1.4356  3.1955
  192SAPI  H18Y22319   5.316   1.366   4.882  0.1713 -1.4685  1.7639
  192SAPI  H18Z22320   5.225   1.314   4.735  1.1542  0.3075 -0.8973
  193SOD    SOD22321   1.811   6.755   7.970  0.0380  0.6428  0.0199
  194SOD    SOD22322   6.910   6.396   2.248  0.2021  0.0557 -0.9403
  195SOD    SOD22323   6.249   2.247   7.222  0.3865 -0.1394 -0.2566
  196SOD    SOD22324   2.684   4.150   6.493  0.1028  0.1082 -0.0508
  197SOD    SOD22325   4.006   4.981   6.769  0.3243  0.1707 -0.1631
  198SOD    SOD22326   4.498   5.420   1.751  0.1063 -0.1275 -0.7384
  199SOD    SOD22327   2.383   3.676   7.256 -0.2022 -0.0026  0.0515
  200SOD    SOD22328   3.565   6.315   7.229 -0.1723 -0.4919  0.2989
  201SOD    SOD22329   2.706   1.973   0.572  0.1641 -0.1036 -0.0556
  202SOD    SOD22330   5.104   0.926   8.206  0.4657 -0.1214 -0.2710
  203SOD    SOD22331   6.919   2.605   2.597  0.8139 -0.1521  0.2432
  204SOD    SOD22332   3.580   5.141   0.590  0.4077 -0.0045  0.6155
  205SOD    SOD22333   3.727   6.163   2.109  0.3763 -0.5854 -0.2423
  206SOD    SOD22334   6.705   4.645   6.821  0.4233  0.6285  0.1084
  207SOD    SOD22335   3.888   5.422   8.340  0.1078  0.1359 -0.2612
  208SOD    SOD22336   2.193   3.853   8.251  0.7982  0.1824  0.3420
  209SOD    SOD22337   4.460   6.583   2.113  0.0830 -0.6724  0.7538
  210SOD    SOD22338   1.470   5.228   1.344  0.2137 -0.1566 -0.0409
  211SOD    SOD22339   3.785   2.852   1.699  0.0576  0.3099 -0.2044
  212SOD    SOD22340   5.710   6.575   0.885 -0.5691 -0.1956  0.0222
  213SOD    SOD22341   6.584   5.703   7.706  0.6419  0.0020 -0.5646
  214SOD    SOD22342   4.896   0.013   1.174 -0.0366 -0.3999 -0.4032
  215SOD    SOD22343   0.289   0.510   2.191  0.0355 -0.3205  0.2065
  216SOD    SOD22344   3.967   0.262   1.701  0.2936 -0.1066  0.3303
  217SOD    SOD22345   4.646   6.787   7.406 -0.0842 -0.0311  0.2743
  218SOD    SOD22346   5.007   3.127   0.285 -0.5326  0.0322  0.0823
  219SOD    SOD22347   4.359   2.172   1.316  0.2702 -0.1302  0.1813
  220SOD    SOD22348   6.193   6.605   8.068 -0.4836 -0.2851 -0.3156
  221SOD    SOD22349   5.935   2.610   2.342 -0.2883 -0.3147 -0.0245
  222SOD    SOD22350   0.572   0.652   0.252  0.5213  0.2546  0.0839
  223SOD    SOD22351   5.645   0.037   1.805 -0.0598 -0.0402  0.2758
  224SOD    SOD22352   3.499   0.341   2.809 -0.2614  0.2883  0.0606
  225SOD    SOD22353   2.104   3.330   0.073  0.6545  0.5253  0.1106
  226SOD    SOD22354   3.003   3.079   8.423  0.1153  0.3324 -0.2221
  227SOD    SOD22355   0.695   0.716   2.719  0.2529 -0.1151 -0.0233
  228SOD    SOD22356   2.485   3.786   0.497 -0.4155 -0.0816  0.3918
  229SOD    SOD22357   6.024   6.081   6.907  0.2983 -0.2060 -0.4374
  230CLA    CLA22358   1.046   2.796   0.923 -0.6619  0.0064  0.1202
  231CLA    CLA22359   2.704   3.930   0.465 -0.1994 -0.1116  0.2226
  232CLA    CLA22360   6.750   2.028   0.669 -0.1509  0.0564 -0.6178
  233CLA    CLA22361   2.108   3.740   7.751 -0.1283 -0.2932  0.1299
  234CLA    CLA22362   4.951   3.207   1.953  0.0578  0.4409 -0.1368
  235CLA    CLA22363   6.204   1.147   2.127 -0.3831 -0.0058 -0.0275
  236CLA    CLA22364   5.045   6.332   8.391  0.2056  0.2486  0.4118
  237CLA    CLA22365   5.158   6.682   0.539 -0.2282 -0.2767 -0.0141
  238CLA    CLA22366   1.319   0.510   1.006  0.4151  0.2679  0.3270
  239CLA    CLA22367   3.981   6.058   8.140 -0.1949 -0.1452 -0.0974
  240CLA    CLA22368   2.774   3.682   8.025 -0.0895 -0.1847 -0.0201
  241CLA    CLA22369   4.031   5.851   2.110 -0.2772 -0.3578 -0.1570
  242CLA    CLA22370   3.634   1.167   1.321  0.5423  0.0401 -0.2673
  243CLA    CLA22371   4.823   6.195   1.123  0.2071 -0.2773 -0.4234
  244CLA    CLA22372   1.322   4.201   1.529  0.4415 -0.5353  0.1765
  245CLA    CLA22373   4.219   1.006   8.116  0.2445  0.0766  0.4021
  246CLA    CLA22374   5.389   1.418   8.248 -0.4440  0.1701 -0.5613
  247TIP3   OH222375   5.542   5.945   2.343  0.6708 -0.7208  0.2518
  247TIP3    H122376   5.525   6.037   2.323  0.3278 -0.8657 -0.1418
  247TIP3    H222377   5.515   5.934   2.434 -1.4864 -0.9605 -0.3717
  248TIP3   OH222378   3.116   2.773   0.606 -0.1815  0.5771 -0.2700
  248TIP3    H122379   3.033   2.768   0.557 -1.1512 -2.1653  1.4464
  248TIP3    H222380   3.182   2.744   0.543 -1.3517 -2.4873 -0.2487
  249TIP3   OH222381   3.918   4.331   2.265  0.1073  0.1582  0.2492
  249TIP3    H122382   3.992   4.304   2.319  1.4168  0.9922 -1.0816
  249TIP3    H222383   3.879   4.404   2.313  1.7600  1.4360 -0.2955
  250TIP3   OH222384   3.972   0.478   0.775 -0.3234  0.2459  0.4063
  250TIP3    H122385   3.964   0.530   0.695 -1.6403  0.4996  0.6823
  250TIP3    H222386   3.932   0.531   0.843 -0.6170 -0.6196  0.9318
  251TIP3   OH222387   2.702   0.661   1.040 -0.3326 -0.9312 -0.7896
  251TIP3    H122388   2.694   0.756   1.039  1.4043 -0.7031  0.8611
  251TIP3    H222389   2.752   0.640   0.961  0.6060 -0.2867 -0.3837
  252TIP3   OH222390   2.185   0.785   2.264 -0.1260  0.4593  0.3679
  252TIP3    H122391   2.168   0.835   2.184  0.8947  0.5767  0.2022
  252TIP3    H222392   2.117   0.718   2.265  0.1142  0.1655 -0.8548
  253TIP3   OH222393   5.893   2.860   1.348  0.1504 -0.0208 -0.7416
  253TIP3    H122394   5.904   2.819   1.262 -0.0643 -0.6954 -0.4586
  253TIP3    H222395   5.801   2.844   1.370  0.4005 -0.5424 -0.0449
  254TIP3   OH222396   6.231   4.766   1.054 -0.4534  0.5763  0.1748
  254TIP3    H122397   6.197   4.804   1.135  0.3024  1.4889  0.0811
  254TIP3    H222398   6.314   4.811   1.039  0.9126 -1.6822  0.4802
  255TIP3   OH222399   0.795   5.100   8.069  0.1389  0.0226 -0.3746
  255TIP3    H122400   0.849   5.021   8.082 -1.3699 -0.9968 -0.1160
  255TIP3    H222401   0.748   5.084   7.988 -0.2924  0.6023 -0.2463
  256TIP3   OH222402   0.449   3.516   2.202  0.5409 -0.5841  0.4472
  256TIP3    H122403   0.364   3.481   2.229 -0.3684  1.2195  0.0901
  256TIP3    H222404   0.513   3.465   2.251 -0.6946 -2.4133  0.2666
  257TIP3   OH222405   6.726   1.714   1.009  0.4108 -0.1646  0.2573
  257TIP3    H122406   6.744   1.697   1.102  0.4164  4.3279  1.3136
  257TIP3    H222407   6.639   1.755   1.009  1.6153  2.6081 -1.2210
  258TIP3   OH222408   3.490   5.063   5.782 -0.4186 -0.1543 -0.4225
  258TIP3    H122409   3.474   4.969   5.795  1.2824 -0.4273  0.0212
  258TIP3    H222410   3.536   5.067   5.698  0.5464  0.1275  0.1021
  259TIP3   OH222411   6.017   6.245   7.061 -0.0873 -0.1934  0.8755
  259TIP3    H122412   6.064   6.327   7.077  0.7922 -0.3090 -0.8563
  259TIP3    H222413   5.944   6.246   7.123  0.3260  1.5534  1.3775
  260TIP3   OH222414   3.194   6.199   8.000  0.3284  0.2818 -0.5330
  260TIP3    H122415   3.244   6.117   8.002 -0.5071 -0.2370 -0.3155
  260TIP3    H222416   3.203   6.231   7.911  2.7286  1.2747 -0.0117
  261TIP3   OH222417   2.699   4.138   2.041 -0.2659 -0.0171 -0.2002
  261TIP3    H122418   2.673   4.158   1.952 -2.3944  1.8963  0.7489
  261TIP3    H222419   2.640   4.190   2.096  1.4175 -0.5618  2.3220
  262TIP3   OH222420   6.828   4.112   7.976 -0.1191  0.0667 -0.1848
  262TIP3    H122421   6.866   4.144   7.894  0.1069 -0.8601 -0.4502
  262TIP3    H222422   6.748   4.163   7.987 -0.2146  0.1131 -1.0406
  263TIP3   OH222423   3.777   1.407   7.609  0.2486  0.0717 -0.4800
  263TIP3    H122424   3.799   1.377   7.697  0.9533 -0.6695 -0.8988
  263TIP3    H222425   3.689   1.445   7.618  0.1726 -0.3044  0.4679
  264TIP3   OH222426   6.117   3.672   1.458  0.8251 -0.1155  0.0649
  264TIP3    H122427   6.136   3.626   1.376 -0.4152 -0.4168 -0.0838
  264TIP3    H222428   6.023   3.691   1.453  0.8793  0.5061  1.0995
  265TIP3   OH222429   4.760   1.811   2.148 -0.3315 -0.2290 -0.1629
  265TIP3    H122430   4.669   1.800   2.176 -1.2077  0.7599 -2.3379
  265TIP3    H222431   4.807   1.739   2.189 -2.0045 -0.5112  1.3714
  266TIP3   OH222432   0.447   1.761   0.991  0.2691  0.1860  0.4145
  266TIP3    H122433   0.353   1.782   0.990  0.3431  0.5723  1.0481
  266TIP3    H222434   0.463   1.720   0.906 -0.8142 -1.3844  0.9200
  267TIP3   OH222435   6.685   4.003   7.023 -0.7601 -0.5660  0.0729
  267TIP3    H122436   6.682   4.097   7.006 -2.9515 -0.7734 -1.0728
  267TIP3    H222437   6.773   3.977   6.997 -0.1376  1.1479  0.3642
  268TIP3   OH222438   2.857   6.062   0.933  0.0499 -0.2657 -0.8270
  268TIP3    H122439   2.911   6.051   1.011 -0.4371 -0.5361 -0.5210
  268TIP3    H222440   2.913   6.108   0.870  0.8897 -1.2087 -0.7912
  269TIP3   OH222441   2.012   3.029   8.439  0.4319 -0.4435  0.0306
  269TIP3    H122442   1.954   3.070   8.503  0.9322  1.5108 -0.6996
  269TIP3    H222443   2.050   2.954   8.486  1.1974  1.2218  2.2257
  270TIP3   OH222444   6.899   4.829   0.809 -0.3890  0.2196 -0.0590
  270TIP3    H122445   6.959   4.877   0.752 -0.1371 -1.0667 -0.9087
  270TIP3    H222446   6.851   4.771   0.751 -1.2265 -0.0265  0.8471
  271TIP3   OH222447   3.786   6.578   2.641 -0.2485 -0.2106  0.0059
  271TIP3    H122448   3.738   6.586   2.723  0.8287 -0.0451  0.6380
  271TIP3    H222449   3.871   6.542   2.666 -0.0737 -0.6172 -1.1010
  272TIP3   OH222450   0.709   1.508   8.311 -0.1155  0.3305  0.2574
  272TIP3    H122451   0.714   1.559   8.392  1.5677  0.2131  0.2519
  272TIP3    H222452   0.744   1.422   8.334 -0.9467 -0.1548 -0.2610
  273TIP3   OH222453   1.104   1.552   8.369  0.2253 -0.4168 -0.5113
  273TIP3    H122454   1.049   1.517   8.300 -0.3055 -1.3982  0.3673
  273TIP3    H222455   1.100   1.486   8.439  0.6837  0.5605  0.4815
  274TIP3   OH222456   5.982   0.015   1.378 -0.6284 -0.3282 -0.2632
  274TIP3    H122457   6.064   0.025   1.427 -0.3271  0.8332 -0.9555
  274TIP3    H222458   5.950   0.105   1.366 -0.7037 -0.5571 -2.1439
  275TIP3   OH222459   3.334   2.898   1.693 -0.2282  0.0100  0.0075
  275TIP3    H122460   3.255   2.952   1.697  0.4453  1.1302 -1.1370
  275TIP3    H222461   3.301   2.808   1.699 -1.4395  0.4818  1.1992
  276TIP3   OH222462   0.725   6.580   0.431  1.0576 -0.2098 -0.5002
  276TIP3    H122463   0.736   6.627   0.348 -0.2939 -0.0018 -0.5863
  276TIP3    H222464   0.697   6.646   0.493  2.4245 -0.2987  0.2480
  277TIP3   OH222465   6.624   5.766   7.474 -0.3271 -0.3404 -0.2063
  277TIP3    H122466   6.589   5.711   7.404  0.8642 -0.9894 -0.3367
  277TIP3    H222467   6.695   5.815   7.432 -1.8939  1.9945 -0.3065
  278TIP3   OH222468   6.282   2.133   7.814 -0.2626 -0.4946 -0.5255
  278TIP3    H122469   6.199   2.180   7.806 -0.0574  0.3801  1.7373
  278TIP3    H222470   6.349   2.201   7.801  0.1351 -1.0791 -1.7253
  279TIP3   OH222471   0.373   2.279   0.682 -0.2298 -0.2453 -0.0909
  279TIP3    H122472   0.407   2.297   0.770 -0.6823 -0.0221  0.0414
  279TIP3    H222473   0.334   2.362   0.655 -0.4542 -0.4311 -0.3379
  280TIP3   OH222474   4.882   6.029   7.640 -0.4249 -0.1821  0.0872
  280TIP3    H122475   4.862   6.122   7.640  0.0896 -0.0444  1.8720
  280TIP3    H222476   4.820   5.991   7.703 -1.9551 -1.4015 -2.0005
  281TIP3   OH222477   2.742   4.728   0.725  0.1318  0.4099 -0.2767
  281TIP3    H122478   2.780   4.655   0.676 -1.9399 -0.7489 -0.2522
  281TIP3    H222479   2.740   4.800   0.663 -1.2957 -0.6691 -1.5736
  282TIP3   OH222480   2.977   5.177   6.502  0.7121 -0.1626  0.2404
  282TIP3    H122481   2.895   5.209   6.539  0.2318 -0.9303 -0.1360
  282TIP3    H222482   2.971   5.199   6.409  1.9617  1.8658  0.5519
  283TIP3   OH222483   3.299   5.947   7.982  0.0094  0.2276 -0.3015
  283TIP3    H122484   3.248   5.907   7.911 -2.7360  2.0026  0.4951
  283TIP3    H222485   3.288   5.888   8.056 -0.1418  0.1555 -0.3807
  284TIP3   OH222486   1.206   2.940   8.281  0.5060 -0.3897  0.2075
  284TIP3    H122487   1.128   2.993   8.295  1.0820  0.1273  1.6690
  284TIP3    H222488   1.195   2.864   8.339  1.6324  0.3314  1.4361
  285TIP3   OH222489   2.470   4.997   6.826 -1.0345  0.1834  0.1293
  285TIP3    H122490   2.425   5.082   6.818  1.3015  1.5800  0.6419
  285TIP3    H222491   2.530   4.995   6.751 -0.5353 -0.6780  0.5413
  286TIP3   OH222492   5.979   0.308   8.107 -0.2063  0.1478 -0.4557
  286TIP3    H122493   6.040   0.370   8.066 -1.1763  2.5443  1.4609
  286TIP3    H222494   5.896   0.324   8.061 -0.9808  1.9300  1.4030
  287TIP3   OH222495   0.977   5.623   0.802  1.0558 -0.0180 -0.0762
  287TIP3    H122496   1.016   5.580   0.878  0.4593  2.8569  2.0070
  287TIP3    H222497   1.032   5.699   0.785 -1.2885  1.9170  0.4361
  288TIP3   OH222498   4.151   6.776   2.697 -0.1382 -0.5383 -0.3500
  288TIP3    H122499   4.179   6.792   2.787 -0.5308 -0.7746 -0.1806
  288TIP3    H222500   4.228   6.739   2.653  0.7533  1.5702 -0.7117
  289TIP3   OH222501   3.514   6.534   0.271  1.0916 -0.2329 -0.3918
  289TIP3    H122502   3.505   6.629   0.278 -0.2276 -0.1091 -2.5494
  289TIP3    H222503   3.578   6.522   0.200  1.1869 -0.9544 -0.1855
  290TIP3   OH222504   6.673   0.666   0.230 -0.5972 -0.1085  0.0562
  290TIP3    H122505   6.578   0.671   0.233 -0.5564  2.0331 -0.3188
  290TIP3    H222506   6.699   0.732   0.166  1.1162 -1.4917 -0.7772
  291TIP3   OH222507   3.931   4.449   1.503  0.2484  0.1497  0.3164
  291TIP3    H122508   3.840   4.459   1.528 -0.6080  0.5382 -2.5424
  291TIP3    H222509   3.947   4.522   1.442  1.5793 -1.4297 -1.3485
  292TIP3   OH222510   5.757   6.091   0.155  0.1740  0.2365 -0.1450
  292TIP3    H122511   5.716   6.005   0.160  0.6242  0.0488  0.3109
  292TIP3    H222512   5.835   6.078   0.101  0.9135  0.0892  0.9371
  293TIP3   OH222513   3.983   2.718   0.849  0.1151  0.0202  0.2150
  293TIP3    H122514   3.911   2.664   0.817 -0.7067  0.9533  0.4373
  293TIP3    H222515   3.958   2.739   0.939 -0.1304  1.6529 -0.2103
  294TIP3   OH222516   1.414   5.276   6.149 -0.5702 -0.6580 -0.7506
  294TIP3    H122517   1.329   5.236   6.168 -0.4550 -0.3063  0.5562
  294TIP3    H222518   1.474   5.239   6.214  0.5519 -1.7026 -2.2980
  295TIP3   OH222519   0.519   3.580   8.232 -0.7414 -0.4079  0.3511
  295TIP3    H122520   0.444   3.624   8.192  0.5576  0.5473 -1.1727
  295TIP3    H222521   0.563   3.537   8.158  2.5901  2.6287  0.2857
  296TIP3   OH222522   5.286   1.118   0.556  0.3677 -0.1259 -0.3122
  296TIP3    H122523   5.359   1.096   0.498  0.3837 -0.4977 -0.1586
  296TIP3    H222524   5.304   1.207   0.586  0.0429  0.3129 -1.3612
  297TIP3   OH222525   0.652   3.802   2.067 -0.1833 -0.4085  0.0303
  297TIP3    H122526   0.588   3.858   2.022  0.5123  0.5797  0.2516
  297TIP3    H222527   0.600   3.754   2.132 -0.6658  0.5740  0.3927
  298TIP3   OH222528   3.249   0.149   0.581 -0.3220  0.5030 -0.5745
  298TIP3    H122529   3.219   0.240   0.579 -1.6956  0.0643 -2.1878
  298TIP3    H222530   3.260   0.130   0.674  1.0588  2.6213 -0.2327
  299TIP3   OH222531   2.770   5.187   8.384  0.2655 -0.7241 -0.3983
  299TIP3    H122532   2.708   5.175   8.456  1.0709  0.9255  0.6205
  299TIP3    H222533   2.716   5.220   8.311  0.0437  2.0207  0.8841
  300TIP3   OH222534   3.069   6.061   3.118 -0.0427  0.7016  0.5956
  300TIP3    H122535   3.096   6.012   3.041 -1.4330 -2.0152  1.6877
  300TIP3    H222536   3.142   6.050   3.180  0.4599  1.6873  0.2040
  301TIP3   OH222537   3.532   6.716   8.033 -0.2912  0.6689 -0.3919
  301TIP3    H122538   3.473   6.791   8.036  0.4720  1.2764  2.0127
  301TIP3    H222539   3.483   6.645   8.075  0.4805  1.0887  1.3192
  302TIP3   OH222540   3.103   3.336   1.814 -0.5331 -0.1036 -0.2088
  302TIP3    H122541   3.157   3.271   1.859  1.3089  1.2410 -0.3690
  302TIP3    H222542   3.122   3.323   1.721 -1.4275 -0.3978 -0.3617
  303TIP3   OH222543   6.130   0.385   0.763 -0.0082  0.1241  0.3965
  303TIP3    H122544   6.210   0.331   0.762 -0.6097 -0.8365 -1.4159
  303TIP3    H222545   6.060   0.323   0.781 -0.7426  0.1557 -1.9364
  304TIP3   OH222546   2.071   3.520   8.177  0.2312  0.4955 -0.4498
  304TIP3    H122547   2.071   3.511   8.082 -0.2514  0.6002 -0.4590
  304TIP3    H222548   2.138   3.586   8.195  0.6022  0.1933 -0.6845
  305TIP3   OH222549   2.271   4.276   7.277 -0.3097 -0.0748 -0.2871
  305TIP3    H122550   2.222   4.202   7.313  1.1316 -1.2312 -0.6098
  305TIP3    H222551   2.329   4.303   7.348  1.0703 -1.0255 -1.0098
  306TIP3   OH222552   5.556   3.571   2.193 -0.1116 -0.3809  0.1101
  306TIP3    H122553   5.576   3.483   2.225 -2.3547 -1.1564 -0.4712
  306TIP3    H222554   5.564   3.626   2.271  0.4464 -1.2259  0.6779
  307TIP3   OH222555   2.199   5.865   8.031 -0.4143 -0.3115 -0.7288
  307TIP3    H122556   2.219   5.957   8.016 -0.5721 -0.3620 -1.2552
  307TIP3    H222557   2.283   5.820   8.019 -0.2561 -0.1983 -0.0925
  308TIP3   OH222558   4.932   0.372   2.619 -0.0632  0.7663 -0.4352
  308TIP3    H122559   4.959   0.378   2.710 -1.5637  2.0324 -0.0417
  308TIP3    H222560   4.893   0.457   2.599 -1.3444 -0.0715 -1.7189
  309TIP3   OH222561   5.630   0.239   1.656 -0.1100  0.0906 -0.2650
  309TIP3    H122562   5.641   0.283   1.571  3.1368  2.1440  1.0398
  309TIP3    H222563   5.582   0.302   1.709 -1.2157 -0.7690 -0.2033
  310TIP3   OH222564   2.200   1.280   1.560 -0.1781 -0.1416 -0.1938
  310TIP3    H122565   2.263   1.320   1.621 -0.3182 -1.3337  0.7780
  310TIP3    H222566   2.115   1.290   1.603 -0.5012  0.3793 -0.9347
  311TIP3   OH222567   0.634   5.142   7.217 -0.2929 -0.0465  0.0486
  311TIP3    H122568   0.550   5.179   7.243  0.3584  1.3756  0.2147
  311TIP3    H222569   0.612   5.081   7.146 -1.5412 -0.3326  0.6589
  312TIP3   OH222570   0.656   1.912   7.086 -0.4370 -0.7345 -0.0220
  312TIP3    H122571   0.598   1.989   7.091 -0.5621 -0.8412  0.1952
  312TIP3    H222572   0.663   1.893   6.993 -0.9776 -0.8859 -0.0365
  313TIP3   OH222573   4.126   2.031   0.637  0.0723  0.1735 -0.0044
  313TIP3    H122574   4.182   2.039   0.560 -1.1126  1.0775 -0.7834
  313TIP3    H222575   4.124   1.937   0.655  0.2109 -0.0663 -1.1781
  314TIP3   OH222576   4.410   0.475   1.831 -0.2209  0.2348 -0.5288
  314TIP3    H122577   4.408   0.382   1.810  2.3215  0.2685 -1.3370
  314TIP3    H222578   4.435   0.478   1.923  1.1588  0.0757 -0.8754
  315TIP3   OH222579   6.421   3.765   8.508  0.1587 -0.1401  0.0158
  315TIP3    H122580   6.389   3.708   8.578  0.7124 -0.8129 -0.2754
  315TIP3    H222581   6.516   3.758   8.513  0.2128 -2.0918 -2.3382
  316TIP3   OH222582   5.763   3.361   0.767 -0.1050  0.1855  0.2589
  316TIP3    H122583   5.852   3.378   0.735 -0.0459  0.9644  0.8253
  316TIP3    H222584   5.776   3.333   0.858 -0.4174 -0.0868  0.2212
  317TIP3   OH222585   5.859   0.001   0.637  0.5021  0.5990 -0.3788
  317TIP3    H122586   5.864   0.086   0.682 -0.9823  0.9519 -0.8314
  317TIP3    H222587   5.826   0.023   0.549 -1.4863 -0.5961  0.0183
  318TIP3   OH222588   0.279   4.632   1.246 -0.1413 -0.2507 -0.4056
  318TIP3    H122589   0.357   4.648   1.194 -0.6026 -1.2402 -1.4629
  318TIP3    H222590   0.250   4.545   1.219 -0.6525 -0.6210  1.2199
  319TIP3   OH222591   1.804   2.373   8.391 -0.1258  0.5411 -0.0113
  319TIP3    H122592   1.799   2.313   8.317 -0.2167  1.4659 -0.7698
  319TIP3    H222593   1.734   2.437   8.375 -1.7980 -0.6094  2.1443
  320TIP3   OH222594   1.271   6.625   2.635 -0.0928 -0.0557  0.5642
  320TIP3    H122595   1.211   6.662   2.699  3.4115  1.0931  3.4697
  320TIP3    H222596   1.257   6.530   2.641 -5.3358  0.0717 -3.0542
  321TIP3   OH222597   6.098   2.336   2.143 -0.0654  0.2588  0.4024
  321TIP3    H122598   6.177   2.357   2.194  0.6526  0.7806 -0.8754
  321TIP3    H222599   6.094   2.241   2.144 -0.3105  0.2672  1.7776
  322TIP3   OH222600   1.647   6.069   8.486 -0.3671  0.0582  0.2267
  322TIP3    H122601   1.702   6.088   8.410  0.7314 -0.9925  0.7259
  322TIP3    H222602   1.557   6.084   8.455 -0.0418 -1.3424 -1.6106
  323TIP3   OH222603   5.285   1.225   0.930  0.5719 -0.4973 -0.1275
  323TIP3    H122604   5.368   1.191   0.963  1.1506 -0.4907 -1.5481
  323TIP3    H222605   5.224   1.151   0.937  0.8834 -0.7234  0.2209
  324TIP3   OH222606   5.076   2.667   0.648 -0.5307 -0.0719  1.1862
  324TIP3    H122607   4.982   2.650   0.645 -1.0518  2.5937 -0.2065
  324TIP3    H222608   5.088   2.747   0.596  2.6243 -0.8072  0.5679
  325TIP3   OH222609   6.077   3.694   2.063 -0.6500 -0.3143 -0.1609
  325TIP3    H122610   6.161   3.715   2.021 -0.7098 -1.0107 -0.6458
  325TIP3    H222611   6.076   3.748   2.142 -0.3266  0.6650 -0.8045
  326TIP3   OH222612   3.088   6.884   3.581 -0.0023 -0.5247 -0.3389
  326TIP3    H122613   3.056   6.877   3.491 -0.2901 -2.3213 -0.1329
  326TIP3    H222614   3.017   6.848   3.635 -0.9340  2.8040  0.9205
  327TIP3   OH222615   3.684   4.468   0.681 -0.6279 -0.6858  0.1245
  327TIP3    H122616   3.647   4.479   0.769 -0.4154 -0.8180  0.2331
  327TIP3    H222617   3.732   4.550   0.665 -0.5753 -0.7060  0.1772
  328TIP3   OH222618   3.974   3.804   7.693  0.2561  0.5878  0.6203
  328TIP3    H122619   3.892   3.755   7.695  0.3303  0.3531 -1.0498
  328TIP3    H222620   4.034   3.748   7.644  0.9226  1.4949  0.3847
  329TIP3   OH222621   6.852   0.583   0.426  0.3565 -0.4818 -0.6128
  329TIP3    H122622   6.798   0.538   0.492  1.7097 -0.8962  0.2581
  329TIP3    H222623   6.791   0.603   0.355 -1.3250  0.6437  1.0660
  330TIP3   OH222624   1.706   5.689   1.096  0.5875 -0.2494 -0.7305
  330TIP3    H122625   1.643   5.731   1.038 -0.2066 -2.2085 -1.3658
  330TIP3    H222626   1.657   5.670   1.176  1.1739  0.7515 -0.1118
  331TIP3   OH222627   5.221   5.300   8.108 -0.2896  0.4232  0.1970
  331TIP3    H122628   5.297   5.345   8.144 -0.6778  0.9766  0.3232
  331TIP3    H222629   5.151   5.366   8.106 -0.2203  0.4979 -1.8056
  332TIP3   OH222630   4.745   5.335   0.335  0.2226  0.0831 -0.1526
  332TIP3    H122631   4.662   5.313   0.292  0.3764 -0.3087 -0.2528
  332TIP3    H222632   4.770   5.419   0.297  0.2605 -0.1700 -0.6985
  333TIP3   OH222633   2.150   6.486   1.741  0.1682 -0.7060 -0.6352
  333TIP3    H122634   2.091   6.410   1.742 -0.4658 -0.2480  1.4679
  333TIP3    H222635   2.104   6.551   1.688 -1.1704 -0.4194  0.8249
  334TIP3   OH222636   6.307   3.565   6.484 -0.5517 -0.8343  0.3527
  334TIP3    H122637   6.285   3.624   6.411 -0.6784 -0.0057  1.0477
  334TIP3    H222638   6.379   3.609   6.529 -0.1196 -1.6015  0.4327
  335TIP3   OH222639   6.035   0.643   0.480 -0.3362 -0.2512  0.2055
  335TIP3    H122640   5.989   0.662   0.562  0.2336 -0.1623  0.5061
  335TIP3    H222641   6.126   0.634   0.505 -0.2822 -1.1766 -0.2721
  336TIP3   OH222642   1.298   6.845   7.664  0.0853 -0.0098  0.5983
  336TIP3    H122643   1.209   6.817   7.642 -0.3974  1.3965  0.6522
  336TIP3    H222644   1.343   6.765   7.690 -0.4101 -1.1843 -1.8314
  337TIP3   OH222645   5.696   6.717   7.669  0.1622 -0.5784 -0.2747
  337TIP3    H122646   5.790   6.712   7.684 -0.1146  0.5215  2.4300
  337TIP3    H222647   5.683   6.802   7.625  0.4802 -1.1746 -1.5594
  338TIP3   OH222648   1.314   3.988   1.320 -0.2185  0.3628  0.3987
  338TIP3    H122649   1.230   3.944   1.313 -0.7809  1.1602  1.6301
  338TIP3    H222650   1.297   4.062   1.379  1.3033  0.6260  0.5548
  339TIP3   OH222651   0.286   2.212   8.192  0.0980 -0.3354  0.6809
  339TIP3    H122652   0.300   2.305   8.211  0.1762 -0.1329 -0.3132
  339TIP3    H222653   0.365   2.169   8.225 -1.0069 -0.4296  3.5070
  340TIP3   OH222654   0.629   6.277   8.184  0.4101 -0.4739 -0.1734
  340TIP3    H122655   0.588   6.204   8.230  1.4895 -1.3498 -0.5388
  340TIP3    H222656   0.616   6.352   8.241 -2.7687 -0.3764 -0.8319
  341TIP3   OH222657   5.362   3.354   7.522  0.3955 -0.1185 -0.3656
  341TIP3    H122658   5.297   3.284   7.516  0.1772  0.1177 -0.8510
  341TIP3    H222659   5.341   3.413   7.449  0.7521  0.3024 -0.1382
  342TIP3   OH222660   1.706   1.590   7.378 -0.3437 -0.2209  0.0095
  342TIP3    H122661   1.680   1.671   7.334  0.8814  0.6017  0.7051
  342TIP3    H222662   1.783   1.560   7.330  0.9346  0.6205  1.4051
  343TIP3   OH222663   0.846   0.664   8.124  0.3634  0.0286  0.0938
  343TIP3    H122664   0.791   0.666   8.046  0.5686 -2.1305 -0.1928
  343TIP3    H222665   0.877   0.573   8.128  0.7785  0.2168  2.4027
  344TIP3   OH222666   5.338   6.675   2.490  0.1961 -0.4497 -0.8559
  344TIP3    H122667   5.288   6.631   2.559 -0.5351  0.4123 -0.8139
  344TIP3    H222668   5.423   6.631   2.490 -0.2254 -1.2948 -0.2582
  345TIP3   OH222669   6.681   0.472   1.566 -0.1610  0.1270 -0.5981
  345TIP3    H122670   6.661   0.534   1.496 -4.1022  2.1824  1.9933
  345TIP3    H222671   6.732   0.523   1.629 -0.2566 -0.4204 -0.0724
  346TIP3   OH222672   1.208   5.955   0.974 -0.4627 -0.5849  0.0244
  346TIP3    H122673   1.161   5.903   0.908 -1.1228 -0.0276  0.0408
  346TIP3    H222674   1.217   6.041   0.934 -0.5908 -0.3309  0.5362
  347TIP3   OH222675   0.834   2.134   1.325 -0.3959 -0.5144  0.1878
  347TIP3    H122676   0.894   2.204   1.348  1.3685 -0.6630 -3.3452
  347TIP3    H222677   0.868   2.056   1.369  0.1793 -0.0008  0.6522
  348TIP3   OH222678   6.381   1.134   2.664 -0.6876  0.3572 -0.1839
  348TIP3    H122679   6.388   1.226   2.691 -2.9040  0.5078  0.0597
  348TIP3    H222680   6.318   1.135   2.592  0.8098 -0.7694 -1.5856
  349TIP3   OH222681   0.643   2.091   7.366  0.5301 -0.3592 -0.0102
  349TIP3    H122682   0.580   2.137   7.310  2.2918  0.7321 -1.1956
  349TIP3    H222683   0.728   2.109   7.327  1.6022 -1.9675  1.4060
  350TIP3   OH222684   2.289   1.876   2.784  0.2615  0.0907  0.2233
  350TIP3    H122685   2.339   1.927   2.848 -1.2719  0.3086  1.2790
  350TIP3    H222686   2.244   1.810   2.836 -0.9055  0.1799 -0.6532
  351TIP3   OH222687   1.852   4.660   0.939 -0.1140 -0.3392 -0.6561
  351TIP3    H122688   1.766   4.638   0.977  0.7357 -1.8982  0.5097
  351TIP3    H222689   1.849   4.754   0.926 -1.7678 -0.2648 -0.0001
  352TIP3   OH222690   5.737   5.873   2.692  0.3916  0.5797  0.3375
  352TIP3    H122691   5.727   5.928   2.770 -1.4408  1.4794 -0.4631
  352TIP3    H222692   5.712   5.785   2.720 -2.6046  1.3053  0.3285
  353TIP3   OH222693   0.451   0.592   7.846 -0.3982  0.3781  0.3009
  353TIP3    H122694   0.490   0.531   7.909  1.7470 -0.5507 -1.7539
  353TIP3    H222695   0.357   0.572   7.848 -0.1632 -0.7763  1.9268
  354TIP3   OH222696   3.914   6.606   1.221 -0.2169  0.0060 -0.4084
  354TIP3    H122697   3.995   6.649   1.194 -0.6130  0.5810 -0.6869
  354TIP3    H222698   3.879   6.662   1.290 -0.6683  0.0593 -0.6791
  355TIP3   OH222699   2.053   1.707   8.323 -0.1211 -0.1552 -0.0461
  355TIP3    H122700   2.135   1.722   8.369  0.4114 -0.1234 -0.9931
  355TIP3    H222701   2.062   1.621   8.283 -0.1537  0.2457 -0.9489
  356TIP3   OH222702   1.639   6.814   7.792  0.1741  0.3860  0.8447
  356TIP3    H122703   1.562   6.762   7.769  1.3738 -1.5261  0.9790
  356TIP3    H222704   1.682   6.832   7.709  1.8565 -2.3090  1.0086
  357TIP3   OH222705   1.631   2.053   7.610 -0.0349  0.2730 -1.2703
  357TIP3    H122706   1.636   2.049   7.705 -0.5744  1.2379 -1.1877
  357TIP3    H222707   1.646   2.145   7.588 -0.2135  0.1188 -2.0988
  358TIP3   OH222708   0.622   2.765   0.476 -0.1431 -0.1137  0.2131
  358TIP3    H122709   0.654   2.678   0.500  0.6654  0.4374  1.1934
  358TIP3    H222710   0.674   2.790   0.400 -0.2144 -0.3842  0.0731
  359TIP3   OH222711   5.936   3.406   0.259 -0.0931  0.7292 -0.3114
  359TIP3    H122712   5.987   3.327   0.276 -1.2490  0.3241  1.5809
  359TIP3    H222713   5.992   3.477   0.291  0.4359  0.5767 -0.8757
  360TIP3   OH222714   6.653   2.421   7.248 -0.0927  0.3518  0.1944
  360TIP3    H122715   6.657   2.355   7.180  0.8131  1.2455 -0.6531
  360TIP3    H222716   6.642   2.504   7.201 -0.3700  0.8966  1.1846
  361TIP3   OH222717   1.426   4.065   0.212 -1.0346 -0.2976  0.0861
  361TIP3    H122718   1.461   4.112   0.137  1.7398 -1.5749  0.4557
  361TIP3    H222719   1.337   4.099   0.223 -0.9439  1.0889 -2.7354
  362TIP3   OH222720   1.696   5.679   8.192  0.3690  0.0370 -0.3973
  362TIP3    H122721   1.695   5.619   8.117 -0.1674 -1.3347  0.6830
  362TIP3    H222722   1.611   5.667   8.234  0.9374  0.2551  0.8556
  363TIP3   OH222723   4.933   1.346   2.130  0.0124 -0.1989 -0.6301
  363TIP3    H122724   4.988   1.278   2.168 -0.4015  0.7555  1.8279
  363TIP3    H222725   4.857   1.299   2.094  0.9115 -1.2158 -1.2483
  364TIP3   OH222726   1.565   6.814   2.655  0.4732  0.1757 -0.0106
  364TIP3    H122727   1.507   6.753   2.608  0.0737  1.6105 -1.4591
  364TIP3    H222728   1.652   6.791   2.623  0.2496  0.8356 -1.1595
  365TIP3   OH222729   1.722   1.593   2.342 -0.9740  0.5017 -0.3342
  365TIP3    H122730   1.794   1.540   2.376 -2.6606 -1.9084 -0.2896
  365TIP3    H222731   1.687   1.639   2.419 -2.1587 -1.7124  0.5431
  366TIP3   OH222732   0.893   2.938   6.868  0.0386  0.3081  0.1065
  366TIP3    H122733   0.945   2.996   6.812  1.0247  0.1045  0.7803
  366TIP3    H222734   0.805   2.942   6.831  0.6909  0.0075 -1.5951
  367TIP3   OH222735   2.196   1.552   8.016  0.8074 -0.2537 -0.4630
  367TIP3    H122736   2.288   1.572   7.996  0.6789  2.0768  0.9289
  367TIP3    H222737   2.147   1.596   7.946  0.6804  1.0059  0.3847
  368TIP3   OH222738   1.087   4.302   0.900 -0.1379 -0.2555 -0.3521
  368TIP3    H122739   1.010   4.250   0.920 -1.2507  1.4650  0.0513
  368TIP3    H222740   1.159   4.257   0.945 -0.7839 -2.1271 -1.1043
  369TIP3   OH222741   0.676   6.464   1.055  0.2007 -0.0058  0.0588
  369TIP3    H122742   0.626   6.526   1.001  0.9032  0.6638  0.1531
  369TIP3    H222743   0.673   6.382   1.006 -2.8882 -0.6673  1.1188
  370TIP3   OH222744   2.624   6.628   8.209  0.1609  0.5324  0.1586
  370TIP3    H122745   2.648   6.541   8.178 -3.1696  0.2262 -2.0254
  370TIP3    H222746   2.601   6.615   8.301  2.1697 -0.3007  0.5869
  371TIP3   OH222747   1.062   4.100   2.095 -0.4307 -0.2178  0.0541
  371TIP3    H122748   1.134   4.133   2.042  0.0485 -1.5090 -0.1329
  371TIP3    H222749   1.049   4.167   2.162  1.8726 -0.5719  0.9353
  372TIP3   OH222750   3.956   1.309   0.197 -0.1788  0.0265 -0.0434
  372TIP3    H122751   3.949   1.386   0.253 -0.5360 -0.9970  1.3821
  372TIP3    H222752   4.050   1.291   0.191 -0.0547  0.8761 -0.8509
  373TIP3   OH222753   4.628   2.384   0.825  0.2696 -0.1719  0.0922
  373TIP3    H122754   4.710   2.359   0.782  0.5258  2.8865 -1.4394
  373TIP3    H222755   4.652   2.394   0.918  1.3389 -0.4298 -0.1411
  374TIP3   OH222756   2.310   1.208   8.427  0.3815  0.1474 -1.0927
  374TIP3    H122757   2.364   1.234   8.502 -0.5083  1.9228 -0.9924
  374TIP3    H222758   2.372   1.187   8.358  1.2153 -1.2036  0.0288
  375TIP3   OH222759   4.816   6.598   1.380 -0.7638 -0.4637  0.1032
  375TIP3    H122760   4.736   6.565   1.338 -0.6773  0.9048 -1.1681
  375TIP3    H222761   4.790   6.682   1.418  0.2964  0.5101 -1.2396
  376TIP3   OH222762   2.930   0.823   7.810  0.1274  0.0874 -0.4766
  376TIP3    H122763   2.919   0.848   7.718  0.2258  1.3807 -0.1621
  376TIP3    H222764   2.959   0.904   7.853  0.9797 -0.7336  0.5294
  377TIP3   OH222765   0.924   5.737   7.665  0.1357 -0.0269  0.4781
  377TIP3    H122766   1.003   5.749   7.718 -1.4909  3.1406  2.4770
  377TIP3    H222767   0.933   5.799   7.593  0.7071 -1.8093 -1.0875
  378TIP3   OH222768   3.626   0.876   2.795 -0.2158  0.5131  0.1444
  378TIP3    H122769   3.672   0.867   2.712 -0.1542  3.0689 -0.1745
  378TIP3    H222770   3.690   0.851   2.862  0.1805 -0.2034 -0.4968
  379TIP3   OH222771   6.154   5.993   0.818 -0.1775 -0.4671 -0.2118
  379TIP3    H122772   6.065   6.028   0.826 -0.4761 -0.9970 -1.0689
  379TIP3    H222773   6.143   5.898   0.831  0.4256 -0.4175  0.7545
  380TIP3   OH222774   2.419   0.692   0.873  0.4861  0.0866  0.1532
  380TIP3    H122775   2.511   0.681   0.899  0.6274  1.3856  0.2673
  380TIP3    H222776   2.375   0.617   0.912  1.5679 -0.8107 -0.2828
  381TIP3   OH222777   4.541   4.165   0.534  0.1874  0.1845  0.2457
  381TIP3    H122778   4.577   4.232   0.476 -1.3680  1.0341  0.2200
  381TIP3    H222779   4.475   4.210   0.587  1.4455 -0.5889  2.6422
  382TIP3   OH222780   5.793   3.202   2.627 -0.6912  0.1158 -0.2358
  382TIP3    H122781   5.817   3.135   2.691 -1.2310  0.5127  0.3993
  382TIP3    H222782   5.720   3.165   2.579 -2.8883  1.2502  1.9787
  383TIP3   OH222783   4.838   4.534   6.916 -0.0690 -0.5777 -0.0538
  383TIP3    H122784   4.798   4.522   6.830 -0.2730  0.9098 -0.2029
  383TIP3    H222785   4.929   4.504   6.906 -0.6093 -2.2087 -0.2337
  384TIP3   OH222786   5.233   3.629   8.091  0.1763  0.0712 -0.2027
  384TIP3    H122787   5.307   3.571   8.074  0.0547 -1.0271  2.5180
  384TIP3    H222788   5.268   3.698   8.147 -0.4633  0.6112 -0.4540
  385TIP3   OH222789   6.405   0.178   7.942 -0.3042 -0.2571 -0.2777
  385TIP3    H122790   6.469   0.120   7.982 -1.1243 -0.7624  0.3247
  385TIP3    H222791   6.413   0.161   7.848  1.3187  0.6139 -0.3387
  386TIP3   OH222792   2.224   5.323   2.462 -0.2661  0.2381  0.6080
  386TIP3    H122793   2.222   5.288   2.373 -0.9489  1.5394  0.0831
  386TIP3    H222794   2.175   5.405   2.457  0.7299  0.9686  1.9089
  387TIP3   OH222795   5.841   5.419   1.943 -0.5442 -0.0244  0.0592
  387TIP3    H122796   5.934   5.443   1.937 -0.3601 -0.2444  1.4716
  387TIP3    H222797   5.808   5.426   1.854  0.9621 -0.4813 -0.5671
  388TIP3   OH222798   3.500   0.804   1.536  0.3392 -0.4232 -0.1812
  388TIP3    H122799   3.524   0.800   1.444  0.6227 -1.1461 -0.0843
  388TIP3    H222800   3.407   0.782   1.537 -0.0544  1.1351 -0.4349
  389TIP3   OH222801   0.890   3.882   2.199  0.3858 -0.3031 -0.7491
  389TIP3    H122802   0.822   3.850   2.139 -0.8346 -2.0157  1.4231
  389TIP3    H222803   0.921   3.962   2.158 -1.2722 -0.7043 -3.0215
  390TIP3   OH222804   3.024   6.437   6.907  0.0821  0.1188  0.3627
  390TIP3    H122805   3.057   6.429   6.817  0.2957  1.6679  0.2769
  390TIP3    H222806   2.936   6.474   6.897 -0.4964 -1.1208  0.7400
  391TIP3   OH222807   0.903   1.507   0.922 -0.5858  0.2910  0.7168
  391TIP3    H122808   0.820   1.484   0.881  0.3869 -1.6130 -0.3301
  391TIP3    H222809   0.942   1.571   0.863  0.8447 -2.4916 -1.6475
  392TIP3   OH222810   1.700   3.209   1.000 -0.0120  0.1837 -0.2935
  392TIP3    H122811   1.615   3.165   1.000 -0.3425  0.7989  0.5525
  392TIP3    H222812   1.694   3.275   0.932  0.0298 -0.2073 -0.6829
  393TIP3   OH222813   3.165   1.703   1.620 -0.0385  0.3033  0.2234
  393TIP3    H122814   3.199   1.617   1.595  1.0976  0.7800  0.0811
  393TIP3    H222815   3.185   1.712   1.713 -0.8785  0.1002  0.4381
  394TIP3   OH222816   5.987   0.856   7.654 -0.1047 -0.1502  0.3498
  394TIP3    H122817   6.031   0.909   7.587  0.3708 -0.7602  0.1647
  394TIP3    H222818   5.908   0.824   7.612  0.3355 -0.7659 -0.0332
  395TIP3   OH222819   5.192   2.345   0.843 -1.0241  0.9235  0.5059
  395TIP3    H122820   5.177   2.287   0.769 -0.0453  1.6282 -0.2631
  395TIP3    H222821   5.260   2.301   0.895 -0.7714  1.0561  0.2873
  396TIP3   OH222822   0.065   6.245   2.111  0.4322  0.0288  0.1161
  396TIP3    H122823   0.088   6.157   2.139  2.1493  0.5248  0.3438
  396TIP3    H222824   0.148   6.291   2.101 -0.3020  1.0829 -1.8792
  397TIP3   OH222825   3.669   5.414   1.023 -0.0679 -0.5125 -0.1553
  397TIP3    H122826   3.664   5.502   0.986 -0.7461 -0.1003  0.8561
  397TIP3    H222827   3.749   5.416   1.077 -0.8157 -0.0346  0.9836
  398TIP3   OH222828   2.768   1.060   8.436 -0.1009  0.1766  0.1701
  398TIP3    H122829   2.828   0.986   8.444 -0.0160  0.2279  0.0038
  398TIP3    H222830   2.750   1.066   8.343 -0.3693  0.1586  0.2199
  399TIP3   OH222831   3.073   2.959   8.230 -0.0421 -0.5193  0.1146
  399TIP3    H122832   3.065   2.865   8.242  0.4334 -0.4690  0.8700
  399TIP3    H222833   3.013   2.979   8.159  0.2294 -1.4664 -0.4020
  400TIP3   OH222834   4.014   5.270   1.662  0.7590  0.0935  0.7513
  400TIP3    H122835   4.011   5.177   1.639  1.5549 -0.0251  1.0975
  400TIP3    H222836   3.940   5.309   1.615  0.1400 -0.7926  0.9730
  401TIP3   OH222837   0.776   3.195   1.612 -0.3450 -0.0290  0.5982
  401TIP3    H122838   0.858   3.147   1.620  0.3762  1.2898  1.4110
  401TIP3    H222839   0.762   3.236   1.698 -0.4071  1.9830 -0.3026
  402TIP3   OH222840   5.655   0.164   2.622 -0.0594  0.2779 -0.1749
  402TIP3    H122841   5.582   0.107   2.598 -0.4132  1.4591 -2.0770
  402TIP3    H222842   5.616   0.250   2.636  0.9817  1.1196 -2.0168
  403TIP3   OH222843   1.706   1.050   1.160  0.1101 -0.5106 -0.0392
  403TIP3    H122844   1.614   1.048   1.184  0.4022 -1.5029  1.1133
  403TIP3    H222845   1.711   1.110   1.085 -0.9274  2.6344  2.1764
  404TIP3   OH222846   2.551   1.074   7.278 -0.0055  0.2855  0.4634
  404TIP3    H122847   2.497   1.074   7.198  1.5391 -2.5663 -0.7675
  404TIP3    H222848   2.528   0.992   7.321  0.1063  1.2037  2.3366
  405TIP3   OH222849   4.008   4.051   8.105  0.1619 -0.3267 -0.2026
  405TIP3    H122850   4.026   3.963   8.139  0.5086 -1.5712 -3.3137
  405TIP3    H222851   4.068   4.060   8.031 -2.7701  0.7953 -2.5888
  406TIP3   OH222852   3.587   6.257   2.279 -0.1883  0.1052  0.3565
  406TIP3    H122853   3.596   6.345   2.316 -0.9641  1.6676 -2.7565
  406TIP3    H222854   3.495   6.235   2.290 -0.3982  0.5281 -0.4655
  407TIP3   OH222855   4.439   0.810   0.806  0.6832  0.2974  0.4407
  407TIP3    H122856   4.444   0.730   0.754  0.6461  1.6807 -1.8606
  407TIP3    H222857   4.373   0.863   0.761  1.8917  2.2645  0.8865
  408TIP3   OH222858   0.554   1.516   1.989  0.1740 -0.4886 -0.1584
  408TIP3    H122859   0.565   1.436   1.938  0.6892  0.2161 -1.2020
  408TIP3    H222860   0.491   1.568   1.938  1.1197  0.4585 -0.3966
  409TIP3   OH222861   3.717   5.172   6.530 -0.2998  0.4236 -0.3136
  409TIP3    H122862   3.776   5.236   6.491  0.5834 -0.0264  0.2432
  409TIP3    H222863   3.684   5.121   6.456 -0.2809  0.9074 -0.6635
  410TIP3   OH222864   5.890   5.254   2.303 -0.1223 -0.0531 -0.4865
  410TIP3    H122865   5.896   5.316   2.376 -0.0485 -1.1436  0.4551
  410TIP3    H222866   5.921   5.171   2.339 -1.4331 -0.9500 -1.3436
  411TIP3   OH222867   3.025   2.476   0.888  0.1500 -0.1557 -0.1362
  411TIP3    H122868   2.966   2.494   0.816 -0.6913  0.9284  0.7837
  411TIP3    H222869   3.059   2.562   0.913  1.7388 -0.6991 -0.3220
  412TIP3   OH222870   2.482   1.359   7.748 -0.1886 -0.1126  0.1980
  412TIP3    H122871   2.523   1.331   7.830  0.4191  0.6192  0.1523
  412TIP3    H222872   2.435   1.281   7.717 -0.5098 -0.3648  1.2866
  413TIP3   OH222873   5.454   5.359   0.534  0.5788  0.0880 -0.2121
  413TIP3    H122874   5.373   5.361   0.483  2.0715  0.5006 -2.7551
  413TIP3    H222875   5.432   5.403   0.616 -1.4169  1.4435 -1.3810
  414TIP3   OH222876   6.091   5.512   8.301 -0.0724 -0.1941 -0.9655
  414TIP3    H122877   6.083   5.605   8.279 -0.1292 -0.3394 -1.6040
  414TIP3    H222878   6.028   5.498   8.371 -1.0464 -0.0312 -1.7832
  415TIP3   OH222879   2.011   3.686   0.379  0.2672 -0.1138  0.3579
  415TIP3    H122880   1.963   3.705   0.298 -1.8360 -0.5733  1.4203
  415TIP3    H222881   1.959   3.728   0.448  1.1367 -1.0648  1.6417
  416TIP3   OH222882   2.271   4.987   0.912 -0.4004 -0.2058 -0.0188
  416TIP3    H122883   2.336   5.049   0.879 -0.0233  0.3088  1.6243
  416TIP3    H222884   2.188   5.035   0.909 -0.3387 -0.1007 -0.0351
  417TIP3   OH222885   1.902   1.978   0.121 -0.3203  0.0457  0.0737
  417TIP3    H122886   1.944   2.064   0.116  0.9539 -0.5963 -0.9849
  417TIP3    H222887   1.836   1.979   0.052 -0.3938  0.2082  0.1452
  418TIP3   OH222888   4.253   1.259   0.195 -0.1241  0.0046 -0.2628
  418TIP3    H122889   4.323   1.323   0.179 -0.3623  0.2483 -0.3359
  418TIP3    H222890   4.288   1.177   0.160 -0.6255  0.5131 -2.1081
  419TIP3   OH222891   3.563   5.758   1.637 -0.4413  0.9848  0.2178
  419TIP3    H122892   3.648   5.780   1.600 -0.6317  0.4093 -0.5722
  419TIP3    H222893   3.567   5.791   1.727  1.0730 -0.1240  0.6056
  420TIP3   OH222894   2.531   4.684   6.775  0.3916 -0.1093 -0.5801
  420TIP3    H122895   2.579   4.697   6.694  2.5415 -0.9439  0.4696
  420TIP3    H222896   2.520   4.772   6.811  0.9222  0.1239 -0.9720
  421TIP3   OH222897   3.719   1.676   0.861 -0.0848 -0.2186  0.2446
  421TIP3    H122898   3.760   1.641   0.940  0.5341 -0.7202 -0.2890
  421TIP3    H222899   3.627   1.687   0.885  0.0735 -0.4824  0.9964
  422TIP3   OH222900   1.969   1.357   0.610  0.1309 -0.3406  0.2874
  422TIP3    H122901   1.894   1.353   0.669 -0.7765 -1.5508 -0.8961
  422TIP3    H222902   1.931   1.357   0.522  1.4653  0.7817 -0.3366
  423TIP3   OH222903   1.224   4.461   1.194  0.4747 -0.2887 -0.2051
  423TIP3    H122904   1.220   4.521   1.119 -1.3474  0.3220  0.3403
  423TIP3    H222905   1.203   4.375   1.157 -1.4692  0.1737 -0.2595
  424TIP3   OH222906   5.772   6.073   7.857  0.8257  0.3637  0.1558
  424TIP3    H122907   5.798   6.162   7.835  1.8133  0.0206 -0.1368
  424TIP3    H222908   5.716   6.046   7.784 -0.6600  1.2108  0.9332
  425TIP3   OH222909   6.203   1.120   2.447  0.0717  0.1666  0.1063
  425TIP3    H122910   6.215   1.117   2.352  1.4057  1.5879  0.1893
  425TIP3    H222911   6.130   1.181   2.460 -0.0616  0.0293  0.0079
  426TIP3   OH222912   1.525   6.290   0.667 -0.1798 -0.3524  0.6977
  426TIP3    H122913   1.442   6.281   0.620  0.3136  0.2256 -0.3205
  426TIP3    H222914   1.589   6.309   0.599  0.5492  0.5842  1.6128
  427TIP3   OH222915   5.136   4.823   6.207 -0.5216  0.3448  0.0235
  427TIP3    H122916   5.116   4.747   6.151  0.5932 -0.3524  0.5302
  427TIP3    H222917   5.071   4.889   6.181 -1.4536 -0.7300 -0.5117
  428TIP3   OH222918   0.320   1.355   7.316 -0.9581  0.0467 -0.0914
  428TIP3    H122919   0.360   1.270   7.299 -1.5483 -0.1086 -0.7099
  428TIP3    H222920   0.393   1.417   7.310 -0.6952 -0.3060 -0.6021
  429TIP3   OH222921   4.662   4.242   6.072 -0.2878 -0.3958  0.5178
  429TIP3    H122922   4.650   4.251   6.167  0.2290  0.0316  0.5479
  429TIP3    H222923   4.636   4.327   6.037  1.3117  0.1111  0.4658
  430TIP3   OH222924   3.430   6.028   1.486  0.3356 -0.0795  0.0637
  430TIP3    H122925   3.500   5.963   1.483 -0.3708 -0.8640  0.2869
  430TIP3    H222926   3.411   6.039   1.580 -1.2112 -1.3906 -0.0671
  431TIP3   OH222927   4.899   6.781   1.721  0.0888  0.1655 -0.2840
  431TIP3    H122928   4.818   6.760   1.676 -1.5997  2.6912  1.2919
  431TIP3    H222929   4.928   6.864   1.683  0.8318  0.2832  0.4830
  432TIP3   OH222930   0.031   4.641   7.101  0.0488 -0.0085  0.2304
  432TIP3    H122931   0.112   4.590   7.096 -0.1224 -0.3086  0.5049
  432TIP3    H222932  -0.005   4.638   7.013  0.7347  0.7901 -0.1004
  433TIP3   OH222933   4.225   5.746   0.893  0.1738 -0.6488 -0.5553
  433TIP3    H122934   4.226   5.835   0.926  1.8282 -0.9895  0.3995
  433TIP3    H222935   4.176   5.696   0.958 -0.6597 -0.4781 -1.0365
  434TIP3   OH222936   4.669   2.785   0.799  0.3193 -0.2074  0.5246
  434TIP3    H122937   4.619   2.757   0.876 -0.1706 -0.3174  0.1713
  434TIP3    H222938   4.716   2.706   0.770 -1.3573 -0.8182 -0.6985
  435TIP3   OH222939   2.003   5.985   0.145 -0.1407  0.0103 -0.1770
  435TIP3    H122940   1.967   5.945   0.067  0.6638 -0.7972 -0.1426
  435TIP3    H222941   2.010   6.078   0.124 -0.6293 -0.0909 -0.7853
  436TIP3   OH222942   5.354   3.268   8.152 -0.4634  0.3852 -0.1156
  436TIP3    H122943   5.347   3.187   8.102 -0.7044 -0.6903  1.5466
  436TIP3    H222944   5.399   3.329   8.095 -0.4709 -0.8589 -1.4975
  437TIP3   OH222945   1.452   5.607   8.389 -0.0873  0.1357 -0.0297
  437TIP3    H122946   1.392   5.552   8.339 -1.3392  0.6329  0.8964
  437TIP3    H222947   1.407   5.691   8.398  0.1568  0.1053  1.8103
  438TIP3   OH222948   3.450   5.410   2.879  0.4854  0.0323  0.0609
  438TIP3    H122949   3.503   5.394   2.801  0.7259 -1.1039  0.4465
  438TIP3    H222950   3.377   5.348   2.871  0.3424  0.1321  0.5757
  439TIP3   OH222951   4.685   0.752   8.286 -0.1392  0.4576  0.1402
  439TIP3    H122952   4.639   0.753   8.202  0.6118  0.3774 -0.2747
  439TIP3    H222953   4.769   0.710   8.267  0.1968  0.8001  0.8464
  440TIP3   OH222954   4.185   2.817   7.365 -0.1385 -0.0874 -0.0854
  440TIP3    H122955   4.258   2.827   7.303 -0.7131  0.5551 -0.6794
  440TIP3    H222956   4.163   2.906   7.391  1.0143 -0.3842  2.1916
  441TIP3   OH222957   0.582   1.272   3.131  0.5717 -0.5294  0.0255
  441TIP3    H122958   0.534   1.353   3.112 -0.9587 -1.2424  0.6820
  441TIP3    H222959   0.535   1.205   3.082  0.6598 -1.3218  1.0119
  442TIP3   OH222960   4.063   4.982   1.708  0.2882  0.5934 -0.1631
  442TIP3    H122961   4.042   4.907   1.764 -0.4488 -0.4791 -1.8071
  442TIP3    H222962   4.158   4.979   1.699  0.2844 -0.0788 -0.0872
  443TIP3   OH222963   5.527   1.207   1.045 -0.1433 -0.3985 -0.0591
  443TIP3    H122964   5.602   1.209   0.986  0.0148  1.9953  0.1137
  443TIP3    H222965   5.535   1.287   1.097 -2.3678 -0.4887  0.5359
  444TIP3   OH222966   0.632   3.904   0.411 -0.1265  0.0558  0.0348
  444TIP3    H122967   0.584   3.986   0.395 -0.2176 -0.1062 -0.5476
  444TIP3    H222968   0.603   3.845   0.341 -0.4312 -0.6392  0.7269
  445TIP3   OH222969   6.392   1.541   1.332 -0.2356  0.2582  0.6225
  445TIP3    H122970   6.457   1.592   1.380  0.6754 -0.4473  0.1858
  445TIP3    H222971   6.408   1.450   1.359  0.0837 -0.1151 -0.7404
  446TIP3   OH222972   5.856   3.975   6.987  0.1654 -0.0795 -0.0315
  446TIP3    H122973   5.837   3.892   6.942 -2.4916 -1.0609  2.5273
  446TIP3    H222974   5.940   3.960   7.030  0.3632 -0.9384 -0.6884
  447TIP3   OH222975   4.574   2.562   0.345 -0.0134  0.3646 -0.2096
  447TIP3    H122976   4.573   2.473   0.381  0.6342  0.1646 -0.6693
  447TIP3    H222977   4.532   2.616   0.412  1.7470  0.1234  1.1482
  448TIP3   OH222978   5.043   4.545   2.682 -0.0440  0.5183 -0.2860
  448TIP3    H122979   4.979   4.474   2.668 -1.3192  1.8772 -1.6736
  448TIP3    H222980   5.109   4.531   2.615 -0.2230  0.5497 -0.4716
  449TIP3   OH222981   4.335   1.191   1.257 -0.6495  0.0283  0.0692
  449TIP3    H122982   4.273   1.157   1.191 -1.4118  1.2531  0.1345
  449TIP3    H222983   4.339   1.285   1.240  2.9318 -0.2387 -1.3869
  450TIP3   OH222984   3.169   4.219   1.923 -0.2254  0.2336  0.1078
  450TIP3    H122985   3.171   4.311   1.896  0.1657  0.0123 -0.6580
  450TIP3    H222986   3.219   4.174   1.855  0.7425 -0.3657  1.1871
  451TIP3   OH222987   1.327   2.392   1.897  0.4272  0.3505 -0.1438
  451TIP3    H122988   1.341   2.334   1.822 -0.2272  0.6156 -0.4866
  451TIP3    H222989   1.399   2.372   1.957 -1.0518 -2.5960  0.8787
  452TIP3   OH222990   4.608   3.570   0.992  0.0755 -0.7130 -0.3213
  452TIP3    H122991   4.619   3.536   1.080  0.8774 -1.4674 -0.6921
  452TIP3    H222992   4.668   3.644   0.987 -0.1778 -0.4968 -0.1430
  453TIP3   OH222993   3.836   5.114   1.188  0.2688  0.6739  0.2146
  453TIP3    H122994   3.769   5.153   1.244  0.2031  1.8831 -0.6741
  453TIP3    H222995   3.878   5.048   1.243 -0.3891  1.2095  1.3888
  454TIP3   OH222996   2.075   4.709   8.146  0.1077  0.1318  0.3716
  454TIP3    H122997   2.066   4.714   8.051  1.2873  1.1661  0.2913
  454TIP3    H222998   2.155   4.657   8.160 -0.9837 -1.5151  0.8642
  455TIP3   OH222999   4.724   3.359   1.474 -0.1127 -0.2909  0.6318
  455TIP3    H123000   4.771   3.399   1.547  1.0905 -1.6991  0.6865
  455TIP3    H223001   4.690   3.277   1.510 -1.3272 -0.0161  0.1572
  456TIP3   OH223002   2.597   5.843   6.063  0.5334  0.0937  0.1701
  456TIP3    H123003   2.548   5.765   6.037  0.0428  0.7142 -0.7888
  456TIP3    H223004   2.644   5.816   6.142 -0.1670 -0.9645  0.2403
  457TIP3   OH223005   5.226   1.106   8.130  0.0483 -0.1710 -0.2732
  457TIP3    H123006   5.193   1.161   8.201 -2.9049  1.0661 -2.4122
  457TIP3    H223007   5.275   1.166   8.074 -3.4013  0.5973 -2.7526
  458TIP3   OH223008   1.815   3.600   1.929 -0.2116  0.1121 -0.0229
  458TIP3    H123009   1.830   3.634   2.017  2.6083  1.0190 -0.7402
  458TIP3    H223010   1.890   3.543   1.913 -1.3361 -1.0532 -1.3983
  459TIP3   OH223011   1.593   3.062   1.779 -0.2857 -0.1750  0.4477
  459TIP3    H123012   1.513   3.008   1.781 -0.2300 -0.4530 -2.0961
  459TIP3    H223013   1.664   2.999   1.764  0.1170  0.3426  0.1521
  460TIP3   OH223014   3.183   0.325   7.797  0.1096  0.5588 -0.1672
  460TIP3    H123015   3.114   0.362   7.852  0.9704  0.5761  0.9173
  460TIP3    H223016   3.222   0.401   7.753 -2.1251  0.3835 -2.7594
  461TIP3   OH223017   3.798   1.587   1.097  0.0674  0.0520 -0.0822
  461TIP3    H123018   3.719   1.599   1.150 -0.1994 -1.1790 -0.1615
  461TIP3    H223019   3.870   1.610   1.155 -0.1990 -1.6549  0.9872
  462TIP3   OH223020   4.928   6.349   7.916  0.1236  0.5721 -0.4763
  462TIP3    H123021   4.984   6.274   7.899  0.2385  0.4568  0.3948
  462TIP3    H223022   4.891   6.333   8.003 -1.4083  0.5593 -1.0988
  463TIP3   OH223023   5.438   6.094   8.263 -0.4545  0.1268 -0.2508
  463TIP3    H123024   5.379   6.092   8.339 -1.0313 -0.0695 -0.7007
  463TIP3    H223025   5.526   6.103   8.301 -0.8895  2.3261  0.3958
  464TIP3   OH223026   5.761   6.726   0.703 -0.2576 -0.3773 -0.0968
  464TIP3    H123027   5.755   6.687   0.616 -2.2870 -0.6044  0.0965
  464TIP3    H223028   5.790   6.816   0.687 -2.4962  0.2076 -1.2443
  465TIP3   OH223029   0.925   6.561   1.083  0.6295 -0.4671  0.1827
  465TIP3    H123030   0.966   6.547   0.998  2.3063 -0.4811  0.9466
  465TIP3    H223031   0.845   6.508   1.080  0.6555 -0.4630 -1.3583
  466TIP3   OH223032   4.609   4.352   0.359 -0.2161 -0.3067 -0.2433
  466TIP3    H123033   4.642   4.407   0.288 -0.5765 -2.0564 -1.8310
  466TIP3    H223034   4.522   4.326   0.331 -0.2164 -1.3428  0.6656
  467TIP3   OH223035   1.780   5.740   2.241 -1.0332 -0.0238  0.3889
  467TIP3    H123036   1.729   5.668   2.279 -0.8217  0.0838  0.8942
  467TIP3    H223037   1.853   5.751   2.302 -0.2057 -0.4198 -0.5097
  468TIP3   OH223038   0.816   3.578   8.091 -0.6407  0.2467 -0.0713
  468TIP3    H123039   0.780   3.652   8.041 -2.2924  1.1815  2.2922
  468TIP3    H223040   0.807   3.605   8.183  3.0578 -0.9810  0.8261
  469TIP3   OH223041   5.923   2.003   0.357 -0.2799  0.0366 -0.2215
  469TIP3    H123042   5.991   2.059   0.394 -2.6110  1.7540  1.8902
  469TIP3    H223043   5.909   2.036   0.268  1.8582 -0.6565 -0.8580
  470TIP3   OH223044   0.590   2.871   7.044  0.5284  0.1553  0.0465
  470TIP3    H123045   0.498   2.886   7.067  0.8258  1.1692  0.6887
  470TIP3    H223046   0.597   2.898   6.953  0.3450  0.8344  0.2268
  471TIP3   OH223047   0.213   2.468   6.886  0.7992 -0.7456  0.3760
  471TIP3    H123048   0.270   2.395   6.911 -0.9622 -2.7565 -1.0409
  471TIP3    H223049   0.182   2.504   6.969  0.2793 -2.8559  1.1533
  472TIP3   OH223050   1.995   5.972   1.896  0.5343  0.2230  0.0469
  472TIP3    H123051   1.921   5.929   1.939  1.0082 -0.0053  0.6281
  472TIP3    H223052   1.983   5.951   1.803 -0.4998  0.7404  0.0495
  473TIP3   OH223053   5.048   5.637   6.996  0.3922  0.3999 -0.6325
  473TIP3    H123054   5.134   5.655   6.959 -0.3607  3.9251 -1.0965
  473TIP3    H223055   5.001   5.591   6.927  1.7319 -1.2175 -0.5090
  474TIP3   OH223056   6.352   4.341   8.221 -0.2824 -0.0290 -0.5350
  474TIP3    H123057   6.378   4.433   8.220 -1.3598  0.2942 -0.3183
  474TIP3    H223058   6.372   4.309   8.133 -0.8639  0.6964 -0.9348
  475TIP3   OH223059   6.063   5.409   8.010 -0.0597  0.1028  0.2609
  475TIP3    H123060   6.054   5.454   8.094 -1.1843  0.7294 -0.1823
  475TIP3    H223061   5.989   5.348   8.007  0.2796 -0.3031 -0.0466
  476TIP3   OH223062   3.397   3.435   1.404  0.3136  0.0008 -0.0943
  476TIP3    H123063   3.457   3.386   1.459  2.8007  1.8599 -0.9737
  476TIP3    H223064   3.378   3.514   1.455  1.6185  1.1349 -1.3033
  477TIP3   OH223065   2.616   4.100   1.505  0.0657 -0.0283 -0.0652
  477TIP3    H123066   2.688   4.103   1.569 -1.4733  1.2199  1.7493
  477TIP3    H223067   2.555   4.036   1.541  0.1738 -0.9589 -1.4936
  478TIP3   OH223068   6.169   5.835   7.247 -0.0335  0.3764  0.1179
  478TIP3    H123069   6.265   5.841   7.242  0.0853 -0.0855  1.4034
  478TIP3    H223070   6.141   5.922   7.274 -0.1825  1.1124 -2.1969
  479TIP3   OH223071   1.822   0.729   8.434 -0.3246 -0.6530 -0.4393
  479TIP3    H123072   1.849   0.775   8.354  1.3348 -0.6944  0.0582
  479TIP3    H223073   1.882   0.655   8.440  1.4247  0.8411  2.2423
  480TIP3   OH223074   2.080   3.410   0.297 -0.3557  0.2693 -0.2734
  480TIP3    H123075   2.028   3.484   0.328 -1.1004 -0.2744 -0.1954
  480TIP3    H223076   2.055   3.338   0.356  2.0142  0.4823  1.1142
  481TIP3   OH223077   3.483   4.865   1.973  0.7822  0.5960  0.0941
  481TIP3    H123078   3.445   4.777   1.983  2.2256 -0.2995 -1.6202
  481TIP3    H223079   3.409   4.921   1.949  0.0923 -0.4964 -0.3975
  482TIP3   OH223080   3.405   4.566   6.614 -0.0468  0.1131  0.6163
  482TIP3    H123081   3.364   4.553   6.528 -1.6401 -1.2138  1.5242
  482TIP3    H223082   3.387   4.657   6.636 -0.4806  0.1910 -0.0329
  483TIP3   OH223083   3.732   5.278   7.773 -0.2277 -0.1059  0.7600
  483TIP3    H123084   3.637   5.278   7.760 -0.2232 -0.9554  0.6920
  483TIP3    H223085   3.751   5.192   7.809  0.5734 -0.0962  0.3750
  484TIP3   OH223086   1.507   3.786   1.501 -0.1299  0.0945 -0.4324
  484TIP3    H123087   1.485   3.875   1.529  1.4047 -0.3999  2.8972
  484TIP3    H223088   1.602   3.787   1.493 -0.2449 -0.8002 -2.3978
  485TIP3   OH223089   0.128   1.055   0.406  0.1445 -0.1301 -0.4354
  485TIP3    H123090   0.040   1.037   0.374  0.1773 -1.4925  0.1604
  485TIP3    H223091   0.181   1.066   0.327 -0.5692  0.8307 -0.7943
  486TIP3   OH223092   5.770   3.631   1.282 -0.3428 -0.4447  0.2494
  486TIP3    H123093   5.742   3.540   1.270 -0.7448 -0.2405 -0.4059
  486TIP3    H223094   5.753   3.673   1.197 -1.2331  0.5284  0.8788
  487TIP3   OH223095   1.823   0.179   1.896 -0.0804 -0.2829 -0.1666
  487TIP3    H123096   1.881   0.248   1.927 -0.0074 -0.4124 -0.0128
  487TIP3    H223097   1.881   0.115   1.855 -0.2007  0.0099 -0.8034
  488TIP3   OH223098   6.644   6.287   2.053  0.4330  0.5076  0.2925
  488TIP3    H123099   6.698   6.289   2.132  1.1486 -0.4983 -0.1477
  488TIP3    H223100   6.702   6.322   1.984  0.6278 -0.7692 -0.2254
  489TIP3   OH223101   2.802   2.089   0.233 -0.0334 -0.1761  0.6715
  489TIP3    H123102   2.762   2.176   0.222  0.9758  0.3546  1.0230
  489TIP3    H223103   2.749   2.031   0.178  1.5029  1.3349 -2.7354
  490TIP3   OH223104   5.427   4.752   0.812  0.0087  0.0250 -0.1194
  490TIP3    H123105   5.494   4.787   0.871  0.0964  1.8194 -1.2178
  490TIP3    H223106   5.368   4.827   0.796 -0.9765 -0.9013 -0.9520
  491TIP3   OH223107   5.350   2.407   0.343 -0.0991 -0.2666 -0.4318
  491TIP3    H123108   5.337   2.436   0.433 -1.8562  2.6422 -1.5060
  491TIP3    H223109   5.263   2.383   0.312  0.5353 -1.6189 -1.2912
  492TIP3   OH223110   4.628   3.925   7.917  0.5784  0.2950  0.2735
  492TIP3    H123111   4.552   3.926   7.975  0.0220 -0.5924 -0.4019
  492TIP3    H223112   4.592   3.934   7.830  1.3393  0.8269  0.0038
  493TIP3   OH223113   1.980   0.724   7.980  0.0742  0.4555 -0.6686
  493TIP3    H123114   1.914   0.747   8.046  1.4347 -1.6596  1.5695
  493TIP3    H223115   2.062   0.760   8.014  1.1726 -2.3670 -0.0054
  494TIP3   OH223116   1.542   3.332   1.325 -0.0663 -0.4872  0.4969
  494TIP3    H123117   1.513   3.241   1.333 -4.4739  0.4609 -1.6661
  494TIP3    H223118   1.528   3.369   1.412  0.1283 -1.4557  0.9576
  495TIP3   OH223119   5.377   5.375   1.311 -0.6398 -0.3227 -0.0639
  495TIP3    H123120   5.334   5.391   1.395 -0.1681  0.1937  0.0841
  495TIP3    H223121   5.456   5.325   1.334  0.3147  1.1410 -0.0058
  496TIP3   OH223122   5.310   5.404   2.127 -0.4570 -0.2529  0.4095
  496TIP3    H123123   5.271   5.404   2.039  0.4130 -0.5220  0.0136
  496TIP3    H223124   5.330   5.312   2.144  1.5045  0.0347 -0.0893
  497TIP3   OH223125   3.416   2.976   3.107  0.6229  0.1108 -0.5813
  497TIP3    H123126   3.488   2.985   3.170 -0.2231 -1.0409  0.6024
  497TIP3    H223127   3.458   2.983   3.022  1.6310  3.2570  0.0295
  498TIP3   OH223128   3.840   6.483   0.602 -0.2286  0.0019  0.4644
  498TIP3    H123129   3.923   6.490   0.555  0.0387 -0.8952  0.7957
  498TIP3    H223130   3.864   6.479   0.694 -0.7678  2.0142  0.7544
  499TIP3   OH223131   6.363   4.029   6.906  0.3970 -0.6351 -0.3251
  499TIP3    H123132   6.364   4.105   6.965  1.2436 -1.6595  1.0406
  499TIP3    H223133   6.442   4.039   6.853  1.0957 -1.0991  0.6037
  500TIP3   OH223134   0.663   2.196   0.468 -0.3702 -0.4961 -0.1001
  500TIP3    H123135   0.619   2.281   0.470  0.4171 -0.0730 -0.1432
  500TIP3    H223136   0.678   2.175   0.561  0.1595 -0.1866 -0.1078
  501TIP3   OH223137   1.003   0.322   2.992 -0.3584  0.1679 -0.0113
  501TIP3    H123138   0.996   0.417   3.003 -1.9282  0.0549  0.1551
  501TIP3    H223139   1.083   0.310   2.940 -0.3753  1.5998 -0.4158
  502TIP3   OH223140   0.004   2.052   1.680  0.6401 -0.4140 -0.8205
  502TIP3    H123141  -0.018   2.127   1.737 -0.3716 -0.4888 -1.0869
  502TIP3    H223142   0.091   2.025   1.708  0.2892 -0.2530  0.5063
  503TIP3   OH223143   2.481   2.235   2.015 -0.4528 -0.4209 -0.8705
  503TIP3    H123144   2.525   2.154   2.040 -1.0055 -0.7756 -1.0234
  503TIP3    H223145   2.387   2.216   2.027 -0.5150  0.8205  0.9369
  504TIP3   OH223146   5.903   6.555   7.399  0.1418  0.6364 -0.1149
  504TIP3    H123147   5.824   6.533   7.350  0.0010 -0.0140  0.3881
  504TIP3    H223148   5.918   6.480   7.456  1.6158  0.3775 -0.7944
  505TIP3   OH223149   3.739   2.099   8.007  0.2708  0.1460 -0.1044
  505TIP3    H123150   3.803   2.169   8.018  0.7378 -0.2988  0.1038
  505TIP3    H223151   3.744   2.076   7.915  0.4986  0.0391 -0.0676
  506TIP3   OH223152   3.153   3.621   2.480 -0.2142  0.2758  0.5119
  506TIP3    H123153   3.244   3.633   2.453 -0.6394  0.3630 -0.9480
  506TIP3    H223154   3.128   3.705   2.517 -0.2234  0.8214 -0.7035
  507TIP3   OH223155   3.910   6.785   3.019 -0.2253  0.1826  0.0995
  507TIP3    H123156   3.992   6.829   3.042  1.0090 -0.8566 -2.0371
  507TIP3    H223157   3.925   6.693   3.042 -0.7578 -0.0270 -0.3708
  508TIP3   OH223158   4.403   5.343   0.731 -0.6668  0.5421 -0.2722
  508TIP3    H123159   4.317   5.305   0.748 -0.4605 -0.0314 -0.4868
  508TIP3    H223160   4.430   5.305   0.647 -0.3224  0.9269 -0.3386
  509TIP3   OH223161   0.819   6.799   0.218  0.0596  0.3842 -0.5098
  509TIP3    H123162   0.751   6.841   0.165  0.1134  0.2806 -0.6633
  509TIP3    H223163   0.885   6.867   0.231  0.9782 -0.1286 -2.2243
  510TIP3   OH223164   1.370   6.346   8.348 -0.1565 -0.8250 -0.4996
  510TIP3    H123165   1.411   6.428   8.322  1.3695 -1.0621  1.0082
  510TIP3    H223166   1.395   6.284   8.279 -0.5241 -0.2795 -1.1444
  511TIP3   OH223167   4.227   5.594   2.022  0.0917 -0.2740 -0.2225
  511TIP3    H123168   4.171   5.667   2.048  0.0121 -0.2459 -0.4705
  511TIP3    H223169   4.176   5.516   2.043  0.9528 -0.3465  1.9089
  512TIP3   OH223170   5.703   5.668   0.781 -0.3883  0.0885  0.0954
  512TIP3    H123171   5.787   5.654   0.736  0.5175  1.7130  1.1748
  512TIP3    H223172   5.649   5.715   0.718 -0.0761  0.0482 -0.2024
  513TIP3   OH223173   0.812   0.079   8.508 -0.3027 -0.3612 -0.5230
  513TIP3    H123174   0.752   0.019   8.552 -1.8148 -0.7349 -2.9228
  513TIP3    H223175   0.886   0.024   8.482  0.0703 -0.3684  0.5135
  514TIP3   OH223176   5.555   0.486   0.947 -0.8858 -0.2492 -0.1672
  514TIP3    H123177   5.513   0.483   0.861  0.2262  1.4827 -0.8097
  514TIP3    H223178   5.489   0.523   1.005 -0.9790  0.4549 -0.7130
  515TIP3   OH223179   0.535   4.443   1.180 -0.0282 -0.5968 -0.2304
  515TIP3    H123180   0.598   4.430   1.108 -0.9945 -1.4650 -0.9539
  515TIP3    H223181   0.520   4.355   1.214  0.4417 -0.1895  1.0944
  516TIP3   OH223182   3.763   4.812   0.920 -0.0624  0.3352 -0.1199
  516TIP3    H123183   3.688   4.813   0.979 -0.8539  1.3419 -1.0858
  516TIP3    H223184   3.760   4.897   0.876  2.6513  1.1172  1.0226
  517TIP3   OH223185   6.748   3.202   8.116  0.6027  0.8838 -0.0871
  517TIP3    H123186   6.677   3.246   8.069 -1.9432 -1.1482  1.5857
  517TIP3    H223187   6.754   3.249   8.199  0.0917  0.0753  0.4125
  518TIP3   OH223188   5.813   3.598   0.951 -0.0733 -0.8557 -0.2735
  518TIP3    H123189   5.902   3.579   0.981  0.2927 -0.2091 -0.9304
  518TIP3    H223190   5.825   3.646   0.869 -1.0204 -0.4526 -0.1870
  519TIP3   OH223191   5.090   4.220   2.381  0.4284  0.8719  0.3490
  519TIP3    H123192   5.137   4.280   2.438 -0.2097  0.4512  1.3385
  519TIP3    H223193   5.021   4.274   2.341  0.2306  0.9352  0.7752
  520TIP3   OH223194   5.686   5.489   7.703  0.3838  0.3069  0.1737
  520TIP3    H123195   5.630   5.549   7.653 -0.4988 -0.3027  0.4018
  520TIP3    H223196   5.774   5.505   7.669  0.0879  1.3324 -0.1537
  521TIP3   OH223197   4.626   1.212   0.869  0.3252 -0.2231  0.0225
  521TIP3    H123198   4.644   1.226   0.776 -0.0823  0.6061  0.0589
  521TIP3    H223199   4.664   1.126   0.888  1.3792  0.0703 -0.6517
  522TIP3   OH223200   2.030   0.186   0.124 -0.7328 -0.1464 -0.4358
  522TIP3    H123201   2.041   0.156   0.214 -1.1881 -2.1069 -0.9907
  522TIP3    H223202   1.940   0.165   0.102 -0.8672  1.0418 -1.1252
  523TIP3   OH223203   3.571   2.233   0.565  0.1987  0.1407  0.0037
  523TIP3    H123204   3.660   2.230   0.601  0.0591  0.5488  0.3850
  523TIP3    H223205   3.574   2.306   0.503  0.4764 -0.6396 -0.9343
  524TIP3   OH223206   0.223   5.767   8.380 -0.3113 -0.2515 -0.4131
  524TIP3    H123207   0.230   5.747   8.287  0.4160  1.0220 -0.6615
  524TIP3    H223208   0.268   5.695   8.424  0.1769 -0.3746 -1.1027
  525TIP3   OH223209   0.846   4.760   7.572 -0.5269 -0.5444  0.2329
  525TIP3    H123210   0.764   4.805   7.552  0.3454  0.4931 -1.2072
  525TIP3    H223211   0.910   4.801   7.514  1.3004 -0.4270  2.2403
  526TIP3   OH223212   3.341   0.483   1.956 -0.3491  0.1516  0.1066
  526TIP3    H123213   3.287   0.475   2.035 -0.0776  0.9820  0.3890
  526TIP3    H223214   3.343   0.394   1.920  2.0482 -0.9981  2.6981
  527TIP3   OH223215   5.951   1.207   2.530 -0.2365  0.1991  0.8955
  527TIP3    H123216   5.967   1.267   2.603 -0.8399  2.5304 -0.7620
  527TIP3    H223217   5.857   1.216   2.513 -0.3118 -1.1429  0.4862
  528TIP3   OH223218   4.244   6.073   2.022  0.5186 -0.1397 -0.0569
  528TIP3    H123219   4.301   6.027   1.961 -0.7083  0.6176 -1.8581
  528TIP3    H223220   4.183   6.006   2.052 -0.6920  0.0327 -1.9700
  529TIP3   OH223221   1.583   0.619   8.313 -0.1718 -0.3602 -0.4908
  529TIP3    H123222   1.600   0.540   8.262  0.1359 -0.7853  0.2570
  529TIP3    H223223   1.665   0.668   8.310  0.3893 -1.1884  0.9857
  530TIP3   OH223224   2.009   1.583   7.257 -0.6604 -0.0874  0.1717
  530TIP3    H123225   2.058   1.605   7.178 -0.4809 -1.9532 -0.2767
  530TIP3    H223226   1.983   1.492   7.245 -2.2499  0.1571  1.4432
  531TIP3   OH223227   6.776   6.536   2.153 -0.3147  0.2669  0.3649
  531TIP3    H123228   6.834   6.596   2.108  0.4559 -0.0915  0.8644
  531TIP3    H223229   6.695   6.585   2.165  0.3702  1.2743  0.9498
  532TIP3   OH223230   0.542   1.259   8.143  0.1920 -0.1143 -0.2807
  532TIP3    H123231   0.501   1.330   8.192  0.3340  0.2150 -0.6426
  532TIP3    H223232   0.631   1.289   8.126  0.6849 -0.9220  0.7075
  533TIP3   OH223233   4.388   4.867   1.980 -0.1218  0.1590  0.0201
  533TIP3    H123234   4.473   4.857   2.022 -0.2207  0.5934  0.3314
  533TIP3    H223235   4.359   4.955   2.004  0.0982  0.6798 -1.4656
  534TIP3   OH223236   1.141   5.685   0.225  0.3214 -0.2007  0.0501
  534TIP3    H123237   1.137   5.710   0.133 -0.8413  2.4906  0.7286
  534TIP3    H223238   1.051   5.662   0.247  0.5604 -0.6671  0.5655
  535TIP3   OH223239   3.578   2.832   8.207 -0.5608 -0.2357 -0.4340
  535TIP3    H123240   3.525   2.898   8.163  1.1753  0.6511 -1.3060
  535TIP3    H223241   3.530   2.750   8.192 -3.0173  0.8049  1.1171
  536TIP3   OH223242   3.860   4.846   6.969  0.2071  0.0257  0.4332
  536TIP3    H123243   3.789   4.859   6.907 -0.5375  1.1080  1.4665
  536TIP3    H223244   3.847   4.914   7.035  1.6146 -0.3958  1.1830
  537TIP3   OH223245   1.174   4.574   0.946  0.3642 -0.0309  0.1779
  537TIP3    H123246   1.228   4.618   0.880  1.5263 -0.7407  0.6287
  537TIP3    H223247   1.129   4.504   0.898  0.0254  0.3977 -0.1448
  538TIP3   OH223248   6.150   3.571   0.355 -0.5070  0.1806  0.0927
  538TIP3    H123249   6.215   3.623   0.309 -0.4810 -0.0100 -0.0858
  538TIP3    H223250   6.140   3.615   0.440  0.2794 -0.1245  0.3525
  539TIP3   OH223251   4.662   1.861   1.119 -0.0085  0.3546  0.0392
  539TIP3    H123252   4.684   1.826   1.033 -0.3519  0.0074  0.0902
  539TIP3    H223253   4.734   1.833   1.175  0.2300  0.6052 -0.1420
  540TIP3   OH223254   5.178   5.892   1.199  0.2924 -0.2264 -0.0392
  540TIP3    H123255   5.089   5.918   1.224 -0.1514 -1.9275  0.2827
  540TIP3    H223256   5.186   5.802   1.232  1.7173 -0.5075 -1.0972
  541TIP3   OH223257   2.006   2.267   0.854  0.0572 -0.0835  0.3243
  541TIP3    H123258   2.062   2.331   0.899  1.5686 -2.5984  2.2981
  541TIP3    H223259   1.933   2.319   0.821  0.5262  2.4963  2.8957
  542TIP3   OH223260   4.198   1.173   8.389 -0.6687  0.2454 -0.0177
  542TIP3    H123261   4.200   1.119   8.310 -0.8036  0.5941 -0.2584
  542TIP3    H223262   4.269   1.138   8.443  0.0401  0.6225 -0.6953
  543TIP3   OH223263   6.243   2.526   2.570 -0.5554 -0.1395 -0.9843
  543TIP3    H123264   6.297   2.605   2.566 -1.5822  0.5663 -1.3192
  543TIP3    H223265   6.296   2.463   2.618  0.3666  0.6846 -0.8928
  544TIP3   OH223266   6.929   3.855   6.424  0.1455 -0.0543 -0.6471
  544TIP3    H123267   6.986   3.926   6.453 -0.8814 -0.7624  3.8627
  544TIP3    H223268   6.981   3.776   6.436  0.3972 -0.3318 -3.1439
  545TIP3   OH223269   2.767   1.007   8.137 -0.0136 -0.1782  0.5749
  545TIP3    H123270   2.793   0.940   8.074 -1.6319  0.3797 -0.7523
  545TIP3    H223271   2.802   1.089   8.100 -2.6402  0.4514 -0.7631
  546TIP3   OH223272   4.158   5.548   6.164 -0.1370  0.3473  0.6571
  546TIP3    H123273   4.083   5.491   6.147  1.6480 -1.3810 -2.5955
  546TIP3    H223274   4.211   5.499   6.227  0.4784 -0.8430 -0.7095
  547TIP3   OH223275   4.633   4.189   7.527  0.0893 -0.3790  0.3076
  547TIP3    H123276   4.594   4.201   7.441  0.0844 -0.0145  0.3577
  547TIP3    H223277   4.716   4.236   7.523 -0.5531  0.8714  0.9469
  548TIP3   OH223278   3.039   3.516   1.557  0.1209 -0.1360 -0.0734
  548TIP3    H123279   3.067   3.445   1.499 -0.1239 -0.2411 -0.0626
  548TIP3    H223280   2.960   3.550   1.516  0.8841  0.9244 -0.7340
  549TIP3   OH223281   0.081   3.522   8.043  0.2066  0.4642 -0.0600
  549TIP3    H123282   0.003   3.568   8.011 -1.8015 -1.9811  0.9064
  549TIP3    H223283   0.068   3.431   8.015  2.3454 -0.1621  0.8031
  550TIP3   OH223284   0.015   0.314   1.977  0.1957  0.2921  0.0947
  550TIP3    H123285   0.103   0.333   2.010 -0.3510  1.0569  1.2097
  550TIP3    H223286  -0.001   0.223   2.002  0.4995  0.2910  0.2876
  551TIP3   OH223287   3.476   4.450   7.794 -0.0542  0.2494 -0.0326
  551TIP3    H123288   3.467   4.363   7.756 -0.4444  0.1357  0.3108
  551TIP3    H223289   3.519   4.502   7.726 -0.9970  0.1245 -0.7576
  552TIP3   OH223290   6.157   3.352   7.949  0.2777  0.2294  0.0948
  552TIP3    H123291   6.128   3.349   7.858 -1.4650 -0.3457  0.6121
  552TIP3    H223292   6.233   3.409   7.949  2.0941 -1.9908 -2.1782
  553TIP3   OH223293   2.457   3.219   2.074 -0.2810 -0.6701  0.0154
  553TIP3    H123294   2.541   3.192   2.112  0.2984 -0.1942 -0.9132
  553TIP3    H223295   2.439   3.304   2.113 -1.6877 -1.9032  2.2833
  554TIP3   OH223296   6.646   4.415   7.695  0.1505 -0.5981  0.1050
  554TIP3    H123297   6.559   4.388   7.665  0.5519 -1.4813 -0.3015
  554TIP3    H223298   6.702   4.406   7.618  0.8497 -1.2115  0.6753
  555TIP3   OH223299   5.645   6.186   0.620  0.8651  0.1519  0.2679
  555TIP3    H123300   5.589   6.237   0.561  0.4658  0.1774  0.6621
  555TIP3    H223301   5.599   6.103   0.631  0.2366  0.6490  1.6183
  556TIP3   OH223302   0.288   2.604   0.159  0.8362 -0.0793  0.1362
  556TIP3    H123303   0.221   2.546   0.195  0.3424  0.1279 -0.4326
  556TIP3    H223304   0.261   2.692   0.187  1.5526 -0.1040  0.9506
  557TIP3   OH223305   4.153   4.000   1.329  0.0524  0.1193 -0.3881
  557TIP3    H123306   4.159   4.045   1.414 -0.8055  1.2927 -0.9286
  557TIP3    H223307   4.134   3.909   1.352 -1.2010  0.6132  0.6897
  558TIP3   OH223308   5.735   0.967   8.097 -0.3885  0.8300 -0.0449
  558TIP3    H123309   5.788   0.945   8.020 -0.0963  0.7085  0.1898
  558TIP3    H223310   5.645   0.951   8.069 -0.3953  2.0947 -0.8006
  559TIP3   OH223311   3.733   0.640   1.738  0.2248 -0.1529  0.1012
  559TIP3    H123312   3.642   0.652   1.713  1.0100  2.7152 -1.8787
  559TIP3    H223313   3.740   0.677   1.826 -0.4738 -0.2523  0.1978
  560TIP3   OH223314   4.394   3.137   1.591  0.4573 -0.5680  0.1865
  560TIP3    H123315   4.473   3.106   1.635  0.2527  0.6475  1.4831
  560TIP3    H223316   4.420   3.143   1.499  1.6079 -1.0038  0.4618
  561TIP3   OH223317   4.365   6.440   6.758  0.2812  0.3316 -0.0565
  561TIP3    H123318   4.443   6.466   6.709 -0.1394  0.2856 -0.7592
  561TIP3    H223319   4.351   6.348   6.735 -1.4015  0.9628 -1.9461
  562TIP3   OH223320   0.582   0.784   0.642  0.0880 -0.2540  0.6549
  562TIP3    H123321   0.655   0.752   0.589 -0.6569 -1.1030  0.0963
  562TIP3    H223322   0.537   0.846   0.585 -2.2370 -3.0648 -0.8491
  563TIP3   OH223323   1.103   4.540   7.777 -0.4822 -0.5746  0.6908
  563TIP3    H123324   1.185   4.590   7.770 -1.0150  0.2867  0.5064
  563TIP3    H223325   1.126   4.465   7.832  0.2132  0.1611  1.4422
  564TIP3   OH223326   5.610   6.375   8.279  0.6677  0.1587  0.0318
  564TIP3    H123327   5.588   6.339   8.365 -0.8515  1.1086  0.0670
  564TIP3    H223328   5.618   6.298   8.222 -3.1943 -0.3869 -0.0511
  565TIP3   OH223329   1.365   2.286   7.087  1.0991 -0.7790  0.8229
  565TIP3    H123330   1.416   2.219   7.041  1.5251 -0.3043  0.5867
  565TIP3    H223331   1.375   2.364   7.033  2.0117 -0.0765  1.9499
  566TIP3   OH223332   3.877   6.921   3.733  0.0093 -0.4851  0.1142
  566TIP3    H123333   3.829   6.898   3.812  0.2424  1.6419  0.9156
  566TIP3    H223334   3.965   6.884   3.747  0.2698  0.4972  1.1974
  567TIP3   OH223335   4.893   1.865   7.319 -0.2550 -0.4086 -0.1888
  567TIP3    H123336   4.827   1.877   7.387  0.3361  0.6985  0.2107
  567TIP3    H223337   4.941   1.948   7.317  2.5146 -1.8409  0.9980
  568TIP3   OH223338   2.030   1.062   1.233 -0.2308 -0.5641  0.3514
  568TIP3    H123339   1.961   0.996   1.236  0.1160 -0.8949  1.9943
  568TIP3    H223340   1.989   1.142   1.268 -1.2586  0.8119 -3.4533
  569TIP3   OH223341   4.892   6.006   2.133 -0.3582  0.5589  0.2530
  569TIP3    H123342   4.862   6.015   2.042  0.1169 -0.6766 -0.0404
  569TIP3    H223343   4.954   6.079   2.144 -1.4244  1.5373  0.0360
  570TIP3   OH223344   3.498   4.450   1.928 -0.3110 -0.5550  0.2471
  570TIP3    H123345   3.459   4.532   1.957  2.7942  0.9379  0.7214
  570TIP3    H223346   3.519   4.403   2.009 -0.5681 -1.0527  0.0324
  571TIP3   OH223347   3.065   3.753   0.770  0.4579  0.6468 -0.0194
  571TIP3    H123348   2.974   3.727   0.757  0.3338  1.4972 -0.8978
  571TIP3    H223349   3.061   3.815   0.843  0.4522  0.0669  0.4855
  572TIP3   OH223350   1.325   1.416   8.087 -0.0935  0.0786 -0.2644
  572TIP3    H123351   1.287   1.418   7.999 -0.9057 -1.7682 -0.0140
  572TIP3    H223352   1.264   1.360   8.137 -0.4857  2.2866  1.8861
  573TIP3   OH223353   2.692   5.128   7.314 -0.6937  0.0384 -0.2378
  573TIP3    H123354   2.641   5.166   7.386 -1.0325  0.9141 -0.9282
  573TIP3    H223355   2.629   5.117   7.243 -0.2640 -0.4032 -0.5561
  574TIP3   OH223356   6.321   4.103   8.373  0.2313  0.5019  0.1242
  574TIP3    H123357   6.335   4.184   8.324 -0.7315 -0.0529 -1.1308
  574TIP3    H223358   6.297   4.039   8.306 -0.6218 -0.4138  1.2694
  575TIP3   OH223359   3.675   1.984   3.020 -0.3172  0.7329  0.7951
  575TIP3    H123360   3.634   1.901   3.045 -0.8811  0.0563 -1.9838
  575TIP3    H223361   3.766   1.960   3.000 -0.6288  0.6205 -0.5737
  576TIP3   OH223362   6.872   1.215   1.627 -0.2765 -0.4340 -0.0843
  576TIP3    H123363   6.944   1.178   1.677 -0.4774 -0.0762  0.4789
  576TIP3    H223364   6.894   1.196   1.536  0.1279 -1.0341  0.1284
  577TIP3   OH223365   2.829   3.013   0.232  0.1729 -0.4388 -0.4662
  577TIP3    H123366   2.835   3.071   0.308  0.3502 -1.4343  0.2881
  577TIP3    H223367   2.739   2.979   0.234 -0.8179  1.7321 -2.3796
  578TIP3   OH223368   2.229   4.084   1.792  0.3960  0.0868 -0.2721
  578TIP3    H123369   2.216   4.075   1.886 -0.5102  1.8240 -0.1826
  578TIP3    H223370   2.309   4.136   1.784  0.7866 -0.5374 -0.4937
  579TIP3   OH223371   2.716   5.229   1.714  0.0517 -0.5392  0.0841
  579TIP3    H123372   2.698   5.199   1.803  0.3571 -0.7497  0.0783
  579TIP3    H223373   2.731   5.148   1.664  0.1805 -0.4086 -0.0905
  580TIP3   OH223374   1.785   6.596   2.181  0.0541 -0.8440 -0.8140
  580TIP3    H123375   1.727   6.671   2.172 -0.7512 -1.2861  0.4117
  580TIP3    H223376   1.729   6.526   2.215  1.3818 -1.1459  0.9090
  581TIP3   OH223377   3.679   1.391   1.802 -0.1396  0.0412  0.0469
  581TIP3    H123378   3.620   1.340   1.857  0.1077  1.1423  1.3850
  581TIP3    H223379   3.676   1.480   1.839  0.2244  0.7668 -1.5778
  582TIP3   OH223380   2.220   1.539   0.301 -0.2404 -0.2800  0.5169
  582TIP3    H123381   2.234   1.452   0.262 -0.3209  0.0415 -0.2512
  582TIP3    H223382   2.149   1.577   0.248 -0.8585 -0.1053  1.4391
  583TIP3   OH223383   3.030   0.836   8.172  0.1103  0.3994 -0.5375
  583TIP3    H123384   3.012   0.744   8.190  0.1355  0.3597 -0.7078
  583TIP3    H223385   3.018   0.880   8.256  0.4040  0.1957 -0.3867
  584TIP3   OH223386   2.912   4.556   1.174 -0.0936 -0.5376  0.1388
  584TIP3    H123387   2.830   4.566   1.126 -1.4764 -4.4727  1.2393
  584TIP3    H223388   2.975   4.530   1.107 -0.9019 -1.7444 -0.1902
  585TIP3   OH223389   2.848   2.453   7.717  0.4532  0.2145  0.5187
  585TIP3    H123390   2.928   2.486   7.758  2.0118  0.0937 -2.2081
  585TIP3    H223391   2.870   2.365   7.687 -1.1842 -0.3768  0.9608
  586TIP3   OH223392   1.664   6.231   7.652  0.5300  0.3092 -0.0063
  586TIP3    H123393   1.689   6.178   7.577  0.5073  0.6748 -0.2771
  586TIP3    H223394   1.581   6.195   7.681  1.1230 -0.6066  0.5951
  587TIP3   OH223395   0.174   6.138   8.176  0.5514 -0.1335  0.1607
  587TIP3    H123396   0.100   6.197   8.193  0.8161  0.5737 -0.9789
  587TIP3    H223397   0.141   6.077   8.110  1.1158  0.5025 -0.7318
  588TIP3   OH223398   1.997   0.348   7.472 -0.1236 -0.1382  0.5192
  588TIP3    H123399   1.938   0.293   7.522 -0.4759  0.3110  0.5997
  588TIP3    H223400   2.037   0.406   7.536 -2.0197  1.7718  0.0756
  589TIP3   OH223401   6.347   2.423   7.081 -0.2019  0.0721 -0.0667
  589TIP3    H123402   6.287   2.434   7.008 -1.1030  2.8324  0.9703
  589TIP3    H223403   6.434   2.435   7.042 -0.4851 -0.8831 -1.0467
  590TIP3   OH223404   6.459   6.260   7.224 -0.1898 -0.1850  0.4789
  590TIP3    H123405   6.551   6.240   7.207  0.3030  0.5241  2.0723
  590TIP3    H223406   6.435   6.323   7.157  0.3828 -0.6067 -0.1402
  591TIP3   OH223407   5.293   5.590   1.817  0.1817  0.8845  0.4644
  591TIP3    H123408   5.287   5.646   1.740  1.9311  1.0986  0.4481
  591TIP3    H223409   5.376   5.614   1.858  0.4541 -0.9381  1.0755
  592TIP3   OH223410   5.488   2.075   7.697 -0.1267 -0.0068 -0.0455
  592TIP3    H123411   5.559   2.017   7.670 -0.6594 -0.2175 -1.0459
  592TIP3    H223412   5.411   2.019   7.702 -0.7293  0.6555 -1.4085
  593TIP3   OH223413   0.006   1.894   7.612  0.2996  0.5283 -0.7567
  593TIP3    H123414  -0.038   1.979   7.604 -0.8219 -0.0779 -1.2823
  593TIP3    H223415  -0.025   1.859   7.695  1.8653  1.2122  0.1662
  594TIP3   OH223416   2.726   3.804   1.205 -0.3016  0.3991  0.0374
  594TIP3    H123417   2.649   3.773   1.253  0.4040 -2.0963 -0.2987
  594TIP3    H223418   2.729   3.749   1.127  1.8696  0.3732  0.0835
  595TIP3   OH223419   6.304   2.714   2.001 -0.1470  0.0635 -0.0250
  595TIP3    H123420   6.333   2.781   1.939 -0.7727  1.3964  1.0525
  595TIP3    H223421   6.322   2.752   2.087  0.4619 -1.6230  0.6319
  596TIP3   OH223422   6.962   4.335   0.854 -0.0520  0.3721  0.0240
  596TIP3    H123423   6.991   4.277   0.924  0.3375  0.2890 -0.1972
  596TIP3    H223424   6.935   4.415   0.898  1.3297  0.7709  0.1876
  597TIP3   OH223425   3.942   5.382   8.119  0.2589  0.7791  0.9048
  597TIP3    H123426   4.030   5.344   8.125 -0.1347 -0.0899  1.2116
  597TIP3    H223427   3.892   5.321   8.066  0.5213  2.6104 -1.6881
  598TIP3   OH223428   0.461   4.429   7.634 -0.6556  0.4353 -0.5740
  598TIP3    H123429   0.550   4.429   7.600 -0.5513  0.5793 -0.3081
  598TIP3    H223430   0.468   4.473   7.719 -0.8747 -0.0953 -0.2748
  599TIP3   OH223431   4.056   2.579   8.107 -0.1993  0.1419  0.2059
  599TIP3    H123432   4.104   2.517   8.163 -1.5394 -1.5500 -0.4493
  599TIP3    H223433   4.036   2.652   8.166  2.3985  0.5749  0.7177
  600TIP3   OH223434   2.677   4.186   7.680  0.3334  0.6994  0.3610
  600TIP3    H123435   2.738   4.258   7.698 -0.1911  0.7335  2.1734
  600TIP3    H223436   2.595   4.214   7.720 -0.0251 -0.6786  0.6245
  601TIP3   OH223437   4.871   5.093   8.103 -0.0838  0.5733  0.5046
  601TIP3    H123438   4.802   5.027   8.106 -1.2366  1.7170  0.1280
  601TIP3    H223439   4.835   5.162   8.047  1.3460  1.2367  0.3655
  602TIP3   OH223440   6.780   1.629   0.315  0.0437 -0.0526 -0.4930
  602TIP3    H123441   6.693   1.590   0.304  0.7456 -1.9155  0.0745
  602TIP3    H223442   6.765   1.712   0.359 -1.3807 -1.0006  0.9144
  603TIP3   OH223443   2.340   1.039   2.409  0.0917 -0.5904 -0.2153
  603TIP3    H123444   2.305   0.972   2.351  0.5903 -1.5845  0.6122
  603TIP3    H223445   2.279   1.040   2.483 -0.5136  0.6326 -0.6977
  604TIP3   OH223446   1.745   3.250   8.246 -0.1234 -0.0115 -0.2225
  604TIP3    H123447   1.704   3.165   8.261  0.1068 -0.1107 -0.1518
  604TIP3    H223448   1.833   3.230   8.216  0.2758  0.1990  0.7595
  605TIP3   OH223449   2.157   3.553   0.029 -0.3846 -0.3211 -0.1769
  605TIP3    H123450   2.151   3.600  -0.055  0.5072  0.0660 -0.0334
  605TIP3    H223451   2.166   3.622   0.094  1.6581 -0.6933 -0.0236
  606TIP3   OH223452   0.560   0.446   7.283 -0.1788 -0.6308 -0.7576
  606TIP3    H123453   0.583   0.529   7.241  1.9428 -0.4545  0.5902
  606TIP3    H223454   0.538   0.470   7.374 -0.6879 -1.4326 -0.6570
  607TIP3   OH223455   4.696   3.007   8.393  0.0971  0.1961 -0.0942
  607TIP3    H123456   4.727   2.947   8.326 -0.2705  0.7360 -0.7649
  607TIP3    H223457   4.771   3.021   8.451  0.3426 -0.4683 -0.2539
  608TIP3   OH223458   6.723   3.054   7.447 -0.1142  0.1483  0.5527
  608TIP3    H123459   6.635   3.026   7.420  0.3499 -1.1384  0.2973
  608TIP3    H223460   6.744   2.999   7.523 -0.4547  2.1055  2.1152
  609TIP3   OH223461   1.970   6.965   1.746 -0.1959 -0.4159  0.0399
  609TIP3    H123462   1.993   6.876   1.773 -0.7677  0.1794  2.8097
  609TIP3    H223463   2.054   7.005   1.720  0.4289 -1.0770  0.9804
  610TIP3   OH223464   5.928   2.991   2.264 -0.2205 -0.0946 -0.5756
  610TIP3    H123465   5.998   3.056   2.257  0.3028 -0.6426 -0.5174
  610TIP3    H223466   5.848   3.041   2.255  0.2015  0.3742 -1.9762
  611TIP3   OH223467   4.309   6.713   7.893 -0.5742  0.3714  0.2684
  611TIP3    H123468   4.303   6.732   7.987 -2.8843 -0.2399  0.2869
  611TIP3    H223469   4.220   6.721   7.861 -0.1314 -1.2493 -1.5394
  612TIP3   OH223470   6.578   1.468   8.165 -0.0254  0.4034 -0.6044
  612TIP3    H123471   6.593   1.443   8.257  0.3865 -1.4404 -1.1361
  612TIP3    H223472   6.658   1.516   8.141  0.3148  0.0058 -0.2942
  613TIP3   OH223473   4.201   2.577   0.427 -0.4206  0.2686 -0.1126
  613TIP3    H123474   4.183   2.626   0.508 -1.6351  0.0649 -0.2305
  613TIP3    H223475   4.229   2.644   0.364  1.0304  0.3643  0.5963
  614TIP3   OH223476   2.538   2.340   0.621 -0.4896  0.0070  0.1931
  614TIP3    H123477   2.458   2.366   0.666 -0.2012  1.3243 -0.0225
  614TIP3    H223478   2.527   2.370   0.531  0.0154 -0.2991  0.0237
  615TIP3   OH223479   4.776   3.245   0.263 -0.3460 -0.0295 -0.2615
  615TIP3    H123480   4.700   3.204   0.304  0.5200 -0.8484  0.5798
  615TIP3    H223481   4.783   3.330   0.305  0.5557 -0.8730  1.4255
  616TIP3   OH223482   4.972   2.072   1.777  0.0467  0.3686  0.4566
  616TIP3    H123483   4.937   2.041   1.860 -0.5275 -0.1699  0.0246
  616TIP3    H223484   5.063   2.042   1.777  0.2735  1.0184  1.2050
  617TIP3   OH223485   6.948   3.822   1.419  0.4548 -0.6343  0.1324
  617TIP3    H123486   6.941   3.829   1.514 -0.9724  0.5256 -0.0189
  617TIP3    H223487   6.981   3.907   1.391  0.9556 -1.0011 -0.4114
  618TIP3   OH223488   3.910   3.540   6.811 -0.6032  0.1884  0.1150
  618TIP3    H123489   3.834   3.516   6.864  0.2055 -1.0171  0.7877
  618TIP3    H223490   3.881   3.615   6.759 -2.2477 -0.2551  0.3413
  619TIP3   OH223491   4.505   1.683   1.906  0.3532  0.5308  0.3527
  619TIP3    H123492   4.529   1.666   1.997 -2.4908  0.2528  1.1494
  619TIP3    H223493   4.464   1.602   1.876 -1.9625  1.7018  0.0653
  620TIP3   OH223494   4.697   1.283   2.527 -0.2904  0.9988 -0.0525
  620TIP3    H123495   4.733   1.306   2.612  0.2176  1.3018 -0.3439
  620TIP3    H223496   4.698   1.365   2.477 -1.0743  0.9398 -0.1771
  621TIP3   OH223497   6.307   3.395   0.797 -0.0855 -0.0225  0.2840
  621TIP3    H123498   6.349   3.464   0.746 -0.1114 -0.0772  0.1879
  621TIP3    H223499   6.314   3.317   0.742 -1.0361  0.1410 -0.0882
  622TIP3   OH223500   3.148   3.395   1.317  0.1767  0.0632  0.4769
  622TIP3    H123501   3.111   3.436   1.238  0.0394  0.6091  0.8131
  622TIP3    H223502   3.239   3.423   1.318 -0.5812  2.8303  2.2241
  623TIP3   OH223503   3.071   2.972   1.664 -0.2411  0.6617  0.2814
  623TIP3    H123504   3.037   2.936   1.582 -0.5814  0.2345  0.6044
  623TIP3    H223505   3.002   3.030   1.696  0.7711  2.5756 -0.8287
  624TIP3   OH223506   3.554   0.462   8.088 -0.1767 -0.2879  0.2655
  624TIP3    H123507   3.627   0.401   8.080 -0.4159 -0.4959 -0.4565
  624TIP3    H223508   3.551   0.507   8.004 -0.1291  0.5863  0.7174
  625TIP3   OH223509   0.821   2.816   8.018 -0.2277 -0.1109  0.0530
  625TIP3    H123510   0.916   2.826   8.014 -0.3852  1.1578 -1.1785
  625TIP3    H223511   0.804   2.729   7.982  0.4778 -0.4201  0.4662
  626TIP3   OH223512   3.647   2.709   0.369  0.1448  0.0506  0.0060
  626TIP3    H123513   3.721   2.719   0.309  0.2213  2.5305  0.4061
  626TIP3    H223514   3.684   2.724   0.456 -0.5909 -0.0157  0.3342
  627TIP3   OH223515   2.562   5.045   0.836 -0.1161 -0.2257 -0.3613
  627TIP3    H123516   2.524   4.989   0.769 -0.3231  0.8126 -1.1340
  627TIP3    H223517   2.525   5.132   0.819  1.6274  0.5524 -0.3466
  628TIP3   OH223518   3.039   6.829   0.819  0.1048  0.4929  0.1374
  628TIP3    H123519   3.024   6.748   0.771 -1.7353  1.1010 -0.3779
  628TIP3    H223520   3.071   6.801   0.905  1.2140 -0.6893 -0.6175
  629TIP3   OH223521   1.113   3.912   7.700 -0.2817 -0.6345  0.3663
  629TIP3    H123522   1.064   3.856   7.760 -3.2592 -0.0875 -1.3724
  629TIP3    H223523   1.059   3.990   7.690  1.9361  0.9343 -0.1998
  630TIP3   OH223524   3.059   2.971   7.321 -1.0075  0.5872 -0.4339
  630TIP3    H123525   3.147   2.999   7.345 -0.9333  0.6178 -0.7432
  630TIP3    H223526   3.063   2.875   7.324 -1.1380  0.5923  0.1715
  631TIP3   OH223527   3.591   0.581   6.891  0.1503 -0.7876  0.3272
  631TIP3    H123528   3.568   0.582   6.984 -0.3007  1.0153  0.2241
  631TIP3    H223529   3.511   0.608   6.847  0.6450 -0.6952 -0.5236
  632TIP3   OH223530   2.558   4.455   6.900  0.4826 -0.0684  0.3742
  632TIP3    H123531   2.469   4.429   6.920  0.1582  1.4985  1.0919
  632TIP3    H223532   2.549   4.531   6.842  1.2823  0.9679  1.5427
  633TIP3   OH223533   4.228   4.067   7.924  0.3589 -0.0069 -0.3350
  633TIP3    H123534   4.211   4.038   7.834 -0.8628 -0.9240  0.1711
  633TIP3    H223535   4.267   4.154   7.913  0.7740 -0.3348 -1.7623
  634TIP3   OH223536   3.527   2.244   1.679  0.0873  0.0198 -0.4491
  634TIP3    H123537   3.537   2.175   1.614 -0.3307 -0.9796  0.5259
  634TIP3    H223538   3.573   2.212   1.756  0.9212  1.3616 -0.3407
  635TIP3   OH223539   1.387   6.685   1.412 -0.3872  0.2246  0.5096
  635TIP3    H123540   1.365   6.773   1.443 -3.7839 -0.3849  0.1610
  635TIP3    H223541   1.306   6.651   1.375  1.4446 -2.1261 -1.7745
  636TIP3   OH223542   4.989   6.006   6.783 -0.0476  0.2055 -0.3765
  636TIP3    H123543   4.985   5.949   6.706 -0.5642  0.1099 -0.2843
  636TIP3    H223544   5.073   5.985   6.824  0.7720  1.0903 -1.5426
  637TIP3   OH223545   0.856   0.057   1.400 -0.3609  0.3178  0.8131
  637TIP3    H123546   0.841  -0.029   1.440  2.7150 -0.6605  0.1324
  637TIP3    H223547   0.877   0.114   1.473  0.4468 -0.2598  1.0487
  638TIP3   OH223548   2.066   0.049   0.502 -0.3901 -0.2254 -0.1107
  638TIP3    H123549   2.090   0.058   0.410  0.5723 -1.7798 -0.0331
  638TIP3    H223550   2.144   0.013   0.544 -1.5263 -1.5847  0.9051
  639TIP3   OH223551   6.503   6.076   6.976 -0.2787 -0.4845  0.1851
  639TIP3    H123552   6.582   6.053   6.927 -0.3865 -2.3693  0.8182
  639TIP3    H223553   6.529   6.072   7.068 -0.1560  2.7250  0.3834
  640TIP3   OH223554   5.084   4.016   7.381 -0.0507 -0.1559  0.7245
  640TIP3    H123555   5.110   4.102   7.346 -3.5460  1.1803  1.0703
  640TIP3    H223556   5.069   4.032   7.474 -1.9325 -0.7779  0.5624
  641TIP3   OH223557   6.377   3.782   2.310 -0.5237 -0.7638  0.1154
  641TIP3    H123558   6.290   3.769   2.271 -0.7580 -0.3374  0.4867
  641TIP3    H223559   6.435   3.725   2.259 -0.9179 -0.6097 -0.5196
  642TIP3   OH223560   5.296   5.462   7.070  0.7443  0.0203  0.4100
  642TIP3    H123561   5.280   5.556   7.062 -3.0759 -0.4189  1.3014
  642TIP3    H223562   5.284   5.428   6.982  5.1149  0.5132 -0.6173
  643TIP3   OH223563   4.743   4.485   0.585  0.1226 -0.5468  0.4091
  643TIP3    H123564   4.791   4.412   0.623 -1.1951 -1.2104  0.8659
  643TIP3    H223565   4.723   4.457   0.495  2.5166  0.6813 -0.5993
  644TIP3   OH223566   2.845   1.833   1.895 -0.0680 -0.0662  0.0767
  644TIP3    H123567   2.894   1.901   1.850  0.1229 -1.6558 -2.2715
  644TIP3    H223568   2.835   1.866   1.985 -3.1953  4.7666 -1.6753
  645TIP3   OH223569   6.436   5.886   7.771 -0.0449 -0.1801  0.9452
  645TIP3    H123570   6.461   5.935   7.850 -1.0496 -1.0756  1.8539
  645TIP3    H223571   6.346   5.914   7.754  0.3301  0.3767 -0.2027
  646TIP3   OH223572   4.551   5.997   1.548  0.0293 -0.0837 -0.2250
  646TIP3    H123573   4.476   6.021   1.603 -1.1068 -3.7578  0.0789
  646TIP3    H223574   4.626   6.034   1.594 -1.3427  1.6178  0.7885
  647TIP3   OH223575   0.975   3.798   0.405  0.0445  0.4837 -0.1408
  647TIP3    H123576   0.918   3.824   0.477 -0.1680 -0.4539  0.0384
  647TIP3    H223577   1.034   3.734   0.442  0.5980  0.7349 -0.5641
  648TIP3   OH223578   4.690   6.262   7.776  0.1947  0.1559 -0.2295
  648TIP3    H123579   4.707   6.204   7.850 -2.6124  1.0957  1.2864
  648TIP3    H223580   4.747   6.337   7.791  1.4161 -0.7029 -0.4024
  649TIP3   OH223581   5.696   3.284   0.422 -0.2247 -0.3135  0.6275
  649TIP3    H123582   5.758   3.295   0.494  1.7501 -0.0950 -1.0191
  649TIP3    H223583   5.705   3.364   0.370 -1.9093 -0.2846  0.2984
  650TIP3   OH223584   6.736   0.146   1.021  0.0982  0.5939 -0.1351
  650TIP3    H123585   6.825   0.174   1.041 -0.0614  2.4678 -1.7626
  650TIP3    H223586   6.696   0.127   1.106  1.3291  1.9571  0.7806
  651TIP3   OH223587   1.505   5.225   0.320  0.3999  0.0346  0.0171
  651TIP3    H123588   1.486   5.219   0.227  0.0391 -0.9219  0.1432
  651TIP3    H223589   1.422   5.204   0.363  0.5787  0.4107  0.5498
  652TIP3   OH223590   6.156   3.598   7.465 -0.4133  0.3865 -0.2607
  652TIP3    H123591   6.060   3.604   7.468 -0.5002  2.4304 -2.9278
  652TIP3    H223592   6.186   3.651   7.540 -1.3521 -0.1862  0.5352
  653TIP3   OH223593   5.903   6.484   8.325  0.3527 -0.3051  0.0807
  653TIP3    H123594   5.823   6.498   8.376  1.5846  1.0010  1.7804
  653TIP3    H223595   5.892   6.539   8.248 -0.6514 -0.6415 -0.0280
  654TIP3   OH223596   4.477   5.658   0.641  0.0003 -0.0259  0.1444
  654TIP3    H123597   4.456   5.689   0.729 -0.7586  0.7532 -0.2808
  654TIP3    H223598   4.444   5.569   0.637 -0.2149  0.0363  0.5613
  655TIP3   OH223599   1.504   5.862   1.930 -0.0506 -0.6423  0.0528
  655TIP3    H123600   1.472   5.828   2.013 -1.1970  1.3567  0.4961
  655TIP3    H223601   1.426   5.870   1.875 -0.4773  3.6051  0.8841
  656TIP3   OH223602   6.895   0.314   0.631  0.3162  0.6448  0.3149
  656TIP3    H123603   6.960   0.341   0.566  0.0141 -1.6964 -1.0595
  656TIP3    H223604   6.931   0.234   0.669 -1.1678 -0.0020  0.4188
  657TIP3   OH223605   3.473   1.564   0.331  0.1098 -0.6076 -0.1817
  657TIP3    H123606   3.515   1.531   0.411  0.5373  0.6671  0.1467
  657TIP3    H223607   3.459   1.486   0.278  1.5674 -1.2594  0.3339
  658TIP3   OH223608   1.231   3.922   7.154  0.4247 -0.1167 -0.3680
  658TIP3    H123609   1.303   3.984   7.143  0.5407 -0.3312 -0.8258
  658TIP3    H223610   1.155   3.976   7.177  0.2809  0.3076 -1.7383
  659TIP3   OH223611   3.584   4.938   1.447  0.0838  0.3210  0.0742
  659TIP3    H123612   3.645   4.950   1.520 -0.1113 -0.8077  0.4586
  659TIP3    H223613   3.542   4.854   1.466 -1.6379  1.1017 -0.1523
  660TIP3   OH223614   3.124   0.081   2.026 -0.2225  0.2897  0.3145
  660TIP3    H123615   3.061   0.057   1.959  0.0033 -1.4212  0.6873
  660TIP3    H223616   3.075   0.139   2.085 -1.0439  0.0585 -0.1316
  661TIP3   OH223617   0.227   0.420   0.932 -0.2640 -0.0561 -0.5061
  661TIP3    H123618   0.203   0.477   1.005 -0.7019  0.9620 -1.4195
  661TIP3    H223619   0.318   0.443   0.912  0.4248 -1.4876  0.7288
  662TIP3   OH223620   5.835   5.110   1.434  0.4503  0.5054 -0.2158
  662TIP3    H123621   5.875   5.189   1.397  0.5979  1.0763  1.1118
  662TIP3    H223622   5.866   5.039   1.377  2.5997  1.0493  0.1737
  663TIP3   OH223623   2.024   6.901   2.534  0.4314 -0.6119 -0.7197
  663TIP3    H123624   2.115   6.926   2.548 -0.0116  0.2789  0.7656
  663TIP3    H223625   1.973   6.979   2.556 -0.7151 -1.2276 -1.0769
  664TIP3   OH223626   0.438   2.047   0.354  0.5490 -0.3428  0.2664
  664TIP3    H123627   0.473   2.051   0.265 -2.0280 -0.8717 -0.8620
  664TIP3    H223628   0.495   2.104   0.405  3.1813 -1.4349 -1.2995
  665TIP3   OH223629   4.042   2.177   0.066  0.0278  0.2997 -0.5967
  665TIP3    H123630   4.098   2.253   0.057  0.9931 -0.5435 -2.3146
  665TIP3    H223631   4.028   2.146  -0.024 -1.2663 -0.8890 -0.0421
  666TIP3   OH223632   0.855   6.797   1.561  0.1612  0.0513  0.6218
  666TIP3    H123633   0.830   6.839   1.644 -0.0082 -0.9966  1.1250
  666TIP3    H223634   0.799   6.720   1.556 -1.7289  1.4745 -1.8036
  667TIP3   OH223635   4.528   5.191   1.718 -0.7907  0.1698  0.1275
  667TIP3    H123636   4.473   5.148   1.784 -3.2622  0.1768 -1.7960
  667TIP3    H223637   4.584   5.121   1.685 -2.5367 -0.8924 -0.7214
  668TIP3   OH223638   2.821   0.432   1.849 -0.0744  0.5407  0.0730
  668TIP3    H123639   2.731   0.416   1.876  0.3566 -0.1818  1.1537
  668TIP3    H223640   2.855   0.491   1.916  0.7445 -0.5551  0.6606
  669TIP3   OH223641   6.649   0.210   2.045  0.3585  0.2611  0.3802
  669TIP3    H123642   6.620   0.246   2.129  0.6303  1.4500 -0.0245
  669TIP3    H223643   6.738   0.243   2.035  0.6678 -0.6368  0.0428
  670TIP3   OH223644   5.938   3.012   1.743 -0.2416  0.7006 -0.7694
  670TIP3    H123645   5.879   3.050   1.678  0.8539 -0.7161 -2.7004
  670TIP3    H223646   5.881   2.988   1.816 -1.8353  0.6433 -1.9767
  671TIP3   OH223647   0.178   3.220   0.365 -0.3591 -0.2201  0.4803
  671TIP3    H123648   0.266   3.234   0.399  0.6444 -0.2641 -1.9162
  671TIP3    H223649   0.120   3.251   0.435  1.5761  2.0000  1.2433
  672TIP3   OH223650   1.350   2.816   7.410  0.1495 -0.0427 -0.8625
  672TIP3    H123651   1.287   2.796   7.341 -3.2542  0.2857  1.8649
  672TIP3    H223652   1.351   2.912   7.414 -0.4401 -0.0674  0.1309
  673TIP3   OH223653   3.335   0.739   8.232 -0.2388  0.3442 -0.1510
  673TIP3    H123654   3.350   0.667   8.171  0.2949 -1.0793  1.5947
  673TIP3    H223655   3.246   0.724   8.266  1.0242 -1.4916  2.6626
  674TIP3   OH223656   0.976   6.915   1.016 -0.1487 -0.1329  0.3218
  674TIP3    H123657   1.070   6.935   1.008  0.1512 -1.5115  0.1213
  674TIP3    H223658   0.932   6.996   0.990  0.9709 -0.0795 -1.5858
  675TIP3   OH223659   0.984   2.530   7.911  0.1333  0.0926 -0.0765
  675TIP3    H123660   0.916   2.570   7.857 -0.8511 -1.0790  0.2692
  675TIP3    H223661   0.986   2.583   7.991  0.5102  0.8733 -0.5854
  676TIP3   OH223662   4.090   0.119   7.747  0.3421 -0.3271  0.2797
  676TIP3    H123663   4.165   0.072   7.712 -0.2325 -1.3627  0.4028
  676TIP3    H223664   4.015   0.063   7.728 -0.2755  0.2065  1.0557
  677TIP3   OH223665   0.034   4.254   6.329  0.1225  0.3322  0.2250
  677TIP3    H123666   0.001   4.255   6.239 -0.3514 -1.0707  0.3644
  677TIP3    H223667   0.111   4.197   6.326 -0.7431 -0.9225  0.9690
  678TIP3   OH223668   6.797   5.907   1.158  0.8891 -0.2162  0.1091
  678TIP3    H123669   6.815   5.981   1.216  0.2394  0.1998 -0.2013
  678TIP3    H223670   6.720   5.935   1.107  1.1229 -0.7847 -0.5711
  679TIP3   OH223671   5.539   0.776   0.538  0.2096  0.1421 -0.3406
  679TIP3    H123672   5.540   0.853   0.480  0.8158  0.5862  0.2414
  679TIP3    H223673   5.492   0.709   0.488 -0.5988  0.9795 -0.7417
  680TIP3   OH223674   5.665   6.842   1.611 -0.2433 -0.4723  0.2338
  680TIP3    H123675   5.584   6.795   1.632 -0.9405 -0.0589 -1.3776
  680TIP3    H223676   5.647   6.886   1.528  1.0228  1.1663  0.7752
  681TIP3   OH223677   2.464   1.558   0.621 -0.0976 -0.6099  0.2671
  681TIP3    H123678   2.470   1.610   0.701 -1.1953 -2.6394  1.7583
  681TIP3    H223679   2.428   1.619   0.556  0.3722  0.9641  1.4052
  682TIP3   OH223680   3.053   2.314   1.617  0.2413  0.3113 -0.7584
  682TIP3    H123681   3.041   2.392   1.564  0.3032 -0.0442 -1.2993
  682TIP3    H223682   3.040   2.344   1.707  1.5797  1.2211 -0.8501
  683TIP3   OH223683   5.056   5.984   7.973 -0.1868  0.3732 -0.0516
  683TIP3    H123684   5.100   5.982   8.058  1.0928 -1.0440 -0.7106
  683TIP3    H223685   5.107   6.045   7.920 -0.4519  0.5621 -0.0949
  684TIP3   OH223686   0.054   1.607   3.113  0.0400  0.5044  0.3628
  684TIP3    H123687   0.088   1.676   3.056  0.4525 -0.7977 -1.0094
  684TIP3    H223688   0.030   1.653   3.194  0.4464  2.2197 -0.4504
  685TIP3   OH223689   6.607   0.961   1.348  0.1315 -0.0636  0.1447
  685TIP3    H123690   6.589   0.925   1.435 -3.2162  1.3762  0.1730
  685TIP3    H223691   6.581   0.891   1.287  1.3152 -0.6080  0.2318
  686TIP3   OH223692   4.818   0.196   7.608  0.2477  0.6416 -0.3721
  686TIP3    H123693   4.852   0.178   7.696  0.4200 -1.8015 -0.8769
  686TIP3    H223694   4.884   0.254   7.569  0.2752  1.5915  0.9961
  687TIP3   OH223695   6.883   6.642   1.174 -0.0141 -0.6080 -0.0164
  687TIP3    H123696   6.787   6.634   1.176 -0.3817  2.3356 -0.9352
  687TIP3    H223697   6.904   6.702   1.246  0.9985 -0.2730 -0.5719
  688TIP3   OH223698   0.546   3.026   1.760  0.6370  0.8514  0.5868
  688TIP3    H123699   0.578   3.010   1.849  2.4017  0.5519 -0.0440
  688TIP3    H223700   0.625   3.049   1.710 -0.2249  0.5148 -1.0117
  689TIP3   OH223701   6.712   3.254   0.138  0.3907  0.3433  0.4803
  689TIP3    H123702   6.790   3.208   0.169  1.0499  0.9834 -0.1681
  689TIP3    H223703   6.732   3.347   0.154 -0.3420  0.4989  0.5209
  690TIP3   OH223704   3.788   5.913   7.637  0.6239  0.7556 -0.8144
  690TIP3    H123705   3.751   5.826   7.625  0.2373  0.6660  0.8184
  690TIP3    H223706   3.816   5.915   7.728 -0.6754  2.8160 -0.3963
  691TIP3   OH223707   0.009   3.423   1.052  0.3631 -0.3922  0.3810
  691TIP3    H123708   0.004   3.506   1.098  0.2846 -0.9768  1.4452
  691TIP3    H223709  -0.059   3.368   1.092  0.0850 -0.8210 -0.6303
  692TIP3   OH223710   2.856   3.290   1.978 -0.6352  0.1297 -0.1444
  692TIP3    H123711   2.948   3.317   1.975 -1.3176  2.6793 -0.3788
  692TIP3    H223712   2.829   3.284   1.887 -0.9681  0.4512 -0.0718
  693TIP3   OH223713   5.869   0.254   7.825  0.4543  0.4181  0.0324
  693TIP3    H123714   5.964   0.238   7.829  0.6928  1.3801 -1.2498
  693TIP3    H223715   5.848   0.250   7.732 -1.0067 -0.9488  0.3758
  694TIP3   OH223716   0.012   2.214   8.098  0.4135 -0.1205  0.0954
  694TIP3    H123717   0.106   2.204   8.111  0.5152  0.4267 -0.2007
  694TIP3    H223718  -0.027   2.193   8.183  0.7508 -1.0342  0.0314
  695TIP3   OH223719   6.377   4.879   0.541 -0.3752  0.1979  0.2161
  695TIP3    H123720   6.353   4.953   0.485  2.2430  1.6181  0.7857
  695TIP3    H223721   6.425   4.820   0.483 -1.9262 -0.8142 -0.0931
  696TIP3   OH223722   5.188   1.422   7.257 -0.0494  0.3854 -0.0609
  696TIP3    H123723   5.160   1.514   7.255  2.0453  1.0818 -0.1019
  696TIP3    H223724   5.248   1.414   7.183 -0.1056 -1.0040  0.0183
  697TIP3   OH223725   2.691   3.922   6.525  0.2337 -0.3409 -0.3474
  697TIP3    H123726   2.767   3.893   6.474  0.1427 -1.5858  0.1716
  697TIP3    H223727   2.636   3.843   6.532 -1.2699  0.6039 -0.9785
  698TIP3   OH223728   2.237   3.098   2.820 -0.4719 -0.1617 -0.9014
  698TIP3    H123729   2.235   3.103   2.725 -0.8168 -2.5935 -1.0926
  698TIP3    H223730   2.155   3.138   2.849 -0.3070  0.7026 -1.6052
  699TIP3   OH223731   4.863   1.907   7.732  0.0655 -0.3853  0.1428
  699TIP3    H123732   4.782   1.910   7.785  0.4288 -0.3293  0.7088
  699TIP3    H223733   4.838   1.946   7.648 -0.4454 -0.1670  0.3896
  700TIP3   OH223734   0.740   5.757   1.554  0.5869 -0.1237 -0.2122
  700TIP3    H123735   0.810   5.707   1.512  3.6168  1.0785  2.9119
  700TIP3    H223736   0.751   5.846   1.521 -0.0171 -0.0789 -0.3007
  701TIP3   OH223737   6.207   5.391   0.056 -0.2081 -0.5344  0.6760
  701TIP3    H123738   6.160   5.464   0.095 -0.5925 -0.5150  0.1795
  701TIP3    H223739   6.299   5.416   0.062 -0.4064  0.7560 -0.9965
  702TIP3   OH223740   2.124   0.148   1.149 -0.1230  0.3755  0.5129
  702TIP3    H123741   2.095   0.073   1.202 -0.2886 -0.6618 -1.0013
  702TIP3    H223742   2.044   0.181   1.109  0.0097  1.1448  0.8587
  703TIP3   OH223743   5.759   3.008   1.945  0.1206  0.2667  0.0543
  703TIP3    H123744   5.750   3.044   2.033 -0.2498  0.2322  0.0309
  703TIP3    H223745   5.671   2.979   1.921  0.4513 -0.9679  0.2104
  704TIP3   OH223746   2.029   3.044   1.944 -0.1043  0.4341 -0.0003
  704TIP3    H123747   2.041   3.137   1.926 -0.2285  0.2171 -1.3577
  704TIP3    H223748   2.086   3.000   1.880 -0.2420 -0.4212  0.4517
  705TIP3   OH223749   3.663   5.460   6.708  0.0900  0.0082 -0.2987
  705TIP3    H123750   3.667   5.365   6.721 -0.8409 -0.2941 -1.9497
  705TIP3    H223751   3.670   5.472   6.613  3.3464  1.8275 -0.0025
  706TIP3   OH223752   6.006   5.741   0.975 -0.1111  0.3774 -0.6854
  706TIP3    H123753   5.927   5.781   1.012  0.4415  0.2412  0.7270
  706TIP3    H223754   5.976   5.658   0.938 -0.5264 -0.0733  0.5885
  707TIP3   OH223755   0.965   0.429   1.404 -0.2168 -0.3514 -0.4427
  707TIP3    H123756   1.041   0.438   1.346 -0.7610  0.0510 -1.1059
  707TIP3    H223757   0.915   0.357   1.367 -0.9490  0.3886 -0.9191
  708TIP3   OH223758   6.670   5.505   7.636 -0.3868  0.4587  0.5916
  708TIP3    H123759   6.699   5.504   7.545 -0.7325 -0.5265  0.4801
  708TIP3    H223760   6.723   5.439   7.679 -1.7720 -0.6926  0.5931
  709TIP3   OH223761   2.682   2.369   8.164  0.0108  0.8924 -0.3870
  709TIP3    H123762   2.600   2.341   8.205  0.3941  1.1994  0.6256
  709TIP3    H223763   2.686   2.463   8.179  1.1357  0.7019  0.6975
  710TIP3   OH223764   1.485   3.624   1.727 -0.1444  0.5825 -0.0347
  710TIP3    H123765   1.498   3.675   1.647  1.4896  0.9207  0.4111
  710TIP3    H223766   1.484   3.688   1.798  1.2521  0.0866  0.4684
  711TIP3   OH223767   4.415   4.618   2.249  0.5956 -0.2775  0.3754
  711TIP3    H123768   4.371   4.567   2.317 -0.9489 -0.4139 -0.6891
  711TIP3    H223769   4.478   4.556   2.211  1.1117 -0.3501  1.3216
  712TIP3   OH223770   2.135   2.492   8.185 -0.8589  0.6387 -0.2105
  712TIP3    H123771   2.220   2.537   8.186 -0.1621 -0.4172 -2.5410
  712TIP3    H223772   2.070   2.562   8.191  0.0717  1.4114  2.7546
  713TIP3   OH223773   3.047   4.471   0.927 -0.2809 -0.4296 -0.3282
  713TIP3    H123774   3.131   4.510   0.903 -0.0147 -1.5338 -1.2820
  713TIP3    H223775   3.067   4.378   0.941 -1.2063 -0.5609  0.2032
  714TIP3   OH223776   1.152   2.245   1.298 -0.1036  0.0527  0.9358
  714TIP3    H123777   1.224   2.235   1.236  0.0910  1.4512  0.9222
  714TIP3    H223778   1.157   2.335   1.327 -1.7783  0.1511  1.0158
  715TIP3   OH223779   6.843   2.772   1.021 -0.2868 -0.4021 -0.0906
  715TIP3    H123780   6.854   2.755   1.115 -0.6039 -2.0122 -0.3119
  715TIP3    H223781   6.908   2.716   0.979 -0.2076  0.2431 -0.8481
  716TIP3   OH223782   2.021   2.210   0.120 -1.0514  0.5796 -0.2445
  716TIP3    H123783   2.110   2.207   0.155 -1.2642  1.6166  0.4561
  716TIP3    H223784   2.024   2.279   0.053 -0.7439 -1.1198 -2.0857
  717TIP3   OH223785   4.949   6.730   0.862 -0.4465  0.3109 -0.4078
  717TIP3    H123786   4.896   6.685   0.797 -2.4616  0.3671  1.0962
  717TIP3    H223787   4.976   6.811   0.818 -0.8852 -0.1063 -1.4962
  718TIP3   OH223788   6.719   4.485   1.664  0.0710 -0.0485  0.4032
  718TIP3    H123789   6.779   4.536   1.609 -0.5807  0.4361  0.1350
  718TIP3    H223790   6.634   4.527   1.652 -0.3435 -0.7940  0.7096
  719TIP3   OH223791   3.544   5.259   7.533 -0.0901 -0.0086 -0.5515
  719TIP3    H123792   3.492   5.304   7.465  0.7436  0.7704 -0.6900
  719TIP3    H223793   3.626   5.308   7.537  0.5061 -1.0130 -0.0851
  720TIP3   OH223794   5.308   0.673   1.384  0.1466  0.3790 -0.8522
  720TIP3    H123795   5.323   0.612   1.456 -0.6229 -0.4445 -1.3700
  720TIP3    H223796   5.357   0.751   1.409 -1.3503  0.7190  1.3431
  721TIP3   OH223797   5.546   3.662   1.939  0.4414  0.7785 -0.6188
  721TIP3    H123798   5.559   3.650   2.033 -1.7808 -1.7380 -0.5294
  721TIP3    H223799   5.612   3.606   1.899  1.0651  1.4710 -0.5834
  722TIP3   OH223800   4.124   5.243   6.395 -0.7807  0.0297  0.2356
  722TIP3    H123801   4.096   5.201   6.313  0.0989 -1.4475  0.6611
  722TIP3    H223802   4.194   5.302   6.368  1.3027 -2.2962  0.1335
  723TIP3   OH223803   0.765   3.253   2.086  0.3473 -0.3999 -0.3670
  723TIP3    H123804   0.812   3.253   2.169  1.1551 -0.0372 -0.8113
  723TIP3    H223805   0.677   3.285   2.108  1.6231  3.4369 -0.1946
  724TIP3   OH223806   4.898   2.145   2.275 -0.5678  0.0330  0.2960
  724TIP3    H123807   4.920   2.094   2.353  0.8883  0.2269  0.0428
  724TIP3    H223808   4.914   2.084   2.202  1.6151  0.9052 -0.0380
  725TIP3   OH223809   6.583   3.680   7.688 -0.8690 -0.1898  0.1680
  725TIP3    H123810   6.534   3.724   7.618 -1.9337 -1.1467  0.2878
  725TIP3    H223811   6.595   3.747   7.755 -0.2126  0.6215 -0.7393
  726TIP3   OH223812   4.449   0.854   0.368  0.3285  0.3429  0.1327
  726TIP3    H123813   4.372   0.911   0.369  0.0760  0.0041  0.5936
  726TIP3    H223814   4.415   0.766   0.384  0.7807  0.1521  0.0734
  727TIP3   OH223815   3.961   4.209   7.364  0.3314  0.2774 -0.6416
  727TIP3    H123816   3.906   4.205   7.286  0.0085  1.2891 -0.4819
  727TIP3    H223817   4.049   4.222   7.331  0.4023 -0.7196 -0.8766
  728TIP3   OH223818   1.123   3.947   1.869  0.9818  0.1232 -0.0988
  728TIP3    H123819   1.095   3.995   1.947  1.7227 -2.2073  1.7461
  728TIP3    H223820   1.042   3.930   1.821  0.4068  0.9772  0.5237
  729TIP3   OH223821   2.095   1.665   7.773 -0.0686  0.0442  0.2355
  729TIP3    H123822   2.033   1.690   7.704  0.2961 -1.4176 -0.6566
  729TIP3    H223823   2.116   1.574   7.755  0.3958 -0.2429  2.0359
  730TIP3   OH223824   5.381   0.414   7.941 -0.3577  0.0483 -0.5630
  730TIP3    H123825   5.419   0.339   7.895 -0.7976 -0.5578  0.0346
  730TIP3    H223826   5.408   0.402   8.032 -1.4127 -0.0248 -0.2527
  731TIP3   OH223827   1.282   2.427   8.258 -0.5503  0.3958  0.0061
  731TIP3    H123828   1.374   2.440   8.283 -0.5848  0.5756  0.0421
  731TIP3    H223829   1.235   2.422   8.342 -0.2716 -2.1760  0.1100
  732TIP3   OH223830   6.292   2.400   0.744  0.1239 -0.1323 -0.5937
  732TIP3    H123831   6.334   2.479   0.712  1.6298 -1.0091 -0.8998
  732TIP3    H223832   6.242   2.428   0.820  1.9488  0.8456  0.3053
  733TIP3   OH223833   4.330   3.679   1.492  0.0351  0.0749 -0.4811
  733TIP3    H123834   4.360   3.624   1.420  1.3095 -0.7344  0.6115
  733TIP3    H223835   4.263   3.627   1.536  1.5314 -0.8641  0.8007
  734TIP3   OH223836   1.636   4.231   1.516 -0.2074  0.6199  0.0541
  734TIP3    H123837   1.650   4.283   1.595 -1.0188 -1.3227  1.5738
  734TIP3    H223838   1.541   4.217   1.513 -0.1268  0.2243 -0.9701
  735TIP3   OH223839   1.881   1.992   1.166  0.7039 -0.6455  0.4390
  735TIP3    H123840   1.942   2.059   1.200  0.5426 -0.7604  0.9613
  735TIP3    H223841   1.831   2.038   1.099  0.6138 -0.2461  0.7753
  736TIP3   OH223842   4.168   5.224   0.793  0.6608 -0.8432 -0.1260
  736TIP3    H123843   4.135   5.139   0.763 -0.8135 -0.2275 -0.3248
  736TIP3    H223844   4.178   5.214   0.888 -0.4897 -0.9296 -0.0077
  737TIP3   OH223845   1.661   2.813   2.022  0.6310 -0.5102  0.3261
  737TIP3    H123846   1.566   2.826   2.025  0.4578 -1.7155  0.3369
  737TIP3    H223847   1.681   2.802   1.929  0.8074  0.0239  0.2966
  738TIP3   OH223848   6.334   0.678   0.148 -0.1219 -0.4372 -0.3587
  738TIP3    H123849   6.352   0.618   0.220 -0.0565 -0.3340 -0.2882
  738TIP3    H223850   6.241   0.698   0.155 -0.4804 -1.6564 -1.2456
  739TIP3   OH223851   3.144   6.428   0.493 -0.1453  0.1283  0.1755
  739TIP3    H123852   3.224   6.469   0.527 -0.4474  1.1002 -0.2754
  739TIP3    H223853   3.174   6.344   0.457  0.1407 -1.2235  3.2283
  740TIP3   OH223854   1.969   6.262   7.802 -0.5697  0.0895  0.4688
  740TIP3    H123855   2.016   6.190   7.758 -0.2992 -1.4725  3.0573
  740TIP3    H223856   1.877   6.247   7.781 -0.3037  0.7183 -1.2984
  741TIP3   OH223857   6.647   3.460   6.767 -0.2094 -0.3987  0.3338
  741TIP3    H123858   6.594   3.462   6.847 -0.7468 -1.8489  0.0498
  741TIP3    H223859   6.605   3.394   6.712  1.1295 -0.6337 -0.4588
  742TIP3   OH223860   2.762   1.539   0.880  0.1295  0.0184  0.2182
  742TIP3    H123861   2.847   1.495   0.875 -0.2064 -0.5378 -1.1196
  742TIP3    H223862   2.746   1.549   0.973  0.7219 -1.7481  0.5494
  743TIP3   OH223863   2.776   4.514   0.913  0.0013  0.0304  0.4526
  743TIP3    H123864   2.872   4.513   0.920 -0.0180  1.7417  1.4408
  743TIP3    H223865   2.755   4.601   0.880 -1.1969 -0.5950 -0.5029
  744TIP3   OH223866   1.855   1.115   8.073 -0.1085  0.4746  0.4266
  744TIP3    H123867   1.912   1.176   8.027 -0.7807  1.3213  0.6908
  744TIP3    H223868   1.840   1.155   8.158  0.2174 -0.5335  0.9741
  745TIP3   OH223869   3.895   6.665   3.530 -0.3321  0.5605 -0.3083
  745TIP3    H123870   3.893   6.707   3.444 -1.4242 -1.2596 -1.2215
  745TIP3    H223871   3.805   6.674   3.563 -0.8050 -1.6602 -0.8714
  746TIP3   OH223872   5.503   0.924   3.156 -0.3218  0.0286 -0.6265
  746TIP3    H123873   5.428   0.871   3.181  0.7437 -0.3756  1.9533
  746TIP3    H223874   5.499   1.001   3.214  0.5890  0.6040 -1.2926
  747TIP3   OH223875   2.743   5.625   0.234 -0.6293  0.2798  0.1836
  747TIP3    H123876   2.693   5.600   0.311 -1.6169  0.0802 -0.5008
  747TIP3    H223877   2.743   5.720   0.234 -0.3874  0.2819  0.5720
  748TIP3   OH223878   3.405   4.723   1.511  0.4204 -0.2339  0.0826
  748TIP3    H123879   3.388   4.663   1.583 -0.5579  0.3302  0.3458
  748TIP3    H223880   3.382   4.673   1.432 -0.3511 -0.2361  0.2975
  749TIP3   OH223881   5.277   3.275   1.580  0.3671 -0.6269 -0.4448
  749TIP3    H123882   5.354   3.329   1.566 -0.6977  1.4157  1.0004
  749TIP3    H223883   5.204   3.328   1.547 -0.7610 -0.9828  1.2968
  750TIP3   OH223884   4.656   2.001   0.416  0.2334 -0.3321 -0.1162
  750TIP3    H123885   4.698   1.920   0.446 -2.1573 -1.4699  0.3508
  750TIP3    H223886   4.596   2.025   0.487  2.1511  2.9601  0.6164
  751TIP3   OH223887   1.564   1.077   2.755  0.3965  0.2711 -1.1262
  751TIP3    H123888   1.523   1.033   2.830  1.6990 -1.0983 -1.1580
  751TIP3    H223889   1.608   1.006   2.708  1.5115  1.4435 -1.9030
  752TIP3   OH223890   3.994   2.282   0.454  0.0027  0.1999 -0.2543
  752TIP3    H123891   3.956   2.350   0.511  0.8820 -0.6847  1.4847
  752TIP3    H223892   4.084   2.312   0.440  0.8041 -1.1514  1.5892
  753TIP3   OH223893   4.289   5.197   0.216 -0.3693  0.1056 -0.1643
  753TIP3    H123894   4.353   5.267   0.226 -0.3045 -0.1469  1.6464
  753TIP3    H223895   4.333   5.132   0.161  1.4124 -0.4968  1.7954
  754TIP3   OH223896   4.160   0.884   7.817  0.5184 -0.3712 -0.4384
  754TIP3    H123897   4.191   0.794   7.825  1.4135 -0.0136  0.2847
  754TIP3    H223898   4.135   0.910   7.906 -0.2265 -0.0779 -0.7283
  755TIP3   OH223899   3.380   1.812   0.302  0.2579 -0.2004  0.0493
  755TIP3    H123900   3.344   1.790   0.216  1.5182 -0.6351 -0.3905
  755TIP3    H223901   3.417   1.730   0.334  0.2671  0.0848  0.7691
  756TIP3   OH223902   6.741   0.109   7.731  0.4096  0.0584  0.1824
  756TIP3    H123903   6.717   0.198   7.755 -0.0198  0.0728 -0.2910
  756TIP3    H223904   6.696   0.093   7.648  0.8087 -0.4564  0.0599
  757TIP3   OH223905   6.442   0.132   6.983  0.1607  0.0813 -0.5216
  757TIP3    H123906   6.408   0.045   7.001  1.3806 -0.4272 -0.5725
  757TIP3    H223907   6.368   0.179   6.944 -0.5652 -0.8645 -0.3260
  758TIP3   OH223908   1.029   5.208   6.835  0.2546  0.0975 -0.4616
  758TIP3    H123909   1.098   5.247   6.780  0.9356  0.7670  0.8260
  758TIP3    H223910   0.949   5.220   6.784  0.8453  0.8547 -1.2466
  759TIP3   OH223911   2.296   4.341   6.956  0.1877  0.2398 -0.1901
  759TIP3    H123912   2.365   4.286   6.993 -0.5297 -0.2988  0.3796
  759TIP3    H223913   2.240   4.280   6.909  0.9711  0.8824 -2.0572
  760TIP3   OH223914   3.524   4.126   6.210  0.0881  0.1466 -0.4977
  760TIP3    H123915   3.567   4.143   6.126 -0.5322 -0.4891 -0.9641
  760TIP3    H223916   3.595   4.100   6.269  0.2411 -2.5306 -1.6992
  761TIP3   OH223917   2.642   2.676   7.889 -0.0384 -0.2633 -0.0290
  761TIP3    H123918   2.561   2.727   7.878  1.2473  1.9252  0.0809
  761TIP3    H223919   2.660   2.640   7.803 -0.1614  0.8259 -0.5280
  762TIP3   OH223920   4.862   3.050   0.451  0.2904  0.1761  0.6128
  762TIP3    H123921   4.826   3.121   0.505 -0.2725  0.7475 -0.4954
  762TIP3    H223922   4.786   3.001   0.422  0.5151  0.4357 -0.4368
  763TIP3   OH223923   0.330   5.023   0.753 -0.2540  0.0693 -0.3959
  763TIP3    H123924   0.414   5.061   0.778 -0.6882  0.2231  0.8759
  763TIP3    H223925   0.328   4.938   0.796 -0.5227 -0.1765 -0.8809
  764TIP3   OH223926   3.718   5.723   7.292  0.7001 -0.0566  0.5423
  764TIP3    H123927   3.664   5.795   7.260 -0.2271  0.3951  2.9318
  764TIP3    H223928   3.792   5.765   7.335  3.2019 -0.6662 -2.7599
  765TIP3   OH223929   6.314   2.840   0.917 -0.7884 -0.5962  0.1833
  765TIP3    H123930   6.397   2.793   0.914 -0.8977 -0.7504 -0.4766
  765TIP3    H223931   6.314   2.883   1.002 -0.7380 -1.8759  0.8550
  766TIP3   OH223932   3.008   5.443   6.795  0.1966  0.0037  0.0147
  766TIP3    H123933   3.066   5.495   6.850 -0.1002 -0.2824  0.6103
  766TIP3    H223934   3.055   5.360   6.782 -1.1132 -1.2838  2.6742
  767TIP3   OH223935   5.121   5.739   0.905  0.2619  0.1389  0.6913
  767TIP3    H123936   5.088   5.810   0.960 -0.0884  0.5289 -0.0179
  767TIP3    H223937   5.157   5.782   0.828 -0.4623 -0.4720 -0.0052
  768TIP3   OH223938   2.066   0.366   1.894  0.0491 -0.0529  0.9283
  768TIP3    H123939   2.122   0.291   1.874 -1.1666 -0.4178 -1.5614
  768TIP3    H223940   2.120   0.442   1.869  0.9039 -0.1225  2.4792
  769TIP3   OH223941   1.308   1.827   1.780 -0.2024 -0.4649  0.2251
  769TIP3    H123942   1.366   1.850   1.853  0.3995 -0.2986 -0.2994
  769TIP3    H223943   1.311   1.731   1.776 -1.6612 -0.6080  1.5567
  770TIP3   OH223944   1.856   0.078   3.117 -0.1085 -0.4664  0.2152
  770TIP3    H123945   1.786   0.041   3.171 -0.6289  0.5069  0.2283
  770TIP3    H223946   1.936   0.041   3.153 -0.5940 -1.4084  0.3554
  771TIP3   OH223947   4.236   3.717   7.411  0.0211  0.2156 -0.4580
  771TIP3    H123948   4.193   3.797   7.380 -0.1229  0.5613  0.6034
  771TIP3    H223949   4.321   3.746   7.443 -0.0836 -0.0218  0.0501
  772TIP3   OH223950   5.932   6.883   7.999 -0.3698 -1.0644 -0.5482
  772TIP3    H123951   5.942   6.916   8.089  0.2356 -0.4927 -0.8172
  772TIP3    H223952   5.933   6.962   7.945 -1.1890 -1.3796 -1.0224
  773TIP3   OH223953   1.423   6.174   8.142 -0.0910 -0.4635  0.6554
  773TIP3    H123954   1.335   6.137   8.137 -0.2152  0.0257 -1.3747
  773TIP3    H223955   1.478   6.111   8.097  0.0432  0.7443 -0.9493
  774TIP3   OH223956   0.140   1.452   2.003 -0.6951  0.0749  0.0619
  774TIP3    H123957   0.205   1.382   1.994 -1.2500 -1.0218  3.4114
  774TIP3    H223958   0.059   1.414   1.970 -0.2660  0.5670 -1.7061
  775TIP3   OH223959   1.526   4.449   8.176  0.0868  0.2150  0.5235
  775TIP3    H123960   1.598   4.421   8.119 -1.8767 -0.1124 -1.9338
  775TIP3    H223961   1.454   4.390   8.155 -2.1519  2.9354 -0.0429
  776TIP3   OH223962   1.867   1.556   8.008 -0.1233  0.2949  0.4537
  776TIP3    H123963   1.899   1.646   8.000 -1.0212  0.8833  2.5820
  776TIP3    H223964   1.781   1.557   7.964 -0.9596  1.0193  2.0232
  777TIP3   OH223965   2.511   3.222   7.859 -0.4901  0.7192  0.0057
  777TIP3    H123966   2.447   3.219   7.787 -0.2643 -1.4635 -0.1530
  777TIP3    H223967   2.595   3.207   7.816 -0.3042 -0.1471  0.6627
  778TIP3   OH223968   2.366   6.623   7.517  0.5401 -0.1871 -0.2719
  778TIP3    H123969   2.414   6.606   7.436  0.3441  0.2536 -0.4885
  778TIP3    H223970   2.414   6.694   7.559 -0.2155  0.6385 -0.7626
  779TIP3   OH223971   6.024   5.071   7.690  0.2524 -0.4201  0.6128
  779TIP3    H123972   6.029   5.128   7.613  1.2858  0.9250  1.6302
  779TIP3    H223973   6.096   5.009   7.678 -1.4062 -2.1643 -0.9322
  780TIP3   OH223974   6.060   6.758   2.410  0.3286 -1.0077 -0.1533
  780TIP3    H123975   6.039   6.669   2.436  2.0915 -0.9179  1.8243
  780TIP3    H223976   5.991   6.811   2.450  1.2745 -1.1921  1.8364
  781TIP3   OH223977   5.771   0.885   0.660  0.4488  0.1866 -0.2534
  781TIP3    H123978   5.735   0.958   0.710 -0.0838 -0.0897 -0.2284
  781TIP3    H223979   5.695   0.845   0.618  0.9183  0.7213 -1.7023
  782TIP3   OH223980   6.742   4.979   1.053  0.0416 -0.4423  0.3997
  782TIP3    H123981   6.781   4.926   0.983 -1.4221 -1.2410  0.1505
  782TIP3    H223982   6.817   5.021   1.095  1.3045 -2.7428  0.6234
  783TIP3   OH223983   4.744   2.083   0.820 -0.6248 -0.2012 -0.0471
  783TIP3    H123984   4.697   2.012   0.776  1.9941 -1.3607 -1.2024
  783TIP3    H223985   4.820   2.040   0.858  0.9875  1.9447 -0.6650
  784TIP3   OH223986   5.536   4.877   8.126  0.4664  0.3647 -0.2858
  784TIP3    H123987   5.610   4.890   8.066  0.4395  1.0557 -0.1826
  784TIP3    H223988   5.461   4.862   8.068  0.8014 -1.0627 -0.3783
  785TIP3   OH223989   4.905   0.912   1.677 -1.0619  0.1163  0.6408
  785TIP3    H123990   4.986   0.903   1.628 -1.6296 -0.6749 -0.1695
  785TIP3    H223991   4.923   0.981   1.741 -0.0536  0.5743 -0.1266
  786TIP3   OH223992   1.274   1.947   1.527 -0.3306  0.5637  0.0325
  786TIP3    H123993   1.283   1.899   1.609 -0.1088  1.1190  0.3330
  786TIP3    H223994   1.356   1.930   1.480  0.3838  1.8476  0.7787
  787TIP3   OH223995   2.379   4.405   0.774  0.2353 -0.0268 -0.0195
  787TIP3    H123996   2.358   4.498   0.789 -2.2935 -0.4397 -0.4783
  787TIP3    H223997   2.398   4.371   0.861  1.1733  0.9156  0.1582
  788TIP3   OH223998   5.036   2.125   7.424  0.1103  0.2296  0.0495
  788TIP3    H123999   5.105   2.161   7.480 -0.5845  2.0863 -0.2151
  788TIP3    H224000   4.956   2.133   7.477 -0.5735  2.1022 -1.1653
  789TIP3   OH224001   4.431   2.235   7.973 -0.3768  0.8382 -0.5466
  789TIP3    H124002   4.488   2.181   8.028 -0.3295  1.2601 -0.1737
  789TIP3    H224003   4.474   2.320   7.972 -2.0923  1.8372  1.5910
  790TIP3   OH224004   2.021   2.318   2.261  0.1517 -0.8438  0.1800
  790TIP3    H124005   2.066   2.370   2.194 -0.6698 -0.9981 -0.5092
  790TIP3    H224006   1.988   2.383   2.323  1.8180 -0.7655  1.0380
  791TIP3   OH224007   4.030   5.620   1.637  0.7508 -0.4914  0.6824
  791TIP3    H124008   4.031   5.528   1.665 -0.8291 -0.5151  0.7228
  791TIP3    H224009   3.969   5.663   1.697 -0.3863  0.0789 -0.8220
  792TIP3   OH224010   0.517   5.493   1.513 -0.4452 -0.2071  0.4288
  792TIP3    H124011   0.444   5.535   1.559 -1.0506 -1.2397  0.4361
  792TIP3    H224012   0.496   5.503   1.420 -0.3585 -0.0859  0.4227
  793TIP3   OH224013   5.627   3.748   2.367  0.3016 -0.1639  0.0263
  793TIP3    H124014   5.685   3.823   2.380 -1.1718  0.6913  2.2141
  793TIP3    H224015   5.674   3.674   2.408 -0.7797  0.8997  3.5569
  794TIP3   OH224016   3.469   2.504   1.579  0.2368 -0.1583  0.2149
  794TIP3    H124017   3.404   2.488   1.510  0.9762  0.7806 -0.7325
  794TIP3    H224018   3.467   2.424   1.632 -2.8119  0.4374  1.1984
  795TIP3   OH224019   4.240   3.155   7.465  0.0728 -0.3031 -0.7124
  795TIP3    H124020   4.245   3.245   7.496  0.3598  0.2513 -2.2742
  795TIP3    H224021   4.147   3.137   7.457  0.0008  0.5831 -2.2898
  796TIP3   OH224022   1.315   3.245   1.127 -0.2428 -0.0628 -0.4398
  796TIP3    H124023   1.306   3.193   1.047 -1.8965 -1.5506  0.6483
  796TIP3    H224024   1.357   3.187   1.189  0.3680  0.8412  0.0167
  797TIP3   OH224025   2.952   5.874   6.235 -0.3470  0.6060 -0.0457
  797TIP3    H124026   3.023   5.912   6.183  0.1987  0.5730  0.6642
  797TIP3    H224027   2.996   5.817   6.298 -1.0805 -0.2937 -0.3251
  798TIP3   OH224028   3.453   0.619   7.108  0.3562  0.0007  0.0073
  798TIP3    H124029   3.499   0.689   7.154  0.5315  0.4512 -0.8262
  798TIP3    H224030   3.361   0.646   7.110  0.0946 -0.8962  1.6665
  799TIP3   OH224031   5.140   4.342   7.520 -0.5085 -0.7423 -0.1030
  799TIP3    H124032   5.199   4.404   7.478  0.1706 -0.7583  0.7896
  799TIP3    H224033   5.123   4.380   7.606 -1.2633 -1.0790 -0.0941
  800TIP3   OH224034   4.538   1.927   0.157 -0.1769  0.2789 -0.6024
  800TIP3    H124035   4.543   1.831   0.153 -0.4279  0.2282  0.1081
  800TIP3    H224036   4.563   1.948   0.247 -0.6284  0.8467 -0.6036
  801TIP3   OH224037   4.022   0.462   8.501 -0.2674 -0.4380 -0.0783
  801TIP3    H124038   4.096   0.521   8.515  0.7917 -1.6606 -0.2825
  801TIP3    H224039   4.004   0.425   8.588 -0.7735  0.0069  0.0071
  802TIP3   OH224040   6.671   1.752   2.370  0.0101 -0.1304  0.4067
  802TIP3    H124041   6.712   1.791   2.448 -0.6908  1.9202 -0.1847
  802TIP3    H224042   6.692   1.813   2.300  0.7962 -2.0381 -1.1076
  803TIP3   OH224043   2.056   5.179   6.930  0.0184 -0.0459 -0.3010
  803TIP3    H124044   2.066   5.265   6.889  2.0467 -0.7643 -1.4503
  803TIP3    H224045   1.962   5.173   6.950 -0.9043  0.9164 -3.6672
  804TIP3   OH224046   2.938   5.207   7.357  0.1614 -0.2121 -0.1159
  804TIP3    H124047   2.989   5.135   7.320 -0.9530 -0.5508 -1.0520
  804TIP3    H224048   2.847   5.178   7.349 -0.3723  1.6153 -1.2488
  805TIP3   OH224049   0.078   2.761   2.237 -0.3888 -0.5033 -0.3458
  805TIP3    H124050   0.172   2.771   2.257 -0.1906 -2.0919 -0.3519
  805TIP3    H224051   0.058   2.671   2.262 -1.6473 -0.5505 -1.4534
  806TIP3   OH224052   2.941   2.783   7.625  0.0483 -0.4222  0.8108
  806TIP3    H124053   2.869   2.728   7.594  1.8761 -2.8607  0.5851
  806TIP3    H224054   3.003   2.783   7.553  0.3816  1.5030  1.0653
  807TIP3   OH224055   5.874   2.672   1.922 -0.0450 -0.1756  0.0421
  807TIP3    H124056   5.932   2.679   1.998 -0.3275 -0.3789  0.2758
  807TIP3    H224057   5.797   2.626   1.954 -0.3458  0.1081 -0.2653
  808TIP3   OH224058   5.330   1.685   8.086  0.2424  0.1743 -0.5172
  808TIP3    H124059   5.274   1.732   8.147 -0.3919  0.9602 -1.6772
  808TIP3    H224060   5.324   1.594   8.114 -1.2446  0.3030 -0.3333
  809TIP3   OH224061   1.264   3.712   1.408  0.1798  0.0289 -0.0799
  809TIP3    H124062   1.231   3.666   1.486 -1.8631  2.9833  0.9969
  809TIP3    H224063   1.354   3.734   1.429  0.0026 -0.2058  0.9850
  810TIP3   OH224064   1.618   5.161   1.991 -0.0536  0.2161  0.4634
  810TIP3    H124065   1.691   5.212   1.957  1.1546 -0.9013  1.2761
  810TIP3    H224066   1.636   5.071   1.963 -1.0912 -0.0957  0.7353
  811TIP3   OH224067   6.042   0.389   7.306  0.4213  0.7640  0.4174
  811TIP3    H124068   5.999   0.468   7.274  2.3302  1.0175 -1.7588
  811TIP3    H224069   5.985   0.318   7.277 -1.2592  1.2590  2.3086
  812TIP3   OH224070   0.733   5.417   1.966 -0.0612 -0.3225 -0.4623
  812TIP3    H124071   0.730   5.512   1.950  0.7648 -0.5069 -1.8270
  812TIP3    H224072   0.779   5.409   2.049 -1.2184  0.5159  0.2960
  813TIP3   OH224073   3.487   6.160   0.624 -0.4847  0.0633  0.0354
  813TIP3    H124074   3.507   6.231   0.564 -0.3935 -0.2218 -0.2704
  813TIP3    H224075   3.423   6.197   0.686 -0.4846  0.3875 -0.1631
  814TIP3   OH224076   5.530   6.361   7.349 -0.0037  0.1477  0.4811
  814TIP3    H124077   5.557   6.429   7.411 -0.2727  1.0353 -0.3487
  814TIP3    H224078   5.588   6.373   7.274  0.1409 -0.7426  0.4344
  815TIP3   OH224079   2.171   1.648   0.762 -0.4632  0.2749 -0.5769
  815TIP3    H124080   2.188   1.684   0.849 -0.3006 -1.2907  0.0730
  815TIP3    H224081   2.236   1.690   0.706  0.6706 -0.0475  0.4316
  816TIP3   OH224082   3.085   2.393   7.445  0.7145  0.1449 -0.1679
  816TIP3    H124083   3.157   2.387   7.383  0.5585 -1.1764 -0.2468
  816TIP3    H224084   3.051   2.304   7.451 -2.1833  1.0322 -1.6430
  817TIP3   OH224085   5.135   2.638   7.729 -0.5472  0.0100 -0.1895
  817TIP3    H124086   5.106   2.574   7.663  1.4913 -0.4855 -0.6856
  817TIP3    H224087   5.229   2.621   7.738 -0.0633  2.5444  0.1362
  818TIP3   OH224088   6.664   4.132   7.316 -0.3083 -0.0256  0.1102
  818TIP3    H124089   6.743   4.095   7.277 -0.7146 -0.7352 -0.0668
  818TIP3    H224090   6.638   4.068   7.382 -1.2796 -0.3011 -0.5143
  819TIP3   OH224091   0.596   4.728   7.085 -0.2928  0.4844  0.3630
  819TIP3    H124092   0.659   4.800   7.095  0.6904 -0.6117  2.8139
  819TIP3    H224093   0.603   4.703   6.993 -0.2829  3.1189 -0.4562
  820TIP3   OH224094   2.352   3.092   2.527 -0.2231  0.2607 -0.4473
  820TIP3    H124095   2.448   3.092   2.518 -0.2885 -0.1942 -1.2787
  820TIP3    H224096   2.320   3.088   2.437 -1.0395  0.9560 -0.2029
  821TIP3   OH224097   1.194   1.966   6.730  0.3361 -0.8040 -0.5564
  821TIP3    H124098   1.234   1.898   6.784  1.5424 -0.6899 -1.2591
  821TIP3    H224099   1.106   1.933   6.711 -0.4976 -0.4290  2.1802
  822TIP3   OH224100   0.582   4.046   2.319 -0.7484  0.2118 -0.1112
  822TIP3    H124101   0.589   3.954   2.347  1.2645 -0.3927 -2.2689
  822TIP3    H224102   0.669   4.082   2.336 -1.4457  1.6831  0.4575
  823TIP3   OH224103   0.478   2.301   0.955  0.0720  0.6204 -0.0952
  823TIP3    H124104   0.474   2.367   1.024 -0.9781  2.5572 -1.8541
  823TIP3    H224105   0.462   2.218   0.999  0.9899  1.5801  2.1672
  824TIP3   OH224106   1.786   6.127   0.289 -0.9651 -0.4854 -0.1332
  824TIP3    H124107   1.859   6.132   0.351 -0.4924 -0.4423 -0.6913
  824TIP3    H224108   1.805   6.050   0.236  0.0449  0.9732 -1.9985
  825TIP3   OH224109   1.173   2.236   7.845 -0.0057  0.2064  0.4155
  825TIP3    H124110   1.129   2.255   7.762 -0.8808  0.2773  0.8785
  825TIP3    H224111   1.222   2.156   7.829  0.5014  0.6629 -0.4016
  826TIP3   OH224112   3.723   6.706   0.807 -0.0885 -1.0381 -0.0767
  826TIP3    H124113   3.665   6.689   0.732 -0.9426 -0.6544  0.4839
  826TIP3    H224114   3.795   6.643   0.796  0.5690 -0.0311 -1.9918
  827TIP3   OH224115   5.172   6.610   2.734  0.0991  0.2851 -0.4771
  827TIP3    H124116   5.089   6.586   2.774  0.3427  1.4277  0.7891
  827TIP3    H224117   5.230   6.536   2.751 -0.5696 -0.4185 -1.1634
  828TIP3   OH224118   5.119   4.392   0.859  0.4465 -0.2337  0.2528
  828TIP3    H124119   5.189   4.447   0.823 -1.3895  0.7035 -2.1619
  828TIP3    H224120   5.090   4.339   0.785 -3.1510  1.3459  0.2818
  829TIP3   OH224121   1.618   4.257   0.560 -0.0724 -0.3207  0.1626
  829TIP3    H124122   1.652   4.313   0.630 -2.5430  2.1539 -0.4369
  829TIP3    H224123   1.594   4.175   0.603 -2.0609  1.3315  2.4469
  830TIP3   OH224124   4.353   0.744   1.856  0.1685 -0.0932  0.4519
  830TIP3    H124125   4.371   0.679   1.788 -0.6025  0.7763 -0.6174
  830TIP3    H224126   4.371   0.828   1.815  0.5737  0.4126  1.6239
  831TIP3   OH224127   2.544   1.941   3.154 -0.6573  0.6601 -0.0142
  831TIP3    H124128   2.600   1.894   3.215  0.1899 -0.3047 -1.4985
  831TIP3    H224129   2.556   2.033   3.177  1.3884  0.4705 -0.1450
  832TIP3   OH224130   2.084   4.425   7.159  0.6389 -0.1761 -0.3047
  832TIP3    H124131   2.143   4.483   7.111 -0.3937  0.2032 -1.1602
  832TIP3    H224132   2.133   4.343   7.169  0.2532 -0.9389 -3.6904
  833TIP3   OH224133   2.574   6.336   8.105 -0.3626 -0.0805 -0.7010
  833TIP3    H124134   2.488   6.325   8.146 -0.2626 -1.7922 -0.8641
  833TIP3    H224135   2.636   6.305   8.170  0.3430  2.7134  0.0696
  834TIP3   OH224136   0.793   4.626   0.418  0.1215  0.5179  0.0607
  834TIP3    H124137   0.822   4.678   0.493  1.7263  1.7644 -1.3358
  834TIP3    H224138   0.767   4.690   0.352 -0.3664 -0.5158 -0.7961
  835TIP3   OH224139   0.673   0.696   3.160  0.3220  0.1983  0.0602
  835TIP3    H124140   0.578   0.707   3.152 -0.0782 -1.9338  1.2397
  835TIP3    H224141   0.686   0.657   3.246  2.4423  1.8016  0.5515
  836TIP3   OH224142   6.694   0.397   7.784 -0.3126  0.0112 -0.1906
  836TIP3    H124143   6.642   0.449   7.846  1.5818  1.4945  0.2689
  836TIP3    H224144   6.780   0.390   7.826  0.3932 -0.8180 -1.7109
  837TIP3   OH224145   6.769   5.832   7.761  0.4393 -0.6993  0.0662
  837TIP3    H124146   6.794   5.922   7.740 -1.6617 -0.2216 -0.5996
  837TIP3    H224147   6.850   5.782   7.753  2.4322  1.5322  3.5376
  838TIP3   OH224148   0.199   6.864   1.275 -0.3402 -0.4893 -0.8965
  838TIP3    H124149   0.253   6.827   1.345 -1.8049  0.0028  0.5373
  838TIP3    H224150   0.251   6.938   1.241  0.7314 -1.2236 -0.9161
  839TIP3   OH224151   1.824   2.223   2.037  0.3482 -0.3210 -0.0715
  839TIP3    H124152   1.911   2.247   2.071  1.1786  0.7922 -2.7188
  839TIP3    H224153   1.787   2.306   2.008 -1.0012 -0.9951 -0.3266
  840TIP3   OH224154   6.114   3.699   0.613  0.1876  0.5343  0.3533
  840TIP3    H124155   6.030   3.727   0.649  0.0602  1.2651 -0.4666
  840TIP3    H224156   6.179   3.753   0.658  0.1465  0.5004  0.4523
  841TIP3   OH224157   6.755   4.725   0.568  0.2666  0.2391 -1.0030
  841TIP3    H124158   6.670   4.684   0.583 -1.0027  2.2607 -2.2093
  841TIP3    H224159   6.816   4.651   0.557 -0.9835 -1.2713  1.3239
  842TIP3   OH224160   4.980   6.269   7.214 -0.1775 -0.3199  0.3810
  842TIP3    H124161   4.904   6.264   7.155 -1.0062 -1.9720  1.5211
  842TIP3    H224162   5.052   6.232   7.163 -0.3393  0.3914 -0.3835
  843TIP3   OH224163   2.070   6.348   8.044 -0.2874  0.1561 -0.1662
  843TIP3    H124164   2.024   6.320   7.965 -2.4962  0.0296  1.0932
  843TIP3    H224165   2.131   6.276   8.063  0.0714  0.0631 -1.5517
  844TIP3   OH224166   1.099   1.955   1.327  0.5393 -0.4428 -0.4424
  844TIP3    H124167   1.126   2.035   1.283 -2.0138  1.8721  1.8081
  844TIP3    H224168   1.154   1.952   1.406 -1.1869  0.7791  0.8977
  845TIP3   OH224169   4.683   3.545   7.373  0.2336  0.1047  0.0735
  845TIP3    H124170   4.758   3.516   7.321  0.6647 -0.3825  0.9391
  845TIP3    H224171   4.712   3.537   7.463 -1.0726 -0.7025  0.4485
  846TIP3   OH224172   3.952   0.989   0.336 -0.0321 -0.5218 -0.6031
  846TIP3    H124173   4.010   1.065   0.331 -1.2735  0.4071 -1.2329
  846TIP3    H224174   3.888   1.012   0.403  0.6497 -1.7946  0.5263
  847TIP3   OH224175   4.621   0.160   2.115  0.6036 -0.2797  0.2476
  847TIP3    H124176   4.637   0.153   2.209 -0.2820 -0.2024  0.4062
  847TIP3    H224177   4.526   0.164   2.106  0.6269 -1.3111 -0.7226
  848TIP3   OH224178   2.508   1.724   2.987  0.0961  0.1823 -0.3609
  848TIP3    H124179   2.513   1.805   3.037 -1.4462 -0.4605  0.9289
  848TIP3    H224180   2.588   1.723   2.935  0.9939  1.6613  0.8961
  849TIP3   OH224181   5.165   6.044   2.356 -0.9898 -0.0912 -0.2034
  849TIP3    H124182   5.104   6.039   2.429  1.0710 -2.4930  1.4990
  849TIP3    H224183   5.137   5.976   2.295 -0.6612 -0.4693  0.0638
  850TIP3   OH224184   2.522   5.052   7.088 -0.7028 -0.0916  0.5109
  850TIP3    H124185   2.490   5.048   6.997 -0.1972 -1.7947  0.3720
  850TIP3    H224186   2.466   4.991   7.135  0.8326 -1.3615  0.7402
  851TIP3   OH224187   4.145   3.160   6.861 -0.2089  0.0725  0.5614
  851TIP3    H124188   4.128   3.154   6.767 -1.5238 -1.4787  0.8553
  851TIP3    H224189   4.235   3.193   6.867 -0.8003  2.2315 -1.1873
  852TIP3   OH224190   6.128   2.458   7.783  0.0340  0.5988 -0.5963
  852TIP3    H124191   6.085   2.510   7.851 -1.0949 -0.5266 -0.4156
  852TIP3    H224192   6.082   2.374   7.784  2.6051 -0.8995 -0.0090
  853TIP3   OH224193   3.258   5.260   0.004  0.3676  0.6413 -0.1067
  853TIP3    H124194   3.222   5.347   0.022 -1.8802  0.0608 -1.4876
  853TIP3    H224195   3.185   5.209  -0.030  1.7517 -1.6595  0.1006
  854TIP3   OH224196   4.219   0.907   0.659  0.2251  0.4338 -0.1585
  854TIP3    H124197   4.217   0.848   0.584 -1.3116  0.0875  0.1276
  854TIP3    H224198   4.221   0.995   0.620 -0.8790  0.2649 -0.6147
  855TIP3   OH224199   3.058   5.063   6.739  0.3487  0.0858  0.0861
  855TIP3    H124200   3.135   5.119   6.735  1.4648 -1.3714  0.1983
  855TIP3    H224201   2.995   5.104   6.679  2.1441 -0.0110 -1.9826
  856TIP3   OH224202   2.698   5.401   0.469 -0.3647  0.1505  0.7787
  856TIP3    H124203   2.619   5.414   0.417  1.1036 -1.0267 -1.9889
  856TIP3    H224204   2.672   5.340   0.538 -1.6647 -1.1272 -0.7627
  857TIP3   OH224205   2.660   4.497   1.708  0.2576 -0.0003  0.4197
  857TIP3    H124206   2.586   4.449   1.671  0.5468 -1.1815  1.3114
  857TIP3    H224207   2.676   4.454   1.792  1.7359  0.4613  0.3968
  858TIP3   OH224208   3.238   2.263   0.894 -0.2529 -0.5789 -0.1713
  858TIP3    H124209   3.150   2.300   0.890  0.8832  2.6825  0.8987
  858TIP3    H224210   3.287   2.313   0.829  1.2657 -0.7142  0.8133
  859TIP3   OH224211   3.012   5.967   7.844  0.2438  0.6134 -1.1038
  859TIP3    H124212   2.947   5.965   7.775  0.2276 -1.5044 -1.1163
  859TIP3    H224213   2.977   6.027   7.909 -1.3517  0.1309 -1.4720
  860TIP3   OH224214   2.623   3.645   6.540 -0.3153 -0.3097 -0.0214
  860TIP3    H124215   2.703   3.623   6.588 -0.3529 -0.0006  0.1874
  860TIP3    H224216   2.557   3.586   6.574 -0.7488  0.9803  1.5052
  861TIP3   OH224217   2.133   3.774   2.121  0.1626 -0.2469 -0.1491
  861TIP3    H124218   2.117   3.852   2.068 -0.3697 -0.4770 -0.3386
  861TIP3    H224219   2.057   3.769   2.179 -0.0806 -0.9330 -0.5162
  862TIP3   OH224220   0.060   5.991   7.662  0.6332  0.0862  0.2503
  862TIP3    H124221   0.143   5.945   7.677  0.2571 -1.0900 -1.0774
  862TIP3    H224222   0.086   6.076   7.628  1.3148  0.1972  1.0016
  863TIP3   OH224223   6.179   2.486   1.520  0.6523 -0.1695  0.7192
  863TIP3    H124224   6.246   2.548   1.492  0.8605  0.3217  2.2104
  863TIP3    H224225   6.145   2.523   1.601  0.8064 -2.0094  1.6763
  864TIP3   OH224226   4.701   6.763   0.434 -0.0628 -0.0884  1.1449
  864TIP3    H124227   4.699   6.847   0.390  0.4122 -0.5759  0.1738
  864TIP3    H224228   4.751   6.779   0.515  0.3625  0.4670  0.7752
  865TIP3   OH224229   4.622   0.710   2.343 -0.2665  0.4650 -0.0630
  865TIP3    H124230   4.608   0.672   2.257  0.2377 -0.6311  0.3275
  865TIP3    H224231   4.539   0.696   2.389 -0.8122  1.7486 -0.6003
  866TIP3   OH224232   2.644   5.482   1.388  0.2033  0.3377  0.1253
  866TIP3    H124233   2.697   5.472   1.309 -0.1175  1.6997 -0.3009
  866TIP3    H224234   2.628   5.577   1.394 -2.5864 -0.0307 -0.0712
  867TIP3   OH224235   1.143   0.859   1.561  0.0149  0.0451 -0.4452
  867TIP3    H124236   1.204   0.806   1.511  0.1286  0.8435 -1.1712
  867TIP3    H224237   1.182   0.865   1.648 -0.0484 -1.1273 -0.3241
  868TIP3   OH224238   6.146   4.564   0.383  0.0062 -0.5635 -0.0972
  868TIP3    H124239   6.169   4.540   0.293 -0.0222  1.7061 -0.7672
  868TIP3    H224240   6.205   4.512   0.437 -0.3321 -2.3750 -1.3836
  869TIP3   OH224241   4.958   0.883   7.766  0.5451 -0.2592 -0.2226
  869TIP3    H124242   4.956   0.795   7.804  0.6467 -0.7179 -1.2427
  869TIP3    H224243   4.867   0.905   7.750  0.5880 -0.7923 -1.2974
  870TIP3   OH224244   3.621   4.976   2.194 -0.3139 -0.7002 -0.1280
  870TIP3    H124245   3.714   4.978   2.174 -0.5414  0.1784 -1.2113
  870TIP3    H224246   3.583   4.923   2.124 -0.8553  0.5810 -0.8378
  871TIP3   OH224247   2.726   6.179   8.322  0.3306 -0.0571  0.1950
  871TIP3    H124248   2.784   6.105   8.302 -1.0688 -1.5066  1.1992
  871TIP3    H224249   2.784   6.246   8.358  1.5204 -1.0852  0.2753
  872TIP3   OH224250   1.953   0.571   6.835 -0.2692 -0.1075 -1.1842
  872TIP3    H124251   1.991   0.549   6.750  0.1248  0.1844 -1.0866
  872TIP3    H224252   1.999   0.514   6.897  0.2168  0.4361 -1.0306
  873TIP3   OH224253   2.281   6.754   8.179  0.4124 -0.0416 -0.0416
  873TIP3    H124254   2.358   6.741   8.122  1.1561  1.0595  0.6554
  873TIP3    H224255   2.239   6.832   8.143 -0.1962 -0.4405 -0.2063
  874TIP3   OH224256   4.154   1.444   1.333  0.6387  0.1967  0.0396
  874TIP3    H124257   4.148   1.519   1.275  0.7664 -0.9336 -1.4913
  874TIP3    H224258   4.096   1.378   1.295  2.0877 -1.2195  0.1294
  875TIP3   OH224259   5.064   5.485   7.420 -0.5164  0.5611 -0.0683
  875TIP3    H124260   5.081   5.425   7.492  0.6773  2.2121  1.1093
  875TIP3    H224261   5.149   5.501   7.380 -0.7327  1.7390 -0.1055
  876TIP3   OH224262   4.180   0.378   2.170 -0.0823  0.7484  0.0609
  876TIP3    H124263   4.103   0.399   2.117  0.5519  2.7174 -0.1701
  876TIP3    H224264   4.151   0.389   2.260 -0.3558  0.4252  0.0122
  877TIP3   OH224265   2.448   5.498   0.389 -0.3750  0.3545  0.2317
  877TIP3    H124266   2.367   5.455   0.416  0.2798 -2.6199 -2.0202
  877TIP3    H224267   2.431   5.528   0.299  0.3392  1.7509  0.5285
  878TIP3   OH224268   1.013   0.997   8.378  0.1295 -0.1750  0.1503
  878TIP3    H124269   0.947   0.999   8.309 -1.2612 -1.3450  1.3858
  878TIP3    H224270   1.091   0.961   8.336 -0.5182 -0.3434 -0.9284
  879TIP3   OH224271   1.399   6.416   0.238 -0.2037  0.4190  0.1544
  879TIP3    H124272   1.468   6.369   0.286  1.3042  1.2995 -1.0523
  879TIP3    H224273   1.374   6.487   0.297 -0.7288 -0.4017  0.9572
  880TIP3   OH224274   1.141   1.151   0.035 -0.2431 -0.2536 -0.2494
  880TIP3    H124275   1.100   1.091  -0.027 -2.2987  0.6112  0.1885
  880TIP3    H224276   1.149   1.100   0.116 -1.8653 -0.0362  0.0858
  881TIP3   OH224277   6.786   3.958   2.606 -0.3501  0.6678 -0.2309
  881TIP3    H124278   6.719   3.917   2.551 -0.3279 -1.1366  1.0113
  881TIP3    H224279   6.807   4.039   2.560 -1.3449 -0.0706 -2.1341
  882TIP3   OH224280   5.464   5.020   8.358 -0.4614  0.0411 -0.1568
  882TIP3    H124281   5.493   4.978   8.276  0.8731  0.9782 -0.1858
  882TIP3    H224282   5.439   4.947   8.414  1.0882 -0.7831 -0.4830
  883TIP3   OH224283   1.956   6.892   8.415 -0.1896 -0.2711  0.5693
  883TIP3    H124284   1.994   6.804   8.412 -0.3722 -0.3707  1.0308
  883TIP3    H224285   2.030   6.950   8.398 -0.2913 -0.5474 -0.9852
  884TIP3   OH224286   0.085   6.777   2.260  0.2218  0.7837 -0.0148
  884TIP3    H124287   0.151   6.833   2.218  0.4336  0.4106 -0.1838
  884TIP3    H224288   0.123   6.689   2.256 -0.7003  0.4046 -0.9846
  885TIP3   OH224289   4.941   4.839   6.871  0.1234 -0.1560  0.0407
  885TIP3    H124290   4.938   4.934   6.881  0.4894 -0.2683  1.3463
  885TIP3    H224291   4.972   4.806   6.955  3.0625 -1.2533 -1.3312
  886TIP3   OH224292   2.713   1.079   6.982 -0.2699 -0.8366  0.0616
  886TIP3    H124293   2.807   1.088   6.970 -0.1039 -0.3339  1.4991
  886TIP3    H224294   2.702   1.067   7.077 -1.6259 -1.2696 -0.1218
  887TIP3   OH224295   0.250   5.603   7.039 -0.5292 -0.2785 -0.1177
  887TIP3    H124296   0.325   5.598   6.979 -0.3572  0.8040 -0.0199
  887TIP3    H224297   0.257   5.690   7.078 -1.5689 -0.3528  0.2621
  888TIP3   OH224298   5.441   1.314   0.179 -0.6289  0.0647  0.1897
  888TIP3    H124299   5.531   1.344   0.169 -0.0049 -1.1094  1.8374
  888TIP3    H224300   5.424   1.265   0.099 -0.0534  0.8689 -0.4430
  889TIP3   OH224301   2.083   0.628   1.252 -0.2731 -0.0776 -0.6180
  889TIP3    H124302   2.135   0.579   1.188  0.2784  0.1729 -0.3722
  889TIP3    H224303   2.017   0.673   1.199  0.5478  0.6072 -1.0939
  890TIP3   OH224304   3.865   4.265   1.788  0.0509  0.0369 -0.4386
  890TIP3    H124305   3.826   4.253   1.875 -0.0997 -0.3782 -0.5596
  890TIP3    H224306   3.936   4.201   1.785  0.0529  0.0483 -0.6244
  891TIP3   OH224307   3.796   2.577   7.842  0.1114  0.2038  0.4113
  891TIP3    H124308   3.826   2.666   7.823  1.2204 -0.2510 -0.0276
  891TIP3    H224309   3.867   2.521   7.811 -0.5316 -0.8317  0.7854
  892TIP3   OH224310   3.416   2.595   7.643 -0.2137 -0.2194 -0.1922
  892TIP3    H124311   3.391   2.546   7.564  1.0156  2.2216 -2.2426
  892TIP3    H224312   3.471   2.534   7.692 -0.2384 -1.5185 -1.6910
  893TIP3   OH224313   0.760   0.333   0.837 -0.6235 -0.4581  0.2946
  893TIP3    H124314   0.829   0.268   0.825 -0.9866 -0.9007  0.5446
  893TIP3    H224315   0.685   0.282   0.868 -0.2687  0.3944  2.7223
  894TIP3   OH224316   4.789   1.070   0.406 -0.0457  0.3263 -0.3852
  894TIP3    H124317   4.761   1.126   0.334  0.8040  0.3409 -0.7205
  894TIP3    H224318   4.874   1.105   0.432  1.2213 -1.6673 -1.5929
  895TIP3   OH224319   1.129   3.980   8.349  0.0645 -0.3547  0.3012
  895TIP3    H124320   1.058   3.929   8.387  0.1918  0.2508  1.4140
  895TIP3    H224321   1.105   3.991   8.257 -0.5973 -1.3028  0.3554
  896TIP3   OH224322   2.575   3.545   7.366 -0.2887  0.0458 -0.2292
  896TIP3    H124323   2.635   3.618   7.354 -0.0639 -0.4170 -2.2537
  896TIP3    H224324   2.562   3.540   7.461  2.2319  0.6387  0.1995
  897TIP3   OH224325   0.740   0.640   2.291  0.3805 -0.1287 -0.4556
  897TIP3    H124326   0.820   0.589   2.275 -0.4700 -1.1248 -1.6826
  897TIP3    H224327   0.741   0.656   2.386  2.7408  1.1199 -0.5952
  898TIP3   OH224328   6.059   0.328   0.108 -0.4471  0.1665 -0.2591
  898TIP3    H124329   6.036   0.303   0.018  0.4296 -0.6160 -0.2838
  898TIP3    H224330   6.010   0.408   0.124 -0.4207  0.4553 -1.5330
  899TIP3   OH224331   1.732   2.687   7.922 -0.3385 -0.1218 -0.5388
  899TIP3    H124332   1.733   2.621   7.853  1.4493 -3.3433  2.3104
  899TIP3    H224333   1.651   2.671   7.970  0.2518 -0.4942  0.3556
  900TIP3   OH224334   1.481   4.564   0.564 -0.1847  1.0634  0.4270
  900TIP3    H124335   1.547   4.559   0.495  0.4481 -0.1339  1.0838
  900TIP3    H224336   1.398   4.576   0.518  0.1933  0.0064 -0.5684
  901TIP3   OH224337   3.822   2.374   1.679  0.3941 -0.5715 -0.0021
  901TIP3    H124338   3.889   2.343   1.740 -1.1366 -1.4982  1.2668
  901TIP3    H224339   3.788   2.295   1.638 -0.6122 -0.2047  0.0984
  902TIP3   OH224340   6.406   1.890   6.923  0.1328 -0.2986  0.3501
  902TIP3    H124341   6.410   1.795   6.910 -2.3434 -0.0976 -3.6482
  902TIP3    H224342   6.323   1.905   6.969 -0.0143 -0.0486  0.0113
  903TIP3   OH224343   5.440   0.282   2.756 -0.0350 -0.0939 -0.2316
  903TIP3    H124344   5.441   0.355   2.819  1.4700 -0.3231  0.0328
  903TIP3    H224345   5.410   0.322   2.674  1.0473  0.9015 -0.1609
  904TIP3   OH224346   5.857   3.886   2.531 -0.2930 -0.2230 -0.4224
  904TIP3    H124347   5.923   3.816   2.525 -1.6926 -1.6168 -0.2198
  904TIP3    H224348   5.900   3.954   2.583  1.0121 -1.0536 -0.3584
  905TIP3   OH224349   2.430   1.831   1.940  0.4548 -0.2306  0.3378
  905TIP3    H124350   2.357   1.787   1.984  1.6312 -1.2308  1.3824
  905TIP3    H224351   2.484   1.865   2.011  0.3829  1.5928 -0.4450
  906TIP3   OH224352   3.179   2.107   1.508  0.3465 -0.5570  0.2264
  906TIP3    H124353   3.130   2.171   1.558  0.4110 -0.1940 -0.1680
  906TIP3    H224354   3.125   2.090   1.430  1.9649  1.8392 -1.5846
  907TIP3   OH224355   0.291   1.380   8.140 -0.7958  0.1623  0.1551
  907TIP3    H124356   0.293   1.400   8.047  1.2714  0.5757  0.2278
  907TIP3    H224357   0.324   1.290   8.146  1.3413  0.8968  0.5662
  908TIP3   OH224358   1.102   2.689   7.292  0.2555  0.1985  0.3133
  908TIP3    H124359   1.084   2.598   7.315 -0.4508  0.0500 -0.7346
  908TIP3    H224360   1.057   2.701   7.208  0.5570  1.4372  0.3172
  909TIP3   OH224361   0.271   3.487   0.556 -0.5159  0.5664 -0.3907
  909TIP3    H124362   0.300   3.572   0.588  2.0780 -0.4563  0.2060
  909TIP3    H224363   0.208   3.457   0.622  1.3092  0.4797  1.4044
  910TIP3   OH224364   1.085   5.069   0.845  0.5044 -0.3025 -0.7804
  910TIP3    H124365   1.147   5.027   0.904 -0.3351  0.5975  0.7910
  910TIP3    H224366   1.083   5.011   0.768  1.0936 -1.8890  0.3436
  911TIP3   OH224367   3.405   6.190   7.316  0.0725 -0.6619 -0.2445
  911TIP3    H124368   3.388   6.160   7.405  0.2783 -1.0944 -0.3467
  911TIP3    H224369   3.319   6.188   7.274 -0.1352  0.1861  0.1326
  912TIP3   OH224370   6.946   4.536   0.647 -0.7373 -0.6937  0.4553
  912TIP3    H124371   6.935   4.475   0.719 -1.2597 -1.0919  0.0509
  912TIP3    H224372   7.027   4.583   0.667 -1.1228 -0.4625  1.5315
  913TIP3   OH224373   6.150   4.008   2.053  0.1066  0.6835 -0.2064
  913TIP3    H124374   6.189   4.031   2.137 -0.1277 -1.3035  0.4930
  913TIP3    H224375   6.217   3.953   2.010 -0.4997  0.1697 -0.5087
  914TIP3   OH224376   5.103   2.602   0.932 -0.3043  0.3233 -0.7060
  914TIP3    H124377   5.117   2.507   0.926  1.4373  0.4804  0.2153
  914TIP3    H224378   5.091   2.630   0.841 -0.7841 -0.7524 -0.9940
  915TIP3   OH224379   1.843   4.437   7.029 -0.4047  0.0788  0.3112
  915TIP3    H124380   1.785   4.422   7.104 -0.8432  1.4080  0.2785
  915TIP3    H224381   1.931   4.444   7.067 -0.6815  1.2042  0.7834
  916TIP3   OH224382   6.375   2.601   8.309 -0.0115 -0.0734 -0.1266
  916TIP3    H124383   6.427   2.649   8.374 -1.4327  1.2202  0.1090
  916TIP3    H224384   6.287   2.599   8.346 -0.9327  0.9345 -2.1297
  917TIP3   OH224385   4.851   2.518   0.230  0.4053  0.4600 -0.3378
  917TIP3    H124386   4.810   2.443   0.275  1.5487 -0.7803 -1.2825
  917TIP3    H224387   4.779   2.579   0.215 -0.1456  0.6711  2.5741
  918TIP3   OH224388   1.372   2.263   0.007  0.0570  0.0968 -0.3122
  918TIP3    H124389   1.369   2.176   0.048 -0.0241  0.0558 -0.4040
  918TIP3    H224390   1.280   2.285  -0.008  0.1051 -0.1969 -1.1155
  919TIP3   OH224391   0.855   6.692   1.937  0.0577  0.4575  0.0037
  919TIP3    H124392   0.909   6.643   1.875 -2.1790 -0.2301 -1.5415
  919TIP3    H224393   0.815   6.625   1.993  1.2893  1.0062  1.6102
  920TIP3   OH224394   2.658   4.264   0.832  0.0640  0.0479 -0.1654
  920TIP3    H124395   2.684   4.352   0.857  1.3504 -0.4233  0.2468
  920TIP3    H224396   2.691   4.253   0.743  0.0566 -0.0800 -0.1537
  921TIP3   OH224397   5.474   2.702   0.948  0.2426 -0.4075  0.1110
  921TIP3    H124398   5.424   2.664   1.020 -0.8533  0.7440 -0.0006
  921TIP3    H224399   5.410   2.757   0.901  1.3921  0.3799 -0.5858
  922TIP3   OH224400   4.956   4.070   7.646  0.1863 -0.2567  0.1575
  922TIP3    H124401   4.934   3.988   7.603  1.1261 -0.9011  0.8839
  922TIP3    H224402   4.935   4.056   7.738 -0.2792  0.5568  0.1859
  923TIP3   OH224403   1.958   4.681   6.628 -0.1886 -0.1210  0.0812
  923TIP3    H124404   1.876   4.672   6.675 -0.1363  0.6630  0.3286
  923TIP3    H224405   1.932   4.699   6.538 -0.2845 -1.3189 -0.1548
  924TIP3   OH224406   2.621   5.685   0.984  0.2084  0.2337  0.1926
  924TIP3    H124407   2.578   5.622   0.927  0.2193  0.4766 -0.0861
  924TIP3    H224408   2.681   5.733   0.927 -0.4886  1.1463  0.1887
  925TIP3   OH224409   3.488   4.994   7.629 -0.3997 -0.2896  0.4573
  925TIP3    H124410   3.504   5.060   7.562  1.9324  1.4489  2.5730
  925TIP3    H224411   3.532   4.915   7.595 -1.1382 -0.1270 -0.9758
  926TIP3   OH224412   4.983   1.609   2.576  0.2492 -0.0901 -0.7864
  926TIP3    H124413   4.942   1.685   2.617 -2.5826 -0.5835 -2.4480
  926TIP3    H224414   5.075   1.615   2.600 -0.5037  1.8961  2.0550
  927TIP3   OH224415   5.141   0.017   6.672  0.0619 -0.4386 -0.1934
  927TIP3    H124416   5.103  -0.071   6.667 -0.9078  0.0268 -1.5366
  927TIP3    H224417   5.078   0.067   6.725 -0.7168  0.0727 -1.5643
  928TIP3   OH224418   0.893   0.591   7.371  0.5065  0.2756 -0.3801
  928TIP3    H124419   0.872   0.634   7.288  0.6197  1.1814  0.0528
  928TIP3    H224420   0.983   0.618   7.390  0.7847 -0.6182 -0.3841
  929TIP3   OH224421   6.146   2.393   8.345  0.0071 -0.2840  0.1237
  929TIP3    H124422   6.171   2.308   8.379 -1.1162 -1.0113 -0.8165
  929TIP3    H224423   6.107   2.438   8.419  0.0972 -0.7986  0.4855
  930TIP3   OH224424   3.907   3.601   8.384 -0.1019 -0.0733  0.5626
  930TIP3    H124425   3.817   3.630   8.399 -0.9109 -1.1495 -1.7964
  930TIP3    H224426   3.920   3.530   8.447 -0.6412  0.5203  1.3696
  931TIP3   OH224427   0.115   5.736   8.071 -0.0601 -0.1227  0.5206
  931TIP3    H124428   0.201   5.764   8.040  0.9333 -1.5812  1.8152
  931TIP3    H224429   0.133   5.661   8.127 -2.1197 -0.0043  1.4270
  932TIP3   OH224430   5.704   4.481   7.920  0.4698  0.1626 -0.1615
  932TIP3    H124431   5.643   4.507   7.989  0.6049  0.7194 -0.2512
  932TIP3    H224432   5.648   4.459   7.846  0.4086  1.9488 -0.6880
  933TIP3   OH224433   3.894   4.981   6.342 -0.0993  0.1199 -0.1427
  933TIP3    H124434   3.801   4.981   6.320  0.6379 -0.9696 -4.0371
  933TIP3    H224435   3.935   5.035   6.275  2.1471  0.4079  1.3444
  934TIP3   OH224436   4.433   4.239   8.500 -0.0209  0.4473 -1.0552
  934TIP3    H124437   4.366   4.174   8.481  0.6090 -1.2281  1.7074
  934TIP3    H224438   4.515   4.189   8.500  0.6978  1.5769 -0.4260
  935TIP3   OH224439   6.614   6.458   2.555 -0.2525 -0.0929 -0.1612
  935TIP3    H124440   6.638   6.419   2.640 -1.1778 -0.0829  0.1180
  935TIP3    H224441   6.696   6.461   2.506  0.0204 -1.4901  0.1780
  936TIP3   OH224442   3.955   4.823   7.450 -0.5182  0.3733  0.0436
  936TIP3    H124443   3.940   4.905   7.404  0.2778  1.0772  1.0006
  936TIP3    H224444   3.868   4.796   7.480 -0.8247  0.7005 -0.5445
  937TIP3   OH224445   3.400   3.363   7.364 -0.4958 -0.0825 -0.5132
  937TIP3    H124446   3.357   3.282   7.336 -1.1730  0.1972 -0.3047
  937TIP3    H224447   3.454   3.388   7.289 -1.1511 -0.1275 -1.0124
  938TIP3   OH224448   5.358   6.368   7.707  0.3848  0.3238  0.0463
  938TIP3    H124449   5.409   6.408   7.637 -1.0231  0.4611 -0.9294
  938TIP3    H224450   5.375   6.424   7.783  0.0385  1.6001 -0.7835
  939TIP3   OH224451   3.591   6.702   3.863  0.0074 -0.4616 -0.4882
  939TIP3    H124452   3.681   6.692   3.895  0.7848  0.3157 -2.3217
  939TIP3    H224453   3.599   6.708   3.768 -1.9949 -0.3489 -0.7006
  940TIP3   OH224454   0.535   0.929   1.451  0.4322 -0.0167 -0.4860
  940TIP3    H124455   0.607   0.921   1.514 -0.5915  5.0761  1.8577
  940TIP3    H224456   0.569   0.988   1.383 -0.6275  0.0825 -0.9527
  941TIP3   OH224457   4.111   2.572   7.457 -0.6554  0.2845 -0.2305
  941TIP3    H124458   4.050   2.517   7.409 -0.1522  0.2694 -0.8705
  941TIP3    H224459   4.104   2.658   7.414  0.8027 -0.0714 -1.2735
  942TIP3   OH224460   3.014   6.665   8.075  0.0568  0.5251 -0.3294
  942TIP3    H124461   3.018   6.761   8.066  0.1423  0.6559  0.9734
  942TIP3    H224462   3.081   6.644   8.139 -0.6153 -0.3067  0.1160
  943TIP3   OH224463   6.117   4.401   8.373 -0.1081  0.3225  0.3315
  943TIP3    H124464   6.194   4.357   8.336  0.7755  2.0408  0.0043
  943TIP3    H224465   6.079   4.449   8.299 -0.8468  0.3674  0.7374
  944TIP3   OH224466   2.326   6.522   0.368 -0.4869  0.2661  0.1676
  944TIP3    H124467   2.377   6.527   0.287 -0.1987 -3.7445 -0.0844
  944TIP3    H224468   2.391   6.506   0.436 -1.0956 -3.1861  0.0825
  945TIP3   OH224469   1.201   4.566   0.501 -0.0333 -0.3435  0.0710
  945TIP3    H124470   1.169   4.497   0.558  0.4885  0.3350  1.2391
  945TIP3    H224471   1.146   4.562   0.423 -0.8851 -1.1852  0.7059
  946TIP3   OH224472   5.278   4.365   1.651  0.3343  0.2611  0.6945
  946TIP3    H124473   5.317   4.411   1.725  2.7224 -1.7386  0.8163
  946TIP3    H224474   5.207   4.315   1.689 -0.5837  1.7250  1.0023
  947TIP3   OH224475   6.315   0.591   8.156  0.6213  1.0257  0.1642
  947TIP3    H124476   6.252   0.527   8.123  0.0852  1.1779  0.8628
  947TIP3    H224477   6.381   0.597   8.088  0.5280 -0.0617 -0.0363
  948TIP3   OH224478   6.701   0.940   0.087 -0.0639  0.0660 -0.2455
  948TIP3    H124479   6.643   0.882   0.039  1.4576 -1.6807 -0.1026
  948TIP3    H224480   6.697   1.023   0.039 -2.8065  0.1233 -0.0692
  949TIP3   OH224481   4.447   6.234   1.959  0.7040 -0.2138 -0.3013
  949TIP3    H124482   4.353   6.228   1.974  0.4195 -0.4372 -1.9823
  949TIP3    H224483   4.475   6.145   1.939  1.4517 -0.2981  0.9997
  950TIP3   OH224484   4.750   1.525   2.439 -0.0723  0.1843 -0.2926
  950TIP3    H124485   4.792   1.557   2.359  0.6711 -2.3374 -1.0160
  950TIP3    H224486   4.820   1.528   2.505 -0.6734  2.2225  0.3158
  951TIP3   OH224487   4.159   3.397   2.822 -0.1250 -0.2286 -0.1332
  951TIP3    H124488   4.064   3.406   2.819 -0.1775 -0.8703 -1.9058
  951TIP3    H224489   4.174   3.302   2.824  0.4870 -0.1265  0.5168
  952TIP3   OH224490   4.653   2.252   0.087  0.6290  0.1703  0.5193
  952TIP3    H124491   4.647   2.176   0.030 -1.2446  0.4176  0.3319
  952TIP3    H224492   4.678   2.324   0.029 -4.2984  1.1181 -0.8352
  953TIP3   OH224493   2.480   5.127   0.553 -0.3886  0.0246  0.5465
  953TIP3    H124494   2.411   5.060   0.553 -0.3884 -0.2449 -3.6459
  953TIP3    H224495   2.455   5.187   0.482  3.9254 -0.5140 -1.7722
  954TIP3   OH224496   2.944   2.673   1.851 -0.3697 -0.4032 -0.4685
  954TIP3    H124497   2.850   2.688   1.848 -0.5310 -0.9088  1.0506
  954TIP3    H224498   2.954   2.589   1.895  0.8171  0.4972  1.1140
  955TIP3   OH224499   1.404   3.566   8.100  0.2277 -0.1325 -0.4555
  955TIP3    H124500   1.339   3.578   8.169 -0.7493  2.3998 -1.6931
  955TIP3    H224501   1.484   3.607   8.133 -0.2452  1.0985 -0.7819
  956TIP3   OH224502   4.114   2.194   2.153  0.2364 -0.0768 -0.3476
  956TIP3    H124503   4.115   2.109   2.198 -1.5752  1.2269  2.4789
  956TIP3    H224504   4.206   2.219   2.147  0.7233 -1.6740 -0.0600
  957TIP3   OH224505   4.809   3.581   6.485 -0.3313  0.4609  0.2839
  957TIP3    H124506   4.786   3.634   6.561 -1.4110  0.4049  0.0046
  957TIP3    H224507   4.774   3.629   6.410  0.4123  0.3389 -0.1576
  958TIP3   OH224508   5.825   5.593   2.378 -0.6127  0.1963 -0.3691
  958TIP3    H124509   5.739   5.555   2.393 -0.2992 -1.0611 -1.5246
  958TIP3    H224510   5.821   5.626   2.288 -0.1167  0.7986 -0.1807
  959TIP3   OH224511   4.870   2.439   8.162 -0.4799 -0.0463  0.2240
  959TIP3    H124512   4.947   2.495   8.162  0.0296 -0.7427  0.1407
  959TIP3    H224513   4.874   2.391   8.079 -0.4233 -0.8581  0.6809
  960TIP3   OH224514   6.239   0.518   1.999 -0.4463 -0.6392 -0.3771
  960TIP3    H124515   6.307   0.460   1.965 -2.5983 -1.7066 -3.3436
  960TIP3    H224516   6.160   0.464   2.002 -2.3196  1.7227 -2.2042
  961TIP3   OH224517   6.425   1.948   0.614 -0.6396 -0.7877  0.7504
  961TIP3    H124518   6.509   1.991   0.631 -0.6861  0.4113 -1.6217
  961TIP3    H224519   6.362   1.994   0.670 -0.5770  1.9958 -1.2616
  962TIP3   OH224520   5.996   1.098   8.101  0.5607  0.0450  0.4661
  962TIP3    H124521   6.071   1.141   8.059 -0.1856 -0.8976 -1.9879
  962TIP3    H224522   5.941   1.068   8.029 -1.4494 -0.6492  2.1642
  963TIP3   OH224523   6.884   4.254   0.197 -0.7594 -0.2559  0.4352
  963TIP3    H124524   6.864   4.325   0.258  0.6775  1.0768 -0.5500
  963TIP3    H224525   6.821   4.266   0.126  0.8229  1.5036 -0.7911
  964TIP3   OH224526   5.495   6.211   7.946 -0.1214  0.2582  0.1645
  964TIP3    H124527   5.445   6.181   8.022  2.4400 -0.8514  1.5625
  964TIP3    H224528   5.496   6.137   7.886  0.5805 -0.0868  0.5810
  965TIP3   OH224529   5.064   4.472   0.149 -0.2427 -0.1735 -0.1071
  965TIP3    H124530   4.990   4.524   0.180  0.4885  0.8994 -0.1248
  965TIP3    H224531   5.049   4.463   0.055 -1.2909 -1.5288  0.1585
  966TIP3   OH224532   4.846   5.020   2.029 -0.1913 -0.1681 -0.4239
  966TIP3    H124533   4.910   4.957   1.997 -0.0768 -0.6851  0.7772
  966TIP3    H224534   4.889   5.105   2.022  1.1758 -0.6262  1.5983
  967TIP3   OH224535   3.082   4.949   1.091 -0.4173  0.2445  0.1013
  967TIP3    H124536   3.011   4.962   1.028  0.5702  1.6158 -0.7847
  967TIP3    H224537   3.068   5.018   1.156 -1.9653 -1.7045  2.0042
  968TIP3   OH224538   2.293   6.215   1.803  0.7326  0.8628 -1.3754
  968TIP3    H124539   2.327   6.183   1.887  0.6350 -1.3358 -2.1210
  968TIP3    H224540   2.301   6.310   1.809  0.7766  0.7728  1.1017
  969TIP3   OH224541   0.109   0.690   0.281  0.6095  0.0649  0.5925
  969TIP3    H124542   0.053   0.766   0.268  0.7170 -0.0199 -0.4589
  969TIP3    H224543   0.052   0.625   0.322  0.4631  0.6400  1.3093
  970TIP3   OH224544   0.035   6.604   0.684 -0.4514  0.1162  0.4036
  970TIP3    H124545  -0.031   6.624   0.751 -0.1657  0.2141  0.6614
  970TIP3    H224546  -0.013   6.604   0.602 -0.7078  0.5289  0.5509
  971TIP3   OH224547   5.038   4.351   6.608 -0.5295 -0.7011 -0.6285
  971TIP3    H124548   5.121   4.357   6.562 -1.0176  0.9225 -1.3542
  971TIP3    H224549   5.053   4.396   6.691 -1.0040  0.7220 -1.2867
  972TIP3   OH224550   4.021   6.377   0.050 -0.9827 -0.3105  0.0598
  972TIP3    H124551   3.998   6.305  -0.008 -1.9232  0.9287 -1.1549
  972TIP3    H224552   4.027   6.454  -0.007 -2.2666  1.0221  1.6125
  973TIP3   OH224553   0.273   0.259   6.928  0.0160  0.3805  0.2902
  973TIP3    H124554   0.314   0.266   7.014 -0.5761  0.3396  0.5806
  973TIP3    H224555   0.346   0.253   6.867  0.4491  0.9156  0.7478
  974TIP3   OH224556   4.475   6.305   7.620  0.7541  0.1744  0.0756
  974TIP3    H124557   4.556   6.287   7.573  0.6414 -0.5185  0.1383
  974TIP3    H224558   4.492   6.275   7.710  1.0861  1.7992  0.5874
  975TIP3   OH224559   6.095   4.354   2.166 -0.3657 -0.5191  0.0588
  975TIP3    H124560   6.149   4.300   2.110 -0.2642 -0.0335 -0.3187
  975TIP3    H224561   6.046   4.410   2.106 -0.3273 -0.0620  0.4453
  976TIP3   OH224562   3.852   6.576   1.946 -0.3333  0.0893  0.0701
  976TIP3    H124563   3.880   6.548   1.859 -0.2648 -2.0172  0.7162
  976TIP3    H224564   3.884   6.666   1.953  1.5256 -0.3935 -1.2737
  977TIP3   OH224565   4.301   2.014   0.426 -0.6666 -0.1293  0.0794
  977TIP3    H124566   4.359   2.080   0.387 -0.4041 -0.6122 -0.3625
  977TIP3    H224567   4.231   2.002   0.362 -0.7519 -0.2309  0.1901
  978TIP3   OH224568   1.912   4.235   0.110 -0.2578 -0.3933 -0.1301
  978TIP3    H124569   1.944   4.325   0.116 -1.9942  0.3558 -1.5456
  978TIP3    H224570   1.850   4.226   0.182 -0.8799 -0.1070 -0.6269
  979TIP3   OH224571   0.062   2.540   7.103 -0.5798 -0.7244  0.4264
  979TIP3    H124572  -0.000   2.600   7.063  0.4731 -0.7390 -1.3117
  979TIP3    H224573   0.034   2.453   7.072 -0.2899 -0.8295  0.4596
  980TIP3   OH224574   1.072   2.780   7.551  0.6963  0.6075 -0.4522
  980TIP3    H124575   1.069   2.748   7.461 -0.2786  0.6491 -0.4469
  980TIP3    H224576   1.070   2.876   7.542  1.3746  0.6312 -0.4031
  981TIP3   OH224577   1.514   4.965   0.629  0.1806 -0.4272 -0.3290
  981TIP3    H124578   1.435   4.912   0.624  0.4753 -0.9211  0.1124
  981TIP3    H224579   1.536   4.985   0.538  1.6491 -3.4677 -0.7467
  982TIP3   OH224580   3.201   1.050   1.552 -0.4198  0.0287 -0.2432
  982TIP3    H124581   3.254   1.109   1.606 -1.0039 -0.3028  0.7083
  982TIP3    H224582   3.258   1.026   1.479  0.0244  1.3116 -0.3401
  983TIP3   OH224583   2.924   1.547   0.583 -0.0876 -0.0167  0.1719
  983TIP3    H124584   2.987   1.544   0.655  1.3401  1.2351 -0.9751
  983TIP3    H224585   2.860   1.614   0.610 -0.4772 -0.6728  0.9422
  984TIP3   OH224586   4.982   6.616   8.489  0.2114 -0.4780 -0.0722
  984TIP3    H124587   5.054   6.637   8.549  0.8365 -0.0099 -0.9654
  984TIP3    H224588   5.009   6.535   8.446  0.8887  0.4131 -1.4131
  985TIP3   OH224589   5.408   3.972   1.529 -0.3081 -0.5436 -0.2817
  985TIP3    H124590   5.491   3.949   1.488 -0.2436  0.0510 -0.5108
  985TIP3    H224591   5.398   3.911   1.602 -0.7282 -2.0597 -1.5529
  986TIP3   OH224592   4.180   3.515   0.161  0.8187 -0.0296  0.0215
  986TIP3    H124593   4.099   3.548   0.199 -0.1161 -1.6128 -0.4928
  986TIP3    H224594   4.234   3.492   0.237 -0.7337 -2.4604  0.4986
  987TIP3   OH224595   0.868   4.442   1.990  0.4597  0.0134  0.1942
  987TIP3    H124596   0.859   4.376   1.922  1.6970 -0.4721  0.4768
  987TIP3    H224597   0.929   4.404   2.053  0.7250  1.1782  0.6732
  988TIP3   OH224598   4.210   6.277   0.214  0.1605  0.2581  0.1736
  988TIP3    H124599   4.133   6.320   0.176  0.3060 -0.3287 -0.8052
  988TIP3    H224600   4.179   6.245   0.299 -1.4801 -2.2041 -1.2170
  989TIP3   OH224601   5.023   6.560   2.220 -0.0999  0.3158  0.4077
  989TIP3    H124602   5.114   6.589   2.208  0.4919 -1.4820  0.2198
  989TIP3    H224603   5.023   6.519   2.307 -0.7299  0.3299  0.4132
  990TIP3   OH224604   5.249   6.755   1.327 -0.6289 -0.1127 -0.1716
  990TIP3    H124605   5.287   6.671   1.350 -0.7286 -0.5639 -1.5352
  990TIP3    H224606   5.257   6.760   1.232 -0.7006  1.3904 -0.1296
  991TIP3   OH224607   3.511   3.573   7.880  0.4628  0.0603  0.7127
  991TIP3    H124608   3.564   3.495   7.898  0.2333 -0.4487 -0.7410
  991TIP3    H224609   3.451   3.579   7.955 -0.3670 -1.8865  0.2641
  992TIP3   OH224610   2.335   3.623   8.230  0.0266 -0.1169  0.2460
  992TIP3    H124611   2.354   3.575   8.311  1.0232 -1.0785 -0.5307
  992TIP3    H224612   2.420   3.633   8.187 -0.4635  0.5284 -0.6096
  993TIP3   OH224613   4.246   6.065   6.866 -0.1392 -0.2067 -0.0892
  993TIP3    H124614   4.153   6.088   6.872 -0.3448 -0.8760 -0.5724
  993TIP3    H224615   4.292   6.139   6.907 -0.8753  0.1743  0.0656
  994TIP3   OH224616   6.838   6.863   3.116  0.4976 -0.7978  0.0332
  994TIP3    H124617   6.932   6.871   3.130  0.8435 -0.0226 -2.3573
  994TIP3    H224618   6.811   6.947   3.080 -1.0734 -1.1152  0.3822
  995TIP3   OH224619   3.343   2.986   8.169 -0.0714 -0.0028  0.1096
  995TIP3    H124620   3.369   3.074   8.197  0.0484  0.1291 -0.4027
  995TIP3    H224621   3.251   2.979   8.193 -0.9540  1.3963 -2.4867
  996TIP3   OH224622   0.900   6.319   1.374 -0.1424  0.8524 -0.6756
  996TIP3    H124623   0.830   6.322   1.309 -0.4319  2.3311 -0.3204
  996TIP3    H224624   0.856   6.337   1.457  0.0757 -1.7650  0.1197
  997TIP3   OH224625   1.887   1.932   7.784  0.3288  0.7262  0.7616
  997TIP3    H124626   1.914   1.923   7.693 -0.0748  1.7727  0.5291
  997TIP3    H224627   1.942   1.870   7.832  0.9207  0.5681 -0.1133
  998TIP3   OH224628   6.084   0.167   1.806 -0.0449  0.1462 -0.5211
  998TIP3    H124629   6.022   0.229   1.844  0.0379 -0.3133  0.3843
  998TIP3    H224630   6.156   0.162   1.869 -0.8080 -2.0726  0.2701
  999TIP3   OH224631   2.257   0.819   8.370  0.3845  0.1594  0.1165
  999TIP3    H124632   2.331   0.874   8.395  0.7708 -0.1846 -0.2460
  999TIP3    H224633   2.230   0.778   8.452  0.4468  0.4633  0.2925
 1000TIP3   OH224634   5.290   4.845   7.902 -0.3060 -0.3047 -0.0554
 1000TIP3    H124635   5.232   4.902   7.953  1.9457  0.1839  2.1741
 1000TIP3    H224636   5.325   4.901   7.833 -0.9170 -0.0218 -0.1365
 1001TIP3   OH224637   1.041   5.492   1.060  0.5646  0.1214  0.0487
 1001TIP3    H124638   0.998   5.416   1.022  1.7582 -0.5613  0.0260
 1001TIP3    H224639   0.970   5.543   1.100 -0.0981 -1.8093  1.4811
 1002TIP3   OH224640   6.708   6.196   7.137 -0.0278 -0.4654 -0.2159
 1002TIP3    H124641   6.730   6.284   7.105  0.8923 -0.1741  1.1255
 1002TIP3    H224642   6.780   6.141   7.106 -0.2175 -0.6065 -0.4118
 1003TIP3   OH224643   2.397   2.362   0.187  0.1414 -0.1966  0.4874
 1003TIP3    H124644   2.360   2.294   0.243 -0.4714  0.3009  0.7017
 1003TIP3    H224645   2.342   2.439   0.203  0.6222  0.2580  0.0076
 1004TIP3   OH224646   3.041   0.561   7.863 -0.4914 -0.4238  0.9506
 1004TIP3    H124647   2.963   0.522   7.904 -0.2986 -0.0684  1.6780
 1004TIP3    H224648   3.023   0.655   7.863 -0.3198 -0.3908  0.5684
 1005TIP3   OH224649   0.949   2.346   0.584 -0.2261  0.7090 -0.7564
 1005TIP3    H124650   0.974   2.266   0.536  1.6412  0.0079  1.2206
 1005TIP3    H224651   0.853   2.346   0.582 -0.3708 -2.4102  0.3810
 1006TIP3   OH224652   1.234   5.320   7.950  0.0606 -0.2619 -0.7184
 1006TIP3    H124653   1.293   5.377   7.999 -0.9883  1.1847 -1.1031
 1006TIP3    H224654   1.160   5.306   8.008  0.6251 -1.8778 -0.3359
 1007TIP3   OH224655   5.977   0.091   0.208 -0.2550 -0.3569 -0.4763
 1007TIP3    H124656   6.007   0.051   0.289  1.9296  0.0215 -1.0278
 1007TIP3    H224657   6.018   0.178   0.207  0.0326 -0.4631 -2.0933
 1008TIP3   OH224658   3.121   3.692   7.996  0.2446 -0.2912 -0.5132
 1008TIP3    H124659   3.079   3.633   7.934  0.0809  0.4185 -1.0824
 1008TIP3    H224660   3.203   3.648   8.019 -1.3851 -2.4014  1.7472
 1009TIP3   OH224661   1.706   1.894   8.466  0.2443 -0.3507  0.1252
 1009TIP3    H124662   1.743   1.808   8.487 -0.1412 -0.5849 -0.1341
 1009TIP3    H224663   1.611   1.879   8.464  0.1191  0.2857  0.9831
 1010TIP3   OH224664   5.996   6.641   0.396  1.0172  0.0371  0.0753
 1010TIP3    H124665   6.020   6.633   0.489 -2.7715  2.1422  1.4366
 1010TIP3    H224666   6.041   6.720   0.367  1.9419 -0.4340  0.1897
 1011TIP3   OH224667   5.484   3.473   8.016 -0.4673 -0.6945  0.2072
 1011TIP3    H124668   5.552   3.497   8.079 -0.7099  1.3780 -0.2596
 1011TIP3    H224669   5.522   3.494   7.931 -2.0490  1.7144 -0.0106
 1012TIP3   OH224670   2.132   6.212   1.588  0.4023  0.4431  0.1088
 1012TIP3    H124671   2.043   6.245   1.604 -0.6917 -2.1147 -0.2448
 1012TIP3    H224672   2.162   6.181   1.673 -0.0388 -0.8565 -0.1838
 1013TIP3   OH224673   2.419   5.775   7.659  0.3966  0.3330 -0.3784
 1013TIP3    H124674   2.409   5.794   7.566 -0.7576  0.6918 -0.1953
 1013TIP3    H224675   2.474   5.846   7.693 -0.0277  0.7601 -0.5874
 1014TIP3   OH224676   3.510   2.983   2.531  0.4127 -0.0517  0.1194
 1014TIP3    H124677   3.442   2.962   2.595  0.0789  0.1153 -0.1719
 1014TIP3    H224678   3.587   3.005   2.583  0.6734 -1.6347  0.4369
 1015TIP3   OH224679   6.470   2.424   2.658  0.6956 -0.1811  0.1729
 1015TIP3    H124680   6.500   2.422   2.568  0.0088  1.5829 -0.1320
 1015TIP3    H224681   6.527   2.362   2.704  1.3348 -0.7795 -1.3629
 1016TIP3   OH224682   1.829   1.212   8.323 -0.2028  0.2161 -0.5175
 1016TIP3    H124683   1.745   1.195   8.366 -0.0164  1.8039  0.5799
 1016TIP3    H224684   1.838   1.307   8.324  2.1859  0.0817  0.6412
 1017TIP3   OH224685   3.215   4.757   6.734 -0.4496 -0.4434  0.5925
 1017TIP3    H124686   3.138   4.785   6.784 -1.4945 -2.6546  0.3154
 1017TIP3    H224687   3.181   4.733   6.648  0.6032 -1.0991  0.3355
 1018TIP3   OH224688   4.146   1.743   1.731  0.4984  0.9590 -0.9100
 1018TIP3    H124689   4.174   1.721   1.820  2.0464 -0.1711 -1.6177
 1018TIP3    H224690   4.117   1.660   1.694  1.6687  1.0174 -2.0441
 1019TIP3   OH224691   5.995   2.124   0.804  0.1468 -0.2730  0.1098
 1019TIP3    H124692   5.943   2.196   0.769 -0.7208 -0.6665  0.5514
 1019TIP3    H224693   5.940   2.047   0.792  0.4220 -0.6267  1.0237
 1020TIP3   OH224694   2.753   1.216   0.120  0.3796  0.9780 -0.3650
 1020TIP3    H124695   2.812   1.182   0.187 -1.9095 -1.0344  0.7567
 1020TIP3    H224696   2.758   1.152   0.049  0.6274  1.5872 -0.9070
 1021TIP3   OH224697   1.133   2.434   7.379  0.1488  0.7177  0.2013
 1021TIP3    H124698   1.129   2.355   7.325  2.8284  0.9750 -0.5499
 1021TIP3    H224699   1.093   2.408   7.462 -1.0580 -0.7126 -0.7557
 1022TIP3   OH224700   2.727   0.778   2.755  0.6808  0.1359  0.2388
 1022TIP3    H124701   2.702   0.865   2.786  0.5452  0.0662  0.3246
 1022TIP3    H224702   2.822   0.776   2.764  0.6766  0.2460  0.3121
 1023TIP3   OH224703   0.644   3.719   0.128  0.2467 -0.0141 -1.0694
 1023TIP3    H124704   0.653   3.795   0.071 -0.5698  0.2798 -0.8211
 1023TIP3    H224705   0.568   3.672   0.095 -1.4146  1.1672  0.8694
 1024TIP3   OH224706   2.654   6.858   2.131 -0.3507  0.1685  0.7285
 1024TIP3    H124707   2.604   6.780   2.106 -0.6365  0.9304 -1.2978
 1024TIP3    H224708   2.609   6.892   2.209 -0.3288 -1.5508  1.5358
 1025TIP3   OH224709   4.911   1.586   0.437  0.3497 -0.1377  0.2398
 1025TIP3    H124710   4.941   1.496   0.434 -0.1288 -0.3192 -3.1320
 1025TIP3    H224711   4.983   1.637   0.399 -0.3571  0.5157 -0.2670
 1026TIP3   OH224712   1.735   0.682   7.093  0.1897  0.0410  0.7728
 1026TIP3    H124713   1.778   0.596   7.089  0.0893 -0.0003  0.5922
 1026TIP3    H224714   1.800   0.738   7.136  0.6175  0.0917  0.0814
 1027TIP3   OH224715   2.648   1.912   0.121  0.0008 -0.0634  0.5381
 1027TIP3    H124716   2.680   1.889   0.033 -0.2004 -0.6374  0.6076
 1027TIP3    H224717   2.566   1.864   0.129 -0.7180  1.1251  0.4976
 1028TIP3   OH224718   3.124   2.103   7.375 -0.3166  0.0794  0.0455
 1028TIP3    H124719   3.088   2.031   7.427  0.6616 -0.9752 -0.6858
 1028TIP3    H224720   3.093   2.085   7.286  1.2052 -0.3516 -0.4340
 1029TIP3   OH224721   5.649   2.904   1.156  0.1008 -0.0545  0.1400
 1029TIP3    H124722   5.693   2.981   1.192 -1.4705 -0.4744  3.2696
 1029TIP3    H224723   5.555   2.925   1.162 -0.3107 -1.6276 -0.3359
 1030TIP3   OH224724   0.649   4.945   8.427  0.5841 -0.3252  0.1741
 1030TIP3    H124725   0.579   4.894   8.385  0.1752  2.1913 -2.5964
 1030TIP3    H224726   0.727   4.924   8.376  0.9067  0.0893  0.4947
 1031TIP3   OH224727   4.858   3.526   1.636  0.0074  0.6582 -0.7322
 1031TIP3    H124728   4.862   3.499   1.728 -0.8017 -0.9655 -1.1397
 1031TIP3    H224729   4.799   3.602   1.636 -1.9802 -0.8016 -0.1842
 1032TIP3   OH224730   3.042   2.593   1.526  0.3054  0.4425  0.2398
 1032TIP3    H124731   3.121   2.611   1.577  0.8436  1.9727 -1.0520
 1032TIP3    H224732   2.974   2.648   1.568 -0.1310 -0.9062  1.3771
 1033TIP3   OH224733   6.650   5.952   0.313 -0.3956 -0.3464 -0.1943
 1033TIP3    H124734   6.652   6.045   0.335 -0.6748 -0.0762 -1.2263
 1033TIP3    H224735   6.740   5.922   0.324 -0.8744 -0.9362  3.8764
 1034TIP3   OH224736   0.314   3.915   7.290 -0.3940  0.6067  0.0210
 1034TIP3    H124737   0.279   3.902   7.202  1.9742 -1.1355 -0.7594
 1034TIP3    H224738   0.238   3.909   7.348 -1.8470  0.7090 -1.7976
 1035TIP3   OH224739   1.961   4.929   6.780  0.0661 -0.0034 -0.2396
 1035TIP3    H124740   1.996   4.853   6.734 -0.4952 -0.6603  0.4061
 1035TIP3    H224741   2.037   4.985   6.795  0.1169  0.9165 -3.1685
 1036TIP3   OH224742   2.867   4.543   7.306  0.1880 -0.2729  0.1510
 1036TIP3    H124743   2.877   4.495   7.224  1.5253  3.1892 -1.9458
 1036TIP3    H224744   2.778   4.579   7.302 -0.4219 -1.5679  1.1986
 1037TIP3   OH224745   5.613   5.836   2.040 -0.3533  0.9024  0.8311
 1037TIP3    H124746   5.595   5.749   2.003 -2.8174  0.8731  1.8915
 1037TIP3    H224747   5.635   5.819   2.131 -1.2089  1.3727  1.1391
 1038TIP3   OH224748   4.146   6.888   6.976  0.9719  0.1021 -0.0333
 1038TIP3    H124749   4.218   6.878   7.039  0.4312  1.3758  0.8322
 1038TIP3    H224750   4.085   6.948   7.019 -2.1477 -3.1793  0.5716
 1039TIP3   OH224751   0.680   4.272   7.544 -0.5085  0.1010 -0.1283
 1039TIP3    H124752   0.713   4.361   7.531  1.5380 -0.4094  1.2253
 1039TIP3    H224753   0.736   4.217   7.490 -2.5993 -0.3364 -2.0448
 1040TIP3   OH224754   6.486   4.087   0.247 -0.0816  0.0351  0.2093
 1040TIP3    H124755   6.488   4.183   0.250  0.1019  0.0208  0.4848
 1040TIP3    H224756   6.522   4.066   0.161 -1.5677  0.2639 -0.5105
 1041TIP3   OH224757   4.606   6.091   8.030 -0.0521  0.0840 -0.1506
 1041TIP3    H124758   4.557   6.117   8.108 -0.1480 -0.9727  0.1441
 1041TIP3    H224759   4.652   6.011   8.055  1.1763  0.5944 -0.6871
 1042TIP3   OH224760   1.070   5.044   8.141  0.2537 -0.0390 -0.9394
 1042TIP3    H124761   1.107   4.973   8.089 -0.7648 -0.8051 -0.6552
 1042TIP3    H224762   1.078   5.015   8.231  0.0639  0.3268 -0.7998
 1043TIP3   OH224763   5.468   0.367   0.620  0.3024 -0.1591  0.2680
 1043TIP3    H124764   5.471   0.431   0.549  0.2668  0.3839  0.7537
 1043TIP3    H224765   5.423   0.412   0.692  0.0208 -0.8244  0.5161
 1044TIP3   OH224766   5.417   2.572   1.411 -0.0939 -0.0612 -0.1768
 1044TIP3    H124767   5.323   2.574   1.391 -0.1884 -3.1565 -0.5605
 1044TIP3    H224768   5.460   2.581   1.326 -0.0086  1.4938  0.0143
 1045TIP3   OH224769   4.947   3.905   2.584 -0.2534 -0.2088 -0.3585
 1045TIP3    H124770   5.023   3.961   2.599 -0.2158 -0.1726 -0.6779
 1045TIP3    H224771   4.975   3.817   2.611  0.2337 -0.3883 -1.4095
 1046TIP3   OH224772   1.913   4.723   7.622 -1.0162  0.0633 -0.7669
 1046TIP3    H124773   1.924   4.630   7.600  1.6507  0.5702 -1.9421
 1046TIP3    H224774   1.851   4.755   7.557 -2.0813 -0.8715 -0.2622
 1047TIP3   OH224775   4.019   1.420   2.246  0.3745  0.0222 -0.2189
 1047TIP3    H124776   3.926   1.399   2.248  0.2639  0.3928 -1.0158
 1047TIP3    H224777   4.061   1.337   2.222  0.2961 -0.2532  0.5669
 1048TIP3   OH224778   3.312   1.217   0.173  0.6504 -0.3594 -0.2374
 1048TIP3    H124779   3.296   1.169   0.254  0.1579 -0.7994 -0.5909
 1048TIP3    H224780   3.266   1.168   0.106  0.8368  0.1463 -0.7478
 1049TIP3   OH224781   2.858   0.785   0.181  0.4317  0.0911 -1.0912
 1049TIP3    H124782   2.763   0.788   0.166  0.3878  0.0485 -0.8323
 1049TIP3    H224783   2.876   0.693   0.201  0.4211  0.2215 -0.4682
 1050TIP3   OH224784   4.794   2.646   7.737  0.6362 -0.6156 -0.1180
 1050TIP3    H124785   4.708   2.689   7.739  0.4208 -0.8914 -1.8491
 1050TIP3    H224786   4.839   2.686   7.663  1.0893 -2.1415 -0.7014
 1051TIP3   OH224787   1.069   3.302   7.653  0.4609  0.0082 -0.0346
 1051TIP3    H124788   1.152   3.349   7.650 -0.4633  1.8288  1.1050
 1051TIP3    H224789   1.012   3.348   7.592 -0.2857  0.0229  0.6464
 1052TIP3   OH224790   0.111   6.553   1.452  0.3039 -0.5562 -0.0512
 1052TIP3    H124791   0.128   6.586   1.363  1.9738 -0.9918  0.0667
 1052TIP3    H224792   0.186   6.497   1.471 -0.8935 -1.8813  0.9822
 1053TIP3   OH224793   1.865   2.652   2.852  0.3134  0.0489  0.4392
 1053TIP3    H124794   1.913   2.691   2.779  0.5057 -0.1037  0.4835
 1053TIP3    H224795   1.773   2.667   2.831  0.3380 -0.5872 -0.1635
 1054TIP3   OH224796   2.586   2.316   0.897  0.0580 -0.1799  0.4392
 1054TIP3    H124797   2.596   2.369   0.818  0.0324 -0.0725  0.5064
 1054TIP3    H224798   2.508   2.263   0.880  0.8099 -1.1165 -0.1350
 1055TIP3   OH224799   2.810   2.230   7.283  0.3352 -0.2040  0.2776
 1055TIP3    H124800   2.777   2.306   7.235 -0.1931  0.0986  1.1058
 1055TIP3    H224801   2.732   2.183   7.311  0.6638 -1.3186 -0.6274
 1056TIP3   OH224802   0.551   3.280   0.112  1.0651 -0.4038  0.1370
 1056TIP3    H124803   0.498   3.287   0.192 -0.0386 -0.2514 -0.5759
 1056TIP3    H224804   0.547   3.367   0.074 -0.0255 -0.9426 -1.0458
 1057TIP3   OH224805   4.862   4.116   8.219  0.6545 -0.2594  0.2298
 1057TIP3    H124806   4.840   4.209   8.221  0.0270 -0.2641 -2.4710
 1057TIP3    H224807   4.957   4.113   8.225  0.7528  0.6484 -0.6773
 1058TIP3   OH224808   0.143   2.457   0.355 -0.5323  0.1454 -0.2108
 1058TIP3    H124809   0.054   2.444   0.386 -0.3375 -1.0463 -0.1010
 1058TIP3    H224810   0.177   2.368   0.342  0.1902  0.5834 -1.5215
 1059TIP3   OH224811   5.298   2.836   7.379 -0.2041  0.3711 -0.7390
 1059TIP3    H124812   5.251   2.873   7.304  0.0342  0.2838 -0.9330
 1059TIP3    H224813   5.300   2.742   7.361 -0.3552  0.3223 -0.5033
 1060TIP3   OH224814   1.004   3.662   7.877  0.0349 -0.9377 -0.6129
 1060TIP3    H124815   0.934   3.673   7.941 -2.0899 -2.5672 -2.4988
 1060TIP3    H224816   1.040   3.575   7.897  0.6992 -0.6277 -0.4380
 1061TIP3   OH224817   6.166   6.509   0.926  0.1413 -0.3376 -0.3022
 1061TIP3    H124818   6.159   6.425   0.880 -0.8485 -0.0791 -0.6484
 1061TIP3    H224819   6.225   6.492   0.999 -0.4781 -1.4759 -0.0490
 1062TIP3   OH224820   6.673   5.877   0.637  0.1894  0.3873  0.4096
 1062TIP3    H124821   6.764   5.859   0.615 -0.0961 -0.7067  0.0948
 1062TIP3    H224822   6.627   5.874   0.553  0.1678  3.0949  0.2332
 1063TIP3   OH224823   0.477   6.668   7.917 -0.1631  0.2362  0.0276
 1063TIP3    H124824   0.449   6.615   7.992 -1.2979  1.9916  0.9145
 1063TIP3    H224825   0.510   6.749   7.956  0.3729  0.6908 -1.3290
 1064TIP3   OH224826   0.199   6.830   1.573  0.1255  0.4237  0.0306
 1064TIP3    H124827   0.190   6.919   1.538 -0.7800  0.5115  0.4688
 1064TIP3    H224828   0.138   6.778   1.521  1.4345 -0.1868 -0.9701
 1065TIP3   OH224829   0.332   6.044   7.333 -0.5259  0.4445  0.0377
 1065TIP3    H124830   0.377   6.046   7.418 -2.5612 -1.8749  1.3043
 1065TIP3    H224831   0.275   6.121   7.335  2.4224  2.8410 -1.1666
 1066TIP3   OH224832   2.241   1.458   2.078 -0.1116 -0.1086 -0.2896
 1066TIP3    H124833   2.175   1.502   2.131  0.8169  1.9388 -0.7509
 1066TIP3    H224834   2.226   1.492   1.989 -0.7327 -2.3978 -1.1347
 1067TIP3   OH224835   6.907   1.894   1.439  0.1541 -0.1653 -0.1380
 1067TIP3    H124836   6.863   1.941   1.369 -0.5334  1.7618  1.4797
 1067TIP3    H224837   6.901   1.953   1.515  1.8858 -1.6359  1.2343
 1068TIP3   OH224838   2.853   2.788   1.549  0.3984  0.0185  0.8171
 1068TIP3    H124839   2.903   2.849   1.495  2.0220 -1.5864  0.3684
 1068TIP3    H224840   2.805   2.843   1.611  0.4845  1.7829 -0.6217
 1069TIP3   OH224841   6.072   6.343   8.524 -0.0332  0.6613 -0.3259
 1069TIP3    H124842   6.028   6.382   8.448 -0.7687 -0.2237 -0.3745
 1069TIP3    H224843   6.017   6.367   8.598 -1.5442 -1.7412 -0.5664
 1070TIP3   OH224844   2.674   3.443   0.775  0.2470 -1.0346 -0.2807
 1070TIP3    H124845   2.742   3.377   0.765  0.4893 -1.0837  1.3774
 1070TIP3    H224846   2.592   3.396   0.758  0.5721 -1.0654 -1.8865
 1071TIP3   OH224847   1.562   3.615   0.930  0.7874  0.5505 -0.1995
 1071TIP3    H124848   1.585   3.575   1.014  0.4440 -1.2127 -0.8980
 1071TIP3    H224849   1.497   3.555   0.893  0.7496  1.4373 -1.6074
 1072TIP3   OH224850   2.582   6.365   6.830 -0.7016  0.2461  0.1050
 1072TIP3    H124851   2.498   6.370   6.875  0.6952 -0.8651  3.1509
 1072TIP3    H224852   2.595   6.272   6.812  1.2366 -0.1678  2.8984
 1073TIP3   OH224853   4.568   5.018   7.835  0.1032  0.0419 -0.2178
 1073TIP3    H124854   4.589   4.929   7.864 -0.3619  0.4934  1.7101
 1073TIP3    H224855   4.486   5.039   7.882  0.1676  1.4447 -0.6923
 1074TIP3   OH224856   1.473   3.330   0.630  0.1459  0.8882  0.0393
 1074TIP3    H124857   1.433   3.384   0.698 -3.0259 -0.7409 -0.3701
 1074TIP3    H224858   1.401   3.306   0.572  2.0791 -0.7449 -1.8587
 1075TIP3   OH224859   1.086   6.087   7.876  0.0008 -0.7709  0.3098
 1075TIP3    H124860   1.113   6.057   7.790 -0.5018 -0.3171 -0.0144
 1075TIP3    H224861   1.084   6.183   7.869 -0.5645 -0.7467  0.6559
 1076TIP3   OH224862   4.328   4.857   1.313  0.2005 -0.1333 -0.2016
 1076TIP3    H124863   4.375   4.840   1.395 -2.1026 -0.4390  1.1594
 1076TIP3    H224864   4.363   4.793   1.252  0.1811 -1.7323  1.3522
 1077TIP3   OH224865   0.367   4.397   6.803  0.3495 -0.5039  0.2814
 1077TIP3    H124866   0.310   4.379   6.728 -0.6493 -0.8387  1.0998
 1077TIP3    H224867   0.456   4.394   6.767 -0.1600  0.4428 -1.1027
 1078TIP3   OH224868   4.763   2.617   2.397  0.1308  0.0386  0.7183
 1078TIP3    H124869   4.857   2.622   2.381  0.6196 -0.9452  2.9339
 1078TIP3    H224870   4.739   2.707   2.421  0.6523  0.1536  0.8320
 1079TIP3   OH224871   3.200   6.160   2.852 -0.0246  0.0662 -0.6864
 1079TIP3    H124872   3.213   6.066   2.835  0.4285  0.5173 -3.1168
 1079TIP3    H224873   3.286   6.192   2.877  0.1803  0.1201 -1.4418
 1080TIP3   OH224874   1.915   6.106   8.265  0.8798  0.4043  0.6990
 1080TIP3    H124875   1.966   6.146   8.336 -0.7854 -0.7596  2.6523
 1080TIP3    H224876   1.828   6.146   8.273  0.1894 -0.9912  0.4175
 1081TIP3   OH224877   2.970   1.091   7.808  0.2673  0.3283  0.3424
 1081TIP3    H124878   2.927   1.165   7.764 -0.7406  0.4831  1.5071
 1081TIP3    H224879   3.059   1.121   7.825  0.5575  0.4023 -1.2134
 1082TIP3   OH224880   5.121   4.569   7.660  0.0330 -0.1162 -0.5009
 1082TIP3    H124881   5.088   4.611   7.740 -2.2334  1.7838 -2.2992
 1082TIP3    H224882   5.210   4.603   7.651 -0.6081  1.7794 -0.1534
 1083TIP3   OH224883   5.318   6.587   8.301  0.0418  0.4554 -0.4002
 1083TIP3    H124884   5.341   6.554   8.214  2.4417 -2.0576  1.0174
 1083TIP3    H224885   5.238   6.540   8.324 -0.2797  0.6987 -0.9885
 1084TIP3   OH224886   1.420   3.890   0.893  0.1277 -0.1713 -0.3933
 1084TIP3    H124887   1.475   3.812   0.891 -1.6373 -1.4860 -1.9748
 1084TIP3    H224888   1.369   3.881   0.973  0.5389 -0.1999 -0.1340
 1085TIP3   OH224889   5.142   1.957   0.645 -0.5845  0.3621  0.2179
 1085TIP3    H124890   5.085   1.892   0.604  0.1069  0.6446 -1.2547
 1085TIP3    H224891   5.136   1.939   0.739 -2.1565 -0.3686  0.0055
 1086TIP3   OH224892   4.132   0.010   7.358  0.3593  0.5417  0.4698
 1086TIP3    H124893   4.194   0.079   7.334 -1.2040  1.6623 -0.5466
 1086TIP3    H224894   4.165  -0.023   7.442  2.0622  1.3913  0.1857
 1087TIP3   OH224895   1.496   6.119   1.345  0.2896 -0.0259  0.2616
 1087TIP3    H124896   1.443   6.050   1.385 -0.4812  0.8436  0.7739
 1087TIP3    H224897   1.453   6.200   1.371  2.0209  0.7278  0.8883
 1088TIP3   OH224898   5.778   4.518   1.355  0.7242 -0.3364  0.0338
 1088TIP3    H124899   5.745   4.545   1.269  1.8562  2.0625  0.2669
 1088TIP3    H224900   5.725   4.442   1.378 -1.0545  0.2327 -1.8463
 1089TIP3   OH224901   0.006   1.406   8.195  0.0202 -0.5129 -0.2442
 1089TIP3    H124902  -0.003   1.418   8.289  0.2279 -1.4843 -0.0915
 1089TIP3    H224903   0.091   1.364   8.184 -0.2663 -0.9603 -0.8154
 1090TIP3   OH224904   1.967   1.337   1.267  0.2652 -0.3847 -0.0994
 1090TIP3    H124905   1.954   1.362   1.359 -1.3589 -3.2547  0.5484
 1090TIP3    H224906   1.913   1.400   1.218  0.8985  0.9869  0.8762
 1091TIP3   OH224907   5.149   5.233   6.418  0.5568  0.0473  0.1853
 1091TIP3    H124908   5.225   5.187   6.381  0.1246  0.1082 -0.8243
 1091TIP3    H224909   5.168   5.326   6.401 -1.8955 -0.0251 -4.7512
 1092TIP3   OH224910   5.474   4.287   0.076 -0.2987  0.7509 -0.1930
 1092TIP3    H124911   5.428   4.359   0.034 -0.5823  1.6612  1.5713
 1092TIP3    H224912   5.552   4.328   0.115  1.0408 -0.4163 -1.5108
 1093TIP3   OH224913   0.846   4.649   1.498 -0.2514  0.6505  0.1520
 1093TIP3    H124914   0.797   4.585   1.550  1.1486 -0.4629  0.1740
 1093TIP3    H224915   0.933   4.650   1.538 -0.4729  3.3082  0.7445
 1094TIP3   OH224916   5.069   2.913   1.903  0.1656  0.0283 -0.0078
 1094TIP3    H124917   5.045   3.005   1.907 -0.1569 -0.0945  1.9366
 1094TIP3    H224918   5.058   2.881   1.993  3.5268 -1.0893  0.1451
 1095TIP3   OH224919   5.031   5.146   1.245  0.2341 -0.5428  0.5386
 1095TIP3    H124920   5.082   5.122   1.168 -0.0636 -1.7557  0.6962
 1095TIP3    H224921   5.068   5.093   1.315 -1.8954 -2.2801  0.4389
 1096TIP3   OH224922   2.584   1.264   8.284 -0.1083 -0.1781  0.1528
 1096TIP3    H124923   2.565   1.263   8.378 -1.4673  0.0999 -0.0913
 1096TIP3    H224924   2.665   1.314   8.276 -0.9527  1.4095  1.0311
 1097TIP3   OH224925   0.839   4.574   7.153 -0.5539 -0.6234 -0.3892
 1097TIP3    H124926   0.811   4.529   7.233 -2.4533  0.3846 -0.4314
 1097TIP3    H224927   0.758   4.606   7.114  0.6194  1.9403 -0.9057
 1098TIP3   OH224928   3.540   4.980   0.424  0.1794 -0.5056 -0.1416
 1098TIP3    H124929   3.624   4.981   0.378  0.2657  1.0029 -0.0020
 1098TIP3    H224930   3.476   5.009   0.358  0.4888  3.0358  0.8674
 1099TIP3   OH224931   6.500   2.742   7.736 -0.6529 -0.1544  0.1227
 1099TIP3    H124932   6.561   2.748   7.809 -0.6392 -1.8863  0.3038
 1099TIP3    H224933   6.436   2.812   7.752 -0.2305 -0.0309  1.3842
 1100TIP3   OH224934   6.566   5.951   1.656  0.1211 -0.7122  0.1241
 1100TIP3    H124935   6.532   5.880   1.710  0.2198 -0.1184  0.9907
 1100TIP3    H224936   6.534   6.031   1.699  0.2291 -0.2273 -0.6828
 1101TIP3   OH224937   5.394   4.689   7.200 -0.0892 -0.2167 -0.3383
 1101TIP3    H124938   5.401   4.779   7.232  0.4963  0.4900 -2.2932
 1101TIP3    H224939   5.305   4.662   7.224 -0.0355  0.6006  0.9010
 1102TIP3   OH224940   3.957   3.399   1.659 -0.0757  0.5224 -0.1029
 1102TIP3    H124941   4.004   3.388   1.576  1.1988 -1.4076  0.7916
 1102TIP3    H224942   3.978   3.489   1.686  0.6344  0.7069 -1.1852
 1103TIP3   OH224943   2.810   6.884   1.155 -0.1326  0.3769  0.0263
 1103TIP3    H124944   2.749   6.856   1.086  0.7919 -0.1121 -0.6206
 1103TIP3    H224945   2.843   6.802   1.192  0.3055  0.6325  0.2044
 1104TIP3   OH224946   0.974   5.340   0.536 -0.1674  0.0228 -0.3782
 1104TIP3    H124947   0.895   5.386   0.563 -0.0769  0.5734 -1.0268
 1104TIP3    H224948   1.042   5.370   0.596 -0.4174 -0.3597  0.1025
 1105TIP3   OH224949   3.188   3.909   7.776 -0.1598  0.2018 -0.3898
 1105TIP3    H124950   3.208   3.824   7.738  1.5446  1.3436 -2.2411
 1105TIP3    H224951   3.118   3.944   7.720 -2.2370 -0.6701  1.5090
 1106TIP3   OH224952   6.775   2.302   1.673 -0.4467 -0.0133 -0.2856
 1106TIP3    H124953   6.725   2.298   1.755 -0.5723 -0.2009 -0.3701
 1106TIP3    H224954   6.720   2.354   1.614  0.1983  1.1650  0.1279
 1107TIP3   OH224955   6.043   4.727   6.864 -0.1059  0.1195  0.5796
 1107TIP3    H124956   6.030   4.683   6.948  0.2994 -0.1721  0.4909
 1107TIP3    H224957   6.128   4.697   6.834 -1.6893 -2.6076 -1.6367
 1108TIP3   OH224958   1.143   4.040   0.315 -0.1968  0.2755  0.4861
 1108TIP3    H124959   1.092   3.975   0.365  1.3428 -0.4904  1.1301
 1108TIP3    H224960   1.177   4.099   0.381 -0.4718  0.9559  0.0281
 1109TIP3   OH224961   1.075   1.485   2.847 -0.2428  0.1391  0.1818
 1109TIP3    H124962   1.082   1.393   2.872 -0.8224  0.3318  1.0798
 1109TIP3    H224963   1.074   1.484   2.751  2.9581 -0.5631  0.0208
 1110TIP3   OH224964   0.712   2.097   1.712  0.4862  0.2877  0.7139
 1110TIP3    H124965   0.699   2.152   1.790 -2.5694  2.1470 -0.9228
 1110TIP3    H224966   0.626   2.093   1.671  1.6992 -1.7503 -1.8969
 1111TIP3   OH224967   1.195   4.523   2.258  0.5899  0.0234 -0.1608
 1111TIP3    H124968   1.198   4.568   2.174  0.7915 -1.5789 -1.0493
 1111TIP3    H224969   1.244   4.581   2.317 -0.1665  1.5159 -0.9403
 1112TIP3   OH224970   5.340   0.694   2.096 -0.2535  0.0473 -0.2493
 1112TIP3    H124971   5.387   0.611   2.091 -0.9928 -0.3148 -1.5165
 1112TIP3    H224972   5.253   0.674   2.062  0.0162  1.6809 -2.0172
 1113TIP3   OH224973   4.178   2.962   1.220 -0.3038  0.8629  0.5808
 1113TIP3    H124974   4.106   2.922   1.172  1.0211 -0.5377 -0.3537
 1113TIP3    H224975   4.186   2.910   1.299  0.5358  0.1163  0.0232
 1114TIP3   OH224976   4.128   6.201   0.444 -0.3402 -0.1889  0.4433
 1114TIP3    H124977   4.128   6.132   0.510 -5.3201 -1.8014 -0.8315
 1114TIP3    H224978   4.104   6.280   0.492 -1.7749 -0.9154  0.9874
 1115TIP3   OH224979   0.450   6.647   0.959  0.5332  0.8873 -0.4496
 1115TIP3    H124980   0.371   6.595   0.977  0.6288  0.6126 -0.8000
 1115TIP3    H224981   0.455   6.649   0.863  1.9421 -0.6261 -0.4528
 1116TIP3   OH224982   1.945   4.201   8.103 -0.0659 -0.7086  0.3602
 1116TIP3    H124983   1.878   4.246   8.051 -0.2985 -0.3115  0.9735
 1116TIP3    H224984   1.946   4.112   8.070 -0.3184 -0.5025 -0.2128
 1117TIP3   OH224985   5.744   3.036   8.342  0.4988 -0.1982  0.2992
 1117TIP3    H124986   5.821   2.991   8.309 -1.0372 -2.1916 -0.7919
 1117TIP3    H224987   5.771   3.071   8.427  1.5595 -4.2014  1.8049
 1118TIP3   OH224988   6.946   5.610   7.772 -0.3436 -0.3211  0.0777
 1118TIP3    H124989   6.969   5.552   7.699 -0.7406 -0.4019  0.0136
 1118TIP3    H224990   7.024   5.613   7.827 -0.1087 -0.4167 -0.2494
 1119TIP3   OH224991   1.445   1.019   0.908 -0.2051 -0.2150  0.6961
 1119TIP3    H124992   1.446   1.066   0.992 -0.5998 -0.3748  0.7962
 1119TIP3    H224993   1.359   0.977   0.906  0.4689 -1.6946  1.0359
 1120TIP3   OH224994   0.183   0.521   7.886 -0.3723  0.3626 -0.2351
 1120TIP3    H124995   0.098   0.512   7.929 -1.1231  0.5599 -1.6201
 1120TIP3    H224996   0.183   0.452   7.820  0.4194  0.5658 -0.4543
 1121TIP3   OH224997   4.945   4.819   0.398  0.2670  0.1517  0.5305
 1121TIP3    H124998   4.903   4.894   0.355  0.0757 -1.1205 -1.6416
 1121TIP3    H224999   4.894   4.804   0.477 -2.2385 -0.1317 -1.0367
 1122TIP3   OH225000   0.252   1.040   0.156 -0.2086 -0.3590 -0.7338
 1122TIP3    H125001   0.319   1.101   0.124 -0.1844 -0.2146 -0.4129
 1122TIP3    H225002   0.256   0.966   0.095  0.5653 -0.5608 -0.4509
 1123TIP3   OH225003   4.594   3.555   2.247  0.1189  0.3150 -0.7311
 1123TIP3    H125004   4.673   3.521   2.204  1.5879  1.9433  0.5408
 1123TIP3    H225005   4.558   3.480   2.294  1.0007 -0.4253 -1.2043
 1124TIP3   OH225006   4.565   4.560   6.004  0.2542 -0.1773 -0.5538
 1124TIP3    H125007   4.568   4.623   6.076 -0.2190 -1.3941  0.5755
 1124TIP3    H225008   4.498   4.595   5.945  0.2613  0.5633 -0.1418
 1125TIP3   OH225009   2.523   4.285   2.240 -0.4405  0.6943 -0.4387
 1125TIP3    H125010   2.484   4.330   2.166 -0.1745  0.1719 -0.8999
 1125TIP3    H225011   2.475   4.318   2.316 -3.8505 -2.0230 -1.1756
 1126TIP3   OH225012   6.934   6.029   8.443 -0.8520 -0.3962  0.4237
 1126TIP3    H125013   6.967   5.952   8.396 -0.6760  0.0288 -0.1568
 1126TIP3    H225014   7.012   6.066   8.485 -0.8675 -0.2936  0.3599
 1127TIP3   OH225015   0.321   6.785   7.085 -0.2132  0.2895 -0.1842
 1127TIP3    H125016   0.325   6.722   7.013  2.4690 -0.0767  0.2061
 1127TIP3    H225017   0.398   6.767   7.138 -0.8168  2.1523  1.4510
 1128TIP3   OH225018   1.406   1.022   7.969 -0.4908 -1.0068 -0.2906
 1128TIP3    H125019   1.465   1.022   8.044  1.3646 -0.3043 -1.6646
 1128TIP3    H225020   1.370   1.111   7.967 -1.3126 -1.3195  0.3222
 1129TIP3   OH225021   4.865   6.606   0.621  0.0940  0.3088 -0.8762
 1129TIP3    H125022   4.842   6.559   0.541  1.2577 -1.0723 -0.4296
 1129TIP3    H225023   4.953   6.640   0.605  0.6240 -0.5921  0.0656
 1130TIP3   OH225024   5.278   1.084   2.867  0.5246  0.7648 -0.4981
 1130TIP3    H125025   5.212   1.094   2.936  0.0246  0.9687 -1.0020
 1130TIP3    H225026   5.321   1.001   2.888  0.7109  1.0580  0.3342
 1131TIP3   OH225027   0.121   1.187   7.554 -0.3737 -0.4112 -0.3573
 1131TIP3    H125028   0.157   1.276   7.559  1.1375 -0.7729 -2.8309
 1131TIP3    H225029   0.196   1.130   7.574 -0.8510 -1.1504 -0.6338
 1132TIP3   OH225030   1.721   2.804   8.369 -0.5991 -0.5237 -0.1215
 1132TIP3    H125031   1.629   2.779   8.379 -0.6676 -0.3494 -0.2995
 1132TIP3    H225032   1.760   2.733   8.317 -1.0736  0.3020 -1.6831
 1133TIP3   OH225033   1.650   1.450   0.377  0.4385 -0.3575  0.1608
 1133TIP3    H125034   1.745   1.442   0.370  0.4553 -0.2376  0.2418
 1133TIP3    H225035   1.615   1.384   0.318  0.5724  0.6323 -1.0699
 1134TIP3   OH225036   2.378   6.099   7.595 -0.1039  0.3069  0.6597
 1134TIP3    H125037   2.304   6.043   7.620 -0.6768  0.5963 -0.3278
 1134TIP3    H225038   2.377   6.170   7.659 -0.4035  0.0713  0.9222
 1135TIP3   OH225039   6.426   6.159   7.619 -0.0884  0.2220 -0.1889
 1135TIP3    H125040   6.454   6.092   7.556  1.6518  0.5512  0.1755
 1135TIP3    H225041   6.471   6.239   7.590  0.9544  0.3212  1.5990
 1136TIP3   OH225042   5.062   6.782   6.982 -0.6488  0.6717  0.0372
 1136TIP3    H125043   5.028   6.791   6.893 -1.7326  1.2346  0.4789
 1136TIP3    H225044   5.146   6.737   6.972  0.3515  2.7230 -1.4872
 1137TIP3   OH225045   3.534   5.101   7.182 -0.8863  0.3483  0.0399
 1137TIP3    H125046   3.508   5.035   7.118  1.0121  0.0983 -0.5481
 1137TIP3    H225047   3.473   5.091   7.254 -2.8257  0.3388 -1.5196
 1138TIP3   OH225048   4.072   2.201   0.845  0.0285  0.1782 -0.1577
 1138TIP3    H125049   4.076   2.133   0.777 -2.6782  0.7992 -1.0640
 1138TIP3    H225050   4.047   2.153   0.924 -0.8643 -0.0425 -0.5591
 1139TIP3   OH225051   3.399   3.238   8.243 -0.3134  0.6052 -0.2204
 1139TIP3    H125052   3.479   3.224   8.294  0.3214  2.0920 -0.7401
 1139TIP3    H225053   3.431   3.260   8.155 -1.2077  2.7757 -0.0623
 1140TIP3   OH225054   2.272   5.832   1.280 -0.4029  0.1151  0.4053
 1140TIP3    H125055   2.261   5.926   1.262 -1.2001  0.2711  1.6181
 1140TIP3    H225056   2.187   5.804   1.314 -1.4842 -1.9269 -3.3801
 1141TIP3   OH225057   5.298   0.475   1.610 -0.0559 -0.9259 -0.1154
 1141TIP3    H125058   5.205   0.475   1.633  0.2248 -0.8026  1.0576
 1141TIP3    H225059   5.342   0.441   1.688  0.7756 -2.3617 -1.1442
 1142TIP3   OH225060   3.812   2.470   0.809  0.0692 -0.1882 -0.3738
 1142TIP3    H125061   3.867   2.442   0.882  0.3503 -1.0921 -0.9251
 1142TIP3    H225062   3.727   2.489   0.849  0.3014 -0.3969  0.2293
 1143TIP3   OH225063   0.175   5.375   7.134  0.8833  0.0414 -0.2552
 1143TIP3    H125064   0.221   5.445   7.088  0.0518  1.5315  1.0949
 1143TIP3    H225065   0.084   5.383   7.107  0.3201  1.1361  1.7807
 1144TIP3   OH225066   2.605   1.525   2.590  0.4432 -0.5430  0.5195
 1144TIP3    H125067   2.550   1.465   2.541  1.3545 -1.7560  0.9384
 1144TIP3    H225068   2.649   1.470   2.655 -0.3901  0.9115  2.4282
 1145TIP3   OH225069   1.102   1.466   2.565  0.1769  0.1602 -0.0229
 1145TIP3    H125070   1.175   1.414   2.533  0.6069  0.4885  0.4160
 1145TIP3    H225071   1.088   1.533   2.498  0.3300  0.1492 -0.0645
 1146TIP3   OH225072   0.569   4.091   0.616 -0.2009 -0.1622 -0.2392
 1146TIP3    H125073   0.528   4.123   0.536 -0.7340  0.4972  0.2848
 1146TIP3    H225074   0.607   4.007   0.591  0.2126  0.3320 -1.3514
 1147TIP3   OH225075   4.560   2.265   1.294 -0.9231 -0.1500 -0.0624
 1147TIP3    H125076   4.627   2.253   1.362 -1.8210  1.6672  1.2411
 1147TIP3    H225077   4.602   2.234   1.214  0.7911 -0.8231  1.0235
 1148TIP3   OH225078   4.272   4.062   6.354 -0.1651 -0.3433  0.3136
 1148TIP3    H125079   4.342   4.012   6.314  0.1747  0.2834  0.1256
 1148TIP3    H225080   4.313   4.107   6.428  0.0758  1.4408 -0.8322
 1149TIP3   OH225081   4.802   6.754   7.738 -0.2944 -0.1971 -0.0480
 1149TIP3    H125082   4.788   6.682   7.799  1.0556  1.4864  2.4362
 1149TIP3    H225083   4.828   6.827   7.793 -0.3672  1.8757 -2.5658
 1150TIP3   OH225084   0.759   3.032   8.481 -0.4942  0.3982  1.1415
 1150TIP3    H125085   0.801   3.117   8.473  0.8461 -0.3172  0.2555
 1150TIP3    H225086   0.724   3.014   8.394  1.0484 -0.8392  0.7406
 1151TIP3   OH225087   5.214   2.481   1.621  0.1391  0.4138  0.0468
 1151TIP3    H125088   5.167   2.559   1.591 -0.7540 -0.8401 -1.9865
 1151TIP3    H225089   5.301   2.490   1.584  0.1602  0.6142  0.1410
 1152TIP3   OH225090   5.622   1.011   2.359  0.1135 -0.1029 -0.6125
 1152TIP3    H125091   5.671   0.937   2.395  0.6529 -0.2531 -1.6108
 1152TIP3    H225092   5.641   1.084   2.418  1.3752 -0.2152 -0.8532
 1153TIP3   OH225093   1.744   2.525   7.690 -0.0882  0.2557 -0.1244
 1153TIP3    H125094   1.826   2.480   7.668 -0.8840 -0.5612 -1.5032
 1153TIP3    H225095   1.680   2.455   7.700 -1.4040  1.0281 -2.5510
 1154TIP3   OH225096   3.898   6.151   6.391 -0.3550 -0.1660 -0.0217
 1154TIP3    H125097   3.852   6.099   6.325 -1.0417  0.8832 -0.4131
 1154TIP3    H225098   3.991   6.136   6.374 -0.5209 -1.7817  0.3257
 1155TIP3   OH225099   5.225   3.870   0.774  0.1594 -0.4426 -1.2222
 1155TIP3    H125100   5.307   3.844   0.817  0.1564  1.1730 -0.1531
 1155TIP3    H225101   5.157   3.846   0.837  0.0749  1.0124 -0.7236
 1156TIP3   OH225102   1.571   0.898   7.489  0.2828 -0.1137 -0.4913
 1156TIP3    H125103   1.515   0.824   7.465 -1.8247  1.7494 -1.7842
 1156TIP3    H225104   1.547   0.919   7.579  0.4197 -0.6047 -0.3411
 1157TIP3   OH225105   3.834   1.148   8.504  0.0761 -0.1754 -0.0147
 1157TIP3    H125106   3.750   1.147   8.550  0.1285  1.2017  0.1665
 1157TIP3    H225107   3.890   1.204   8.558  0.3695  0.8819 -1.3406
 1158TIP3   OH225108   4.131   0.529   1.149  0.0409 -0.2448 -0.3424
 1158TIP3    H125109   4.200   0.583   1.111 -0.6803  0.8479 -0.1379
 1158TIP3    H225110   4.050   0.564   1.112 -0.3713 -2.2063 -1.4416
 1159TIP3   OH225111   4.992   3.885   0.598  0.6813  0.3562 -0.2565
 1159TIP3    H125112   5.013   3.929   0.516  0.9255 -1.0548 -0.9692
 1159TIP3    H225113   5.076   3.880   0.644  0.3303  2.3041  0.7046
 1160TIP3   OH225114   6.217   4.970   2.171  0.1661 -0.0497  0.3188
 1160TIP3    H125115   6.131   4.982   2.131  1.5363 -0.2632 -3.0114
 1160TIP3    H225116   6.204   4.988   2.264 -3.1434  1.3104 -0.3056
 1161TIP3   OH225117   5.759   4.390   7.316  0.1884 -0.0533 -0.1112
 1161TIP3    H125118   5.670   4.390   7.280  1.1741 -0.1327 -2.7643
 1161TIP3    H225119   5.812   4.345   7.250  2.0442 -0.9832  1.8854
 1162TIP3   OH225120   2.391   6.335   7.849 -0.3635  0.8591  0.4004
 1162TIP3    H125121   2.483   6.355   7.831 -0.4614  0.6263 -0.3570
 1162TIP3    H225122   2.345   6.351   7.767 -0.8932  0.2790  0.5700
 1163TIP3   OH225123   1.809   6.392   0.571 -0.2440  0.1268 -0.3111
 1163TIP3    H125124   1.843   6.430   0.652  0.1682 -1.7990  0.4616
 1163TIP3    H225125   1.876   6.329   0.543 -0.4267  0.6720 -2.1171
 1164TIP3   OH225126   4.140   3.624   1.737  0.3602 -0.4123 -0.3951
 1164TIP3    H125127   4.189   3.543   1.749  0.1091 -0.4929  0.1083
 1164TIP3    H225128   4.094   3.637   1.820  1.5984  1.0474  0.1120
 1165TIP3   OH225129   0.971   2.746   7.066  0.4176 -1.1311  0.0600
 1165TIP3    H125130   0.962   2.661   7.024  0.9477 -0.3164 -1.8391
 1165TIP3    H225131   0.960   2.809   6.994  0.0366  0.4078  1.3990
 1166TIP3   OH225132   0.249   4.833   8.366 -0.3164  0.2874  0.1599
 1166TIP3    H125133   0.334   4.864   8.336  0.2043  0.9903  2.2214
 1166TIP3    H225134   0.235   4.878   8.449 -2.9410  0.5799 -0.3534
 1167TIP3   OH225135   2.936   0.082   0.684 -0.1127  0.0006  0.3092
 1167TIP3    H125136   3.018   0.051   0.722  0.2888  1.1553  0.4212
 1167TIP3    H225137   2.873   0.013   0.704  1.3674 -2.3484 -2.2424
 1168TIP3   OH225138   4.458   5.949   1.915  0.3571  0.1846  0.1498
 1168TIP3    H125139   4.420   5.895   1.845  1.2615  1.0352 -1.0475
 1168TIP3    H225140   4.503   5.886   1.972  1.8309 -0.3370 -1.5017
 1169TIP3   OH225141   5.910   0.164   7.241 -0.1219 -0.1059 -0.1760
 1169TIP3    H125142   5.888   0.120   7.159 -3.2286 -2.3457  1.6212
 1169TIP3    H225143   5.951   0.096   7.295  0.9348  1.0374  0.5173
 1170TIP3   OH225144   4.393   2.155   8.248  0.3354  0.3876 -0.0683
 1170TIP3    H125145   4.376   2.115   8.333 -0.9400 -0.4165 -0.6758
 1170TIP3    H225146   4.481   2.193   8.256  0.9730 -1.2087  1.0402
 1171TIP3   OH225147   6.921   4.387   6.587  0.1378 -0.0159 -0.3044
 1171TIP3    H125148   7.007   4.384   6.546 -0.6492  0.2444 -2.0575
 1171TIP3    H225149   6.909   4.299   6.624  1.6341  0.3125  1.0844
 1172TIP3   OH225150   6.400   5.715   0.734  0.6992 -0.0729  0.3330
 1172TIP3    H125151   6.418   5.622   0.719  0.8259  0.0480 -0.2583
 1172TIP3    H225152   6.478   5.760   0.701  0.5082  0.2640  0.3403
 1173TIP3   OH225153   3.721   4.720   8.234  0.6636  0.0605  0.1418
 1173TIP3    H125154   3.672   4.651   8.279 -0.4961  0.6471 -0.1809
 1173TIP3    H225155   3.706   4.703   8.141 -0.8463  1.5251  0.0529
 1174TIP3   OH225156   3.227   5.133   7.650 -0.4025  0.0443 -0.0548
 1174TIP3    H125157   3.268   5.070   7.591 -0.3901 -0.1079  0.1151
 1174TIP3    H225158   3.136   5.103   7.658 -0.6227  0.5373 -0.6495
 1175TIP3   OH225159   4.859   2.945   0.996  0.3239 -0.1061 -0.0436
 1175TIP3    H125160   4.773   2.986   1.011  0.4164  1.0488 -2.2900
 1175TIP3    H225161   4.847   2.854   1.023 -2.1486 -0.4076 -1.7802
 1176TIP3   OH225162   6.642   6.484   1.279 -0.8282  0.4416 -0.5771
 1176TIP3    H125163   6.569   6.540   1.308  0.4593  2.0880 -0.3786
 1176TIP3    H225164   6.704   6.485   1.352  0.5721  1.2446 -1.7171
 1177TIP3   OH225165   3.136   0.060   2.376  0.1083  0.4309  0.0816
 1177TIP3    H125166   3.193   0.089   2.448 -0.6320  1.1058  0.4196
 1177TIP3    H225167   3.172  -0.024   2.348  0.1084 -0.1080  1.6045
 1178TIP3   OH225168   5.116   4.742   1.216  0.0115  0.3341 -0.0774
 1178TIP3    H125169   5.102   4.722   1.123 -1.1019 -0.0856  0.1663
 1178TIP3    H225170   5.040   4.704   1.260  0.6481  0.3276  1.0384
 1179TIP3   OH225171   6.026   2.408   2.424  0.2732 -0.2195 -0.3484
 1179TIP3    H125172   6.096   2.446   2.477 -0.1959 -0.0768  0.1726
 1179TIP3    H225173   6.025   2.316   2.448 -1.2434  0.2057  1.3882
 1180TIP3   OH225174   3.678   2.140   1.902  0.0699  0.1196 -0.6230
 1180TIP3    H125175   3.741   2.077   1.867 -0.0423  0.0040 -0.6208
 1180TIP3    H225176   3.710   2.159   1.990 -0.5396 -0.8585 -0.1654
 1181TIP3   OH225177   0.656   2.913   8.211 -0.3704  0.1276  0.5896
 1181TIP3    H125178   0.741   2.908   8.167 -0.1660 -1.8163  1.1052
 1181TIP3    H225179   0.593   2.882   8.146  0.0692 -3.8833  1.8205
 1182TIP3   OH225180   3.092   5.149   0.299  0.3036  0.0231 -0.0588
 1182TIP3    H125181   3.124   5.118   0.215 -0.8405 -0.0601 -0.4892
 1182TIP3    H225182   3.086   5.244   0.289 -1.2457 -0.1044 -0.6217
 1183TIP3   OH225183   5.364   5.892   1.739  0.0086 -0.1489  0.3732
 1183TIP3    H125184   5.273   5.921   1.741 -0.1213 -0.4425 -0.8324
 1183TIP3    H225185   5.411   5.961   1.693  0.1846 -0.5361 -0.0385
 1184TIP3   OH225186   2.768   0.163   3.565 -0.1115 -0.0383  0.1915
 1184TIP3    H125187   2.854   0.203   3.551 -0.3340  1.1744  1.9877
 1184TIP3    H225188   2.740   0.137   3.478  1.5716  0.6167 -0.5957
 1185TIP3   OH225189   5.255   5.726   2.520  0.3089  0.1395  0.4683
 1185TIP3    H125190   5.169   5.756   2.547  0.2580  1.3906 -0.9728
 1185TIP3    H225191   5.316   5.774   2.576  0.1117  0.2716  0.5697
 1186TIP3   OH225192   2.233   5.302   7.273  0.3830  0.2433  0.7372
 1186TIP3    H125193   2.294   5.360   7.319 -0.0713  0.0926  1.5572
 1186TIP3    H225194   2.214   5.348   7.191  2.5216 -0.2642 -0.1232
 1187TIP3   OH225195   3.537   1.959   2.290 -0.0822 -0.2946  0.4310
 1187TIP3    H125196   3.629   1.963   2.265 -0.1251  1.2892  0.4081
 1187TIP3    H225197   3.531   2.015   2.368 -1.2359  0.8021 -0.3914
 1188TIP3   OH225198   6.109   2.689   0.694  0.1489  0.2270 -0.4657
 1188TIP3    H125199   6.051   2.764   0.707 -0.3657  0.4501 -3.3205
 1188TIP3    H225200   6.189   2.726   0.657  0.3182 -0.5157 -0.8699
 1189TIP3   OH225201   5.098   1.686   7.246  0.0634 -0.3126  0.6363
 1189TIP3    H125202   5.030   1.739   7.288 -0.2761 -0.6432  0.5128
 1189TIP3    H225203   5.155   1.749   7.203  0.8217  0.0924  2.1575
 1190TIP3   OH225204   5.119   5.553   0.310  0.1688  0.4902 -0.3766
 1190TIP3    H125205   5.121   5.466   0.349  1.9789  1.3573  1.6903
 1190TIP3    H225206   5.180   5.549   0.237  0.5056  0.1035 -0.0757
 1191TIP3   OH225207   1.141   4.890   0.387  0.4901  0.4870  0.5694
 1191TIP3    H125208   1.130   4.817   0.326  0.8613 -0.7846  1.9679
 1191TIP3    H225209   1.057   4.936   0.386 -0.0258 -0.4544  0.2922
 1192TIP3   OH225210   2.973   3.971   6.883 -0.1895 -0.1896  0.3721
 1192TIP3    H125211   3.004   4.007   6.800  0.7924 -1.1742  0.2810
 1192TIP3    H225212   3.026   3.891   6.895 -1.9887 -1.3732  0.7533
 1193TIP3   OH225213   2.504   6.440   0.138 -0.1240  0.1294  0.5194
 1193TIP3    H125214   2.598   6.441   0.158  0.0526  0.6345 -0.2660
 1193TIP3    H225215   2.484   6.347   0.125 -0.1196 -0.1542  2.3289
 1194TIP3   OH225216   5.348   6.211   0.601  0.6312 -0.1069 -0.2035
 1194TIP3    H125217   5.404   6.286   0.578 -0.0099 -0.0135 -1.5452
 1194TIP3    H225218   5.270   6.250   0.640  0.1244 -0.0253 -1.2614
 1195TIP3   OH225219   4.753   6.314   0.561  0.1530  0.3814 -0.6629
 1195TIP3    H125220   4.824   6.369   0.529 -0.0882 -0.0354 -2.0092
 1195TIP3    H225221   4.708   6.286   0.481  0.1929 -1.6523 -0.0109
 1196TIP3   OH225222   4.077   6.018   1.430  0.1260  0.8190 -0.1178
 1196TIP3    H125223   4.113   5.934   1.400 -0.3594  0.3846  0.4978
 1196TIP3    H225224   4.146   6.081   1.413  0.4521  0.3184 -0.7107
 1197TIP3   OH225225   0.291   2.862   0.258 -0.4725 -0.7073  0.3405
 1197TIP3    H125226   0.321   2.911   0.335  1.5040 -3.9323  1.8413
 1197TIP3    H225227   0.342   2.897   0.186 -0.4881  0.6364  0.9319
 1198TIP3   OH225228   1.962   4.372   6.701 -0.0202  0.0963 -0.0869
 1198TIP3    H125229   1.883   4.399   6.747 -0.0900 -0.5826  0.2116
 1198TIP3    H225230   1.973   4.436   6.631 -0.5102  0.5242  0.2214
 1199TIP3   OH225231   4.127   4.145   0.296  0.3384 -0.2390 -0.8163
 1199TIP3    H125232   4.220   4.162   0.283  0.0615  2.9358  0.3248
 1199TIP3    H225233   4.083   4.207   0.238 -1.0483 -0.7662 -0.3821
 1200TIP3   OH225234   0.017   3.768   0.779 -0.2687  0.0868  0.5536
 1200TIP3    H125235  -0.053   3.805   0.833  0.8052  0.4122  1.7665
 1200TIP3    H225236   0.080   3.733   0.842  0.5524 -0.4132 -0.5214
 1201TIP3   OH225237   4.230   5.491   1.108  0.0401  0.5745 -0.1389
 1201TIP3    H125238   4.310   5.539   1.126  0.3177  0.4114 -0.9018
 1201TIP3    H225239   4.256   5.422   1.048 -0.5528  0.1146  0.1135
 1202TIP3   OH225240   0.886   0.151   2.044  0.3583 -0.0139  0.3071
 1202TIP3    H125241   0.896   0.236   2.087  0.3487  0.2009 -0.1079
 1202TIP3    H225242   0.973   0.112   2.047  0.2670 -0.1885  0.8986
 1203TIP3   OH225243   5.844   5.864   2.445 -0.3735 -0.0059  0.2100
 1203TIP3    H125244   5.836   5.768   2.440 -1.3665  0.0977 -0.3175
 1203TIP3    H225245   5.809   5.886   2.531  1.7019 -0.2786  1.1798
 1204TIP3   OH225246   5.683   4.655   0.698 -0.1216  0.2049 -0.4178
 1204TIP3    H125247   5.592   4.672   0.673  0.4396  0.1797 -2.6875
 1204TIP3    H225248   5.698   4.712   0.774 -1.8709  0.5535 -0.2843
 1205TIP3   OH225249   6.707   5.146   8.487  0.3521  0.2079 -0.2455
 1205TIP3    H125250   6.611   5.144   8.483  0.3252 -0.6664  0.4910
 1205TIP3    H225251   6.727   5.223   8.540  0.0822  0.5858 -0.6748
 1206TIP3   OH225252   2.018   6.529   2.308 -0.3513 -0.6998 -0.1020
 1206TIP3    H125253   2.005   6.511   2.402  0.3980  2.6518  0.7807
 1206TIP3    H225254   1.934   6.565   2.279  0.4736  1.7991  0.3558
 1207TIP3   OH225255   6.637   0.398   0.496 -0.2909  0.1165 -0.4114
 1207TIP3    H125256   6.717   0.366   0.539 -0.3176  0.9934  0.3314
 1207TIP3    H225257   6.635   0.353   0.412  0.0307 -1.2981  0.2962
 1208TIP3   OH225258   1.390   6.209   1.077 -0.6296  0.2252 -0.3536
 1208TIP3    H125259   1.394   6.139   1.142 -0.1288  2.4542  2.2099
 1208TIP3    H225260   1.447   6.278   1.112 -1.3029  2.0480 -2.5709
 1209TIP3   OH225261   1.820   5.141   7.432 -0.5137 -0.0696  0.0717
 1209TIP3    H125262   1.735   5.149   7.474 -1.4125 -0.0068 -1.6574
 1209TIP3    H225263   1.802   5.093   7.351  1.1308 -0.2307 -0.2360
 1210TIP3   OH225264   5.520   0.108   8.236 -0.2140 -0.3180  0.2432
 1210TIP3    H125265   5.427   0.086   8.223 -0.2145 -0.2955  0.2084
 1210TIP3    H225266   5.567   0.030   8.209 -0.1065  0.3724 -1.6825
 1211TIP3   OH225267   3.256   5.615   1.894  0.5692 -0.2357  0.3302
 1211TIP3    H125268   3.236   5.701   1.929 -0.9559 -0.0420 -0.9014
 1211TIP3    H225269   3.271   5.630   1.801  2.0390 -1.0734  0.4009
 1212TIP3   OH225270   3.149   4.950   0.078  0.2172 -0.3569  0.4761
 1212TIP3    H125271   3.109   4.997   0.005  0.0474  0.8999  1.3462
 1212TIP3    H225272   3.100   4.867   0.082 -1.4479  0.5857  0.6837
 1213TIP3   OH225273   2.570   6.095   2.722 -0.1573  1.0436  0.8307
 1213TIP3    H125274   2.553   6.168   2.782 -0.5324  0.9214  0.8739
 1213TIP3    H225275   2.484   6.071   2.689 -0.2507 -0.4785  2.0809
 1214TIP3   OH225276   1.761   1.936   8.198  0.1937  0.1067 -0.6203
 1214TIP3    H125277   1.772   2.031   8.201  0.1068  0.1062 -0.1095
 1214TIP3    H225278   1.769   1.909   8.289 -3.5624  0.0490 -0.1413
 1215TIP3   OH225279   2.034   2.253   1.684 -0.2292  0.5632  0.0798
 1215TIP3    H125280   1.982   2.186   1.642 -0.5280  1.7454 -1.5072
 1215TIP3    H225281   2.080   2.297   1.613 -0.9951  2.8504  0.9160
 1216TIP3   OH225282   1.982   1.734   7.518 -0.0542 -0.7064  0.6078
 1216TIP3    H125283   1.934   1.812   7.491 -2.2796 -1.3811  2.2689
 1216TIP3    H225284   2.012   1.695   7.437 -0.1716  1.0715 -0.3497
 1217TIP3   OH225285   3.673   1.528   2.858 -0.2523 -0.4134  0.1559
 1217TIP3    H125286   3.579   1.545   2.857 -0.2637 -0.4221  0.8878
 1217TIP3    H225287   3.712   1.613   2.835 -0.3993 -0.0343  1.2491
 1218TIP3   OH225288   5.367   3.167   7.087 -0.8070  0.4455 -0.3391
 1218TIP3    H125289   5.338   3.098   7.148  1.6583  1.0416  1.6718
 1218TIP3    H225290   5.415   3.120   7.019 -1.8372 -0.0401 -0.7696
 1219TIP3   OH225291   5.223   2.010   1.815  0.0375 -0.2281 -0.3303
 1219TIP3    H125292   5.232   1.918   1.842 -0.5257 -0.6671 -1.5764
 1219TIP3    H225293   5.313   2.043   1.813  0.2988 -0.9348 -0.4803
 1220TIP3   OH225294   1.667   3.246   2.497 -0.1431 -0.4206 -0.0783
 1220TIP3    H125295   1.582   3.225   2.536  1.0616  0.5316  3.3202
 1220TIP3    H225296   1.718   3.166   2.507 -0.3381 -0.7446 -1.4344
 1221TIP3   OH225297   5.571   3.434   1.269  0.4000  0.9547 -0.2705
 1221TIP3    H125298   5.483   3.463   1.294 -0.0297 -0.6676  0.2111
 1221TIP3    H225299   5.574   3.448   1.174 -0.3316  1.1323 -0.2766
 1222TIP3   OH225300   6.074   1.839   1.412 -0.1027  0.3293  0.1861
 1222TIP3    H125301   5.984   1.846   1.381  0.1547 -0.5071 -0.8060
 1222TIP3    H225302   6.097   1.747   1.400  0.4959  0.2721  1.5633
 1223TIP3   OH225303   1.849   3.886   7.778  0.0438 -0.0259 -0.1242
 1223TIP3    H125304   1.770   3.863   7.730 -0.3422 -0.3904  0.6639
 1223TIP3    H225305   1.916   3.824   7.746 -0.8268 -1.9586  1.5324
 1224TIP3   OH225306   5.632   4.796   6.533  0.5639  0.1903 -0.2194
 1224TIP3    H125307   5.619   4.859   6.605  1.6403 -1.4470  1.4956
 1224TIP3    H225308   5.566   4.729   6.548  0.0978  0.3442 -1.4409
 1225TIP3   OH225309   5.273   5.586   7.720 -0.6894 -0.3162  0.3730
 1225TIP3    H125310   5.342   5.555   7.779  0.3662 -1.9653 -1.5928
 1225TIP3    H225311   5.279   5.681   7.723 -1.0745 -0.2814  3.2876
 1226TIP3   OH225312   5.173   0.832   7.977 -0.1351 -0.1496  0.1002
 1226TIP3    H125313   5.198   0.746   7.944 -1.2404 -0.5075  0.1469
 1226TIP3    H225314   5.142   0.879   7.900  1.3924  0.5876 -0.1084
 1227TIP3   OH225315   2.283   5.194   7.818 -0.4970  0.0974  0.1554
 1227TIP3    H125316   2.233   5.125   7.774  0.7196  0.4560 -1.9237
 1227TIP3    H225317   2.220   5.236   7.876 -1.9138 -1.1300 -0.4383
 1228TIP3   OH225318   3.832   6.056   1.933 -0.1551 -0.2144 -0.4815
 1228TIP3    H125319   3.819   6.049   1.838 -0.7697  1.0395 -0.5082
 1228TIP3    H225320   3.911   6.005   1.950  0.5802  0.4177 -1.8282
 1229TIP3   OH225321   5.677   1.198   2.566  0.8838 -0.0603 -0.0489
 1229TIP3    H125322   5.666   1.285   2.528  1.7594 -0.2914 -0.8855
 1229TIP3    H225323   5.606   1.190   2.629 -0.2782  0.5861 -1.2187
 1230TIP3   OH225324   1.313   5.787   6.255  0.1650 -0.4746 -0.1850
 1230TIP3    H125325   1.320   5.716   6.192 -0.5501  0.4061 -1.3102
 1230TIP3    H225326   1.222   5.817   6.247  0.7923  1.4530 -0.7788
 1231TIP3   OH225327   1.761   0.024   7.537  0.3449  0.9079 -0.7460
 1231TIP3    H125328   1.850   0.045   7.566  1.2747  2.0944 -4.0555
 1231TIP3    H225329   1.745   0.082   7.463 -2.2107 -1.0690 -1.9191
 1232TIP3   OH225330   3.157   3.254   0.453  0.0404 -0.2671 -0.0492
 1232TIP3    H125331   3.180   3.163   0.438  3.3415  0.1743  1.4628
 1232TIP3    H225332   3.206   3.303   0.387  0.2980  0.5376  0.7179
 1233TIP3   OH225333   2.041   0.337   2.367  0.0604  0.6886 -0.1144
 1233TIP3    H125334   2.002   0.425   2.357  0.7502  1.1137  0.7640
 1233TIP3    H225335   2.020   0.292   2.285 -1.3606  1.2592 -0.0951
 1234TIP3   OH225336   6.926   3.297   7.138 -0.0647  0.5728  0.3987
 1234TIP3    H125337   6.881   3.349   7.205 -0.2462  1.4051 -0.3451
 1234TIP3    H225338   6.994   3.250   7.186 -0.7051  0.5286  1.2913
 1235TIP3   OH225339   3.161   3.816   1.898 -0.2319  0.1262  0.2872
 1235TIP3    H125340   3.113   3.734   1.889 -0.2016  0.2229 -0.9220
 1235TIP3    H225341   3.146   3.842   1.989  0.7799 -1.8334  1.0852
 1236TIP3   OH225342   5.187   1.894   2.118  0.2376 -0.2838 -0.1485
 1236TIP3    H125343   5.258   1.951   2.148  1.5320 -1.0768 -1.5316
 1236TIP3    H225344   5.165   1.840   2.194  0.3215  0.7402  0.6223
 1237TIP3   OH225345   5.798   4.806   1.451 -0.0987  0.1333 -0.1648
 1237TIP3    H125346   5.781   4.714   1.430  1.4127  0.0198 -0.9908
 1237TIP3    H225347   5.716   4.851   1.428 -0.3288 -0.7848 -1.2277
 1238TIP3   OH225348   4.857   0.056   0.451  0.1529 -0.0198 -0.6728
 1238TIP3    H125349   4.912   0.024   0.379 -0.3196  2.2460 -2.1295
 1238TIP3    H225350   4.910   0.123   0.494 -0.7389  0.8759 -0.9337
 1239TIP3   OH225351   6.480   2.547   0.597 -0.0209  0.6956  0.1001
 1239TIP3    H125352   6.522   2.588   0.522  0.4795  0.4160  0.2213
 1239TIP3    H225353   6.526   2.464   0.608 -1.0673  0.0608 -0.1817
 1240TIP3   OH225354   2.493   6.424   1.881 -0.2113  0.6639  0.6151
 1240TIP3    H125355   2.520   6.358   1.817 -1.9360  0.9773 -0.5163
 1240TIP3    H225356   2.563   6.425   1.946  0.6626 -1.0674 -0.2335
 1241TIP3   OH225357   4.196   2.409   8.527 -0.0745  0.3453  0.6653
 1241TIP3    H125358   4.109   2.450   8.524  0.5660  1.8841  1.4863
 1241TIP3    H225359   4.251   2.475   8.571  1.4008 -0.7801  0.5672
 1242TIP3   OH225360   3.087   5.307   2.625  0.0477  0.3809  0.0521
 1242TIP3    H125361   3.017   5.246   2.599 -0.1189  1.2874 -1.8289
 1242TIP3    H225362   3.145   5.255   2.679 -0.3408 -1.3431 -1.0996
 1243TIP3   OH225363   5.938   2.736   7.908 -0.3289  0.7292  0.1474
 1243TIP3    H125364   5.881   2.767   7.837 -1.9705  2.1007  1.9561
 1243TIP3    H225365   6.027   2.752   7.876 -0.9297 -0.2988 -2.2509
 1244TIP3   OH225366   6.341   2.777   7.369  0.2644  0.4767 -0.1441
 1244TIP3    H125367   6.296   2.717   7.430  2.0648 -0.7818  0.0203
 1244TIP3    H225368   6.325   2.739   7.283 -1.3044  1.6205 -0.4137
 1245TIP3   OH225369   2.179   5.437   7.569 -0.5346 -0.5717  0.1202
 1245TIP3    H125370   2.115   5.505   7.551 -1.5836 -1.1914  1.2856
 1245TIP3    H225371   2.133   5.375   7.626  1.4938 -0.3518  2.1670
 1246TIP3   OH225372   0.238   1.607   2.209 -0.2833 -0.4560  1.0286
 1246TIP3    H125373   0.214   1.555   2.132  0.3647 -3.5018  2.7456
 1246TIP3    H225374   0.155   1.620   2.255 -0.4294 -0.0360  0.6568
 1247TIP3   OH225375   1.358   2.766   0.861  0.2841  0.5786  0.1439
 1247TIP3    H125376   1.264   2.784   0.870  0.6791  2.8728  0.5443
 1247TIP3    H225377   1.368   2.733   0.772 -1.0273 -0.9157  0.5101
 1248TIP3   OH225378   3.633   2.421   3.006  0.0888  0.0227  0.4999
 1248TIP3    H125379   3.728   2.435   3.005 -0.1136  1.5560  0.2175
 1248TIP3    H225380   3.622   2.334   3.044  1.7484 -1.6137 -2.4047
 1249TIP3   OH225381   3.250   1.162   8.071  0.0569  0.4286 -0.1220
 1249TIP3    H125382   3.250   1.227   8.000 -1.4319 -0.6454 -1.1761
 1249TIP3    H225383   3.202   1.088   8.034  0.1484 -0.5630  1.6843
 1250TIP3   OH225384   5.602   6.499   7.564  0.0076 -0.2543  0.5823
 1250TIP3    H125385   5.643   6.577   7.602 -1.2583  0.3246  0.8385
 1250TIP3    H225386   5.643   6.426   7.610  0.9101  0.2708  0.6496
 1251TIP3   OH225387   1.573   1.801   8.051  0.1582  0.1390 -0.0956
 1251TIP3    H125388   1.660   1.826   8.082  0.7660 -0.9035 -0.8628
 1251TIP3    H225389   1.553   1.720   8.098 -0.5690  0.5560  0.3403
 1252TIP3   OH225390   2.891   1.275   8.137  0.6459 -0.0968  0.2191
 1252TIP3    H125391   2.983   1.303   8.131  0.2836  1.0029 -0.6461
 1252TIP3    H225392   2.844   1.353   8.166 -0.2107 -0.1756 -0.8564
 1253TIP3   OH225393   5.981   2.801   7.607  0.4504  0.1347  0.1323
 1253TIP3    H125394   5.954   2.709   7.609  0.3085  0.1787  0.5348
 1253TIP3    H225395   5.905   2.849   7.642  0.0672  0.5280 -1.1892
 1254TIP3   OH225396   2.210   4.217   8.523  0.3868 -0.2637 -0.1689
 1254TIP3    H125397   2.169   4.236   8.608  1.0391  1.4731 -0.1891
 1254TIP3    H225398   2.162   4.272   8.461  1.1727 -0.0505 -0.5936
 1255TIP3   OH225399   2.674   2.592   1.579 -0.4613 -0.6433  0.0148
 1255TIP3    H125400   2.593   2.642   1.594  0.6387  0.7194  1.8709
 1255TIP3    H225401   2.742   2.659   1.569  0.4633 -1.7581 -1.6638
 1256TIP3   OH225402   0.995   3.206   0.578 -0.3013 -0.2294 -0.2652
 1256TIP3    H125403   1.054   3.190   0.505 -0.3008  0.2042 -0.3614
 1256TIP3    H225404   0.977   3.119   0.614 -1.1844 -0.5785 -1.4754
 1257TIP3   OH225405   1.771   5.145   1.715  0.2163  0.7244  0.0327
 1257TIP3    H125406   1.750   5.070   1.771 -1.4675  1.2165  0.1092
 1257TIP3    H225407   1.780   5.106   1.627 -0.0592  0.3503  0.1656
 1258TIP3   OH225408   5.300   3.114   8.401  0.7793 -0.2486 -0.0147
 1258TIP3    H125409   5.219   3.141   8.444  0.5215  0.2583 -0.7980
 1258TIP3    H225410   5.316   3.181   8.335  2.9490  0.8030  1.4541
 1259TIP3   OH225411   5.625   4.444   1.118  0.2757 -0.2698 -0.1510
 1259TIP3    H125412   5.572   4.369   1.093  1.2042 -0.9402 -0.1418
 1259TIP3    H225413   5.563   4.518   1.118 -0.5774 -0.9670 -0.4570
 1260TIP3   OH225414   5.525   3.059   1.631 -0.2122  0.3381 -0.4083
 1260TIP3    H125415   5.483   2.985   1.675  0.4108 -0.3487 -0.9323
 1260TIP3    H225416   5.454   3.120   1.612 -0.8074 -0.3365 -0.3771
 1261TIP3   OH225417   6.335   3.947   6.550  0.1360  0.6205  1.0073
 1261TIP3    H125418   6.411   3.968   6.497 -0.9236  1.6333 -0.1459
 1261TIP3    H225419   6.284   3.887   6.496  0.0727 -0.0092  1.7503
 1262TIP3   OH225420   1.357   2.780   2.115  0.1144  0.4773  0.2112
 1262TIP3    H125421   1.332   2.792   2.024 -0.3020 -1.1490  0.0842
 1262TIP3    H225422   1.299   2.838   2.164 -0.6079  0.3267 -0.4516
 1263TIP3   OH225423   0.106   1.236   1.797  0.2949  0.6438 -0.0150
 1263TIP3    H125424   0.114   1.284   1.715 -1.1672  2.1196  0.6481
 1263TIP3    H225425   0.196   1.216   1.822  0.7615 -0.2147 -2.1504
 1264TIP3   OH225426   6.763   6.251   0.902  0.2059  0.9761 -0.0134
 1264TIP3    H125427   6.741   6.344   0.903  1.6247  1.3301 -0.1277
 1264TIP3    H225428   6.856   6.247   0.922  0.3325 -0.3789 -0.6989
 1265TIP3   OH225429   0.016   0.259   1.058 -0.3415 -0.2489  0.1779
 1265TIP3    H125430   0.018   0.354   1.053 -0.9695 -0.2490 -0.0856
 1265TIP3    H225431   0.086   0.231   0.999 -1.5139  0.0088 -1.4020
 1266TIP3   OH225432   5.210   1.146   1.263  0.4085  0.0322  0.6313
 1266TIP3    H125433   5.201   1.237   1.234  0.4136  0.5884  2.3118
 1266TIP3    H225434   5.305   1.132   1.268  0.5836 -1.2284 -2.9416
 1267TIP3   OH225435   5.675   4.373   8.344  0.0253 -0.1161 -0.7926
 1267TIP3    H125436   5.640   4.285   8.360  0.8272 -0.6692 -1.9362
 1267TIP3    H225437   5.713   4.398   8.428 -0.6362 -0.6489 -0.3147
 1268TIP3   OH225438   5.434   1.773   0.816  0.0098  0.7357  0.4132
 1268TIP3    H125439   5.523   1.794   0.845  0.2886  2.3564 -1.4013
 1268TIP3    H225440   5.412   1.691   0.861  1.9413  0.9264  1.8197
 1269TIP3   OH225441   2.673   3.961   6.842 -0.0395  0.5145 -0.3911
 1269TIP3    H125442   2.657   3.867   6.834  0.7158  0.4983 -2.0345
 1269TIP3    H225443   2.767   3.969   6.858 -0.1919  0.9823  0.3491
 1270TIP3   OH225444   1.560   6.743   1.839  0.4447  0.0802 -0.7742
 1270TIP3    H125445   1.599   6.680   1.899  1.4413  1.3961 -0.0085
 1270TIP3    H225446   1.523   6.811   1.895 -0.7677  0.1296 -1.5807
 1271TIP3   OH225447   2.256   2.710   0.983  0.3551  0.3839 -0.8215
 1271TIP3    H125448   2.182   2.732   0.927 -0.4719 -2.2269 -0.9281
 1271TIP3    H225449   2.233   2.744   1.069 -1.5037 -1.1939 -0.6257
 1272TIP3   OH225450   1.216   6.807   0.854  0.3580  0.7176  0.0304
 1272TIP3    H125451   1.258   6.812   0.940  0.9460  1.5303 -0.2991
 1272TIP3    H225452   1.182   6.717   0.850 -0.9909  1.0978  1.7082
 1273TIP3   OH225453   1.988   0.403   8.078  0.0533  0.5123 -0.6333
 1273TIP3    H125454   1.917   0.344   8.051  1.5038 -0.8942 -1.5665
 1273TIP3    H225455   1.967   0.486   8.035 -0.4628 -0.1923 -1.7995
 1274TIP3   OH225456   6.608   3.340   0.906 -0.1514 -0.0998  0.3873
 1274TIP3    H125457   6.628   3.285   0.831  2.2460 -0.4520  1.1900
 1274TIP3    H225458   6.681   3.326   0.966 -1.6676  0.6563  2.5214
 1275TIP3   OH225459   4.794   3.583   8.218 -0.5373 -0.0030 -0.6783
 1275TIP3    H125460   4.739   3.657   8.194  1.0088  1.8780  1.1400
 1275TIP3    H225461   4.746   3.506   8.188 -2.2509  1.7049 -2.5999
 1276TIP3   OH225462   3.876   5.004   1.492  0.0733  0.5875 -0.7248
 1276TIP3    H125463   3.905   4.995   1.583 -1.1112 -0.0174 -0.3813
 1276TIP3    H225464   3.944   4.961   1.441 -1.1539 -2.8018  0.2323
 1277TIP3   OH225465   4.581   4.531   7.082 -0.4729  0.2961  0.1942
 1277TIP3    H125466   4.646   4.556   7.016  0.9172 -1.5524  0.7672
 1277TIP3    H225467   4.541   4.451   7.048 -1.2142  0.4534  0.6584
 1278TIP3   OH225468   2.000   2.689   1.213 -0.9971  0.1821  0.1990
 1278TIP3    H125469   1.966   2.714   1.299 -3.9345  2.1059 -1.3089
 1278TIP3    H225470   2.040   2.769   1.179 -0.7632 -0.2600 -0.5911
 1279TIP3   OH225471   3.280   4.270   0.575  0.2782 -0.3135  0.1814
 1279TIP3    H125472   3.187   4.270   0.597  0.3866 -1.0159  0.6622
 1279TIP3    H225473   3.295   4.356   0.536 -0.7439 -0.4790 -0.6409
 1280TIP3   OH225474   0.174   5.171   0.416 -0.2232 -0.4815  0.9665
 1280TIP3    H125475   0.096   5.115   0.409 -1.6871  1.3874  1.2502
 1280TIP3    H225476   0.248   5.112   0.402 -1.7117 -2.2418  0.0364
 1281TIP3   OH225477   2.996   1.882   0.768  0.4315 -0.0807  0.6261
 1281TIP3    H125478   2.990   1.932   0.849 -1.8300 -0.6315  0.8766
 1281TIP3    H225479   3.077   1.912   0.726  0.6168  1.6464  2.1263
 1282TIP3   OH225480   3.160   6.548   2.197  0.2097  0.0391 -0.2603
 1282TIP3    H125481   3.238   6.575   2.148  0.2347 -1.2641 -0.9731
 1282TIP3    H225482   3.138   6.461   2.163 -2.4866  0.9869 -1.1610
 1283TIP3   OH225483   5.137   2.585   1.338 -0.3094 -0.3179 -0.5211
 1283TIP3    H125484   5.112   2.676   1.350 -2.6805 -0.4346 -3.3849
 1283TIP3    H225485   5.063   2.535   1.372 -0.4344 -1.0335 -1.7889
 1284TIP3   OH225486   6.934   2.521   2.374  0.0334  0.2914  0.1378
 1284TIP3    H125487   6.878   2.596   2.356  1.6835  0.8618 -3.3045
 1284TIP3    H225488   6.916   2.460   2.302  1.0767 -1.1836  1.0785
 1285TIP3   OH225489   5.159   1.343   0.264  0.2636  0.0213 -0.0875
 1285TIP3    H125490   5.125   1.286   0.332 -1.0443  0.4606 -0.3409
 1285TIP3    H225491   5.253   1.346   0.280  0.2344 -1.4186  0.5081
 1286TIP3   OH225492   0.103   6.556   0.992  0.4243  0.4262 -0.3905
 1286TIP3    H125493   0.034   6.573   1.056  0.2938 -0.6490 -0.2226
 1286TIP3    H225494   0.061   6.569   0.907  0.2198  0.5240 -0.2732
 1287TIP3   OH225495   4.382   4.209   0.233  0.5512  0.0700 -0.1859
 1287TIP3    H125496   4.388   4.222   0.138  0.0665 -2.0389 -0.5539
 1287TIP3    H225497   4.457   4.154   0.254  0.3352  0.0618  0.5685
 1288TIP3   OH225498   1.925   2.003   6.827  0.4003 -0.2426 -0.3384
 1288TIP3    H125499   1.869   2.064   6.780 -1.8758 -0.8522  1.4325
 1288TIP3    H225500   1.990   2.058   6.870  0.3119  0.6030 -1.2429
 1289TIP3   OH225501   0.554   5.237   1.343  0.1109 -0.4088  0.1523
 1289TIP3    H125502   0.574   5.155   1.388  1.8915 -0.7365 -1.1301
 1289TIP3    H225503   0.517   5.293   1.411  1.1914 -1.4273  1.6416
 1290TIP3   OH225504   1.710   5.108   8.059 -0.3453  0.4961  0.0023
 1290TIP3    H125505   1.776   5.134   7.995 -0.3387 -0.5147 -0.4273
 1290TIP3    H225506   1.689   5.017   8.035 -2.6015  1.1048 -0.4794
 1291TIP3   OH225507   1.602   3.424   7.726  0.1516 -0.2800 -0.4556
 1291TIP3    H125508   1.637   3.422   7.815 -2.6932  0.2888  0.7587
 1291TIP3    H225509   1.579   3.333   7.707  0.6239 -0.3792 -0.5639
 1292TIP3   OH225510   4.256   4.603   7.024  0.0483 -0.0851 -0.2732
 1292TIP3    H125511   4.230   4.617   7.116 -1.4376  0.1590 -0.6948
 1292TIP3    H225512   4.266   4.509   7.016  0.7246 -0.0676  0.2658
 1293TIP3   OH225513   4.865   4.337   7.519 -0.1353  0.6329  0.1017
 1293TIP3    H125514   4.883   4.294   7.603  0.7143  0.1171 -0.3346
 1293TIP3    H225515   4.943   4.389   7.502 -0.7674  1.6387  0.1659
 1294TIP3   OH225516   3.317   5.337   0.826 -0.6859 -0.1767  0.0509
 1294TIP3    H125517   3.367   5.318   0.905 -1.3936 -0.5622  0.4144
 1294TIP3    H225518   3.260   5.261   0.814 -1.9754  0.7228  0.2731
 1295TIP3   OH225519   3.190   2.698   0.876  0.1526 -0.5602  0.3516
 1295TIP3    H125520   3.270   2.739   0.908  1.5820 -2.1355 -0.9816
 1295TIP3    H225521   3.176   2.737   0.790  1.1489 -2.2223 -0.6360
 1296TIP3   OH225522   6.735   4.696   0.047  0.7088 -0.8646  0.2686
 1296TIP3    H125523   6.720   4.637  -0.026 -0.4084 -1.0777  0.6591
 1296TIP3    H225524   6.688   4.657   0.120  2.7615 -1.2907  1.4431
 1297TIP3   OH225525   1.259   6.444   1.004  0.1730  0.0235 -0.3326
 1297TIP3    H125526   1.237   6.357   1.036 -1.8823  0.4809 -0.3724
 1297TIP3    H225527   1.241   6.503   1.078 -0.0101  0.5773 -0.8070
 1298TIP3   OH225528   6.140   3.251   1.029  0.1201  0.0046  0.3236
 1298TIP3    H125529   6.190   3.232   1.108 -1.2599 -2.6736  0.6614
 1298TIP3    H225530   6.187   3.208   0.958 -1.2717 -2.0420  0.5571
 1299TIP3   OH225531   0.162   6.205   7.491 -0.3230 -0.0194 -0.1445
 1299TIP3    H125532   0.152   6.300   7.500 -1.2765 -0.0591 -0.6440
 1299TIP3    H225533   0.091   6.179   7.431 -1.3400 -1.3203  1.5308
 1300TIP3   OH225534   5.029   1.132   3.302  0.1565 -0.4801 -0.6446
 1300TIP3    H125535   4.996   1.222   3.304  1.1917 -0.0949  0.8005
 1300TIP3    H225536   4.960   1.080   3.342  0.1359 -0.0875 -0.1504
 1301TIP3   OH225537   1.404   4.496   1.407  0.2077 -0.1176 -0.9399
 1301TIP3    H125538   1.359   4.480   1.324 -0.3577 -0.6900 -0.5352
 1301TIP3    H225539   1.416   4.409   1.445  0.7955  0.1082 -0.5935
 1302TIP3   OH225540   6.371   5.873   1.441  0.3529 -0.0712 -0.1924
 1302TIP3    H125541   6.421   5.929   1.381 -0.6074  0.7875 -0.2127
 1302TIP3    H225542   6.420   5.877   1.523  1.3832 -0.8261 -0.7430
 1303TIP3   OH225543   5.205   0.208   0.278 -0.4519  1.0290  0.4925
 1303TIP3    H125544   5.206   0.113   0.265  0.9040  1.3263 -2.2773
 1303TIP3    H225545   5.218   0.219   0.372 -0.2008 -1.5248  0.8331
 1304TIP3   OH225546   1.351   3.196   8.374  0.0331 -1.0930 -0.8296
 1304TIP3    H125547   1.305   3.252   8.436  1.4540 -1.1303  0.3369
 1304TIP3    H225548   1.301   3.114   8.374 -0.8259 -0.5787 -0.8785
 1305TIP3   OH225549   3.400   0.586   0.130 -0.4033 -0.3720 -0.2767
 1305TIP3    H125550   3.433   0.496   0.137  1.6114  0.0541 -2.8116
 1305TIP3    H225551   3.477   0.641   0.144 -1.3731  0.9463  0.0917
 1306TIP3   OH225552   6.600   0.782   1.122 -0.1015  0.2059  0.0770
 1306TIP3    H125553   6.642   0.855   1.077  1.3797  0.2475  1.4026
 1306TIP3    H225554   6.636   0.704   1.079  1.1739  0.2480  0.9808
 1307TIP3   OH225555   6.461   5.955   1.093 -0.0754  0.2655 -0.2794
 1307TIP3    H125556   6.501   5.982   1.011 -0.7975  1.7214 -0.1880
 1307TIP3    H225557   6.389   5.898   1.067 -0.0891  0.4434 -0.6365
 1308TIP3   OH225558   0.558   1.860   2.853 -0.1036 -0.5250  0.2806
 1308TIP3    H125559   0.639   1.846   2.804 -0.3090  0.6326 -0.4115
 1308TIP3    H225560   0.582   1.841   2.944  1.0897  0.2870  0.1606
 1309TIP3   OH225561   4.265   3.051   7.724 -0.4565 -0.1833  0.0280
 1309TIP3    H125562   4.283   3.074   7.633  1.3859 -2.0089 -0.1250
 1309TIP3    H225563   4.179   3.009   7.722 -1.1602  1.2333 -0.5775
 1310TIP3   OH225564   2.597   6.218   1.712 -0.2014  0.6153 -0.3687
 1310TIP3    H125565   2.666   6.160   1.676  0.8812  2.8851 -2.2121
 1310TIP3    H225566   2.542   6.238   1.637 -0.5839  1.9285  0.2484
 1311TIP3   OH225567   1.912   0.218   1.013  0.6058 -0.1849 -0.3720
 1311TIP3    H125568   1.875   0.305   0.998  1.6503  0.3740  0.1949
 1311TIP3    H225569   1.838   0.159   1.001 -0.2839  0.8299 -0.0975
 1312TIP3   OH225570   1.300   6.207   0.501  0.3120  0.3559 -1.0252
 1312TIP3    H125571   1.237   6.240   0.438 -2.5704 -1.1131  0.8476
 1312TIP3    H225572   1.338   6.130   0.459 -0.4696  0.2404 -1.5382
 1313TIP3   OH225573   5.356   0.146   0.510  0.4477 -0.3402 -1.3925
 1313TIP3    H125574   5.407   0.224   0.533  1.1287  0.0836 -4.0745
 1313TIP3    H225575   5.283   0.146   0.573  2.0423  0.7354  0.5823
 1314TIP3   OH225576   5.890   6.081   0.796  0.1968 -0.2582  0.5040
 1314TIP3    H125577   5.854   6.028   0.725  0.0537 -1.0486  1.1453
 1314TIP3    H225578   5.904   6.167   0.757  0.4595 -0.7643 -0.5840
 1315TIP3   OH225579   1.662   6.415   0.022 -0.3022 -0.2931 -0.4763
 1315TIP3    H125580   1.698   6.501   0.042  0.1250 -0.8848  1.5863
 1315TIP3    H225581   1.586   6.406   0.080 -0.5268 -1.1648 -0.8832
 1316TIP3   OH225582   3.172   1.880   8.267 -0.1592 -0.1312 -0.9711
 1316TIP3    H125583   3.254   1.886   8.315 -0.3810  0.9015 -0.6893
 1316TIP3    H225584   3.113   1.832   8.326 -0.8774  2.3586  0.5229
 1317TIP3   OH225585   2.563   2.220   2.480  0.2503 -0.9432 -0.0056
 1317TIP3    H125586   2.582   2.301   2.527  0.3588 -0.5820 -0.6595
 1317TIP3    H225587   2.468   2.212   2.484  0.0450  0.2290 -1.5443
 1318TIP3   OH225588   0.243   2.538   0.663 -0.2769 -0.0296 -0.3294
 1318TIP3    H125589   0.266   2.600   0.594 -0.1855 -1.0982 -1.3023
 1318TIP3    H225590   0.259   2.585   0.745 -1.7781  1.7727 -1.0098
 1319TIP3   OH225591   0.252   3.625   8.425 -0.4862  0.1460  0.6996
 1319TIP3    H125592   0.191   3.553   8.442  2.1953 -2.1992  1.0283
 1319TIP3    H225593   0.245   3.640   8.330 -0.4494 -1.1667  0.4801
 1320TIP3   OH225594   0.737   4.337   8.454 -0.1740 -0.3982 -0.1858
 1320TIP3    H125595   0.647   4.345   8.423 -0.5613 -1.1133  0.7169
 1320TIP3    H225596   0.730   4.350   8.549  0.6925 -0.3282 -0.1303
 1321TIP3   OH225597   4.465   4.455   0.637  0.4330 -0.1221 -0.6473
 1321TIP3    H125598   4.546   4.493   0.604  0.3140  2.4556  1.6064
 1321TIP3    H225599   4.489   4.415   0.720 -0.3847 -0.5161 -0.5926
 1322TIP3   OH225600   2.577   0.154   7.797  0.1792 -0.3037  0.5800
 1322TIP3    H125601   2.658   0.111   7.824  0.8682  0.6329  0.0580
 1322TIP3    H225602   2.570   0.136   7.703  0.0946  0.1156  0.5045
 1323TIP3   OH225603   5.581   5.233   1.872 -0.4109  0.5802  0.9869
 1323TIP3    H125604   5.628   5.166   1.822 -0.3584  1.8794 -0.7931
 1323TIP3    H225605   5.642   5.256   1.942  0.5900  0.4646  0.1875
 1324TIP3   OH225606   0.017   5.773   1.741 -0.2949  0.2343 -0.3755
 1324TIP3    H125607   0.068   5.786   1.821 -0.7015  0.6346 -0.1745
 1324TIP3    H225608   0.010   5.678   1.732  0.1230  0.1832 -0.1772
 1325TIP3   OH225609   0.375   5.876   7.572  0.3118 -0.7642 -0.3004
 1325TIP3    H125610   0.456   5.833   7.600  1.1000  1.3633  0.9464
 1325TIP3    H225611   0.390   5.969   7.589 -1.6870 -0.0722 -1.8818
 1326TIP3   OH225612   6.496   3.893   1.194 -0.2996  0.6002 -0.3996
 1326TIP3    H125613   6.525   3.802   1.188 -0.4533  0.3749  1.7253
 1326TIP3    H225614   6.402   3.886   1.212 -0.5109  1.2155 -1.2274
 1327TIP3   OH225615   4.533   0.743   1.064  0.2137  0.2440  0.4626
 1327TIP3    H125616   4.511   0.767   0.974  0.6568 -1.2346 -0.0698
 1327TIP3    H225617   4.610   0.796   1.084 -0.0989  0.8497  0.1046
 1328TIP3   OH225618   3.393   4.686   2.297 -0.0040  0.7899  0.3741
 1328TIP3    H125619   3.385   4.614   2.361 -0.7864  0.8357  0.3272
 1328TIP3    H225620   3.359   4.650   2.216 -0.2027  1.1515  0.2973
 1329TIP3   OH225621   6.813   6.093   1.382  0.8343  0.3188  0.1288
 1329TIP3    H125622   6.720   6.103   1.365  1.1530  0.6185 -1.6617
 1329TIP3    H225623   6.818   6.037   1.459 -0.8085 -0.0282  0.0106
 1330TIP3   OH225624   2.762   1.768   0.700  0.3380 -0.3224  0.3539
 1330TIP3    H125625   2.851   1.792   0.727  0.1352  1.6315 -0.5338
 1330TIP3    H225626   2.725   1.726   0.777  1.5425  0.1894  1.2515
 1331TIP3   OH225627   0.603   3.433   7.183 -0.4021  0.2159  0.2043
 1331TIP3    H125628   0.615   3.452   7.090 -0.2111  1.3015  0.4339
 1331TIP3    H225629   0.545   3.357   7.185  0.4923 -0.5264 -0.8130
 1332TIP3   OH225630   3.037   4.440   8.451 -0.4188 -0.0520  0.0358
 1332TIP3    H125631   3.024   4.490   8.532 -1.4550 -0.3877  0.0872
 1332TIP3    H225632   3.109   4.381   8.471 -0.1760  0.3829  0.4716
 1333TIP3   OH225633   0.177   4.039   8.349 -0.7336  0.0107 -0.2460
 1333TIP3    H125634   0.102   4.090   8.378 -0.9377 -0.8876  0.8499
 1333TIP3    H225635   0.147   3.998   8.268 -2.5634 -2.6845  1.6170
 1334TIP3   OH225636   3.947   4.713   8.396  0.5773 -0.4801 -0.1856
 1334TIP3    H125637   3.871   4.714   8.337  0.3414 -2.4678 -0.0044
 1334TIP3    H225638   4.012   4.660   8.349  1.0289 -0.6311  0.5880
 1335TIP3   OH225639   5.882   6.965   1.846 -0.0654 -0.0469  0.6932
 1335TIP3    H125640   5.955   7.025   1.827  1.4390 -1.2817  2.2336
 1335TIP3    H225641   5.923   6.879   1.850 -1.5267 -0.7208  2.0889
 1336TIP3   OH225642   0.797   5.130   0.658  0.1625 -0.1138  0.3879
 1336TIP3    H125643   0.867   5.192   0.635 -0.9702  1.9204  2.0354
 1336TIP3    H225644   0.804   5.121   0.753 -1.0236 -0.8702  0.4188
 1337TIP3   OH225645   0.518   0.020   1.371 -0.1933 -0.7129  0.5682
 1337TIP3    H125646   0.491  -0.048   1.309 -0.4403 -0.6970  0.6564
 1337TIP3    H225647   0.604  -0.007   1.401  1.2547  0.6990 -1.9288
 1338TIP3   OH225648   6.929   0.139   2.343 -0.0713 -0.0085 -0.6501
 1338TIP3    H125649   6.939   0.109   2.253  0.4288  0.3133 -0.7073
 1338TIP3    H225650   7.018   0.139   2.378 -0.2805 -0.2686 -0.1122
 1339TIP3   OH225651   1.783   4.830   6.980 -0.0912 -0.4975  0.6110
 1339TIP3    H125652   1.843   4.861   6.911  0.3474  0.1072  1.2521
 1339TIP3    H225653   1.709   4.794   6.932  0.0213  0.2806 -0.1815
 1340TIP3   OH225654   0.954   5.631   7.380  0.0610  0.4890  0.2928
 1340TIP3    H125655   0.906   5.573   7.439 -0.6972  0.1241 -0.6442
 1340TIP3    H225656   1.033   5.582   7.356  0.4699  0.7213  1.1433
 1341TIP3   OH225657   3.594   6.349   0.477  0.2644 -0.3638  0.4639
 1341TIP3    H125658   3.538   6.388   0.410  0.4200 -0.7766  0.0838
 1341TIP3    H225659   3.683   6.357   0.441  0.4009 -0.1257  0.8531
 1342TIP3   OH225660   2.396   0.310   0.132 -0.0487 -0.2960  0.1672
 1342TIP3    H125661   2.356   0.241   0.184  0.6204 -0.9153 -0.1082
 1342TIP3    H225662   2.344   0.388   0.149  0.3935 -0.3775  2.0755
 1343TIP3   OH225663   1.716   2.274   6.974 -0.4315 -0.4158 -0.0340
 1343TIP3    H125664   1.735   2.252   6.883  0.0333  0.0579 -0.0584
 1343TIP3    H225665   1.740   2.366   6.982  0.0756 -0.5974  0.7063
 1344TIP3   OH225666   4.992   2.962   7.294 -0.4318 -0.3398  0.3484
 1344TIP3    H125667   5.010   2.884   7.241 -1.3183 -0.9709  0.9573
 1344TIP3    H225668   5.048   3.030   7.256 -0.5718 -0.9424 -0.9845
 1345TIP3   OH225669   6.455   0.039   2.590  0.6290  1.0104 -0.2050
 1345TIP3    H125670   6.549   0.038   2.573  0.9382 -0.5361  1.2293
 1345TIP3    H225671   6.432  -0.054   2.600 -1.3953  1.2261 -2.1296
 1346TIP3   OH225672   0.392   3.062   8.478 -0.2647  0.1700  0.2142
 1346TIP3    H125673   0.398   3.107   8.394 -0.5744  2.3218  1.2862
 1346TIP3    H225674   0.472   3.088   8.524 -0.1695 -0.8819  0.6615
 1347TIP3   OH225675   1.901   0.519   7.270  0.1367 -0.3225 -0.5871
 1347TIP3    H125676   1.942   0.601   7.299  1.2709 -0.8818 -0.5578
 1347TIP3    H225677   1.878   0.474   7.351  1.7264 -1.1037 -0.5359
 1348TIP3   OH225678   6.099   2.047   2.006  0.1617  0.4955 -0.1972
 1348TIP3    H125679   6.150   1.968   1.988  1.0947  0.9718  0.2865
 1348TIP3    H225680   6.109   2.061   2.100  1.4631  2.1290 -0.5181
 1349TIP3   OH225681   6.497   3.157   8.414 -0.4160 -0.0922  0.2800
 1349TIP3    H125682   6.460   3.200   8.491 -0.0540  1.9458 -0.6271
 1349TIP3    H225683   6.442   3.187   8.341 -0.1939 -1.2666 -0.3976
 1350TIP3   OH225684   6.791   0.277   7.370  0.0744 -0.0462 -0.0483
 1350TIP3    H125685   6.750   0.356   7.334  1.3823  0.6648 -0.0378
 1350TIP3    H225686   6.885   0.293   7.362  0.3677 -1.3125  0.6095
 1351TIP3   OH225687   1.055   0.652   2.134 -0.6124  0.1793 -0.0601
 1351TIP3    H125688   1.065   0.669   2.041  1.1177  0.6033  0.1796
 1351TIP3    H225689   1.056   0.739   2.174  0.8408 -0.0795  0.5264
 1352TIP3   OH225690   1.064   5.253   0.037  0.1609  0.4016 -0.0468
 1352TIP3    H125691   1.113   5.258   0.119  0.6666 -2.3075 -0.0793
 1352TIP3    H225692   1.124   5.286  -0.029  0.1121  1.6805  0.5268
 1353TIP3   OH225693   3.088   2.236   8.214  0.2869 -0.6261 -0.2616
 1353TIP3    H125694   3.049   2.157   8.178 -1.0425 -0.4096  0.6335
 1353TIP3    H225695   3.032   2.260   8.288  0.0370  1.7219 -1.0990
 1354TIP3   OH225696   1.003   6.405   6.959  0.2173 -0.1172  0.4624
 1354TIP3    H125697   0.925   6.413   6.905  0.8290  0.6644 -0.3351
 1354TIP3    H225698   0.978   6.346   7.030 -0.8802 -0.4177 -0.1647
 1355TIP3   OH225699   5.629   2.058   0.867  0.1188  0.8066 -0.4991
 1355TIP3    H125700   5.631   1.976   0.917 -0.5035  0.6969 -0.6407
 1355TIP3    H225701   5.663   2.033   0.780  1.0578  0.9659 -0.1927
 1356TIP3   OH225702   1.705   5.811   0.050  0.1360 -0.0180 -0.3651
 1356TIP3    H125703   1.670   5.896   0.021 -0.4978 -0.1569 -0.0249
 1356TIP3    H225704   1.775   5.791  -0.013  1.2495  1.4250  0.3598
 1357TIP3   OH225705   0.476   4.332   8.154  0.1118 -0.1145 -0.2341
 1357TIP3    H125706   0.445   4.291   8.235  0.2884 -1.1799 -0.6891
 1357TIP3    H225707   0.546   4.275   8.123  2.9250  2.3848  0.9353
 1358TIP3   OH225708   6.270   4.745   8.190  0.3239 -0.2927 -0.5262
 1358TIP3    H125709   6.190   4.767   8.238 -1.1042 -0.0637 -2.8527
 1358TIP3    H225710   6.326   4.823   8.200 -0.8433  0.6339 -0.9977
 1359TIP3   OH225711   3.896   3.330   0.866  0.3304  0.1393 -0.0420
 1359TIP3    H125712   3.853   3.384   0.932  0.8695 -0.4725  0.8199
 1359TIP3    H225713   3.969   3.384   0.835  0.7684 -0.0238  0.6971
 1360TIP3   OH225714   3.559   4.191   6.884  0.5325  0.0449  0.0764
 1360TIP3    H125715   3.567   4.167   6.791 -0.8915  0.5140 -0.1971
 1360TIP3    H225716   3.486   4.138   6.916 -1.3387  2.3699 -0.0254
 1361TIP3   OH225717   2.715   4.418   7.129  0.2995 -0.3218 -0.2979
 1361TIP3    H125718   2.672   4.372   7.201  1.5297 -2.9082 -1.1002
 1361TIP3    H225719   2.645   4.440   7.068 -0.1365 -3.0676 -0.8745
 1362TIP3   OH225720   5.765   4.771   2.795  0.0470  0.0292 -0.0244
 1362TIP3    H125721   5.746   4.677   2.798 -0.0940  0.0237  3.1137
 1362TIP3    H225722   5.860   4.777   2.798  0.0473 -0.1195  1.8720
 1363TIP3   OH225723   4.027   6.551   8.110  0.5149 -0.7077 -0.4532
 1363TIP3    H125724   4.023   6.529   8.017  0.5915 -0.1347 -0.5967
 1363TIP3    H225725   4.119   6.540   8.133  0.7393  0.4232 -0.7720
 1364TIP3   OH225726   1.363   6.318   1.436 -0.7740  0.4800  0.3061
 1364TIP3    H125727   1.361   6.412   1.455 -2.4543 -0.0501  3.4363
 1364TIP3    H225728   1.275   6.299   1.403 -0.7529 -0.1437  0.6017
 1365TIP3   OH225729   1.085   1.944   7.701 -0.3464 -0.0921 -0.0609
 1365TIP3    H125730   0.999   1.944   7.659  0.4362  1.0682 -1.8032
 1365TIP3    H225731   1.125   2.026   7.674  1.0636 -0.2929  1.2802
 1366TIP3   OH225732   4.115   4.796   6.855 -0.4570  0.4663  0.1580
 1366TIP3    H125733   4.049   4.782   6.924 -0.9585  0.6097 -0.2874
 1366TIP3    H225734   4.190   4.744   6.884 -0.9818 -0.2019  0.3670
 1367TIP3   OH225735   0.436   3.745   0.623  0.6260  0.3396 -0.0905
 1367TIP3    H125736   0.526   3.723   0.648  1.0986  3.9940  2.1671
 1367TIP3    H225737   0.446   3.803   0.547  0.3704  1.7577  0.9109
 1368TIP3   OH225738   0.953   2.194   7.447 -0.2574 -0.3418 -0.2855
 1368TIP3    H125739   0.894   2.209   7.521 -1.7151 -3.0607 -0.7448
 1368TIP3    H225740   0.901   2.219   7.370  0.4582  0.4524 -0.5211
 1369TIP3   OH225741   5.679   1.235   1.933 -0.5286 -0.3808 -0.1811
 1369TIP3    H125742   5.711   1.316   1.893 -0.1704 -0.3816  0.1072
 1369TIP3    H225743   5.757   1.190   1.965 -0.7966 -0.4546  0.3871
 1370TIP3   OH225744   3.932   2.319   7.462 -0.3230 -0.0822  0.0083
 1370TIP3    H125745   3.841   2.324   7.434  0.0144 -0.3491 -1.1983
 1370TIP3    H225746   3.948   2.225   7.475 -0.1906 -0.0479  0.0962
 1371TIP3   OH225747   3.556   1.261   7.410 -0.3358  0.4186 -0.3926
 1371TIP3    H125748   3.553   1.282   7.317  1.1380 -0.8530 -0.7709
 1371TIP3    H225749   3.622   1.192   7.417  1.2413  2.0336  1.8856
 1372TIP3   OH225750   0.835   2.472   2.479  0.2116 -0.1244 -0.3038
 1372TIP3    H125751   0.761   2.519   2.515  0.5515  0.2922 -0.1464
 1372TIP3    H225752   0.911   2.505   2.528  0.7962  1.0459 -1.9271
 1373TIP3   OH225753   1.656   1.714   2.070  0.2059  0.1547 -0.0223
 1373TIP3    H125754   1.561   1.705   2.057  0.1065  1.0492  0.0449
 1373TIP3    H225755   1.669   1.706   2.164  0.0364  1.3521  0.1134
 1374TIP3   OH225756   4.559   3.119   7.861  0.0634  0.8928  0.4720
 1374TIP3    H125757   4.470   3.089   7.880  0.6285  0.2272  2.2686
 1374TIP3    H225758   4.549   3.212   7.842 -0.9460  0.9995  1.4280
 1375TIP3   OH225759   5.652   2.761   1.756  0.1003 -0.6569 -0.9439
 1375TIP3    H125760   5.580   2.722   1.806  0.7589 -1.3094 -0.4756
 1375TIP3    H225761   5.731   2.722   1.794  0.5809 -2.2592 -3.3666
 1376TIP3   OH225762   4.472   4.438   8.255 -0.2594  0.3485  0.2135
 1376TIP3    H125763   4.416   4.372   8.294 -2.3317  0.4888 -2.2434
 1376TIP3    H225764   4.416   4.515   8.246  0.8966  1.1364 -0.6077
 1377TIP3   OH225765   4.979   3.728   0.204  0.1349 -0.6276 -0.1846
 1377TIP3    H125766   5.039   3.777   0.260 -0.9254  0.3412  0.1412
 1377TIP3    H225767   5.036   3.681   0.143  1.2418 -0.2925  0.5603
 1378TIP3   OH225768   0.309   1.851   8.182 -0.2487 -0.6936  0.7333
 1378TIP3    H125769   0.259   1.799   8.244 -0.2490  0.5452  1.8245
 1378TIP3    H225770   0.386   1.798   8.162 -0.7001 -1.4887  1.0735
 1379TIP3   OH225771   0.892   6.933   8.121  0.5121  0.4396  0.3819
 1379TIP3    H125772   0.961   6.982   8.077  1.1773 -1.0047 -0.2719
 1379TIP3    H225773   0.837   6.999   8.162  2.3757  1.6420  1.0610
 1380TIP3   OH225774   5.815   3.510   2.376  0.4241 -0.5693 -0.1837
 1380TIP3    H125775   5.744   3.449   2.356 -0.3401  0.0672  0.5409
 1380TIP3    H225776   5.828   3.502   2.470  1.0679 -0.4041 -0.2546
 1381TIP3   OH225777   6.165   1.817   1.683  0.5227 -0.0687 -0.2019
 1381TIP3    H125778   6.165   1.845   1.591  3.3310  0.8913  0.0001
 1381TIP3    H225779   6.183   1.723   1.679 -1.5572 -0.4794 -0.6616
 1382TIP3   OH225780   5.119   0.677   0.403  0.1534  0.4137 -0.4080
 1382TIP3    H125781   5.091   0.673   0.494  2.3434 -0.5260  0.2656
 1382TIP3    H225782   5.042   0.710   0.356 -0.5596  2.3794  1.9567
 1383TIP3   OH225783   0.253   6.806   2.512  0.6621 -0.0641 -0.5521
 1383TIP3    H125784   0.279   6.859   2.588 -0.7441 -1.3081  0.8791
 1383TIP3    H225785   0.231   6.870   2.445  0.2154  1.1416  0.6892
 1384TIP3   OH225786   6.333   3.205   1.258 -0.1416 -0.0805  0.3294
 1384TIP3    H125787   6.384   3.223   1.337 -2.2834  0.7338  1.6035
 1384TIP3    H225788   6.355   3.276   1.199 -0.3161  0.6525  1.1303
 1385TIP3   OH225789   6.058   4.752   1.648  0.4633  0.1858  0.2787
 1385TIP3    H125790   5.989   4.805   1.608 -1.0757 -0.4499  1.9399
 1385TIP3    H225791   6.043   4.664   1.615  0.1053 -0.0554  1.0545
 1386TIP3   OH225792   1.810   3.697   2.181  0.5203  0.2390  0.0156
 1386TIP3    H125793   1.740   3.759   2.200 -0.1552 -0.5316  0.0966
 1386TIP3    H225794   1.835   3.662   2.267 -1.6877 -2.3378 -0.2722
 1387TIP3   OH225795   3.565   2.862   0.099  0.2134  0.4656 -0.1449
 1387TIP3    H125796   3.592   2.834   0.011 -0.9001  1.1155 -0.7182
 1387TIP3    H225797   3.505   2.793   0.128  1.0824 -0.0792  0.3902
 1388TIP3   OH225798   1.170   0.087   0.043  0.6438 -0.3062  0.0653
 1388TIP3    H125799   1.121   0.005   0.034  0.4116 -0.1019 -0.6305
 1388TIP3    H225800   1.127   0.133   0.116 -0.6372  0.1420 -0.9150
 1389TIP3   OH225801   0.958   2.612   0.678  0.6179  0.4508 -0.2848
 1389TIP3    H125802   0.992   2.657   0.755 -1.7641  0.2981  0.9305
 1389TIP3    H225803   0.936   2.524   0.708 -0.1655  0.3188 -1.1808
 1390TIP3   OH225804   1.371   1.716   0.765 -0.5909  0.3321 -0.2703
 1390TIP3    H125805   1.369   1.672   0.680 -1.7133 -0.2524  0.0407
 1390TIP3    H225806   1.279   1.733   0.785 -0.4689 -0.8964  1.5291
 1391TIP3   OH225807   6.078   6.830   7.150  0.0618  0.4917 -0.2844
 1391TIP3    H125808   6.155   6.848   7.096  0.0284 -0.0813 -0.5352
 1391TIP3    H225809   6.007   6.820   7.087  0.1382 -0.7785 -0.1925
 1392TIP3   OH225810   2.327   0.498   7.980 -0.4621  0.4602 -0.3133
 1392TIP3    H125811   2.284   0.441   8.044 -0.8302  0.7058 -0.3369
 1392TIP3    H225812   2.394   0.544   8.031 -0.8765  0.7924 -0.0615
 1393TIP3   OH225813   1.835   2.436   1.774 -0.3182  0.6740  0.0207
 1393TIP3    H125814   1.752   2.396   1.748 -0.4230  0.9232 -0.0339
 1393TIP3    H225815   1.900   2.368   1.760 -0.3202  0.9205 -1.2581
 1394TIP3   OH225816   6.678   1.642   1.276 -0.4546 -0.1565 -0.6940
 1394TIP3    H125817   6.715   1.580   1.340 -2.4363 -0.3292  0.3499
 1394TIP3    H225818   6.654   1.718   1.328  0.5049  0.8793 -1.7269
 1395TIP3   OH225819   6.282   0.673   1.214 -0.3448  0.1975  0.0964
 1395TIP3    H125820   6.359   0.629   1.179 -0.2276  1.2650 -1.0414
 1395TIP3    H225821   6.316   0.726   1.287 -0.3211 -0.7315  0.7835
 1396TIP3   OH225822   2.883   6.380   7.570  1.0627 -0.1413 -0.3376
 1396TIP3    H125823   2.966   6.428   7.578  0.5418  0.6257  0.8617
 1396TIP3    H225824   2.852   6.400   7.482  2.8304 -1.6353 -1.3790
 1397TIP3   OH225825   3.874   0.258   0.556 -0.6056 -0.4798  0.3546
 1397TIP3    H125826   3.923   0.262   0.638 -0.7438  0.0042  0.4196
 1397TIP3    H225827   3.867   0.165   0.536  1.2895 -0.5308 -0.2163
 1398TIP3   OH225828   1.908   2.162   7.912  0.1492 -0.0165  0.2998
 1398TIP3    H125829   1.907   2.074   7.874  2.6392 -0.6776  1.5133
 1398TIP3    H225830   1.920   2.221   7.838 -0.3750 -0.7955 -0.4100
 1399TIP3   OH225831   2.620   1.302   1.427 -0.4519 -0.5831 -0.0233
 1399TIP3    H125832   2.558   1.312   1.354  1.1992 -0.4457 -1.4775
 1399TIP3    H225833   2.637   1.392   1.456  1.6045 -0.2538 -1.9370
 1400TIP3   OH225834   6.814   3.319   8.352 -0.1523  0.3828 -0.3695
 1400TIP3    H125835   6.869   3.387   8.391  1.0585  0.2519 -1.7397
 1400TIP3    H225836   6.789   3.263   8.425  1.6162  0.4146  0.2937
 1401TIP3   OH225837   3.386   6.489   7.284  0.2898  0.5170 -0.3789
 1401TIP3    H125838   3.364   6.485   7.377 -1.1408  0.4584 -0.6957
 1401TIP3    H225839   3.428   6.574   7.273 -0.2329  0.8585  0.1898
 1402TIP3   OH225840   4.121   2.990   2.007  0.0777 -0.9468  0.1903
 1402TIP3    H125841   4.093   3.079   2.031 -0.0206 -0.6811 -0.8555
 1402TIP3    H225842   4.213   2.986   2.034  0.2289 -0.3418 -0.1957
 1403TIP3   OH225843   0.813   2.496   7.228 -0.0039  0.2624  0.0527
 1403TIP3    H125844   0.880   2.506   7.161 -1.7771  0.5491 -1.7722
 1403TIP3    H225845   0.789   2.403   7.225 -0.5846  0.4141 -0.2435
 1404TIP3   OH225846   0.866   3.957   6.989 -0.1979  0.0614 -0.4480
 1404TIP3    H125847   0.893   3.903   7.063 -1.2827  0.5081  0.3072
 1404TIP3    H225848   0.915   4.038   6.999  0.4983 -0.2952 -0.8768
 1405TIP3   OH225849   6.692   6.025   8.052 -0.1671  0.0936  0.2020
 1405TIP3    H125850   6.607   5.981   8.057  0.9452 -2.6113 -1.9548
 1405TIP3    H225851   6.753   5.959   8.086  1.2648  1.2889 -0.0031
 1406TIP3   OH225852   6.167   4.169   7.293  0.4321  0.4462  0.1951
 1406TIP3    H125853   6.221   4.216   7.230 -0.5739  0.9955 -0.2767
 1406TIP3    H225854   6.097   4.131   7.242 -0.3793  0.8684  0.9614
 1407TIP3   OH225855   3.191   3.271   7.196 -0.1972 -0.5518  0.6113
 1407TIP3    H125856   3.180   3.358   7.158 -2.1503 -1.5096 -1.2636
 1407TIP3    H225857   3.103   3.234   7.196  0.7897 -3.1420 -0.3356
 1408TIP3   OH225858   0.196   0.912   7.649 -0.2447 -0.5698  0.2376
 1408TIP3    H125859   0.149   0.975   7.704 -3.1948 -2.2702 -0.0673
 1408TIP3    H225860   0.256   0.868   7.709  0.4761  1.1354  0.8554
 1409TIP3   OH225861   6.345   2.425   0.073  0.0073 -0.3459 -0.0864
 1409TIP3    H125862   6.272   2.486   0.064  0.8446  1.0937  2.0538
 1409TIP3    H225863   6.316   2.363   0.141  0.5710 -0.0811  0.3975
 1410TIP3   OH225864   4.042   0.158   1.501 -0.6635  0.0397  0.2849
 1410TIP3    H125865   4.031   0.241   1.455 -0.4573  0.5606  1.1612
 1410TIP3    H225866   4.088   0.102   1.438 -0.2567  0.7766 -0.0886
 1411TIP3   OH225867   6.495   6.897   0.430 -0.3293  0.2551  0.4350
 1411TIP3    H125868   6.470   6.955   0.358 -2.2082 -0.3285  0.5451
 1411TIP3    H225869   6.450   6.933   0.506  1.0497  0.4429  1.1895
 1412TIP3   OH225870   5.763   0.844   1.691 -0.0705 -0.2514  0.7501
 1412TIP3    H125871   5.766   0.758   1.732 -0.6154 -1.0498 -0.8000
 1412TIP3    H225872   5.848   0.884   1.713  1.3348 -2.2494 -0.6566
 1413TIP3   OH225873   2.183   6.960   2.237  0.1290  0.1196  0.2072
 1413TIP3    H125874   2.232   6.987   2.315 -1.0468  1.4230  0.5375
 1413TIP3    H225875   2.167   6.867   2.250  1.2076 -0.0051  0.8073
 1414TIP3   OH225876   1.871   5.881   6.380 -0.0894 -0.4202 -0.2093
 1414TIP3    H125877   1.953   5.914   6.345 -1.0875  1.3588 -0.9982
 1414TIP3    H225878   1.868   5.914   6.470 -1.5199  2.7874 -1.2665
 1415TIP3   OH225879   1.080   6.297   0.344  0.2304  0.0064 -0.0816
 1415TIP3    H125880   1.101   6.352   0.268 -0.3046  1.4327  0.7593
 1415TIP3    H225881   1.057   6.359   0.413  2.1602 -1.1671  1.7265
 1416TIP3   OH225882   4.480   1.433   1.333  0.0464  0.3060  0.2655
 1416TIP3    H125883   4.567   1.450   1.369  1.0533 -0.5617 -1.6077
 1416TIP3    H225884   4.447   1.519   1.306  0.4352  0.6072  0.7532
 1417TIP3   OH225885   3.791   4.200   6.389 -0.1490  0.0033 -0.6812
 1417TIP3    H125886   3.878   4.163   6.405 -0.2406  0.1218  0.1072
 1417TIP3    H225887   3.807   4.270   6.325  0.5106  0.7354  0.2575
 1418TIP3   OH225888   5.935   2.139   1.296 -0.4983 -0.4946  0.3717
 1418TIP3    H125889   5.961   2.208   1.358  0.5966 -0.8862  0.3688
 1418TIP3    H225890   6.018   2.100   1.268 -0.9757 -0.3796 -1.2927
 1419TIP3   OH225891   4.264   6.558   0.243  0.2853 -0.4154  0.0578
 1419TIP3    H125892   4.282   6.551   0.149  2.5579  1.4930  0.2513
 1419TIP3    H225893   4.344   6.527   0.286  1.5444  3.6895  1.1445
 1420TIP3   OH225894   5.036   3.502   7.469 -0.1382 -0.5486 -0.2820
 1420TIP3    H125895   5.096   3.465   7.404 -1.7209 -1.0459 -1.4964
 1420TIP3    H225896   5.060   3.595   7.474  0.5875 -0.6927 -0.8848
 1421TIP3   OH225897   1.951   2.688   1.859 -0.1079 -0.4860 -0.0737
 1421TIP3    H125898   1.916   2.599   1.862  0.1243 -0.5519  1.2921
 1421TIP3    H225899   1.977   2.706   1.949 -0.0537  0.9293 -0.3591
 1422TIP3   OH225900   2.815   3.724   2.694 -0.0576  0.3345 -0.0800
 1422TIP3    H125901   2.845   3.777   2.768 -0.9858  0.8288 -0.0434
 1422TIP3    H225902   2.826   3.781   2.618 -0.4727  0.3595 -0.1238
 1423TIP3   OH225903   5.470   3.987   0.027  0.6870  0.0934 -0.2859
 1423TIP3    H125904   5.451   4.068   0.074 -0.8666 -0.3958 -0.0104
 1423TIP3    H225905   5.511   4.016  -0.055  1.7564  1.0402  0.5445
 1424TIP3   OH225906   6.137   5.768   8.241 -0.0671  0.1504 -0.1446
 1424TIP3    H125907   6.103   5.857   8.228  1.3244  0.5438 -1.4085
 1424TIP3    H225908   6.201   5.777   8.312 -0.8973 -0.1289  0.6528
 1425TIP3   OH225909   2.203   5.929   7.712 -0.2921  0.0739  0.2424
 1425TIP3    H125910   2.263   5.856   7.696  0.0281  0.5920 -1.0613
 1425TIP3    H225911   2.148   5.932   7.634  2.4647  3.8479 -1.8412
 1426TIP3   OH225912   4.507   5.853   1.040  0.0712  0.5002 -0.1382
 1426TIP3    H125913   4.442   5.890   0.980 -2.4567 -2.0511  0.7974
 1426TIP3    H225914   4.587   5.851   0.989 -0.9617  2.1529 -1.9930
 1427TIP3   OH225915   1.981   3.574   2.400 -0.2987  0.3960 -0.0748
 1427TIP3    H125916   1.891   3.544   2.413 -0.7057  1.4715 -0.3752
 1427TIP3    H225917   1.988   3.655   2.450  1.4217 -1.1419  2.4869
 1428TIP3   OH225918   6.797   0.130   3.018 -0.4655 -0.2984  0.4770
 1428TIP3    H125919   6.811   0.221   2.992 -2.3530 -0.3149 -0.7726
 1428TIP3    H225920   6.745   0.137   3.099 -0.9395 -0.2513  0.1728
 1429TIP3   OH225921   2.505   0.751   1.645  0.0026 -0.4690 -0.1030
 1429TIP3    H125922   2.462   0.833   1.618 -1.6009 -1.0828  0.4602
 1429TIP3    H225923   2.447   0.682   1.612 -0.7147 -1.2988  2.6103
 1430TIP3   OH225924   0.202   2.786   1.967  0.8533  0.1881  0.6448
 1430TIP3    H125925   0.231   2.855   1.908  0.4752  0.5442  0.8696
 1430TIP3    H225926   0.118   2.757   1.929  1.2361 -0.4792  0.2833
 1431TIP3   OH225927   2.014   0.834   6.888  0.0043  0.1304 -0.3045
 1431TIP3    H125928   1.933   0.857   6.841  0.0756 -0.2074 -0.6000
 1431TIP3    H225929   2.009   0.739   6.897 -0.0247  0.1953  0.4122
 1432TIP3   OH225930   3.589   6.911   0.031  0.4682 -0.5076  0.5418
 1432TIP3    H125931   3.657   6.978   0.022 -0.6129  1.0820  3.0007
 1432TIP3    H225932   3.520   6.938  -0.029  0.3982  0.1636  0.9071
 1433TIP3   OH225933   3.166   3.234   1.551 -0.5122  0.5985 -0.3421
 1433TIP3    H125934   3.214   3.152   1.545 -0.3847  0.7338 -1.1928
 1433TIP3    H225935   3.153   3.262   1.461 -3.9048 -0.4067 -0.3168
 1434TIP3   OH225936   1.115   2.765   2.808 -0.1612  0.4730  0.0161
 1434TIP3    H125937   1.075   2.849   2.787  0.3205  1.0067  1.1790
 1434TIP3    H225938   1.169   2.782   2.885 -4.0052 -1.9386  3.6452
 1435TIP3   OH225939   3.053   1.423   0.217 -0.2988 -0.2036  0.1266
 1435TIP3    H125940   3.037   1.383   0.131  2.1240 -2.5885  0.6286
 1435TIP3    H225941   2.998   1.373   0.277 -0.5411  0.1696  0.2183
 1436TIP3   OH225942   5.907   0.221   1.078 -0.2203  0.4375 -0.4409
 1436TIP3    H125943   5.830   0.168   1.056 -1.1918  1.3210  0.6870
 1436TIP3    H225944   5.872   0.309   1.095  1.0212  0.8403  0.1631
 1437TIP3   OH225945   6.743   4.742   1.821  0.0373  0.0000 -0.2428
 1437TIP3    H125946   6.812   4.744   1.888 -1.0620  0.0988  0.9147
 1437TIP3    H225947   6.732   4.650   1.800  0.9335  0.0224 -0.9063
 1438TIP3   OH225948   4.539   6.837   2.161  0.3388 -0.6148 -0.0274
 1438TIP3    H125949   4.489   6.874   2.233  0.7584 -0.6986  0.3128
 1438TIP3    H225950   4.613   6.897   2.149 -0.9782  0.7272 -1.9793
 1439TIP3   OH225951   5.419   6.951   2.629  0.6992  0.8999  0.5268
 1439TIP3    H125952   5.419   7.033   2.679  0.1281  1.5177 -0.4705
 1439TIP3    H225953   5.332   6.914   2.645 -0.0183  1.7973 -1.0953
 1440TIP3   OH225954   5.171   2.885   1.120  0.2156 -0.2661 -0.1845
 1440TIP3    H125955   5.130   2.819   1.065  0.1138 -0.1225 -0.2794
 1440TIP3    H225956   5.123   2.880   1.203  1.9866 -2.2452  0.7931
 1441TIP3   OH225957   0.126   3.425   0.798 -0.0893 -0.3300 -0.7068
 1441TIP3    H125958   0.156   3.516   0.805 -0.1843 -0.2066 -1.6511
 1441TIP3    H225959   0.092   3.404   0.884  2.8044 -0.5210  0.5278
 1442TIP3   OH225960   6.053   2.360   0.561 -0.1309  0.0654  0.2959
 1442TIP3    H125961   6.112   2.365   0.637  1.0995  0.1826 -0.6243
 1442TIP3    H225962   6.065   2.444   0.516 -0.3031 -0.2796 -0.4043
 1443TIP3   OH225963   2.647   0.922   1.012 -0.1512 -0.7136 -0.9874
 1443TIP3    H125964   2.570   0.979   1.013 -0.4726 -1.1310 -1.6092
 1443TIP3    H225965   2.714   0.973   0.967 -0.2736 -0.6147 -1.0575
 1444TIP3   OH225966   4.119   6.313   6.533 -0.1702 -0.1667  0.7560
 1444TIP3    H125967   4.095   6.299   6.624 -2.0187 -1.0450  0.1902
 1444TIP3    H225968   4.044   6.279   6.483 -0.1733  2.1930 -1.0388
 1445TIP3   OH225969   4.205   0.200   0.553 -0.3267 -0.5278 -0.6571
 1445TIP3    H125970   4.252   0.143   0.492  0.2444  0.0356 -0.7565
 1445TIP3    H225971   4.204   0.286   0.510  1.0881  0.1700  0.5891
 1446TIP3   OH225972   3.712   4.524   7.103  0.5003  0.0724 -1.1517
 1446TIP3    H125973   3.741   4.614   7.113  0.8639  0.3403 -3.9180
 1446TIP3    H225974   3.620   4.531   7.077  0.0837 -0.4490  0.1166
 1447TIP3   OH225975   0.683   2.704   1.044 -0.9337 -1.0643  0.1953
 1447TIP3    H125976   0.668   2.678   0.953 -1.1637  0.5746 -0.2681
 1447TIP3    H225977   0.772   2.738   1.045 -0.8340 -1.3290  0.6549
 1448TIP3   OH225978   5.371   5.747   2.205  0.1580  0.2448  0.0988
 1448TIP3    H125979   5.444   5.790   2.248  1.3100 -1.0102 -0.5267
 1448TIP3    H225980   5.350   5.803   2.131  1.1327  0.1364 -0.2728
 1449TIP3   OH225981   0.404   0.625   1.716 -0.4969 -0.6398  0.4840
 1449TIP3    H125982   0.468   0.590   1.778 -1.4011 -1.1102  1.1673
 1449TIP3    H225983   0.443   0.610   1.630  0.4310 -0.6668  0.8975
 1450TIP3   OH225984   6.539   4.237   1.619  0.3010 -0.0268  0.2650
 1450TIP3    H125985   6.624   4.194   1.632  1.1194  1.3134 -0.4083
 1450TIP3    H225986   6.561   4.320   1.576 -1.3708  0.2837 -0.0441
 1451TIP3   OH225987   4.805   2.232   7.535 -0.4077 -0.4214  0.4840
 1451TIP3    H125988   4.756   2.289   7.593  0.4368 -0.9263  1.7334
 1451TIP3    H225989   4.757   2.150   7.534 -0.5930 -0.3125  0.1983
 1452TIP3   OH225990   6.152   2.846   1.669 -0.2488  0.1730  0.2819
 1452TIP3    H125991   6.087   2.917   1.676 -0.1122  0.3453 -0.1582
 1452TIP3    H225992   6.104   2.767   1.695 -0.6433  0.2948 -0.0714
 1453TIP3   OH225993   2.714   4.896   2.215 -0.0458  0.1389  0.1492
 1453TIP3    H125994   2.635   4.882   2.266 -0.9400 -1.7429 -1.5918
 1453TIP3    H225995   2.714   4.990   2.196  0.1741  0.8397  3.2144
 1454TIP3   OH225996   2.247   6.918   1.666 -0.3012 -0.2107 -0.5458
 1454TIP3    H125997   2.214   6.879   1.585  1.0661 -2.3430 -0.1345
 1454TIP3    H225998   2.327   6.870   1.685  0.6354  1.7769  0.8943
 1455TIP3   OH225999   1.710   6.762   0.805  0.2113  0.1836 -0.1464
 1455TIP3    H126000   1.783   6.700   0.804  1.7179  1.9183 -0.8096
 1455TIP3    H226001   1.668   6.747   0.891  2.4169  0.3705  1.0313
 1456TIP3   OH226002   6.593   3.333   2.499  0.2709  0.5377 -0.6539
 1456TIP3    H126003   6.518   3.287   2.460  1.5552 -0.4607 -2.0610
 1456TIP3    H226004   6.553   3.398   2.557 -1.6790  0.0194 -1.3171
 1457TIP3   OH226005   0.783   5.825   0.890 -0.2352 -0.1528  0.2898
 1457TIP3    H126006   0.697   5.803   0.926 -0.9973  0.5181 -1.0646
 1457TIP3    H226007   0.824   5.740   0.874 -1.9849 -0.6493 -2.1325
 1458TIP3   OH226008   4.954   3.196   1.649  0.1987 -0.0220 -0.4215
 1458TIP3    H126009   4.996   3.274   1.612 -0.0847 -0.2911 -1.3330
 1458TIP3    H226010   4.978   3.198   1.742  1.2088  0.4892 -0.6777
 1459TIP3   OH226011   3.189   0.807   0.309  0.4101  0.1048  0.1293
 1459TIP3    H126012   3.275   0.845   0.326  1.2805 -1.2038 -1.1343
 1459TIP3    H226013   3.188   0.789   0.215 -1.5692  0.8154 -0.0399
 1460TIP3   OH226014   2.366   3.004   0.855 -0.3627 -0.4029  1.0025
 1460TIP3    H126015   2.437   2.992   0.917 -1.7055  1.7527  3.1553
 1460TIP3    H226016   2.301   3.056   0.903 -3.3514 -2.1087 -0.8545
 1461TIP3   OH226017   6.506   0.068   1.458 -0.1708 -0.4921 -0.2435
 1461TIP3    H126018   6.516   0.106   1.370 -2.6157  0.3936 -0.2149
 1461TIP3    H226019   6.531   0.138   1.518 -1.7219  0.0775 -0.2284
 1462TIP3   OH226020   1.854   4.992   1.488 -0.1957 -0.4502 -0.0928
 1462TIP3    H126021   1.838   4.967   1.397  2.4013 -0.3944 -0.6593
 1462TIP3    H226022   1.946   4.967   1.503 -0.9915 -1.9930  3.0495
 1463TIP3   OH226023   0.148   0.814   0.563  0.0216  0.6641 -0.2244
 1463TIP3    H126024   0.113   0.801   0.475 -0.5278  1.7196 -0.1732
 1463TIP3    H226025   0.080   0.863   0.609  0.8985  1.3574  0.3598
 1464TIP3   OH226026   4.364   1.952   0.825  0.4206  0.3755 -0.4290
 1464TIP3    H126027   4.388   1.927   0.736 -3.1361  1.9927 -2.0540
 1464TIP3    H226028   4.357   2.047   0.822 -0.8248  0.3822  1.2668
 1465TIP3   OH226029   1.218   3.540   1.609  0.2890  0.0805  0.1264
 1465TIP3    H126030   1.162   3.464   1.596 -0.5878  0.3277  2.1507
 1465TIP3    H226031   1.304   3.504   1.629  0.2034 -0.3398 -0.2483
 1466TIP3   OH226032   0.931   1.468   1.319  0.0827 -0.0908  0.0045
 1466TIP3    H126033   0.942   1.560   1.346  0.8342 -0.4453  0.9770
 1466TIP3    H226034   0.850   1.467   1.268  0.6832  1.3290 -1.0501
 1467TIP3   OH226035   0.931   0.495   0.530  0.2635  0.2232  0.1830
 1467TIP3    H126036   1.009   0.521   0.481  0.0238 -0.6460 -0.6963
 1467TIP3    H226037   0.963   0.428   0.591  0.1538 -0.3838 -0.4168
 1468TIP3   OH226038   1.963   6.837   0.241 -0.1596 -0.6109  0.4608
 1468TIP3    H126039   1.895   6.892   0.201 -0.5867 -1.0214  0.6201
 1468TIP3    H226040   1.939   6.832   0.333  0.0504 -0.8149  0.5049
 1469TIP3   OH226041   6.479   0.203   1.215  0.4324 -0.0066  0.1735
 1469TIP3    H126042   6.402   0.150   1.193  1.7831 -1.6513 -0.8983
 1469TIP3    H226043   6.480   0.272   1.149 -0.7476  0.7337  0.9077
 1470TIP3   OH226044   1.147   6.343   1.270 -0.2549 -0.5977 -0.3624
 1470TIP3    H126045   1.147   6.263   1.216 -0.6310 -1.1241  0.4010
 1470TIP3    H226046   1.054   6.361   1.285 -0.1758  0.0738 -0.6442
 1471TIP3   OH226047   1.081   2.056   8.473  0.1633  0.0910 -0.0132
 1471TIP3    H126048   1.039   2.127   8.424  1.8306  0.0228 -1.6761
 1471TIP3    H226049   1.077   1.980   8.415  0.0925 -0.6677  0.9552
 1472TIP3   OH226050   3.758   6.135   1.401  0.0355  0.4205  0.3404
 1472TIP3    H126051   3.759   6.159   1.308 -1.6800  0.3304  0.2712
 1472TIP3    H226052   3.774   6.217   1.447  0.9954  0.4483 -0.0206
 1473TIP3   OH226053   5.210   5.116   1.039 -0.1231 -0.1339  0.0009
 1473TIP3    H126054   5.264   5.194   1.048 -2.2561  1.3805  0.6062
 1473TIP3    H226055   5.168   5.125   0.954  0.0077 -0.9056 -0.1558
 1474TIP3   OH226056   1.639   5.652   6.861 -0.6687  0.1247  0.1125
 1474TIP3    H126057   1.719   5.631   6.908 -0.1980  0.8653 -0.3359
 1474TIP3    H226058   1.646   5.602   6.779 -1.4636 -1.1251  0.7866
 1475TIP3   OH226059   1.522   5.009   1.232 -0.0651  0.4639 -0.2463
 1475TIP3    H126060   1.497   4.952   1.159  1.2614  1.0588 -1.2039
 1475TIP3    H226061   1.565   4.950   1.294  1.9260  0.4741 -1.5462
 1476TIP3   OH226062   0.497   5.850   0.687 -0.0280 -0.0731 -0.6595
 1476TIP3    H126063   0.472   5.761   0.662  1.4811 -0.8907  0.5511
 1476TIP3    H226064   0.588   5.858   0.656  0.3475  0.4821  0.5361
 1477TIP3   OH226065   1.949   5.395   7.306 -0.0221 -0.0788  0.0174
 1477TIP3    H126066   2.035   5.359   7.285 -0.1073  0.0144 -0.5133
 1477TIP3    H226067   1.891   5.319   7.305  0.1761 -0.2717  1.1730
 1478TIP3   OH226068   2.452   4.775   7.182 -0.2415  0.3381  0.2962
 1478TIP3    H126069   2.474   4.687   7.210 -0.8199  0.8206  2.4722
 1478TIP3    H226070   2.378   4.763   7.122 -0.7786 -0.6426  1.1129
 1479TIP3   OH226071   1.842   3.526   8.314 -0.0623  0.0054 -0.2314
 1479TIP3    H126072   1.919   3.525   8.257 -0.9874 -0.7928 -1.5173
 1479TIP3    H226073   1.856   3.453   8.374  1.0600  1.0338  0.7996
 1480TIP3   OH226074   2.922   3.194   7.239 -0.0768 -0.2111 -0.2002
 1480TIP3    H126075   2.977   3.130   7.285  0.5695 -0.5018 -1.3522
 1480TIP3    H226076   2.861   3.140   7.188  1.4737  0.0148 -2.3961
 1481TIP3   OH226077   1.289   2.597   1.705 -0.2842 -0.1821 -0.4500
 1481TIP3    H126078   1.294   2.551   1.789  1.0432 -1.5173 -1.2089
 1481TIP3    H226079   1.226   2.546   1.654  0.0827 -0.2984 -0.7892
 1482TIP3   OH226080   3.326   2.028   2.092  0.2965  0.7916 -0.0010
 1482TIP3    H126081   3.256   1.968   2.116 -0.4836  2.2074  1.4663
 1482TIP3    H226082   3.397   2.008   2.152 -0.1095  1.5731  0.7517
 1483TIP3   OH226083   6.006   0.616   7.794  0.4417  0.1844  0.4382
 1483TIP3    H126084   5.937   0.576   7.740  0.6981 -0.0139  0.2561
 1483TIP3    H226085   6.007   0.708   7.765  0.8593 -0.0152 -0.1926
 1484TIP3   OH226086   3.944   4.803   2.330 -0.6129  0.0834  0.3768
 1484TIP3    H126087   3.899   4.880   2.294 -0.2047  0.5953  0.9293
 1484TIP3    H226088   4.026   4.798   2.280 -0.4366  0.2822  0.6406
 1485TIP3   OH226089   3.225   0.411   0.414  0.0614 -0.5043  0.6254
 1485TIP3    H126090   3.148   0.446   0.460  0.4236 -2.1935  2.6653
 1485TIP3    H226091   3.297   0.468   0.443 -0.1424  0.0960 -0.0243
 1486TIP3   OH226092   2.498   6.193   3.440  0.2694  0.9194  0.6209
 1486TIP3    H126093   2.419   6.143   3.457  0.8170 -0.1333  0.1779
 1486TIP3    H226094   2.469   6.265   3.383  0.0113 -0.9308 -1.7688
 1487TIP3   OH226095   0.051   1.866   1.937 -0.1957 -0.2894  0.3984
 1487TIP3    H126096   0.126   1.886   1.993 -0.7582  0.4136  0.9190
 1487TIP3    H226097  -0.001   1.946   1.938 -0.7991 -0.6637 -0.2130
 1488TIP3   OH226098   3.588   1.383   0.513 -0.5892 -0.0321 -0.1312
 1488TIP3    H126099   3.643   1.452   0.549 -2.7855  1.3508  0.8007
 1488TIP3    H226100   3.592   1.313   0.579 -0.7804  0.5107  0.4726
 1489TIP3   OH226101   6.454   0.449   7.946  0.2996 -0.1523  0.0925
 1489TIP3    H126102   6.425   0.489   7.864 -3.2053 -0.6206  0.9048
 1489TIP3    H226103   6.434   0.356   7.935  1.1210 -0.4393  0.9593
 1490TIP3   OH226104   5.983   0.840   8.220  0.6841 -0.3346  0.6499
 1490TIP3    H126105   5.928   0.790   8.159  0.5281  0.0227  0.4930
 1490TIP3    H226106   5.990   0.927   8.180  0.6496 -0.1221  1.1019
 1491TIP3   OH226107   6.391   5.108   8.012 -0.0800 -0.7703 -0.4798
 1491TIP3    H126108   6.336   5.122   8.089  1.4890  2.6476  0.2283
 1491TIP3    H226109   6.446   5.033   8.035  0.0953 -0.0689  1.6248
 1492TIP3   OH226110   6.847   2.933   6.897 -0.2507 -0.1609 -0.2430
 1492TIP3    H126111   6.913   2.866   6.879  1.2656  0.8484  1.2943
 1492TIP3    H226112   6.874   3.007   6.843  0.6735  0.6843  1.2929
 1493TIP3   OH226113   0.675   1.738   8.496 -0.0893 -0.1157 -0.6496
 1493TIP3    H126114   0.706   1.826   8.476  0.9627  0.3454  2.4891
 1493TIP3    H226115   0.582   1.748   8.514  0.0713  0.4438 -0.0836
 1494TIP3   OH226116   4.077   0.390   0.419 -0.1221 -0.4089  0.1253
 1494TIP3    H126117   3.998   0.357   0.462  1.4476 -2.2234  1.7328
 1494TIP3    H226118   4.066   0.366   0.327 -1.2245 -1.0180  0.4027
 1495TIP3   OH226119   4.183   3.121   0.433  0.0216  0.2914 -0.2296
 1495TIP3    H126120   4.252   3.185   0.414 -2.4368  3.2671  0.0610
 1495TIP3    H226121   4.195   3.101   0.526  2.1066 -1.4877 -0.7950
 1496TIP3   OH226122   1.382   2.543   7.454  0.3141  0.5140  0.1123
 1496TIP3    H126123   1.386   2.639   7.457  0.4391  0.5042  0.2988
 1496TIP3    H226124   1.293   2.523   7.426 -0.4873  0.6472  2.4089
 1497TIP3   OH226125   5.588   2.466   0.149  0.0481 -0.3014 -0.2177
 1497TIP3    H126126   5.499   2.437   0.172 -0.0159  0.8321  1.0726
 1497TIP3    H226127   5.576   2.549   0.105  0.4975  0.3050  0.7670
 1498TIP3   OH226128   2.745   3.298   2.425 -0.5917 -0.4690  0.2357
 1498TIP3    H126129   2.807   3.367   2.449 -1.4480  0.7072 -0.7907
 1498TIP3    H226130   2.660   3.329   2.458 -1.1289 -0.5915 -0.9484
 1499TIP3   OH226131   4.462   3.340   2.612 -0.4310  0.0092  0.4285
 1499TIP3    H126132   4.470   3.307   2.702  2.2418 -0.4878  0.0795
 1499TIP3    H226133   4.539   3.306   2.567 -1.0370  1.3152 -1.7290
 1500TIP3   OH226134   4.504   5.729   2.084  0.3402  0.1675 -0.2302
 1500TIP3    H126135   4.416   5.693   2.098 -0.3775  1.5397 -1.1256
 1500TIP3    H226136   4.562   5.659   2.115 -0.9356 -2.3119 -2.8716
 1501TIP3   OH226137   4.189   4.401   0.485 -0.5410 -0.6784 -0.4510
 1501TIP3    H126138   4.194   4.333   0.418 -2.0015 -1.1163 -0.1517
 1501TIP3    H226139   4.240   4.367   0.558  0.4719 -0.5139 -1.0719
 1502TIP3   OH226140   0.456   6.757   0.345  0.0133 -0.1124  0.2666
 1502TIP3    H126141   0.367   6.784   0.368  0.6857  0.8522  1.9417
 1502TIP3    H226142   0.506   6.769   0.426  1.3562 -2.1166 -0.1895
 1503TIP3   OH226143   5.013   4.377   1.139 -0.3759  0.0637  0.2502
 1503TIP3    H126144   4.979   4.288   1.150  0.0018 -0.1252 -0.0952
 1503TIP3    H226145   5.059   4.375   1.055 -1.2511  0.8658 -0.2711
 1504TIP3   OH226146   5.471   6.003   0.463 -0.2351 -0.5391 -0.0346
 1504TIP3    H126147   5.448   5.999   0.371  0.4659 -0.3681 -0.2257
 1504TIP3    H226148   5.414   6.070   0.500 -0.8447 -0.9338 -0.2367
 1505TIP3   OH226149   5.638   2.391   1.108  0.1442 -0.1390  0.1418
 1505TIP3    H126150   5.567   2.330   1.130  0.5025 -0.6338 -0.0344
 1505TIP3    H226151   5.617   2.471   1.155 -0.3583 -0.3916  0.3533
 1506TIP3   OH226152   1.522   2.293   0.352 -0.0460  0.3049 -0.1515
 1506TIP3    H126153   1.571   2.289   0.269 -0.9289 -0.9658 -0.6348
 1506TIP3    H226154   1.474   2.376   0.347  0.1357  0.3827 -0.7678
 1507TIP3   OH226155   3.849   6.018   1.640  0.2520 -0.2384  0.1334
 1507TIP3    H126156   3.894   5.944   1.600 -1.0912 -0.6195 -0.7479
 1507TIP3    H226157   3.808   6.064   1.567  1.7243  1.9059  0.5483
 1508TIP3   OH226158   1.427   1.938   8.439 -0.7854  0.3689  0.3470
 1508TIP3    H126159   1.366   1.978   8.502 -1.1025  0.6482 -0.1288
 1508TIP3    H226160   1.386   1.954   8.354 -1.6154 -2.1562  0.2057
 1509TIP3   OH226161   4.054   4.187   0.827  0.3692  0.1647 -0.0389
 1509TIP3    H126162   4.066   4.181   0.732 -0.8533  1.2850 -0.2874
 1509TIP3    H226163   4.120   4.127   0.863 -0.5250 -1.8856 -1.6513
 1510TIP3   OH226164   3.478   4.796   0.642  0.1436 -0.6219 -0.0831
 1510TIP3    H126165   3.503   4.862   0.707  0.5621 -2.7419  2.0900
 1510TIP3    H226166   3.497   4.836   0.558 -0.3310  2.2747  1.0643
 1511TIP3   OH226167   3.965   5.458   7.789 -0.6995 -0.3172  0.6139
 1511TIP3    H126168   3.878   5.420   7.781  0.0439 -2.1426  0.6727
 1511TIP3    H226169   4.019   5.387   7.825  0.4676  1.2778  2.1421
 1512TIP3   OH226170   5.693   0.462   1.889  0.1304  0.5063  0.9250
 1512TIP3    H126171   5.673   0.494   1.801 -0.2350  0.2492  0.9095
 1512TIP3    H226172   5.678   0.537   1.946 -1.9161  0.0957  1.0390
 1513TIP3   OH226173   5.991   5.601   0.089 -0.5389  0.2839 -0.5203
 1513TIP3    H126174   6.014   5.646   0.170 -0.1932 -0.6376 -0.0969
 1513TIP3    H226175   5.912   5.646   0.059 -1.1540  0.1080  0.7711
 1514TIP3   OH226176   1.986   2.589   0.381  0.4444  0.3058  0.1008
 1514TIP3    H126177   1.915   2.543   0.335 -0.4762 -1.3121  2.9109
 1514TIP3    H226178   1.955   2.597   0.471  2.7013  2.1373  0.8144
 1515TIP3   OH226179   3.468   2.021   0.695 -0.2315  0.5149  0.2133
 1515TIP3    H126180   3.412   1.977   0.631  3.3757 -4.1536 -0.2172
 1515TIP3    H226181   3.517   2.085   0.643 -1.0786  0.5759 -0.5435
 1516TIP3   OH226182   2.201   6.687   2.204 -0.1250 -0.4333  0.7236
 1516TIP3    H126183   2.130   6.638   2.246 -0.8908 -0.6330 -0.7258
 1516TIP3    H226184   2.221   6.637   2.125  1.0943  0.0613  0.6937
 1517TIP3   OH226185   3.074   0.013   0.128 -0.1161  0.6785 -0.0466
 1517TIP3    H126186   3.038   0.056   0.051 -1.0887  0.7421  0.4335
 1517TIP3    H226187   3.154   0.061   0.147  0.8132 -0.0975 -1.7321
 1518TIP3   OH226188   4.260   2.574   7.938 -0.4162  0.2357 -0.1876
 1518TIP3    H126189   4.171   2.569   7.972 -0.7592 -1.1017 -1.1740
 1518TIP3    H226190   4.255   2.634   7.864 -0.0127  1.8399  1.0224
 1519TIP3   OH226191   2.710   6.729   2.832 -0.1206 -0.4323  0.2873
 1519TIP3    H126192   2.711   6.717   2.927 -0.0885 -0.5859  0.2687
 1519TIP3    H226193   2.673   6.816   2.818  1.6231  0.3984  0.5288
 1520TIP3   OH226194   6.094   4.749   7.801  0.0736 -0.3584 -0.1848
 1520TIP3    H126195   6.093   4.833   7.847  0.8456  0.8696 -2.2433
 1520TIP3    H226196   6.006   4.741   7.763  0.2327 -0.0735 -0.6259
 1521TIP3   OH226197   1.490   6.837   0.123 -0.4042  0.1630  0.3833
 1521TIP3    H126198   1.398   6.810   0.122 -0.5970  0.7771 -0.3279
 1521TIP3    H226199   1.496   6.900   0.195 -0.0611 -1.3706  1.7297
 1522TIP3   OH226200   2.193   1.679   1.031 -0.6116 -0.1899  0.1047
 1522TIP3    H126201   2.213   1.589   1.054 -0.1130 -0.3962 -1.0450
 1522TIP3    H226202   2.260   1.731   1.076  0.5322 -0.6023 -1.0542
 1523TIP3   OH226203   1.516   5.130   6.976  0.2820 -0.1532 -0.2925
 1523TIP3    H126204   1.529   5.221   7.003  1.1643 -0.5979  0.8528
 1523TIP3    H226205   1.583   5.081   7.023 -1.5762 -1.7161  0.8734
 1524TIP3   OH226206   0.297   5.510   7.768 -0.3192  0.7079  0.1502
 1524TIP3    H126207   0.383   5.470   7.760  0.3121  2.1270 -0.7219
 1524TIP3    H226208   0.246   5.470   7.697 -0.4010 -0.1705  0.6981
 1525TIP3   OH226209   3.708   4.184   1.557  0.6467 -0.6080  0.4842
 1525TIP3    H126210   3.747   4.220   1.637 -0.8706 -0.2794  1.1247
 1525TIP3    H226211   3.701   4.259   1.498  1.9139 -0.8826 -0.0483
 1526TIP3   OH226212   5.714   4.816   6.270 -0.8450 -0.0751  0.4732
 1526TIP3    H126213   5.660   4.815   6.349 -1.5083  1.2199  0.0648
 1526TIP3    H226214   5.673   4.752   6.211 -2.2590  1.2141 -0.0072
 1527TIP3   OH226215   1.293   5.995   0.122 -0.2205  0.4967  0.4704
 1527TIP3    H126216   1.295   6.083   0.085  2.4238 -0.2793 -1.5062
 1527TIP3    H226217   1.360   5.996   0.190  0.8188 -0.3359 -0.5220
 1528TIP3   OH226218   3.170   6.254   1.237 -0.4999  0.3552 -0.2358
 1528TIP3    H126219   3.152   6.330   1.181  1.9867  0.2635 -1.3027
 1528TIP3    H226220   3.118   6.183   1.199 -1.3225  1.0528 -0.4400
 1529TIP3   OH226221   5.558   6.180   8.505 -0.1505 -0.7039  0.3204
 1529TIP3    H126222   5.479   6.215   8.546  1.2151  1.0535  1.6299
 1529TIP3    H226223   5.610   6.146   8.578  1.2034  0.1334 -0.2132
 1530TIP3   OH226224   2.980   0.294   6.777  0.7609  0.0397  0.1468
 1530TIP3    H126225   3.069   0.289   6.811  1.6728  1.3603 -1.8197
 1530TIP3    H226226   2.943   0.373   6.815  1.0307  0.3700 -0.2630
 1531TIP3   OH226227   5.624   6.431   1.033  0.5017 -0.0081  0.0623
 1531TIP3    H126228   5.660   6.347   1.005 -1.4898 -0.5287 -1.1990
 1531TIP3    H226229   5.567   6.409   1.106 -1.6558 -0.1980 -1.5521
 1532TIP3   OH226230   1.767   1.800   1.292  0.1064 -0.4410 -0.4610
 1532TIP3    H126231   1.778   1.882   1.244  1.3870 -0.8291 -0.8572
 1532TIP3    H226232   1.719   1.743   1.232 -0.0121 -0.2831 -0.5172
 1533TIP3   OH226233   5.953   1.188   1.362 -0.1662 -0.0037 -0.0605
 1533TIP3    H126234   5.960   1.203   1.456  0.5673  1.0069 -0.2658
 1533TIP3    H226235   5.894   1.113   1.354  0.4124 -0.6231  1.2377
 1534TIP3   OH226236   3.153   3.862   2.230 -0.0258 -0.1564 -0.2550
 1534TIP3    H126237   3.122   3.934   2.285  0.8993 -0.5781  0.8673
 1534TIP3    H226238   3.247   3.857   2.248  0.4639  0.1557 -2.4506
 1535TIP3   OH226239   1.819   3.871   0.967 -0.6824  0.1117 -0.1870
 1535TIP3    H126240   1.789   3.794   1.015 -0.3286  0.8339  1.2434
 1535TIP3    H226241   1.900   3.842   0.923  0.4828  0.1300  1.8338
 1536TIP3   OH226242   0.275   4.532   7.413  0.3032  0.5066  1.4288
 1536TIP3    H126243   0.353   4.511   7.361 -0.8975 -0.2701 -0.1917
 1536TIP3    H226244   0.291   4.492   7.498  1.3192 -0.3796  0.8461
 1537TIP3   OH226245   3.688   2.451   7.054 -0.2414 -1.0293  0.3011
 1537TIP3    H126246   3.754   2.492   7.111 -0.9267  1.1114 -0.3837
 1537TIP3    H226247   3.612   2.508   7.060 -0.0478 -0.1396 -3.4716
 1538TIP3   OH226248   4.058   5.761   1.180  0.4082 -0.9017  0.2223
 1538TIP3    H126249   4.042   5.848   1.144  2.2488 -1.5439 -2.5122
 1538TIP3    H226250   4.135   5.771   1.236 -0.1612 -0.5675  0.9565
 1539TIP3   OH226251   6.788   3.568   2.635 -0.3748  0.1927  1.0848
 1539TIP3    H126252   6.796   3.484   2.590 -0.5379 -0.1565  1.6832
 1539TIP3    H226253   6.725   3.618   2.583 -0.4911 -0.1697  0.8730
 1540TIP3   OH226254   6.177   3.800   6.388  0.6535  0.6510 -0.4979
 1540TIP3    H126255   6.137   3.887   6.376  0.2552  0.9416  2.3439
 1540TIP3    H226256   6.102   3.741   6.395  0.7149  0.7706  1.8976
 1541TIP3   OH226257   1.686   3.485   0.504  0.1868  0.8405 -0.1391
 1541TIP3    H126258   1.729   3.509   0.586 -0.0865 -5.1664  2.3012
 1541TIP3    H226259   1.598   3.458   0.530 -0.3371 -0.1479 -2.6301
 1542TIP3   OH226260   1.982   1.111   7.652 -0.1110  0.4631 -0.1586
 1542TIP3    H126261   2.035   1.049   7.702 -0.8715  1.1931  1.6207
 1542TIP3    H226262   1.935   1.056   7.588 -0.0622 -0.6706  0.7534
 1543TIP3   OH226263   4.912   3.624   0.647 -0.5581  0.2658 -1.0538
 1543TIP3    H126264   4.988   3.602   0.594  0.0456 -2.1151  0.6502
 1543TIP3    H226265   4.914   3.720   0.653  1.7867  0.3181 -1.7536
 1544TIP3   OH226266   1.367   1.262   1.049 -0.6900  0.2993 -0.5976
 1544TIP3    H126267   1.287   1.314   1.048 -2.1533 -1.8228 -1.1677
 1544TIP3    H226268   1.436   1.322   1.020 -2.2862  1.8653 -1.2902
 1545TIP3   OH226269   3.065   3.486   8.423 -0.7124  0.5177  0.3576
 1545TIP3    H126270   3.025   3.555   8.370 -0.0240  1.0777  0.5559
 1545TIP3    H226271   3.000   3.470   8.492 -0.9898  0.7944  0.1674
 1546TIP3   OH226272   4.036   2.915   7.695 -0.4744  0.0021 -0.0908
 1546TIP3    H126273   3.976   2.885   7.764  0.9609 -0.6721  0.9289
 1546TIP3    H226274   3.979   2.953   7.628 -2.1315 -1.7191  0.2489
 1547TIP3   OH226275   4.646   4.078   8.440 -0.9425  0.2970 -0.6123
 1547TIP3    H126276   4.706   4.092   8.366  0.0252 -1.5912 -0.2324
 1547TIP3    H226277   4.663   3.989   8.468 -1.5959  0.8203  1.6334
 1548TIP3   OH226278   5.919   0.639   7.307 -0.6177  0.1325 -0.3439
 1548TIP3    H126279   5.993   0.671   7.255 -0.4203 -0.7233 -0.6070
 1548TIP3    H226280   5.851   0.705   7.295  0.1318  0.9821 -0.0215
 1549TIP3   OH226281   2.134   4.900   1.533 -0.6075 -0.0750  0.2174
 1549TIP3    H126282   2.162   4.820   1.579 -0.2867 -0.4412 -0.5928
 1549TIP3    H226283   2.146   4.879   1.440 -0.2265  1.0326  0.0116
 1550TIP3   OH226284   4.569   0.261   6.996 -0.0465  0.3735  0.5288
 1550TIP3    H126285   4.486   0.261   6.949 -0.3424  3.0363  0.8951
 1550TIP3    H226286   4.625   0.201   6.946 -2.3319 -2.0650  0.7086
 1551TIP3   OH226287   2.956   5.413   0.303  0.0247 -0.5346 -0.7845
 1551TIP3    H126288   2.890   5.483   0.295  2.2758  1.5676 -2.4926
 1551TIP3    H226289   3.018   5.446   0.368  1.0736 -0.9831 -1.5402
 1552TIP3   OH226290   4.438   6.632   7.346 -0.4412  0.5836  0.7674
 1552TIP3    H126291   4.395   6.626   7.432  0.7749  1.0890  1.4300
 1552TIP3    H226292   4.480   6.547   7.335  2.3445  1.6416  2.3192
 1553TIP3   OH226293   2.284   5.376   8.328  0.3168 -0.7763  0.1845
 1553TIP3    H126294   2.194   5.398   8.305  0.1767 -2.6231 -1.2371
 1553TIP3    H226295   2.278   5.286   8.362  1.6055 -0.8745  0.1799
 1554TIP3   OH226296   4.340   0.659   7.629 -0.0696 -0.4216 -0.2352
 1554TIP3    H126297   4.338   0.634   7.722 -2.6496 -1.8504 -0.5718
 1554TIP3    H226298   4.409   0.605   7.591 -0.8549 -1.9164  0.3849
 1555TIP3   OH226299   1.840   2.803   2.255 -0.2123  1.3509 -0.2791
 1555TIP3    H126300   1.794   2.816   2.172 -1.0389 -0.5937 -0.1860
 1555TIP3    H226301   1.771   2.783   2.318  0.6087 -0.5340  0.1058
 1556TIP3   OH226302   3.042   2.141   0.014  0.1472  0.2933  0.6152
 1556TIP3    H126303   3.030   2.051   0.046 -1.9959  0.0712 -0.6349
 1556TIP3    H226304   3.062   2.192   0.092  0.8128 -1.1509  1.4303
 1557TIP3   OH226305   4.847   1.220   7.381 -0.1767  0.2216 -0.0565
 1557TIP3    H126306   4.881   1.205   7.293  1.3496 -0.6408  0.6421
 1557TIP3    H226307   4.801   1.139   7.403  1.0577 -0.3238  0.6203
 1558TIP3   OH226308   0.066   3.413   8.464 -0.2056 -0.3466  0.1052
 1558TIP3    H126309   0.075   3.322   8.435 -0.4420 -0.1204 -0.7180
 1558TIP3    H226310   0.094   3.413   8.555 -1.0174 -1.4094  0.3698
 1559TIP3   OH226311   3.769   0.335   7.571  0.3836 -0.2754 -0.2513
 1559TIP3    H126312   3.796   0.384   7.494  1.4955 -0.0275  0.2841
 1559TIP3    H226313   3.823   0.369   7.642  1.2256 -2.2702  0.1354
 1560TIP3   OH226314   5.529   4.015   1.287  0.4071  0.1406  0.4408
 1560TIP3    H126315   5.608   3.966   1.310  0.2387 -1.0847 -1.3369
 1560TIP3    H226316   5.473   3.950   1.243 -0.6528  1.4970 -0.2950
 1561TIP3   OH226317   6.350   2.211   6.495  0.3632  0.5091  0.4388
 1561TIP3    H126318   6.348   2.121   6.530 -0.2978  0.6808  0.8694
 1561TIP3    H226319   6.424   2.252   6.540  0.0413  0.4736  1.0174
 1562TIP3   OH226320   4.068   6.405   1.315 -0.2065 -0.4130  0.1879
 1562TIP3    H126321   4.161   6.409   1.292 -0.2549 -1.7722 -0.3269
 1562TIP3    H226322   4.029   6.480   1.269  0.3255 -0.9572 -1.2301
 1563TIP3   OH226323   5.057   1.505   1.227  0.0536  0.0822  0.6651
 1563TIP3    H126324   5.114   1.580   1.240 -0.6523  0.5166  1.3297
 1563TIP3    H226325   5.044   1.468   1.315 -1.5435  0.6494  0.7099
 1564TIP3   OH226326   1.756   6.544   1.907  0.6914 -0.6465 -0.7920
 1564TIP3    H126327   1.811   6.566   1.982  0.7584  0.7077 -1.2180
 1564TIP3    H226328   1.751   6.448   1.908  1.0866 -0.6688  0.6468
 1565TIP3   OH226329   5.859   5.661   2.114  0.0584  0.0756  0.1179
 1565TIP3    H126330   5.915   5.728   2.075 -1.2669  1.5434  0.6306
 1565TIP3    H226331   5.849   5.595   2.045  0.4720  0.9733 -0.8185
 1566TIP3   OH226332   6.299   4.721   2.016 -0.3347 -0.4273  0.4032
 1566TIP3    H126333   6.297   4.803   1.965 -1.4458 -0.2158  0.7640
 1566TIP3    H226334   6.362   4.738   2.086  1.2325 -0.7241 -0.8774
 1567TIP3   OH226335   4.207   6.719   1.542 -0.1184 -0.6449  0.2351
 1567TIP3    H126336   4.262   6.775   1.597 -0.3625 -1.2914  1.1564
 1567TIP3    H226337   4.266   6.687   1.473  0.2291  0.0494  0.2064
 1568TIP3   OH226338   5.352   2.207   8.209  0.2284 -0.7001  0.2226
 1568TIP3    H126339   5.259   2.183   8.207 -0.2315  0.9975 -1.3361
 1568TIP3    H226340   5.397   2.133   8.169 -0.7623 -0.5207 -1.3159
 1569TIP3   OH226341   3.261   6.712   3.254  0.2970  0.1594  0.0866
 1569TIP3    H126342   3.296   6.730   3.341  2.6906  1.6641 -1.0894
 1569TIP3    H226343   3.177   6.759   3.251 -0.1956 -0.5271  1.7662
 1570TIP3   OH226344   0.158   1.636   7.897 -0.4130 -0.2458  0.5758
 1570TIP3    H126345   0.233   1.643   7.956 -0.2880 -0.1168  0.4031
 1570TIP3    H226346   0.157   1.544   7.870 -0.4944 -0.3137  0.8104
 1571TIP3   OH226347   1.197   1.008   6.618 -0.2505  0.4809  0.0761
 1571TIP3    H126348   1.178   1.095   6.653 -3.2470  0.3382 -0.9581
 1571TIP3    H226349   1.134   0.996   6.547 -0.6928 -2.9263  0.8734
 1572TIP3   OH226350   4.080   5.590   0.367 -0.6649  0.1151 -0.0154
 1572TIP3    H126351   4.100   5.658   0.431  1.4748 -0.1999 -0.2747
 1572TIP3    H226352   4.058   5.513   0.421  1.4462 -0.2450  0.4009
 1573TIP3   OH226353   6.168   6.114   2.763  0.4291  0.2873 -0.2139
 1573TIP3    H126354   6.184   6.199   2.722  2.0272  0.5433  0.8853
 1573TIP3    H226355   6.192   6.126   2.855 -1.2569 -0.8112  0.4100
 1574TIP3   OH226356   6.338   1.697   0.517 -0.3631  0.5930 -0.1300
 1574TIP3    H126357   6.326   1.791   0.525 -0.2107  0.4745  1.7668
 1574TIP3    H226358   6.304   1.676   0.430 -0.8412  2.3075 -0.3899
 1575TIP3   OH226359   4.793   2.742   1.514  0.4880  0.4425  0.5312
 1575TIP3    H126360   4.871   2.760   1.567 -0.5915  2.4558  1.5663
 1575TIP3    H226361   4.812   2.658   1.471  3.0833  0.7198  0.9478
 1576TIP3   OH226362   5.075   3.800   6.397  0.0300  0.4188 -0.0646
 1576TIP3    H126363   5.003   3.738   6.402  0.7250 -0.3466  1.0145
 1576TIP3    H226364   5.148   3.755   6.439  1.5743  0.5908 -2.3773
 1577TIP3   OH226365   2.198   6.962   8.050  0.0249 -0.0276  0.0574
 1577TIP3    H126366   2.236   6.918   7.974  1.3726 -0.4254  0.9242
 1577TIP3    H226367   2.237   7.049   8.050 -0.0469  0.0063  0.2324
 1578TIP3   OH226368   4.921   4.368   6.340  0.0623  0.1756  0.1280
 1578TIP3    H126369   4.950   4.323   6.420 -0.3455 -1.8427 -0.8130
 1578TIP3    H226370   4.992   4.353   6.277 -0.5208 -0.0224 -0.4935
 1579TIP3   OH226371   4.216   5.685   7.280  0.3683  0.3432 -0.3311
 1579TIP3    H126372   4.199   5.770   7.321 -0.0539 -0.4343  1.1790
 1579TIP3    H226373   4.309   5.687   7.259  0.3495  1.2002 -0.3719
 1580TIP3   OH226374   5.244   1.234   1.619 -0.0263 -0.1695 -0.2065
 1580TIP3    H126375   5.299   1.195   1.552 -1.0554 -2.7590  0.3224
 1580TIP3    H226376   5.282   1.205   1.702 -0.8797 -0.1330  0.2152
 1581TIP3   OH226377   3.552   1.415   8.522 -0.1437 -0.5133  0.2947
 1581TIP3    H126378   3.545   1.362   8.601 -1.7266 -1.8259 -0.6679
 1581TIP3    H226379   3.462   1.427   8.493  0.3496  0.7248 -0.8157
 1582TIP3   OH226380   5.926   0.474   7.560 -0.3131  0.3914 -0.1920
 1582TIP3    H126381   5.939   0.543   7.496 -0.8534 -1.5964 -2.5892
 1582TIP3    H226382   6.005   0.420   7.554 -1.4406 -1.2448 -1.1342
 1583TIP3   OH226383   3.874   6.749   2.443 -0.2676  0.9339 -0.4691
 1583TIP3    H126384   3.831   6.713   2.520 -0.4428  0.8848 -0.5905
 1583TIP3    H226385   3.921   6.826   2.476  1.9653 -0.6282  0.2383
 1584TIP3   OH226386   4.128   5.369   8.441  0.2343  0.2677  0.2973
 1584TIP3    H126387   4.134   5.273   8.436 -0.4147  0.2775 -0.9605
 1584TIP3    H226388   4.154   5.389   8.531  0.1752 -1.1067  0.6530
 1585TIP3   OH226389   1.838   0.984   7.445 -0.6529  0.6879 -0.2124
 1585TIP3    H126390   1.768   0.920   7.461  0.2911 -0.4438 -0.4950
 1585TIP3    H226391   1.799   1.046   7.383 -1.7764  0.7301  0.5046
 1586TIP3   OH226392   0.524   6.227   1.624 -0.1625 -0.0816  0.0160
 1586TIP3    H126393   0.510   6.153   1.565 -0.8412 -0.9308  1.1699
 1586TIP3    H226394   0.603   6.270   1.592  0.2896 -1.3553 -0.6491
 1587TIP3   OH226395   6.667   5.029   7.839  0.2176  0.4035  0.0111
 1587TIP3    H126396   6.634   4.977   7.766  0.7133  0.5853 -0.3427
 1587TIP3    H226397   6.744   4.982   7.869  0.4726  0.7564 -0.0926
 1588TIP3   OH226398   2.271   6.550   1.975 -0.9209 -0.0591  0.0147
 1588TIP3    H126399   2.338   6.488   1.949 -1.3519 -0.3190 -0.4887
 1588TIP3    H226400   2.216   6.562   1.897 -1.3245  0.3231  0.3463
 1589TIP3   OH226401   0.669   3.735   0.785 -0.7547  0.2098  0.1392
 1589TIP3    H126402   0.716   3.654   0.768 -0.7600  0.1882  0.2301
 1589TIP3    H226403   0.717   3.777   0.856  0.7776  1.5249 -1.5743
 1590TIP3   OH226404   0.809   4.217   1.807 -0.3102  0.2237 -0.1394
 1590TIP3    H126405   0.890   4.210   1.757  0.1685  1.9099  0.3306
 1590TIP3    H226406   0.798   4.131   1.846 -1.0327 -1.3976 -3.5371
 1591TIP3   OH226407   1.272   3.424   0.469 -0.1364  0.1981 -0.4384
 1591TIP3    H126408   1.256   3.430   0.375 -2.1079  0.3188 -0.1368
 1591TIP3    H226409   1.272   3.515   0.499 -1.8306  0.0860 -0.0134
 1592TIP3   OH226410   6.811   2.038   7.983  0.1453 -0.5302 -0.1488
 1592TIP3    H126411   6.877   2.100   8.015  1.1809 -1.3389 -0.6569
 1592TIP3    H226412   6.861   1.972   7.935 -0.9345 -1.7661  0.3650
 1593TIP3   OH226413   3.438   5.864   8.236 -0.3968  0.0730 -0.1804
 1593TIP3    H126414   3.439   5.790   8.296  1.0009  1.7768  2.0884
 1593TIP3    H226415   3.509   5.848   8.175 -0.8645 -0.9726 -0.4747
 1594TIP3   OH226416   4.716   5.245   7.949  0.3605 -0.7067 -0.7928
 1594TIP3    H126417   4.740   5.327   7.906 -0.4373 -0.9977 -1.8260
 1594TIP3    H226418   4.639   5.214   7.901  0.9649 -2.3462 -0.7728
 1595TIP3   OH226419   4.646   5.759   8.350 -0.3881 -0.0783  0.1428
 1595TIP3    H126420   4.648   5.818   8.426 -0.2032 -1.8384  1.5626
 1595TIP3    H226421   4.581   5.797   8.292 -0.1886  1.5855  0.9488
 1596TIP3   OH226422   0.104   4.592   8.412  0.0300  0.1701 -0.7934
 1596TIP3    H126423   0.016   4.626   8.401  0.4105  1.3237 -0.3875
 1596TIP3    H226424   0.160   4.669   8.416  1.1591 -0.5615 -1.8383
 1597TIP3   OH226425   2.405   0.927   0.106  0.0579 -0.2193 -0.4552
 1597TIP3    H126426   2.496   0.950   0.125 -0.2262 -0.6104  1.7136
 1597TIP3    H226427   2.357   0.951   0.186 -2.2766  2.4918 -2.4440
 1598TIP3   OH226428   4.370   5.644   7.584 -0.1750 -0.6147  0.2420
 1598TIP3    H126429   4.335   5.726   7.546 -3.1557 -1.7490  0.2342
 1598TIP3    H226430   4.336   5.643   7.673  1.5324 -0.9559  0.9241
 1599TIP3   OH226431   3.846   5.788   1.477  0.7448 -0.4105  0.7862
 1599TIP3    H126432   3.915   5.725   1.455  0.7457 -0.8734  2.0091
 1599TIP3    H226433   3.784   5.783   1.404  0.9359 -1.5643  0.6906
 1600TIP3   OH226434   4.718   1.727   8.308  0.1188 -0.8594  0.2021
 1600TIP3    H126435   4.626   1.717   8.332  0.4813 -0.7732  1.7308
 1600TIP3    H226436   4.750   1.638   8.299  0.2403 -0.9328  1.2000
 1601TIP3   OH226437   3.213   2.002   2.641 -0.3997  0.3433  0.8022
 1601TIP3    H126438   3.287   1.988   2.701 -0.6703  1.6051  1.4851
 1601TIP3    H226439   3.196   2.096   2.647 -0.0383  0.6306 -1.7621
 1602TIP3   OH226440   4.746   3.913   7.275  0.0353 -0.5514  0.3433
 1602TIP3    H126441   4.775   4.001   7.248  0.5862 -0.3146  1.6795
 1602TIP3    H226442   4.818   3.855   7.251 -0.5340 -0.7410 -1.0025
 1603TIP3   OH226443   4.143   1.610   7.371  0.4580  0.3237  0.2150
 1603TIP3    H126444   4.129   1.616   7.277 -1.9295 -2.1473  0.2789
 1603TIP3    H226445   4.117   1.696   7.405 -0.2397  0.7012 -1.2178
 1604TIP3   OH226446   3.459   5.709   0.958  0.0291 -0.3482  0.4642
 1604TIP3    H126447   3.544   5.684   0.923 -0.5809 -0.0534 -1.3036
 1604TIP3    H226448   3.396   5.681   0.892 -1.1200  0.7951  1.0234
 1605TIP3   OH226449   3.385   3.779   0.053  0.1584 -0.1819  0.1275
 1605TIP3    H126450   3.389   3.708  -0.010 -0.3293 -1.2358  1.2412
 1605TIP3    H226451   3.294   3.809   0.050  0.4061  0.5453 -0.4746
 1606TIP3   OH226452   3.119   4.285   7.719  0.1294  0.7841  0.6710
 1606TIP3    H126453   3.147   4.297   7.628  0.8122  0.8556  0.8801
 1606TIP3    H226454   3.099   4.373   7.750 -0.8255  0.6842  0.3783
 1607TIP3   OH226455   1.629   3.887   0.573  0.2108 -0.5141 -0.0773
 1607TIP3    H126456   1.569   3.906   0.645  0.3710 -0.7598  0.1199
 1607TIP3    H226457   1.573   3.888   0.495  0.2710  1.1345 -0.1271
 1608TIP3   OH226458   3.103   6.321   1.471  0.2455  0.7003 -0.6801
 1608TIP3    H126459   3.141   6.296   1.388  0.4362 -1.3026 -0.0238
 1608TIP3    H226460   3.009   6.302   1.461  0.3499 -0.0605 -0.2718
 1609TIP3   OH226461   3.240   1.440   1.569  0.4640  0.2758  0.2162
 1609TIP3    H126462   3.280   1.389   1.640  0.6407  0.5067  0.2839
 1609TIP3    H226463   3.313   1.463   1.512  0.1391 -1.0865 -0.8024
 1610TIP3   OH226464   4.060   3.094   8.468 -0.3552  0.1247  0.5309
 1610TIP3    H126465   4.059   2.999   8.479  1.6883 -0.1606 -1.0509
 1610TIP3    H226466   4.100   3.108   8.382 -0.2447  2.4219  0.8868
 1611TIP3   OH226467   6.577   4.530   6.976 -0.0145 -0.5691 -0.2483
 1611TIP3    H126468   6.614   4.524   7.063 -0.8315  0.8529  0.2350
 1611TIP3    H226469   6.574   4.440   6.945  0.5214 -1.0712  1.0813
 1612TIP3   OH226470   1.889   5.895   7.188  0.2828  0.2981 -0.1315
 1612TIP3    H126471   1.926   5.807   7.185 -0.5501 -0.0577 -0.2076
 1612TIP3    H226472   1.928   5.940   7.113 -1.0127 -0.7195 -1.4653
 1613TIP3   OH226473   6.423   2.222   0.503 -0.3455 -0.4278  0.1834
 1613TIP3    H126474   6.515   2.199   0.517  0.2598  1.4990 -0.2792
 1613TIP3    H226475   6.384   2.220   0.590  0.2408 -0.8463  0.4455
 1614TIP3   OH226476   4.917   0.564   7.201  0.5222  0.1787 -0.1398
 1614TIP3    H126477   4.861   0.627   7.156  0.2382 -0.8001 -1.2200
 1614TIP3    H226478   4.858   0.519   7.262  0.7923  1.1390  0.8635
 1615TIP3   OH226479   6.484   0.426   0.100  0.3866  0.2761  0.2263
 1615TIP3    H126480   6.429   0.440   0.177 -0.1767 -0.5969  0.0021
 1615TIP3    H226481   6.555   0.370   0.131  0.2459  0.0543  0.1512
 1616TIP3   OH226482   3.206   0.427   2.184  0.7808 -0.0365 -0.7707
 1616TIP3    H126483   3.121   0.386   2.169 -0.1595  1.2379  0.7642
 1616TIP3    H226484   3.261   0.356   2.218  0.0167 -0.6414 -0.7761
 1617TIP3   OH226485   3.738   2.714   1.294  0.2640  0.2888 -0.1621
 1617TIP3    H126486   3.778   2.655   1.357 -2.6362 -0.8845  0.7217
 1617TIP3    H226487   3.645   2.690   1.293 -0.1310  1.3819 -3.6668
 1618TIP3   OH226488   0.312   1.015   2.760 -0.4348 -0.2124  0.5589
 1618TIP3    H126489   0.229   0.981   2.792 -0.4625  1.6583  2.7793
 1618TIP3    H226490   0.315   1.105   2.792  2.0158  0.0972 -0.2865
 1619TIP3   OH226491   2.081   4.557   0.657  0.4986  0.3347 -0.5915
 1619TIP3    H126492   2.144   4.554   0.729  0.1600  0.0147 -0.3027
 1619TIP3    H226493   2.133   4.542   0.578  0.8496  0.5311 -0.4000
 1620TIP3   OH226494   2.658   4.147   8.224 -0.0019 -0.3985  0.9249
 1620TIP3    H126495   2.619   4.060   8.220 -0.3741 -0.1877 -0.7075
 1620TIP3    H226496   2.727   4.146   8.156 -0.3224  0.7026  0.5586
 1621TIP3   OH226497   2.812   3.405   1.699  0.4190 -0.5062 -0.6844
 1621TIP3    H126498   2.905   3.394   1.681  0.6618 -0.1597  0.3017
 1621TIP3    H226499   2.799   3.500   1.702  0.5410 -0.5172  1.5716
 1622TIP3   OH226500   4.327   6.414   1.259 -0.0715  0.3911 -0.3916
 1622TIP3    H126501   4.421   6.428   1.253  0.4142 -2.0242  0.6878
 1622TIP3    H226502   4.309   6.344   1.197 -1.5578  2.1358 -2.0669
 1623TIP3   OH226503   5.857   6.261   7.260  0.2946  0.1221 -0.5776
 1623TIP3    H126504   5.881   6.265   7.353  0.6921  0.2675 -0.6828
 1623TIP3    H226505   5.800   6.337   7.247 -1.5505 -1.1087  0.0356
 1624TIP3   OH226506   6.291   4.280   1.196 -0.5662 -0.0630  0.4430
 1624TIP3    H126507   6.348   4.237   1.259 -0.6235 -1.3785 -0.3643
 1624TIP3    H226508   6.323   4.370   1.192  0.3291 -0.3219  1.2882
 1625TIP3   OH226509   6.860   3.517   1.535 -0.0909 -0.5705  0.3674
 1625TIP3    H126510   6.952   3.540   1.549 -0.2494 -0.7582  1.8858
 1625TIP3    H226511   6.824   3.506   1.623 -2.0455  1.3146 -0.0992
 1626TIP3   OH226512   3.518   0.546   2.462 -0.3536  0.0491 -0.7734
 1626TIP3    H126513   3.556   0.615   2.409  1.1136 -1.7726 -2.2283
 1626TIP3    H226514   3.435   0.524   2.419  0.2255 -0.5515 -1.6082
 1627TIP3   OH226515   6.166   6.579   1.467  0.1287 -0.2713  0.3305
 1627TIP3    H126516   6.112   6.596   1.544 -0.2523  1.0116 -0.1887
 1627TIP3    H226517   6.108   6.533   1.406  0.8548 -2.6547  1.3305
 1628TIP3   OH226518   5.562   6.041   2.838  0.0495  0.3222  0.4736
 1628TIP3    H126519   5.562   6.129   2.800 -0.3652  0.3421  0.5201
 1628TIP3    H226520   5.531   6.053   2.927  0.5380  0.2026  0.6650
 1629TIP3   OH226521   3.675   3.680   1.460  0.1762 -0.0447  0.2895
 1629TIP3    H126522   3.725   3.759   1.478  0.2322  0.2015 -0.8727
 1629TIP3    H226523   3.700   3.654   1.371  0.3577 -1.5303  0.7325
 1630TIP3   OH226524   1.069   5.158   7.426  0.2292  0.0727 -0.0716
 1630TIP3    H126525   1.117   5.084   7.389  0.6873  0.2371  0.1852
 1630TIP3    H226526   0.979   5.127   7.433  0.5901 -0.8117  0.9293
 1631TIP3   OH226527   3.961   0.845   8.199 -0.2653  0.5883 -1.0620
 1631TIP3    H126528   3.961   0.866   8.293 -1.2447 -3.6317  0.0737
 1631TIP3    H226529   4.047   0.875   8.169  0.5290  1.0992  1.4239
 1632TIP3   OH226530   0.554   6.121   0.105  0.1281  0.4730  0.3703
 1632TIP3    H126531   0.632   6.163   0.142  0.6513  0.5979 -0.8180
 1632TIP3    H226532   0.585   6.034   0.079 -0.0653  0.6000 -0.3017
 1633TIP3   OH226533   4.421   6.444   7.934  0.0652 -0.1313 -0.0498
 1633TIP3    H126534   4.516   6.452   7.938  0.2224 -2.0294  1.2303
 1633TIP3    H226535   4.394   6.510   7.870  2.3312 -0.3411 -1.3300
 1634TIP3   OH226536   0.436   1.628   0.463 -0.2458 -0.2581  0.2570
 1634TIP3    H126537   0.365   1.692   0.461 -1.0569 -1.1166  0.6464
 1634TIP3    H226538   0.465   1.620   0.372 -0.4588  0.3109  0.1380
 1635TIP3   OH226539   6.304   0.864   1.417  0.0910 -0.3395  0.1211
 1635TIP3    H126540   6.318   0.815   1.498 -1.3045 -0.2994  0.4199
 1635TIP3    H226541   6.342   0.950   1.433 -1.0787  0.0088  1.1324
 1636TIP3   OH226542   3.330   4.121   2.131 -0.1144  0.2038  0.0859
 1636TIP3    H126543   3.249   4.156   2.094 -0.0573  0.2543  0.0072
 1636TIP3    H226544   3.366   4.066   2.061 -1.4248 -2.0012  1.0435
 1637TIP3   OH226545   6.239   6.091   0.553 -0.0731  0.1739  0.0473
 1637TIP3    H126546   6.221   6.031   0.626 -0.8664  0.1279 -0.1736
 1637TIP3    H226547   6.157   6.092   0.503 -0.1552  1.6376  0.1868
 1638TIP3   OH226548   3.653   2.363   1.385 -0.5416 -0.0642 -0.5098
 1638TIP3    H126549   3.607   2.411   1.453 -0.6221 -3.0324  1.7559
 1638TIP3    H226550   3.597   2.287   1.367  0.6266 -0.6071 -2.1563
 1639TIP3   OH226551   1.205   4.730   8.443  0.8120  0.2918 -0.2453
 1639TIP3    H126552   1.215   4.654   8.386 -1.0057  0.7629 -1.3022
 1639TIP3    H226553   1.154   4.697   8.518  1.2938  0.1619  0.0309
 1640TIP3   OH226554   3.840   5.910   6.685  0.6362  0.1146 -0.4409
 1640TIP3    H126555   3.811   6.000   6.670 -1.6866 -0.3396  0.8541
 1640TIP3    H226556   3.783   5.857   6.630  0.1664 -0.7296  0.8186
 1641TIP3   OH226557   0.237   0.017   0.151 -0.2264  0.3028  0.3453
 1641TIP3    H126558   0.191  -0.028   0.079 -2.8898  2.9872  0.1942
 1641TIP3    H226559   0.198  -0.020   0.230 -0.4767  0.4767  0.3022
 1642TIP3   OH226560   0.467   0.602   0.462 -0.1258  0.2215  0.0550
 1642TIP3    H126561   0.374   0.595   0.485 -0.0630  0.8137  0.5137
 1642TIP3    H226562   0.513   0.569   0.539  0.0469  0.0494 -0.1221
 1643TIP3   OH226563   4.044   6.743   7.799  0.7894  0.5560 -0.8414
 1643TIP3    H126564   3.970   6.755   7.859  1.8048  1.2206  0.3153
 1643TIP3    H226565   4.052   6.648   7.790  0.2900  0.4580 -0.3484
 1644TIP3   OH226566   3.306   6.460   6.797 -0.3505 -1.2562 -0.4294
 1644TIP3    H126567   3.332   6.506   6.876 -1.6293 -0.5589 -0.4014
 1644TIP3    H226568   3.358   6.379   6.798  0.2612 -0.8592  0.6721
 1645TIP3   OH226569   3.775   0.704   6.703 -0.1084  0.2589 -0.1878
 1645TIP3    H126570   3.840   0.634   6.690 -0.6169 -0.1228 -0.7399
 1645TIP3    H226571   3.725   0.677   6.780  0.4227  0.5830  0.2733
 1646TIP3   OH226572   2.621   5.544   7.942  0.3602  0.1818  0.6598
 1646TIP3    H126573   2.526   5.555   7.937  0.5973  2.1015 -0.3953
 1646TIP3    H226574   2.640   5.536   8.035 -0.8270 -0.2728  0.8786
 1647TIP3   OH226575   6.557   2.732   8.458 -0.4836  0.0723 -0.2994
 1647TIP3    H126576   6.590   2.820   8.478  1.0763 -0.5680  0.1202
 1647TIP3    H226577   6.569   2.683   8.539 -1.8544 -0.3996 -0.3599
 1648TIP3   OH226578   1.765   0.966   7.837 -0.3971 -0.7201  0.0535
 1648TIP3    H126579   1.803   0.991   7.921  0.1744 -0.8345 -0.1679
 1648TIP3    H226580   1.734   1.049   7.799 -0.7703 -0.6859  0.4288
 1649TIP3   OH226581   1.538   5.628   7.223  0.8885  0.3613  0.0123
 1649TIP3    H126582   1.521   5.653   7.133  0.7833  0.1777 -0.0194
 1649TIP3    H226583   1.578   5.705   7.263 -2.2767  1.7441  0.7827
 1650TIP3   OH226584   6.240   3.370   6.896  0.5161  0.0316 -0.1841
 1650TIP3    H126585   6.190   3.288   6.897  1.1621 -0.4143  2.5663
 1650TIP3    H226586   6.306   3.357   6.827 -2.0377  0.0337 -2.8014
 1651TIP3   OH226587   0.833   4.089   7.382 -0.3920  0.2474  0.5790
 1651TIP3    H126588   0.822   4.009   7.330  1.1456 -0.5609  1.3971
 1651TIP3    H226589   0.906   4.135   7.340  0.2480  0.0498  1.4357
 1652TIP3   OH226590   4.357   4.601   0.387  0.0361  0.3310 -0.0751
 1652TIP3    H126591   4.336   4.667   0.453 -3.1789  0.7805 -1.3715
 1652TIP3    H226592   4.316   4.521   0.419 -0.1206  0.1366 -0.7466
 1653TIP3   OH226593   5.930   3.714   1.779  0.0813 -0.1582  0.5249
 1653TIP3    H126594   6.024   3.705   1.795  0.1712  0.6584  0.4826
 1653TIP3    H226595   5.889   3.692   1.863  0.4163  1.3697  1.1142
 1654TIP3   OH226596   4.565   5.953   7.516  0.0300  0.2642  0.3128
 1654TIP3    H126597   4.660   5.953   7.522  0.0718 -0.0654 -0.2793
 1654TIP3    H226598   4.536   5.935   7.606  0.6292 -3.9998 -0.1200
 1655TIP3   OH226599   5.034   3.838   7.958 -0.5243  0.0652 -0.4167
 1655TIP3    H126600   5.048   3.846   8.052 -0.6497 -2.1320 -0.1793
 1655TIP3    H226601   5.021   3.745   7.942 -1.9156  0.5139 -2.4219
 1656TIP3   OH226602   5.854   1.032   7.860  1.0363 -0.0341  0.0598
 1656TIP3    H126603   5.872   0.986   7.778 -0.1749  0.1701 -0.3511
 1656TIP3    H226604   5.764   1.064   7.850  1.1188  0.6114  1.1834
 1657TIP3   OH226605   5.023   6.894   1.375 -0.4923 -0.4454  0.0271
 1657TIP3    H126606   5.104   6.844   1.368  0.0391  0.5512 -1.7781
 1657TIP3    H226607   5.010   6.907   1.469  2.9474  1.6730  0.4007
 1658TIP3   OH226608   6.507   5.123   2.499 -0.7182  0.0907 -0.1727
 1658TIP3    H126609   6.477   5.113   2.589  3.5430  0.8645  1.5423
 1658TIP3    H226610   6.549   5.040   2.477 -0.9753  0.2073 -1.1618
 1659TIP3   OH226611   6.672   2.282   1.073 -0.0857 -0.2671  0.1597
 1659TIP3    H126612   6.624   2.362   1.052 -0.3428  0.0737  1.8856
 1659TIP3    H226613   6.613   2.211   1.047 -0.5226  0.1139  0.0960
 1660TIP3   OH226614   6.692   4.005   1.589  0.4524  0.7976  0.1938
 1660TIP3    H126615   6.627   3.970   1.651 -1.2654  0.8306 -1.4902
 1660TIP3    H226616   6.776   3.985   1.629 -0.5358 -1.4112  1.3381
 1661TIP3   OH226617   4.090   3.209   1.463  0.2502  0.1614 -0.1153
 1661TIP3    H126618   4.075   3.114   1.462 -1.6130  0.4215 -0.1988
 1661TIP3    H226619   4.098   3.230   1.556 -1.4031  0.1711  0.0583
 1662TIP3   OH226620   3.659   6.681   0.537 -0.4388 -0.0893  0.4529
 1662TIP3    H126621   3.740   6.631   0.526  0.9727  1.9274  1.0475
 1662TIP3    H226622   3.641   6.717   0.450  0.4412  1.0094  0.6913
 1663TIP3   OH226623   5.809   4.638   8.273  0.0415  0.3805 -0.4303
 1663TIP3    H126624   5.759   4.659   8.353  1.9877  1.8022  0.5045
 1663TIP3    H226625   5.795   4.544   8.260 -1.5473  0.4164  0.6854
 1664TIP3   OH226626   4.284   4.067   1.679 -0.3792  0.4593  0.4225
 1664TIP3    H126627   4.217   4.113   1.628 -0.8223 -0.4547  0.1660
 1664TIP3    H226628   4.367   4.104   1.649 -0.7697  1.8443  0.9873
 1665TIP3   OH226629   2.427   4.884   1.122  0.1472 -0.0364  0.2879
 1665TIP3    H126630   2.363   4.912   1.057 -0.8760 -1.0625  0.8087
 1665TIP3    H226631   2.492   4.834   1.073 -0.7724 -1.0525  0.0754
 1666TIP3   OH226632   0.142   4.705   8.148  0.2534 -0.7062 -0.2349
 1666TIP3    H126633   0.200   4.746   8.212 -0.4184  3.0652 -1.8063
 1666TIP3    H226634   0.054   4.722   8.181 -0.0901  1.0202 -1.8684
 1667TIP3   OH226635   6.441   6.408   1.095  0.3412 -0.1565 -0.3976
 1667TIP3    H126636   6.499   6.433   1.166  0.6064  0.8941 -0.9539
 1667TIP3    H226637   6.378   6.348   1.135  2.3606 -2.1489  0.0108
 1668TIP3   OH226638   6.850   4.844   7.495 -0.0709 -0.0195  0.5492
 1668TIP3    H126639   6.811   4.928   7.518 -0.2594 -0.5251  2.2695
 1668TIP3    H226640   6.821   4.785   7.565  0.9498 -1.2463 -0.0210
 1669TIP3   OH226641   6.766   0.707   1.989  0.3045 -0.1351 -0.4215
 1669TIP3    H126642   6.702   0.772   2.019  0.4961  0.6139 -1.5482
 1669TIP3    H226643   6.828   0.700   2.061 -0.9712 -0.8038  0.6566
 1670TIP3   OH226644   5.800   3.233   0.095  0.5903  0.0644 -0.0636
 1670TIP3    H126645   5.821   3.308   0.151  2.1411 -1.6865  1.8500
 1670TIP3    H226646   5.721   3.196   0.134 -0.1235  0.6131 -0.9551
 1671TIP3   OH226647   6.068   3.686   2.526  0.2714 -0.1918  0.1475
 1671TIP3    H126648   6.045   3.596   2.501  0.3255  0.2236 -1.4545
 1671TIP3    H226649   6.139   3.674   2.590  1.2424 -1.2932 -1.0568
 1672TIP3   OH226650   4.009   5.697   0.079 -0.1726 -0.0803  0.4124
 1672TIP3    H126651   4.076   5.629   0.087 -1.4165 -1.6438 -1.3332
 1672TIP3    H226652   3.973   5.707   0.167  0.2991 -1.4302  0.7739
 1673TIP3   OH226653   5.494   4.572   8.167 -0.3593  0.0617 -0.1502
 1673TIP3    H126654   5.493   4.495   8.224 -0.2143 -0.9382 -1.4410
 1673TIP3    H226655   5.549   4.635   8.212 -3.4037  0.9092  2.7787
 1674TIP3   OH226656   4.997   3.080   8.314  0.2664  0.4815  0.3868
 1674TIP3    H126657   5.019   3.004   8.261 -0.2350  0.9043 -0.4562
 1674TIP3    H226658   4.958   3.142   8.252 -1.8897  0.3561  1.5100
 1675TIP3   OH226659   2.008   2.033   2.351 -0.2516  0.6454 -0.6854
 1675TIP3    H126660   1.990   2.121   2.317  0.1268  0.9443 -0.1232
 1675TIP3    H226661   2.078   2.046   2.415 -0.9368  0.0970  0.2067
 1676TIP3   OH226662   3.055   5.973   2.257 -0.5402 -0.3166 -0.2913
 1676TIP3    H126663   3.018   5.885   2.267  0.8807 -1.2340 -2.4257
 1676TIP3    H226664   2.985   6.032   2.286 -1.9340 -2.1113  0.1499
 1677TIP3   OH226665   4.198   2.703   7.688 -0.0716 -0.0679  0.2104
 1677TIP3    H126666   4.176   2.664   7.603  2.6140 -0.2034 -0.5050
 1677TIP3    H226667   4.176   2.796   7.679  2.5383  0.4557 -1.6304
 1678TIP3   OH226668   3.838   1.625   3.223 -0.5575 -0.2451 -0.0989
 1678TIP3    H126669   3.932   1.623   3.240 -0.7623  0.6505  1.2647
 1678TIP3    H226670   3.824   1.554   3.160  1.0433 -0.2862 -0.4661
 1679TIP3   OH226671   0.404   1.750   8.513 -0.7540 -0.0239  0.3692
 1679TIP3    H126672   0.336   1.801   8.557 -2.1491  0.6190 -2.3151
 1679TIP3    H226673   0.357   1.704   8.443  1.5246  0.4093 -1.5648
 1680TIP3   OH226674   1.025   1.419   7.204  0.4621 -0.4308  0.1779
 1680TIP3    H126675   1.043   1.343   7.149  1.3692 -0.9160  1.1067
 1680TIP3    H226676   0.933   1.441   7.186  0.5556 -0.9565 -1.0346
 1681TIP3   OH226677   3.411   5.311   0.540  0.0358  0.0693 -0.4531
 1681TIP3    H126678   3.435   5.402   0.522  1.4988 -0.6152 -2.3210
 1681TIP3    H226679   3.381   5.312   0.631  1.7722  2.1115  0.2069
 1682TIP3   OH226680   3.326   3.672   0.700  0.5061 -0.0645 -0.3709
 1682TIP3    H126681   3.297   3.755   0.738  1.3467 -0.2692  0.7577
 1682TIP3    H226682   3.266   3.607   0.736  0.2561 -0.0330 -0.7318
 1683TIP3   OH226683   0.362   1.900   1.892 -0.0725 -0.7274  0.3598
 1683TIP3    H126684   0.324   1.979   1.853 -1.8521 -1.8010 -0.1767
 1683TIP3    H226685   0.320   1.893   1.977  1.2172 -0.3182  1.0728
 1684TIP3   OH226686   1.713   0.155   7.304  0.7975  0.5346  0.1413
 1684TIP3    H126687   1.634   0.198   7.273  0.7449 -0.4311 -1.1537
 1684TIP3    H226688   1.784   0.211   7.275  0.7123 -0.0318 -1.2544
 1685TIP3   OH226689   3.942   5.432   6.786 -0.3107 -0.3770  0.0465
 1685TIP3    H126690   3.899   5.505   6.831 -1.0000 -0.7706  0.0327
 1685TIP3    H226691   3.900   5.354   6.822  0.3947 -0.7665  0.0324
 1686TIP3   OH226692   2.287   0.150   0.329 -0.0968 -0.9192 -0.0758
 1686TIP3    H126693   2.330   0.065   0.339  0.6691 -0.3824  1.4253
 1686TIP3    H226694   2.309   0.198   0.409 -1.2197  0.3910 -0.5105
 1687TIP3   OH226695   6.780   3.233   1.089 -0.0100  0.3367  0.1063
 1687TIP3    H126696   6.858   3.191   1.054 -1.0371 -0.7096 -1.0286
 1687TIP3    H226697   6.756   3.180   1.165 -1.2545 -1.1741 -1.2735
 1688TIP3   OH226698   3.790   6.218   7.215  0.1129 -1.2368 -0.2575
 1688TIP3    H126699   3.817   6.214   7.306  1.7091 -0.1359 -0.6470
 1688TIP3    H226700   3.807   6.130   7.181 -0.8064 -1.7548  0.5440
 1689TIP3   OH226701   5.228   0.086   8.206  0.3217 -0.3355  0.4308
 1689TIP3    H126702   5.177   0.008   8.227  0.9244 -0.6452  0.7773
 1689TIP3    H226703   5.214   0.099   8.112 -0.9680  0.0150  0.6599
 1690TIP3   OH226704   1.183   3.066   0.950  0.7425  0.7391  0.0529
 1690TIP3    H126705   1.133   3.138   0.913 -0.1449  0.7071  1.1466
 1690TIP3    H226706   1.120   2.994   0.956  1.4070  0.1250 -0.2773
 1691TIP3   OH226707   0.587   3.362   8.357  0.2078 -0.4281 -0.4697
 1691TIP3    H126708   0.560   3.440   8.309 -1.6662 -0.2703  0.7513
 1691TIP3    H226709   0.551   3.289   8.307  0.2426 -0.3989 -0.5372
 1692TIP3   OH226710   5.736   0.727   2.573 -0.1311  0.1439 -0.0552
 1692TIP3    H126711   5.716   0.702   2.663  2.1753 -1.0167  0.2038
 1692TIP3    H226712   5.797   0.801   2.581  1.0465 -0.7311 -0.5786
 1693TIP3   OH226713   4.001   0.969   1.683  0.7139  0.4004  0.0561
 1693TIP3    H126714   3.918   0.954   1.638  1.5931 -1.3888 -1.0589
 1693TIP3    H226715   4.068   0.948   1.618  2.0655 -3.3408  2.3380
 1694TIP3   OH226716   3.425   4.219   0.195 -0.1053  0.0309  0.0559
 1694TIP3    H126717   3.491   4.245   0.260 -0.1082  0.2286 -0.0201
 1694TIP3    H226718   3.372   4.154   0.241 -0.0806  0.1370  0.2383
 1695TIP3   OH226719   2.008   1.865   0.963  0.4497  0.3622 -0.1857
 1695TIP3    H126720   1.970   1.914   1.036 -1.0183  0.2267 -0.8234
 1695TIP3    H226721   2.052   1.791   1.003  0.2769  0.6770  0.6015
 1696TIP3   OH226722   4.671   5.945   0.019 -0.3451 -0.3606 -0.0306
 1696TIP3    H126723   4.601   5.965   0.081 -1.4194 -1.5757 -0.8112
 1696TIP3    H226724   4.689   6.029  -0.024 -1.3230 -0.0371  0.1710
 1697TIP3   OH226725   6.351   5.664   8.090  0.2381 -0.7846  0.0956
 1697TIP3    H126726   6.269   5.698   8.124 -0.6038 -1.5963 -1.0350
 1697TIP3    H226727   6.410   5.740   8.086 -0.3678 -0.2416  1.1121
 1698TIP3   OH226728   2.443   6.599   7.976 -0.4082  0.2067 -0.1950
 1698TIP3    H126729   2.418   6.512   7.945 -0.8141 -0.3500  1.5796
 1698TIP3    H226730   2.511   6.582   8.041 -0.7216  1.1785  0.4014
 1699TIP3   OH226731   1.060   1.823   8.323 -0.5397  1.0653 -0.5924
 1699TIP3    H126732   1.120   1.864   8.260 -1.3960  0.5175 -1.8073
 1699TIP3    H226733   1.088   1.732   8.325  0.2911  1.3277  0.8258
 1700TIP3   OH226734   3.322   3.198   0.132 -0.0773  0.0894 -0.5717
 1700TIP3    H126735   3.289   3.288   0.132 -1.5569 -0.4260 -0.3221
 1700TIP3    H226736   3.383   3.196   0.206 -0.2734  0.8046 -0.3732
 1701TIP3   OH226737   0.310   5.779   1.335  0.4643 -0.1329 -0.0300
 1701TIP3    H126738   0.226   5.787   1.380 -0.1752 -2.0682 -0.7615
 1701TIP3    H226739   0.287   5.745   1.248  1.9518  0.1635 -0.5625
 1702TIP3   OH226740   1.069   0.008   2.982  0.1336 -0.3377 -0.1862
 1702TIP3    H126741   0.992  -0.048   2.981  0.5362 -0.9112 -2.2281
 1702TIP3    H226742   1.034   0.097   2.995 -0.8253 -0.6364 -0.6790
 1703TIP3   OH226743   6.056   4.247   1.790 -0.1903 -0.2508  0.2429
 1703TIP3    H126744   6.040   4.158   1.821 -1.2995  0.0711  0.6416
 1703TIP3    H226745   5.993   4.259   1.718  1.2200 -0.4168 -1.0828
 1704TIP3   OH226746   5.170   1.762   1.240  0.1176  0.4419  0.4242
 1704TIP3    H126747   5.257   1.764   1.280  0.7758 -0.9257 -0.8610
 1704TIP3    H226748   5.179   1.816   1.161  0.1074 -0.5552 -0.2679
 1705TIP3   OH226749   2.401   5.261   0.849  0.4956  0.0432  1.0462
 1705TIP3    H126750   2.342   5.305   0.911 -0.9929 -0.7480  0.2517
 1705TIP3    H226751   2.395   5.313   0.769  1.7102  0.5445  1.2642
 1706TIP3   OH226752   6.544   1.332   0.738 -0.5067 -0.5068 -0.0784
 1706TIP3    H126753   6.504   1.418   0.745  0.1669 -0.2517  0.8007
 1706TIP3    H226754   6.471   1.270   0.741 -0.8741 -0.0306  0.9150
 1707TIP3   OH226755   5.063   6.228   2.159  0.1884  0.1288  0.1663
 1707TIP3    H126756   5.137   6.206   2.102 -0.2107  2.7182 -1.5169
 1707TIP3    H226757   5.096   6.214   2.247  1.3238 -2.5996 -0.5769
 1708TIP3   OH226758   6.409   6.154   8.352 -0.7925 -0.0294  0.0438
 1708TIP3    H126759   6.447   6.221   8.296 -0.9483  0.6078  0.6904
 1708TIP3    H226760   6.419   6.073   8.302  0.5183  0.2681 -0.2277
 1709TIP3   OH226761   2.750   1.807   7.770  0.4967  0.5070 -0.3376
 1709TIP3    H126762   2.741   1.817   7.675  0.6115  0.2160 -0.3808
 1709TIP3    H226763   2.666   1.770   7.798  0.3196  0.9497 -0.2698
 1710TIP3   OH226764   3.922   4.593   0.831  0.3660 -0.4447 -0.3192
 1710TIP3    H126765   3.902   4.505   0.863 -1.3520 -0.4953 -1.4098
 1710TIP3    H226766   3.880   4.651   0.894  0.8945 -0.4210  0.0127
 1711TIP3   OH226767   1.209   3.260   2.000 -0.0847 -0.2180  0.2405
 1711TIP3    H126768   1.286   3.300   1.959 -0.0103 -1.7802 -1.2559
 1711TIP3    H226769   1.242   3.221   2.081  0.8021 -1.1935 -0.5703
 1712TIP3   OH226770   3.791   3.925   1.537 -0.2565  0.1062 -0.4588
 1712TIP3    H126771   3.771   4.019   1.531 -1.5435 -0.0121  1.1599
 1712TIP3    H226772   3.886   3.921   1.541 -0.1032  1.8060  4.0254
 1713TIP3   OH226773   0.530   0.401   8.253  0.3342 -0.1462 -0.0457
 1713TIP3    H126774   0.446   0.411   8.297 -0.6372 -0.2604 -1.7911
 1713TIP3    H226775   0.594   0.401   8.324 -0.9842  1.4556  1.2222
 1714TIP3   OH226776   0.713   0.567   1.373  0.4914  0.6230 -0.4857
 1714TIP3    H126777   0.779   0.498   1.364  1.0987  1.2218 -0.7138
 1714TIP3    H226778   0.693   0.593   1.283  0.9376  1.3588 -0.3862
 1715TIP3   OH226779   4.063   1.656   7.702  0.1433 -0.3474 -0.2318
 1715TIP3    H126780   4.058   1.562   7.685 -0.1331 -0.6513  1.3721
 1715TIP3    H226781   4.058   1.697   7.616 -0.4119 -1.7741 -0.8942
 1716TIP3   OH226782   1.893   1.637   0.651 -0.1309  0.7481 -0.2215
 1716TIP3    H126783   1.984   1.646   0.679  0.3317 -0.9856 -1.0506
 1716TIP3    H226784   1.898   1.616   0.558 -1.2374 -1.1769  0.0827
 1717TIP3   OH226785   5.196   3.479   0.324 -0.2322  0.2751 -0.3529
 1717TIP3    H126786   5.223   3.570   0.311  1.0219 -0.1749 -1.0457
 1717TIP3    H226787   5.276   3.428   0.310 -0.7750 -0.8960  0.6508
 1718TIP3   OH226788   1.882   1.097   2.121  0.2907 -0.2576 -0.1561
 1718TIP3    H126789   1.898   1.189   2.146  4.6592 -1.2815  1.7458
 1718TIP3    H226790   1.823   1.103   2.046 -0.9757  3.9801  0.8843
 1719TIP3   OH226791   2.070   6.633   1.532 -0.3458  0.3248  0.2588
 1719TIP3    H126792   2.104   6.712   1.490 -2.4053  0.1287 -2.0416
 1719TIP3    H226793   1.990   6.661   1.576  1.6410  0.4694  4.1606
 1720TIP3   OH226794   3.886   0.475   8.115 -0.1482  0.0472 -0.1293
 1720TIP3    H126795   3.848   0.494   8.201  1.6004  0.4117  0.5973
 1720TIP3    H226796   3.880   0.557   8.067 -0.5855  0.0070 -0.1440
 1721TIP3   OH226797   5.440   6.875   7.883  0.0558 -0.0738  0.2036
 1721TIP3    H126798   5.404   6.960   7.858  1.3301 -0.2503 -2.6974
 1721TIP3    H226799   5.521   6.897   7.930  1.3483  0.4560 -2.0925
 1722TIP3   OH226800   5.584   1.747   0.372  0.5922 -0.1183  0.3220
 1722TIP3    H126801   5.614   1.832   0.339  0.3206  0.3299  1.2130
 1722TIP3    H226802   5.501   1.766   0.415 -0.1635 -1.0675 -0.6453
 1723TIP3   OH226803   4.556   6.260   0.347 -0.2537  0.3709  0.7131
 1723TIP3    H126804   4.491   6.190   0.344  1.4101 -1.4052  2.9232
 1723TIP3    H226805   4.571   6.281   0.255 -2.0128 -0.9919  0.0369
 1724TIP3   OH226806   1.022   0.443   1.875 -1.0711 -0.0229  0.5266
 1724TIP3    H126807   1.077   0.448   1.797 -0.3538  0.2613  1.0395
 1724TIP3    H226808   1.083   0.421   1.946 -2.0570 -2.9480  0.6179
 1725TIP3   OH226809   0.137   4.819   0.442 -0.7103 -0.3528 -0.1491
 1725TIP3    H126810   0.066   4.771   0.399 -1.4881  0.4388  0.2051
 1725TIP3    H226811   0.169   4.759   0.509 -1.7105 -0.3765  0.3258
 1726TIP3   OH226812   5.564   5.154   0.093 -0.2858  0.2220  0.4443
 1726TIP3    H126813   5.511   5.191   0.164 -0.3017 -2.7783  2.1878
 1726TIP3    H226814   5.503   5.102   0.042  0.6369 -2.5527  1.9520
 1727TIP3   OH226815   0.570   4.805   1.737 -0.2156  0.1948 -0.0232
 1727TIP3    H126816   0.534   4.782   1.822 -0.0342 -1.6607 -0.4024
 1727TIP3    H226817   0.535   4.739   1.677  3.8497 -1.9826 -0.4054
 1728TIP3   OH226818   4.743   2.119   7.106  0.1471 -0.4165 -0.2382
 1728TIP3    H126819   4.839   2.121   7.104  0.1352  0.8300 -0.9109
 1728TIP3    H226820   4.719   2.034   7.071  1.0079 -0.8816  0.2695
 1729TIP3   OH226821   3.491   3.207   0.366  0.2980 -0.2858 -0.2666
 1729TIP3    H126822   3.510   3.295   0.396 -2.1250  0.0674  0.4937
 1729TIP3    H226823   3.546   3.150   0.420  1.2085  0.6894 -0.1398
 1730TIP3   OH226824   0.474   1.199   6.983 -0.0781 -0.0274  0.1541
 1730TIP3    H126825   0.404   1.250   6.941 -2.0378 -2.5898  0.0852
 1730TIP3    H226826   0.519   1.262   7.039 -1.9009  1.9348 -0.4534
 1731TIP3   OH226827   5.781   3.075   8.038  0.4812  0.2807  0.1913
 1731TIP3    H126828   5.827   3.148   8.080  0.8857 -0.7696  1.6778
 1731TIP3    H226829   5.830   2.997   8.066  1.0144 -0.4968 -2.6165
 1732TIP3   OH226830   0.335   5.927   0.328  0.2486  0.4608 -0.4299
 1732TIP3    H126831   0.278   5.959   0.398  0.9601 -0.5867  0.6834
 1732TIP3    H226832   0.405   5.991   0.323 -1.3236  2.1583 -2.3189
 1733TIP3   OH226833   4.051   0.034   0.079 -0.5474  0.1508 -0.5447
 1733TIP3    H126834   4.028  -0.038   0.137 -1.8636  2.0297  1.4003
 1733TIP3    H226835   4.139   0.060   0.107 -0.5947  0.1382 -0.3879
 1734TIP3   OH226836   5.301   5.723   6.961 -0.0247  0.2170  0.0853
 1734TIP3    H126837   5.371   5.738   6.897  0.5145 -4.6100 -0.8348
 1734TIP3    H226838   5.332   5.766   7.041  1.8855  1.8675 -1.4371
 1735TIP3   OH226839   5.679   5.311   2.122  0.3445  0.2194  0.2786
 1735TIP3    H126840   5.720   5.385   2.078 -0.2371  1.0781  1.1333
 1735TIP3    H226841   5.751   5.270   2.171  0.9267 -0.5611 -1.1564
 1736TIP3   OH226842   1.000   6.827   2.139 -0.0343  0.0291 -0.8248
 1736TIP3    H126843   1.043   6.892   2.083 -0.6090  0.1590 -1.1229
 1736TIP3    H226844   0.953   6.770   2.078  1.2294 -1.2542 -0.6318
 1737TIP3   OH226845   1.758   5.344   0.754 -0.4512 -0.0829  0.3107
 1737TIP3    H126846   1.796   5.280   0.694  1.6295  0.4233  1.0190
 1737TIP3    H226847   1.755   5.425   0.704 -1.7673 -0.3642 -0.1193
 1738TIP3   OH226848   6.548   4.669   7.459 -0.0871  0.3191 -0.1207
 1738TIP3    H126849   6.582   4.681   7.547 -1.5057  0.3726  0.4394
 1738TIP3    H226850   6.485   4.740   7.447 -3.1112 -2.0448  0.4787
 1739TIP3   OH226851   2.256   2.463   0.679  0.5812  0.3216 -0.3407
 1739TIP3    H126852   2.276   2.541   0.627  0.8379 -0.7622 -1.9387
 1739TIP3    H226853   2.192   2.415   0.628  0.2481 -0.4265  0.7314
 1740TIP3   OH226854   4.371   6.759   8.155  0.0098  1.0404 -0.1816
 1740TIP3    H126855   4.325   6.813   8.219 -1.6364 -0.3532 -0.1230
 1740TIP3    H226856   4.373   6.671   8.194 -0.7330  0.2345 -1.8709
 1741TIP3   OH226857   2.602   0.630   1.311 -0.3560 -0.4553 -0.0744
 1741TIP3    H126858   2.630   0.663   1.226  1.7394 -0.8711  0.3940
 1741TIP3    H226859   2.683   0.607   1.356 -1.4123 -0.5227  1.9364
 1742TIP3   OH226860   3.140   4.077   6.656 -0.1422 -0.0638 -0.2156
 1742TIP3    H126861   3.236   4.078   6.659 -0.0637 -1.3579 -1.4304
 1742TIP3    H226862   3.117   3.984   6.650 -1.5159  0.1841  0.6609
 1743TIP3   OH226863   5.674   5.823   2.995 -0.0346  0.4824  0.4847
 1743TIP3    H126864   5.663   5.735   2.959 -0.2343  0.5329  0.4185
 1743TIP3    H226865   5.666   5.811   3.090  0.4159  0.3609  0.5103
 1744TIP3   OH226866   2.414   1.747   0.188  0.0346 -0.1621 -0.2533
 1744TIP3    H126867   2.412   1.699   0.271  2.2734  0.3718  0.1723
 1744TIP3    H226868   2.323   1.773   0.174 -0.7887 -2.2253  0.8358
 1745TIP3   OH226869   3.236   1.910   0.516 -0.2614 -0.8076  0.1272
 1745TIP3    H126870   3.154   1.868   0.488  0.1540 -2.3121  1.0114
 1745TIP3    H226871   3.296   1.897   0.443 -0.8353  0.5232 -0.6316
 1746TIP3   OH226872   0.452   2.786   7.670  0.1082 -0.4282 -0.0212
 1746TIP3    H126873   0.439   2.734   7.750 -0.9694 -1.5283 -0.8713
 1746TIP3    H226874   0.446   2.722   7.599  0.3109  0.6385 -1.0285
 1747TIP3   OH226875   6.191   1.703   8.110 -0.5081  0.0514  0.3410
 1747TIP3    H126876   6.110   1.734   8.071 -0.2626 -0.1546 -0.3377
 1747TIP3    H226877   6.162   1.649   8.185 -1.0285 -0.6907 -0.3767
 1748TIP3   OH226878   3.859   3.673   0.848 -0.6690 -0.0546 -0.0987
 1748TIP3    H126879   3.954   3.684   0.850 -0.9907  4.7390 -0.1202
 1748TIP3    H226880   3.837   3.673   0.755 -0.7767  1.4928 -0.1034
 1749TIP3   OH226881   5.465   6.314   1.224 -0.0122 -0.1597  0.4240
 1749TIP3    H126882   5.462   6.344   1.315  0.0569 -0.3524  0.4911
 1749TIP3    H226883   5.456   6.218   1.230  0.7875 -0.2539  0.2829
 1750TIP3   OH226884   2.007   5.100   7.620  0.5948 -0.5061  0.1359
 1750TIP3    H126885   1.947   5.092   7.546 -1.0049  1.5192  1.1250
 1750TIP3    H226886   2.091   5.122   7.579 -0.3126  0.8745 -1.1127
 1751TIP3   OH226887   5.461   4.674   0.209  0.3069 -0.6477 -0.1119
 1751TIP3    H126888   5.396   4.669   0.279 -0.2559 -1.9692 -0.6837
 1751TIP3    H226889   5.514   4.750   0.230  0.2003 -1.0519  1.7848
 1752TIP3   OH226890   1.102   4.860   7.951  0.0477 -0.1726 -0.4141
 1752TIP3    H126891   1.083   4.865   7.857  1.5348  2.0731 -0.6944
 1752TIP3    H226892   1.160   4.784   7.959  1.1712  0.5074 -1.6109
 1753TIP3   OH226893   0.851   2.363   0.164 -0.3051  0.0341 -0.5764
 1753TIP3    H126894   0.760   2.381   0.187 -0.0263  0.3238  0.3380
 1753TIP3    H226895   0.856   2.268   0.157 -0.0875 -0.2295  2.0874
 1754TIP3   OH226896   0.632   6.630   1.621 -0.4375  0.2820 -0.4523
 1754TIP3    H126897   0.594   6.583   1.696  1.3425 -0.1635  0.2220
 1754TIP3    H226898   0.568   6.619   1.551 -1.1645 -1.1337  0.3883
 1755TIP3   OH226899   3.878   5.962   7.126  0.0355 -0.5501 -0.3121
 1755TIP3    H126900   3.886   5.937   7.218  1.2432 -0.3879 -0.3589
 1755TIP3    H226901   3.939   5.904   7.080 -0.1852 -0.2901 -0.9455
 1756TIP3   OH226902   0.096   0.207   7.356 -0.1197  0.0978 -0.2922
 1756TIP3    H126903   0.128   0.129   7.400 -0.3431 -0.2860 -0.8034
 1756TIP3    H226904   0.174   0.247   7.317  0.1485  0.6890  0.8313
 1757TIP3   OH226905   2.973   4.826   6.849 -0.3066  0.6460 -0.3379
 1757TIP3    H126906   2.902   4.859   6.904  0.9831  2.2364  0.4559
 1757TIP3    H226907   3.006   4.904   6.803 -0.2368 -0.3672 -2.1009
 1758TIP3   OH226908   0.857   0.184   1.641 -0.3500 -1.1665  0.0475
 1758TIP3    H126909   0.824   0.117   1.701 -0.8381 -0.9297  0.0469
 1758TIP3    H226910   0.787   0.249   1.637  0.3124 -0.4079  0.4291
 1759TIP3   OH226911   1.367   6.493   0.734  0.7039 -0.2763 -0.1345
 1759TIP3    H126912   1.444   6.436   0.737 -0.0253 -1.2405  0.9167
 1759TIP3    H226913   1.335   6.495   0.824 -0.1061  0.6802 -0.4236
 1760TIP3   OH226914   5.429   6.340   1.487  0.9038  0.5007 -0.0744
 1760TIP3    H126915   5.375   6.404   1.534 -0.8068 -0.8517 -0.0772
 1760TIP3    H226916   5.484   6.300   1.554  0.0053  0.0941  0.4484
 1761TIP3   OH226917   1.320   0.181   2.142  0.3944 -0.0768 -0.2206
 1761TIP3    H126918   1.257   0.168   2.071  1.0666  0.7944 -0.9910
 1761TIP3    H226919   1.405   0.189   2.098  0.7330  1.1801  0.6037
 1762TIP3   OH226920   5.435   1.620   7.174  0.0315 -0.2342  0.2168
 1762TIP3    H126921   5.423   1.626   7.268 -4.1195 -1.4548 -0.0165
 1762TIP3    H226922   5.381   1.690   7.138 -1.8542 -2.2592 -1.1909
 1763TIP3   OH226923   5.429   2.491   8.093  0.0856  0.3548  0.0974
 1763TIP3    H126924   5.359   2.450   8.144  0.6269 -0.5571  0.1136
 1763TIP3    H226925   5.465   2.558   8.151  0.3350 -0.3080  0.7178
 1764TIP3   OH226926   1.297   2.905   1.164 -0.2408  0.0614  0.3835
 1764TIP3    H126927   1.260   2.938   1.083 -1.2734 -1.3650  0.2446
 1764TIP3    H226928   1.294   2.810   1.156  0.2803 -0.1095  1.8109
 1765TIP3   OH226929   1.295   6.959   2.481 -0.1967  0.5050  0.4583
 1765TIP3    H126930   1.202   6.945   2.461 -0.0494  2.5862 -2.2459
 1765TIP3    H226931   1.301   7.052   2.502  1.1805  0.2377  1.3357
 1766TIP3   OH226932   0.038   3.597   1.243  0.1823 -0.0680 -0.5710
 1766TIP3    H126933   0.010   3.530   1.305 -0.0135  0.4983 -0.0374
 1766TIP3    H226934   0.036   3.679   1.293 -3.9278  1.1493 -2.2984
 1767TIP3   OH226935   5.536   2.334   7.666  0.2693  0.1262  0.0749
 1767TIP3    H126936   5.496   2.333   7.580  1.9337  0.7924 -0.7476
 1767TIP3    H226937   5.531   2.243   7.696  0.9405 -0.4143 -1.3555
 1768TIP3   OH226938   1.387   0.708   8.493  0.2999  0.5987  0.0487
 1768TIP3    H126939   1.452   0.664   8.438  1.5342  1.7549  0.5093
 1768TIP3    H226940   1.433   0.724   8.576 -0.7549  0.9826  0.5714
 1769TIP3   OH226941   4.985   1.309   0.712  0.1351 -0.5462 -0.0538
 1769TIP3    H126942   5.024   1.382   0.759 -1.1070 -0.0694  0.2518
 1769TIP3    H226943   4.972   1.241   0.778 -1.8015  0.1986  0.3912
 1770TIP3   OH226944   1.347   0.727   1.422  0.1227  0.6388  0.1381
 1770TIP3    H126945   1.377   0.785   1.351  0.1238  0.4387 -0.0255
 1770TIP3    H226946   1.421   0.721   1.481  0.1387  0.7673  0.1317
 1771TIP3   OH226947   6.656   2.971   8.518 -0.9344 -0.0033  0.2259
 1771TIP3    H126948   6.620   3.059   8.517  1.4233  1.0386  0.2523
 1771TIP3    H226949   6.684   2.958   8.609  1.4297  0.4860 -0.3505
 1772TIP3   OH226950   3.015   6.449   0.064  0.3415 -0.1495  0.0055
 1772TIP3    H126951   2.996   6.532   0.107  0.4971  0.4794 -1.1177
 1772TIP3    H226952   3.099   6.421   0.102 -0.1962 -0.3062  1.1134
 1773TIP3   OH226953   0.184   6.924   6.865  0.1813  0.3607 -0.5396
 1773TIP3    H126954   0.152   7.009   6.895  0.9479  0.5804 -0.3165
 1773TIP3    H226955   0.236   6.890   6.938 -2.0787 -1.4298  0.3446
 1774TIP3   OH226956   2.663   2.792   2.019  0.6754  0.6373  0.2391
 1774TIP3    H126957   2.622   2.832   2.096 -1.4785 -1.9517  0.5718
 1774TIP3    H226958   2.703   2.712   2.052 -0.7601 -0.8092 -1.3515
 1775TIP3   OH226959   6.424   0.457   1.071 -0.5831  1.0179 -0.5646
 1775TIP3    H126960   6.332   0.432   1.079 -0.9475  2.1816 -0.9278
 1775TIP3    H226961   6.432   0.487   0.980  0.5356 -0.5213 -1.0154
 1776TIP3   OH226962   2.864   1.671   0.254 -0.3333 -0.3629  0.1456
 1776TIP3    H126963   2.883   1.583   0.286  1.7392  0.3626  1.1317
 1776TIP3    H226964   2.835   1.658   0.164 -0.8291 -2.0877  0.5146
 1777TIP3   OH226965   6.934   6.946   1.752  0.2825  0.2112 -0.2077
 1777TIP3    H126966   7.020   6.905   1.743 -0.0963 -1.4760  2.5435
 1777TIP3    H226967   6.949   7.038   1.730  2.3157 -0.4045 -1.6987
 1778TIP3   OH226968   3.544   3.002   2.244 -0.0138  0.0779  0.4549
 1778TIP3    H126969   3.530   3.009   2.339  0.5205 -0.3519  0.5729
 1778TIP3    H226970   3.634   2.971   2.236  0.1612  0.7285 -0.2149
 1779TIP3   OH226971   2.826   2.176   8.030 -0.1117  0.2394 -0.0644
 1779TIP3    H126972   2.859   2.144   8.114 -1.1528  0.2655  0.3658
 1779TIP3    H226973   2.750   2.230   8.052 -0.9558 -0.4861 -1.0761
 1780TIP3   OH226974   3.606   1.130   0.981 -0.0953 -0.3378  0.7732
 1780TIP3    H126975   3.568   1.214   0.956 -0.8594 -0.2129  2.2904
 1780TIP3    H226976   3.624   1.137   1.074  2.5545 -0.8519  0.4037
 1781TIP3   OH226977   0.702   0.979   3.180  0.0083  0.5233 -0.0168
 1781TIP3    H126978   0.729   1.017   3.096  2.0834 -1.4667 -0.3286
 1781TIP3    H226979   0.691   0.886   3.161 -1.3073  0.3272  1.5447
 1782TIP3   OH226980   3.285   3.672   1.128  0.0293  0.5730 -0.2780
 1782TIP3    H126981   3.252   3.610   1.063 -1.3347 -0.4945  1.3625
 1782TIP3    H226982   3.316   3.747   1.076 -0.4956 -0.4570 -2.1651
 1783TIP3   OH226983   0.875   2.791   0.254 -0.1953  0.6499 -0.0444
 1783TIP3    H126984   0.964   2.780   0.285 -0.7364 -2.3478  0.7823
 1783TIP3    H226985   0.869   2.732   0.178 -1.4973  0.6232  0.0528
 1784TIP3   OH226986   0.067   0.050   8.026 -0.4321  0.1971 -0.0362
 1784TIP3    H126987   0.017  -0.030   8.043 -0.2554 -0.4585 -2.3254
 1784TIP3    H226988   0.158   0.025   8.041 -0.4948  0.4221  0.7569
 1785TIP3   OH226989   6.408   0.082   7.682  0.4964  0.1996 -0.2913
 1785TIP3    H126990   6.423   0.071   7.588 -0.4320 -0.7126 -0.3545
 1785TIP3    H226991   6.421  -0.005   7.719 -0.8776  0.1634  0.1569
 1786TIP3   OH226992   3.451   0.983   8.202  0.1268  0.2337 -0.9752
 1786TIP3    H126993   3.389   1.055   8.211 -0.3711 -0.0373 -2.1181
 1786TIP3    H226994   3.397   0.908   8.178  0.8882 -0.0176 -1.9451
 1787TIP3   OH226995   0.847   5.667   1.956 -0.2174 -0.0412  0.2125
 1787TIP3    H126996   0.843   5.722   1.878 -3.1968 -1.3241 -0.6988
 1787TIP3    H226997   0.883   5.724   2.024 -0.5395  2.1340 -1.3386
 1788TIP3   OH226998   0.439   5.600   7.401  0.0706 -0.5883  0.3907
 1788TIP3    H126999   0.505   5.643   7.456  1.5669 -2.1111 -0.1454
 1788TIP3    H227000   0.435   5.511   7.434 -2.2068 -0.3931  0.7843
 1789TIP3   OH227001   1.228   5.826   1.855 -0.6334  0.1396  0.1530
 1789TIP3    H127002   1.192   5.860   1.937 -0.4727  1.1080 -0.1754
 1789TIP3    H227003   1.183   5.875   1.786 -0.5338 -0.4397 -0.3376
 1790TIP3   OH227004   3.392   6.452   8.009 -0.1857 -0.1845 -0.6805
 1790TIP3    H127005   3.328   6.436   8.078 -0.1779 -2.0687 -1.0810
 1790TIP3    H227006   3.340   6.457   7.928 -0.1131  1.2730 -0.6727
 1791TIP3   OH227007   0.981   1.319   7.829 -0.0626 -0.2647  0.3474
 1791TIP3    H127008   0.925   1.298   7.753 -0.0993 -1.6843  0.7289
 1791TIP3    H227009   0.940   1.272   7.902  1.5576 -1.2658  0.6567
 1792TIP3   OH227010   4.348   6.836   7.155 -0.2048 -0.1102  0.2801
 1792TIP3    H127011   4.377   6.758   7.201 -2.3066 -1.0944  0.0357
 1792TIP3    H227012   4.379   6.909   7.209  0.1055 -1.1483  1.5475
 1793TIP3   OH227013   4.100   1.763   0.725 -0.4061 -0.5900 -0.4929
 1793TIP3    H127014   4.103   1.758   0.820 -2.9940  0.9398 -0.2496
 1793TIP3    H227015   4.014   1.727   0.701 -0.6324  0.8778 -2.0570
 1794TIP3   OH227016   4.716   1.255   1.203  0.4759 -0.4526  0.0162
 1794TIP3    H127017   4.758   1.296   1.279  1.8812  1.9243 -1.8997
 1794TIP3    H227018   4.677   1.328   1.155 -2.6787 -2.1789 -0.2947
 1795TIP3   OH227019   4.111   1.559   2.448 -0.4127  0.2354 -0.8399
 1795TIP3    H127020   4.066   1.504   2.384 -0.4206 -1.0537  0.2351
 1795TIP3    H227021   4.061   1.547   2.529  0.9909 -0.0590  0.0053
 1796TIP3   OH227022   4.640   5.315   0.858 -0.2466 -0.3673  0.1930
 1796TIP3    H127023   4.601   5.284   0.940  0.2107  2.4238  1.5681
 1796TIP3    H227024   4.566   5.325   0.798 -0.6751 -1.7422  0.4554
 1797TIP3   OH227025   4.817   5.746   7.521  0.3859  0.0761 -0.5584
 1797TIP3    H127026   4.753   5.685   7.484 -0.3742  1.0398 -0.8701
 1797TIP3    H227027   4.826   5.719   7.612  1.7401 -1.8741 -1.1879
 1798TIP3   OH227028   4.731   6.163   1.659 -0.2557  0.5585  0.5394
 1798TIP3    H127029   4.733   6.252   1.695  2.4221  0.0333  1.9181
 1798TIP3    H227030   4.804   6.161   1.598 -0.6550 -0.5576  0.0783
 1799TIP3   OH227031   2.435   3.980   2.092 -0.3812  0.3230 -0.2375
 1799TIP3    H127032   2.351   4.009   2.058 -0.1248  0.8980 -0.3947
 1799TIP3    H227033   2.496   4.050   2.070  0.2021 -0.2171 -0.3855
 1800TIP3   OH227034   1.452   4.402   7.745 -0.2569 -0.3231 -0.2728
 1800TIP3    H127035   1.402   4.471   7.788  0.2736  0.0802 -0.2949
 1800TIP3    H227036   1.505   4.448   7.680  0.6360 -0.6658  0.2013
 1801TIP3   OH227037   1.397   0.065   8.091  0.5209 -0.0215 -0.3387
 1801TIP3    H127038   1.414   0.144   8.143 -0.4253  2.1884 -3.1289
 1801TIP3    H227039   1.377   0.098   8.004 -1.5590 -3.3142 -1.2741
 1802TIP3   OH227040   3.924   2.408   1.036  0.7069 -0.6911  0.0108
 1802TIP3    H127041   3.876   2.335   1.075 -0.8161  0.7803  1.0358
 1802TIP3    H227042   3.966   2.451   1.110 -1.3039  1.4928 -0.0175
 1803TIP3   OH227043   5.796   6.786   0.207 -0.3351 -0.2314 -0.2768
 1803TIP3    H127044   5.826   6.716   0.265 -2.4995 -0.8740  0.1566
 1803TIP3    H227045   5.748   6.846   0.264 -1.9391 -0.5275 -1.2426
 1804TIP3   OH227046   2.284   3.082   2.254  0.2718  0.1293  0.1516
 1804TIP3    H127047   2.201   3.045   2.222  0.1622  0.0185  0.5536
 1804TIP3    H227048   2.334   3.100   2.175  0.4188 -1.1038 -0.0580
 1805TIP3   OH227049   4.607   2.505   2.596  0.0313  0.0957  0.2804
 1805TIP3    H127050   4.659   2.554   2.533 -1.4529  0.4471 -0.7399
 1805TIP3    H227051   4.528   2.559   2.609 -1.8471 -2.0900 -1.1767
 1806TIP3   OH227052   2.427   3.656   1.622 -0.2242 -0.2407 -0.3243
 1806TIP3    H127053   2.446   3.606   1.701  0.3038 -2.5425 -1.8361
 1806TIP3    H227054   2.351   3.612   1.583  0.3539 -0.0025 -1.7868
 1807TIP3   OH227055   6.635   0.959   7.379 -0.2789  0.2152  0.1256
 1807TIP3    H127056   6.725   0.967   7.412 -0.3469 -0.0294  0.3675
 1807TIP3    H227057   6.643   0.902   7.303 -0.2313  0.1874  0.1509
 1808TIP3   OH227058   4.711   3.219   8.185 -0.3446 -0.3996  0.0137
 1808TIP3    H127059   4.806   3.223   8.176 -0.3409  2.0177  0.5363
 1808TIP3    H227060   4.696   3.156   8.255  1.0052  0.7167  1.3607
 1809TIP3   OH227061   3.493   5.193   1.019 -0.2701 -0.9920 -0.2330
 1809TIP3    H127062   3.565   5.253   1.039 -1.1757  0.7206 -1.8721
 1809TIP3    H227063   3.443   5.188   1.101 -0.2331  0.6031 -0.0863
 1810TIP3   OH227064   6.170   2.827   7.801  0.8190  0.5635  0.2897
 1810TIP3    H127065   6.216   2.910   7.789 -2.7419  2.6631 -0.5928
 1810TIP3    H227066   6.130   2.810   7.715 -1.7630  0.1940  1.4552
 1811TIP3   OH227067   5.805   5.079   0.043 -0.3675  0.9877  0.2552
 1811TIP3    H127068   5.719   5.117   0.059 -0.8437 -0.5727  1.6761
 1811TIP3    H227069   5.852   5.088   0.126 -0.9088 -2.3675  1.1024
 1812TIP3   OH227070   0.618   5.119   0.183  0.2515  0.1379 -0.5109
 1812TIP3    H127071   0.639   5.069   0.104  0.2299  1.0994 -1.1445
 1812TIP3    H227072   0.688   5.184   0.189 -1.2300  1.9124 -1.3583
 1813TIP3   OH227073   6.572   5.544   1.534  0.0857  0.2334 -0.1387
 1813TIP3    H127074   6.609   5.522   1.620  0.7671  2.4494  0.1956
 1813TIP3    H227075   6.644   5.529   1.473  0.1981  0.4498 -0.0614
 1814TIP3   OH227076   5.334   5.731   0.340 -0.3517  0.0431 -0.5963
 1814TIP3    H127077   5.252   5.683   0.352 -1.0484  0.8482 -1.8660
 1814TIP3    H227078   5.342   5.785   0.418 -0.2248 -1.1664  0.2410
 1815TIP3   OH227079   4.782   0.112   8.237 -0.0617  0.3826 -0.0543
 1815TIP3    H127080   4.724   0.163   8.180  1.6507  1.1251 -1.2162
 1815TIP3    H227081   4.850   0.173   8.263  0.9887 -0.8093  0.0917
 1816TIP3   OH227082   3.729   4.077   7.146 -0.7355 -0.0665  0.6106
 1816TIP3    H127083   3.680   4.130   7.209 -1.2177  0.3070 -0.0676
 1816TIP3    H227084   3.739   4.133   7.070 -2.3014 -1.3175 -0.5922
 1817TIP3   OH227085   3.285   2.442   2.376  0.1894  0.8757  0.2755
 1817TIP3    H127086   3.331   2.367   2.415  1.2602  1.8374  0.8967
 1817TIP3    H227087   3.257   2.495   2.450 -3.3889 -0.3917  0.0657
 1818TIP3   OH227088   2.701   6.803   6.864  0.0370 -0.0790  0.7166
 1818TIP3    H127089   2.768   6.867   6.842  0.7605 -0.6932  1.0735
 1818TIP3    H227090   2.626   6.826   6.808 -0.1683  1.7907  1.6807
 1819TIP3   OH227091   0.372   2.675   1.234 -0.2839 -0.7857  0.6047
 1819TIP3    H127092   0.291   2.636   1.203 -1.2133 -0.2280  2.2291
 1819TIP3    H227093   0.397   2.737   1.165 -2.0181  0.1003  0.7212
 1820TIP3   OH227094   6.873   6.833   2.474 -0.5631  0.7432 -0.2118
 1820TIP3    H127095   6.923   6.825   2.393 -0.6263 -2.3807 -0.0506
 1820TIP3    H227096   6.935   6.808   2.543 -1.7667 -1.3794  0.1740
 1821TIP3   OH227097   3.805   3.648   0.572  0.3029  0.5145 -0.3602
 1821TIP3    H127098   3.783   3.738   0.547 -0.2399  0.2005 -1.0765
 1821TIP3    H227099   3.720   3.603   0.573  0.7661 -0.5211 -2.2902
 1822TIP3   OH227100   0.853   5.870   1.777  0.2941 -0.4353  0.4503
 1822TIP3    H127101   0.937   5.898   1.741  0.3997  0.4664  1.3217
 1822TIP3    H227102   0.801   5.844   1.701 -0.0540  2.8414 -0.6153
 1823TIP3   OH227103   5.451   3.918   6.643 -0.2870  0.4355 -0.0285
 1823TIP3    H127104   5.506   3.868   6.703  0.1851  1.7822  0.7211
 1823TIP3    H227105   5.362   3.887   6.659  0.0458 -0.4693  0.0816
 1824TIP3   OH227106   5.289   0.966   7.342 -0.7168  0.6712  0.2878
 1824TIP3    H127107   5.346   0.890   7.326 -0.8708  0.6887 -0.4059
 1824TIP3    H227108   5.220   0.958   7.276 -0.0470  2.0810 -0.6533
 1825TIP3   OH227109   6.552   5.195   7.486 -0.0769 -0.1502  0.1166
 1825TIP3    H127110   6.512   5.115   7.519 -0.4036  0.3221  0.8919
 1825TIP3    H227111   6.646   5.177   7.486 -0.2209 -1.0130 -1.0358
 1826TIP3   OH227112   5.727   2.111   2.213  0.3062 -0.1022  0.1538
 1826TIP3    H127113   5.723   2.199   2.251  1.3784 -0.3534  0.8878
 1826TIP3    H227114   5.794   2.065   2.265  0.0876 -1.2087 -0.5105
 1827TIP3   OH227115   4.884   2.047   8.105  0.1988 -0.1337  0.0005
 1827TIP3    H127116   4.872   1.956   8.131  1.6589 -0.2441  0.3992
 1827TIP3    H227117   4.952   2.080   8.165 -0.7258  1.3893  0.2533
 1828TIP3   OH227118   5.155   6.869   2.645  0.3879 -0.5919 -0.3619
 1828TIP3    H127119   5.065   6.877   2.612  0.8259 -0.7428 -1.6325
 1828TIP3    H227120   5.167   6.776   2.660  0.0241 -0.4742  0.7493
 1829TIP3   OH227121   4.817   4.834   2.343  0.7102 -0.2641  0.2928
 1829TIP3    H127122   4.840   4.764   2.404 -0.4067  1.4807  2.8980
 1829TIP3    H227123   4.885   4.900   2.356  1.2046 -0.4099 -1.3993
 1830TIP3   OH227124   4.195   6.493   3.450  0.0308  0.8651  0.3327
 1830TIP3    H127125   4.175   6.559   3.384  0.2910  0.3325 -0.2865
 1830TIP3    H227126   4.114   6.442   3.459  0.8998 -1.0654 -1.9133
 1831TIP3   OH227127   0.951   2.099   0.437 -0.7344  0.0019  0.1294
 1831TIP3    H127128   0.900   2.036   0.488  0.0857 -1.7362 -1.0840
 1831TIP3    H227129   0.923   2.085   0.347  0.4083  0.4506 -0.3091
 1832TIP3   OH227130   6.930   5.890   0.330  0.0096 -0.4081  0.0488
 1832TIP3    H127131   6.982   5.812   0.310  1.2464  0.1081  1.0212
 1832TIP3    H227132   6.990   5.944   0.382 -1.1161  0.7948  0.1267
 1833TIP3   OH227133   6.225   3.700   7.147  0.2537 -0.4916 -0.1975
 1833TIP3    H127134   6.250   3.623   7.199  0.8665 -0.5303 -0.5348
 1833TIP3    H227135   6.135   3.683   7.120  0.4609 -1.2076 -0.4646
 1834TIP3   OH227136   3.296   1.191   2.047  0.3509 -0.3254  0.1763
 1834TIP3    H127137   3.344   1.183   2.129  1.3967  0.2268 -0.3646
 1834TIP3    H227138   3.204   1.191   2.073  0.6562 -0.4759  1.3133
 1835TIP3   OH227139   5.833   4.026   0.879 -0.4284  0.0331  0.6510
 1835TIP3    H127140   5.839   4.115   0.846 -0.1236 -0.0139  0.5833
 1835TIP3    H227141   5.923   3.996   0.888 -0.4463  0.3872  2.4536
 1836TIP3   OH227142   4.357   1.369   8.219 -0.3655 -0.1362  0.0299
 1836TIP3    H127143   4.416   1.294   8.214 -1.8337 -1.2707 -3.2288
 1836TIP3    H227144   4.285   1.339   8.275 -0.3086 -0.6803 -0.1804
 1837TIP3   OH227145   6.844   0.940   8.284 -0.1139  0.1769 -0.3504
 1837TIP3    H127146   6.773   0.906   8.229 -0.4669 -0.3509  0.4230
 1837TIP3    H227147   6.919   0.947   8.225 -0.4240 -0.5998 -0.8492
 1838TIP3   OH227148   1.995   2.727   7.569  0.1837  0.6457 -0.2172
 1838TIP3    H127149   2.061   2.662   7.544 -0.9289 -0.8166  0.4838
 1838TIP3    H227150   2.004   2.735   7.664 -2.0963 -1.3635  0.2794
 1839TIP3   OH227151   1.885   6.295   7.026 -0.2104 -0.3122 -0.2267
 1839TIP3    H127152   1.905   6.202   7.016 -1.1405 -0.7103  1.3040
 1839TIP3    H227153   1.877   6.328   6.936 -0.2003 -1.7802 -0.7856
 1840TIP3   OH227154   6.945   2.125   2.022 -0.1685 -0.7576  0.4030
 1840TIP3    H127155   6.959   2.220   2.025 -1.3349 -0.4870 -1.3569
 1840TIP3    H227156   6.959   2.096   2.112 -2.6260  1.5192  1.6747
 1841TIP3   OH227157   4.031   5.612   8.014 -0.0386 -0.4291 -0.3001
 1841TIP3    H127158   3.994   5.563   8.087 -1.4411 -0.2816 -0.8753
 1841TIP3    H227159   4.002   5.565   7.936  0.2820  0.1810 -0.7988
 1842TIP3   OH227160   1.930   2.621   0.953  0.2441  0.5683  0.5611
 1842TIP3    H127161   1.887   2.543   0.990  0.9485 -0.2311 -0.2571
 1842TIP3    H227162   1.945   2.678   1.029  0.7305 -0.5778  1.3623
 1843TIP3   OH227163   5.241   0.794   2.931 -0.5286  0.0334  0.1819
 1843TIP3    H127164   5.222   0.703   2.910 -0.3071 -0.0467  0.3202
 1843TIP3    H227165   5.265   0.792   3.024  1.6964 -0.1290 -0.3399
 1844TIP3   OH227166   6.307   2.166   1.107 -0.2631 -0.2049 -0.3211
 1844TIP3    H127167   6.297   2.261   1.105  1.4638 -0.0132 -1.4521
 1844TIP3    H227168   6.384   2.148   1.053 -0.0714 -2.1892  0.5140
 1845TIP3   OH227169   3.254   0.781   1.387 -0.1130 -0.0180 -0.3452
 1845TIP3    H127170   3.167   0.761   1.353  0.2557  1.3830 -2.2575
 1845TIP3    H227171   3.298   0.829   1.316  0.8159  2.8485  1.9602
 1846TIP3   OH227172   3.554   2.158   7.738 -0.0622 -0.1885  0.2052
 1846TIP3    H127173   3.458   2.157   7.736 -0.1102  0.5654  1.2630
 1846TIP3    H227174   3.578   2.249   7.722  0.4562 -0.2603  0.5389
 1847TIP3   OH227175   3.973   2.041   1.051 -0.3459  0.2346  0.0155
 1847TIP3    H127176   3.936   2.028   1.139  0.3157  2.1180  0.6233
 1847TIP3    H227177   3.912   1.997   0.992 -0.0139 -2.4417  1.5020
 1848TIP3   OH227178   4.092   0.067   6.433  0.0181 -0.2758 -0.1967
 1848TIP3    H127179   4.053   0.026   6.510  0.6120 -0.2613  0.1153
 1848TIP3    H227180   4.124  -0.007   6.381  0.3273 -0.2489 -0.0455
 1849TIP3   OH227181   6.914   5.161   2.329  0.0045 -0.7303 -0.4037
 1849TIP3    H127182   6.853   5.107   2.278  2.2104 -3.1254 -0.7045
 1849TIP3    H227183   6.998   5.150   2.285  1.1492  0.6033  1.3171
 1850TIP3   OH227184   1.529   1.786   7.612 -0.1217  0.8360 -0.2191
 1850TIP3    H127185   1.553   1.879   7.617 -0.8635  1.0311  0.0173
 1850TIP3    H227186   1.553   1.759   7.524 -0.0061  1.2892 -0.3285
 1851TIP3   OH227187   6.836   3.173   6.764  0.1184  0.2651  0.4142
 1851TIP3    H127188   6.812   3.207   6.678  1.3540  0.4537  0.1269
 1851TIP3    H227189   6.930   3.189   6.772  0.1168 -0.1496  1.6197
 1852TIP3   OH227190   1.950   2.554   2.400 -0.1427  0.2800  0.3271
 1852TIP3    H127191   1.960   2.505   2.482 -3.0452 -2.1225 -0.5776
 1852TIP3    H227192   1.890   2.625   2.422  1.1818  1.3189  0.7868
 1853TIP3   OH227193   3.300   6.804   1.753  0.0360 -0.5266  0.3543
 1853TIP3    H127194   3.296   6.708   1.751 -0.0154 -0.5169 -0.0013
 1853TIP3    H227195   3.212   6.832   1.728  0.8489 -0.3688 -2.7352
 1854TIP3   OH227196   1.376   3.841   8.465 -0.2979 -0.5613  0.2026
 1854TIP3    H127197   1.335   3.755   8.464 -0.6189 -0.4125 -0.3517
 1854TIP3    H227198   1.320   3.895   8.408 -0.1051  0.0125  0.5415
 1855TIP3   OH227199   4.976   4.398   1.966 -0.1762 -0.2012  0.1044
 1855TIP3    H127200   4.963   4.492   1.982 -0.3629  0.0124 -1.2079
 1855TIP3    H227201   4.951   4.356   2.048 -3.6963  0.6386 -0.3579
 1856TIP3   OH227202   1.194   1.155   1.842 -0.3131  0.0225 -0.2611
 1856TIP3    H127203   1.129   1.090   1.866  0.0073 -1.4080 -2.8645
 1856TIP3    H227204   1.149   1.212   1.780  0.3815  0.1891 -0.6198
 1857TIP3   OH227205   3.557   4.893   1.072  0.3447 -0.1799  0.3439
 1857TIP3    H127206   3.518   4.980   1.059  2.1008  1.1183  2.9748
 1857TIP3    H227207   3.485   4.839   1.104 -0.5005  0.6342 -0.1228
 1858TIP3   OH227208   5.163   3.244   2.488 -0.1016  0.0707  0.1081
 1858TIP3    H127209   5.250   3.274   2.516 -0.1991  1.3473 -0.8704
 1858TIP3    H227210   5.106   3.263   2.563  0.0647  1.3326 -0.0573
 1859TIP3   OH227211   6.493   3.487   2.741  0.2453  0.2987  0.4136
 1859TIP3    H127212   6.491   3.411   2.800  4.1211  0.1255  0.6045
 1859TIP3    H227213   6.562   3.543   2.777  0.8164  1.5522 -2.4111
 1860TIP3   OH227214   5.181   0.303   2.232  0.1820  0.2168  0.2847
 1860TIP3    H127215   5.166   0.209   2.241  1.0330  0.0790  0.3923
 1860TIP3    H227216   5.094   0.340   2.216 -0.0691 -0.6700 -0.5335
 1861TIP3   OH227217   3.616   2.774   0.955  0.1482 -0.3942  0.4341
 1861TIP3    H127218   3.571   2.784   1.039  0.9534 -1.7421  1.0600
 1861TIP3    H227219   3.627   2.679   0.945  1.4071 -0.1782 -0.4658
 1862TIP3   OH227220   0.736   3.801   7.975  0.2349  0.1557  0.3863
 1862TIP3    H127221   0.665   3.753   7.932 -0.2309 -0.1882  1.4954
 1862TIP3    H227222   0.736   3.887   7.933  0.6882 -0.5921 -1.2142
 1863TIP3   OH227223   5.007   6.439   1.976  0.4328 -0.0851  0.3438
 1863TIP3    H127224   5.005   6.496   2.052 -2.1697  0.3179  0.0767
 1863TIP3    H227225   5.047   6.358   2.008  0.8462  0.6242  1.7054
 1864TIP3   OH227226   1.719   5.850   0.322  0.4273 -0.0974  0.7191
 1864TIP3    H127227   1.808   5.821   0.339  0.9319  0.7344 -0.3897
 1864TIP3    H227228   1.705   5.833   0.229 -0.4921  0.0045  0.8282
 1865TIP3   OH227229   3.610   4.486   1.453 -0.4191 -0.6547  0.4323
 1865TIP3    H127230   3.660   4.565   1.431  0.0318 -0.7435  1.1147
 1865TIP3    H227231   3.541   4.517   1.512 -1.5068 -0.4505 -0.8813
 1866TIP3   OH227232   4.888   4.087   0.450  0.1683  0.3097  0.3824
 1866TIP3    H127233   4.826   4.018   0.476  0.1890  0.3623  0.5773
 1866TIP3    H227234   4.842   4.137   0.383  0.2220 -0.0057  0.1103
 1867TIP3   OH227235   3.486   3.094   1.556 -0.2548 -0.2678 -0.7900
 1867TIP3    H127236   3.437   3.019   1.589 -1.2074 -0.2513 -2.0993
 1867TIP3    H227237   3.506   3.146   1.634 -2.3319 -0.2611 -0.1945
 1868TIP3   OH227238   2.644   0.065   1.789  0.3948  0.3132  0.1265
 1868TIP3    H127239   2.589  -0.006   1.754  0.4173  0.9090 -1.1775
 1868TIP3    H227240   2.683   0.105   1.711 -0.9227  2.8329  0.6563
 1869TIP3   OH227241   0.904   5.627   1.361 -0.0922 -0.4713  0.0826
 1869TIP3    H127242   0.866   5.573   1.291 -0.8385 -0.1732  0.2437
 1869TIP3    H227243   0.995   5.600   1.365 -0.5286 -2.0155  0.4166
 1870TIP3   OH227244   4.307   3.574   8.211  0.3062  0.5075  0.3996
 1870TIP3    H127245   4.307   3.523   8.292 -0.5328  0.8570  0.6254
 1870TIP3    H227246   4.219   3.562   8.175 -0.3025  2.6815  1.0363
 1871TIP3   OH227247   0.863   0.361   2.467 -0.0741 -0.1872  0.3923
 1871TIP3    H127248   0.900   0.275   2.490 -0.0778 -1.0869 -2.5447
 1871TIP3    H227249   0.771   0.355   2.493 -0.4765 -1.7553 -1.1726
 1872TIP3   OH227250   6.270   1.434   0.961  0.1209  0.3752  0.2386
 1872TIP3    H127251   6.323   1.476   0.893 -0.5727  1.2401  0.2048
 1872TIP3    H227252   6.271   1.341   0.940 -0.2863  0.6585 -1.1112
 1873TIP3   OH227253   6.162   3.350   6.534  0.1565 -0.2467 -0.0783
 1873TIP3    H127254   6.207   3.430   6.509  0.0046 -0.4528 -1.0389
 1873TIP3    H227255   6.224   3.280   6.514 -0.0594 -0.4321 -0.1122
 1874TIP3   OH227256   2.059   2.415   8.480 -0.0033  0.0223  0.5530
 1874TIP3    H127257   1.968   2.436   8.460  0.1667 -0.0040 -0.2587
 1874TIP3    H227258   2.103   2.410   8.395  0.7180 -0.1522  0.9219
 1875TIP3   OH227259   6.325   6.361   0.272  0.4765 -0.1011  0.3659
 1875TIP3    H127260   6.279   6.346   0.355  0.7066 -0.9088  0.3569
 1875TIP3    H227261   6.386   6.287   0.265  0.4273 -0.0640 -0.5398
 1876TIP3   OH227262   5.817   3.901   1.994 -0.4226 -0.1246  0.1614
 1876TIP3    H127263   5.911   3.918   2.006 -0.3640  0.9085 -1.4657
 1876TIP3    H227264   5.780   3.914   2.081  0.6382  1.7358  0.4021
 1877TIP3   OH227265   0.542   2.306   7.631  0.2087  0.0572  0.5851
 1877TIP3    H127266   0.485   2.255   7.574 -0.5553  0.6346  0.8086
 1877TIP3    H227267   0.497   2.307   7.716  1.7900 -1.6097  1.5087
 1878TIP3   OH227268   6.582   3.691   1.512 -0.8773  0.4419  0.2888
 1878TIP3    H127269   6.653   3.736   1.465 -1.6318  0.1417 -1.1860
 1878TIP3    H227270   6.502   3.732   1.478 -1.4526  0.0835  1.1975
 1879TIP3   OH227271   4.353   1.505   7.944  0.2138  0.0892  0.5400
 1879TIP3    H127272   4.334   1.418   7.978  1.3615  0.4208  2.2054
 1879TIP3    H227273   4.349   1.562   8.021  1.0669  1.2315 -0.2150
 1880TIP3   OH227274   0.219   6.802   2.879 -0.2807  0.4685  0.0996
 1880TIP3    H127275   0.164   6.876   2.855  1.5908  1.7428 -0.5022
 1880TIP3    H227276   0.299   6.814   2.827  1.0326 -0.6545  1.7671
 1881TIP3   OH227277   2.529   2.886   8.350  0.4649 -0.0215 -0.5329
 1881TIP3    H127278   2.520   2.980   8.364  1.7174  0.1643 -0.8677
 1881TIP3    H227279   2.481   2.869   8.269 -0.1401  0.2422 -0.2394
 1882TIP3   OH227280   2.304   1.744   0.457 -0.6747 -0.1988  0.2560
 1882TIP3    H127281   2.255   1.666   0.431 -1.8903  0.6016  0.0905
 1882TIP3    H227282   2.242   1.816   0.446  0.3510  0.7650  0.6497
 1883TIP3   OH227283   2.718   1.754   8.110  0.2728 -0.1606 -0.5793
 1883TIP3    H127284   2.794   1.702   8.083  1.4249  1.3340 -0.3463
 1883TIP3    H227285   2.729   1.838   8.064 -1.4331 -0.0337 -0.8083
 1884TIP3   OH227286   2.478   3.327   1.648  0.3926 -0.0570 -0.0711
 1884TIP3    H127287   2.386   3.338   1.622  1.0799 -0.8264 -3.2653
 1884TIP3    H227288   2.493   3.399   1.710 -1.6064  1.9519 -1.7130
 1885TIP3   OH227289   3.787   6.071   1.040  0.3842 -0.0385 -0.4971
 1885TIP3    H127290   3.861   6.105   1.090  0.1198 -0.3562  0.1215
 1885TIP3    H227291   3.726   6.145   1.037  0.8164  0.2949 -1.2020
 1886TIP3   OH227292   4.477   3.629   7.886  0.0411  0.0326  0.0865
 1886TIP3    H127293   4.535   3.559   7.917  0.2853  0.2226  0.0626
 1886TIP3    H227294   4.449   3.674   7.965 -0.4915 -0.3787  0.1405
 1887TIP3   OH227295   3.667   1.330   0.255  0.1761  0.5589  0.0560
 1887TIP3    H127296   3.631   1.324   0.343  1.4425  0.4518  0.5801
 1887TIP3    H227297   3.761   1.328   0.267  0.3790  1.4040 -1.2487
 1888TIP3   OH227298   4.447   1.566   0.902 -0.4112  0.1833  0.4504
 1888TIP3    H127299   4.534   1.527   0.908  0.0912  1.1632 -0.1558
 1888TIP3    H227300   4.392   1.510   0.955  0.2734 -1.3405 -0.3837
 1889TIP3   OH227301   3.039   1.164   2.006  0.4056  0.3544 -0.1720
 1889TIP3    H127302   3.068   1.129   1.922  0.4715  1.2385 -0.5367
 1889TIP3    H227303   2.954   1.204   1.988 -0.6316 -1.3558  0.6744
 1890TIP3   OH227304   1.747   3.609   0.742  0.5270 -0.6018  0.6318
 1890TIP3    H127305   1.680   3.610   0.810  2.1305 -0.5856  2.2873
 1890TIP3    H227306   1.763   3.701   0.722 -0.6173 -0.6210 -0.5253
 1891TIP3   OH227307   5.888   6.328   1.535  0.2080  0.8780 -0.3282
 1891TIP3    H127308   5.833   6.271   1.481  0.0005  0.1941  0.5863
 1891TIP3    H227309   5.964   6.274   1.558 -0.8606  0.2782  2.0805
 1892TIP3   OH227310   6.463   1.413   0.478  0.2395 -0.1280 -0.5256
 1892TIP3    H127311   6.517   1.432   0.554 -0.9775  0.6834  0.1676
 1892TIP3    H227312   6.433   1.498   0.447 -0.7326 -0.5517 -0.8070
 1893TIP3   OH227313   5.692   0.317   8.336 -0.1693  0.0070  0.1777
 1893TIP3    H127314   5.615   0.265   8.312  0.1402 -1.1013  1.4552
 1893TIP3    H227315   5.693   0.315   8.432  1.6409 -0.3401  0.1885
 1894TIP3   OH227316   5.396   0.710   2.701  0.1114  0.8603 -0.0062
 1894TIP3    H127317   5.355   0.768   2.765 -0.0348  0.1994  0.5121
 1894TIP3    H227318   5.441   0.643   2.754 -0.4778 -0.0137 -0.5742
 1895TIP3   OH227319   6.025   6.735   1.929 -0.0665 -0.2366 -0.6644
 1895TIP3    H127320   5.994   6.697   2.012  0.6306  0.9306  0.1564
 1895TIP3    H227321   6.040   6.659   1.872 -1.6194 -0.9954 -0.1141
 1896TIP3   OH227322   3.903   3.052   1.766  0.3638 -0.1213 -0.4260
 1896TIP3    H127323   3.862   3.129   1.804 -1.5610 -0.4782 -1.6219
 1896TIP3    H227324   3.993   3.079   1.747 -0.2880  1.8647 -0.9112
 1897TIP3   OH227325   3.041   6.120   0.001 -0.6068  0.2474  0.2654
 1897TIP3    H127326   3.091   6.200  -0.012 -2.1852  1.1493 -0.5920
 1897TIP3    H227327   3.006   6.099  -0.086 -0.5702 -1.1486  0.5536
 1898TIP3   OH227328   4.139   0.699   2.129  0.3284 -0.2585  0.0227
 1898TIP3    H127329   4.107   0.692   2.039 -0.9228  0.6620  0.3795
 1898TIP3    H227330   4.173   0.611   2.148 -0.1465 -0.6984 -1.0561
 1899TIP3   OH227331   5.941   6.283   2.970 -0.6502  0.3272 -0.1127
 1899TIP3    H127332   6.028   6.263   3.003 -0.1205  3.3998  0.6651
 1899TIP3    H227333   5.890   6.203   2.987  1.9514 -1.5981 -0.6992
 1900TIP3   OH227334   0.525   1.402   7.703  0.5201 -0.3524  0.9122
 1900TIP3    H127335   0.461   1.435   7.640  1.5095 -0.3390 -0.1377
 1900TIP3    H227336   0.507   1.308   7.709  0.3857 -0.3471  0.6199
 1901TIP3   OH227337   0.947   0.232   7.085 -1.0355 -0.5609  0.3168
 1901TIP3    H127338   0.928   0.263   6.997  0.2523 -0.0226  0.2108
 1901TIP3    H227339   1.013   0.293   7.119 -0.8424 -1.2908  1.3151
 1902TIP3   OH227340   0.973   4.614   1.774 -0.2616 -0.0836  0.3442
 1902TIP3    H127341   0.960   4.573   1.860 -0.2966 -0.9836 -0.0747
 1902TIP3    H227342   1.045   4.564   1.735 -0.0412  0.5213 -0.0285
 1903TIP3   OH227343   2.779   5.468   8.243 -0.1926 -0.2804  0.2740
 1903TIP3    H127344   2.693   5.425   8.234 -0.0438 -1.4056  3.1205
 1903TIP3    H227345   2.783   5.494   8.335  0.6001  4.2034 -0.7775
 1904TIP3   OH227346   3.861   4.287   7.064  0.8971  0.0900 -0.3331
 1904TIP3    H127347   3.909   4.275   6.982 -2.8957 -0.8036 -2.6668
 1904TIP3    H227348   3.820   4.374   7.055 -0.8788 -0.6929 -0.2241
 1905TIP3   OH227349   0.760   2.215   7.119  0.3729  0.2155  0.5868
 1905TIP3    H127350   0.668   2.190   7.118  0.8692 -1.7631  0.3388
 1905TIP3    H227351   0.790   2.199   7.030  1.6624 -2.2197  1.3728
 1906TIP3   OH227352   0.879   4.979   0.440  0.4927 -0.0867  0.3933
 1906TIP3    H127353   0.849   5.043   0.505  0.8825 -0.5964  1.0873
 1906TIP3    H227354   0.798   4.943   0.403  0.2402 -0.5573  1.3647
 1907TIP3   OH227355   6.308   3.787   7.929 -0.2043  0.2797  0.0145
 1907TIP3    H127356   6.265   3.804   7.846 -1.3346 -0.5802  0.3917
 1907TIP3    H227357   6.398   3.817   7.917 -0.0350 -0.8464 -1.8921
 1908TIP3   OH227358   6.158   4.093   2.377 -0.2006 -0.2562 -0.0361
 1908TIP3    H127359   6.093   4.145   2.328 -2.3850 -0.1843  2.6738
 1908TIP3    H227360   6.209   4.158   2.425  1.1951 -0.3889 -1.2561
 1909TIP3   OH227361   4.586   0.254   8.073 -0.3216 -0.2662 -0.6812
 1909TIP3    H127362   4.588   0.337   8.025 -1.7353  0.1696 -0.0559
 1909TIP3    H227363   4.521   0.201   8.026 -1.3042 -0.0429  0.3738
 1910TIP3   OH227364   1.983   1.857   1.494  0.1705 -0.0452  0.0715
 1910TIP3    H127365   1.900   1.883   1.453  0.1578  0.2539  0.2841
 1910TIP3    H227366   2.018   1.789   1.436 -0.6702 -0.8273  0.4643
 1911TIP3   OH227367   1.044   0.699   8.322 -0.3691  0.3747  0.0083
 1911TIP3    H127368   1.009   0.771   8.374 -1.9518 -1.4613  1.6762
 1911TIP3    H227369   0.982   0.689   8.250 -0.8353 -0.0468  0.4566
 1912TIP3   OH227370   6.878   3.477   6.928  0.0101 -0.1264 -0.0963
 1912TIP3    H127371   6.891   3.413   6.998  0.0945 -0.3778 -0.3398
 1912TIP3    H227372   6.822   3.432   6.864  0.2902 -0.0582 -0.3934
 1913TIP3   OH227373   3.292   2.972   0.436  0.1961 -0.6692 -0.8428
 1913TIP3    H127374   3.370   3.027   0.427 -1.7233  2.3046 -0.9212
 1913TIP3    H227375   3.307   2.920   0.515  2.2649 -0.2983 -0.9414
 1914TIP3   OH227376   4.007   4.579   0.383  0.2538 -0.1062 -0.0406
 1914TIP3    H127377   4.044   4.494   0.407 -0.4657 -0.1951  0.8074
 1914TIP3    H227378   4.076   4.621   0.331  0.8785 -0.9349  0.0951
 1915TIP3   OH227379   6.383   4.206   0.886  0.7348  0.4481 -0.0719
 1915TIP3    H127380   6.300   4.205   0.935  1.6551  0.4279  1.5604
 1915TIP3    H227381   6.424   4.123   0.908  2.1554  1.3661  0.9151
 1916TIP3   OH227382   1.377   1.559   1.805  0.0072 -0.3395 -0.5505
 1916TIP3    H127383   1.386   1.521   1.718 -1.3346 -0.0814 -0.8288
 1916TIP3    H227384   1.395   1.487   1.865 -1.2244 -1.1172 -1.0632
 1917TIP3   OH227385   2.536   3.545   1.846  0.4712  0.4856  0.2292
 1917TIP3    H127386   2.632   3.541   1.850  0.6390  0.7107 -2.0449
 1917TIP3    H227387   2.512   3.608   1.914  1.9761  0.7680  0.5414
 1918TIP3   OH227388   0.237   1.197   1.213 -0.2964  0.0848 -0.0661
 1918TIP3    H127389   0.167   1.224   1.272 -0.3266  0.2598 -0.1826
 1918TIP3    H227390   0.314   1.246   1.243 -0.5634  1.0078 -0.8540
 1919TIP3   OH227391   5.983   0.975   8.484 -0.0529  0.0972 -0.3350
 1919TIP3    H127392   5.983   0.908   8.415 -0.6122 -0.0975 -0.1473
 1919TIP3    H227393   6.072   0.974   8.518 -0.3066 -1.2336  0.3241
 1920TIP3   OH227394   3.351   4.484   1.665 -0.5174 -0.7670 -0.2608
 1920TIP3    H127395   3.423   4.464   1.725 -0.6150 -0.4658 -0.0425
 1920TIP3    H227396   3.277   4.506   1.723 -0.5006 -0.0882 -0.4980
 1921TIP3   OH227397   0.564   1.265   3.433  0.1538 -0.2559  0.1924
 1921TIP3    H127398   0.502   1.321   3.386 -1.3353 -1.2502  0.8857
 1921TIP3    H227399   0.541   1.176   3.405  0.0959 -0.7738  1.7789
 1922TIP3   OH227400   4.103   0.616   2.387 -0.0423  0.4042 -0.2351
 1922TIP3    H127401   4.024   0.589   2.434  0.1950  1.2684  0.7058
 1922TIP3    H227402   4.070   0.648   2.303 -0.4507 -1.3785 -0.7992
 1923TIP3   OH227403   1.468   2.152   0.586 -0.0428  0.1084  0.2664
 1923TIP3    H127404   1.518   2.070   0.580  1.7898  1.0943  1.1022
 1923TIP3    H227405   1.503   2.206   0.515  0.2983  0.9112  1.0320
 1924TIP3   OH227406   3.711   3.019   7.633 -0.0679  0.1031 -0.1130
 1924TIP3    H127407   3.685   2.990   7.720 -0.4586 -0.8050 -0.5183
 1924TIP3    H227408   3.642   2.986   7.575  1.0583 -0.8102 -0.9824
 1925TIP3   OH227409   4.196   5.978   0.600  0.0441  0.6262 -0.6262
 1925TIP3    H127410   4.173   5.885   0.605 -0.6919  0.7827 -0.9792
 1925TIP3    H227411   4.260   5.982   0.529  0.7994  0.2596  0.0201
 1926TIP3   OH227412   1.043   1.674   0.499  0.2506  0.8478 -0.6953
 1926TIP3    H127413   1.083   1.715   0.422  0.8299 -0.0234 -0.8826
 1926TIP3    H227414   0.952   1.704   0.498  0.1372  0.5292 -1.9544
 1927TIP3   OH227415   0.512   4.019   1.882  0.1599  0.5534  0.3528
 1927TIP3    H127416   0.523   4.079   1.956  2.5142  1.2883 -0.5040
 1927TIP3    H227417   0.432   4.049   1.838 -1.4689 -0.0930  2.6727
 1928TIP3   OH227418   2.507   3.377   2.524  0.0668 -0.1327 -0.1288
 1928TIP3    H127419   2.514   3.354   2.617  0.9400 -1.5433 -0.5107
 1928TIP3    H227420   2.425   3.338   2.495  0.1442 -0.3042 -0.1156
 1929TIP3   OH227421   2.847   6.138   2.302 -0.0753 -0.1570 -0.1143
 1929TIP3    H127422   2.767   6.172   2.261 -0.6719 -1.8565 -0.4110
 1929TIP3    H227423   2.818   6.062   2.352  1.1669 -0.0193  0.8644
 1930TIP3   OH227424   5.907   3.547   8.014  0.5000  0.5366 -0.7066
 1930TIP3    H127425   5.820   3.532   8.050  0.8786 -0.7507 -0.3031
 1930TIP3    H227426   5.956   3.468   8.034  1.2085  0.4449 -2.6045
 1931TIP3   OH227427   2.244   3.458   0.914 -0.1973  0.2370  0.0773
 1931TIP3    H127428   2.300   3.535   0.909  1.6093 -0.8003  2.1482
 1931TIP3    H227429   2.155   3.491   0.904  0.6652  2.1496 -2.0032
 1932TIP3   OH227430   2.369   6.164   2.066 -0.6410  0.1454  0.4828
 1932TIP3    H127431   2.379   6.236   2.129 -0.0673  0.3988  0.1103
 1932TIP3    H227432   2.422   6.093   2.102 -2.1354 -0.5366  1.4661
 1933TIP3   OH227433   1.733   5.972   6.899 -0.0035  0.4176  0.2468
 1933TIP3    H127434   1.677   6.011   6.966 -0.2566  3.1536 -1.4273
 1933TIP3    H227435   1.822   5.999   6.923  0.0410  0.4193  0.0780
 1934TIP3   OH227436   5.768   4.836   1.721  0.2253  0.0357 -0.4158
 1934TIP3    H127437   5.784   4.817   1.628  0.3258 -0.5008 -0.2923
 1934TIP3    H227438   5.795   4.928   1.731  3.1833 -0.7246 -0.2706
 1935TIP3   OH227439   1.741   4.521   1.395 -0.1880  0.5231 -0.3330
 1935TIP3    H127440   1.731   4.450   1.459  1.1899  2.5183  2.3131
 1935TIP3    H227441   1.655   4.563   1.392 -0.1165  0.7966  0.7974
 1936TIP3   OH227442   0.196   4.320   7.640  0.0919  0.7664  0.0507
 1936TIP3    H127443   0.288   4.341   7.654 -0.0944  0.5485  1.7964
 1936TIP3    H227444   0.187   4.230   7.673 -0.5392  0.4067 -1.0561
 1937TIP3   OH227445   4.649   3.388   7.986  0.1185  0.8958 -0.2322
 1937TIP3    H127446   4.733   3.352   7.959  1.0022  1.5300  1.5486
 1937TIP3    H227447   4.618   3.330   8.055 -0.4063  1.2683 -0.1405
 1938TIP3   OH227448   4.464   0.935   1.595  0.2096 -0.2712 -0.1387
 1938TIP3    H127449   4.507   1.015   1.565  0.2606 -0.5389 -0.7903
 1938TIP3    H227450   4.396   0.965   1.655 -0.4855  0.3283 -1.2151
 1939TIP3   OH227451   0.060   2.796   2.511  0.5241 -0.2107 -0.3224
 1939TIP3    H127452   0.143   2.784   2.465  0.6323 -0.2254 -0.1216
 1939TIP3    H227453   0.039   2.889   2.498  0.5672 -0.2086 -0.3787
 1940TIP3   OH227454   1.342   0.231   1.779  0.2861  0.1960  0.0087
 1940TIP3    H127455   1.388   0.230   1.863  0.4384  1.3016 -0.0428
 1940TIP3    H227456   1.384   0.302   1.730 -0.1291 -0.1172 -0.8149
 1941TIP3   OH227457   3.195   2.662   1.737 -0.0964 -0.1545 -0.0320
 1941TIP3    H127458   3.105   2.654   1.767 -0.1072  0.0128 -0.0164
 1941TIP3    H227459   3.244   2.598   1.788  0.0538  0.7656  1.0256
 1942TIP3   OH227460   6.743   1.185   0.303 -1.1750 -0.7610  0.2536
 1942TIP3    H127461   6.667   1.233   0.270 -0.9845  0.6471  1.7502
 1942TIP3    H227462   6.814   1.211   0.244 -1.0916  0.7998  1.0027
 1943TIP3   OH227463   6.249   4.126   0.515 -0.1674 -0.3886 -0.3859
 1943TIP3    H127464   6.323   4.066   0.509  0.0979  0.0125 -1.2638
 1943TIP3    H227465   6.239   4.144   0.609  0.7624 -0.5451 -0.2566
 1944TIP3   OH227466   3.769   3.267   1.877 -0.0393 -0.4161  0.0124
 1944TIP3    H127467   3.763   3.274   1.973 -1.3697 -0.1538 -0.0728
 1944TIP3    H227468   3.792   3.356   1.848 -0.7193 -0.2367  0.0181
 1945TIP3   OH227469   2.170   2.531   0.181  0.6327 -0.6695 -0.4176
 1945TIP3    H127470   2.143   2.511   0.091 -0.3436  1.6845 -0.7012
 1945TIP3    H227471   2.098   2.581   0.218  1.3483 -0.9263  1.4557
 1946TIP3   OH227472   4.824   6.791   0.107  0.5854 -0.2433 -0.2582
 1946TIP3    H127473   4.857   6.715   0.059 -2.5131 -3.2428  1.8890
 1946TIP3    H227474   4.889   6.807   0.175  1.1641 -1.1605 -0.5762
 1947TIP3   OH227475   1.572   5.357   1.778 -0.3712  0.1133  0.0409
 1947TIP3    H127476   1.618   5.275   1.757 -0.9882 -0.2487  0.0559
 1947TIP3    H227477   1.641   5.419   1.800  0.3614  0.4333 -2.6801
 1948TIP3   OH227478   0.048   5.327   1.981  0.0992  0.0544 -0.4983
 1948TIP3    H127479   0.138   5.332   2.014  0.4435  1.3685 -1.5284
 1948TIP3    H227480   0.037   5.236   1.956  1.1361 -0.1392 -0.2976
 1949TIP3   OH227481   3.304   3.617   6.627 -0.3082  0.2654  0.0520
 1949TIP3    H127482   3.267   3.534   6.598  0.1962 -0.0535  0.3075
 1949TIP3    H227483   3.324   3.603   6.719 -0.3216  0.7107  0.1246
 1950TIP3   OH227484   6.592   5.051   1.312  0.1325 -0.5020 -0.5289
 1950TIP3    H127485   6.633   4.998   1.243 -1.2450 -0.8000 -1.1481
 1950TIP3    H227486   6.561   5.129   1.267  2.8395  1.3242  0.5141
 1951TIP3   OH227487   1.287   5.252   7.176  0.7427 -0.0779  0.0547
 1951TIP3    H127488   1.229   5.308   7.227  1.1551 -0.0455  0.4882
 1951TIP3    H227489   1.352   5.221   7.238  0.1132 -1.6269 -0.0185
 1952TIP3   OH227490   5.495   4.805   0.504 -0.1363 -0.0667  0.3447
 1952TIP3    H127491   5.584   4.794   0.472  0.0418 -0.6350  0.9877
 1952TIP3    H227492   5.496   4.887   0.553 -0.0901  0.1731 -0.0626
 1953TIP3   OH227493   1.606   6.219   2.471  0.1057 -0.1390  0.1583
 1953TIP3    H127494   1.655   6.268   2.537  1.1713 -0.4223 -0.4121
 1953TIP3    H227495   1.516   6.219   2.504  0.3244  1.1041  0.7931
 1954TIP3   OH227496   1.257   1.943   0.657  0.1208  0.1191  0.4531
 1954TIP3    H127497   1.271   1.905   0.571  1.2482 -0.4378  0.8738
 1954TIP3    H227498   1.322   2.013   0.664  1.2249 -0.9517  1.4944
 1955TIP3   OH227499   2.840   0.894   1.919  0.0021  0.5005  0.1554
 1955TIP3    H127500   2.819   0.832   1.850  0.2204  0.0895  0.4477
 1955TIP3    H227501   2.860   0.975   1.873  1.4309 -0.1093 -0.3761
 1956TIP3   OH227502   2.569   2.141   7.283 -0.0372 -0.1060 -0.2148
 1956TIP3    H127503   2.521   2.105   7.208 -0.5093  0.2091 -0.0726
 1956TIP3    H227504   2.546   2.084   7.356 -1.4552  0.9306  0.1964
 1957TIP3   OH227505   1.745   6.405   0.850 -0.0052  0.1256 -0.0527
 1957TIP3    H127506   1.687   6.361   0.788 -0.9940 -0.0114  0.9512
 1957TIP3    H227507   1.779   6.334   0.906  2.8700 -0.1440 -1.9215
 1958TIP3   OH227508   5.924   4.430   1.018 -0.3003  0.7873 -0.8382
 1958TIP3    H127509   5.849   4.471   1.061 -0.5374 -0.2281 -0.2458
 1958TIP3    H227510   5.924   4.466   0.929 -1.8324  0.3784 -1.0255
 1959TIP3   OH227511   0.245   3.925   7.980  0.0906 -0.1764 -0.0481
 1959TIP3    H127512   0.279   3.895   7.896  1.7157  0.0333  0.4950
 1959TIP3    H227513   0.269   4.018   7.983  0.7156 -0.3485  0.9325
 1960TIP3   OH227514   6.712   0.615   6.834 -0.0055 -0.4564  0.4723
 1960TIP3    H127515   6.724   0.598   6.928  1.1624  0.2869  0.4654
 1960TIP3    H227516   6.789   0.665   6.808 -1.0684  0.7186 -0.5522
 1961TIP3   OH227517   0.185   5.712   7.439  0.1039 -0.4668 -0.0133
 1961TIP3    H127518   0.235   5.671   7.368 -0.4572  1.8498 -1.8579
 1961TIP3    H227519   0.252   5.758   7.491  0.4852 -1.9744  0.9073
 1962TIP3   OH227520   0.463   0.175   1.599 -0.2098  0.6205 -0.4239
 1962TIP3    H127521   0.488   0.124   1.523 -0.3484  0.5189 -0.4016
 1962TIP3    H227522   0.440   0.110   1.666  1.2565  0.6780  0.1794
 1963TIP3   OH227523   6.028   2.429   0.076  0.0354 -0.3986 -0.0665
 1963TIP3    H127524   6.070   2.359   0.125  2.2531  0.5251 -0.5383
 1963TIP3    H227525   5.966   2.468   0.139  1.0279 -0.8137  1.2242
 1964TIP3   OH227526   0.939   0.409   8.200 -0.8259 -0.2221  0.0063
 1964TIP3    H127527   1.028   0.384   8.226 -0.2876  1.6794  0.1721
 1964TIP3    H227528   0.883   0.378   8.272 -0.3179 -1.4806 -0.1248
 1965TIP3   OH227529   5.204   0.582   7.864  0.0557  0.0911 -0.5754
 1965TIP3    H127530   5.255   0.503   7.849 -0.1015  0.3522 -2.7989
 1965TIP3    H227531   5.194   0.621   7.777 -2.1907  1.1204  0.0800
 1966TIP3   OH227532   5.929   5.032   6.550  0.4947  0.5052 -0.2192
 1966TIP3    H127533   5.840   5.056   6.572  0.7100  0.3886  0.8324
 1966TIP3    H227534   5.984   5.086   6.607  1.0414 -0.6249  0.3767
 1967TIP3   OH227535   4.361   6.240   6.496  0.6001  0.2515  0.2079
 1967TIP3    H127536   4.371   6.147   6.516 -1.4554  0.1018  0.7218
 1967TIP3    H227537   4.268   6.257   6.508  1.1720  2.7540  1.7239
 1968TIP3   OH227538   4.079   3.607   1.287  0.1882 -0.1786  0.1857
 1968TIP3    H127539   4.165   3.571   1.266  0.3852 -0.1179  0.8821
 1968TIP3    H227540   4.031   3.533   1.325  0.1242 -0.0614  0.3319
 1969TIP3   OH227541   1.725   3.508   1.176 -0.1881  0.1021  0.4194
 1969TIP3    H127542   1.712   3.568   1.249 -0.6320 -0.0131  0.4385
 1969TIP3    H227543   1.675   3.430   1.200 -0.9033  0.3204 -0.3141
 1970TIP3   OH227544   0.321   0.355   1.995 -0.0102  0.3343 -0.3837
 1970TIP3    H127545   0.318   0.352   1.900 -1.1250 -1.5020 -0.3352
 1970TIP3    H227546   0.401   0.307   2.018  0.6712  1.4334 -0.3814
 1971TIP3   OH227547   2.795   2.969   8.400 -0.3062 -0.6759 -0.4127
 1971TIP3    H127548   2.789   2.922   8.483 -0.0463 -0.6389 -0.3710
 1971TIP3    H227549   2.714   2.948   8.354 -0.2311 -1.0923 -0.3588
 1972TIP3   OH227550   0.275   3.295   2.712  0.5279  0.4874  0.8066
 1972TIP3    H127551   0.231   3.350   2.648  0.2326 -2.9285 -2.2477
 1972TIP3    H227552   0.204   3.249   2.757  0.8034 -0.4289  0.3313
 1973TIP3   OH227553   5.154   0.247   1.761  0.3449 -0.2390 -0.0887
 1973TIP3    H127554   5.107   0.297   1.694 -0.1494 -0.8339 -0.1875
 1973TIP3    H227555   5.176   0.312   1.828 -2.7074 -0.3086  1.1529
 1974TIP3   OH227556   3.075   6.035   1.470  0.6811 -0.9694 -0.1313
 1974TIP3    H127557   3.115   6.106   1.520 -0.9377 -0.4583  0.5070
 1974TIP3    H227558   3.070   5.962   1.533  0.6383 -1.0530 -0.2306
 1975TIP3   OH227559   2.440   3.915   7.279  0.1392  0.1190  0.0661
 1975TIP3    H127560   2.439   3.972   7.203 -0.9003  0.1061  0.0579
 1975TIP3    H227561   2.415   3.971   7.352 -1.3482 -0.4009 -0.0154
 1976TIP3   OH227562   3.248   0.558   2.431 -0.2851 -0.1690  0.5028
 1976TIP3    H127563   3.229   0.498   2.359  0.6315 -1.7547  1.5352
 1976TIP3    H227564   3.245   0.645   2.390  0.5806 -1.0298 -1.5459
 1977TIP3   OH227565   6.900   4.592   0.977 -0.0911 -0.8510 -0.0820
 1977TIP3    H127566   6.930   4.672   0.933  0.3869 -0.8733  0.2006
 1977TIP3    H227567   6.808   4.610   0.999  0.0109 -0.3830 -0.0231
 1978TIP3   OH227568   4.075   6.480   0.466 -0.2741 -0.2073 -0.1835
 1978TIP3    H127569   4.132   6.549   0.499  0.0819  0.0851 -1.3616
 1978TIP3    H227570   4.091   6.479   0.372 -0.1407 -2.0028 -0.1774
 1979TIP3   OH227571   1.525   1.440   0.098  0.5446  0.1427 -0.5922
 1979TIP3    H127572   1.573   1.368   0.058 -1.4522 -0.8699 -1.3193
 1979TIP3    H227573   1.487   1.489   0.025 -0.1788  0.4329 -0.0455
 1980TIP3   OH227574   3.909   5.308   0.704  0.0771 -0.1207 -0.3176
 1980TIP3    H127575   3.900   5.391   0.657 -1.9153  0.1255  0.4109
 1980TIP3    H227576   4.002   5.304   0.729  0.3119  1.6351 -0.8017
 1981TIP3   OH227577   0.441   3.556   0.088 -0.5430  0.2098 -0.3465
 1981TIP3    H127578   0.380   3.577   0.159 -0.0721 -0.1184  0.1584
 1981TIP3    H227579   0.394   3.582   0.008 -1.3741 -0.0952  0.0294
 1982TIP3   OH227580   3.804   6.387   6.928 -0.0140  0.7589  0.2969
 1982TIP3    H127581   3.742   6.345   6.870  0.9162  1.1873 -1.0486
 1982TIP3    H227582   3.776   6.362   7.016 -0.6765 -0.9756 -0.3808
 1983TIP3   OH227583   5.893   2.784   8.447 -0.7107 -0.1490 -0.3445
 1983TIP3    H127584   5.846   2.802   8.529  0.2478 -1.8161  0.6234
 1983TIP3    H227585   5.851   2.704   8.413 -2.1896  1.3841 -2.4038
 1984TIP3   OH227586   6.680   1.201   1.973  0.1336 -0.0987  0.4791
 1984TIP3    H127587   6.643   1.289   1.983 -0.1032  0.1120 -1.7199
 1984TIP3    H227588   6.768   1.208   2.010 -0.1949  0.8032  1.1260
 1985TIP3   OH227589   3.386   2.848   3.348 -0.1560 -0.5725 -0.3126
 1985TIP3    H127590   3.356   2.897   3.271 -2.2404  1.0214  1.3900
 1985TIP3    H227591   3.320   2.779   3.359 -0.7818  0.1919  0.9107
 1986TIP3   OH227592   6.532   1.063   7.621  0.1126 -0.2969 -0.3597
 1986TIP3    H127593   6.556   1.151   7.594 -3.8518  1.2516  0.3830
 1986TIP3    H227594   6.539   1.010   7.541  4.0051  0.1653 -0.4865
 1987TIP3   OH227595   2.448   6.366   0.810  0.1061 -0.6035  0.1559
 1987TIP3    H127596   2.399   6.337   0.886  0.3069 -2.2993 -0.3134
 1987TIP3    H227597   2.532   6.320   0.817 -0.0137 -1.0826 -1.2575
 1988TIP3   OH227598   5.444   5.238   7.631  0.5220 -0.1781  0.2393
 1988TIP3    H127599   5.488   5.279   7.557  0.6473  1.0169  0.9530
 1988TIP3    H227600   5.512   5.230   7.698  0.1343 -0.1867  0.6325
 1989TIP3   OH227601   0.361   4.951   7.384 -0.3072  0.1098 -0.0964
 1989TIP3    H127602   0.320   5.024   7.430 -1.7525 -0.7768  0.0723
 1989TIP3    H227603   0.288   4.893   7.360  0.4479  0.1406 -2.8296
 1990TIP3   OH227604   4.137   4.267   1.520  0.6002  0.5643  0.4201
 1990TIP3    H127605   4.066   4.328   1.540  1.0393  0.9501  0.8467
 1990TIP3    H227606   4.190   4.313   1.455  0.2593  0.1237 -0.1773
 1991TIP3   OH227607   1.716   6.281   8.323 -0.0297 -0.0839  0.6765
 1991TIP3    H127608   1.795   6.332   8.303  0.8623 -1.7620 -0.4199
 1991TIP3    H227609   1.698   6.300   8.415  1.8494  0.1362  1.0509
 1992TIP3   OH227610   0.693   0.883   1.117 -0.4553 -0.4041 -0.0975
 1992TIP3    H127611   0.677   0.788   1.118 -0.3504 -0.4207  0.0617
 1992TIP3    H227612   0.720   0.902   1.027 -1.1111 -0.4180 -0.2969
 1993TIP3   OH227613   5.315   0.474   0.816  0.4717  0.5484 -0.4823
 1993TIP3    H127614   5.256   0.405   0.848 -0.3866  0.3924 -2.2907
 1993TIP3    H227615   5.301   0.547   0.876  0.1986 -0.2950  0.5090
 1994TIP3   OH227616   0.093   2.329   1.750  0.0814 -0.4620  0.5091
 1994TIP3    H127617   0.010   2.319   1.705  1.1097 -0.5806 -1.5005
 1994TIP3    H227618   0.104   2.424   1.759  0.4014 -0.3596 -0.6779
 1995TIP3   OH227619   6.128   1.586   1.395  0.2304 -0.1201 -0.2285
 1995TIP3    H127620   6.223   1.577   1.387  0.4940  1.2287  1.0031
 1995TIP3    H227621   6.094   1.550   1.313  1.7008 -1.8117 -0.1752
 1996TIP3   OH227622   0.172   6.070   1.336  0.1917  0.0371 -0.1972
 1996TIP3    H127623   0.160   6.089   1.429  3.5563  0.3174  0.3107
 1996TIP3    H227624   0.163   5.975   1.330 -1.5300  0.1524  0.0802
 1997TIP3   OH227625   5.170   5.951   8.216 -0.1127  0.6150  0.2855
 1997TIP3    H127626   5.168   5.989   8.303  1.1748 -0.4179  0.7975
 1997TIP3    H227627   5.261   5.960   8.187 -0.3793  0.3768 -0.6924
 1998TIP3   OH227628   0.556   3.650   1.569  0.2171 -0.3705  0.0124
 1998TIP3    H127629   0.612   3.600   1.630  0.6694 -1.2428 -1.0809
 1998TIP3    H227630   0.531   3.586   1.503  0.1649  0.6892 -1.0103
 1999TIP3   OH227631   2.775   5.492   1.794 -0.0663  0.3752 -0.5431
 1999TIP3    H127632   2.699   5.525   1.841 -0.2037  0.2715 -0.6934
 1999TIP3    H227633   2.751   5.403   1.768  0.1546  0.2949 -0.4770
 2000TIP3   OH227634   1.518   4.157   7.411  0.1912  0.0422  0.2198
 2000TIP3    H127635   1.473   4.242   7.405 -0.2900 -0.2819 -0.8965
 2000TIP3    H227636   1.447   4.094   7.427  0.4406 -0.2700  0.0893
 2001TIP3   OH227637   2.307   0.944   1.558 -0.3596 -0.3596 -0.2549
 2001TIP3    H127638   2.288   1.008   1.490 -1.9831 -0.4275  0.0709
 2001TIP3    H227639   2.241   0.876   1.545 -1.3450  0.0855  1.9342
 2002TIP3   OH227640   1.396   6.141   1.674  0.2574  0.0667  0.2224
 2002TIP3    H127641   1.363   6.200   1.607 -2.4941  0.3446  1.6906
 2002TIP3    H227642   1.339   6.064   1.668  2.0963 -1.3691  0.1132
 2003TIP3   OH227643   2.183   6.833   0.057  0.1037 -0.1901  0.3790
 2003TIP3    H127644   2.088   6.842   0.070 -0.1675 -0.9826 -0.9224
 2003TIP3    H227645   2.211   6.776   0.129 -0.1103  1.3423  1.7296
 2004TIP3   OH227646   5.169   4.118   0.332 -0.3699  0.3030  0.8959
 2004TIP3    H127647   5.074   4.119   0.339 -0.4754 -0.9031  0.0840
 2004TIP3    H227648   5.197   4.205   0.359 -1.8440  1.2727 -0.5058
 2005TIP3   OH227649   1.649   2.798   0.879 -0.2122 -0.2936  0.2264
 2005TIP3    H127650   1.680   2.726   0.933  1.4267 -0.0861 -0.3583
 2005TIP3    H227651   1.558   2.776   0.858  0.1253 -1.9855  0.3828
 2006TIP3   OH227652   0.195   1.478   0.981 -0.0633 -0.2868  0.1427
 2006TIP3    H127653   0.283   1.503   1.010  0.1014 -2.0639  1.3247
 2006TIP3    H227654   0.210   1.416   0.910 -0.4090  0.2177 -0.3870
 2007TIP3   OH227655   0.557   5.663   0.957 -0.5914 -0.2062 -0.1284
 2007TIP3    H127656   0.464   5.665   0.979 -1.0466  3.0562 -1.7522
 2007TIP3    H227657   0.562   5.617   0.873 -0.4205 -1.9653  0.7937
 2008TIP3   OH227658   4.326   0.585   7.885 -0.0076 -0.4287 -0.2162
 2008TIP3    H127659   4.264   0.579   7.958  0.4250 -0.2712  0.1715
 2008TIP3    H227660   4.411   0.566   7.925  0.7301  2.7963 -0.0003
 2009TIP3   OH227661   4.998   2.757   7.105  0.7935  0.0083  0.7690
 2009TIP3    H127662   4.921   2.735   7.052  0.9551 -0.6603  0.8096
 2009TIP3    H227663   4.990   2.702   7.183  2.4221 -1.6813 -0.1878
 2010TIP3   OH227664   3.189   2.271   2.788 -0.2562 -1.2661  0.0895
 2010TIP3    H127665   3.177   2.355   2.833 -1.7472 -0.7001 -1.2925
 2010TIP3    H227666   3.282   2.269   2.767 -0.2269  0.1513 -0.0397
 2011TIP3   OH227667   2.222   1.919   6.685 -0.0230 -0.4029 -0.5765
 2011TIP3    H127668   2.219   1.874   6.770  0.5380 -0.3052 -0.4968
 2011TIP3    H227669   2.154   1.986   6.691 -0.0156 -0.4224 -0.2179
 2012TIP3   OH227670   1.404   0.068   0.855 -0.3269  0.2946  0.7863
 2012TIP3    H127671   1.324   0.040   0.811 -0.2395 -0.4529  1.0738
 2012TIP3    H227672   1.474   0.051   0.791 -0.3011  0.0852  0.8690
 2013TIP3   OH227673   4.155   0.629   8.116  0.2938 -0.5462  0.4054
 2013TIP3    H127674   4.126   0.691   8.183  0.4980  1.9493 -1.6682
 2013TIP3    H227675   4.080   0.571   8.103 -0.5496  0.3363  1.2221
 2014TIP3   OH227676   0.168   0.511   6.985  0.1064  0.8141  0.5059
 2014TIP3    H127677   0.248   0.515   7.037 -0.7847  0.3590  1.9625
 2014TIP3    H227678   0.159   0.419   6.961  0.0131  0.8633  0.3507
 2015TIP3   OH227679   3.936   3.379   0.010 -0.4530 -0.4726  0.3627
 2015TIP3    H127680   4.028   3.389   0.032 -0.3994 -0.6888  0.2369
 2015TIP3    H227681   3.894   3.350   0.092 -0.1096 -2.1419 -0.0175
 2016TIP3   OH227682   4.194   0.292   1.745  0.0877 -0.0747  0.4007
 2016TIP3    H127683   4.254   0.266   1.675 -0.2909  0.1491 -0.0137
 2016TIP3    H227684   4.225   0.378   1.773 -1.1160  0.8953 -1.0892
 2017TIP3   OH227685   2.518   2.870   7.474  0.5068  0.0958 -0.2918
 2017TIP3    H127686   2.552   2.786   7.506  1.6671  1.4465  2.3730
 2017TIP3    H227687   2.427   2.873   7.504  1.1036  0.6379  1.6079
 2018TIP3   OH227688   4.607   6.390   1.241 -0.0555  0.1229 -0.7892
 2018TIP3    H127689   4.673   6.354   1.181  2.9681  0.0799  2.2774
 2018TIP3    H227690   4.615   6.338   1.320 -2.8307  1.1198  0.2733
 2019TIP3   OH227691   0.098   5.026   2.145 -0.3436  0.1348  0.0463
 2019TIP3    H127692   0.183   5.004   2.182  0.2704 -0.4934 -1.6635
 2019TIP3    H227693   0.054   4.941   2.134 -0.2719  0.2353 -1.1641
 2020TIP3   OH227694   2.935   3.045   7.587  0.4415  0.4628  0.7365
 2020TIP3    H127695   3.027   3.072   7.581  0.3369  0.4850 -1.7388
 2020TIP3    H227696   2.939   2.950   7.598  0.7487  0.4834  0.8281
 2021TIP3   OH227697   0.302   0.758   7.223 -0.0232 -0.0975 -0.1680
 2021TIP3    H127698   0.342   0.800   7.147  0.5396  1.9234  1.1604
 2021TIP3    H227699   0.373   0.709   7.264 -0.1994 -0.7530 -0.6310
 2022TIP3   OH227700   5.061   3.551   8.282 -0.7639 -0.1698 -0.7992
 2022TIP3    H127701   4.979   3.562   8.234 -0.2369 -1.0315 -1.9437
 2022TIP3    H227702   5.129   3.556   8.215 -0.0848 -3.2396 -0.4932
 2023TIP3   OH227703   5.866   4.284   0.601 -0.1467  0.2682  0.0313
 2023TIP3    H127704   5.772   4.268   0.588  0.1355  0.1179 -2.2839
 2023TIP3    H227705   5.889   4.347   0.532  1.2044  1.4171  1.4349
 2024TIP3   OH227706   5.327   1.445   1.971  0.4622 -0.7460  0.2636
 2024TIP3    H127707   5.383   1.516   2.003  0.8617 -0.7411 -0.4338
 2024TIP3    H227708   5.315   1.388   2.047 -0.0068  0.1567  0.8830
 2025TIP3   OH227709   5.587   5.190   1.366 -0.8477 -0.3743 -0.3550
 2025TIP3    H127710   5.526   5.125   1.401 -0.2599 -1.0907 -0.6388
 2025TIP3    H227711   5.674   5.151   1.377  0.0644  2.2643  3.7746
 2026TIP3   OH227712   0.353   6.657   2.316  0.0961 -0.2410  0.1068
 2026TIP3    H127713   0.340   6.711   2.394 -1.3256  0.8319 -0.8073
 2026TIP3    H227714   0.424   6.700   2.269  0.0394 -0.0800  0.1636
 2027TIP3   OH227715   5.678   1.479   2.487  0.0492 -0.1646  0.2024
 2027TIP3    H127716   5.761   1.513   2.521  0.2886 -0.4085 -0.1358
 2027TIP3    H227717   5.697   1.457   2.396 -0.2982 -0.5402  0.2209
 2028TIP3   OH227718   3.386   0.758   1.111 -0.1421  0.5238  0.3630
 2028TIP3    H127719   3.423   0.770   1.024  3.8177 -1.4118  1.5510
 2028TIP3    H227720   3.419   0.833   1.162 -0.6262  0.4875  0.7490
 2029TIP3   OH227721   1.553   4.008   8.100  0.2449 -0.2000 -0.2401
 2029TIP3    H127722   1.568   4.011   8.006 -0.1614 -0.3505 -0.3100
 2029TIP3    H227723   1.458   4.009   8.110  0.2325 -1.8459  0.1045
 2030TIP3   OH227724   0.577   0.157   0.883  0.2472  0.0168  0.0869
 2030TIP3    H127725   0.492   0.115   0.893  0.4568 -0.2325  0.8482
 2030TIP3    H227726   0.633   0.090   0.843 -0.2594  0.6143 -1.6973
 2031TIP3   OH227727   0.225   5.004   0.045 -0.6448  0.1834  0.1504
 2031TIP3    H127728   0.134   5.016   0.072 -1.1472 -0.7734 -1.0285
 2031TIP3    H227729   0.265   4.957   0.118 -1.3080 -0.1017  0.3422
 2032TIP3   OH227730   0.323   0.467   8.444  0.3113  0.4105  0.0767
 2032TIP3    H127731   0.339   0.477   8.538  0.1717 -0.2485  0.1763
 2032TIP3    H227732   0.241   0.515   8.428  0.0639  0.0968  0.3908
 2033TIP3   OH227733   0.422   6.504   0.238 -1.0602 -0.3890  0.2922
 2033TIP3    H127734   0.382   6.520   0.153  0.2495  0.8392 -0.1396
 2033TIP3    H227735   0.447   6.590   0.270 -0.2757 -0.9493  1.2823
 2034TIP3   OH227736   2.159   1.286   0.141 -0.0735 -0.5488 -0.2500
 2034TIP3    H127737   2.139   1.231   0.065  0.9668  0.0349 -0.9705
 2034TIP3    H227738   2.199   1.225   0.204  1.9516 -0.5042 -1.4090
 2035TIP3   OH227739   3.357   2.413   8.325 -0.1199  0.1462  0.5772
 2035TIP3    H127740   3.364   2.476   8.253 -1.2421 -0.3554 -0.0062
 2035TIP3    H227741   3.417   2.342   8.302 -0.1100  0.2208  0.3743
 2036TIP3   OH227742   3.504   0.100   2.778  0.1671 -0.1128 -0.0971
 2036TIP3    H127743   3.465   0.048   2.848 -0.9699  0.5609 -0.2038
 2036TIP3    H227744   3.597   0.075   2.778 -0.1053 -1.1764  0.6834
 2037TIP3   OH227745   0.034   2.042   2.367  0.1100 -0.3644  0.5688
 2037TIP3    H127746  -0.045   2.073   2.324  0.8430 -1.4679 -1.7496
 2037TIP3    H227747   0.003   1.983   2.436 -1.0820  0.2091  0.5482
 2038TIP3   OH227748   2.081   1.529   3.348  0.4785  0.1794 -0.0916
 2038TIP3    H127749   2.079   1.434   3.347 -1.8422  0.1508  1.1121
 2038TIP3    H227750   2.162   1.552   3.394  0.9694 -1.1920 -0.2493
 2039TIP3   OH227751   3.392   5.699   7.828  0.1389  0.0059  0.1382
 2039TIP3    H127752   3.333   5.740   7.764  0.5794 -1.0814 -1.0031
 2039TIP3    H227753   3.335   5.675   7.901 -0.4565  0.8829 -0.0305
 2040TIP3   OH227754   5.103   6.364   2.416 -0.4629  0.4780 -0.2688
 2040TIP3    H127755   5.038   6.345   2.484 -1.7036  1.1819 -1.2340
 2040TIP3    H227756   5.184   6.324   2.449 -1.1324  0.4323  1.4126
 2041TIP3   OH227757   4.726   4.869   0.710 -0.5366 -0.5026 -0.9892
 2041TIP3    H127758   4.686   4.857   0.797 -0.2807  2.0607 -0.4307
 2041TIP3    H227759   4.798   4.807   0.708 -1.1224 -1.2675  0.2394
 2042TIP3   OH227760   3.458   5.225   2.153  0.8275  0.1266 -0.0806
 2042TIP3    H127761   3.483   5.275   2.075 -3.5247 -0.3524 -2.1168
 2042TIP3    H227762   3.495   5.138   2.137 -0.6337 -0.2012 -2.2016
 2043TIP3   OH227763   2.673   4.687   1.193 -0.6292  0.4472 -0.0009
 2043TIP3    H127764   2.742   4.718   1.251 -1.0777  4.3379 -1.2133
 2043TIP3    H227765   2.604   4.656   1.251  0.6529  0.0224  1.3415
 2044TIP3   OH227766   6.574   4.063   8.505 -0.2847  0.3072 -0.0169
 2044TIP3    H127767   6.632   4.011   8.450 -0.9250 -1.6270  1.0602
 2044TIP3    H227768   6.491   4.063   8.458 -1.3277 -2.7507  1.5494
 2045TIP3   OH227769   0.231   4.393   6.547 -0.4253  0.2145  0.6179
 2045TIP3    H127770   0.242   4.327   6.479 -0.9794 -1.4043  2.0251
 2045TIP3    H227771   0.289   4.464   6.521  0.6057 -1.0439 -0.6957
 2046TIP3   OH227772   6.266   4.739   7.543  0.7626 -0.1087  0.2202
 2046TIP3    H127773   6.258   4.827   7.505  0.1490  0.0452  0.6902
 2046TIP3    H227774   6.217   4.744   7.625  1.3008 -0.7005  0.5831
 2047TIP3   OH227775   4.283   0.230   7.241  0.3714  0.0433 -0.2628
 2047TIP3    H127776   4.252   0.315   7.209 -0.3284 -0.0444  0.1616
 2047TIP3    H227777   4.371   0.247   7.274 -0.0859  0.7992  0.6034
 2048TIP3   OH227778   5.839   4.622   2.494  0.2006  0.1436  0.4881
 2048TIP3    H127779   5.904   4.688   2.515  0.7482  0.4010 -1.7791
 2048TIP3    H227780   5.758   4.655   2.534  0.7950  1.3555  0.7453
 2049TIP3   OH227781   5.588   6.176   1.625 -0.2524  0.5697 -0.0071
 2049TIP3    H127782   5.655   6.149   1.563 -0.5239 -0.4308  0.1078
 2049TIP3    H227783   5.595   6.113   1.697  0.2682  1.8869  1.1577
 2050TIP3   OH227784   4.648   0.602   0.587  0.2403  0.0599 -0.3007
 2050TIP3    H127785   4.670   0.694   0.604  1.5033 -0.1481 -0.7440
 2050TIP3    H227786   4.626   0.566   0.673  0.5638  0.5645 -0.0050
 2051TIP3   OH227787   2.409   5.496   7.405 -0.6278  0.0993  0.2512
 2051TIP3    H127788   2.319   5.505   7.436 -1.3375  0.1868 -1.6858
 2051TIP3    H227789   2.459   5.560   7.456 -1.5687 -0.1978  1.6075
 2052TIP3   OH227790   6.435   1.613   6.957  0.1693 -0.2317 -0.1788
 2052TIP3    H127791   6.509   1.616   7.016  1.3212  1.2500 -1.6019
 2052TIP3    H227792   6.420   1.520   6.941  0.1661 -0.6478  1.9296
 2053TIP3   OH227793   1.182   0.473   0.365  0.7206 -0.2046 -0.0720
 2053TIP3    H127794   1.172   0.563   0.333  0.0184  0.1577  1.1122
 2053TIP3    H227795   1.266   0.474   0.412  0.7211 -0.1839 -0.0734
 2054TIP3   OH227796   1.394   3.081   7.421  0.1848  0.2397 -0.6665
 2054TIP3    H127797   1.483   3.070   7.454  0.9390  1.1135 -2.2813
 2054TIP3    H227798   1.405   3.123   7.336 -1.7292 -0.5111 -1.3447
 2055TIP3   OH227799   4.068   4.710   7.720 -0.1485 -0.8219  0.1527
 2055TIP3    H127800   4.068   4.621   7.685 -1.6180 -0.0632 -1.9520
 2055TIP3    H227801   4.082   4.766   7.644 -0.7888  0.8332  1.1913
 2056TIP3   OH227802   4.776   2.938   2.225 -0.5413 -0.0433 -0.0384
 2056TIP3    H127803   4.773   2.921   2.319  0.0239 -0.7591 -0.1469
 2056TIP3    H227804   4.862   2.976   2.210 -0.2530 -0.8213 -0.4046
 2057TIP3   OH227805   5.949   3.134   1.383  0.2005  0.2773  0.0612
 2057TIP3    H127806   5.970   3.041   1.374 -0.7066  0.1986 -1.6037
 2057TIP3    H227807   5.855   3.139   1.368  0.0496  1.3576  1.1838
 2058TIP3   OH227808   1.674   4.092   0.973  0.2435 -0.4713  0.5265
 2058TIP3    H127809   1.658   4.106   1.067 -0.6888 -3.4029  0.8820
 2058TIP3    H227810   1.692   3.999   0.965  2.1685  0.0085 -2.0281
 2059TIP3   OH227811   5.242   1.240   3.191  0.4114  0.3904  0.5516
 2059TIP3    H127812   5.257   1.305   3.260  1.2527 -0.7922  1.5231
 2059TIP3    H227813   5.195   1.169   3.233 -2.3156  1.1539 -0.9706
 2060TIP3   OH227814   6.523   2.332   6.722  0.4698 -0.3169 -0.3827
 2060TIP3    H127815   6.486   2.266   6.780  0.4665  0.6775  0.8106
 2060TIP3    H227816   6.617   2.325   6.735  0.4126  0.9064  0.9574
 2061TIP3   OH227817   6.872   1.932   0.937  0.3033 -0.0522  0.1579
 2061TIP3    H127818   6.841   1.976   0.857  0.7947 -0.6647 -0.3869
 2061TIP3    H227819   6.810   1.860   0.949  0.0711  0.2004  0.4901
 2062TIP3   OH227820   6.077   6.834   0.050 -0.9342  0.1885  0.3703
 2062TIP3    H127821   6.128   6.786   0.114  1.9081  1.7022 -0.5532
 2062TIP3    H227822   6.030   6.900   0.101 -1.9313 -1.1400  1.2325
 2063TIP3   OH227823   2.998   3.694   8.251 -0.6148  0.2204 -0.2809
 2063TIP3    H127824   3.025   3.708   8.161 -0.4385  2.8031  0.0992
 2063TIP3    H227825   2.902   3.698   8.248 -0.7154 -1.5381 -0.5628
 2064TIP3   OH227826   0.015   3.056   0.979 -0.2765  0.4593 -0.7525
 2064TIP3    H127827  -0.033   3.000   0.918 -1.9514  2.4432 -1.3656
 2064TIP3    H227828   0.078   3.102   0.923 -1.4533  1.8844 -0.9821
 2065TIP3   OH227829   3.563   0.737   0.806 -0.3977 -0.4873 -0.3854
 2065TIP3    H127830   3.588   0.657   0.760 -0.3287 -0.6126 -0.1298
 2065TIP3    H227831   3.644   0.767   0.847 -0.2767  0.0524 -0.9849
 2066TIP3   OH227832   4.781   2.724   6.898  0.6660  0.1884 -0.5803
 2066TIP3    H127833   4.705   2.774   6.927  0.4143  0.3975 -1.5770
 2066TIP3    H227834   4.756   2.632   6.910 -0.4935  0.1800 -2.6361
 2067TIP3   OH227835   6.496   6.645   0.023 -0.2296  0.1591  0.1245
 2067TIP3    H127836   6.480   6.672  -0.067  2.0900  1.2533 -0.0299
 2067TIP3    H227837   6.534   6.557   0.015  0.0311  0.2802  0.0298
 2068TIP3   OH227838   4.866   5.109   0.796 -0.3081 -0.4573  0.3495
 2068TIP3    H127839   4.820   5.182   0.836 -0.0662 -0.4777  0.6671
 2068TIP3    H227840   4.810   5.082   0.723 -0.0865  0.4540 -0.1751
 2069TIP3   OH227841   6.397   6.004   8.016  0.0708  0.0457 -0.3436
 2069TIP3    H127842   6.376   6.097   8.006 -0.1318  0.0285 -0.1058
 2069TIP3    H227843   6.313   5.959   8.007  0.2345 -0.1536 -0.9142
 2070TIP3   OH227844   5.031   4.628   2.106 -0.1800  0.3171  0.0062
 2070TIP3    H127845   5.122   4.598   2.102 -0.5072 -0.7919  0.6605
 2070TIP3    H227846   5.002   4.606   2.194 -1.4913 -0.5385 -0.6108
 2071TIP3   OH227847   6.881   1.425   1.831  0.1133 -0.3129  0.6928
 2071TIP3    H127848   6.802   1.443   1.780  1.4537  0.8390 -1.0877
 2071TIP3    H227849   6.904   1.335   1.809  1.2125  0.4692 -1.6041
 2072TIP3   OH227850   0.401   1.075   7.339  1.0003  0.1074 -0.1784
 2072TIP3    H127851   0.400   0.982   7.363 -0.7946  0.0250 -0.4697
 2072TIP3    H227852   0.467   1.081   7.270 -0.1113 -1.3179 -1.4519
 2073TIP3   OH227853   0.225   4.549   0.154  0.2711 -0.1784 -0.3027
 2073TIP3    H127854   0.162   4.580   0.088  0.5931 -0.0740 -0.5616
 2073TIP3    H227855   0.173   4.492   0.211 -0.2625  0.5705 -0.0123
 2074TIP3   OH227856   0.536   5.214   0.867  0.1320  0.2664 -0.2292
 2074TIP3    H127857   0.601   5.151   0.900 -0.2111  0.4243  0.7819
 2074TIP3    H227858   0.470   5.218   0.936 -0.4666  0.8313 -0.8281
 2075TIP3   OH227859   0.502   4.483   0.585  0.5112 -0.0351 -0.2605
 2075TIP3    H127860   0.550   4.431   0.650  2.4332  0.7068 -0.9944
 2075TIP3    H227861   0.527   4.573   0.603 -2.6182  0.7047  0.8493
 2076TIP3   OH227862   6.312   5.098   7.744  0.8839 -0.0885 -0.1292
 2076TIP3    H127863   6.268   5.182   7.729  0.6585 -0.3754 -1.1025
 2076TIP3    H227864   6.323   5.094   7.839  0.3862  0.7900 -0.0253
 2077TIP3   OH227865   2.239   5.476   1.384 -0.4768  0.2370  0.4773
 2077TIP3    H127866   2.262   5.535   1.313 -0.1199  1.8488  1.8578
 2077TIP3    H227867   2.317   5.421   1.395 -0.4282  0.1660 -0.1742
 2078TIP3   OH227868   6.417   6.945   2.321 -0.2610  0.1449 -0.1214
 2078TIP3    H127869   6.496   6.993   2.298  1.4220 -1.9608  0.9246
 2078TIP3    H227870   6.400   6.968   2.412 -0.3947  0.0022 -0.1092
 2079TIP3   OH227871   4.571   0.883   2.762 -0.3109 -0.5680 -0.5668
 2079TIP3    H127872   4.595   0.891   2.670  0.7177 -2.6532 -0.5514
 2079TIP3    H227873   4.476   0.888   2.763 -0.5062 -2.7467 -2.0901
 2080TIP3   OH227874   4.556   6.826   7.617 -0.0841 -0.4663  0.3069
 2080TIP3    H127875   4.545   6.920   7.634  1.1168 -0.2207 -0.2080
 2080TIP3    H227876   4.622   6.798   7.680 -0.4155 -0.9750  0.4351
 2081TIP3   OH227877   1.365   1.347   1.981  0.1669 -0.1516 -0.1684
 2081TIP3    H127878   1.457   1.319   1.980  0.1638 -0.1766  0.2512
 2081TIP3    H227879   1.316   1.268   1.960  0.2219 -0.2164 -0.0531
 2082TIP3   OH227880   5.361   3.845   7.259  0.0501 -0.2570  0.3604
 2082TIP3    H127881   5.367   3.750   7.257 -1.0956 -0.3481 -1.6351
 2082TIP3    H227882   5.287   3.863   7.317 -1.4140 -0.7710 -1.2576
 2083TIP3   OH227883   3.565   3.072   2.882 -0.3045 -0.0093  0.1865
 2083TIP3    H127884   3.620   3.054   2.805 -0.4155  1.5062 -0.2879
 2083TIP3    H227885   3.557   3.168   2.883 -0.7132 -0.0330  1.8132
 2084TIP3   OH227886   2.589   0.432   7.755 -0.2004 -0.3235  0.5701
 2084TIP3    H127887   2.544   0.348   7.760  0.3646 -0.5628  2.0578
 2084TIP3    H227888   2.548   0.486   7.823 -0.3545  0.5265 -0.1647
 2085TIP3   OH227889   5.619   0.441   2.598 -0.6307 -0.2675  0.1801
 2085TIP3    H127890   5.663   0.511   2.551 -1.6632  0.2460 -0.0402
 2085TIP3    H227891   5.606   0.475   2.687  0.7004 -0.9762  0.6788
 2086TIP3   OH227892   3.936   6.256   2.133  0.1721 -0.6504  0.0914
 2086TIP3    H127893   4.000   6.212   2.189 -0.3536 -1.3966  0.1243
 2086TIP3    H227894   3.956   6.349   2.142  2.5428 -0.9219 -1.4290
 2087TIP3   OH227895   1.457   4.051   7.128 -0.1276  0.0533 -0.6080
 2087TIP3    H127896   1.490   4.138   7.151  0.5742 -0.3378 -0.1357
 2087TIP3    H227897   1.478   4.041   7.035 -2.1851  1.2717 -1.2845
 2088TIP3   OH227898   1.619   4.098   1.266  0.3338  0.6513 -0.2004
 2088TIP3    H127899   1.559   4.036   1.308 -0.4905  0.4161 -1.6556
 2088TIP3    H227900   1.632   4.167   1.331 -1.5546  0.7265  0.1426
 2089TIP3   OH227901   6.335   3.369   7.525  0.5059 -0.0631  0.0633
 2089TIP3    H127902   6.269   3.368   7.595 -1.2205  0.5986 -1.4734
 2089TIP3    H227903   6.325   3.455   7.484  2.0030 -0.1491 -0.5559
 2090TIP3   OH227904   0.399   6.431   8.048  0.3445 -0.1913  0.1274
 2090TIP3    H127905   0.366   6.408   7.962 -0.6519  0.6939  0.2557
 2090TIP3    H227906   0.389   6.352   8.101 -1.3944 -0.0062  0.1054
 2091TIP3   OH227907   3.137   0.807   1.868  0.4990  0.0642 -0.1036
 2091TIP3    H127908   3.160   0.737   1.808  2.2953 -0.6008  1.2966
 2091TIP3    H227909   3.114   0.881   1.811  1.1565 -0.8381 -1.5875
 2092TIP3   OH227910   0.829   3.336   0.422 -0.1582  0.4071 -0.1258
 2092TIP3    H127911   0.841   3.272   0.352 -0.2644  0.8486 -0.5576
 2092TIP3    H227912   0.900   3.319   0.483  1.3007  1.4600 -1.4522
 2093TIP3   OH227913   3.700   6.896   1.027  0.1253 -0.2839  0.0848
 2093TIP3    H127914   3.665   6.843   0.955 -1.8165  1.5898 -0.4325
 2093TIP3    H227915   3.781   6.933   0.993 -0.7126  0.4840 -1.1232
 2094TIP3   OH227916   1.225   2.831   1.874  0.0534 -0.5508 -0.4736
 2094TIP3    H127917   1.174   2.905   1.906 -0.8712 -0.4954 -1.9709
 2094TIP3    H227918   1.164   2.781   1.819  0.6734 -2.3854  0.3948
 2095TIP3   OH227919   6.012   3.391   0.685  0.1510  0.2861 -0.0954
 2095TIP3    H127920   6.093   3.366   0.730  0.0048 -1.6467 -0.8336
 2095TIP3    H227921   6.036   3.469   0.635  2.0570 -1.1488 -1.5731
 2096TIP3   OH227922   5.551   5.452   7.151  0.5152 -0.0529 -0.0317
 2096TIP3    H127923   5.457   5.451   7.137  0.5096  0.5391 -0.0592
 2096TIP3    H227924   5.585   5.384   7.093  0.3790  1.5087 -2.0446
 2097TIP3   OH227925   6.359   2.507   7.666 -0.6471  0.1983 -0.0575
 2097TIP3    H127926   6.388   2.583   7.717 -1.3903  0.1747  0.4077
 2097TIP3    H227927   6.279   2.478   7.710 -0.7560 -0.4220 -0.6591
 2098TIP3   OH227928   6.244   2.116   0.736  0.3989 -0.0352  0.0713
 2098TIP3    H127929   6.256   2.207   0.761  0.8152 -0.1025  0.1148
 2098TIP3    H227930   6.158   2.093   0.772  0.4908  0.2045  0.4441
 2099TIP3   OH227931   2.139   4.359   8.289  0.4468  0.3618 -0.4079
 2099TIP3    H127932   2.188   4.430   8.248  2.0891 -0.7309 -0.4528
 2099TIP3    H227933   2.091   4.317   8.217  0.2190  0.8443 -0.5359
 2100TIP3   OH227934   5.662   5.158   6.584 -0.3687 -0.1879  0.0575
 2100TIP3    H127935   5.704   5.152   6.670  1.4397  1.2590 -0.6367
 2100TIP3    H227936   5.653   5.252   6.569 -2.3709 -0.4430 -0.5946
 2101TIP3   OH227937   4.444   1.919   8.096  0.4032 -0.1584 -0.1720
 2101TIP3    H127938   4.423   2.006   8.129  2.5639  1.0301 -1.6966
 2101TIP3    H227939   4.435   1.862   8.173  1.8888  1.9090  1.6604
 2102TIP3   OH227940   0.956   5.872   8.221  0.0367 -0.1333  0.2176
 2102TIP3    H127941   0.911   5.881   8.305 -0.1432 -0.1474  0.1233
 2102TIP3    H227942   0.983   5.780   8.218  0.1266 -0.1107  0.2997
 2103TIP3   OH227943   2.313   5.667   8.417 -0.5692  0.2312 -0.4337
 2103TIP3    H127944   2.247   5.600   8.432 -0.4477 -0.4483 -2.5829
 2103TIP3    H227945   2.366   5.633   8.345 -0.1199  2.3589 -1.1927
 2104TIP3   OH227946   1.436   1.958   7.141  0.0042  0.3324 -0.0158
 2104TIP3    H127947   1.367   1.898   7.113 -0.8549  1.0423  0.5094
 2104TIP3    H227948   1.458   2.008   7.063  0.7031 -0.6223 -0.4490
 2105TIP3   OH227949   2.557   6.056   7.386  0.1944  0.3381  0.0152
 2105TIP3    H127950   2.479   6.074   7.438 -0.3249 -0.0677 -0.6120
 2105TIP3    H227951   2.570   5.961   7.395  0.1870  0.2909 -0.4765
 2106TIP3   OH227952   4.800   6.531   2.592  0.6299  0.1522  0.5685
 2106TIP3    H127953   4.845   6.448   2.573 -1.3259 -1.0770  0.9550
 2106TIP3    H227954   4.836   6.560   2.676  3.3160  1.2288 -0.8235
 2107TIP3   OH227955   3.645   0.237   2.177  0.3606 -0.6772 -0.0190
 2107TIP3    H127956   3.622   0.311   2.122 -0.8214 -0.8090  0.2551
 2107TIP3    H227957   3.612   0.160   2.130 -1.8799 -0.6905  1.3935
 2108TIP3   OH227958   4.196   5.788   1.782  0.6205  0.0490 -0.4505
 2108TIP3    H127959   4.119   5.813   1.833 -0.0669 -0.6662 -1.1143
 2108TIP3    H227960   4.161   5.740   1.707  1.6778  0.2066 -1.0666
 2109TIP3   OH227961   3.431   2.400   2.815  0.3031  0.3276  0.0265
 2109TIP3    H127962   3.372   2.452   2.871 -0.6595 -1.2011  0.4824
 2109TIP3    H227963   3.512   2.395   2.865 -0.1225  0.0772  0.7146
 2110TIP3   OH227964   3.056   2.477   8.059  0.1023  1.0409  0.0308
 2110TIP3    H127965   3.081   2.399   8.109  0.2620  1.3997  0.5202
 2110TIP3    H227966   3.062   2.450   7.968 -0.5092  0.2786  0.2093
 2111TIP3   OH227967   1.949   4.651   8.381  0.5350  0.1405  0.2474
 2111TIP3    H127968   1.915   4.565   8.355 -1.2475  0.4192  1.5481
 2111TIP3    H227969   1.987   4.686   8.300  1.4993 -1.9185 -0.2843
 2112TIP3   OH227970   5.641   0.351   7.296  0.5706  0.4623  0.0459
 2112TIP3    H127971   5.687   0.314   7.220  0.5209 -0.5081  0.4659
 2112TIP3    H227972   5.566   0.397   7.259 -1.4023 -2.8133 -0.3923
 2113TIP3   OH227973   1.478   1.488   7.509  0.0939 -0.4426 -0.5248
 2113TIP3    H127974   1.393   1.532   7.504  0.5276  1.1099  2.8687
 2113TIP3    H227975   1.542   1.558   7.495  0.7687 -0.5297  1.6684
 2114TIP3   OH227976   1.063   1.044   1.380  0.2676  0.2470 -0.4388
 2114TIP3    H127977   1.120   1.118   1.400  0.1985  0.3112 -0.4777
 2114TIP3    H227978   1.085   0.978   1.445 -1.0459  1.0220  0.8579
 2115TIP3   OH227979   3.808   4.375   7.778 -0.4500 -0.5062 -0.5779
 2115TIP3    H127980   3.854   4.302   7.735 -0.6055 -0.9193 -0.0535
 2115TIP3    H227981   3.858   4.390   7.858  0.4120  0.9013 -1.3394
 2116TIP3   OH227982   1.346   0.308   7.577  0.2299  0.2141  0.2957
 2116TIP3    H127983   1.301   0.366   7.515 -0.7671  0.5753  1.3116
 2116TIP3    H227984   1.418   0.360   7.611  0.6817  0.0710 -0.4225
 2117TIP3   OH227985   2.280   1.930   8.006 -0.0890  0.1693 -0.1671
 2117TIP3    H127986   2.326   1.849   8.028 -0.7310 -0.6053 -1.5350
 2117TIP3    H227987   2.268   1.926   7.911  1.0194  2.5152 -0.4684
 2118TIP3   OH227988   4.913   0.421   0.963 -0.8340  0.0377  0.1696
 2118TIP3    H127989   4.878   0.447   0.878 -1.3416 -0.4713  0.2145
 2118TIP3    H227990   4.837   0.387   1.011 -0.6902  0.9543  1.0875
 2119TIP3   OH227991   5.230   5.239   7.267 -0.0298 -0.6830  0.3454
 2119TIP3    H127992   5.218   5.299   7.193 -1.3915 -0.7422  0.4988
 2119TIP3    H227993   5.317   5.202   7.253 -0.3649 -0.9001 -1.3780
 2120TIP3   OH227994   6.797   1.141   8.457  0.1748  0.4705  0.0324
 2120TIP3    H127995   6.716   1.171   8.414 -0.3215 -1.1192 -0.1995
 2120TIP3    H227996   6.838   1.084   8.392  1.8293  1.7408 -0.0885
 2121TIP3   OH227997   5.764   4.947   2.369  0.2813  0.7289  0.0869
 2121TIP3    H127998   5.819   4.912   2.439  0.0066 -0.3736 -0.2279
 2121TIP3    H227999   5.718   5.021   2.410 -0.5170 -0.4043  1.3544
 2122TIP3   OH228000   0.922   5.214   7.824  0.5279 -0.6581 -0.5904
 2122TIP3    H128001   0.934   5.184   7.914 -0.1773 -2.2296 -0.9939
 2122TIP3    H228002   0.987   5.165   7.774  0.0533 -0.7410 -1.1266
 2123TIP3   OH228003   0.284   4.348   0.499 -0.0165  0.6253 -0.9227
 2123TIP3    H128004   0.359   4.390   0.541  0.9934 -0.1982 -1.8400
 2123TIP3    H228005   0.248   4.290   0.566  0.7799  0.2872 -0.7821
 2124TIP3   OH228006   5.183   6.922   2.371  0.1104 -0.3682  0.1922
 2124TIP3    H128007   5.203   6.869   2.448  1.0420 -1.1666 -0.5764
 2124TIP3    H228008   5.259   6.911   2.314  0.0760  1.3414 -0.2464
 2125TIP3   OH228009   3.563   4.073   0.473 -0.4273  0.4419 -0.0486
 2125TIP3    H128010   3.475   4.046   0.448 -1.5351  1.9027  1.9419
 2125TIP3    H228011   3.553   4.165   0.500  1.7780  0.7370 -0.0387
 2126TIP3   OH228012   5.878   1.984   7.285 -0.6789  0.0481  0.3469
 2126TIP3    H128013   5.870   2.052   7.218  4.0937 -0.9325 -1.5967
 2126TIP3    H228014   5.811   1.919   7.262  0.2724  0.1227 -3.1396
 2127TIP3   OH228015   0.753   2.633   7.801 -0.4334 -1.1756 -0.0846
 2127TIP3    H128016   0.757   2.651   7.707  0.6845 -0.6580  0.0447
 2127TIP3    H228017   0.672   2.674   7.831  0.2166  0.4420 -0.4611
 2128TIP3   OH228018   2.670   0.513   0.751  0.9607  0.3832  0.2947
 2128TIP3    H128019   2.718   0.445   0.705  0.6113 -0.1353  0.6929
 2128TIP3    H228020   2.587   0.473   0.775 -0.4606  1.8150 -1.9507
 2129TIP3   OH228021   2.660   3.967   0.016 -0.3331 -0.1462  0.3192
 2129TIP3    H128022   2.707   4.008   0.087 -0.3803 -0.4998  0.5559
 2129TIP3    H228023   2.567   3.980   0.037 -0.4935  3.6241 -1.8515
 2130TIP3   OH228024   1.810   4.858   1.223 -0.3515  0.0537  0.1857
 2130TIP3    H128025   1.864   4.912   1.165 -0.3924 -1.9085 -1.8284
 2130TIP3    H228026   1.803   4.774   1.178 -2.6192 -0.7375  1.8061
 2131TIP3   OH228027   1.934   6.888   8.103 -0.1952 -0.1344  0.8883
 2131TIP3    H128028   1.933   6.873   8.198 -0.6998  0.4243  0.9872
 2131TIP3    H228029   2.025   6.908   8.082  0.1062 -1.2533  1.0785
 2132TIP3   OH228030   6.342   0.118   8.502  0.0921  0.4708 -0.0374
 2132TIP3    H128031   6.261   0.145   8.458 -0.8673  0.9606  1.9019
 2132TIP3    H228032   6.389   0.200   8.517 -0.4164  0.5364  1.3336
 2133TIP3   OH228033   1.024   0.610   3.100 -0.5339  0.2666 -0.2289
 2133TIP3    H128034   1.090   0.677   3.121  0.0365 -0.2688 -0.2653
 2133TIP3    H228035   1.004   0.569   3.183 -0.2660 -0.0636 -0.3236
 2134TIP3   OH228036   6.615   5.485   1.183 -0.1844 -0.6979  0.1292
 2134TIP3    H128037   6.682   5.479   1.116  2.7720  1.4338  2.5824
 2134TIP3    H228038   6.639   5.419   1.248 -1.5916 -1.1361  0.2423
 2135TIP3   OH228039   1.835   6.381   1.459  0.0817  0.0449 -0.5012
 2135TIP3    H128040   1.797   6.385   1.547 -1.1968  0.3263 -1.0519
 2135TIP3    H228041   1.816   6.466   1.420  1.8732  0.4459 -0.5839
 2136TIP3   OH228042   3.981   1.226   0.783  0.1334 -0.4665  0.2225
 2136TIP3    H128043   4.032   1.304   0.763  0.2432 -1.0190 -1.9509
 2136TIP3    H228044   3.897   1.259   0.815 -0.2065  0.6049 -1.6620
 2137TIP3   OH228045   5.846   3.130   7.444  0.4030  0.0209  0.1271
 2137TIP3    H128046   5.777   3.197   7.442  0.9991  0.6450 -1.9621
 2137TIP3    H228047   5.919   3.169   7.397  0.7485 -2.1218 -1.2478
 2138TIP3   OH228048   2.951   1.074   1.738  0.7747 -0.3932 -0.0241
 2138TIP3    H128049   3.005   1.078   1.659 -0.7476  1.5403 -1.0585
 2138TIP3    H228050   2.865   1.104   1.709 -0.0146 -0.3275  2.2378
 2139TIP3   OH228051   6.416   0.810   8.276  0.0238  0.2145  0.1282
 2139TIP3    H128052   6.430   0.861   8.196 -0.9251  0.6301  0.2202
 2139TIP3    H228053   6.374   0.730   8.248  0.4806 -0.0265  0.1182
 2140TIP3   OH228054   3.779   4.983   0.589  0.1842  0.0665 -0.1607
 2140TIP3    H128055   3.797   4.889   0.595 -0.2249  0.0512  1.0603
 2140TIP3    H228056   3.860   5.020   0.552  1.6636 -0.3690  2.3996
 2141TIP3   OH228057   5.488   5.492   7.924  0.0844  0.1814 -0.0920
 2141TIP3    H128058   5.558   5.461   7.866  0.3109 -0.0761  0.3166
 2141TIP3    H228059   5.524   5.483   8.012  0.6439  2.6988  0.0312
 2142TIP3   OH228060   4.255   6.118   1.677  0.3897 -0.6099 -0.2542
 2142TIP3    H128061   4.243   6.040   1.623 -0.2250 -1.3738  0.9566
 2142TIP3    H228062   4.167   6.138   1.711  0.8509 -0.4466  0.8718
 2143TIP3   OH228063   5.065   4.781   7.146  0.0922 -0.1156 -0.5513
 2143TIP3    H128064   5.109   4.866   7.142 -0.0540 -0.0386 -0.5278
 2143TIP3    H228065   4.992   4.795   7.205  1.9432 -1.1039  2.1682
 2144TIP3   OH228066   3.152   3.909   1.255 -0.0581 -0.6150  0.2087
 2144TIP3    H128067   3.228   3.859   1.226  1.6697  1.4630  0.9440
 2144TIP3    H228068   3.187   3.978   1.310 -2.3675  1.1397 -0.3496
 2145TIP3   OH228069   5.159   1.481   2.424  0.1430 -0.0312  0.1873
 2145TIP3    H128070   5.153   1.389   2.452  0.8382 -0.3023 -0.5161
 2145TIP3    H228071   5.071   1.516   2.439 -0.1379 -0.8132  0.4508
 2146TIP3   OH228072   0.027   2.708   1.447  0.0491  0.4351  0.0359
 2146TIP3    H128073   0.081   2.765   1.392  0.0902  1.6086  1.2510
 2146TIP3    H228074  -0.035   2.668   1.386 -0.3378  2.1992 -0.7995
 2147TIP3   OH228075   6.204   0.555   2.335  0.0583 -0.3987  0.0071
 2147TIP3    H128076   6.182   0.644   2.310 -0.8919  0.4226  3.3008
 2147TIP3    H228077   6.119   0.513   2.352  0.5339 -1.6813 -0.6179
 2148TIP3   OH228078   4.904   1.345   7.815 -0.5048  0.5522 -0.4098
 2148TIP3    H128079   4.941   1.424   7.774 -2.5778  1.2952 -0.9794
 2148TIP3    H228080   4.949   1.273   7.772 -0.4105  1.3877 -1.7831
 2149TIP3   OH228081   3.736   0.994   1.595 -0.0869 -0.0204  0.0249
 2149TIP3    H128082   3.659   1.007   1.651  0.5453  1.7464  0.5555
 2149TIP3    H228083   3.723   1.056   1.522 -0.7980 -2.1429 -1.7502
 2150TIP3   OH228084   4.448   1.643   8.281  0.0208 -0.0352  0.0350
 2150TIP3    H128085   4.357   1.666   8.301 -0.0602 -1.3343  1.3717
 2150TIP3    H228086   4.452   1.549   8.297  1.6127  0.0183  0.0268
 2151TIP3   OH228087   4.695   0.947   0.840 -0.2125 -0.5963 -0.1938
 2151TIP3    H128088   4.732   0.909   0.761 -0.6712  0.3824 -0.8975
 2151TIP3    H228089   4.603   0.919   0.839 -0.5862  0.5742 -0.7816
 2152TIP3   OH228090   0.627   1.843   7.879 -0.3855 -0.0321  0.5617
 2152TIP3    H128091   0.683   1.766   7.876  0.7308  0.7379  1.0929
 2152TIP3    H228092   0.630   1.879   7.791  0.0447  0.0571  0.6111
 2153TIP3   OH228093   2.578   1.354   0.747 -0.0288 -0.0731 -0.1263
 2153TIP3    H128094   2.644   1.416   0.777  0.2889 -0.3780 -0.1908
 2153TIP3    H228095   2.520   1.405   0.691  1.2336 -0.2036 -1.6282
 2154TIP3   OH228096   0.734   3.456   0.689 -0.2163  0.8893 -0.4229
 2154TIP3    H128097   0.754   3.420   0.603  0.2544  0.1295 -0.0124
 2154TIP3    H228098   0.815   3.500   0.716 -0.5034  1.4993 -0.5486
 2155TIP3   OH228099   0.852   4.864   1.749 -0.1876 -0.0730 -0.0680
 2155TIP3    H128100   0.877   4.774   1.728  0.0567  0.0932 -0.4931
 2155TIP3    H228101   0.761   4.871   1.717 -1.1385 -0.9347  2.2348
 2156TIP3   OH228102   3.880   2.671   1.817 -0.2353 -0.7871  0.3517
 2156TIP3    H128103   3.965   2.683   1.859  0.3530 -0.6718 -0.8157
 2156TIP3    H228104   3.845   2.591   1.856  1.3367 -1.9865 -0.5695
 2157TIP3   OH228105   0.585   4.000   7.287  0.5186 -0.0614 -0.2202
 2157TIP3    H128106   0.498   4.036   7.267 -0.5472 -2.1423  0.3803
 2157TIP3    H228107   0.635   4.075   7.317 -1.0680  1.2129 -0.5725
 2158TIP3   OH228108   4.158   1.247   1.890  0.0244 -0.0108 -0.8585
 2158TIP3    H128109   4.173   1.342   1.886  1.0819 -0.0879  0.4545
 2158TIP3    H228110   4.067   1.236   1.864 -0.4639  1.5020  0.0545
 2159TIP3   OH228111   4.837   4.611   6.292  0.2916 -0.3132 -0.1064
 2159TIP3    H128112   4.896   4.658   6.233 -0.5642  0.6540 -0.2144
 2159TIP3    H228113   4.873   4.522   6.296  1.0557 -0.0677 -1.1218
 2160TIP3   OH228114   0.823   5.031   7.412  0.4193  0.9027 -0.1447
 2160TIP3    H128115   0.752   5.033   7.476  0.6867 -2.6880  0.5168
 2160TIP3    H228116   0.782   5.053   7.329 -1.3127 -0.1621  0.3812
 2161TIP3   OH228117   6.357   1.021   0.169  0.1084 -0.2115  0.6497
 2161TIP3    H128118   6.308   0.950   0.211 -1.0959  0.3515  0.2566
 2161TIP3    H228119   6.342   1.008   0.075  1.4513 -0.5258  0.4623
 2162TIP3   OH228120   3.525   2.641   7.144  0.0797 -0.8864  0.4429
 2162TIP3    H128121   3.550   2.713   7.087  1.7118 -1.7109  0.0542
 2162TIP3    H228122   3.517   2.681   7.231  0.2704 -0.1202  0.1134
 2163TIP3   OH228123   0.173   2.503   1.137  0.3643 -0.2786 -0.2237
 2163TIP3    H128124   0.179   2.419   1.181  0.7593 -1.2085 -1.9552
 2163TIP3    H228125   0.094   2.496   1.082 -0.2558  0.9259  0.4706
 2164TIP3   OH228126   4.454   0.243   0.921 -0.3129  0.0188 -0.0030
 2164TIP3    H128127   4.375   0.236   0.973 -1.5518 -1.2065 -1.9140
 2164TIP3    H228128   4.453   0.166   0.865  0.4124  1.6659 -2.4614
 2165TIP3   OH228129   4.782   5.541   0.827  0.5573  0.5776  0.4373
 2165TIP3    H128130   4.873   5.512   0.838  0.1801 -0.4416  1.0029
 2165TIP3    H228131   4.731   5.460   0.831 -0.2081  0.8244 -2.2929
 2166TIP3   OH228132   3.864   1.441   2.559 -0.3846 -0.3716  0.5248
 2166TIP3    H128133   3.847   1.353   2.593 -0.3200 -2.0217 -3.2646
 2166TIP3    H228134   3.779   1.471   2.526 -0.4601  1.2077  1.9879
 2167TIP3   OH228135   5.311   4.959   1.962 -0.0826  0.1641  0.1045
 2167TIP3    H128136   5.243   4.894   1.943  0.7859 -1.5165  2.3355
 2167TIP3    H228137   5.391   4.920   1.926  0.4300 -0.0165  1.3878
 2168TIP3   OH228138   2.236   0.598   1.699 -0.1097 -0.0259  0.4411
 2168TIP3    H128139   2.228   0.685   1.739 -1.8962 -0.4399  1.0730
 2168TIP3    H228140   2.260   0.616   1.608 -2.4886  1.2747 -0.0161
 2169TIP3   OH228141   3.477   3.258   1.776 -0.0197  0.1508 -0.3628
 2169TIP3    H128142   3.524   3.342   1.774  1.1146 -0.3723  1.8457
 2169TIP3    H228143   3.501   3.219   1.860 -2.7342 -1.1389 -0.0804
 2170TIP3   OH228144   6.551   0.236   2.301  0.2934 -0.3371 -0.4006
 2170TIP3    H128145   6.462   0.268   2.286  0.9739  0.6916 -2.5865
 2170TIP3    H228146   6.600   0.313   2.329  0.6880 -0.7299  0.0173
 2171TIP3   OH228147   4.469   5.810   8.134  0.1402  0.0348 -0.4556
 2171TIP3    H128148   4.423   5.766   8.205  0.5543 -1.0066 -0.8089
 2171TIP3    H228149   4.400   5.838   8.074 -0.1438  0.0743 -0.1149
 2172TIP3   OH228150   3.056   5.945   0.323 -0.2772 -0.0507  0.1361
 2172TIP3    H128151   3.003   5.873   0.358 -0.2125 -0.1080  0.1161
 2172TIP3    H228152   3.099   5.908   0.246 -0.4323  0.0811 -0.0125
 2173TIP3   OH228153   4.831   5.346   7.261  0.2812  0.7484  0.2749
 2173TIP3    H128154   4.881   5.297   7.327 -0.7326  0.5012  0.8787
 2173TIP3    H228155   4.881   5.427   7.249  2.0223 -0.4073 -0.7897
 2174TIP3   OH228156   1.603   5.985   1.128 -0.4065  0.0173  0.0302
 2174TIP3    H128157   1.559   6.014   1.208 -1.4125  0.5678 -0.6969
 2174TIP3    H228158   1.682   6.039   1.123 -1.1396  1.0870 -0.1613
 2175TIP3   OH228159   0.377   1.609   1.541  0.4305 -0.0892  0.0763
 2175TIP3    H128160   0.466   1.576   1.549  0.4194  0.2460  1.8377
 2175TIP3    H228161   0.324   1.547   1.592 -0.5048 -0.7918 -1.6550
 2176TIP3   OH228162   0.029   3.670   2.420  0.5184 -0.3849  0.1762
 2176TIP3    H128163   0.075   3.746   2.384  0.1678 -0.4780 -0.4962
 2176TIP3    H228164   0.012   3.693   2.511  2.5718 -0.6608  0.6930
 2177TIP3   OH228165   6.722   1.023   1.785 -0.0472 -0.3133 -0.3860
 2177TIP3    H128166   6.696   1.090   1.849 -0.0328  0.9936 -1.7109
 2177TIP3    H228167   6.818   1.029   1.782 -0.0748 -0.0476 -0.8507
 2178TIP3   OH228168   1.685   4.337   7.237 -0.0119  0.1807 -0.0638
 2178TIP3    H128169   1.721   4.301   7.319 -2.0007  0.2278  0.8985
 2178TIP3    H228170   1.592   4.349   7.256 -0.3141  1.2083 -2.0160
 2179TIP3   OH228171   5.469   0.600   0.171 -0.5304 -0.5245  0.0683
 2179TIP3    H128172   5.390   0.654   0.164 -0.2145 -0.2562 -3.1798
 2179TIP3    H228173   5.532   0.655   0.216 -1.4868  0.1503  0.6357
 2180TIP3   OH228174   0.054   4.334   1.504 -0.3692 -0.6559  0.2641
 2180TIP3    H128175  -0.024   4.348   1.450  0.2098 -0.4230 -0.5386
 2180TIP3    H228176   0.046   4.398   1.574 -1.4368 -1.3672  0.8129
 2181TIP3   OH228177   3.422   1.598   2.971  0.3797  0.6100  0.4137
 2181TIP3    H128178   3.344   1.652   2.983  0.2501  0.2554  1.2215
 2181TIP3    H228179   3.389   1.508   2.972  0.6697  0.4831 -0.3437
 2182TIP3   OH228180   3.068   0.699   1.228  0.4668  0.3170  1.1833
 2182TIP3    H128181   3.122   0.620   1.225  1.4147  0.9610  0.8541
 2182TIP3    H228182   3.093   0.748   1.150 -1.2438  0.2338  0.5566
 2183TIP3   OH228183   3.539   4.356   2.188  0.5782 -0.5431 -0.1795
 2183TIP3    H128184   3.467   4.293   2.188  1.0473 -1.0988 -0.9563
 2183TIP3    H228185   3.521   4.413   2.263 -0.4097 -0.9616 -0.0832
 2184TIP3   OH228186   2.103   3.663   1.329 -0.4560  0.0532  0.2283
 2184TIP3    H128187   2.067   3.619   1.252 -0.3234 -0.1046  0.2555
 2184TIP3    H228188   2.191   3.688   1.303 -0.6984  0.7342  0.0500
 2185TIP3   OH228189   5.411   0.048   1.766  0.0481 -0.2802 -0.1268
 2185TIP3    H128190   5.332   0.015   1.809  0.2486 -2.4597 -1.3154
 2185TIP3    H228191   5.396   0.032   1.673  1.5596  0.0493 -0.4425
 2186TIP3   OH228192   0.058   0.017   2.774 -0.1503  0.4169 -0.3435
 2186TIP3    H128193  -0.009   0.029   2.841 -1.1367 -2.4164 -0.6570
 2186TIP3    H228194   0.035   0.080   2.705 -1.0972  1.0889  0.5585
 2187TIP3   OH228195   3.772   0.037   2.882 -0.2858 -0.4775 -0.2544
 2187TIP3    H128196   3.841  -0.005   2.933  0.6432 -1.8551 -2.5133
 2187TIP3    H228197   3.691   0.009   2.926  0.4852 -0.7027  1.0926
 2188TIP3   OH228198   2.106   1.764   1.743 -0.3090 -0.7670 -0.1073
 2188TIP3    H128199   2.076   1.809   1.822 -0.5432 -0.8118 -0.1711
 2188TIP3    H228200   2.061   1.810   1.671  2.2317  1.3551 -0.5068
 2189TIP3   OH228201   6.789   4.103   0.472 -0.2812 -0.2912 -0.1545
 2189TIP3    H128202   6.817   4.115   0.563  0.0888  0.6744 -0.3869
 2189TIP3    H228203   6.801   4.009   0.456 -0.1207 -0.4291  0.7175
 2190TIP3   OH228204   4.565   6.296   0.075  0.2345 -0.5137 -0.4628
 2190TIP3    H128205   4.644   6.261   0.033 -0.7481 -2.7625 -0.5501
 2190TIP3    H228206   4.584   6.390   0.085  3.3646 -1.1109  0.4949
 2191TIP3   OH228207   2.293   1.103   3.421  0.0576  0.7293 -0.5742
 2191TIP3    H128208   2.319   1.179   3.473  0.1430  0.0662  0.3827
 2191TIP3    H228209   2.362   1.095   3.355  0.4611  1.0341 -0.2014
 2192TIP3   OH228210   6.077   4.485   1.367  0.3304 -0.0989  0.0072
 2192TIP3    H128211   6.099   4.417   1.303 -0.7573 -1.6582  1.1951
 2192TIP3    H228212   5.983   4.498   1.357  0.1833 -0.1878  1.0776
 2193TIP3   OH228213   5.942   6.301   2.213 -0.1334  0.1679 -0.2581
 2193TIP3    H128214   5.929   6.206   2.217 -0.6238  0.2455 -0.0202
 2193TIP3    H228215   6.020   6.312   2.157 -0.7453 -0.3210 -1.2300
 2194TIP3   OH228216   1.076   3.298   0.822 -0.2796 -0.3373 -0.3522
 2194TIP3    H128217   1.013   3.292   0.894 -0.5174  1.0764 -0.4051
 2194TIP3    H228218   1.028   3.271   0.744  0.1379 -2.4222  0.0659
 2195TIP3   OH228219   3.447   4.272   0.798 -0.3562  0.4273  0.0681
 2195TIP3    H128220   3.532   4.297   0.763 -0.0916 -1.4588 -0.7344
 2195TIP3    H228221   3.389   4.268   0.722 -0.5195 -0.7707  0.2360
 2196TIP3   OH228222   2.050   4.013   1.449 -0.5541  0.7074 -0.2234
 2196TIP3    H128223   1.994   3.996   1.374 -0.5453  0.0614 -0.0872
 2196TIP3    H228224   1.991   4.046   1.517 -0.7850 -0.0111 -0.0670
 2197TIP3   OH228225   5.775   4.755   0.185  0.5636 -0.2902  0.1571
 2197TIP3    H128226   5.725   4.833   0.208  0.1601 -0.6761  0.5989
 2197TIP3    H228227   5.797   4.714   0.268  2.4964  0.3973  0.0263
 2198TIP3   OH228228   5.603   1.491   0.465 -0.2128 -0.1776  0.2761
 2198TIP3    H128229   5.599   1.575   0.420  0.9731 -0.0001  0.4793
 2198TIP3    H228230   5.638   1.430   0.399 -1.5073 -0.6362 -0.0199
 2199TIP3   OH228231   4.122   2.721   1.962  0.0899 -0.0034 -0.7796
 2199TIP3    H128232   4.168   2.692   2.041 -2.3960 -1.5318  0.2395
 2199TIP3    H228233   4.118   2.816   1.970  1.3306  0.0121  0.0535
 2200TIP3   OH228234   0.917   3.080   0.259 -0.2391 -0.1778 -0.1241
 2200TIP3    H128235   0.911   2.985   0.249 -2.7411  0.0564 -1.5078
 2200TIP3    H228236   1.011   3.097   0.269  0.4529 -2.6148 -1.6841
 2201TIP3   OH228237   1.604   6.372   2.233  0.1334  0.1186  0.3994
 2201TIP3    H128238   1.520   6.412   2.211 -0.1006  0.3460  1.5890
 2201TIP3    H228239   1.583   6.309   2.302  1.0156  0.7288  1.2786
 2202TIP3   OH228240   5.235   2.886   7.127  0.2131 -0.0489 -0.3266
 2202TIP3    H128241   5.148   2.851   7.107 -0.3100  1.1221 -0.2059
 2202TIP3    H228242   5.285   2.874   7.047 -0.0714 -0.6792 -0.4164
 2203TIP3   OH228243   1.169   6.308   7.578 -0.5130  0.0306  0.0013
 2203TIP3    H128244   1.158   6.213   7.570  0.2921 -0.1651  1.0211
 2203TIP3    H228245   1.197   6.336   7.491 -0.1548 -0.7621 -0.1500
 2204TIP3   OH228246   1.352   5.565   6.126  0.3228  0.0364 -0.2584
 2204TIP3    H128247   1.354   5.471   6.147  0.4929  0.1573  0.2868
 2204TIP3    H228248   1.432   5.580   6.076  0.0992 -0.1858 -0.6865
 2205TIP3   OH228249   6.081   6.932   0.445  0.1276  0.1171  0.0165
 2205TIP3    H128250   6.016   6.943   0.515 -0.1630  0.4747 -0.3044
 2205TIP3    H228251   6.165   6.951   0.487 -0.0488  0.3769  0.2595
 2206TIP3   OH228252   6.578   0.100   0.805  0.6124 -0.0791  0.5444
 2206TIP3    H128253   6.635   0.136   0.874  2.2935 -1.0210 -0.2862
 2206TIP3    H228254   6.632   0.035   0.761 -1.6744 -2.2383  0.7183
 2207TIP3   OH228255   1.781   0.094   0.096 -0.5388 -0.5981  0.0197
 2207TIP3    H128256   1.756   0.019   0.041  1.3769 -0.9710 -0.4127
 2207TIP3    H228257   1.740   0.169   0.053 -0.2054 -1.0623 -1.1681
 2208TIP3   OH228258   4.102   4.827   0.188 -0.3079 -0.2584 -0.2697
 2208TIP3    H128259   4.192   4.847   0.213  0.1107 -2.8153  0.4833
 2208TIP3    H228260   4.108   4.747   0.136 -2.0986 -0.1906 -0.6408
 2209TIP3   OH228261   4.710   5.054   7.512 -0.0408 -0.1269  0.1785
 2209TIP3    H128262   4.742   5.000   7.585 -0.9190  0.8160  1.2933
 2209TIP3    H228263   4.779   5.119   7.499  0.1625 -0.3567  0.0774
 2210TIP3   OH228264   5.056   5.473   8.413  0.4523 -0.4896  0.7512
 2210TIP3    H128265   5.134   5.487   8.360 -0.2309  1.6584  0.2114
 2210TIP3    H228266   4.993   5.432   8.354  1.2868 -2.7336  1.3339
 2211TIP3   OH228267   2.140   4.056   0.267 -0.1352 -0.3642  0.1389
 2211TIP3    H128268   2.063   4.078   0.319  1.6387  1.0491  2.3795
 2211TIP3    H228269   2.197   4.010   0.328  1.3631 -0.1518 -1.0444
 2212TIP3   OH228270   3.226   0.869   7.981  0.6086 -0.2029  0.5928
 2212TIP3    H128271   3.153   0.860   8.043 -0.6018  1.1951 -0.5617
 2212TIP3    H228272   3.263   0.781   7.976 -0.7313 -0.8654  1.5517
 2213TIP3   OH228273   4.708   5.590   2.709  0.7967  0.0063  0.7841
 2213TIP3    H128274   4.693   5.573   2.616 -0.4157 -1.7853  1.2601
 2213TIP3    H228275   4.628   5.632   2.739  1.6597  1.7474  0.8129
 2214TIP3   OH228276   0.171   1.785   0.981 -0.7598  0.0660  0.4165
 2214TIP3    H128277   0.147   1.719   1.046 -1.4994  0.1412  0.2265
 2214TIP3    H228278   0.095   1.843   0.976 -1.0861 -0.4465 -1.1626
 2215TIP3   OH228279   3.315   1.110   2.548 -0.3788  0.3405 -0.0898
 2215TIP3    H128280   3.262   1.037   2.514 -0.3752 -0.2447  1.1042
 2215TIP3    H228281   3.299   1.108   2.643  2.5484 -0.5043  0.4784
 2216TIP3   OH228282   0.028   0.253   1.701 -0.0496  0.1188 -0.1441
 2216TIP3    H128283  -0.010   0.299   1.776  0.0963 -1.8809  1.2281
 2216TIP3    H228284   0.123   0.261   1.714 -0.0163 -0.8906  0.3633
 2217TIP3   OH228285   4.855   4.744   7.687 -0.7544 -0.3026  0.6142
 2217TIP3    H128286   4.888   4.782   7.768 -1.9184 -0.7536  1.3216
 2217TIP3    H228287   4.923   4.763   7.622  0.0503  0.3361  1.6164
 2218TIP3   OH228288   1.871   5.530   2.524 -0.2385  0.1808  0.5310
 2218TIP3    H128289   1.937   5.585   2.564 -0.0711  0.1499  0.3026
 2218TIP3    H228290   1.901   5.440   2.541  1.4190  0.1211 -2.1387
 2219TIP3   OH228291   1.568   2.455   8.253  0.0720  0.3776 -0.4705
 2219TIP3    H128292   1.556   2.368   8.214 -1.6583  0.7372 -0.8475
 2219TIP3    H228293   1.540   2.515   8.184  1.4629  1.2543 -0.2868
 2220TIP3   OH228294   0.596   6.708   8.381  0.2056  0.2382 -0.3017
 2220TIP3    H128295   0.581   6.794   8.420 -0.7102 -0.0484  0.0007
 2220TIP3    H228296   0.524   6.654   8.413  1.1097 -0.8221  0.0324
 2221TIP3   OH228297   4.452   6.961   2.379  0.0973 -0.3390  0.2084
 2221TIP3    H128298   4.424   7.052   2.389  0.4023 -0.0081 -1.6260
 2221TIP3    H228299   4.546   6.966   2.365  0.2393 -1.0082  0.8925
 2222TIP3   OH228300   1.899   6.785   0.513  0.1880 -0.1256  0.5639
 2222TIP3    H128301   1.920   6.720   0.580  1.7382 -0.9616 -0.6729
 2222TIP3    H228302   1.951   6.862   0.537  1.0262 -0.5512  0.1463
 2223TIP3   OH228303   5.182   2.827   8.397 -0.3326  0.5368 -0.0529
 2223TIP3    H128304   5.166   2.859   8.308 -3.0564 -1.6086 -0.4468
 2223TIP3    H228305   5.212   2.905   8.445  0.9785  1.8201 -2.7151
 2224TIP3   OH228306   6.540   5.584   7.903  0.1490 -0.1601 -0.4048
 2224TIP3    H128307   6.568   5.493   7.892 -1.7018 -0.9190  0.6460
 2224TIP3    H228308   6.480   5.582   7.978  0.0608  1.9425 -0.3464
 2225TIP3   OH228309   3.397   0.384   8.334 -0.5424 -0.7703 -0.4866
 2225TIP3    H128310   3.473   0.384   8.393 -1.4451  1.1263  0.7597
 2225TIP3    H228311   3.428   0.429   8.255 -0.1380 -0.7410 -0.3127
 2226TIP3   OH228312   5.865   1.610   8.024 -0.2982 -0.0781  0.0989
 2226TIP3    H128313   5.789   1.568   8.064 -0.5137 -0.4463 -0.6676
 2226TIP3    H228314   5.880   1.689   8.076  0.1545 -1.1138  1.6164
 2227TIP3   OH228315   4.651   6.801   8.061  0.0669 -0.5141  0.1370
 2227TIP3    H128316   4.586   6.766   8.122  0.6902 -1.0265  0.5172
 2227TIP3    H228317   4.733   6.798   8.110  0.2047  1.2001  0.0816
 2228TIP3   OH228318   1.793   5.047   0.652  0.1621  0.0310  0.2004
 2228TIP3    H128319   1.843   4.971   0.624  0.8413  0.3071  0.6496
 2228TIP3    H228320   1.703   5.029   0.623  0.8336  0.4081 -2.4377
 2229TIP3   OH228321   6.354   4.215   7.714 -0.0735 -0.2341  0.6880
 2229TIP3    H128322   6.334   4.286   7.653  0.3078 -1.9571 -1.5634
 2229TIP3    H228323   6.281   4.215   7.776 -0.4860  1.5583  0.2565
 2230TIP3   OH228324   4.111   2.569   1.185  0.3918  0.3555 -0.6384
 2230TIP3    H128325   4.054   2.646   1.189 -1.2875 -0.9033  1.0023
 2230TIP3    H228326   4.199   2.605   1.177 -0.3451  2.4527  0.0326
 2231TIP3   OH228327   1.479   4.198   0.804 -0.5042 -0.1812  0.6183
 2231TIP3    H128328   1.425   4.124   0.834  0.8379 -2.0956 -1.3714
 2231TIP3    H228329   1.564   4.183   0.845 -0.6935  1.4077  1.7044
 2232TIP3   OH228330   4.878   2.784   8.485 -0.2230 -0.0546  0.3193
 2232TIP3    H128331   4.838   2.752   8.404  0.0222 -1.8526  0.8639
 2232TIP3    H228332   4.964   2.815   8.458 -0.5097  0.2574 -0.2567
 2233TIP3   OH228333   2.702   4.430   1.977  0.1569 -0.3516 -0.0792
 2233TIP3    H128334   2.684   4.481   2.056 -0.3297 -1.1028  0.3062
 2233TIP3    H228335   2.777   4.376   1.999  0.1616 -0.3994 -0.2074
 2234TIP3   OH228336   2.601   6.022   0.693  0.0612 -0.2792  0.3750
 2234TIP3    H128337   2.524   6.005   0.639  0.0571 -0.1446  0.3393
 2234TIP3    H228338   2.573   6.001   0.782  0.5700 -2.2348  0.1374
 2235TIP3   OH228339   1.581   1.288   8.055 -0.5647 -0.2481 -0.6762
 2235TIP3    H128340   1.610   1.255   7.970 -0.4616 -0.5391 -0.5303
 2235TIP3    H228341   1.532   1.368   8.035 -0.3039 -0.1643 -0.9861
 2236TIP3   OH228342   3.844   5.098   0.912  0.0143  0.0537 -0.4663
 2236TIP3    H128343   3.820   5.128   1.000 -0.7115 -0.1553 -0.5866
 2236TIP3    H228344   3.800   5.159   0.853  0.3805  0.1053 -0.6869
 2237TIP3   OH228345   4.094   5.378   2.072  0.3834  0.5422 -0.2690
 2237TIP3    H128346   4.030   5.416   2.133  1.5904 -1.1837  2.2751
 2237TIP3    H228347   4.048   5.305   2.031  0.5082 -0.5072  1.3288
 2238TIP3   OH228348   3.019   3.571   1.903 -0.1595 -0.3189  0.2804
 2238TIP3    H128349   3.037   3.486   1.863 -1.9593 -1.0687  0.9272
 2238TIP3    H228350   2.963   3.616   1.840  0.3271  0.1762  0.1917
 2239TIP3   OH228351   3.330   3.646   7.692 -0.4822 -0.4187 -0.1942
 2239TIP3    H128352   3.377   3.625   7.773 -0.6683 -0.9532 -0.2243
 2239TIP3    H228353   3.392   3.701   7.643 -0.2524 -0.3390  0.1761
 2240TIP3   OH228354   3.331   4.962   7.863 -0.0323 -0.4028 -0.1981
 2240TIP3    H128355   3.261   5.004   7.913  1.1377  0.1666  1.0406
 2240TIP3    H228356   3.323   4.997   7.775  0.5003  1.9920  0.6391
 2241TIP3   OH228357   5.676   0.804   7.323  0.3065 -0.1024  0.1782
 2241TIP3    H128358   5.583   0.785   7.310  0.0427  1.1180  0.1868
 2241TIP3    H228359   5.696   0.876   7.263  1.3489 -0.5814 -0.0867
 2242TIP3   OH228360   1.795   0.090   2.632  0.1124 -0.5298  0.6871
 2242TIP3    H128361   1.838   0.113   2.715 -1.2085 -1.3452  1.6348
 2242TIP3    H228362   1.740   0.166   2.612  1.3332  0.1817 -0.1167
 2243TIP3   OH228363   2.862   5.782   1.435 -0.3140 -0.0646 -0.1389
 2243TIP3    H128364   2.770   5.754   1.433  0.0550 -1.4355  0.8693
 2243TIP3    H228365   2.866   5.844   1.508 -0.1023 -1.3636  0.9849
 2244TIP3   OH228366   6.948   1.725   2.273  0.6408  0.2753 -0.3220
 2244TIP3    H128367   6.889   1.789   2.233 -0.1705 -0.1275  0.2249
 2244TIP3    H228368   6.949   1.748   2.366 -1.7716 -2.0744  0.4146
 2245TIP3   OH228369   0.643   0.396   1.633  0.1490  0.1369 -0.0765
 2245TIP3    H128370   0.590   0.320   1.608 -0.1782  0.4972 -0.4960
 2245TIP3    H228371   0.654   0.446   1.552  2.6247 -0.8022 -0.3759
 2246TIP3   OH228372   6.958   1.158   2.069 -0.1417 -0.0026 -0.2847
 2246TIP3    H128373   6.989   1.135   2.157 -0.9832  1.2421  0.3824
 2246TIP3    H228374   7.037   1.171   2.018  0.3667 -0.8431  0.2589
 2247TIP3   OH228375   0.657   0.502   0.628  0.3043  0.0498  0.4794
 2247TIP3    H128376   0.681   0.450   0.705  0.4087 -0.4426  0.1142
 2247TIP3    H228377   0.736   0.504   0.575  0.4184  0.9004  0.6614
 2248TIP3   OH228378   5.343   3.580   7.757  0.1711  0.0112  0.4857
 2248TIP3    H128379   5.324   3.565   7.849 -0.1155  0.9682  0.5923
 2248TIP3    H228380   5.438   3.567   7.750  0.2908  0.5502  1.0460
 2249TIP3   OH228381   0.754   5.636   8.072  0.3871 -0.6708 -0.6861
 2249TIP3    H128382   0.717   5.692   8.141  0.4885 -0.3508 -0.8874
 2249TIP3    H228383   0.782   5.557   8.117  1.0010 -0.2192 -0.2596
 2250TIP3   OH228384   4.269   4.212   8.189  0.2761 -0.3816  0.4271
 2250TIP3    H128385   4.222   4.162   8.255  2.3606 -0.3979  1.9712
 2250TIP3    H228386   4.258   4.161   8.108 -0.7930 -1.3030  1.1221
 2251TIP3   OH228387   5.372   4.968   7.688  0.1345 -0.1820 -0.0526
 2251TIP3    H128388   5.366   5.044   7.630 -1.3940  0.4976  0.9485
 2251TIP3    H228389   5.340   4.895   7.635 -2.2253  0.6096  0.1989
 2252TIP3   OH228390   4.127   4.252   2.423  0.5114  0.0823  0.0615
 2252TIP3    H128391   4.188   4.199   2.372 -0.4382 -0.2566 -0.7550
 2252TIP3    H228392   4.077   4.188   2.474  0.1140  0.2733 -0.0871
 2253TIP3   OH228393   1.794   6.944   2.356  0.4052 -0.2681  0.1822
 2253TIP3    H128394   1.801   7.040   2.354  1.1453 -0.2748  1.5489
 2253TIP3    H228395   1.850   6.917   2.429 -0.6472 -1.6673  0.5099
 2254TIP3   OH228396   6.274   1.915   0.296  0.6677  0.0960  0.7573
 2254TIP3    H128397   6.347   1.883   0.348  0.2629 -0.2529  1.1164
 2254TIP3    H228398   6.235   1.984   0.350  0.6582  0.1986  0.6198
 2255TIP3   OH228399   2.646   3.303   1.224 -0.5840  0.6838  0.4959
 2255TIP3    H128400   2.604   3.372   1.276 -2.0459 -0.2733  0.6275
 2255TIP3    H228401   2.587   3.289   1.151  1.0692  1.4658 -1.0745
 2256TIP3   OH228402   2.454   2.703   0.046  0.2273 -0.1588  0.2225
 2256TIP3    H128403   2.500   2.765  -0.011  0.5915 -1.2036 -0.6645
 2256TIP3    H228404   2.500   2.620   0.032 -2.4289 -1.4918 -1.4058
 2257TIP3   OH228405   2.505   4.997   1.373  0.5081  0.2647  0.0617
 2257TIP3    H128406   2.474   5.066   1.314  0.8239 -0.0530 -0.4881
 2257TIP3    H228407   2.482   4.915   1.329  1.1451  0.0239  0.1597
 2258TIP3   OH228408   1.930   6.262   0.026 -0.4952  0.1604 -0.4701
 2258TIP3    H128409   1.918   6.318  -0.051  1.1162 -1.1048 -1.7053
 2258TIP3    H228410   1.842   6.249   0.061 -1.1767  1.3481 -1.6655
 2259TIP3   OH228411   6.330   5.507   0.316 -0.5543 -0.1282 -0.0022
 2259TIP3    H128412   6.356   5.591   0.278  1.1930 -0.9438 -0.7058
 2259TIP3    H228413   6.394   5.490   0.385 -0.1720 -1.4004 -0.6369
 2260TIP3   OH228414   4.169   6.946   1.330  0.2031  0.2982  0.0953
 2260TIP3    H128415   4.124   6.904   1.257 -3.3674  0.6100  1.9190
 2260TIP3    H228416   4.177   6.878   1.396 -0.5890  1.0415  0.9927
 2261TIP3   OH228417   5.438   3.345   2.585 -0.0889 -0.1065  0.6074
 2261TIP3    H128418   5.381   3.410   2.545 -0.0636  0.1268  0.9433
 2261TIP3    H228419   5.525   3.384   2.582 -0.2957  0.5522  2.1838
 2262TIP3   OH228420   2.067   0.478   0.181 -0.1887  0.9364  0.8670
 2262TIP3    H128421   2.078   0.453   0.273  0.4810 -1.4793  0.2160
 2262TIP3    H228422   2.030   0.400   0.140 -1.1005  2.1908 -0.8241
 2263TIP3   OH228423   4.057   6.204   1.857  0.2039  0.1301  0.3292
 2263TIP3    H128424   4.125   6.179   1.920  0.2344 -1.0746 -0.1636
 2263TIP3    H228425   3.975   6.195   1.906  0.3067  0.3393  0.5424
 2264TIP3   OH228426   6.194   0.643   7.507 -0.3336  0.6044 -0.2147
 2264TIP3    H128427   6.153   0.647   7.421 -2.5879  0.3540  0.7656
 2264TIP3    H228428   6.260   0.713   7.506 -1.6847  1.9328 -1.4562
 2265TIP3   OH228429   1.358   1.626   7.805  0.3426 -0.2927 -0.0462
 2265TIP3    H128430   1.409   1.672   7.739 -1.8236  2.0694 -0.2119
 2265TIP3    H228431   1.300   1.569   7.754  0.1888 -0.1250 -0.0578
 2266TIP3   OH228432   0.454   0.933   7.063  0.2671  0.0469 -0.2566
 2266TIP3    H128433   0.530   0.943   7.120  0.0975  0.0016 -0.0233
 2266TIP3    H228434   0.463   1.003   6.999  1.3826 -0.9282 -1.2241
 2267TIP3   OH228435   3.630   2.030   1.079  0.2439  0.4471  0.2298
 2267TIP3    H128436   3.688   1.998   1.010  0.7220  0.4753  0.6071
 2267TIP3    H228437   3.544   2.036   1.038  0.2136 -0.9564  0.0387
 2268TIP3   OH228438   0.754   5.480   0.732 -0.3518  0.1117 -0.2020
 2268TIP3    H128439   0.825   5.543   0.746 -0.0774 -0.5601  1.7253
 2268TIP3    H228440   0.775   5.406   0.789 -1.7186 -0.8705 -0.8933
 2269TIP3   OH228441   0.180   4.651   1.747  0.2265  0.2109 -0.1350
 2269TIP3    H128442   0.252   4.644   1.810 -0.3192 -0.5584  0.4356
 2269TIP3    H228443   0.152   4.560   1.733  0.2074  0.3961 -1.3429
 2270TIP3   OH228444   3.760   4.733   1.589 -0.2222  0.7423  0.1116
 2270TIP3    H128445   3.731   4.807   1.642 -3.0047  0.6106 -1.0682
 2270TIP3    H228446   3.744   4.656   1.644 -2.2047  0.6852 -0.4543
 2271TIP3   OH228447   6.909   4.045   7.260 -0.5166  0.2725  0.4568
 2271TIP3    H128448   6.955   4.118   7.301  0.4053  0.3796 -0.7301
 2271TIP3    H228449   6.969   4.013   7.192 -1.4490 -0.7472  0.0774
 2272TIP3   OH228450   5.222   2.255   7.862 -0.7380  0.0468 -0.2750
 2272TIP3    H128451   5.128   2.262   7.877 -0.6801 -1.2625  1.0026
 2272TIP3    H228452   5.252   2.194   7.930  0.9483  0.0479 -0.9717
 2273TIP3   OH228453   5.510   5.761   7.905 -0.0053 -0.1702 -0.0035
 2273TIP3    H128454   5.550   5.752   7.818  0.5063 -2.0321  0.3740
 2273TIP3    H228455   5.483   5.672   7.928 -1.0134  0.4475  1.3556
 2274TIP3   OH228456   0.525   2.426   2.241  0.0742  0.2960 -0.2201
 2274TIP3    H128457   0.470   2.410   2.318 -0.2339  1.1099 -0.2626
 2274TIP3    H228458   0.485   2.502   2.199  0.6769  0.3051 -0.7805
 2275TIP3   OH228459   5.793   4.964   8.056 -0.6536 -0.2749  0.5318
 2275TIP3    H128460   5.805   4.993   8.147 -1.1431 -1.6308  1.0496
 2275TIP3    H228461   5.852   4.889   8.047 -0.7210 -0.2372 -0.2314
 2276TIP3   OH228462   3.807   6.281   2.943  0.4320  0.1049  0.3045
 2276TIP3    H128463   3.829   6.188   2.939  0.9802  0.1080  2.1350
 2276TIP3    H228464   3.735   6.286   3.006  0.3364  0.8988  0.1409
 2277TIP3   OH228465   5.548   2.653   8.477  0.1521  0.5224  0.6192
 2277TIP3    H128466   5.517   2.736   8.441  1.5944  1.3276  1.1662
 2277TIP3    H228467   5.605   2.617   8.409 -0.0542  0.2171  0.6019
 2278TIP3   OH228468   6.310   5.634   1.243  0.2123  0.3294  0.3428
 2278TIP3    H128469   6.297   5.675   1.158  1.6540 -0.0322 -0.0841
 2278TIP3    H228470   6.369   5.693   1.290 -0.3206  0.3670  0.9871
 2279TIP3   OH228471   2.822   4.469   8.308  0.0860 -0.4461 -0.3850
 2279TIP3    H128472   2.899   4.452   8.362 -0.0720  0.3222  0.1025
 2279TIP3    H228473   2.756   4.501   8.370 -0.8105 -1.6002 -0.7056
 2280TIP3   OH228474   6.845   6.714   2.847  0.2096 -0.0737  0.1972
 2280TIP3    H128475   6.764   6.748   2.809  0.4239 -0.0129 -0.2127
 2280TIP3    H228476   6.863   6.772   2.921 -0.7244 -0.7755  0.9872
 2281TIP3   OH228477   6.604   6.021   0.880  0.1848  0.6628  0.3746
 2281TIP3    H128478   6.632   5.988   0.795 -1.7608  1.9121 -0.8182
 2281TIP3    H228479   6.644   6.108   0.885  0.5077  0.4902  0.8822
 2282TIP3   OH228480   0.655   5.824   6.608 -0.1076  0.5506 -0.2973
 2282TIP3    H128481   0.583   5.762   6.610  1.3935 -1.2590  0.4638
 2282TIP3    H228482   0.654   5.859   6.519 -1.0353 -0.5113 -0.7294
 2283TIP3   OH228483   4.911   1.596   2.239 -0.5646  0.2712 -0.0731
 2283TIP3    H128484   4.984   1.657   2.254 -0.7258  0.1554  1.3465
 2283TIP3    H228485   4.952   1.516   2.206  0.0606 -0.0422  1.3938
 2284TIP3   OH228486   3.636   6.184   0.045  0.3930 -0.2914 -0.1151
 2284TIP3    H128487   3.695   6.112   0.069 -1.4415 -1.6097  0.7138
 2284TIP3    H228488   3.587   6.151  -0.031 -1.4994 -0.5972  1.1571
 2285TIP3   OH228489   1.919   2.795   1.445  0.2551  0.1262  0.0517
 2285TIP3    H128490   1.886   2.883   1.427  0.2855  0.1738  0.2262
 2285TIP3    H228491   1.979   2.807   1.519  1.2645  0.1723 -0.7443
 2286TIP3   OH228492   3.606   4.770   2.418  0.5179  0.1459 -0.2644
 2286TIP3    H128493   3.602   4.833   2.346  2.7887  0.3346 -0.2905
 2286TIP3    H228494   3.525   4.720   2.410  0.3665  0.6192 -2.5320
 2287TIP3   OH228495   5.613   0.866   8.358  0.2980 -0.4455 -0.7967
 2287TIP3    H128496   5.668   0.908   8.292  1.1194  0.3879  0.3571
 2287TIP3    H228497   5.602   0.776   8.327 -0.6035  0.3106 -2.7953
 2288TIP3   OH228498   2.550   4.442   0.188  0.3746 -0.9022 -0.3556
 2288TIP3    H128499   2.515   4.388   0.259 -1.9604  0.8249 -0.0649
 2288TIP3    H228500   2.563   4.382   0.115 -1.5086 -1.9862  0.1512
 2289TIP3   OH228501   1.802   0.844   0.157 -0.0275 -0.2836 -0.5555
 2289TIP3    H128502   1.782   0.755   0.187 -2.8193  0.4196  0.0019
 2289TIP3    H228503   1.809   0.836   0.062 -0.3261 -1.1079 -0.5221
 2290TIP3   OH228504   4.034   1.122   7.724  0.2174  0.2912  0.1690
 2290TIP3    H128505   4.090   1.047   7.744  1.8084  1.7297  1.3270
 2290TIP3    H228506   3.978   1.131   7.802  1.1616  1.2527  0.7703
 2291TIP3   OH228507   0.142   0.986   7.254 -0.8883 -0.5856  0.5709
 2291TIP3    H128508   0.209   1.050   7.278 -0.7142 -0.2651 -0.7284
 2291TIP3    H228509   0.191   0.907   7.231 -0.8387 -0.0232 -1.4363
 2292TIP3   OH228510   0.011   0.693   6.841 -0.3627  0.4545  0.0955
 2292TIP3    H128511   0.031   0.684   6.934 -0.9163  2.0388  0.4051
 2292TIP3    H228512   0.077   0.640   6.797 -2.4485 -3.6610  1.4461
 2293TIP3   OH228513   4.252   3.067   0.152  0.2751  0.3574  0.0320
 2293TIP3    H128514   4.260   3.099   0.241 -1.9251  1.8716 -0.2111
 2293TIP3    H228515   4.205   3.137   0.106 -0.6657 -1.3212 -1.7203
 2294TIP3   OH228516   3.578   1.111   0.132  0.1106  0.8257 -0.0769
 2294TIP3    H128517   3.491   1.151   0.136 -0.1078  0.3560 -0.0219
 2294TIP3    H228518   3.630   1.159   0.196 -0.4629  0.2562  0.8293
 2295TIP3   OH228519   0.471   2.578   7.499 -0.4107 -0.1450 -0.2084
 2295TIP3    H128520   0.507   2.503   7.546 -0.5306  0.3225  0.6656
 2295TIP3    H228521   0.513   2.576   7.413 -0.4379 -1.2187 -0.2107
 2296TIP3   OH228522   1.150   1.729   1.106  0.3449 -0.2040 -0.3143
 2296TIP3    H128523   1.132   1.802   1.165 -1.8037 -1.1741  0.3115
 2296TIP3    H228524   1.079   1.732   1.042  0.8277 -1.1182 -0.9147
 2297TIP3   OH228525   6.593   4.609   2.579 -0.5662  0.1361  0.4080
 2297TIP3    H128526   6.571   4.530   2.529 -1.0229  1.7202 -2.0499
 2297TIP3    H228527   6.643   4.577   2.654  1.0597 -2.3328 -1.5820
 2298TIP3   OH228528   4.851   3.236   7.807  0.7651  0.0860 -0.5915
 2298TIP3    H128529   4.822   3.318   7.767 -3.7297 -1.2331 -0.6224
 2298TIP3    H228530   4.945   3.233   7.791  0.9499  4.5480 -1.7041
 2299TIP3   OH228531   0.175   0.818   1.763 -0.1668  0.2136  0.1718
 2299TIP3    H128532   0.219   0.881   1.820 -0.7956 -0.8135  1.8722
 2299TIP3    H228533   0.246   0.764   1.728  0.2506  1.0046 -0.2125
 2300TIP3   OH228534   5.406   2.555   7.803 -0.0429 -0.3139 -0.7280
 2300TIP3    H128535   5.459   2.478   7.781  0.3543 -0.5914  0.9949
 2300TIP3    H228536   5.370   2.534   7.889  1.6790  2.1940  0.7290
 2301TIP3   OH228537   1.010   3.883   8.130  0.1247 -0.1129  0.0280
 2301TIP3    H128538   0.979   3.959   8.080  1.4020 -1.1501 -2.5418
 2301TIP3    H228539   0.935   3.856   8.182 -0.0118  3.6486  2.1361
 2302TIP3   OH228540   1.999   5.792   0.340  0.1082  0.0715  0.5839
 2302TIP3    H128541   2.070   5.809   0.401  1.5781 -2.0406 -0.4097
 2302TIP3    H228542   2.020   5.845   0.263 -0.2447  0.6351  0.8751
 2303TIP3   OH228543   6.599   2.015   7.828 -0.4774  0.3618 -0.0817
 2303TIP3    H128544   6.669   2.031   7.891  0.7220 -0.9166 -1.0190
 2303TIP3    H228545   6.580   2.101   7.790 -0.4007  0.9472  1.1696
 2304TIP3   OH228546   3.955   0.010   2.680  0.0498  0.4110  0.8678
 2304TIP3    H128547   3.890   0.033   2.746 -2.1123 -2.0554 -0.2373
 2304TIP3    H228548   3.978  -0.081   2.699 -1.1946 -0.6412 -2.0667
 2305TIP3   OH228549   3.616   3.403   7.527 -0.7980 -0.1257  0.1353
 2305TIP3    H128550   3.652   3.492   7.521 -0.2015 -0.3742 -0.0824
 2305TIP3    H228551   3.533   3.407   7.481 -1.1888  0.5308  0.8829
 2306TIP3   OH228552   0.182   1.317   8.436 -0.0737  0.1005  0.5621
 2306TIP3    H128553   0.122   1.332   8.509 -0.5041  0.7960  0.0828
 2306TIP3    H228554   0.247   1.256   8.470 -1.4632 -1.2660  0.8805
 2307TIP3   OH228555   6.098   3.375   7.676  0.5375  0.1967  0.1289
 2307TIP3    H128556   6.063   3.286   7.675  0.0986  0.3702 -0.3355
 2307TIP3    H228557   6.022   3.431   7.661  0.8684  0.6298  0.0388
 2308TIP3   OH228558   5.833   1.685   0.571 -0.7677 -0.7526  0.1204
 2308TIP3    H128559   5.778   1.610   0.597 -0.5603 -0.7027  0.7218
 2308TIP3    H228560   5.786   1.724   0.498 -0.4551 -1.9725 -0.7685
 2309TIP3   OH228561   4.543   5.763   1.399  0.4898 -0.2683  0.4713
 2309TIP3    H128562   4.526   5.850   1.434  0.1513 -0.5211  0.9441
 2309TIP3    H228563   4.623   5.735   1.442  1.1098  0.1683 -0.3627
 2310TIP3   OH228564   6.943   4.112   1.679  0.1146 -0.6125 -0.0243
 2310TIP3    H128565   6.992   4.030   1.671  1.7595  0.3359 -0.2242
 2310TIP3    H228566   6.985   4.171   1.616 -0.8656  0.4550  0.2923
 2311TIP3   OH228567   3.827   2.006   1.299 -0.3720  0.0097  0.2466
 2311TIP3    H128568   3.840   2.095   1.333 -0.3964 -0.3305  1.1620
 2311TIP3    H228569   3.756   2.015   1.235 -1.6877  0.3442  1.7016
 2312TIP3   OH228570   1.257   3.983   8.098 -0.1943  0.1596  0.1117
 2312TIP3    H128571   1.201   3.909   8.122 -1.7346  1.1942 -0.0736
 2312TIP3    H228572   1.288   3.962   8.010  1.8502 -1.6029  1.1840
 2313TIP3   OH228573   6.584   2.429   2.410 -0.0694  0.4081 -0.2006
 2313TIP3    H128574   6.669   2.409   2.450 -1.0926  0.3986  2.0957
 2313TIP3    H228575   6.591   2.521   2.384  0.6360  0.4041 -0.0541
 2314TIP3   OH228576   2.759   2.112   1.921 -0.6389  0.0844  0.0390
 2314TIP3    H128577   2.703   2.185   1.893  0.3252  0.5223 -0.8030
 2314TIP3    H228578   2.823   2.103   1.851  1.4127  0.6972  1.7472
 2315TIP3   OH228579   0.885   1.130   2.597 -0.6203 -0.8314 -0.3189
 2315TIP3    H128580   0.961   1.074   2.578  0.8106  0.7269  0.5152
 2315TIP3    H228581   0.904   1.168   2.682 -1.3481  1.1756 -1.0036
 2316TIP3   OH228582   2.961   5.567   1.601 -0.0413 -0.1427 -0.0724
 2316TIP3    H128583   2.892   5.519   1.646 -0.8334  0.0598 -1.0202
 2316TIP3    H228584   2.916   5.644   1.565  1.0725  0.9880  0.8805
 2317TIP3   OH228585   4.470   3.737   2.038  0.1106 -0.0045  0.3926
 2317TIP3    H128586   4.391   3.786   2.060  0.9819  1.7524 -0.2165
 2317TIP3    H228587   4.486   3.680   2.114 -0.8647  0.7490  1.1761
 2318TIP3   OH228588   5.489   3.826   0.473 -0.0407  0.1126  0.2755
 2318TIP3    H128589   5.475   3.888   0.544 -0.1062  1.7710 -1.1149
 2318TIP3    H228590   5.576   3.848   0.439 -0.4734  0.1045 -0.8651
 2319TIP3   OH228591   4.574   0.559   0.043  0.6059  0.5963 -0.2062
 2319TIP3    H128592   4.621   0.588  -0.036  0.6450  0.2216 -0.3243
 2319TIP3    H228593   4.588   0.464   0.045  1.0813  0.6765  0.5699
 2320TIP3   OH228594   6.208   2.965   7.508 -0.0947 -0.3364  0.4126
 2320TIP3    H128595   6.144   2.914   7.558  1.6913 -0.2555  2.9908
 2320TIP3    H228596   6.250   2.901   7.450 -0.2928 -1.0879  1.0770
 2321TIP3   OH228597   0.208   3.382   2.287 -0.4805 -0.2113  0.7481
 2321TIP3    H128598   0.163   3.415   2.365 -1.2876  0.3787  0.0470
 2321TIP3    H228599   0.165   3.299   2.268  0.9215 -1.2568  1.9616
 2322TIP3   OH228600   2.874   4.084   1.607 -0.5338  0.2359  0.2916
 2322TIP3    H128601   2.904   4.048   1.524  1.7645  1.5042  0.4711
 2322TIP3    H228602   2.941   4.058   1.670 -2.2472 -0.7263  1.7981
 2323TIP3   OH228603   2.023   3.761   6.984 -1.0689  0.1158 -0.0746
 2323TIP3    H128604   1.937   3.796   7.006 -1.2289  0.1353 -0.7074
 2323TIP3    H228605   2.054   3.816   6.912 -0.5783  0.0324  0.0669
 2324TIP3   OH228606   2.043   4.305   1.708 -0.4738  0.1430  0.6210
 2324TIP3    H128607   1.955   4.288   1.743 -1.0403 -0.2763 -0.9163
 2324TIP3    H228608   2.092   4.225   1.728 -0.1177  0.7571  2.3545
 2325TIP3   OH228609   0.263   3.482   7.252 -0.1257 -0.3591 -0.2834
 2325TIP3    H128610   0.246   3.390   7.271 -1.7739 -0.2599 -1.1122
 2325TIP3    H228611   0.307   3.515   7.331 -0.9194 -1.4810  0.6567
 2326TIP3   OH228612   5.473   4.534   1.815  0.3835  0.1628 -0.8549
 2326TIP3    H128613   5.496   4.544   1.722  1.2754 -1.3376 -0.8316
 2326TIP3    H228614   5.497   4.618   1.854 -0.3808  0.9587 -2.0423
 2327TIP3   OH228615   0.533   0.516   2.153  1.4082 -0.0372  0.5072
 2327TIP3    H128616   0.599   0.561   2.206  0.1709  1.5473  0.7767
 2327TIP3    H228617   0.561   0.531   2.063  1.9287 -0.1992  0.6392
 2328TIP3   OH228618   4.327   5.412   7.402 -0.5064  0.3964  0.5869
 2328TIP3    H128619   4.399   5.412   7.338  0.2819 -1.5395  1.3885
 2328TIP3    H228620   4.315   5.504   7.425 -1.1558  1.2580 -2.6503
 2329TIP3   OH228621   4.056   3.883   7.309  0.1261  0.2065  0.3381
 2329TIP3    H128622   3.984   3.856   7.365 -0.0436  0.8335  0.4350
 2329TIP3    H228623   4.017   3.889   7.222  0.4549 -1.0363  0.0926
 2330TIP3   OH228624   6.600   5.333   2.314 -0.0787 -0.0100  0.5850
 2330TIP3    H128625   6.589   5.296   2.402  0.1920  1.0236  1.0713
 2330TIP3    H228626   6.580   5.261   2.255 -0.4678 -0.6697  1.4961
 2331TIP3   OH228627   0.375   3.604   7.030  0.1889 -0.0871  0.1921
 2331TIP3    H128628   0.329   3.546   7.091 -1.0635  0.1319 -0.5049
 2331TIP3    H228629   0.425   3.663   7.086  1.2762 -1.6362  0.9282
 2332TIP3   OH228630   6.195   6.835   7.577  0.2092 -0.6966 -0.1861
 2332TIP3    H128631   6.269   6.829   7.638  0.9126 -0.4339 -0.9804
 2332TIP3    H228632   6.224   6.786   7.500 -0.4240 -0.5402 -0.5277
 2333TIP3   OH228633   3.663   3.996   7.703 -0.3207  0.8502 -0.0494
 2333TIP3    H128634   3.692   3.924   7.759 -0.7153 -0.0717 -0.9938
 2333TIP3    H228635   3.743   4.045   7.683 -0.0151  0.5555  0.4495
 2334TIP3   OH228636   1.551   5.469   7.842 -0.1133  0.7673 -0.3235
 2334TIP3    H128637   1.461   5.438   7.830  0.1263  0.5591 -1.7512
 2334TIP3    H228638   1.544   5.564   7.838 -0.2972  0.7603 -0.1962
 2335TIP3   OH228639   3.164   3.520   2.214  0.2365  0.2489 -0.0145
 2335TIP3    H128640   3.170   3.538   2.120  2.0962 -0.4387 -0.0667
 2335TIP3    H228641   3.148   3.606   2.254  0.1091  0.6491 -0.9001
 2336TIP3   OH228642   2.315   6.211   0.410 -0.3075 -0.0879  0.5661
 2336TIP3    H128643   2.315   6.244   0.320 -2.0012 -1.6050 -0.0246
 2336TIP3    H228644   2.408   6.202   0.432  0.1861  2.1764 -0.2590
 2337TIP3   OH228645   5.811   2.311   8.357 -0.1706  0.2788 -0.1660
 2337TIP3    H128646   5.820   2.321   8.451  2.3370 -2.5407  0.0085
 2337TIP3    H228647   5.816   2.217   8.341  2.8803  0.7475 -3.2996
 2338TIP3   OH228648   6.183   0.713   7.236  0.4724 -0.0589  0.0488
 2338TIP3    H128649   6.221   0.639   7.188  1.1387 -0.5997  1.3645
 2338TIP3    H228650   6.219   0.790   7.193  0.0334 -0.4880 -1.1320
 2339TIP3   OH228651   5.910   6.013   2.224 -0.2737 -0.3942  0.0243
 2339TIP3    H128652   5.953   5.949   2.168 -2.3525 -0.8407 -1.1550
 2339TIP3    H228653   5.892   5.966   2.306 -0.3486 -0.8237 -0.2358
 2340TIP3   OH228654   0.310   1.888   7.766 -0.9247 -0.2112 -0.2979
 2340TIP3    H128655   0.299   1.951   7.836 -2.2055  0.8576 -1.3964
 2340TIP3    H228656   0.264   1.810   7.797 -0.6022 -0.1090  0.4580
 2341TIP3   OH228657   6.481   6.191   0.453  0.1384 -0.2792  0.0958
 2341TIP3    H128658   6.387   6.180   0.471  0.2852  0.7637  1.6734
 2341TIP3    H228659   6.520   6.208   0.539  1.5567  0.7939 -0.7264
 2342TIP3   OH228660   1.677   0.108   1.001 -0.1334  0.2532  0.3848
 2342TIP3    H128661   1.624   0.185   1.023  0.0228  1.0374 -1.7143
 2342TIP3    H228662   1.643   0.081   0.916  0.3824 -1.5241  0.7190
 2343TIP3   OH228663   6.248   3.098   0.817  0.4909  0.5909  0.2336
 2343TIP3    H128664   6.303   3.053   0.753  0.4210  1.0213 -0.1304
 2343TIP3    H228665   6.227   3.031   0.882  1.2521  0.3629  0.2530
 2344TIP3   OH228666   6.380   6.253   2.172 -0.2979 -0.4568  0.3258
 2344TIP3    H128667   6.384   6.174   2.226 -0.8887 -2.0129 -1.7697
 2344TIP3    H228668   6.463   6.253   2.123 -0.1552  0.4139  0.5566
 2345TIP3   OH228669   1.325   5.918   1.469  0.5982  0.2582 -0.3713
 2345TIP3    H128670   1.372   5.841   1.438 -0.1168 -0.5158  0.3934
 2345TIP3    H228671   1.270   5.945   1.395  0.8264  0.0127 -0.6302
 2346TIP3   OH228672   3.311   2.988   2.722 -0.0104  0.1358  0.6458
 2346TIP3    H128673   3.360   3.046   2.780  0.4357  1.2736 -0.7951
 2346TIP3    H228674   3.227   2.975   2.766  0.6540  0.1808  1.9777
 2347TIP3   OH228675   1.605   4.197   7.697  0.4075 -0.1079 -0.7827
 2347TIP3    H128676   1.578   4.177   7.608  0.2877  1.0456 -1.0181
 2347TIP3    H228677   1.559   4.278   7.718  1.4029  0.3007 -0.1179
 2348TIP3   OH228678   1.759   0.616   1.478 -0.2942 -0.2281  0.5416
 2348TIP3    H128679   1.734   0.533   1.437 -1.9315 -0.2564  1.4742
 2348TIP3    H228680   1.826   0.592   1.541 -0.0977 -0.7023  0.1564
 2349TIP3   OH228681   6.073   1.288   0.180 -0.2610 -0.2086 -0.1129
 2349TIP3    H128682   6.014   1.331   0.241  2.1658  1.2511  1.3592
 2349TIP3    H228683   6.135   1.240   0.235  1.8937  0.9840 -1.3366
 2350TIP3   OH228684   3.442   1.925   8.379 -0.0137 -1.0383 -0.0764
 2350TIP3    H128685   3.520   1.918   8.434  0.2225 -1.5439 -0.4644
 2350TIP3    H228686   3.397   2.004   8.409 -0.0442 -1.4677  1.0384
 2351TIP3   OH228687   5.427   3.366   0.780 -0.2407 -0.2127 -0.3738
 2351TIP3    H128688   5.469   3.283   0.803  1.6207  1.3207  2.2571
 2351TIP3    H228689   5.484   3.404   0.713  1.0237  0.5024  1.0406
 2352TIP3   OH228690   5.603   5.095   7.248 -0.2014 -0.1952 -0.0910
 2352TIP3    H128691   5.669   5.109   7.180  0.8269 -0.3496  0.8461
 2352TIP3    H228692   5.646   5.123   7.328 -0.5483 -2.2012  0.8536
 2353TIP3   OH228693   3.026   1.409   0.837  0.5697  0.5118  0.3666
 2353TIP3    H128694   3.067   1.458   0.909  1.1698 -0.1035  0.4533
 2353TIP3    H228695   3.031   1.318   0.865  0.9885  0.2463 -0.5429
 2354TIP3   OH228696   0.967   0.801   0.860  0.3614 -0.2599 -0.7248
 2354TIP3    H128697   1.018   0.828   0.936  1.0646  0.2558 -1.3817
 2354TIP3    H228698   0.934   0.714   0.884 -1.6292  0.9201  1.2539
 2355TIP3   OH228699   0.167   2.454   8.042 -0.4081  0.3950  0.3107
 2355TIP3    H128700   0.130   2.515   8.104  0.5527  0.8252  0.4815
 2355TIP3    H228701   0.127   2.370   8.063  1.0138  0.1966  2.5578
 2356TIP3   OH228702   4.421   1.465   0.248  0.1499 -0.4539 -0.0272
 2356TIP3    H128703   4.464   1.483   0.332  2.0645  1.1395 -1.2493
 2356TIP3    H228704   4.340   1.517   0.251  1.0152  0.9330  0.2180
 2357TIP3   OH228705   3.377   0.515   7.408  0.5725  0.0210  0.0391
 2357TIP3    H128706   3.339   0.434   7.373 -0.7043  0.0597  1.2484
 2357TIP3    H228707   3.457   0.528   7.356 -0.1599 -1.0061 -1.4222
 2358TIP3   OH228708   4.812   6.751   2.295  0.1952  0.4353 -0.1384
 2358TIP3    H128709   4.746   6.694   2.256 -0.6229 -0.8311  2.7997
 2358TIP3    H228710   4.896   6.714   2.267 -0.2987  0.7426 -2.1435
 2359TIP3   OH228711   4.878   5.544   0.169 -0.8121 -0.4634  0.0216
 2359TIP3    H128712   4.927   5.480   0.117  0.8017  0.9146 -0.2613
 2359TIP3    H228713   4.943   5.578   0.232 -1.6373  0.7950  0.2342
 2360TIP3   OH228714   2.124   0.525   2.794 -0.4583  0.3031  0.0658
 2360TIP3    H128715   2.146   0.472   2.717  0.3357  1.4513 -0.5150
 2360TIP3    H228716   2.064   0.469   2.844 -1.4253 -0.2672 -1.6363
 2361TIP3   OH228717   1.568   0.389   1.621  0.2311  0.2241 -0.1805
 2361TIP3    H128718   1.651   0.362   1.661  0.2361  0.6515  0.0945
 2361TIP3    H228719   1.585   0.385   1.527  0.0920 -1.2028 -0.1718
 2362TIP3   OH228720   5.842   0.785   3.198 -0.2222 -0.4347 -0.4809
 2362TIP3    H128721   5.805   0.872   3.216  2.0912  0.1415  2.0443
 2362TIP3    H228722   5.934   0.802   3.178  0.0719 -2.2680 -0.8107
 2363TIP3   OH228723   4.321   3.256   2.292  0.4216  0.3392 -0.5803
 2363TIP3    H128724   4.416   3.255   2.307  0.2705  0.2794  0.3983
 2363TIP3    H228725   4.294   3.344   2.316  0.2458  0.4052 -1.0096
 2364TIP3   OH228726   0.817   4.193   2.362 -0.1109 -0.2351 -1.0437
 2364TIP3    H128727   0.903   4.228   2.339 -0.1109  0.0099 -0.6742
 2364TIP3    H228728   0.774   4.265   2.408  0.5270 -1.2509  1.2901
 2365TIP3   OH228729   0.703   1.553   8.043 -0.4418 -0.5596 -0.9992
 2365TIP3    H128730   0.712   1.521   8.132 -0.0787  1.8579 -0.0880
 2365TIP3    H228731   0.786   1.596   8.024 -0.9149 -0.0776 -2.0920
 2366TIP3   OH228732   2.331   5.705   0.164 -0.6871 -0.1870  0.4886
 2366TIP3    H128733   2.287   5.626   0.195  1.0518 -2.4414 -2.1617
 2366TIP3    H228734   2.302   5.714   0.073  1.8656 -0.0255 -0.4000
 2367TIP3   OH228735   2.998   0.246   2.228  0.0622 -0.0451  0.0436
 2367TIP3    H128736   2.914   0.207   2.251  1.3139 -4.5343 -1.8186
 2367TIP3    H228737   3.063   0.189   2.271  2.2856  3.2026  1.3806
 2368TIP3   OH228738   5.961   1.860   0.724  0.2568 -0.5207  0.6161
 2368TIP3    H128739   5.931   1.779   0.682  2.0558 -1.8761  1.7600
 2368TIP3    H228740   6.054   1.845   0.741  0.9537  2.2819 -0.1419
 2369TIP3   OH228741   2.474   1.433   2.209 -0.2651 -0.5454 -0.3852
 2369TIP3    H128742   2.395   1.419   2.155  0.0139 -0.3897 -0.8405
 2369TIP3    H228743   2.525   1.353   2.197 -0.3060 -0.6036 -0.1704
 2370TIP3   OH228744   0.436   2.605   8.143  0.3893  0.0014 -0.6550
 2370TIP3    H128745   0.460   2.615   8.235  1.7719  0.2856 -1.0240
 2370TIP3    H228746   0.355   2.656   8.134 -1.1009 -1.9104  0.8875
 2371TIP3   OH228747   1.909   3.602   1.513  0.1815 -0.3829 -0.3864
 2371TIP3    H128748   1.977   3.608   1.446  0.2108  0.1911 -0.3100
 2371TIP3    H228749   1.855   3.679   1.499  0.6397  0.1749  0.7420
 2372TIP3   OH228750   2.537   4.433   1.069  0.0393  0.5545  0.1227
 2372TIP3    H128751   2.594   4.389   1.132 -0.8418  2.3517  2.3061
 2372TIP3    H228752   2.596   4.489   1.018  0.5562  0.4490  0.5925
 2373TIP3   OH228753   4.018   4.955   8.500  0.3858 -0.2983  0.1626
 2373TIP3    H128754   4.024   4.923   8.590 -0.8124 -0.8038  0.0796
 2373TIP3    H228755   4.007   4.876   8.447 -0.9699  0.1121 -0.2083
 2374TIP3   OH228756   2.013   5.469   2.180  0.6979  0.0524  0.3706
 2374TIP3    H128757   2.035   5.526   2.254  1.2611  0.7699 -0.3373
 2374TIP3    H228758   2.062   5.388   2.197  1.2440  0.4084  0.5180
 2375TIP3   OH228759   2.663   4.292   8.516 -0.1155  0.1323  0.3994
 2375TIP3    H128760   2.666   4.302   8.421  1.3319 -0.0210  0.4136
 2375TIP3    H228761   2.661   4.197   8.530 -2.3074  0.1434  0.5128
 2376TIP3   OH228762   1.072   1.344   1.093 -0.1196 -0.2900 -0.0688
 2376TIP3    H128763   1.015   1.420   1.078 -0.1770 -0.2888  0.1653
 2376TIP3    H228764   1.024   1.270   1.056  1.5582  0.3016 -3.9526
 2377TIP3   OH228765   0.376   3.502   7.519  0.2683 -0.2669  0.2099
 2377TIP3    H128766   0.395   3.495   7.612 -0.4703 -2.5053  0.2580
 2377TIP3    H228767   0.405   3.590   7.495  2.8643 -0.5243  1.9815
 2378TIP3   OH228768   3.868   1.549   7.262  0.0958  0.1412 -0.5721
 2378TIP3    H128769   3.806   1.595   7.319  0.0315 -0.5224 -0.0996
 2378TIP3    H228770   3.865   1.598   7.179 -1.3199 -0.0798 -0.6775
 2379TIP3   OH228771   4.879   4.466   7.233  0.5025  0.3710 -0.0968
 2379TIP3    H128772   4.796   4.466   7.280  1.0047  1.5667  0.8460
 2379TIP3    H228773   4.856   4.496   7.145 -0.0852  0.5916  0.1232
 2380TIP3   OH228774   1.637   5.019   8.411 -0.0739  0.2399  0.5321
 2380TIP3    H128775   1.703   4.956   8.439 -0.8577 -0.6498  0.4390
 2380TIP3    H228776   1.597   4.979   8.334 -0.2043  1.1133  0.1409
 2381TIP3   OH228777   6.126   1.296   1.855  0.1620  0.0562 -0.0436
 2381TIP3    H128778   6.141   1.265   1.944  2.4884 -0.2254 -0.4683
 2381TIP3    H228779   6.178   1.237   1.800 -0.6054  0.7028 -1.5176
 2382TIP3   OH228780   3.011   2.984   0.978  0.7983  0.3034  0.8532
 2382TIP3    H128781   2.938   3.038   0.950  1.2734 -0.2930 -1.8087
 2382TIP3    H228782   3.085   3.044   0.985  0.8402  0.3686 -0.0210
 2383TIP3   OH228783   3.186   2.456   0.000 -0.1350  0.3220 -0.2808
 2383TIP3    H128784   3.193   2.372   0.047  0.1137 -0.2595 -1.3227
 2383TIP3    H228785   3.245   2.446  -0.075 -1.5570  0.7040 -1.4746
 2384TIP3   OH228786   3.328   2.841   7.941  0.7175 -0.2769  0.2268
 2384TIP3    H128787   3.316   2.873   8.030  1.1252 -2.5582  1.1724
 2384TIP3    H228788   3.239   2.832   7.906  0.5479  0.3582  0.4749
 2385TIP3   OH228789   0.960   2.982   2.744  0.7191 -0.0846  0.4739
 2385TIP3    H128790   0.893   2.917   2.720  1.8989 -1.3250  0.4268
 2385TIP3    H228791   0.945   3.055   2.684 -0.5369 -0.3695  0.4151
 2386TIP3   OH228792   4.166   2.807   1.456  0.3311  0.3584  0.3308
 2386TIP3    H128793   4.210   2.801   1.541 -0.2582  0.3660  0.6439
 2386TIP3    H228794   4.115   2.727   1.450  0.6172  0.2110 -0.1619
 2387TIP3   OH228795   2.659   1.560   1.566 -0.2883  0.0037 -0.0788
 2387TIP3    H128796   2.686   1.616   1.638  0.5903 -1.3425  0.6967
 2387TIP3    H228797   2.656   1.618   1.490  2.7564  0.7576  0.2176
 2388TIP3   OH228798   5.137   6.269   1.644 -0.2590  0.5893 -0.7615
 2388TIP3    H128799   5.187   6.259   1.563  1.0600  1.8849 -0.1632
 2388TIP3    H228800   5.072   6.336   1.624  0.5663  1.4669 -0.5475
 2389TIP3   OH228801   0.103   5.366   8.490 -0.4723  0.2645 -0.3365
 2389TIP3    H128802   0.035   5.395   8.550 -0.9848 -0.2777 -0.6393
 2389TIP3    H228803   0.055   5.327   8.416  0.1620 -0.2607 -0.4871
 2390TIP3   OH228804   2.390   6.108   1.510  0.0624  0.5414 -0.5095
 2390TIP3    H128805   2.324   6.159   1.557 -0.2946  0.1632 -0.5897
 2390TIP3    H228806   2.365   6.017   1.526  0.8059  0.3890 -0.2059
 2391TIP3   OH228807   4.505   3.909   6.372 -0.4566  0.1308  0.4311
 2391TIP3    H128808   4.592   3.928   6.406 -0.3571 -1.1929  1.0054
 2391TIP3    H228809   4.489   3.818   6.398 -2.6660  0.8290  1.7072
 2392TIP3   OH228810   0.194   6.863   2.032 -0.0630 -0.3641  0.4725
 2392TIP3    H128811   0.232   6.775   2.029  0.2301 -0.2241 -0.2337
 2392TIP3    H228812   0.267   6.921   2.013 -0.5778 -0.0799 -0.7244
 2393TIP3   OH228813   6.077   2.605   1.764  0.1274 -0.0019 -0.4311
 2393TIP3    H128814   6.103   2.529   1.816 -1.1719  0.4036  0.9246
 2393TIP3    H228815   5.995   2.633   1.805  0.2991  1.7909 -1.2461
 2394TIP3   OH228816   5.448   0.897   8.104 -0.2332  0.3991 -0.1708
 2394TIP3    H128817   5.378   0.946   8.061 -0.5264  0.3869  0.2882
 2394TIP3    H228818   5.432   0.910   8.197  0.9707  1.2447 -0.0584
 2395TIP3   OH228819   5.255   4.126   7.641  0.3732  0.3838 -0.4928
 2395TIP3    H128820   5.202   4.199   7.608  0.7445  0.6340 -0.5474
 2395TIP3    H228821   5.196   4.050   7.639 -1.0314  1.2277  2.4422
 2396TIP3   OH228822   6.264   2.571   0.410 -0.8271 -1.0009 -1.1329
 2396TIP3    H128823   6.331   2.545   0.472 -1.7077 -0.7570 -0.0503
 2396TIP3    H228824   6.291   2.657   0.380 -0.8478 -0.7420 -0.4186
 2397TIP3   OH228825   5.028   4.894   0.010 -0.6548  0.1056 -0.1682
 2397TIP3    H128826   5.013   4.911  -0.083  3.9822 -0.6748 -1.3066
 2397TIP3    H228827   5.031   4.981   0.050  0.6783  0.7479 -1.5330
 2398TIP3   OH228828   5.083   6.256   0.398  0.2053  0.2216  0.4036
 2398TIP3    H128829   5.087   6.261   0.494  0.3943  0.1699  0.4002
 2398TIP3    H228830   5.133   6.331   0.368  0.8400 -0.2140  0.3494
 2399TIP3   OH228831   4.653   5.277   8.232  0.3522 -0.0146 -0.1735
 2399TIP3    H128832   4.719   5.300   8.167  0.1359 -0.3823 -0.5291
 2399TIP3    H228833   4.585   5.344   8.222  0.7586  0.4892  0.3392
 2400TIP3   OH228834   1.703   3.363   7.973 -0.9448  0.4765 -0.4043
 2400TIP3    H128835   1.734   3.454   7.978  3.8027 -0.7847 -1.9526
 2400TIP3    H228836   1.729   3.324   8.056 -0.9503  0.0015 -0.6240
 2401TIP3   OH228837   5.933   4.524   0.736 -0.0741 -0.0528 -0.0295
 2401TIP3    H128838   5.943   4.432   0.711  0.7174  0.6145 -2.4341
 2401TIP3    H228839   5.851   4.551   0.696 -0.2560  0.3278  0.5888
 2402TIP3   OH228840   2.322   4.335   8.058 -0.0322 -0.2346  0.3600
 2402TIP3    H128841   2.377   4.333   7.980  0.9953  1.4768  0.9725
 2402TIP3    H228842   2.236   4.361   8.026  0.1453 -0.4522 -0.3174
 2403TIP3   OH228843   1.339   4.661   7.882 -0.0957 -1.0460 -0.0910
 2403TIP3    H128844   1.326   4.659   7.977  0.8079 -1.3171  0.0344
 2403TIP3    H228845   1.400   4.733   7.867 -0.2571 -0.9845 -0.4755
 2404TIP3   OH228846   0.401   4.250   8.412 -0.4864  0.0880  0.2486
 2404TIP3    H128847   0.430   4.327   8.461  0.1433  0.2727 -0.3996
 2404TIP3    H228848   0.397   4.181   8.478  2.3488 -0.1846  0.2738
 2405TIP3   OH228849   4.186   1.539   8.498 -0.1193 -0.2165  0.9176
 2405TIP3    H128850   4.208   1.581   8.581  1.2695  0.1320  0.3978
 2405TIP3    H228851   4.166   1.611   8.438  0.1528 -0.3969  0.6064
 2406TIP3   OH228852   4.259   6.293   2.406 -0.7537 -0.3070  0.5840
 2406TIP3    H128853   4.238   6.202   2.384  0.5028 -0.6818  0.8518
 2406TIP3    H228854   4.250   6.298   2.501  3.2999 -1.3949  1.2299
 2407TIP3   OH228855   1.468   5.904   0.700  0.0720 -0.5166 -0.0437
 2407TIP3    H128856   1.560   5.929   0.689  0.6064 -1.7835  1.1866
 2407TIP3    H228857   1.463   5.873   0.791 -1.6596 -0.1577  0.0136
 2408TIP3   OH228858   6.935   0.044   1.212 -0.8426 -0.0624 -0.1009
 2408TIP3    H128859   6.952   0.126   1.165  0.1652 -0.9150 -1.2963
 2408TIP3    H228860   7.020   0.018   1.247 -1.3821 -0.0025  1.3197
 2409TIP3   OH228861   6.055   4.219   0.327 -0.4319 -0.2335  0.5368
 2409TIP3    H128862   6.132   4.209   0.382 -0.9130  0.9970  1.4697
 2409TIP3    H228863   6.021   4.130   0.317  0.9569 -0.7629  0.2992
 2410TIP3   OH228864   6.403   1.626   8.355  0.1493  0.6861  0.0880
 2410TIP3    H128865   6.426   1.609   8.264 -1.6385  0.0036 -0.2750
 2410TIP3    H228866   6.373   1.717   8.355  1.6263  1.2049  0.3417
 2411TIP3   OH228867   2.246   3.515   2.675  0.2914  0.0969  0.3214
 2411TIP3    H128868   2.238   3.608   2.697  0.6210  0.3265 -0.4965
 2411TIP3    H228869   2.331   3.489   2.709 -0.3349 -0.2538  1.7070
 2412TIP3   OH228870   2.872   4.730   7.862  0.1032 -0.4349  0.3391
 2412TIP3    H128871   2.785   4.767   7.846  0.9233  1.9272  1.0045
 2412TIP3    H228872   2.875   4.714   7.956  0.2445 -0.9281  0.2532
 2413TIP3   OH228873   6.857   0.570   2.547 -0.1709  0.0527 -0.0165
 2413TIP3    H128874   6.868   0.640   2.612  0.8619  0.3779 -0.5189
 2413TIP3    H228875   6.942   0.525   2.546 -0.9927 -1.6264  0.7352
 2414TIP3   OH228876   5.248   2.210   7.554 -0.0754 -0.3407  0.6357
 2414TIP3    H128877   5.314   2.219   7.486 -0.1933 -0.5266  0.4936
 2414TIP3    H228878   5.297   2.215   7.636  0.5492 -3.2256  0.5537
 2415TIP3   OH228879   0.476   2.024   1.014  0.4070 -0.7083  0.1351
 2415TIP3    H128880   0.549   2.038   1.074  1.0063 -1.1866 -0.4552
 2415TIP3    H228881   0.477   1.930   0.997 -0.9803 -0.8926  0.8861
 2416TIP3   OH228882   0.839   5.146   1.399 -0.6868 -0.0684 -0.0858
 2416TIP3    H128883   0.781   5.186   1.464 -2.2355 -2.2275 -0.0204
 2416TIP3    H228884   0.920   5.128   1.447 -0.9958  0.3844  0.6225
 2417TIP3   OH228885   2.786   0.088   6.822  0.0008  0.2285  0.2982
 2417TIP3    H128886   2.715   0.121   6.766  0.5638 -1.3508 -1.4294
 2417TIP3    H228887   2.857   0.151   6.810  0.0478  0.0105 -0.6533
 2418TIP3   OH228888   2.724   2.272   2.237 -0.3686 -0.5311 -0.0334
 2418TIP3    H128889   2.661   2.228   2.294 -0.0713  0.2760  0.9389
 2418TIP3    H228890   2.783   2.318   2.297  1.1782 -1.2888 -0.9016
 2419TIP3   OH228891   5.950   0.370   6.990  0.2505  0.6393  0.0602
 2419TIP3    H128892   5.912   0.284   7.007  1.4818  0.5610  3.1125
 2419TIP3    H228893   6.031   0.371   7.041  1.3002  2.9128 -1.4811
 2420TIP3   OH228894   2.841   2.746   0.117 -0.7508  0.0903  0.0736
 2420TIP3    H128895   2.839   2.833   0.158 -1.3036 -0.1823  0.6510
 2420TIP3    H228896   2.932   2.718   0.124 -0.1665  1.3753 -1.7544
 2421TIP3   OH228897   3.928   2.500   8.489 -0.2034 -0.1550 -0.6561
 2421TIP3    H128898   3.871   2.577   8.483  0.7438  0.5771 -0.4842
 2421TIP3    H228899   3.905   2.461   8.573  0.7467  1.1452  0.2584
 2422TIP3   OH228900   2.486   3.309   1.006 -0.6148 -0.3362 -0.2583
 2422TIP3    H128901   2.404   3.357   1.000 -0.4271  0.3909  1.9855
 2422TIP3    H228902   2.493   3.262   0.923 -2.8426  0.2707 -0.8496
 2423TIP3   OH228903   4.163   6.056   2.343  0.2639 -0.1484  0.1928
 2423TIP3    H128904   4.153   5.995   2.269 -0.4898 -0.0798  0.2268
 2423TIP3    H228905   4.139   6.005   2.420 -1.0041  0.3497  0.1527
 2424TIP3   OH228906   4.499   6.895   1.885  0.0029  0.3979 -0.3487
 2424TIP3    H128907   4.573   6.836   1.900  1.6011  1.9399 -1.7565
 2424TIP3    H228908   4.505   6.958   1.957 -0.2109  0.2882 -0.2336
 2425TIP3   OH228909   5.394   6.497   0.867  0.2310  0.6748 -0.1252
 2425TIP3    H128910   5.457   6.473   0.800  1.2002  0.0982  0.9671
 2425TIP3    H228911   5.318   6.529   0.818 -0.0501 -1.9526 -1.5837
 2426TIP3   OH228912   2.366   3.918   7.675 -0.1697 -0.1580 -0.3006
 2426TIP3    H128913   2.419   3.883   7.747 -0.7178  1.3099  0.8643
 2426TIP3    H228914   2.288   3.863   7.673 -0.8647  0.7148  1.2856
 2427TIP3   OH228915   6.526   4.895   1.892 -0.4346  0.7397 -0.4808
 2427TIP3    H128916   6.479   4.848   1.823 -0.9490 -0.7034  0.7769
 2427TIP3    H228917   6.616   4.865   1.883 -0.6728 -0.1734  0.0164
 2428TIP3   OH228918   1.313   0.724   8.198  0.3702  0.1482 -0.1793
 2428TIP3    H128919   1.404   0.696   8.202  0.5510 -0.0382 -2.9689
 2428TIP3    H228920   1.277   0.703   8.284  2.5762 -1.1537  0.5065
 2429TIP3   OH228921   1.131   1.434   0.083  0.2035  0.3195 -0.0171
 2429TIP3    H128922   1.143   1.339   0.076  0.7391  0.2773  1.2191
 2429TIP3    H228923   1.054   1.443   0.140 -0.4604  0.6370 -0.9411
 2430TIP3   OH228924   0.206   5.130   7.516  0.2777  0.5938 -0.0555
 2430TIP3    H128925   0.191   5.201   7.578  0.3507 -1.5777  2.6267
 2430TIP3    H228926   0.148   5.150   7.442 -0.9139  2.5530  1.3119
 2431TIP3   OH228927   4.265   0.493   7.101 -0.2112 -0.4772 -0.0665
 2431TIP3    H128928   4.207   0.550   7.050 -2.2946 -0.8560  1.7208
 2431TIP3    H228929   4.334   0.551   7.132 -0.4988  0.3587 -0.9273
 2432TIP3   OH228930   3.576   0.596   3.218  0.0326  0.1683 -0.2506
 2432TIP3    H128931   3.549   0.634   3.301  1.4888 -1.2438  0.9418
 2432TIP3    H228932   3.494   0.578   3.172 -0.8498  0.3351  1.1843
 2433TIP3   OH228933   0.527   3.335   0.802 -0.0024 -0.1063  0.6209
 2433TIP3    H128934   0.470   3.396   0.849 -0.0841 -1.5683  2.5452
 2433TIP3    H228935   0.597   3.390   0.768  0.8624  0.9351  3.7392
 2434TIP3   OH228936   1.068   5.134   2.107 -0.3903 -0.1975  0.1226
 2434TIP3    H128937   1.163   5.132   2.108 -0.3630 -0.7981  2.4161
 2434TIP3    H228938   1.042   5.046   2.079 -0.2577 -0.3497  0.4792
 2435TIP3   OH228939   0.468   2.155   1.593 -0.8183  0.0681 -0.8648
 2435TIP3    H128940   0.442   2.103   1.517  1.3829 -0.6917 -1.1885
 2435TIP3    H228941   0.477   2.244   1.559 -1.1084 -0.0189 -1.1813
 2436TIP3   OH228942   1.951   1.416   1.752  0.8263 -0.0217  0.0603
 2436TIP3    H128943   2.040   1.440   1.778  0.9635 -1.5499  1.1609
 2436TIP3    H228944   1.897   1.438   1.827  0.5686 -0.7545  0.0991
 2437TIP3   OH228945   5.091   1.954   7.905  0.2094  0.1337 -0.8835
 2437TIP3    H128946   5.057   1.972   7.993  0.2184  3.2398 -1.3923
 2437TIP3    H228947   5.014   1.963   7.848  0.6445  0.6666 -1.4021
 2438TIP3   OH228948   3.817   3.105   1.130  0.0996  0.5246  0.5961
 2438TIP3    H128949   3.773   3.116   1.214  0.1142  0.2883  0.6353
 2438TIP3    H228950   3.791   3.182   1.079 -1.8173 -0.4706 -0.0275
 2439TIP3   OH228951   3.637   5.288   0.755 -0.0462 -0.0112  0.1351
 2439TIP3    H128952   3.723   5.323   0.731  1.0172 -1.0938  2.0409
 2439TIP3    H228953   3.605   5.346   0.824 -1.9957  1.7446 -2.1009
 2440TIP3   OH228954   1.423   2.019   0.965 -0.0080  0.5067 -0.3602
 2440TIP3    H128955   1.422   1.931   0.927  0.8164 -0.2868  1.3765
 2440TIP3    H228956   1.364   2.069   0.909 -0.4479 -1.1207 -1.4340
 2441TIP3   OH228957   3.453   0.661   1.776  0.7963 -0.5048 -0.6849
 2441TIP3    H128958   3.419   0.645   1.688  0.2615  0.6604 -0.7134
 2441TIP3    H228959   3.416   0.591   1.829 -0.9933  0.2214 -0.9006
 2442TIP3   OH228960   6.041   1.766   0.292 -0.0288  0.0064 -0.2828
 2442TIP3    H128961   5.995   1.847   0.316  1.4049  0.8977 -0.4703
 2442TIP3    H228962   6.133   1.791   0.286  0.4659 -1.6870 -0.1858
 2443TIP3   OH228963   0.356   1.583   1.207  0.3198  0.0944  0.0311
 2443TIP3    H128964   0.348   1.646   1.136 -0.2032  1.2801  1.1133
 2443TIP3    H228965   0.360   1.636   1.287 -0.8235 -1.2293  1.0341
 2444TIP3   OH228966   0.428   0.089   8.435 -0.0678  0.1649 -0.4799
 2444TIP3    H128967   0.379   0.149   8.379 -0.9860 -0.0803  0.0513
 2444TIP3    H228968   0.362   0.046   8.489  0.6536 -0.7488 -0.2974
 2445TIP3   OH228969   4.447   6.898   0.353 -0.2973  0.1812 -0.0095
 2445TIP3    H128970   4.503   6.947   0.294 -2.1112  2.5582  0.0955
 2445TIP3    H228971   4.376   6.866   0.297  0.9348 -2.6633 -0.1215
 2446TIP3   OH228972   1.111   4.345   0.640 -0.0848 -0.4123 -0.1689
 2446TIP3    H128973   1.162   4.278   0.594  0.4251  0.2081 -0.5203
 2446TIP3    H228974   1.107   4.314   0.731 -1.2129 -1.7138 -0.6359
 2447TIP3   OH228975   4.455   2.316   7.408 -0.2212 -0.0908  0.4988
 2447TIP3    H128976   4.486   2.345   7.322 -2.1863  1.0821  0.1067
 2447TIP3    H228977   4.489   2.227   7.418  0.2572 -0.1606 -1.3855
 2448TIP3   OH228978   6.536   0.483   7.570  0.3845  0.2681  0.3912
 2448TIP3    H128979   6.595   0.440   7.632  0.0695 -3.8517 -1.8586
 2448TIP3    H228980   6.591   0.508   7.497 -0.1507 -1.0543 -0.5038
 2449TIP3   OH228981   1.609   4.703   0.804 -0.5060 -0.3521 -0.4103
 2449TIP3    H128982   1.620   4.708   0.709  0.4521  2.3757 -0.2520
 2449TIP3    H228983   1.686   4.656   0.835  0.3907  0.7778 -0.8564
 2450TIP3   OH228984   4.642   6.715   1.629  0.7664  0.4701  0.8175
 2450TIP3    H128985   4.583   6.772   1.581  0.8608  1.2841  1.6259
 2450TIP3    H228986   4.618   6.626   1.602 -2.0971  0.6187  2.4520
 2451TIP3   OH228987   2.352   4.348   6.238  0.0117 -0.4090 -0.6161
 2451TIP3    H128988   2.304   4.346   6.155  0.3242 -0.6555 -0.7917
 2451TIP3    H228989   2.326   4.430   6.279 -0.7283 -0.6283 -0.6165
 2452TIP3   OH228990   5.255   6.139   1.423 -0.0838  0.2543  0.6003
 2452TIP3    H128991   5.280   6.071   1.360 -1.8124 -0.3145  0.4952
 2452TIP3    H228992   5.329   6.200   1.421  0.6729 -0.6301 -0.7039
 2453TIP3   OH228993   4.046   1.548   1.568  0.1264  0.7820 -0.0572
 2453TIP3    H128994   4.045   1.523   1.476  0.7301  1.0656 -0.1401
 2453TIP3    H228995   4.037   1.465   1.615  2.0718  0.3742 -0.3313
 2454TIP3   OH228996   2.067   1.000   0.973 -0.1672 -0.0803 -0.2987
 2454TIP3    H128997   2.046   1.080   0.925  0.0901  0.3684  0.3231
 2454TIP3    H228998   2.045   1.021   1.064 -0.4519 -0.8447 -0.1894
 2455TIP3   OH228999   1.163   2.258   0.357 -0.2182 -0.0322  0.9659
 2455TIP3    H129000   1.090   2.200   0.380 -0.4080 -0.7992 -1.2826
 2455TIP3    H229001   1.222   2.202   0.306 -0.1149  1.5737 -0.7846
 2456TIP3   OH229002   5.702   5.432   1.341 -0.3407  0.2424  0.5391
 2456TIP3    H129003   5.627   5.486   1.314  0.3339  0.7368 -0.3982
 2456TIP3    H229004   5.671   5.342   1.332 -1.1965  0.4452  1.2837
 2457TIP3   OH229005   1.001   3.527   7.073  0.1050  0.5580  0.4694
 2457TIP3    H129006   0.973   3.492   6.989  1.1870  0.4539  0.1391
 2457TIP3    H229007   1.088   3.562   7.057  0.1580  0.9105  1.4530
 2458TIP3   OH229008   3.540   6.653   7.768  0.0641 -0.2964 -0.0434
 2458TIP3    H129009   3.563   6.743   7.746  0.6625 -0.4359 -0.0194
 2458TIP3    H229010   3.500   6.659   7.855 -1.3144  0.1242 -0.6824
 2459TIP3   OH229011   4.752   0.215   1.622 -0.2606 -0.3336 -0.0033
 2459TIP3    H129012   4.750   0.166   1.704 -3.9113 -0.9079 -0.3068
 2459TIP3    H229013   4.736   0.306   1.647  2.1833  0.1542  0.1255
 2460TIP3   OH229014   1.796   5.350   0.075 -0.2595  0.2555 -0.1386
 2460TIP3    H129015   1.790   5.392  -0.011  0.1099  2.5075  0.8780
 2460TIP3    H229016   1.836   5.416   0.132  1.7171 -1.9858  1.2543
 2461TIP3   OH229017   4.820   0.639   2.555 -0.0211 -0.1976 -0.1767
 2461TIP3    H129018   4.842   0.730   2.577 -0.9967 -0.1259  0.5652
 2461TIP3    H229019   4.772   0.646   2.472 -0.6017  0.0360  0.1691
 2462TIP3   OH229020   5.501   3.192   0.096 -0.3299 -0.0765  0.3668
 2462TIP3    H129021   5.454   3.174   0.014 -1.8714  1.2984  0.8752
 2462TIP3    H229022   5.480   3.119   0.153  0.3430 -0.7914 -0.2814
 2463TIP3   OH229023   2.759   3.136   0.993 -0.1998  0.4040  0.4511
 2463TIP3    H129024   2.678   3.087   1.006  0.0434 -0.7321 -1.8550
 2463TIP3    H229025   2.769   3.187   1.073 -1.4018 -1.9684  2.2391
 2464TIP3   OH229026   3.884   0.611   7.121  0.4622 -0.6398 -0.2857
 2464TIP3    H129027   3.833   0.541   7.162  1.0027 -0.9365 -0.1071
 2464TIP3    H229028   3.836   0.691   7.142  0.5096 -0.8311  0.5902
 2465TIP3   OH229029   6.353   6.827   1.114 -0.3345  0.0237  0.0692
 2465TIP3    H129030   6.297   6.902   1.133 -1.0556 -0.5703  0.3574
 2465TIP3    H229031   6.342   6.769   1.190 -1.7343 -1.4862 -1.1982
 2466TIP3   OH229032   0.154   6.030   0.789 -0.7683  0.8744  0.2395
 2466TIP3    H129033   0.107   5.977   0.853 -1.2984 -0.6189 -1.3153
 2466TIP3    H229034   0.241   5.990   0.784 -0.1871  1.9846  1.1703
 2467TIP3   OH229035   3.273   4.199   8.446  0.4212 -0.0355 -0.0602
 2467TIP3    H129036   3.223   4.158   8.375 -0.0606 -1.5578  1.1014
 2467TIP3    H229037   3.353   4.148   8.451  0.0328 -0.5500  1.0894
 2468TIP3   OH229038   1.689   1.711   1.671  0.5098  0.1857 -1.0166
 2468TIP3    H129039   1.727   1.770   1.736  0.1090 -0.1039 -0.5056
 2468TIP3    H229040   1.605   1.685   1.709  0.1270  0.2580 -1.8052
 2469TIP3   OH229041   2.815   1.291   7.654  0.4528  0.5401  0.6060
 2469TIP3    H129042   2.786   1.381   7.641  0.1325  0.2971 -0.5068
 2469TIP3    H229043   2.842   1.262   7.567  0.8707 -0.3330  1.0128
 2470TIP3   OH229044   0.013   5.143   8.347  0.2533  0.3253 -0.2608
 2470TIP3    H129045   0.046   5.063   8.388  2.1368  1.6016  0.8424
 2470TIP3    H229046  -0.058   5.171   8.404  0.9858  0.5552  0.5584
 2471TIP3   OH229047   5.447   4.251   0.987  0.3721 -0.5761 -0.2787
 2471TIP3    H129048   5.411   4.331   0.949 -1.9393 -0.5558  1.7510
 2471TIP3    H229049   5.443   4.187   0.916  1.5337  0.8486 -1.7043
 2472TIP3   OH229050   5.545   0.241   7.009 -0.3781  0.2312 -0.1265
 2472TIP3    H129051   5.455   0.272   7.019 -0.5019  0.2419 -1.1797
 2472TIP3    H229052   5.537   0.158   6.962  0.0794 -0.4914  1.0153
 2473TIP3   OH229053   3.638   5.928   6.927 -0.4919  0.0153  0.1952
 2473TIP3    H129054   3.727   5.930   6.961  0.2494 -1.5760 -1.4875
 2473TIP3    H229055   3.636   5.997   6.860  0.0624 -1.1340 -1.0339
 2474TIP3   OH229056   6.562   6.673   1.950  0.0802 -0.4059 -0.0520
 2474TIP3    H129057   6.602   6.760   1.945 -0.7752 -0.0445 -0.8429
 2474TIP3    H229058   6.619   6.617   1.898  0.3335 -0.1974  0.0012
 2475TIP3   OH229059   0.317   6.633   8.511 -0.7444  0.3438 -0.3014
 2475TIP3    H129060   0.254   6.702   8.531 -3.7668 -2.0091 -0.9525
 2475TIP3    H229061   0.285   6.594   8.429  1.6486 -0.9513 -0.7293
 2476TIP3   OH229062   4.050   3.704   2.037  0.5281  0.4106  0.3385
 2476TIP3    H129063   4.127   3.759   2.027  0.4270  0.7595  1.3780
 2476TIP3    H229064   4.057   3.668   2.125  0.1161 -0.5141  0.0109
 2477TIP3   OH229065   3.359   2.541   0.726  1.0252  0.0997 -0.4185
 2477TIP3    H129066   3.375   2.622   0.677 -1.2902  0.7648 -0.1655
 2477TIP3    H229067   3.276   2.555   0.770  2.1242 -1.1741  2.3154
 2478TIP3   OH229068   2.583   2.141   8.311  0.0267 -0.6443  0.4310
 2478TIP3    H129069   2.541   2.065   8.350  1.8127 -1.7398  0.3205
 2478TIP3    H229070   2.514   2.207   8.304 -1.4854 -2.1581  0.7822
 2479TIP3   OH229071   4.056   1.336   2.923  0.2205  0.0550 -0.3199
 2479TIP3    H129072   4.134   1.280   2.917 -0.1529 -0.8255  1.9153
 2479TIP3    H229073   3.988   1.287   2.877  0.3460 -0.5069  0.0683
 2480TIP3   OH229074   2.622   1.166   0.531 -0.2998  0.0244  0.6339
 2480TIP3    H129075   2.699   1.109   0.538  0.2686  0.7374  0.3027
 2480TIP3    H229076   2.635   1.231   0.600 -1.4530 -0.8207  1.6812
 2481TIP3   OH229077   4.915   3.358   8.469  0.5599  0.0682 -0.4319
 2481TIP3    H129078   5.003   3.343   8.504  0.6413  0.5377 -0.4345
 2481TIP3    H229079   4.924   3.437   8.416 -0.1033  0.7199  0.4095
 2482TIP3   OH229080   2.685   4.953   8.249  0.3275 -0.1860  0.5968
 2482TIP3    H129081   2.686   5.045   8.277 -0.8953 -0.3104  1.1331
 2482TIP3    H229082   2.776   4.933   8.228  0.4712  1.4307 -0.4789
 2483TIP3   OH229083   6.650   4.099   1.336  0.4175  0.4341 -0.1746
 2483TIP3    H129084   6.564   4.068   1.309 -0.1401  1.4076  0.4306
 2483TIP3    H229085   6.654   4.081   1.430 -0.0057  2.3132  0.2386
 2484TIP3   OH229086   6.881   5.090   0.417 -0.1928 -0.2838  0.3063
 2484TIP3    H129087   6.853   5.090   0.508 -0.3427 -0.4118  0.2606
 2484TIP3    H229088   6.800   5.087   0.367 -0.1168 -0.0323  0.1668
 2485TIP3   OH229089   0.012   3.245   7.947  0.0348  0.6659  0.3137
 2485TIP3    H129090  -0.037   3.247   7.865 -0.1126 -0.7561  0.3309
 2485TIP3    H229091  -0.055   3.228   8.014  0.3195  0.4988  0.5578
 2486TIP3   OH229092   1.887   2.701   8.172 -0.4917 -0.5745 -0.1076
 2486TIP3    H129093   1.840   2.696   8.089 -0.2669 -1.0702 -0.2057
 2486TIP3    H229094   1.912   2.793   8.180 -1.6133 -0.2703  0.0224
 2487TIP3   OH229095   2.237   0.915   7.404 -0.0979  0.7613 -0.4537
 2487TIP3    H129096   2.181   0.838   7.398  2.3021 -1.2233  0.5860
 2487TIP3    H229097   2.265   0.931   7.314  0.1346 -0.2332 -0.5774
 2488TIP3   OH229098   6.709   4.716   8.030  0.1154 -0.2648  0.4024
 2488TIP3    H129099   6.631   4.672   7.996 -1.0311  0.8965  1.4116
 2488TIP3    H229100   6.759   4.738   7.952  0.1069 -2.1661 -0.2029
 2489TIP3   OH229101   5.488   0.212   7.789  0.6419  0.0411 -0.3916
 2489TIP3    H129102   5.576   0.236   7.760  0.6749 -0.0469 -0.3622
 2489TIP3    H229103   5.438   0.201   7.708  0.2448  1.6349 -0.4109
 2490TIP3   OH229104   2.635   1.031   7.626  0.3249  0.8098  0.2762
 2490TIP3    H129105   2.598   0.994   7.547  0.3627 -1.3008  1.1693
 2490TIP3    H229106   2.634   1.126   7.612 -2.5015  0.6750 -0.9629
 2491TIP3   OH229107   1.497   1.139   2.254  0.0836 -0.6613 -0.5292
 2491TIP3    H129108   1.414   1.105   2.286  0.9893 -1.9749  0.5189
 2491TIP3    H229109   1.551   1.149   2.332  1.3206 -1.0297 -1.3095
 2492TIP3   OH229110   2.663   0.828   0.384  0.3367  0.2669 -0.4814
 2492TIP3    H129111   2.683   0.798   0.472  2.4608  0.7407 -0.7558
 2492TIP3    H229112   2.601   0.900   0.397 -2.6155 -2.1929  0.3243
 2493TIP3   OH229113   2.257   1.113   1.341 -0.1804  0.2126 -0.2399
 2493TIP3    H129114   2.173   1.090   1.301  0.3386 -0.1559 -1.1396
 2493TIP3    H229115   2.236   1.187   1.399 -1.1453  0.0368 -0.3445
 2494TIP3   OH229116   4.694   4.183   1.052 -0.0577 -0.5335  0.2984
 2494TIP3    H129117   4.780   4.145   1.035 -0.2165 -1.0335  0.5647
 2494TIP3    H229118   4.639   4.108   1.076 -0.6627 -0.2699 -0.2346
 2495TIP3   OH229119   6.186   2.549   7.439  1.1646  0.4264 -0.7399
 2495TIP3    H129120   6.201   2.517   7.350 -0.1011 -0.6986 -0.5793
 2495TIP3    H229121   6.239   2.492   7.494 -0.6286 -1.1237 -0.5090
 2496TIP3   OH229122   6.847   0.894   2.473  0.0866 -0.2094  0.5195
 2496TIP3    H129123   6.775   0.956   2.477 -0.2355 -0.5942  0.7463
 2496TIP3    H229124   6.868   0.876   2.565 -2.3076 -3.2982  0.6264
 2497TIP3   OH229125   4.001   3.486   2.531 -0.2617  0.0599  0.0558
 2497TIP3    H129126   3.965   3.407   2.490  0.0932 -0.6765  1.1072
 2497TIP3    H229127   3.972   3.480   2.622  1.0876  0.3156  0.5295
 2498TIP3   OH229128   5.075   5.459   2.517  0.5279  0.0558  0.1264
 2498TIP3    H129129   5.052   5.546   2.549 -0.5837 -0.3691  0.5471
 2498TIP3    H229130   5.083   5.406   2.596 -0.6437 -0.6350 -0.1811
 2499TIP3   OH229131   2.224   4.465   0.451 -0.1417 -0.3075 -0.0649
 2499TIP3    H129132   2.169   4.455   0.374  0.2681  0.2234 -0.4256
 2499TIP3    H229133   2.265   4.379   0.463 -1.2737 -0.7979  0.3865
 2500TIP3   OH229134   0.998   2.975   1.923  0.6443  0.4380  0.0629
 2500TIP3    H129135   0.988   2.924   1.843  2.2551  1.0175 -0.5521
 2500TIP3    H229136   0.988   3.066   1.896 -0.1493  0.5880  0.7858
 2501TIP3   OH229137   0.130   6.294   2.388  0.1549 -0.1292  0.1817
 2501TIP3    H129138   0.149   6.365   2.450 -0.5711  0.4629 -0.2578
 2501TIP3    H229139   0.151   6.214   2.436  1.0527  0.3842  0.6610
 2502TIP3   OH229140   0.665   0.894   2.571 -0.2460 -0.2897 -0.3167
 2502TIP3    H129141   0.749   0.917   2.611 -0.3555 -1.2880  0.5180
 2502TIP3    H229142   0.633   0.977   2.534  0.1091  0.5524  1.1846
 2503TIP3   OH229143   6.611   6.652   8.181 -0.2767  0.4639 -0.3859
 2503TIP3    H129144   6.572   6.725   8.231 -2.4421  0.6639 -2.1968
 2503TIP3    H229145   6.684   6.691   8.134 -0.5693  1.1656 -0.2727
 2504TIP3   OH229146   5.774   6.603   0.007  0.2123 -0.5575 -0.2036
 2504TIP3    H129147   5.750   6.693   0.032  1.6579  0.2758 -1.6004
 2504TIP3    H229148   5.834   6.574   0.075 -0.8955 -0.8146  0.6969
 2505TIP3   OH229149   2.647   0.851   7.854 -0.2710  0.2981  0.3912
 2505TIP3    H129150   2.742   0.851   7.862  0.0357 -2.5967 -1.5969
 2505TIP3    H229151   2.629   0.892   7.770 -0.9309  1.7051  1.1694
 2506TIP3   OH229152   3.790   3.920   8.247  0.2935 -0.2188 -0.2038
 2506TIP3    H129153   3.806   3.833   8.211 -0.6891 -0.1679 -0.7933
 2506TIP3    H229154   3.850   3.977   8.199  0.4032 -0.4552 -0.3498
 2507TIP3   OH229155   5.353   3.065   7.915 -0.0605  0.5059  0.7648
 2507TIP3    H129156   5.414   3.000   7.949  0.7235  1.6969  1.7348
 2507TIP3    H229157   5.404   3.113   7.849  0.9403  2.9918  3.1444
 2508TIP3   OH229158   4.922   6.105   1.482 -0.4004 -0.4545 -0.0635
 2508TIP3    H129159   5.012   6.136   1.481 -0.9486  1.2312 -0.1262
 2508TIP3    H229160   4.896   6.104   1.390 -0.8111  0.2542  0.0362
 2509TIP3   OH229161   5.318   4.850   8.525 -0.2987  0.4513  0.0390
 2509TIP3    H129162   5.239   4.810   8.489 -0.7235 -0.4021  1.8351
 2509TIP3    H229163   5.286   4.913   8.590  0.4663 -0.2490  1.1382
 2510TIP3   OH229164   6.560   4.089   6.421 -0.1150  0.5281  0.0311
 2510TIP3    H129165   6.601   4.029   6.359 -1.8538  1.0124 -1.6751
 2510TIP3    H229166   6.522   4.158   6.367 -0.9877  1.4360  1.7085
 2511TIP3   OH229167   2.193   6.282   0.127  0.4384  0.3307  0.3632
 2511TIP3    H129168   2.099   6.280   0.110  0.1839 -0.2582  1.7098
 2511TIP3    H229169   2.232   6.227   0.059 -0.1475  0.7404 -0.3199
 2512TIP3   OH229170   3.565   2.480   7.922 -0.6116 -1.1060  0.8093
 2512TIP3    H129171   3.598   2.399   7.961  0.6555  0.2283  2.6905
 2512TIP3    H229172   3.642   2.522   7.885 -0.8835  0.1071  1.5496
 2513TIP3   OH229173   1.768   4.555   6.802  0.4544  0.8805 -0.4017
 2513TIP3    H129174   1.696   4.611   6.830 -0.5238 -0.0505 -0.9547
 2513TIP3    H229175   1.784   4.497   6.875  0.0016  0.4793 -0.6164
 2514TIP3   OH229176   6.155   3.991   8.167  0.2656  0.1013 -0.1586
 2514TIP3    H129177   6.118   3.934   8.100 -1.9412 -0.6289  1.5694
 2514TIP3    H229178   6.085   4.052   8.189 -0.2701 -1.5238  3.4656
 2515TIP3   OH229179   2.492   0.169   0.704  0.2100 -0.5122  0.1104
 2515TIP3    H129180   2.425   0.160   0.636  0.5308  0.4463 -0.3519
 2515TIP3    H229181   2.468   0.249   0.752  0.1159 -1.0494  0.9906
 2516TIP3   OH229182   5.574   6.367   2.214  0.3536 -0.0249 -0.1568
 2516TIP3    H129183   5.524   6.323   2.283  0.8507  0.1004  0.2859
 2516TIP3    H229184   5.611   6.296   2.162 -2.5203 -0.2019 -2.1990
 2517TIP3   OH229185   6.669   0.182   6.855 -0.5152  0.2668 -0.0386
 2517TIP3    H129186   6.592   0.188   6.912 -0.1161  2.1368  0.3833
 2517TIP3    H229187   6.641   0.125   6.783 -1.5298 -0.8993  1.2333
 2518TIP3   OH229188   2.966   2.390   1.871 -0.3636  0.1651 -0.0824
 2518TIP3    H129189   2.872   2.403   1.882 -0.4511  0.1000 -0.7411
 2518TIP3    H229190   2.993   2.342   1.950 -0.4735  2.0773  1.1979
 2519TIP3   OH229191   3.269   3.590   1.686 -0.2359 -0.6896  0.2184
 2519TIP3    H129192   3.205   3.606   1.617  0.3461  0.7757 -0.0301
 2519TIP3    H229193   3.227   3.528   1.745 -2.6471  1.6118  1.0831
 2520TIP3   OH229194   4.724   0.520   7.724 -0.1471 -0.3151 -0.3912
 2520TIP3    H129195   4.669   0.461   7.672  0.1437 -0.4319 -0.5695
 2520TIP3    H229196   4.770   0.573   7.659  0.0572 -0.3146 -0.2449
 2521TIP3   OH229197   6.929   1.789   0.528  0.4657 -0.0989 -0.0293
 2521TIP3    H129198   6.911   1.870   0.575  1.4727 -0.7807  1.6127
 2521TIP3    H229199   6.986   1.739   0.586 -0.8323 -2.3794 -0.5626
 2522TIP3   OH229200   1.439   4.316   2.159 -0.5630  0.1031  0.3513
 2522TIP3    H129201   1.353   4.340   2.127 -0.0186  3.8756  1.2050
 2522TIP3    H229202   1.500   4.356   2.097  0.5467 -0.4083  1.0715
 2523TIP3   OH229203   6.090   3.899   0.930  0.3234 -0.2248 -0.2180
 2523TIP3    H129204   6.099   3.963   1.000  0.3195  1.9137 -2.0648
 2523TIP3    H229205   6.175   3.900   0.886  0.0667 -0.9076 -0.7517
 2524TIP3   OH229206   3.276   1.343   7.537 -0.5702  0.9658  0.3941
 2524TIP3    H129207   3.369   1.335   7.513 -0.5800  0.4491  0.5084
 2524TIP3    H229208   3.266   1.432   7.569  0.2230  0.5721  1.8174
 2525TIP3   OH229209   3.277   5.354   7.014  0.4745 -0.1883 -0.2781
 2525TIP3    H129210   3.334   5.322   6.944 -0.9756 -1.4853 -0.9214
 2525TIP3    H229211   3.249   5.441   6.985 -0.0945 -0.7054 -1.3099
 2526TIP3   OH229212   6.428   6.450   0.722  0.0029 -0.7489 -0.5154
 2526TIP3    H129213   6.490   6.454   0.794  0.6262 -2.1203 -0.9429
 2526TIP3    H229214   6.439   6.534   0.676 -0.6805  0.3108  1.1581
 2527TIP3   OH229215   0.495   2.420   1.206 -0.4075 -0.0347 -0.5716
 2527TIP3    H129216   0.446   2.503   1.205  0.7344  0.6822  0.2539
 2527TIP3    H229217   0.583   2.445   1.233 -1.0145 -1.9588  4.1046
 2528TIP3   OH229218   1.718   4.834   7.451 -0.7167  0.4012 -0.6813
 2528TIP3    H129219   1.633   4.878   7.442 -0.4862  0.7515 -1.1399
 2528TIP3    H229220   1.725   4.779   7.373 -1.0818 -0.5936 -0.0290
 2529TIP3   OH229221   0.435   1.849   1.287 -0.1809 -0.0971 -0.8812
 2529TIP3    H129222   0.458   1.941   1.272  0.0756  0.2977  1.5197
 2529TIP3    H229223   0.519   1.806   1.303 -0.3361 -0.6921 -1.6019
 2530TIP3   OH229224   3.903   6.243   0.767  0.6104 -0.3534 -0.2414
 2530TIP3    H129225   3.934   6.272   0.682  1.3990  2.4795  0.8903
 2530TIP3    H229226   3.980   6.248   0.824 -0.8529  3.2128  1.7807
 2531TIP3   OH229227   4.135   4.485   7.538  0.8121 -0.1368 -0.7929
 2531TIP3    H129228   4.228   4.473   7.520  0.4074 -1.8077 -2.0007
 2531TIP3    H229229   4.093   4.481   7.452 -0.4325 -0.1391 -0.2077
 2532TIP3   OH229230   3.820   0.448   7.840  0.6292  0.6976  0.0912
 2532TIP3    H129231   3.911   0.477   7.833  0.5824  0.7068 -0.5317
 2532TIP3    H229232   3.818   0.397   7.922  1.2573  0.4724 -0.0232
 2533TIP3   OH229233   4.411   0.388   0.369  0.4280 -0.1422 -0.2840
 2533TIP3    H129234   4.477   0.340   0.419  1.7669  2.4382  0.6379
 2533TIP3    H229235   4.380   0.456   0.430  1.6068  2.6973 -2.6107
 2534TIP3   OH229236   0.776   5.284   1.177  0.0285 -0.4162 -0.4650
 2534TIP3    H129237   0.848   5.248   1.230 -0.1739 -0.2595 -0.0769
 2534TIP3    H229238   0.698   5.272   1.232 -0.0564  0.5229 -0.3631
 2535TIP3   OH229239   1.357   2.491   0.267  0.2200  0.5141 -0.0142
 2535TIP3    H129240   1.315   2.423   0.214 -1.2185  2.0481 -0.9489
 2535TIP3    H229241   1.294   2.509   0.337  2.1879 -1.6559  2.5582
 2536TIP3   OH229242   3.740   0.354   7.173  0.0811 -0.1552 -0.5055
 2536TIP3    H129243   3.738   0.275   7.119 -1.3803  0.2855 -1.1429
 2536TIP3    H229244   3.650   0.366   7.201  0.3173  1.1736 -0.2490
 2537TIP3   OH229245   0.431   6.077   8.284 -0.0890  0.6498  0.3854
 2537TIP3    H129246   0.339   6.068   8.261 -0.3151  1.1778  1.0547
 2537TIP3    H229247   0.432   6.075   8.379  0.5313  1.2463  0.3938
 2538TIP3   OH229248   2.539   0.159   2.190  0.1102 -0.1765  0.2694
 2538TIP3    H129249   2.536   0.207   2.108  0.8247  0.8377  0.8027
 2538TIP3    H229250   2.507   0.222   2.255 -0.1823 -0.8688  0.8019
 2539TIP3   OH229251   2.757   1.354   7.175 -0.1989 -0.3477  0.4775
 2539TIP3    H129252   2.838   1.382   7.132  0.0506  2.1606  2.3773
 2539TIP3    H229253   2.696   1.336   7.103  0.9671  1.1670 -0.9588
 2540TIP3   OH229254   6.644   6.214   1.606  0.2084  0.2668  0.6278
 2540TIP3    H129255   6.626   6.127   1.569 -0.4978  0.8501 -0.4424
 2540TIP3    H229256   6.603   6.275   1.545  1.2634  1.4026  1.0181
 2541TIP3   OH229257   6.898   2.387   2.133  0.2348  0.2227 -0.0327
 2541TIP3    H129258   6.837   2.450   2.095  1.1130  0.3090 -1.3673
 2541TIP3    H229259   6.843   2.314   2.162 -0.5223  0.3996 -0.9893
 2542TIP3   OH229260   3.128   5.548   0.510 -0.3701  0.2355  0.3569
 2542TIP3    H129261   3.106   5.508   0.594  0.0730 -3.2862 -1.0495
 2542TIP3    H229262   3.222   5.537   0.502 -0.6198 -1.0126 -1.2834
 2543TIP3   OH229263   5.512   1.620   2.070 -0.7177  0.0776 -0.0086
 2543TIP3    H129264   5.529   1.549   2.132 -0.8225  0.4719  0.4791
 2543TIP3    H229265   5.562   1.694   2.104 -1.9237  0.7206  0.4142
 2544TIP3   OH229266   1.947   0.492   8.385 -0.0378 -0.8350  0.1792
 2544TIP3    H129267   1.925   0.473   8.293  0.2902  0.6628 -0.2421
 2544TIP3    H229268   2.020   0.434   8.405  0.7026 -0.3050 -0.9102
 2545TIP3   OH229269   1.064   1.707   0.783  0.4862 -0.0196  0.1054
 2545TIP3    H129270   1.037   1.794   0.815 -0.1669 -0.8920  2.0722
 2545TIP3    H229271   1.054   1.713   0.688  2.8211  2.8319 -0.1216
 2546TIP3   OH229272   1.854   1.495   7.645 -0.2154 -0.1606 -0.0396
 2546TIP3    H129273   1.875   1.588   7.634  0.1925 -0.1280  0.8743
 2546TIP3    H229274   1.926   1.449   7.604 -0.4787 -0.0755 -0.6011
 2547TIP3   OH229275   3.499   6.193   7.009 -0.1067  0.3403  0.2916
 2547TIP3    H129276   3.422   6.143   7.036 -0.6129  0.7013 -0.4659
 2547TIP3    H229277   3.475   6.232   6.925  0.9723  0.3022 -0.0489
 2548TIP3   OH229278   1.969   5.097   0.065 -0.6906  0.2671  0.4825
 2548TIP3    H129279   1.995   5.081  -0.026 -0.2164  0.8016  0.5213
 2548TIP3    H229280   1.927   5.182   0.064 -2.5443 -0.6012  0.4127
 2549TIP3   OH229281   0.085   2.632   1.711  0.0169 -0.4845 -0.1069
 2549TIP3    H129282   0.107   2.723   1.729 -2.3727 -0.0574  1.0929
 2549TIP3    H229283   0.060   2.630   1.619  0.5268 -0.0328 -0.2553
 2550TIP3   OH229284   6.835   2.580   7.416  0.0764  0.3499  0.2404
 2550TIP3    H129285   6.821   2.528   7.337  1.2146 -0.2735  0.4216
 2550TIP3    H229286   6.763   2.644   7.417 -0.0409  0.2629 -1.2055
 2551TIP3   OH229287   4.637   2.222   2.452  0.2365 -0.9735 -0.2025
 2551TIP3    H129288   4.658   2.286   2.521 -2.3602 -0.5756  0.3348
 2551TIP3    H229289   4.700   2.151   2.465 -0.0563 -0.8483  2.5110
 2552TIP3   OH229290   6.010   5.195   8.330  0.1457 -0.5632 -0.2778
 2552TIP3    H129291   5.972   5.276   8.364 -2.5875  0.3607 -4.7543
 2552TIP3    H229292   5.935   5.135   8.322  1.5130 -2.3523 -0.2461
 2553TIP3   OH229293   3.719   3.941   1.794 -0.1034 -0.3648  0.6612
 2553TIP3    H129294   3.808   3.976   1.789  0.0501 -0.6606  1.2360
 2553TIP3    H229295   3.712   3.886   1.716  0.0380  0.0578  0.3442
 2554TIP3   OH229296   6.328   2.649   7.959  0.2691 -0.0212  0.2661
 2554TIP3    H129297   6.291   2.729   7.922  0.2048 -0.0490  0.2707
 2554TIP3    H229298   6.253   2.590   7.970  0.0715  0.4487  1.6621
 2555TIP3   OH229299   3.421   2.004   2.842  0.2261  0.0993 -0.2504
 2555TIP3    H129300   3.381   2.071   2.898  0.7350  1.3469 -1.2944
 2555TIP3    H229301   3.509   1.994   2.876  0.8513  1.5409 -1.2958
 2556TIP3   OH229302   6.945   6.536   7.255 -0.0758 -0.5303 -0.0476
 2556TIP3    H129303   7.034   6.566   7.273 -0.1954 -1.0401  1.5009
 2556TIP3    H229304   6.956   6.467   7.189  0.7440 -1.0190  0.5863
 2557TIP3   OH229305   5.302   1.499   0.914  0.5688  0.2002  0.4417
 2557TIP3    H129306   5.366   1.514   0.984  2.6817 -0.8746 -1.1507
 2557TIP3    H229307   5.279   1.406   0.922  2.1105 -0.3929 -1.1942
 2558TIP3   OH229308   2.560   1.300   6.989 -0.0912  0.0383 -0.3256
 2558TIP3    H129309   2.475   1.264   6.964 -0.1859 -2.0273  2.4501
 2558TIP3    H229310   2.623   1.232   6.965  0.7010  1.1618 -1.5315
 2559TIP3   OH229311   4.230   0.354   0.138 -0.2884  0.2064  0.3417
 2559TIP3    H129312   4.306   0.328   0.190  1.0249  2.0913 -0.5013
 2559TIP3    H229313   4.221   0.286   0.072  0.7644  0.0141  0.3792
 2560TIP3   OH229314   3.756   6.808   3.282 -0.1149  0.2323  0.0156
 2560TIP3    H129315   3.795   6.726   3.251  1.4706  1.0708 -0.3077
 2560TIP3    H229316   3.663   6.787   3.294  0.1295 -1.4291 -0.6804
 2561TIP3   OH229317   6.164   2.097   0.473  0.5836  0.1051 -0.0314
 2561TIP3    H129318   6.182   2.183   0.436  1.1356  0.0443  0.0959
 2561TIP3    H229319   6.191   2.103   0.564  1.8248 -0.5815 -0.3333
 2562TIP3   OH229320   3.411   3.787   6.862 -0.2360 -0.1798  0.1512
 2562TIP3    H129321   3.340   3.725   6.879 -0.3023 -0.0168  0.4671
 2562TIP3    H229322   3.479   3.765   6.926 -0.7125  0.7909  0.9998
 2563TIP3   OH229323   0.618   5.701   7.608  0.1379 -0.5701  0.5341
 2563TIP3    H129324   0.710   5.675   7.607  0.4885  0.3869 -2.7420
 2563TIP3    H229325   0.600   5.719   7.700  2.3477 -3.5091  1.7278
 2564TIP3   OH229326   3.292   4.606   8.269 -0.0118  0.2977  0.1769
 2564TIP3    H129327   3.339   4.626   8.188 -1.3208  1.1476 -0.4039
 2564TIP3    H229328   3.211   4.563   8.240  0.4932 -1.4278  1.1627
 2565TIP3   OH229329   6.685   6.469   7.054  0.1618 -0.0885  0.0671
 2565TIP3    H129330   6.733   6.466   6.972  1.1663  0.2973  0.6285
 2565TIP3    H229331   6.646   6.556   7.056  1.4815  0.5071  0.7316
 2566TIP3   OH229332   5.165   5.681   7.976  0.3646  0.0803 -0.2518
 2566TIP3    H129333   5.186   5.774   7.990  0.9231 -0.0532 -0.1743
 2566TIP3    H229334   5.203   5.661   7.891  1.6441 -0.4764  0.4239
 2567TIP3   OH229335   6.107   1.014   3.299 -0.0787  0.1570 -0.0600
 2567TIP3    H129336   6.201   1.020   3.315  0.4537 -0.2801 -2.5659
 2567TIP3    H229337   6.097   0.933   3.249 -1.6076  0.7964 -0.8589
 2568TIP3   OH229338   6.464   3.247   6.687  0.2861  0.2156 -0.0699
 2568TIP3    H129339   6.434   3.241   6.596  2.7359 -0.4470 -0.9083
 2568TIP3    H229340   6.416   3.178   6.733  1.1790 -1.4713 -1.5580
 2569TIP3   OH229341   1.279   1.931   7.910 -0.4085  0.6292 -0.6777
 2569TIP3    H129342   1.352   1.870   7.916 -0.3033  0.6950 -1.3092
 2569TIP3    H229343   1.223   1.895   7.842 -0.8770  0.6742 -0.3210
 2570TIP3   OH229344   3.630   5.891   1.341 -0.1081 -0.9445 -0.1737
 2570TIP3    H129345   3.594   5.902   1.253  0.8090 -1.2493 -0.6013
 2570TIP3    H229346   3.677   5.972   1.359 -0.7935 -0.6374  0.2935
 2571TIP3   OH229347   4.221   3.762   0.040  0.0314 -0.1991  0.6075
 2571TIP3    H129348   4.152   3.714   0.087  0.2489 -0.9469  0.1743
 2571TIP3    H229349   4.287   3.696   0.021  1.1284  0.6042  1.4811
 2572TIP3   OH229350   3.595   0.021   1.969  0.3531  0.0695  0.1008
 2572TIP3    H129351   3.510  -0.018   1.992  0.1360 -0.5682 -1.6671
 2572TIP3    H229352   3.642  -0.048   1.923  1.3421  0.8341 -0.0665
 2573TIP3   OH229353   5.157   1.890   8.391  0.1240 -0.4382  0.5305
 2573TIP3    H129354   5.106   1.887   8.472 -1.3245  0.1420 -0.3218
 2573TIP3    H229355   5.092   1.880   8.321  0.9624  1.7273 -0.6624
 2574TIP3   OH229356   2.970   2.236   2.135  0.7408 -0.0767  0.2751
 2574TIP3    H129357   3.002   2.232   2.225 -1.0338  1.2870  1.0294
 2574TIP3    H229358   2.874   2.239   2.143  0.5714  2.1938 -1.5095
 2575TIP3   OH229359   1.904   4.226   0.910 -0.1670 -0.1139 -0.1656
 2575TIP3    H129360   1.820   4.194   0.942 -0.5131  0.6188 -0.3179
 2575TIP3    H229361   1.939   4.277   0.983 -0.1216  0.0539 -0.3026
 2576TIP3   OH229362   2.290   0.254   7.398 -0.2471 -0.1263 -0.3767
 2576TIP3    H129363   2.318   0.168   7.367  0.5202 -0.6638  1.6331
 2576TIP3    H229364   2.205   0.237   7.440 -0.4487  0.2502 -0.6246
 2577TIP3   OH229365   1.597   6.319   1.720  0.3439 -0.0233  0.1201
 2577TIP3    H129366   1.523   6.258   1.709  1.3700 -0.9906 -2.0017
 2577TIP3    H229367   1.558   6.406   1.712 -0.3429 -0.4865 -4.2375
 2578TIP3   OH229368   3.821   1.410   3.057 -0.1804 -0.0003 -0.0939
 2578TIP3    H129369   3.916   1.418   3.053 -0.2540  1.2072  0.2261
 2578TIP3    H229370   3.790   1.458   2.980 -0.5373 -0.3092 -0.1463
 2579TIP3   OH229371   6.247   1.987   6.635 -0.2363 -0.5808 -0.5012
 2579TIP3    H129372   6.296   1.957   6.712  0.4569  0.4069 -0.5473
 2579TIP3    H229373   6.186   2.052   6.670  0.8056  0.6563 -0.9045
 2580TIP3   OH229374   2.106   0.545   2.119 -0.3740  0.2886 -0.0076
 2580TIP3    H129375   2.198   0.521   2.125 -0.3817  0.1952 -0.2435
 2580TIP3    H229376   2.065   0.471   2.073 -0.6173  0.1973  0.3540
 2581TIP3   OH229377   3.970   2.945   0.447  0.2443 -0.2903  0.1322
 2581TIP3    H129378   4.044   3.003   0.466 -0.4443  1.3369 -1.7788
 2581TIP3    H229379   3.926   2.986   0.372 -1.2572 -2.4393 -0.2567
 2582TIP3   OH229380   1.618   6.324   0.367 -0.7237  0.2247 -0.3058
 2582TIP3    H129381   1.666   6.397   0.406 -1.9728  2.7873 -3.2288
 2582TIP3    H229382   1.686   6.270   0.326  0.0657  0.8374  0.1749
 2583TIP3   OH229383   0.822   4.784   0.758  0.5411  0.4795  0.0870
 2583TIP3    H129384   0.866   4.736   0.828 -0.7653 -0.4372  0.2897
 2583TIP3    H229385   0.894   4.823   0.708  1.5336  0.2156  1.2608
 2584TIP3   OH229386   4.220   5.235   8.163  0.0681  0.4528  0.6112
 2584TIP3    H129387   4.208   5.214   8.255  2.1495  0.8496  1.0010
 2584TIP3    H229388   4.216   5.151   8.118  3.7706 -0.4351  1.6530
 2585TIP3   OH229389   2.176   4.778   7.597 -0.4140 -0.3528  0.1151
 2585TIP3    H129390   2.183   4.829   7.677  0.7783 -0.6367  0.2039
 2585TIP3    H229391   2.082   4.780   7.576 -0.4216  1.9303  0.0620
 2586TIP3   OH229392   6.068   2.295   1.862 -0.2446 -1.1411 -0.1844
 2586TIP3    H129393   6.131   2.337   1.920  0.0598 -0.8862 -0.6878
 2586TIP3    H229394   6.074   2.202   1.882  1.9413 -1.4160 -1.7539
 2587TIP3   OH229395   6.265   0.126   2.039  0.4359  0.5684  0.2544
 2587TIP3    H129396   6.254   0.037   2.071  2.1429  0.2248  0.0004
 2587TIP3    H229397   6.267   0.180   2.118 -0.3317  0.3540  0.4252
 2588TIP3   OH229398   3.480   6.942   7.090  0.3501 -0.4232 -0.2950
 2588TIP3    H129399   3.444   6.906   7.009  0.4053 -0.7238 -0.1875
 2588TIP3    H229400   3.505   6.865   7.142 -1.3636 -0.2963  0.7820
 2589TIP3   OH229401   1.169   0.546   8.527  0.4348  0.4946  0.0570
 2589TIP3    H129402   1.103   0.569   8.461  0.8495  0.0137 -0.5331
 2589TIP3    H229403   1.243   0.605   8.508  1.1324 -0.6260 -0.8633
 2590TIP3   OH229404   2.364   3.376   0.382 -0.3678 -0.9661 -0.5559
 2590TIP3    H129405   2.290   3.437   0.389 -0.1235 -0.6475 -0.6828
 2590TIP3    H229406   2.329   3.292   0.412 -0.7425 -0.7888 -0.4834
 2591TIP3   OH229407   3.162   6.707   1.036 -0.3726  1.0647  0.2613
 2591TIP3    H129408   3.161   6.611   1.028  1.1183  1.1588 -1.6497
 2591TIP3    H229409   3.223   6.724   1.108 -1.6013  0.6016  1.4753
 2592TIP3   OH229410   6.453   5.455   0.555 -0.5194  0.5134 -0.0082
 2592TIP3    H129411   6.432   5.394   0.625  0.1640 -1.3470 -1.3302
 2592TIP3    H229412   6.548   5.467   0.561 -0.5402  0.8117 -0.2396
 2593TIP3   OH229413   5.475   5.751   0.619 -0.1607 -0.4895 -0.2269
 2593TIP3    H129414   5.385   5.717   0.614 -0.6402  0.8194 -1.0192
 2593TIP3    H229415   5.464   5.846   0.626  1.1465 -0.3993  1.2297
 2594TIP3   OH229416   4.682   0.991   2.538  0.4947  0.3112 -0.2654
 2594TIP3    H129417   4.693   1.080   2.507 -0.4322  0.7317  0.5349
 2594TIP3    H229418   4.769   0.951   2.530  0.8219  1.1508 -1.0153
 2595TIP3   OH229419   0.665   3.495   6.568  0.1484  0.0145  0.4459
 2595TIP3    H129420   0.620   3.521   6.649  1.0669 -2.0997  1.7191
 2595TIP3    H229421   0.751   3.465   6.597  0.5713 -0.6435 -1.3641
 2596TIP3   OH229422   5.953   4.370   7.902  0.1730  0.3808 -0.1839
 2596TIP3    H129423   5.867   4.408   7.916  0.6848  1.7647 -0.6017
 2596TIP3    H229424   5.936   4.281   7.872 -1.0582  0.1355  1.1952
 2597TIP3   OH229425   2.627   4.679   7.428 -0.4646  0.2254  0.2172
 2597TIP3    H129426   2.543   4.719   7.407  0.0022  1.4871  0.6802
 2597TIP3    H229427   2.607   4.617   7.498 -0.7920  1.6140  1.3965
 2598TIP3   OH229428   2.770   3.744   7.380  0.1293  0.2624 -0.2142
 2598TIP3    H129429   2.773   3.819   7.439 -0.5435 -0.2531  0.4795
 2598TIP3    H229430   2.762   3.783   7.293  0.9625  1.0203  0.0254
 2599TIP3   OH229431   1.068   1.271   6.704 -0.1232 -0.1678  0.1549
 2599TIP3    H129432   1.007   1.332   6.662  1.7391  0.1926 -2.2689
 2599TIP3    H229433   1.015   1.224   6.769 -2.2937  1.9582  0.0626
 2600TIP3   OH229434   6.265   2.942   8.495  0.3029  0.0605  0.4115
 2600TIP3    H129435   6.327   2.928   8.422  1.2748  0.0835  1.2068
 2600TIP3    H229436   6.316   2.991   8.560 -1.1065  1.6623  0.3589
 2601TIP3   OH229437   1.514   3.426   7.339  0.0093  0.3882 -0.1356
 2601TIP3    H129438   1.583   3.459   7.282  1.3491 -1.9898 -0.0179
 2601TIP3    H229439   1.467   3.362   7.285  0.0009 -0.3839  0.7580
 2602TIP3   OH229440   5.431   0.350   1.819  0.5485 -0.2508 -0.5942
 2602TIP3    H129441   5.414   0.257   1.805  0.8685 -0.4642  0.3261
 2602TIP3    H229442   5.443   0.358   1.914 -1.5532  1.0846 -0.3884
 2603TIP3   OH229443   4.348   3.299   1.986  0.0016  0.9823 -0.0514
 2603TIP3    H129444   4.307   3.360   2.048  0.4232  0.0279  1.2203
 2603TIP3    H229445   4.346   3.214   2.032  0.5866  0.2983 -1.2467
 2604TIP3   OH229446   3.265   1.487   0.009 -0.2003 -0.1784 -0.2034
 2604TIP3    H129447   3.179   1.484  -0.033 -0.5436  0.4216  0.4431
 2604TIP3    H229448   3.247   1.467   0.101  0.3461  0.0092 -0.0542
 2605TIP3   OH229449   2.577   1.465   0.369  0.2804 -0.3214  0.0946
 2605TIP3    H129450   2.544   1.514   0.444  1.2904  0.9429 -0.2481
 2605TIP3    H229451   2.498   1.437   0.322 -0.3490  2.0382 -0.3586
 2606TIP3   OH229452   5.674   3.549   8.214 -0.1087  0.0189 -0.2512
 2606TIP3    H129453   5.686   3.466   8.260 -1.0374 -0.6656 -1.2150
 2606TIP3    H229454   5.625   3.604   8.276  0.0726 -0.3175  0.1964
 2607TIP3   OH229455   2.900   6.503   2.348 -0.4292  0.1764 -0.3448
 2607TIP3    H129456   2.952   6.476   2.272  0.1358 -0.6699  0.3234
 2607TIP3    H229457   2.943   6.581   2.381 -1.2341  1.1163 -1.4424
 2608TIP3   OH229458   0.190   6.910   0.874  0.2326 -0.3694  0.2345
 2608TIP3    H129459   0.234   6.841   0.924 -2.0127 -2.7283 -0.8155
 2608TIP3    H229460   0.209   6.890   0.783  0.4046  1.0911 -0.0785
 2609TIP3   OH229461   4.080   4.963   0.826  0.1370  0.2286  0.5330
 2609TIP3    H129462   4.063   4.892   0.888  0.4151 -0.6476 -0.3532
 2609TIP3    H229463   4.009   5.025   0.840 -0.3508 -0.4326  1.0540
 2610TIP3   OH229464   4.817   3.480   7.635  0.2055  0.5951  0.0267
 2610TIP3    H129465   4.895   3.495   7.583  0.0279  1.0008 -0.1228
 2610TIP3    H229466   4.801   3.563   7.680 -0.2875  0.5996 -0.1452
 2611TIP3   OH229467   2.844   1.159   1.449  0.2002  0.0992 -0.5246
 2611TIP3    H129468   2.839   1.069   1.417  0.5796 -0.8246  1.8429
 2611TIP3    H229469   2.756   1.195   1.437 -0.3016 -1.0298 -0.2881
 2612TIP3   OH229470   0.476   4.863   8.221  0.3873 -0.2439 -0.5531
 2612TIP3    H129471   0.509   4.774   8.210 -0.1778 -0.3280 -1.7336
 2612TIP3    H229472   0.482   4.901   8.133  0.6208  0.8791 -0.0554
 2613TIP3   OH229473   5.335   6.236   0.986  0.2158  0.4058 -0.2752
 2613TIP3    H129474   5.368   6.280   1.064  0.3858 -1.6144  0.8343
 2613TIP3    H229475   5.247   6.273   0.973 -0.6535 -0.6829  2.0994
 2614TIP3   OH229476   0.565   6.800   1.913 -0.5944 -0.0201 -0.1923
 2614TIP3    H129477   0.550   6.709   1.887  1.8253 -0.7935  0.7837
 2614TIP3    H229478   0.568   6.797   2.009  3.1519  0.2590 -0.1485
 2615TIP3   OH229479   3.576   3.173   0.002  0.2802  0.3465 -0.6592
 2615TIP3    H129480   3.593   3.094   0.055  2.1689  1.4461  0.4875
 2615TIP3    H229481   3.487   3.199   0.026 -0.3443 -1.3552 -0.9925
 2616TIP3   OH229482   3.935   3.116   2.367 -0.6456 -0.1510 -0.3707
 2616TIP3    H129483   3.903   3.206   2.355  2.3889  1.0478 -0.3947
 2616TIP3    H229484   3.951   3.109   2.461  2.2646  0.6452 -0.7043
 2617TIP3   OH229485   3.292   5.814   2.326 -0.2034  0.0601 -0.7091
 2617TIP3    H129486   3.260   5.724   2.333  0.2732 -0.0951 -0.4957
 2617TIP3    H229487   3.225   5.867   2.370 -0.2820 -0.2356 -0.4727
 2618TIP3   OH229488   5.464   4.175   6.785  0.6968  0.3490 -0.0486
 2618TIP3    H129489   5.519   4.114   6.737  1.4686  0.7328  0.3084
 2618TIP3    H229490   5.458   4.252   6.729  2.2859  1.1217  0.7678
 2619TIP3   OH229491   6.779   5.465   7.396 -0.2878 -0.7683  0.0820
 2619TIP3    H129492   6.714   5.438   7.331  0.4397  0.9830 -1.4584
 2619TIP3    H229493   6.820   5.543   7.359  1.4487 -0.7517  1.8394
 2620TIP3   OH229494   0.460   0.662   8.227  0.1678 -0.0030  0.1058
 2620TIP3    H129495   0.521   0.671   8.300  0.4986 -0.9621 -0.0381
 2620TIP3    H229496   0.440   0.568   8.224 -0.5594  0.1615 -0.4624
 2621TIP3   OH229497   4.325   6.170   2.837 -0.1678  0.0528 -0.1200
 2621TIP3    H129498   4.283   6.098   2.884  0.2729 -1.5098 -1.9807
 2621TIP3    H229499   4.413   6.175   2.875 -0.4524  0.1591  0.5495
 2622TIP3   OH229500   5.743   2.562   8.310  0.7129 -0.0121 -0.2260
 2622TIP3    H129501   5.754   2.467   8.311 -2.7030 -0.5534  1.6751
 2622TIP3    H229502   5.720   2.582   8.219 -0.0763 -1.2733 -0.3312
 2623TIP3   OH229503   2.341   1.652   8.265  0.2152 -0.3062 -0.2096
 2623TIP3    H129504   2.361   1.691   8.180  0.7468  0.1938  0.1379
 2623TIP3    H229505   2.274   1.586   8.246 -0.9622  1.0030 -0.7529
 2624TIP3   OH229506   6.766   6.361   1.793 -0.5622 -0.0389 -0.4473
 2624TIP3    H129507   6.737   6.451   1.777 -1.2124 -0.3808 -1.2454
 2624TIP3    H229508   6.694   6.306   1.761  0.3422 -0.8709 -1.1367
 2625TIP3   OH229509   1.144   2.392   6.826  0.3173 -0.7511 -0.1000
 2625TIP3    H129510   1.142   2.439   6.743  4.1466  0.2140  0.1808
 2625TIP3    H229511   1.212   2.436   6.877  0.1339 -3.1343  2.4372
 2626TIP3   OH229512   2.577   2.956   1.084 -0.1569 -0.1750 -0.3178
 2626TIP3    H129513   2.582   2.962   1.179  1.2835  1.9011 -0.4751
 2626TIP3    H229514   2.596   2.864   1.065 -1.2926 -0.8117  1.4099
 2627TIP3   OH229515   2.485   6.634   2.141 -0.0030 -0.2279 -0.3418
 2627TIP3    H129516   2.419   6.697   2.171 -1.0413 -1.4726  0.0600
 2627TIP3    H229517   2.467   6.623   2.048 -0.4374 -0.6436 -0.2111
 2628TIP3   OH229518   1.061   4.018   0.706 -0.3246  0.0197 -0.4659
 2628TIP3    H129519   0.982   4.013   0.652 -0.3642 -0.6086 -0.3635
 2628TIP3    H229520   1.040   4.082   0.773 -1.1124 -0.8309  0.1314
 2629TIP3   OH229521   6.432   1.047   1.941  0.2059  0.7303  0.2054
 2629TIP3    H129522   6.510   1.102   1.948  1.6068 -1.2143  0.6208
 2629TIP3    H229523   6.366   1.093   1.992  1.2019  2.2199  0.2133
 2630TIP3   OH229524   6.052   2.117   8.174  0.4441  0.3274  0.5345
 2630TIP3    H129525   6.134   2.069   8.168  0.2586  0.1371 -0.9071
 2630TIP3    H229526   6.076   2.202   8.211  1.2880  0.2565  0.1719
 2631TIP3   OH229527   4.175   5.842   8.017 -0.3271  0.1072 -0.6268
 2631TIP3    H129528   4.151   5.924   8.059  1.2669  1.2731 -1.8710
 2631TIP3    H229529   4.112   5.778   8.051 -0.0983  1.2765  2.2902
 2632TIP3   OH229530   5.983   1.351   2.278 -0.4917  0.5309  0.0911
 2632TIP3    H129531   5.998   1.316   2.366 -1.0293 -0.9714 -0.3755
 2632TIP3    H229532   6.060   1.323   2.229  0.2973  2.2349  0.2933
 2633TIP3   OH229533   5.852   5.407   8.420 -0.2113  0.3168  0.8296
 2633TIP3    H129534   5.770   5.358   8.412  0.0009 -0.1748  1.5291
 2633TIP3    H229535   5.834   5.473   8.486 -0.1155  0.3677  0.8052
 2634TIP3   OH229536   5.468   2.758   0.588  0.6494 -0.0690 -0.1700
 2634TIP3    H129537   5.418   2.797   0.516  1.2792 -0.3429 -0.7631
 2634TIP3    H229538   5.430   2.671   0.600  1.0112 -0.2945 -0.6508
 2635TIP3   OH229539   5.786   4.061   0.169  0.5155 -0.1255 -0.0793
 2635TIP3    H129540   5.780   4.150   0.134  0.7889 -0.4889 -1.0643
 2635TIP3    H229541   5.803   4.006   0.093 -0.7449 -1.1668  0.3651
 2636TIP3   OH229542   6.645   2.416   8.424  0.2036 -0.4388  0.1265
 2636TIP3    H129543   6.575   2.463   8.470 -0.3312 -0.4467 -0.6588
 2636TIP3    H229544   6.609   2.329   8.407 -0.8762  0.5013 -3.0589
 2637TIP3   OH229545   0.011   2.237   0.831 -0.0645  0.4014 -0.2249
 2637TIP3    H129546  -0.041   2.167   0.790 -2.4351  1.3453  0.9479
 2637TIP3    H229547   0.047   2.196   0.910  0.2303 -0.0270 -0.5753
 2638TIP3   OH229548   1.072   4.740   7.327 -0.5363  0.7653  0.1205
 2638TIP3    H129549   1.119   4.663   7.295 -0.0784  0.0718  2.2834
 2638TIP3    H229550   1.135   4.811   7.320 -0.2133  0.4847  0.1484
 2639TIP3   OH229551   1.194   6.578   0.356  0.2912 -0.4360  0.0367
 2639TIP3    H129552   1.257   6.553   0.424 -1.3886  0.7937  2.1834
 2639TIP3    H229553   1.240   6.643   0.303  1.2444 -0.4735  0.7972
 2640TIP3   OH229554   6.155   0.771   1.677 -0.1712  0.0408 -0.1020
 2640TIP3    H129555   6.206   0.710   1.624 -0.4417  0.0630 -0.3860
 2640TIP3    H229556   6.191   0.761   1.766  0.2770  0.0053 -0.2858
 2641TIP3   OH229557   2.178   2.431   2.037  0.0909 -0.0967  0.3405
 2641TIP3    H129558   2.267   2.464   2.043 -0.5553  1.4680  2.6953
 2641TIP3    H229559   2.123   2.508   2.049 -1.6108 -1.0720 -0.7186
 2642TIP3   OH229560   6.151   2.187   7.017 -0.1051 -0.0758 -0.3558
 2642TIP3    H129561   6.147   2.095   6.991 -0.6835 -0.5382  1.2505
 2642TIP3    H229562   6.064   2.222   6.997 -0.9090 -0.7112  1.8059
 2643TIP3   OH229563   5.760   2.841   0.161  0.4636  0.1509  0.2315
 2643TIP3    H129564   5.741   2.924   0.205  1.9202 -0.0143  1.2272
 2643TIP3    H229565   5.792   2.784   0.231  1.9057 -0.4313 -0.8574
 2644TIP3   OH229566   0.212   4.191   7.107 -0.3353  0.6825 -0.3690
 2644TIP3    H129567   0.216   4.223   7.197  1.8880  1.8357 -0.8134
 2644TIP3    H229568   0.185   4.099   7.116 -1.0047  1.0046  1.3925
 2645TIP3   OH229569   6.453   0.760   7.533 -0.3170  0.3707  0.4244
 2645TIP3    H129570   6.476   0.674   7.496 -0.2810  0.8146 -0.6254
 2645TIP3    H229571   6.537   0.795   7.564 -0.1936  0.3698  0.1003
 2646TIP3   OH229572   0.701   2.496   8.126 -0.9756 -0.0602  0.8368
 2646TIP3    H129573   0.699   2.438   8.050 -0.2677 -0.3998  1.0685
 2646TIP3    H229574   0.615   2.539   8.125 -1.1624 -0.4238  0.1342
 2647TIP3   OH229575   2.750   4.057   7.931 -0.3706 -0.1645 -0.9693
 2647TIP3    H129576   2.723   3.980   7.882 -2.1428 -0.3182  0.1592
 2647TIP3    H229577   2.774   4.121   7.863 -2.1006 -0.5869 -2.0389
 2648TIP3   OH229578   2.066   6.297   0.740  0.3319  0.9647  0.9037
 2648TIP3    H129579   2.091   6.341   0.659 -1.8971  0.3050 -0.2463
 2648TIP3    H229580   2.088   6.359   0.809  0.1696  2.5657 -0.4185
 2649TIP3   OH229581   5.605   6.742   2.662 -0.2433  0.6493  0.0944
 2649TIP3    H129582   5.536   6.806   2.643 -0.8026 -0.1820 -0.7757
 2649TIP3    H229583   5.564   6.657   2.645  1.3168  0.1674 -1.6510
 2650TIP3   OH229584   4.162   1.507   2.002 -0.1679  0.4328  0.0198
 2650TIP3    H129585   4.232   1.501   2.067  0.5951  2.7925 -0.4938
 2650TIP3    H229586   4.083   1.519   2.053 -0.2655 -2.1514  0.6040
 2651TIP3   OH229587   6.108   5.427   6.939 -0.5920  0.3158  0.1225
 2651TIP3    H129588   6.016   5.401   6.931 -0.6579  0.6016 -0.0564
 2651TIP3    H229589   6.113   5.469   7.025 -0.6623  0.4433  0.0638
 2652TIP3   OH229590   0.137   3.518   1.716 -0.7182 -0.7127  1.0263
 2652TIP3    H129591   0.092   3.543   1.797 -0.1557 -0.1680  1.1859
 2652TIP3    H229592   0.222   3.486   1.745  0.4290  1.6749  0.5585
 2653TIP3   OH229593   0.263   1.551   0.194  0.7066  0.3659  0.5912
 2653TIP3    H129594   0.171   1.535   0.217  1.1356 -1.9801  0.9759
 2653TIP3    H229595   0.261   1.629   0.138 -1.4716  0.5638  0.8564
 2654TIP3   OH229596   2.270   3.294   8.050  0.1657 -0.1389  0.1712
 2654TIP3    H129597   2.366   3.299   8.046  0.1006  0.5500 -2.3692
 2654TIP3    H229598   2.241   3.329   7.966 -2.3158 -1.0202  0.5832
 2655TIP3   OH229599   0.129   1.738   7.418  0.5118  0.2696  0.3992
 2655TIP3    H129600   0.087   1.763   7.336 -0.9840 -3.3449 -0.1144
 2655TIP3    H229601   0.102   1.806   7.481 -1.2816  1.1902 -1.2664
 2656TIP3   OH229602   0.460   1.605   0.743  0.4439 -0.2986  0.0835
 2656TIP3    H129603   0.408   1.525   0.742 -1.3673  0.8120 -0.0511
 2656TIP3    H229604   0.463   1.633   0.651  1.0983 -0.2259  0.1234
 2657TIP3   OH229605   4.569   5.132   1.335 -0.0376 -0.0854 -0.2306
 2657TIP3    H129606   4.497   5.130   1.271  0.1049 -1.0335 -0.3754
 2657TIP3    H229607   4.591   5.225   1.343 -0.7342  0.1421 -0.7999
 2658TIP3   OH229608   4.991   4.557   2.368 -0.1524  0.1464  0.1638
 2658TIP3    H129609   5.056   4.490   2.388 -1.7254 -1.2421  0.8366
 2658TIP3    H229610   4.908   4.521   2.400 -1.0927  2.3522  0.4238
 2659TIP3   OH229611   6.567   3.389   7.698 -0.2373 -1.1103  0.0302
 2659TIP3    H129612   6.513   3.360   7.626 -0.4681 -2.0462  0.5719
 2659TIP3    H229613   6.555   3.484   7.700  0.0723 -1.0243 -1.3846
 2660TIP3   OH229614   5.739   6.926   1.014  0.5526 -0.1815 -0.8151
 2660TIP3    H129615   5.720   6.993   0.949  0.4834  1.3006  0.6538
 2660TIP3    H229616   5.656   6.880   1.027  0.0976  0.7105 -0.4920
 2661TIP3   OH229617   2.874   6.110   8.028  0.1467 -0.4019 -0.6485
 2661TIP3    H129618   2.916   6.196   8.030  1.9866 -1.2928  0.2284
 2661TIP3    H229619   2.866   6.084   8.120 -0.3689 -1.1866 -0.9014
 2662TIP3   OH229620   5.007   0.247   0.578 -0.8120 -0.1087 -0.0286
 2662TIP3    H129621   5.074   0.245   0.646  1.0051  0.8470 -1.6672
 2662TIP3    H229622   4.973   0.337   0.580 -0.4104  0.0649 -0.6566
 2663TIP3   OH229623   2.029   5.355   8.283  0.1043 -0.0780 -0.0638
 2663TIP3    H129624   2.010   5.261   8.284 -1.0526  0.0459 -2.6339
 2663TIP3    H229625   1.951   5.394   8.323  0.2082 -0.1729  0.2324
 2664TIP3   OH229626   4.585   0.410   8.308 -0.1181  0.0566 -0.1482
 2664TIP3    H129627   4.564   0.340   8.247  0.4153  1.8129 -2.5150
 2664TIP3    H229628   4.504   0.461   8.314  0.1240  0.4574 -0.2308
 2665TIP3   OH229629   0.694   4.030   0.118 -0.6368  0.1481 -0.2677
 2665TIP3    H129630   0.607   4.060   0.146 -1.1104  0.7574 -2.2037
 2665TIP3    H229631   0.751   4.105   0.136 -0.5989 -0.0636  0.5303
 2666TIP3   OH229632   6.537   3.662   6.622 -0.0278  0.0423  0.1343
 2666TIP3    H129633   6.499   3.722   6.687  0.7368 -0.1665  0.7802
 2666TIP3    H229634   6.579   3.594   6.674 -1.5443 -1.5101 -0.5945
 2667TIP3   OH229635   4.449   0.424   2.093 -0.2474  0.2896  0.2294
 2667TIP3    H129636   4.515   0.405   2.161 -0.8397 -1.4887  0.3643
 2667TIP3    H229637   4.369   0.384   2.127 -0.8740  0.5587 -0.9160
 2668TIP3   OH229638   6.699   4.442   8.326 -0.1755 -0.3663 -0.3628
 2668TIP3    H129639   6.637   4.410   8.261  0.4471  1.5170 -1.9789
 2668TIP3    H229640   6.785   4.431   8.285  0.2914  0.1646  0.4443
 2669TIP3   OH229641   5.654   3.923   1.785 -0.1150 -0.2829 -0.6920
 2669TIP3    H129642   5.721   3.888   1.844 -0.6089 -1.3713 -0.7590
 2669TIP3    H229643   5.602   3.847   1.760 -0.8024  0.4019 -1.3890
 2670TIP3   OH229644   1.287   2.737   2.462 -0.1485  0.0463  0.0308
 2670TIP3    H129645   1.375   2.704   2.479  0.2915  1.8255  1.5838
 2670TIP3    H229646   1.299   2.806   2.397 -0.7270 -1.1607 -1.3948
 2671TIP3   OH229647   6.043   4.239   6.843 -0.1435 -0.7162  0.1097
 2671TIP3    H129648   6.117   4.293   6.869 -0.2595 -1.0591  1.2329
 2671TIP3    H229649   6.076   4.185   6.772 -0.4410  1.8052 -2.0844
 2672TIP3   OH229650   1.375   6.378   2.473  0.4082  0.5285  0.1051
 2672TIP3    H129651   1.417   6.464   2.472 -0.6416  1.0571 -0.7194
 2672TIP3    H229652   1.292   6.391   2.427 -0.6046 -0.5007  1.5206
 2673TIP3   OH229653   3.226   4.399   1.255 -0.7890  0.0778  0.0970
 2673TIP3    H129654   3.173   4.424   1.331 -1.4952  0.4063 -0.4971
 2673TIP3    H229655   3.179   4.326   1.216 -0.0171 -0.6067  0.4049
 2674TIP3   OH229656   1.482   6.113   2.104 -0.1358 -0.1729  0.1491
 2674TIP3    H129657   1.501   6.056   2.179 -2.0805 -0.6926  0.3040
 2674TIP3    H229658   1.498   6.057   2.028  1.0086  0.0836  0.1932
 2675TIP3   OH229659   6.579   2.672   8.089  0.0176 -0.0760  0.2084
 2675TIP3    H129660   6.623   2.587   8.089  0.4663  0.0455 -2.8791
 2675TIP3    H229661   6.492   2.654   8.055 -0.2069  0.5986  0.4060
 2676TIP3   OH229662   6.528   6.424   7.451 -0.3588  0.3454 -0.2556
 2676TIP3    H129663   6.527   6.371   7.371  0.0254 -0.1946  0.0894
 2676TIP3    H229664   6.617   6.459   7.454 -1.0025  2.2287 -1.2516
 2677TIP3   OH229665   5.569   2.480   1.646 -0.1803 -0.4478  0.1958
 2677TIP3    H129666   5.527   2.527   1.574 -1.1863  0.3915  1.2903
 2677TIP3    H229667   5.662   2.482   1.624 -0.2014  1.8388  0.0172
 2678TIP3   OH229668   2.011   5.663   7.672 -0.3732 -0.3654  0.2943
 2678TIP3    H129669   1.940   5.630   7.617  0.6325  0.5810 -1.6706
 2678TIP3    H229670   1.967   5.719   7.736 -1.4122  0.6190 -1.2023
 2679TIP3   OH229671   4.898   4.103   7.165  0.2520 -0.1527  0.3269
 2679TIP3    H129672   4.903   4.195   7.189  1.2654 -0.5875  1.9293
 2679TIP3    H229673   4.983   4.083   7.127 -0.1831 -0.2949 -0.6074
 2680TIP3   OH229674   0.315   1.375   0.735 -0.7085  0.1324  0.3719
 2680TIP3    H129675   0.251   1.354   0.667  0.1933  0.6028 -0.6457
 2680TIP3    H229676   0.332   1.292   0.779  0.2536 -0.6315 -1.3544
 2681TIP3   OH229677   5.972   4.990   0.657 -0.6154  0.6278 -0.2648
 2681TIP3    H129678   6.036   4.950   0.597  0.9515 -0.7325  2.1456
 2681TIP3    H229679   5.996   4.957   0.743 -4.1438  0.7109  0.9078
 2682TIP3   OH229680   0.716   5.508   0.311  0.2909 -0.6946  0.1221
 2682TIP3    H129681   0.663   5.473   0.240  1.0734 -0.9471 -0.3397
 2682TIP3    H229682   0.784   5.443   0.325  0.1145 -0.6771  1.1488
 2683TIP3   OH229683   5.158   0.123   7.384  0.3024  1.0179 -0.0071
 2683TIP3    H129684   5.160   0.100   7.291  0.0340 -0.4077  0.3088
 2683TIP3    H229685   5.115   0.048   7.426  1.2781  1.1941  1.3820
 2684TIP3   OH229686   0.031   0.297   0.174 -0.0858  0.3125 -0.1687
 2684TIP3    H129687  -0.017   0.336   0.102 -0.7272 -0.9905 -0.4810
 2684TIP3    H229688  -0.030   0.235   0.214  0.4919  0.4850  1.0506
 2685TIP3   OH229689   2.136   4.869   1.234  0.4824  0.2448  0.0796
 2685TIP3    H129690   2.162   4.961   1.226 -0.5795  0.5743  0.2249
 2685TIP3    H229691   2.104   4.846   1.147 -4.2525  1.6632  1.1503
 2686TIP3   OH229692   2.139   0.033   2.820  0.1601 -0.5053  0.2028
 2686TIP3    H129693   2.068   0.094   2.798  0.3825  0.4564  1.9567
 2686TIP3    H229694   2.219   0.079   2.793  0.2727 -0.4298  0.6605
 2687TIP3   OH229695   6.596   5.107   1.646 -0.1438 -0.1491 -0.5627
 2687TIP3    H129696   6.664   5.109   1.713  0.8019 -1.5735 -1.4231
 2687TIP3    H229697   6.625   5.040   1.584 -2.4945 -1.0696 -0.7914
 2688TIP3   OH229698   0.161   1.835   0.047  0.2801 -0.9197  0.1389
 2688TIP3    H129699   0.117   1.813   0.130  1.3121 -0.2239  0.9020
 2688TIP3    H229700   0.109   1.906   0.011  0.8906  0.0968  1.1800
 2689TIP3   OH229701   4.540   5.252   7.616 -0.0620  0.3876  0.1867
 2689TIP3    H129702   4.553   5.170   7.663 -0.5082 -0.1652 -0.6288
 2689TIP3    H229703   4.579   5.236   7.529  0.2432  1.1909  0.1679
 2690TIP3   OH229704   6.312   2.850   0.347 -0.0336 -0.1442  0.6320
 2690TIP3    H129705   6.227   2.881   0.380 -0.0462  0.6353 -0.0982
 2690TIP3    H229706   6.335   2.912   0.278  0.4180 -1.2285 -0.2240
 2691TIP3   OH229707   6.693   5.903   8.514 -0.1696 -0.4023 -0.1157
 2691TIP3    H129708   6.687   5.851   8.594 -0.4506 -0.7070 -0.3327
 2691TIP3    H229709   6.779   5.945   8.519  1.0849 -2.6690 -0.9989
 2692TIP3   OH229710   3.262   0.829   0.030  0.6330  0.1870 -0.1329
 2692TIP3    H129711   3.261   0.734   0.033  0.5854  0.1942  0.1127
 2692TIP3    H229712   3.354   0.853   0.022  0.6389  0.1190 -0.2660
 2693TIP3   OH229713   2.172   1.413   7.714  0.2043 -0.1743 -0.0465
 2693TIP3    H129714   2.131   1.380   7.634 -2.4112 -0.7544  1.4000
 2693TIP3    H229715   2.186   1.335   7.768 -0.2035  0.4057  0.9295
 2694TIP3   OH229716   0.429   2.318   7.914  0.0645  0.1987 -0.1127
 2694TIP3    H129717   0.374   2.324   7.993  1.5976  1.1988  0.9368
 2694TIP3    H229718   0.494   2.252   7.935 -1.7157 -2.3783 -2.0661
 2695TIP3   OH229719   5.509   1.729   7.882  0.2802  0.3282 -0.5500
 2695TIP3    H129720   5.425   1.760   7.849  0.1593 -0.6742 -1.2240
 2695TIP3    H229721   5.490   1.700   7.971 -0.0842  0.1342 -0.6881
 2696TIP3   OH229722   6.762   3.410   1.776 -0.4316  0.5075  0.1163
 2696TIP3    H129723   6.812   3.338   1.815  1.1525  1.2461 -0.4196
 2696TIP3    H229724   6.672   3.379   1.773 -0.2081 -0.4836  2.1487
 2697TIP3   OH229725   5.363   0.940   7.707  0.7463 -0.0129  0.1176
 2697TIP3    H129726   5.286   0.995   7.722  0.0940 -0.2559 -1.9659
 2697TIP3    H229727   5.389   0.961   7.617  1.8998 -1.4254  0.0961
 2698TIP3   OH229728   0.337   4.205   0.906  0.4373 -0.1714 -0.1403
 2698TIP3    H129729   0.262   4.214   0.966  1.0955  2.4323  0.4020
 2698TIP3    H229730   0.302   4.229   0.820  0.9945  3.2140  0.4497
 2699TIP3   OH229731   3.813   0.000   7.900 -0.5912  0.0290  0.3343
 2699TIP3    H129732   3.799   0.041   7.815 -0.7480  1.6924  1.1131
 2699TIP3    H229733   3.773  -0.086   7.893  2.2439 -1.2601 -2.3355
 2700TIP3   OH229734   6.345   6.801   0.844  0.3323  0.2420 -0.3136
 2700TIP3    H129735   6.372   6.799   0.936 -0.6699  0.7536  0.0007
 2700TIP3    H229736   6.250   6.803   0.847  0.2942  0.1801 -1.3721
 2701TIP3   OH229737   0.559   2.619   1.943  0.3731  0.7539 -0.4817
 2701TIP3    H129738   0.500   2.633   2.017  1.5357 -1.6471  1.0115
 2701TIP3    H229739   0.502   2.593   1.871 -0.4917 -2.9668  1.3116
 2702TIP3   OH229740   0.930   3.102   7.973 -0.1572  0.0892  0.0138
 2702TIP3    H129741   0.866   3.035   7.946  1.3539 -1.3825 -0.0764
 2702TIP3    H229742   1.005   3.087   7.916  2.4949 -1.9803  3.6300
 2703TIP3   OH229743   4.610   3.414   8.487  0.0588 -0.4774 -0.1411
 2703TIP3    H129744   4.614   3.351   8.560  0.7914  0.0304  0.2665
 2703TIP3    H229745   4.697   3.412   8.448  0.7141  1.6347  1.0520
 2704TIP3   OH229746   4.069   2.756   8.511  0.1072  0.4722 -0.2006
 2704TIP3    H129747   4.117   2.729   8.589 -0.8525  2.4286  1.1572
 2704TIP3    H229748   4.136   2.759   8.442  1.0331 -1.0330  0.5822
 2705TIP3   OH229749   2.357   5.848   1.654 -0.4707  0.0736  0.2807
 2705TIP3    H129750   2.284   5.786   1.650 -0.8262  0.4866  0.2903
 2705TIP3    H229751   2.344   5.895   1.736 -0.0778  0.0080  0.3799
 2706TIP3   OH229752   5.644   3.357   7.445 -0.1365  0.6283 -0.1497
 2706TIP3    H129753   5.553   3.387   7.453  0.1490  1.1685  1.5351
 2706TIP3    H229754   5.672   3.386   7.359 -0.6974  3.0196  0.4042
 2707TIP3   OH229755   3.892   0.685   0.623  0.3245 -0.2073 -0.1068
 2707TIP3    H129756   3.846   0.706   0.542 -0.1792 -0.3271  0.1442
 2707TIP3    H229757   3.931   0.767   0.651  0.2992 -0.1136 -0.3460
 2708TIP3   OH229758   0.467   2.587   7.875 -0.2231  0.1764  0.3396
 2708TIP3    H129759   0.438   2.598   7.966  1.3784 -0.9260  1.0308
 2708TIP3    H229760   0.488   2.494   7.868  2.1740  0.6944 -0.3563
 2709TIP3   OH229761   0.325   1.327   1.642 -0.0167 -0.5621 -0.0650
 2709TIP3    H129762   0.407   1.330   1.691  0.3237 -1.2674 -0.5567
 2709TIP3    H229763   0.336   1.252   1.583 -1.3574 -1.1965  0.4589
 2710TIP3   OH229764   2.725   4.986   0.160  0.3228  0.3315  1.2443
 2710TIP3    H129765   2.772   5.033   0.230 -0.7835 -0.6960  2.7527
 2710TIP3    H229766   2.785   4.917   0.132  0.9275  0.9943  0.8884
 2711TIP3   OH229767   5.672   0.506   7.793  0.0091 -0.0086 -0.4873
 2711TIP3    H129768   5.671   0.440   7.862  0.0488 -0.1639 -0.6353
 2711TIP3    H229769   5.615   0.576   7.826  0.5745  0.2234 -0.0008
 2712TIP3   OH229770   4.641   4.005   0.762 -1.0111  0.0093 -0.2644
 2712TIP3    H129771   4.561   3.954   0.775 -2.2929  2.2030  1.2329
 2712TIP3    H229772   4.616   4.073   0.700 -0.3210  0.6852  0.1773
 2713TIP3   OH229773   4.376   4.976   7.600 -0.0877 -0.0868 -0.1241
 2713TIP3    H129774   4.346   4.885   7.595  0.2613 -0.1504 -1.4675
 2713TIP3    H229775   4.462   4.971   7.640 -0.6703 -0.1864  1.1536
 2714TIP3   OH229776   4.826   3.717   7.767 -0.3346  0.4299 -0.0996
 2714TIP3    H129777   4.791   3.767   7.841 -2.5330 -0.1149 -0.6979
 2714TIP3    H229778   4.858   3.784   7.707 -0.3105  0.9658  0.4883
 2715TIP3   OH229779   2.605   0.161   0.012  0.8327 -0.2225 -0.1695
 2715TIP3    H129780   2.535   0.225   0.025  1.8121  0.5850  1.5905
 2715TIP3    H229781   2.577   0.109  -0.063 -0.5578  1.5157 -0.9296
 2716TIP3   OH229782   4.489   1.117   8.203 -0.0280  0.0775 -0.7204
 2716TIP3    H129783   4.528   1.160   8.127  1.8264 -2.7836 -1.5344
 2716TIP3    H229784   4.415   1.068   8.167 -0.3125  0.2226 -0.3370
 2717TIP3   OH229785   3.712   5.006   8.254  0.5679 -0.1594  0.6331
 2717TIP3    H129786   3.702   4.925   8.205 -0.0014 -1.6086  2.9745
 2717TIP3    H229787   3.666   5.072   8.202  0.8988 -1.3479 -1.2457
 2718TIP3   OH229788   1.393   1.634   1.045  0.1392 -0.0132  0.0838
 2718TIP3    H129789   1.312   1.669   1.083  0.3894  1.0839 -0.3573
 2718TIP3    H229790   1.400   1.677   0.960  1.9839  1.1251  0.7665
 2719TIP3   OH229791   5.415   1.835   8.456 -0.0724  0.2590 -0.2700
 2719TIP3    H129792   5.386   1.747   8.481 -1.4114  1.3629  2.5316
 2719TIP3    H229793   5.337   1.876   8.418  0.4666  0.3473 -1.3066
 2720TIP3   OH229794   5.722   2.632   8.055  0.1938  0.2770  0.2347
 2720TIP3    H129795   5.640   2.633   8.005  0.0884  1.8567  0.3803
 2720TIP3    H229796   5.786   2.673   7.997  0.1323  1.8936  1.2560
 2721TIP3   OH229797   1.219   2.158   7.562 -0.0756 -0.5440 -0.0123
 2721TIP3    H129798   1.138   2.176   7.513  0.4867 -0.1719 -0.8326
 2721TIP3    H229799   1.289   2.183   7.502  0.6370  1.1306  1.4258
 2722TIP3   OH229800   2.428   1.926   8.346  0.4878 -0.1108 -0.1210
 2722TIP3    H129801   2.431   1.832   8.329  0.0148 -0.0246 -0.7409
 2722TIP3    H229802   2.342   1.940   8.387  0.6285  0.0265  0.1277
 2723TIP3   OH229803   1.720   1.228   1.441 -0.1033  0.0043  0.0712
 2723TIP3    H129804   1.735   1.266   1.355  0.5795  0.5321  0.4116
 2723TIP3    H229805   1.651   1.163   1.427  1.5250 -1.5329 -1.3120
 2724TIP3   OH229806   4.975   3.216   8.085 -0.0713  0.3815 -0.0256
 2724TIP3    H129807   4.988   3.164   8.006  2.0678  0.1358  0.4514
 2724TIP3    H229808   5.023   3.297   8.070 -0.9516  1.0102  0.4133
 2725TIP3   OH229809   0.700   0.911   2.184  0.1237 -0.4215 -0.3387
 2725TIP3    H129810   0.747   0.840   2.226 -0.2855  0.8297  2.4772
 2725TIP3    H229811   0.609   0.899   2.211 -0.2792  0.1322 -1.3742
 2726TIP3   OH229812   1.188   3.076   1.405 -0.0021 -0.1037  0.6285
 2726TIP3    H129813   1.171   3.020   1.329  0.2488  2.1685 -1.2154
 2726TIP3    H229814   1.276   3.054   1.433  0.9649  0.8247 -1.4793
 2727TIP3   OH229815   3.270   1.673   0.724 -0.0030 -0.5232  0.4866
 2727TIP3    H129816   3.274   1.579   0.705 -1.5124 -0.4428 -0.3781
 2727TIP3    H229817   3.267   1.715   0.638 -0.4907  0.2481  0.8724
 2728TIP3   OH229818   0.608   1.943   7.624  0.7777  0.6662  0.0755
 2728TIP3    H129819   0.513   1.953   7.632  0.7726  1.1637 -0.4961
 2728TIP3    H229820   0.635   2.017   7.569  1.1188 -0.9822 -2.1127
 2729TIP3   OH229821   5.738   3.905   8.110  0.9230 -0.4615 -0.1090
 2729TIP3    H129822   5.759   3.834   8.170  2.2817 -0.3803 -0.4756
 2729TIP3    H229823   5.804   3.900   8.042  0.9700  1.0807 -0.2121
 2730TIP3   OH229824   0.439   1.638   7.980 -0.0401  0.4671 -0.1914
 2730TIP3    H129825   0.517   1.584   7.966  0.1411  0.0856  1.9210
 2730TIP3    H229826   0.471   1.728   7.977  0.6190  0.3006  1.2061
 2731TIP3   OH229827   0.176   4.881   1.577 -0.1145  0.4547 -0.0934
 2731TIP3    H129828   0.172   4.791   1.611  1.1522  0.4328  0.0209
 2731TIP3    H229829   0.220   4.930   1.646  1.2574  0.6938 -1.1031
 2732TIP3   OH229830   2.267   5.630   1.879  0.5670  0.5193  0.5500
 2732TIP3    H129831   2.282   5.718   1.916  1.0357  0.5005  0.4202
 2732TIP3    H229832   2.217   5.646   1.799 -0.1482  0.5893  1.0002
 2733TIP3   OH229833   5.527   3.959   0.823 -0.5471 -0.3648 -0.6791
 2733TIP3    H129834   5.619   3.967   0.845 -0.1412 -2.8257 -1.2149
 2733TIP3    H229835   5.497   3.883   0.874 -2.5819  1.0061  0.3105
 2734TIP3   OH229836   2.999   3.868   0.208 -0.3281  0.0644 -0.2945
 2734TIP3    H129837   3.055   3.881   0.131 -3.2352 -0.3064 -2.6445
 2734TIP3    H229838   2.947   3.949   0.214 -1.3220 -0.5909  0.2184
 2735TIP3   OH229839   0.090   4.418   1.161 -0.0922  0.5141  0.2673
 2735TIP3    H129840   0.007   4.372   1.170 -0.1120  0.4058 -0.4345
 2735TIP3    H229841   0.067   4.504   1.125  0.0540  0.6530  0.5017
 2736TIP3   OH229842   3.110   1.546   2.047 -0.0805 -0.4218 -0.1137
 2736TIP3    H129843   3.201   1.521   2.064 -1.0143 -2.1409  3.2036
 2736TIP3    H229844   3.092   1.511   1.960  1.6924 -2.4583  0.2434
 2737TIP3   OH229845   5.547   6.523   0.188 -0.1890  0.0466  0.1367
 2737TIP3    H129846   5.501   6.475   0.120 -1.0067 -0.5375  1.0836
 2737TIP3    H229847   5.609   6.578   0.140 -2.0931  1.1277 -1.1949
 2738TIP3   OH229848   0.797   0.598   2.906  0.0683 -0.0723  0.2007
 2738TIP3    H129849   0.884   0.601   2.946  0.8012  1.1720 -1.3896
 2738TIP3    H229850   0.737   0.597   2.981  1.3977 -3.6417  1.4230
 2739TIP3   OH229851   6.680   4.354   7.949  0.2128  0.1967  0.2506
 2739TIP3    H129852   6.616   4.285   7.967  0.0527  0.8223  2.4931
 2739TIP3    H229853   6.650   4.395   7.868  0.1346 -2.1092 -0.9638
 2740TIP3   OH229854   0.532   5.246   6.935 -0.3262  0.0571 -0.4908
 2740TIP3    H129855   0.453   5.293   6.907 -0.7054  1.7736  2.9090
 2740TIP3    H229856   0.498   5.168   6.979 -0.1887  0.8527  1.0702
 2741TIP3   OH229857   2.866   3.590   7.588  0.3550  0.6362  0.3266
 2741TIP3    H129858   2.811   3.630   7.521 -0.6410 -0.4144  0.4987
 2741TIP3    H229859   2.879   3.500   7.558 -0.8040 -0.1102  1.9271
 2742TIP3   OH229860   6.905   1.796   8.274  0.1253 -0.0979  0.0306
 2742TIP3    H129861   6.906   1.722   8.335 -2.1307  0.8800  1.3520
 2742TIP3    H229862   6.954   1.865   8.319  0.3697 -0.0719 -0.2675
 2743TIP3   OH229863   0.976   3.220   1.850 -0.2036  0.3503  0.3162
 2743TIP3    H129864   0.900   3.278   1.851 -0.8413 -0.4583 -0.2158
 2743TIP3    H229865   1.042   3.267   1.900 -0.8609  1.3251  0.2999
 2744TIP3   OH229866   2.511   5.247   7.474 -0.3626 -0.3308  0.1461
 2744TIP3    H129867   2.443   5.311   7.454  1.7264  2.0079  0.0311
 2744TIP3    H229868   2.529   5.258   7.567 -0.1416 -0.9567  0.1847
 2745TIP3   OH229869   3.440   4.210   7.340 -0.0402 -0.1308  0.1330
 2745TIP3    H129870   3.403   4.213   7.252  1.5381 -2.8648 -0.7451
 2745TIP3    H229871   3.452   4.302   7.365 -0.5267  0.7136 -2.5031
 2746TIP3   OH229872   2.110   1.423   8.379 -0.2146  0.0637 -0.2047
 2746TIP3    H129873   2.190   1.370   8.384  1.2252  2.0260 -1.3869
 2746TIP3    H229874   2.082   1.433   8.470 -0.3182 -2.2983  0.0993
 2747TIP3   OH229875   0.895   1.081   2.159  0.5590 -1.0514 -0.2524
 2747TIP3    H129876   0.817   1.026   2.162 -1.0411  0.9824 -1.7523
 2747TIP3    H229877   0.929   1.070   2.070 -1.1414  1.9418 -1.4338
 2748TIP3   OH229878   3.053   0.578   1.716  0.4100 -0.4399  0.4689
 2748TIP3    H129879   3.032   0.584   1.809  1.0043 -0.8580  0.6395
 2748TIP3    H229880   2.982   0.625   1.672 -0.8439 -1.7636  0.9982
 2749TIP3   OH229881   2.966   6.051   1.229  0.4429 -0.0921 -0.2876
 2749TIP3    H129882   3.012   6.047   1.313  1.1643  2.0536 -0.5299
 2749TIP3    H229883   2.876   6.025   1.249  0.7541 -0.2147  1.0150
 2750TIP3   OH229884   0.162   0.662   1.071 -0.0911 -0.2030  0.1252
 2750TIP3    H129885   0.085   0.712   1.098 -0.6666 -0.0012 -1.7271
 2750TIP3    H229886   0.201   0.714   1.001 -1.4813 -2.8639 -2.8554
 2751TIP3   OH229887   2.196   4.689   7.048  0.0222 -0.0336 -0.2791
 2751TIP3    H129888   2.137   4.732   7.109  1.3307  0.0809  0.9583
 2751TIP3    H229889   2.177   4.730   6.964 -1.2898  0.3463  0.1703
 2752TIP3   OH229890   3.060   4.557   7.754 -0.3962  0.1092 -0.6295
 2752TIP3    H129891   2.996   4.606   7.806  0.5475  0.9543 -0.2391
 2752TIP3    H229892   3.142   4.605   7.765  0.2083 -0.6907 -1.5051
 2753TIP3   OH229893   1.766   5.884   2.013  0.0858  0.2464  0.1688
 2753TIP3    H129894   1.780   5.821   2.084 -1.8757  0.8516  1.1327
 2753TIP3    H229895   1.674   5.873   1.989  0.5624  0.4668 -1.9221
 2754TIP3   OH229896   6.146   4.381   7.489  0.0307  0.1763 -0.2085
 2754TIP3    H129897   6.053   4.396   7.506 -0.3642  0.0015 -1.9530
 2754TIP3    H229898   6.147   4.318   7.416  1.5289 -0.4854  0.3345
 2755TIP3   OH229899   3.628   5.418   2.358  0.3696 -0.0408  0.0197
 2755TIP3    H129900   3.593   5.333   2.384 -0.6264  0.3456 -0.0234
 2755TIP3    H229901   3.639   5.466   2.440 -3.2074  1.3464 -0.1343
 2756TIP3   OH229902   0.816   1.699   0.365  0.3060 -0.4968 -0.8854
 2756TIP3    H129903   0.815   1.733   0.275  1.7617  1.2669 -0.3222
 2756TIP3    H229904   0.756   1.756   0.413  0.2614 -0.8173 -0.5559
 2757TIP3   OH229905   2.416   2.156   1.521  0.0931  0.0680 -0.8609
 2757TIP3    H129906   2.497   2.197   1.554 -0.2350  2.2295 -2.5521
 2757TIP3    H229907   2.387   2.101   1.594  1.6023  1.3920  0.8675
 2758TIP3   OH229908   1.767   3.052   7.086 -0.2805  0.0579  0.1744
 2758TIP3    H129909   1.832   2.986   7.064  1.8039  2.4040 -1.3937
 2758TIP3    H229910   1.722   3.069   7.003 -0.0004  1.3011  0.2491
 2759TIP3   OH229911   0.527   3.495   1.362  0.6794  0.1304  0.2175
 2759TIP3    H129912   0.464   3.458   1.300  0.0283  1.5884 -0.0346
 2759TIP3    H229913   0.610   3.452   1.341  0.0274 -0.9187 -0.2732
 2760TIP3   OH229914   6.014   3.016   8.523 -0.7146  0.4551 -0.4825
 2760TIP3    H129915   5.972   2.936   8.493 -0.8216  0.2003  0.3133
 2760TIP3    H229916   6.108   2.997   8.518 -0.7410  0.2376 -0.2032
 2761TIP3   OH229917   1.726   3.859   8.371  0.2466  0.4728 -0.0391
 2761TIP3    H129918   1.656   3.925   8.372  0.7709  1.0355  1.1069
 2761TIP3    H229919   1.714   3.810   8.453  0.2453 -0.4616 -0.5833
 2762TIP3   OH229920   3.831   0.419   2.564 -0.3990 -0.2721  0.3941
 2762TIP3    H129921   3.848   0.509   2.594  0.0676 -0.9791  2.3721
 2762TIP3    H229922   3.739   0.403   2.587 -0.7735 -0.0230 -0.8191
 2763TIP3   OH229923   3.908   2.814   1.092 -0.0271  0.1197  0.0825
 2763TIP3    H129924   3.851   2.759   1.146  1.1070  1.1802  2.4932
 2763TIP3    H229925   3.871   2.902   1.099  0.7169  0.4528 -0.0375
 2764TIP3   OH229926   2.687   2.415   1.942  0.1581 -0.2720  0.0216
 2764TIP3    H129927   2.637   2.466   1.879  0.4868 -0.5010 -0.4244
 2764TIP3    H229928   2.625   2.348   1.973  0.0480 -0.2619 -0.1758
 2765TIP3   OH229929   6.103   5.294   0.316 -0.2212  0.0733  0.3074
 2765TIP3    H129930   6.112   5.315   0.223  2.8629 -0.1636  0.4563
 2765TIP3    H229931   6.138   5.370   0.362 -1.7685  0.2173  1.3425
 2766TIP3   OH229932   1.817   5.284   7.019  0.5152 -0.6038  0.2847
 2766TIP3    H129933   1.759   5.324   7.083 -0.1601 -1.8750  0.4966
 2766TIP3    H229934   1.864   5.358   6.980  0.5977  0.2286  1.8815
 2767TIP3   OH229935   0.392   2.813   1.726 -0.1152  0.2425 -0.2734
 2767TIP3    H129936   0.441   2.751   1.672 -0.6546 -0.1275 -0.3498
 2767TIP3    H229937   0.451   2.887   1.738 -0.0401  0.3833 -1.4727
 2768TIP3   OH229938   4.180   2.314   8.137  0.6552 -0.0104  0.0672
 2768TIP3    H129939   4.244   2.278   8.076  1.0225  0.6140  0.0695
 2768TIP3    H229940   4.220   2.301   8.223  0.5177 -0.1406  0.1103
 2769TIP3   OH229941   1.196   1.924   2.094  0.1862  0.2999  0.3458
 2769TIP3    H129942   1.180   2.013   2.062  0.1483 -0.0572 -0.6943
 2769TIP3    H229943   1.162   1.923   2.183 -0.3823  1.1541  0.1472
 2770TIP3   OH229944   5.318   5.475   0.766 -0.3851 -0.3121  0.4630
 2770TIP3    H129945   5.392   5.498   0.822 -0.6089  1.6295  0.0305
 2770TIP3    H229946   5.263   5.554   0.764 -1.2470 -0.8980 -1.1248
 2771TIP3   OH229947   5.887   6.286   7.524 -0.3379  0.5897  0.2026
 2771TIP3    H129948   5.834   6.225   7.575  0.6168 -1.2296 -0.9003
 2771TIP3    H229949   5.977   6.264   7.546  0.0367  1.3820 -0.4801
 2772TIP3   OH229950   4.656   2.192   2.958  1.0666  0.2011  0.0283
 2772TIP3    H129951   4.580   2.140   2.932  1.9287 -1.1948  0.2350
 2772TIP3    H229952   4.642   2.276   2.915 -0.8101  0.1473  0.4077
 2773TIP3   OH229953   2.707   5.939   2.078  0.4257 -0.4102 -0.1936
 2773TIP3    H129954   2.793   5.898   2.068  0.8405  0.4519 -0.2685
 2773TIP3    H229955   2.655   5.875   2.128  1.0914 -0.9578 -0.1919
 2774TIP3   OH229956   6.036   4.654   1.927  0.6693 -0.6039 -0.1546
 2774TIP3    H129957   6.020   4.725   1.864 -0.0303  0.5226  1.2384
 2774TIP3    H229958   6.125   4.671   1.958  1.4841 -1.8609 -1.6482
 2775TIP3   OH229959   6.375   0.277   0.814  0.0716 -0.0076 -0.4294
 2775TIP3    H129960   6.436   0.204   0.823 -1.1695 -0.8118  3.7184
 2775TIP3    H229961   6.429   0.350   0.784  3.0513 -0.8390  2.3978
 2776TIP3   OH229962   6.501   1.820   8.134  0.1263 -0.4881  0.2198
 2776TIP3    H129963   6.526   1.850   8.222 -0.2693 -0.7785  0.4337
 2776TIP3    H229964   6.584   1.806   8.089  0.3216  0.7353  0.1765
 2777TIP3   OH229965   5.403   3.590   2.458  0.2714 -0.2413 -0.4849
 2777TIP3    H129966   5.356   3.648   2.398  2.0965 -0.2831 -2.0613
 2777TIP3    H229967   5.480   3.640   2.484 -0.1720 -0.4659  1.3953
 2778TIP3   OH229968   6.825   5.400   6.505  0.2500  0.2533  0.5384
 2778TIP3    H129969   6.766   5.326   6.492 -0.1610  0.4196  1.4261
 2778TIP3    H229970   6.911   5.360   6.518  0.2875 -0.0017 -0.4119
 2779TIP3   OH229971   1.251   5.317   8.347 -0.1802 -0.2019 -0.1598
 2779TIP3    H129972   1.209   5.343   8.266 -0.0883  0.7271  0.0847
 2779TIP3    H229973   1.291   5.232   8.327  0.2127  0.2187 -1.2100
 2780TIP3   OH229974   0.222   0.639   2.377  0.1931 -0.3587  0.6227
 2780TIP3    H129975   0.233   0.726   2.415 -0.1390 -0.5003  1.0638
 2780TIP3    H229976   0.204   0.583   2.453 -0.8394 -0.5898  0.2114
 2781TIP3   OH229977   3.195   0.100   1.319  0.0333  0.5944 -0.6402
 2781TIP3    H129978   3.211   0.195   1.318 -1.4498  0.8642 -1.0159
 2781TIP3    H229979   3.124   0.088   1.256 -0.0293 -0.7356 -0.3279
 2782TIP3   OH229980   3.541   6.920   3.027  0.6023  0.2269 -0.2376
 2782TIP3    H129981   3.558   6.832   3.061  0.0997  0.2469  0.0679
 2782TIP3    H229982   3.501   6.967   3.100  0.5088  0.5935 -0.5225
 2783TIP3   OH229983   4.339   6.193   1.103 -0.6607  0.0562  0.1640
 2783TIP3    H129984   4.396   6.165   1.175 -0.7170  2.5585  1.3165
 2783TIP3    H229985   4.373   6.149   1.026  3.0639  1.5630  0.7409
 2784TIP3   OH229986   1.209   4.544   1.629  0.0790  0.7467 -0.6734
 2784TIP3    H129987   1.235   4.633   1.652  1.3027  0.2593 -0.0695
 2784TIP3    H229988   1.288   4.504   1.593  0.0470 -0.6074  0.6346
 2785TIP3   OH229989   4.536   2.314   7.135  0.3257 -0.2557  0.7139
 2785TIP3    H129990   4.448   2.312   7.098  0.6951  1.0072 -0.3206
 2785TIP3    H229991   4.575   2.230   7.109 -0.3936 -0.6026  0.7384
 2786TIP3   OH229992   2.686   4.275   1.322  1.0160 -0.1572  0.0422
 2786TIP3    H129993   2.659   4.210   1.387  0.0570 -0.1750 -0.3590
 2786TIP3    H229994   2.741   4.226   1.260  0.9162 -0.4162  0.1584
 2787TIP3   OH229995   2.039   4.857   7.211 -0.4382  0.3375 -0.0492
 2787TIP3    H129996   1.965   4.915   7.196  0.2104  0.5492 -3.1467
 2787TIP3    H229997   2.116   4.911   7.194  0.3040 -0.6814 -0.0143
 2788TIP3   OH229998   0.216   2.387   2.181  0.1281  0.4473  0.4282
 2788TIP3    H129999   0.121   2.387   2.183  0.1122  0.6495 -0.0393
 2788TIP3    H230000   0.238   2.362   2.091  0.5110  0.6419  0.4629
 2789TIP3   OH230001   6.710   2.970   8.255  0.0911  0.5533  0.0117
 2789TIP3    H130002   6.643   3.008   8.312  1.1574 -0.5409  2.1396
 2789TIP3    H230003   6.737   3.042   8.198 -1.5814  1.5062  0.3622
 2790TIP3   OH230004   3.554   2.678   2.912 -0.3580 -0.4284  0.7058
 2790TIP3    H130005   3.459   2.687   2.901 -0.5286 -0.7256  1.7982
 2790TIP3    H230006   3.564   2.597   2.962  0.3546  0.4286  2.0024
 2791TIP3   OH230007   4.255   3.390   1.342 -0.0120  0.9332 -0.3125
 2791TIP3    H130008   4.182   3.344   1.383  0.0198  1.9780  0.9921
 2791TIP3    H230009   4.304   3.321   1.297 -1.4744  0.1279 -0.7561
 2792TIP3   OH230010   3.514   1.766   1.686 -0.4920 -0.6019  0.5379
 2792TIP3    H130011   3.442   1.715   1.723 -0.2203 -1.6853 -0.3546
 2792TIP3    H230012   3.471   1.828   1.627 -0.6986 -1.4798 -0.2598
 2793TIP3   OH230013   3.103   5.153   7.006  0.5377 -0.4987 -0.0619
 2793TIP3    H130014   3.083   5.147   6.912  0.2376  2.7604 -0.3209
 2793TIP3    H230015   3.165   5.226   7.012  2.1671 -1.9360  2.1368
 2794TIP3   OH230016   2.962   0.334   1.385  0.3531 -0.2556 -0.1810
 2794TIP3    H130017   2.911   0.290   1.318  0.1190  0.0143 -0.1862
 2794TIP3    H230018   2.921   0.309   1.468 -1.1292  1.5845 -0.2802
 2795TIP3   OH230019   5.086   1.577   0.755 -0.2541  0.5586  0.0973
 2795TIP3    H130020   5.119   1.575   0.665 -0.5984 -0.0136 -0.0242
 2795TIP3    H230021   5.164   1.562   0.809 -0.1993 -0.1347 -0.1575
 2796TIP3   OH230022   1.313   2.628   1.116 -0.2603 -0.5687 -0.2185
 2796TIP3    H130023   1.406   2.607   1.107  0.5129  2.4552 -0.2957
 2796TIP3    H230024   1.280   2.631   1.026 -0.4267 -1.4858 -0.1985
 2797TIP3   OH230025   5.955   6.167   1.863  0.2813  0.2382  0.1269
 2797TIP3    H130026   6.012   6.238   1.894  0.3512  0.3685 -0.2999
 2797TIP3    H230027   5.875   6.211   1.835  0.6637  0.2477 -0.9799
 2798TIP3   OH230028   0.738   4.531   7.471  0.2305  0.0627 -0.2375
 2798TIP3    H130029   0.752   4.621   7.502  0.3432  0.6861 -1.9841
 2798TIP3    H230030   0.826   4.493   7.468  0.2821  0.1867 -0.3069
 2799TIP3   OH230031   1.697   0.874   2.609 -0.2246 -0.3769 -0.6628
 2799TIP3    H130032   1.715   0.784   2.580  0.2865 -1.4798  2.5927
 2799TIP3    H230033   1.782   0.917   2.609 -0.1973 -0.4311 -0.6071
 2800TIP3   OH230034   6.834   6.845   7.868  0.1797 -0.2290  0.2073
 2800TIP3    H130035   6.912   6.825   7.817  1.4936  2.0421  1.1881
 2800TIP3    H230036   6.808   6.932   7.838 -2.0598 -0.9540 -0.1311
 2801TIP3   OH230037   5.733   1.978   0.619  0.1882  0.3180  0.8186
 2801TIP3    H130038   5.770   1.983   0.531 -1.7094 -1.5660 -0.1948
 2801TIP3    H230039   5.796   1.925   0.669 -0.8442 -2.7378 -0.8341
 2802TIP3   OH230040   2.135   0.068   7.069  0.9255  0.0676  0.2336
 2802TIP3    H130041   2.090  -0.010   7.037 -0.4112 -0.3047  2.7866
 2802TIP3    H230042   2.065   0.126   7.099  2.0232  0.9518  1.1835
 2803TIP3   OH230043   5.356   5.548   7.455 -0.6179 -0.6276 -0.1190
 2803TIP3    H130044   5.425   5.481   7.452  1.3686  1.3214 -1.8205
 2803TIP3    H230045   5.351   5.573   7.547  1.0987 -0.7383  0.0411
 2804TIP3   OH230046   0.077   1.045   2.320  0.1491 -0.0070 -0.5111
 2804TIP3    H130047  -0.009   1.003   2.327  0.3850 -0.6845 -1.4266
 2804TIP3    H230048   0.130   1.002   2.387 -0.3684  0.8278  0.4614
 2805TIP3   OH230049   5.230   5.155   8.456 -0.2261 -0.2878  0.7414
 2805TIP3    H130050   5.169   5.132   8.385 -1.2793  0.5478  1.3352
 2805TIP3    H230051   5.317   5.137   8.420 -0.7311  0.1438 -0.7783
 2806TIP3   OH230052   2.003   3.803   0.797 -0.1218  0.4616 -0.0420
 2806TIP3    H130053   1.971   3.843   0.716 -0.2454 -1.2322 -0.8781
 2806TIP3    H230054   2.080   3.855   0.820 -1.1855  2.1624 -0.1618
 2807TIP3   OH230055   1.526   4.870   7.890 -0.4008  0.4187 -0.0239
 2807TIP3    H130056   1.585   4.910   7.825 -0.4481 -1.3663 -1.2390
 2807TIP3    H230057   1.479   4.944   7.928  2.9850  2.0224  1.4548
 2808TIP3   OH230058   2.705   2.667   8.150  0.0450 -0.3791  0.1012
 2808TIP3    H130059   2.683   2.674   8.057 -0.5057  0.2885  0.2660
 2808TIP3    H230060   2.798   2.686   8.155 -0.1985  1.0451 -0.1788
 2809TIP3   OH230061   0.750   6.837   7.622  0.0780  0.2910 -0.5413
 2809TIP3    H130062   0.739   6.756   7.671  0.2771 -0.9050 -2.3957
 2809TIP3    H230063   0.813   6.887   7.674 -0.3900 -0.5145  0.8657
 2810TIP3   OH230064   2.368   5.490   2.188  0.5720  0.7793 -0.2082
 2810TIP3    H130065   2.373   5.395   2.184 -0.4078  0.6366  1.2230
 2810TIP3    H230066   2.292   5.513   2.134 -0.0501  0.6070  0.5687
 2811TIP3   OH230067   0.252   3.879   0.011  0.6622 -0.5019  0.1946
 2811TIP3    H130068   0.270   3.796  -0.033  0.4147 -0.6024  0.2817
 2811TIP3    H230069   0.240   3.941  -0.061  0.3413 -0.6496  0.1151
 2812TIP3   OH230070   4.813   6.480   0.983  0.2250  0.0236 -0.0064
 2812TIP3    H130071   4.814   6.389   1.013  0.7479  0.1666  0.4253
 2812TIP3    H230072   4.905   6.507   0.983  0.2199  0.1364 -1.4414
 2813TIP3   OH230073   6.083   3.173   0.287  0.3150  0.1277  0.2505
 2813TIP3    H130074   6.046   3.152   0.202  1.5443 -0.7745 -0.0946
 2813TIP3    H230075   6.070   3.094   0.339  0.7555  0.1875  0.4630
 2814TIP3   OH230076   2.640   3.887   1.793  0.3297 -0.2856 -0.1801
 2814TIP3    H130077   2.569   3.905   1.733 -0.1037 -1.3225  0.0018
 2814TIP3    H230078   2.673   3.974   1.819  1.5564  0.2299 -3.0676
 2815TIP3   OH230079   6.298   0.305   2.261  0.1709  0.0300  0.0484
 2815TIP3    H130080   6.279   0.396   2.283  4.6886  1.2171  0.0802
 2815TIP3    H230081   6.240   0.254   2.317 -2.4244  2.7958  0.1388
 2816TIP3   OH230082   5.004   5.813   2.541  0.1945  0.6799 -0.1649
 2816TIP3    H130083   4.971   5.767   2.619 -1.6004  1.7853 -0.2073
 2816TIP3    H230084   5.007   5.905   2.568 -0.4721  1.0827 -1.3892
 2817TIP3   OH230085   6.045   0.292   1.560  0.0831 -0.2937 -0.1273
 2817TIP3    H130086   6.131   0.271   1.524 -0.5707 -0.4176 -1.6965
 2817TIP3    H230087   6.050   0.264   1.652  2.2731  1.3493  0.3403
 2818TIP3   OH230088   2.211   2.008   7.099  0.3026  0.0888 -0.8068
 2818TIP3    H130089   2.197   2.053   7.182 -0.5303 -0.5406 -0.6008
 2818TIP3    H230090   2.303   1.980   7.102  0.9125  1.9285 -1.0281
 2819TIP3   OH230091   2.937   1.837   1.122  0.3994 -0.1095 -0.1636
 2819TIP3    H130092   2.963   1.778   1.193  0.1454 -0.5209 -0.4097
 2819TIP3    H230093   2.976   1.921   1.146  2.1899 -0.7592 -0.6625
 2820TIP3   OH230094   1.180   2.719   8.430 -0.0426 -0.4830 -0.3311
 2820TIP3    H130095   1.147   2.668   8.356 -0.1721 -0.5258 -0.2436
 2820TIP3    H230096   1.119   2.701   8.501 -1.0763  1.1216 -0.7792
 2821TIP3   OH230097   2.599   4.991   6.538 -0.0749  0.2874 -0.2317
 2821TIP3    H130098   2.622   5.017   6.449  0.0659 -0.1350 -0.3211
 2821TIP3    H230099   2.584   4.896   6.533 -3.1775  0.6832 -0.4512
 2822TIP3   OH230100   5.682   0.009   7.574  0.9331 -0.1879 -0.2190
 2822TIP3    H130101   5.630   0.087   7.596  0.4947 -0.2880 -0.8713
 2822TIP3    H230102   5.773   0.039   7.578  0.7724  0.3360 -0.3551
 2823TIP3   OH230103   6.499   0.485   0.711  0.2360 -0.8444 -0.1008
 2823TIP3    H130104   6.484   0.573   0.677  3.3579 -0.0440  0.2497
 2823TIP3    H230105   6.517   0.432   0.633  0.1855 -0.7379 -0.1858
 2824TIP3   OH230106   1.737   0.370   0.480  0.3214 -0.0284 -0.4171
 2824TIP3    H130107   1.643   0.355   0.489 -0.0687  2.5838  0.6916
 2824TIP3    H230108   1.777   0.309   0.541 -0.8615  0.6033  1.0488
 2825TIP3   OH230109   0.513   0.582   2.629  0.2896 -0.0900 -0.2651
 2825TIP3    H130110   0.420   0.582   2.609 -0.3787 -0.9150  2.3677
 2825TIP3    H230111   0.541   0.491   2.615  0.9380  0.3083 -1.7832
 2826TIP3   OH230112   1.318   3.953   0.635 -0.0101  0.5068 -0.6367
 2826TIP3    H130113   1.228   3.986   0.627 -0.0424  0.4888 -0.3683
 2826TIP3    H230114   1.325   3.926   0.727 -0.4795 -1.6875 -1.1809
 2827TIP3   OH230115   2.807   4.074   0.226 -0.0249  0.0576 -0.0843
 2827TIP3    H130116   2.763   4.025   0.296  0.0166  0.5850  0.3177
 2827TIP3    H230117   2.807   4.165   0.257  1.4408  0.0572 -0.0158
 2828TIP3   OH230118   5.446   5.341   2.411  0.2261  0.2929 -0.2369
 2828TIP3    H130119   5.399   5.277   2.357  0.9575 -0.5022  0.0581
 2828TIP3    H230120   5.464   5.414   2.351  1.1960 -0.6548 -1.1457
 2829TIP3   OH230121   3.458   3.010   1.273  0.2017  0.2480 -0.6266
 2829TIP3    H130122   3.483   3.096   1.239 -1.3934  0.5048 -1.2473
 2829TIP3    H230123   3.474   3.016   1.367  1.2526  0.7948 -0.8223
 2830TIP3   OH230124   2.046   6.960   7.563  0.4116  0.1933 -0.5663
 2830TIP3    H130125   2.016   6.911   7.639 -1.0335 -0.6431 -1.6357
 2830TIP3    H230126   2.069   6.894   7.498  0.8149  0.9008 -1.1656
 2831TIP3   OH230127   6.562   2.556   1.593  0.0647 -0.3852 -0.3919
 2831TIP3    H130128   6.515   2.640   1.588 -0.3694 -0.5848  0.2345
 2831TIP3    H230129   6.514   2.498   1.533 -0.4430 -0.5590  0.1688
 2832TIP3   OH230130   2.069   6.409   0.461  0.1427 -0.0348  0.1815
 2832TIP3    H130131   2.012   6.447   0.394 -0.8298 -0.1041  0.9419
 2832TIP3    H230132   2.157   6.420   0.427 -0.2592  0.9709 -0.5866
 2833TIP3   OH230133   1.286   3.699   0.499 -0.4456 -0.0187 -0.0152
 2833TIP3    H130134   1.367   3.718   0.451 -0.3182 -2.0539 -0.6969
 2833TIP3    H230135   1.238   3.782   0.499  0.6980  0.6839 -1.4391
 2834TIP3   OH230136   1.630   6.806   0.489 -0.5811  0.3283  0.1805
 2834TIP3    H130137   1.725   6.797   0.500 -0.4394  0.0407 -1.1345
 2834TIP3    H230138   1.597   6.816   0.578  0.5737 -0.6255  0.7500
 2835TIP3   OH230139   5.261   4.648   0.615  0.3473  0.1185  0.6863
 2835TIP3    H130140   5.323   4.718   0.594 -2.4533  2.2505 -1.2679
 2835TIP3    H230141   5.294   4.572   0.568  0.8194  1.5780 -1.5257
 2836TIP3   OH230142   5.718   5.340   0.576  0.0523  0.0528 -0.3360
 2836TIP3    H130143   5.744   5.274   0.641 -0.9318  0.3485  0.3707
 2836TIP3    H230144   5.624   5.327   0.564 -0.0580  0.9937 -0.5806
 2837TIP3   OH230145   3.996   4.695   1.404  0.5047  0.2581  0.2086
 2837TIP3    H130146   3.931   4.734   1.463  2.3486  1.7543  1.3866
 2837TIP3    H230147   3.988   4.745   1.323  0.7309  0.9999  0.6364
 2838TIP3   OH230148   1.821   4.479   0.745 -0.4915  0.4774  0.2846
 2838TIP3    H130149   1.827   4.404   0.805 -1.7332  1.0830  1.2168
 2838TIP3    H230150   1.911   4.510   0.736  0.2761 -1.9572 -1.2566
 2839TIP3   OH230151   1.536   0.344   2.306  0.0125 -0.4657 -0.5207
 2839TIP3    H130152   1.482   0.270   2.277  1.4647 -1.5139 -0.6560
 2839TIP3    H230153   1.563   0.387   2.225 -1.1082  0.4516 -0.4311
 2840TIP3   OH230154   3.289   1.147   0.702  0.3681  0.2093  0.0083
 2840TIP3    H130155   3.219   1.142   0.767  0.7189 -0.5701  0.3260
 2840TIP3    H230156   3.243   1.171   0.621 -0.0454  1.3886  0.5608
 2841TIP3   OH230157   0.698   3.841   7.559  0.2779 -0.4564 -0.2034
 2841TIP3    H130158   0.713   3.935   7.563  0.1886 -0.4324 -0.4125
 2841TIP3    H230159   0.686   3.814   7.651  0.4234 -0.2854 -0.1358
 2842TIP3   OH230160   6.923   2.877   8.428  0.0221 -0.0293  0.1434
 2842TIP3    H130161   6.855   2.886   8.495  0.2257 -1.3455  0.5604
 2842TIP3    H230162   6.875   2.856   8.348 -0.0471 -2.4964  0.7502
 2843TIP3   OH230163   5.450   6.426   1.870 -0.0146 -0.1286  0.0646
 2843TIP3    H130164   5.444   6.497   1.806  1.8273 -1.2261 -1.3972
 2843TIP3    H230165   5.441   6.470   1.955 -0.9556  1.5581 -0.8533
 2844TIP3   OH230166   5.312   6.857   0.795  0.0101  0.1184  0.2784
 2844TIP3    H130167   5.262   6.807   0.730  0.4917 -1.6305  1.1792
 2844TIP3    H230168   5.259   6.851   0.875  0.3490  0.5865  0.5416
 2845TIP3   OH230169   3.196   5.665   8.036  0.4791 -0.0879 -0.2847
 2845TIP3    H130170   3.153   5.730   8.091  0.8521 -0.8137  0.9169
 2845TIP3    H230171   3.147   5.584   8.052  0.8164 -0.3876 -0.7511
 2846TIP3   OH230172   3.052   5.096   1.512  0.4291 -0.5144 -0.1792
 2846TIP3    H130173   3.142   5.065   1.525  0.8026  0.6897  0.3081
 2846TIP3    H230174   3.031   5.074   1.422  2.1183  1.2692 -1.0958
 2847TIP3   OH230175   6.060   5.538   1.844 -0.0050 -0.0525  0.1577
 2847TIP3    H130176   6.112   5.491   1.779  1.7961 -1.4110  2.4265
 2847TIP3    H230177   6.124   5.591   1.892 -1.1861  0.4745  1.1899
 2848TIP3   OH230178   3.243   1.293   7.098  0.0881  0.3310  0.0630
 2848TIP3    H130179   3.285   1.313   7.015 -0.3887 -1.5182 -0.6872
 2848TIP3    H230180   3.153   1.270   7.074 -0.2757  0.5262  1.1885
 2849TIP3   OH230181   3.786   4.954   6.688  0.0682 -0.3892  0.2368
 2849TIP3    H130182   3.766   5.045   6.665  0.4834 -0.6492 -1.2623
 2849TIP3    H230183   3.718   4.903   6.643 -1.4734 -0.7559  2.7807
 2850TIP3   OH230184   2.407   4.033   0.090 -0.4141 -0.7639  0.1763
 2850TIP3    H130185   2.342   4.094   0.057  0.8052  0.6502  0.2851
 2850TIP3    H230186   2.428   4.065   0.178  1.7412 -0.0621 -0.5293
 2851TIP3   OH230187   1.266   0.849   7.808 -0.2398 -0.5934 -0.3159
 2851TIP3    H130188   1.343   0.813   7.763 -0.5200 -1.4035 -0.1710
 2851TIP3    H230189   1.301   0.889   7.887  0.0566 -0.7590 -0.3601
 2852TIP3   OH230190   5.771   1.790   1.461  0.0485 -0.0888 -0.3281
 2852TIP3    H130191   5.816   1.819   1.540 -0.6050  2.5555 -0.8173
 2852TIP3    H230192   5.693   1.845   1.456 -0.4635 -0.8897 -2.2764
 2853TIP3   OH230193   2.683   3.489   2.091  0.0689  0.1593 -0.1768
 2853TIP3    H130194   2.615   3.462   2.152  0.9382 -0.2326  0.6522
 2853TIP3    H230195   2.733   3.409   2.075  1.1205  0.7019  0.2731
 2854TIP3   OH230196   2.350   0.928   0.977  0.1361 -0.3240  0.6781
 2854TIP3    H130197   2.275   0.956   0.926  0.2555 -0.7195  0.2804
 2854TIP3    H230198   2.382   0.849   0.932  0.7608 -0.1823  0.8634
 2855TIP3   OH230199   0.050   6.137   7.225  0.1739  0.0449  0.3977
 2855TIP3    H130200   0.045   6.214   7.168  1.1635 -0.5958 -0.5922
 2855TIP3    H230201   0.002   6.070   7.178  0.9364 -0.4732  0.3529
 2856TIP3   OH230202   0.988   3.033   1.610 -0.1579  0.1528  0.0250
 2856TIP3    H130203   1.060   3.034   1.547 -0.4680  0.4424 -0.3296
 2856TIP3    H230204   0.980   2.941   1.635  0.4836  0.1524  0.2415
 2857TIP3   OH230205   0.813   3.734   1.247  0.6436 -0.4071  0.3418
 2857TIP3    H130206   0.899   3.776   1.250  1.2471 -1.6176  2.4756
 2857TIP3    H230207   0.753   3.799   1.284  0.7650  0.1591 -0.4385
 2858TIP3   OH230208   2.033   6.803   6.945 -0.5238  0.6247 -0.1196
 2858TIP3    H130209   1.943   6.832   6.932 -0.9047 -0.4822 -0.1178
 2858TIP3    H230210   2.037   6.719   6.899  0.2105  0.1844  0.7250
 2859TIP3   OH230211   6.650   0.831   7.714 -0.3445 -0.3108 -0.5193
 2859TIP3    H130212   6.638   0.830   7.808 -0.8383 -0.8987 -0.5834
 2859TIP3    H230213   6.673   0.921   7.693  2.1352 -0.6242  0.4528
 2860TIP3   OH230214   5.204   3.777   6.726  0.0628 -0.3021  0.5605
 2860TIP3    H130215   5.256   3.782   6.806  1.6923 -1.4803 -0.3506
 2860TIP3    H230216   5.243   3.704   6.677  1.2169  2.2270 -2.7146
 2861TIP3   OH230217   3.750   0.530   1.457 -0.4394  0.3125 -0.5213
 2861TIP3    H130218   3.713   0.443   1.442 -0.6732  0.4359 -0.6669
 2861TIP3    H230219   3.719   0.554   1.544  0.0498  0.0369 -0.2658
 2862TIP3   OH230220   0.052   1.696   1.244 -0.3511  0.5594  0.3178
 2862TIP3    H130221   0.001   1.730   1.318 -0.6382  2.2528 -0.6209
 2862TIP3    H230222   0.018   1.607   1.231 -0.4283  0.2839  2.0717
 2863TIP3   OH230223   2.132   5.301   8.017 -0.5578  0.0030 -0.4212
 2863TIP3    H130224   2.188   5.378   8.027 -0.2699 -0.3645  1.0285
 2863TIP3    H230225   2.067   5.310   8.087  0.7321 -2.0866  1.1647
 2864TIP3   OH230226   1.171   4.947   1.348  0.4435 -0.0687 -0.0501
 2864TIP3    H130227   1.112   4.973   1.420 -0.3220  1.7608 -1.2502
 2864TIP3    H230228   1.221   4.874   1.383 -1.8514 -1.0690  1.3897
 2865TIP3   OH230229   0.397   4.090   0.128 -0.0123  0.3092  0.1454
 2865TIP3    H130230   0.372   4.011   0.080  0.6402 -0.3226  0.8407
 2865TIP3    H230231   0.314   4.126   0.158 -0.3633  0.2353 -0.6958
 2866TIP3   OH230232   2.270   3.768   0.999 -0.0408  0.4947 -0.0059
 2866TIP3    H130233   2.242   3.853   0.966  2.4785  0.3816 -2.8810
 2866TIP3    H230234   2.303   3.786   1.087 -1.9982  1.9227  0.5004
 2867TIP3   OH230235   6.454   4.897   0.037 -0.3193 -0.2146  0.0226
 2867TIP3    H130236   6.398   4.825   0.067 -1.0464 -1.2415 -3.3693
 2867TIP3    H230237   6.398   4.974   0.044 -0.7289 -0.5460  0.4969
 2868TIP3   OH230238   4.352   5.361   7.793 -0.0131  0.2135 -0.7321
 2868TIP3    H130239   4.276   5.304   7.801 -0.4850  0.8884 -0.3569
 2868TIP3    H230240   4.396   5.331   7.714  1.6112 -2.8801  1.1274
 2869TIP3   OH230241   3.833   5.485   7.190  0.2339  0.6506 -0.2081
 2869TIP3    H130242   3.759   5.440   7.149  0.7659 -0.8809  0.4356
 2869TIP3    H230243   3.801   5.574   7.205 -0.8829  0.5015 -1.4767
 2870TIP3   OH230244   1.989   4.728   7.887 -0.1193  0.4414  0.4127
 2870TIP3    H130245   1.966   4.734   7.794  0.6375  1.9351  0.2870
 2870TIP3    H230246   1.904   4.719   7.931 -0.5545  0.5394 -0.3759
 2871TIP3   OH230247   1.264   0.205   1.440 -0.5206  0.0739 -0.4839
 2871TIP3    H130248   1.227   0.251   1.516 -0.4892  1.1139 -1.0860
 2871TIP3    H230249   1.312   0.272   1.392 -0.4629 -0.5948 -1.3835
 2872TIP3   OH230250   2.567   6.270   7.238  0.4776 -0.5191 -0.1575
 2872TIP3    H130251   2.528   6.249   7.152 -0.3123 -0.4577  0.1815
 2872TIP3    H230252   2.570   6.185   7.283 -0.4122 -0.3260  0.2783
 2873TIP3   OH230253   3.686   4.276   0.007 -0.1508  0.3735 -0.3177
 2873TIP3    H130254   3.629   4.261   0.083  1.2211 -1.5569  0.4289
 2873TIP3    H230255   3.675   4.197  -0.047  0.1441  0.9868 -1.3059
 2874TIP3   OH230256   6.698   6.338   6.751 -0.5927  0.1467  0.3997
 2874TIP3    H130257   6.698   6.250   6.789 -0.9790 -0.3067 -0.6076
 2874TIP3    H230258   6.605   6.360   6.742 -0.5093  0.2540 -0.2404
 2875TIP3   OH230259   6.872   6.523   6.816 -1.0233 -0.7222  0.1179
 2875TIP3    H130260   6.818   6.448   6.791  1.0688 -2.0546 -0.6969
 2875TIP3    H230261   6.906   6.556   6.732 -0.3168 -0.1504  0.6236
 2876TIP3   OH230262   3.052   6.964   7.539  0.2116  0.6958  0.5267
 2876TIP3    H130263   3.129   7.014   7.564 -0.4615  1.1601  1.7830
 2876TIP3    H230264   3.061   6.881   7.587  1.4807 -0.5957 -1.7856
 2877TIP3   OH230265   6.576   4.089   7.602  0.2545 -0.0076  0.3075
 2877TIP3    H130266   6.636   4.163   7.598 -0.1502  0.2953 -0.2898
 2877TIP3    H230267   6.503   4.120   7.655  0.0517  0.0499 -0.0022
 2878TIP3   OH230268   5.674   5.233   7.789 -0.1069  0.1140  0.3502
 2878TIP3    H130269   5.748   5.241   7.850 -0.5604 -1.0050  1.0681
 2878TIP3    H230270   5.680   5.312   7.735  1.4947  0.1510  0.5180
 2879TIP3   OH230271   6.523   4.427   1.405  0.1408 -0.3449 -0.0229
 2879TIP3    H130272   6.531   4.496   1.339  0.9822  0.0310  0.4566
 2879TIP3    H230273   6.453   4.458   1.463 -0.5434 -0.6359 -0.6751
 2880TIP3   OH230274   1.091   5.062   7.084  0.5842  0.3672 -0.0352
 2880TIP3    H130275   1.067   5.128   7.019  1.7182  1.7827  0.9317
 2880TIP3    H230276   1.156   5.105   7.140  0.1697 -1.0452  1.6181
 2881TIP3   OH230277   5.622   3.571   7.805 -0.6512  0.1032 -0.5071
 2881TIP3    H130278   5.711   3.537   7.806  0.0963  1.9417  0.7426
 2881TIP3    H230279   5.631   3.660   7.770 -2.0602  0.1746 -0.7535
 2882TIP3   OH230280   2.570   0.716   3.028 -0.4216 -0.0483 -0.1438
 2882TIP3    H130281   2.551   0.737   2.936  3.8199  1.2235 -0.9704
 2882TIP3    H230282   2.646   0.658   3.024  0.8691  1.2676  2.5212
 2883TIP3   OH230283   5.514   0.394   1.449  0.6287 -0.1280 -0.1959
 2883TIP3    H130284   5.429   0.391   1.492  0.3949 -0.1631 -0.6549
 2883TIP3    H230285   5.526   0.306   1.413 -0.5129  0.6661 -2.7235
 2884TIP3   OH230286   1.568   1.055   1.996  0.1387  0.6005 -0.4077
 2884TIP3    H130287   1.586   1.125   1.933  2.2656  1.1485  0.6964
 2884TIP3    H230288   1.551   1.101   2.078  0.8066 -0.1458  0.1648
 2885TIP3   OH230289   4.660   5.006   1.552  0.4005 -0.2844 -0.8013
 2885TIP3    H130290   4.619   5.064   1.488  0.1708 -0.6544 -0.9917
 2885TIP3    H230291   4.735   4.968   1.506  1.2782  0.7604 -0.3055
 2886TIP3   OH230292   4.011   4.813   1.053  0.4073  0.1745  0.3699
 2886TIP3    H130293   3.990   4.855   1.137 -1.4757 -0.7083  0.3876
 2886TIP3    H230294   3.926   4.795   1.013  1.1759 -1.9987 -0.4301
 2887TIP3   OH230295   1.116   4.472   0.227  0.2381 -0.5770 -0.3386
 2887TIP3    H130296   1.192   4.416   0.243 -0.6609 -2.2692 -1.6478
 2887TIP3    H230297   1.059   4.420   0.170 -0.5288  1.7997 -1.9241
 2888TIP3   OH230298   2.465   6.049   0.924 -0.0346 -0.7683 -0.2248
 2888TIP3    H130299   2.375   6.022   0.941  0.1701 -1.0326  0.4751
 2888TIP3    H230300   2.469   6.140   0.952  0.1641 -1.0478  0.6978
 2889TIP3   OH230301   0.488   6.780   7.503 -0.2304  0.0552 -0.1984
 2889TIP3    H130302   0.482   6.784   7.408 -1.0134  0.7757 -0.1275
 2889TIP3    H230303   0.571   6.822   7.524  0.1241 -0.4407 -0.5726
 2890TIP3   OH230304   3.132   0.210   8.110  0.1331  0.0244  0.3231
 2890TIP3    H130305   3.115   0.215   8.204 -0.6122  0.0830  0.1870
 2890TIP3    H230306   3.189   0.285   8.091 -0.2942  0.4208  0.6028
 2891TIP3   OH230307   0.975   1.605   7.974  0.4099 -0.2527  0.4806
 2891TIP3    H130308   0.996   1.515   7.998 -2.7115 -1.7136 -1.7294
 2891TIP3    H230309   1.031   1.624   7.899 -0.6652 -1.3049 -0.6108
 2892TIP3   OH230310   4.141   2.805   0.246 -0.0701 -0.3877 -0.3411
 2892TIP3    H130311   4.113   2.814   0.337  0.0884 -0.5466 -0.2735
 2892TIP3    H230312   4.182   2.888   0.225 -0.4331 -0.2186 -0.3852
 2893TIP3   OH230313   3.553   5.171   8.092  0.0236 -0.2747 -0.0826
 2893TIP3    H130314   3.475   5.159   8.147  0.4085  0.3812  0.6284
 2893TIP3    H230315   3.541   5.256   8.051  0.4445 -0.0854  0.1762
 2894TIP3   OH230316   3.570   5.465   1.652 -0.7478  0.3110  0.8815
 2894TIP3    H130317   3.569   5.560   1.664  0.4677  0.1666  2.3788
 2894TIP3    H230318   3.537   5.452   1.563 -0.9692  2.1276  0.6614
 2895TIP3   OH230319   5.932   4.274   7.108  0.1875 -0.1415  0.0016
 2895TIP3    H130320   5.981   4.267   7.026  0.9937  0.8456  0.3670
 2895TIP3    H230321   5.867   4.205   7.104  1.2173 -1.0940 -0.7923
 2896TIP3   OH230322   3.020   1.567   7.408  0.5639  0.1830  0.6845
 2896TIP3    H130323   3.093   1.617   7.372 -0.0804  1.4773  1.1394
 2896TIP3    H230324   3.049   1.542   7.496  1.0386 -0.6025  0.3167
 2897TIP3   OH230325   2.643   4.711   6.503  0.0999 -0.0120 -0.2452
 2897TIP3    H130326   2.734   4.684   6.500  0.2048  0.3059 -0.0567
 2897TIP3    H230327   2.609   4.693   6.415  0.1739 -0.7061 -0.1293
 2898TIP3   OH230328   2.536   1.225   2.451 -0.3129 -0.4886 -0.4875
 2898TIP3    H130329   2.564   1.213   2.360 -1.9033 -1.0575 -0.9410
 2898TIP3    H230330   2.459   1.169   2.459 -1.8259  1.6251  0.4062
 2899TIP3   OH230331   4.682   4.559   6.667 -0.2212 -0.1443 -0.3128
 2899TIP3    H130332   4.653   4.622   6.733  0.7746  0.3502 -0.3158
 2899TIP3    H230333   4.670   4.604   6.584 -0.2646 -0.2672 -0.3736
 2900TIP3   OH230334   6.793   2.962   7.689 -0.4099  0.6576 -0.1112
 2900TIP3    H130335   6.815   3.055   7.697 -3.1889  1.3773  0.3413
 2900TIP3    H230336   6.746   2.942   7.770 -0.8210 -0.8559 -0.6875
 2901TIP3   OH230337   6.718   4.859   1.573 -0.1416 -0.3204  0.0767
 2901TIP3    H130338   6.715   4.854   1.668  0.8118  2.4068  0.3333
 2901TIP3    H230339   6.745   4.771   1.545  1.6218 -0.6342  2.4671
 2902TIP3   OH230340   4.582   1.877   2.561 -0.1558 -0.4649 -0.4632
 2902TIP3    H130341   4.524   1.893   2.487 -0.6729  0.0577  0.0499
 2902TIP3    H230342   4.648   1.945   2.555  1.1177 -1.7238 -1.7107
 2903TIP3   OH230343   6.090   2.070   2.277  0.3079 -0.4563  0.2320
 2903TIP3    H130344   6.021   2.060   2.342  1.0230  1.9854  1.4702
 2903TIP3    H230345   6.170   2.044   2.323  0.4508 -1.9276 -0.7676
 2904TIP3   OH230346   5.384   4.595   1.124 -0.7798  0.4217 -0.8752
 2904TIP3    H130347   5.350   4.554   1.045  0.8641 -0.5332 -1.1263
 2904TIP3    H230348   5.340   4.550   1.196  1.2158 -2.1471 -1.1204
 2905TIP3   OH230349   5.593   0.100   1.303 -0.0998 -0.1977  0.1280
 2905TIP3    H130350   5.673   0.133   1.344 -0.5138 -0.3024  1.0574
 2905TIP3    H230351   5.591   0.141   1.217 -0.8474  2.7210  1.4080
 2906TIP3   OH230352   5.638   4.670   6.854  0.6493 -0.0771 -0.0842
 2906TIP3    H130353   5.700   4.742   6.839 -0.4705  0.7449 -1.0231
 2906TIP3    H230354   5.575   4.678   6.783 -1.9928  0.7201  2.1643
 2907TIP3   OH230355   3.230   4.958   2.204 -0.2797  0.0692  0.1620
 2907TIP3    H130356   3.279   4.998   2.276  1.2896 -0.3032 -0.6431
 2907TIP3    H230357   3.233   4.864   2.222 -0.4868  0.0279 -0.0117
 2908TIP3   OH230358   4.912   4.593   1.341  0.4556 -0.0079 -0.1162
 2908TIP3    H130359   4.898   4.503   1.372  0.7180  0.2244  0.7083
 2908TIP3    H230360   4.848   4.604   1.270 -1.2873 -0.0488  1.3747
 2909TIP3   OH230361   2.068   6.398   1.353  0.4547 -0.4853 -0.1654
 2909TIP3    H130362   2.103   6.469   1.407  1.2764 -0.0637 -1.2244
 2909TIP3    H230363   1.986   6.374   1.395  2.2102 -1.9346  2.8110
 2910TIP3   OH230364   3.557   3.845   7.116  0.5678 -0.1151  0.0339
 2910TIP3    H130365   3.622   3.777   7.133  0.4307  0.0749  1.4335
 2910TIP3    H230366   3.602   3.927   7.135  1.7326  0.5857 -4.5408
 2911TIP3   OH230367   3.305   0.092   2.575 -0.2181 -0.2779 -0.7101
 2911TIP3    H130368   3.370   0.124   2.638  0.9099  1.7853 -2.7589
 2911TIP3    H230369   3.321  -0.002   2.570  0.7808 -0.2305  0.8351
 2912TIP3   OH230370   1.414   6.600   0.493 -0.7017 -0.6121 -0.0476
 2912TIP3    H130371   1.432   6.687   0.528 -1.3384 -0.6116  0.2911
 2912TIP3    H230372   1.411   6.544   0.571 -0.4999 -0.9015 -0.2462
 2913TIP3   OH230373   5.140   4.974   1.400  0.0763 -0.8371 -0.1224
 2913TIP3    H130374   5.207   5.018   1.452 -0.2088 -1.3407  0.6848
 2913TIP3    H230375   5.189   4.913   1.344  0.3837 -0.2709 -0.4744
 2914TIP3   OH230376   4.626   5.000   8.167  0.6840 -0.0649  0.6840
 2914TIP3    H130377   4.659   5.089   8.184  1.0450 -0.7246  4.0903
 2914TIP3    H230378   4.532   5.011   8.158  0.8404  0.7737 -0.1089
 2915TIP3   OH230379   3.057   6.549   0.729  0.5143 -0.1562 -0.7422
 2915TIP3    H130380   3.113   6.524   0.655  0.6973  0.0969 -0.6931
 2915TIP3    H230381   2.969   6.545   0.694  0.5865 -0.2403 -0.9168
 2916TIP3   OH230382   3.546   0.567   2.757 -0.7500 -0.0478  0.4045
 2916TIP3    H130383   3.598   0.644   2.780  0.1926 -0.5450  0.0122
 2916TIP3    H230384   3.548   0.564   2.662  3.1062 -2.9768  0.3059
 2917TIP3   OH230385   1.391   4.376   0.294 -0.2876  0.1860 -0.0157
 2917TIP3    H130386   1.413   4.339   0.209  1.5091 -0.6850  0.7866
 2917TIP3    H230387   1.435   4.461   0.296  0.1666 -0.0554  0.2724
 2918TIP3   OH230388   1.071   4.702   7.048  0.1290 -0.8178 -0.1500
 2918TIP3    H130389   0.989   4.733   7.088 -0.4148 -0.3917 -1.5262
 2918TIP3    H230390   1.046   4.622   7.003  0.6070 -0.9960 -0.1032
 2919TIP3   OH230391   5.929   4.228   1.208  0.0494 -0.0455 -0.5107
 2919TIP3    H130392   5.836   4.206   1.203  0.0261 -0.0097 -0.2418
 2919TIP3    H230393   5.940   4.300   1.146 -0.8119  2.3433  1.8719
 2920TIP3   OH230394   2.961   3.592   1.077 -1.1246 -0.1432 -0.4419
 2920TIP3    H130395   2.942   3.683   1.054  0.6910  0.5549  0.6210
 2920TIP3    H230396   3.050   3.577   1.046 -1.1827 -1.3733 -0.0640
 2921TIP3   OH230397   1.518   0.566   1.824 -0.5807  0.1524 -0.1852
 2921TIP3    H130398   1.539   0.512   1.747 -0.4338  0.2567 -0.2171
 2921TIP3    H230399   1.557   0.651   1.805 -1.1870  0.4049 -0.3300
 2922TIP3   OH230400   1.854   3.324   1.537  0.4829 -0.5341  0.7865
 2922TIP3    H130401   1.903   3.403   1.513 -1.1839  0.7640  1.3999
 2922TIP3    H230402   1.798   3.353   1.610 -0.8480 -2.0462  0.4090
 2923TIP3   OH230403   2.545   5.556   1.925  0.5237 -0.4076  0.2042
 2923TIP3    H130404   2.554   5.480   1.983  0.8352  0.5965  1.5096
 2923TIP3    H230405   2.452   5.576   1.926  0.6864  0.3766  1.4077
 2924TIP3   OH230406   0.030   2.805   7.788 -0.2896  0.4256 -0.0666
 2924TIP3    H130407  -0.047   2.838   7.742 -0.7080 -2.3818 -1.5701
 2924TIP3    H230408  -0.002   2.786   7.877  0.1706  4.4828  1.1483
 2925TIP3   OH230409   5.512   0.680   7.933  0.0435 -0.2408  0.1756
 2925TIP3    H130410   5.487   0.767   7.964 -0.4055  0.1303 -1.2001
 2925TIP3    H230411   5.462   0.620   7.989 -1.4314  0.4374 -0.3668
 2926TIP3   OH230412   4.969   5.127   6.588  0.1233 -0.4821  0.2145
 2926TIP3    H130413   5.033   5.180   6.540 -1.2547  1.1546  0.0766
 2926TIP3    H230414   4.887   5.139   6.541 -1.5871  2.1160  3.3922
 2927TIP3   OH230415   1.587   2.319   7.839 -0.2944  0.1065 -0.4435
 2927TIP3    H130416   1.540   2.313   7.756 -0.7380  0.5478 -0.2267
 2927TIP3    H230417   1.592   2.228   7.870 -1.9863  0.1566  0.0718
 2928TIP3   OH230418   6.106   1.156   1.154 -0.0991 -0.3891 -1.0478
 2928TIP3    H130419   6.052   1.192   1.225 -0.3307 -1.2970 -0.7505
 2928TIP3    H230420   6.057   1.177   1.074 -0.0771  0.2176 -0.9097
 2929TIP3   OH230421   5.092   5.492   0.997 -0.2204  0.1613  0.0337
 2929TIP3    H130422   5.130   5.421   0.945 -0.7542 -0.4110  0.4106
 2929TIP3    H230423   5.112   5.571   0.948  2.3463  0.0165  0.6825
 2930TIP3   OH230424   4.948   4.667   8.095 -0.4347 -0.5337  0.3343
 2930TIP3    H130425   4.900   4.597   8.139  0.0587  0.3440  2.4006
 2930TIP3    H230426   5.030   4.625   8.066 -1.0391 -1.2718 -0.3560
 2931TIP3   OH230427   4.612   6.388   2.096 -0.2722 -0.0754 -0.0870
 2931TIP3    H130428   4.553   6.318   2.067  1.0456 -1.6299  0.8440
 2931TIP3    H230429   4.645   6.359   2.181 -0.5266  2.2328  0.8947
 2932TIP3   OH230430   3.408   0.035   0.380 -0.1550 -0.0020 -0.1041
 2932TIP3    H130431   3.362   0.083   0.311 -0.0007  0.1915 -0.0746
 2932TIP3    H230432   3.410   0.097   0.454  1.2872  0.4963 -0.5185
 2933TIP3   OH230433   0.279   6.605   1.711  0.0810 -0.2271  0.0628
 2933TIP3    H130434   0.282   6.542   1.638 -0.0127 -0.8860  0.6212
 2933TIP3    H230435   0.238   6.682   1.673  1.1713 -0.0962 -0.9273
 2934TIP3   OH230436   2.835   3.040   1.763  0.9147  0.1713 -0.8133
 2934TIP3    H130437   2.792   3.088   1.692 -1.0529 -0.5736 -0.1914
 2934TIP3    H230438   2.768   3.032   1.831  1.9913 -1.1934  0.1553
 2935TIP3   OH230439   0.088   0.636   8.442  0.1791 -0.1449 -0.1103
 2935TIP3    H130440   0.040   0.715   8.469 -2.2703 -0.7725 -2.1999
 2935TIP3    H230441   0.042   0.564   8.484  0.0281 -0.6988 -1.1966
 2936TIP3   OH230442   3.627   2.938   7.891 -0.0315  0.4803 -0.1225
 2936TIP3    H130443   3.567   2.875   7.931 -0.2556  0.2860 -0.7519
 2936TIP3    H230444   3.714   2.909   7.920 -0.2088  0.5499  0.4991
 2937TIP3   OH230445   6.006   0.641   1.161 -0.2105  0.5335 -1.1979
 2937TIP3    H130446   6.096   0.621   1.186 -0.7619 -0.1934  0.3196
 2937TIP3    H230447   5.980   0.714   1.218 -1.9071 -1.9709  1.5392
 2938TIP3   OH230448   6.496   6.396   8.191 -0.3799 -1.0489 -0.4396
 2938TIP3    H130449   6.566   6.355   8.140 -0.6040 -1.4686 -0.4216
 2938TIP3    H230450   6.528   6.484   8.210  0.5801 -1.5635  0.4468
 2939TIP3   OH230451   1.001   3.696   0.073 -0.2900  0.5630 -0.7613
 2939TIP3    H130452   0.949   3.624   0.108 -2.7976  1.3395 -2.5991
 2939TIP3    H230453   1.016   3.754   0.148  1.2000 -1.4381  0.5901
 2940TIP3   OH230454   4.696   2.297   0.365  0.3403  0.2733  0.8031
 2940TIP3    H130455   4.688   2.259   0.278  2.3329 -0.2936  0.8050
 2940TIP3    H230456   4.636   2.246   0.419  0.0332 -0.2129  0.0244
 2941TIP3   OH230457   5.841   0.026   8.519  0.0914  0.4522 -0.0276
 2941TIP3    H130458   5.883  -0.058   8.538 -1.9238 -0.3818  0.9797
 2941TIP3    H230459   5.863   0.082   8.594  0.8059  0.6139 -0.3429
 2942TIP3   OH230460   1.795   6.102   7.439 -0.4702  0.6186  0.0930
 2942TIP3    H130461   1.802   6.172   7.374  0.3576  0.3111 -0.1518
 2942TIP3    H230462   1.781   6.022   7.387 -1.1814  0.5574  0.3600
 2943TIP3   OH230463   5.065   2.414   7.544 -0.0053  0.0641  0.0549
 2943TIP3    H130464   5.137   2.351   7.543 -1.4344 -1.6209 -0.7855
 2943TIP3    H230465   4.988   2.363   7.566 -1.0775  1.7195  0.3350
 2944TIP3   OH230466   0.604   1.153   0.166  0.1262 -0.8906  0.2702
 2944TIP3    H130467   0.604   1.180   0.258  1.7486 -0.8024  0.2805
 2944TIP3    H230468   0.666   1.080   0.162 -2.2960 -3.0969 -0.2178
 2945TIP3   OH230469   5.679   6.286   1.875 -0.3922 -0.6768  0.5346
 2945TIP3    H130470   5.673   6.217   1.941 -1.3085  0.5797  1.8525
 2945TIP3    H230471   5.590   6.322   1.870 -0.5449 -1.2389 -2.0065
 2946TIP3   OH230472   5.422   2.017   2.208  0.0316 -0.3248 -0.3346
 2946TIP3    H130473   5.486   2.023   2.137  0.1906 -0.4270 -0.2007
 2946TIP3    H230474   5.472   1.982   2.282 -0.3623 -1.1459 -0.4566
 2947TIP3   OH230475   3.657   6.852   2.597  0.0305  0.1618  0.7380
 2947TIP3    H130476   3.698   6.794   2.660  0.5945  0.0461  0.2736
 2947TIP3    H230477   3.568   6.820   2.589  0.4849 -0.9810  0.0882
 2948TIP3   OH230478   2.680   5.614   6.498 -0.2351 -0.7004 -0.1285
 2948TIP3    H130479   2.761   5.568   6.521 -1.4344 -1.3897  3.4268
 2948TIP3    H230480   2.612   5.547   6.507 -1.4760  0.5067 -0.2395
 2949TIP3   OH230481   5.330   1.844   7.098 -0.4617 -0.1741  0.0380
 2949TIP3    H130482   5.296   1.909   7.160 -0.3180 -0.7515  0.7363
 2949TIP3    H230483   5.347   1.893   7.018 -0.2960  0.6564  0.5784
 2950TIP3   OH230484   2.290   4.649   0.854  0.4208 -0.8124  0.1556
 2950TIP3    H130485   2.244   4.687   0.928 -0.9174 -0.4109 -0.8518
 2950TIP3    H230486   2.350   4.718   0.825 -0.5695 -0.1627 -0.4218
 2951TIP3   OH230487   6.850   6.533   2.432  0.4009  0.3117  0.4789
 2951TIP3    H130488   6.915   6.547   2.501  1.7278 -0.5089 -0.5567
 2951TIP3    H230489   6.820   6.621   2.410 -0.1828  0.5775  2.1928
 2952TIP3   OH230490   2.194   4.806   2.242 -0.2441  0.0292  0.5908
 2952TIP3    H130491   2.144   4.886   2.224  0.7927  0.3620 -1.0611
 2952TIP3    H230492   2.270   4.836   2.292 -1.1580 -0.3426  2.2746
 2953TIP3   OH230493   4.211   3.082   8.208 -0.5839 -0.5609  0.0027
 2953TIP3    H130494   4.274   3.151   8.225 -2.8021  1.5294  0.3518
 2953TIP3    H230495   4.179   3.100   8.119 -1.7925 -0.5755  0.4074
 2954TIP3   OH230496   4.598   3.259   2.309  0.3570  0.5067 -0.1634
 2954TIP3    H130497   4.613   3.198   2.381 -0.6899  0.1465 -0.2293
 2954TIP3    H230498   4.681   3.261   2.262 -0.0866 -2.3934 -1.2784
 2955TIP3   OH230499   2.613   1.758   1.755  0.0312  0.1093 -0.5764
 2955TIP3    H130500   2.682   1.795   1.810 -0.4436 -0.1674  0.2169
 2955TIP3    H230501   2.532   1.792   1.793 -0.2670  1.0219 -1.9312
 2956TIP3   OH230502   6.728   6.226   2.316  0.5418  0.2214 -0.2393
 2956TIP3    H130503   6.764   6.138   2.305  1.5452  0.5900  0.0039
 2956TIP3    H230504   6.717   6.236   2.411  3.8265  1.6108  0.1445
 2957TIP3   OH230505   4.579   2.714   8.088 -0.1434 -0.2718  0.0978
 2957TIP3    H130506   4.550   2.803   8.112  1.3259  0.8233 -1.9439
 2957TIP3    H230507   4.589   2.670   8.172  0.2206  1.8669  1.2566
 2958TIP3   OH230508   4.289   6.576   8.490  0.3503  0.5538 -0.3479
 2958TIP3    H130509   4.226   6.632   8.445 -0.4256 -1.4964 -2.0052
 2958TIP3    H230510   4.282   6.492   8.446  1.5552 -0.8481  1.9105
 2959TIP3   OH230511   1.220   0.398   2.340  0.4072 -0.5794  0.0359
 2959TIP3    H130512   1.286   0.393   2.271  0.8286  0.6696  0.3183
 2959TIP3    H230513   1.137   0.390   2.295  0.7300 -1.8027 -0.3730
 2960TIP3   OH230514   3.345   0.019   1.084 -0.2348 -0.8978  0.3801
 2960TIP3    H130515   3.367  -0.073   1.071  1.2618 -0.5322  0.1374
 2960TIP3    H230516   3.258   0.018   1.126 -0.8908 -2.3549 -0.9274
 2961TIP3   OH230517   4.813   6.944   7.435 -0.2180  0.3703  0.0249
 2961TIP3    H130518   4.905   6.919   7.444 -0.4458 -0.4542  0.1718
 2961TIP3    H230519   4.799   7.010   7.503  0.2310  0.4039  0.0845
 2962TIP3   OH230520   5.629   2.164   1.584  0.6979 -0.1188 -0.6118
 2962TIP3    H130521   5.575   2.231   1.543  1.6989  0.1624 -1.5263
 2962TIP3    H230522   5.719   2.195   1.572  1.1049 -0.9471  0.1751
 2963TIP3   OH230523   3.257   5.884   7.676 -0.9254 -0.2814  0.0225
 2963TIP3    H130524   3.216   5.818   7.620  0.6564 -0.3167 -1.1684
 2963TIP3    H230525   3.186   5.943   7.699 -1.6932 -0.4066 -1.8590
 2964TIP3   OH230526   6.530   6.128   0.058  0.0688 -0.3435 -0.2043
 2964TIP3    H130527   6.480   6.120  -0.023 -1.3396 -1.0283  0.6960
 2964TIP3    H230528   6.596   6.059   0.053 -1.0286 -1.4358 -0.0965
 2965TIP3   OH230529   3.364   6.930   7.901  0.2471 -0.1137  0.2765
 2965TIP3    H130530   3.296   6.955   7.839  0.1543  0.8805  0.7660
 2965TIP3    H230531   3.446   6.951   7.856  0.1866  3.5693  1.5795
 2966TIP3   OH230532   3.314   5.098   7.357 -0.5778 -0.1301  0.1914
 2966TIP3    H130533   3.227   5.066   7.334 -0.2181 -1.5076  0.6235
 2966TIP3    H230534   3.308   5.193   7.351 -2.3138 -0.1656  0.8877
 2967TIP3   OH230535   6.666   5.422   6.843  0.2559 -0.1294  0.0209
 2967TIP3    H130536   6.636   5.348   6.790 -0.3780 -0.3446  0.6561
 2967TIP3    H230537   6.587   5.473   6.858  0.6578  0.5777 -0.2460
 2968TIP3   OH230538   2.486   2.408   1.774 -0.0902  0.5916 -0.0593
 2968TIP3    H130539   2.402   2.443   1.743  0.4308  0.5323 -1.6176
 2968TIP3    H230540   2.461   2.336   1.833 -1.1761 -0.2529 -1.4553
 2969TIP3   OH230541   1.637   5.389   7.191 -0.5177 -0.5312 -0.3141
 2969TIP3    H130542   1.582   5.350   7.259  0.5315 -0.7492  0.4302
 2969TIP3    H230543   1.618   5.482   7.196 -0.1475 -0.4955  0.5613
 2970TIP3   OH230544   2.344   4.727   2.027  0.4849  0.5853 -0.0320
 2970TIP3    H130545   2.397   4.805   2.043  0.5728  0.0085  3.1247
 2970TIP3    H230546   2.277   4.729   2.095  0.4364 -2.0164  0.0912
 2971TIP3   OH230547   5.784   3.983   2.290  0.1798  0.5036 -0.3235
 2971TIP3    H130548   5.816   3.957   2.377 -0.1217  1.1774 -0.0011
 2971TIP3    H230549   5.819   4.071   2.277  0.3498  0.3475 -0.9569
 2972TIP3   OH230550   3.634   2.675   2.128 -0.6427  0.6716  0.2052
 2972TIP3    H130551   3.705   2.649   2.070 -0.2914 -0.1030  0.9756
 2972TIP3    H230552   3.566   2.610   2.114 -0.3927  0.2405  0.9601
 2973TIP3   OH230553   4.217   5.912   7.467  0.0797 -0.5095 -0.3263
 2973TIP3    H130554   4.193   5.986   7.411  1.4286 -0.7444 -1.2706
 2973TIP3    H230555   4.199   5.942   7.556  2.5498  1.8237 -0.4709
 2974TIP3   OH230556   2.945   2.271   2.648  0.3749  0.0726  0.4693
 2974TIP3    H130557   3.015   2.248   2.708 -0.5859 -0.3262  1.4756
 2974TIP3    H230558   2.930   2.365   2.663  0.5354  0.1059  0.4220
 2975TIP3   OH230559   0.902   4.694   1.009 -0.3533  0.1197 -0.2603
 2975TIP3    H130560   0.863   4.696   1.096 -1.0866  0.9036 -0.5897
 2975TIP3    H230561   0.993   4.668   1.024 -0.6879 -0.5932  0.6460
 2976TIP3   OH230562   1.726   0.625   0.332 -0.3132  0.5735  0.0371
 2976TIP3    H130563   1.752   0.661   0.417 -1.5268  0.9445  0.2764
 2976TIP3    H230564   1.743   0.531   0.340  0.6046  0.7547  0.2869
 2977TIP3   OH230565   3.931   0.458   1.769 -0.0010 -0.0288 -0.4670
 2977TIP3    H130566   3.972   0.506   1.841  0.7061  1.2811 -1.6842
 2977TIP3    H230567   3.854   0.511   1.746  1.5584  1.4127 -2.7459
 2978TIP3   OH230568   1.012   4.195   7.702 -0.0627 -0.0080  0.0151
 2978TIP3    H130569   1.066   4.209   7.624  0.7528  2.4398  0.9126
 2978TIP3    H230570   0.926   4.229   7.678  0.2043  0.8010  0.1627
 2979TIP3   OH230571   2.672   2.304   1.558  0.1399  0.1883  0.3101
 2979TIP3    H130572   2.635   2.317   1.645  0.8377 -0.0729  0.6535
 2979TIP3    H230573   2.697   2.392   1.529  2.9043 -0.0053  1.7489
 2980TIP3   OH230574   5.397   4.752   2.697 -0.1895  0.1934 -0.0308
 2980TIP3    H130575   5.425   4.690   2.764 -0.4785 -0.3585 -0.4184
 2980TIP3    H230576   5.383   4.699   2.618 -1.1451  0.6207 -0.1708
 2981TIP3   OH230577   5.395   0.691   2.431  0.0157 -1.0842  0.8032
 2981TIP3    H130578   5.413   0.727   2.518 -2.4637  2.8824 -0.0656
 2981TIP3    H230579   5.475   0.705   2.381  0.4693 -0.5753  1.6513
 2982TIP3   OH230580   2.748   4.980   1.492  0.5633  0.2097  0.1345
 2982TIP3    H130581   2.815   4.929   1.447  1.5640  0.7514  0.9652
 2982TIP3    H230582   2.683   4.998   1.425  0.6324 -1.3565 -0.4059
 2983TIP3   OH230583   0.850   6.591   8.410 -0.1495  0.0317  0.6922
 2983TIP3    H130584   0.883   6.579   8.499 -0.1022  0.3773  0.7220
 2983TIP3    H230585   0.760   6.621   8.422  0.0152  0.5489  0.6283
 2984TIP3   OH230586   6.925   3.983   0.221  0.0877  0.0025 -0.5569
 2984TIP3    H130587   7.010   3.974   0.264 -0.0383 -1.1141 -0.4986
 2984TIP3    H230588   6.916   4.076   0.205  1.1976  0.1718 -0.3020
 2985TIP3   OH230589   6.897   3.824   1.704 -0.2070 -0.0642 -0.2361
 2985TIP3    H130590   6.979   3.826   1.754 -0.1534  0.2578 -0.3321
 2985TIP3    H230591   6.857   3.740   1.726  0.2182 -0.2852 -0.2998
 2986TIP3   OH230592   1.580   0.663   1.021  0.7182 -0.7889  0.0738
 2986TIP3    H130593   1.573   0.745   0.973  1.2383 -0.4982  0.4917
 2986TIP3    H230594   1.489   0.633   1.030  0.4153  0.3148  0.9117
 2987TIP3   OH230595   4.701   5.467   1.639 -0.3442  0.7649  0.0554
 2987TIP3    H130596   4.786   5.488   1.677 -0.3195  0.6180  0.0816
 2987TIP3    H230597   4.717   5.463   1.545  0.0543 -0.9805  0.1708
 2988TIP3   OH230598   5.033   4.883   7.497  0.0887 -0.1520 -0.0401
 2988TIP3    H130599   5.034   4.975   7.522 -1.0044 -0.2027  0.2405
 2988TIP3    H230600   4.976   4.879   7.421  0.5835 -0.5211 -0.4013
 2989TIP3   OH230601   3.008   2.690   8.225 -0.0343 -0.5202 -0.5108
 2989TIP3    H130602   2.982   2.652   8.309 -0.3709 -0.1696 -0.4526
 2989TIP3    H230603   3.031   2.615   8.170  1.1438 -0.7106  0.2004
 2990TIP3   OH230604   4.701   5.766   1.785 -0.2818  0.1034 -0.6973
 2990TIP3    H130605   4.625   5.718   1.751 -1.3171  0.7651  0.6012
 2990TIP3    H230606   4.774   5.704   1.776 -0.8418 -0.3748 -2.4249
 2991TIP3   OH230607   4.641   1.423   7.515 -0.0282  0.0480 -0.1406
 2991TIP3    H130608   4.670   1.474   7.440 -1.0069 -0.8554 -1.1743
 2991TIP3    H230609   4.686   1.338   7.506 -1.3499 -0.6365 -0.6450
 2992TIP3   OH230610   4.190   6.805   2.256  0.1671  0.6545  0.4143
 2992TIP3    H130611   4.171   6.880   2.311 -1.6544 -0.6222  1.6682
 2992TIP3    H230612   4.167   6.729   2.310 -0.4517 -0.7002 -1.6167
 2993TIP3   OH230613   1.243   0.879   7.209  0.6416 -0.4512 -0.5200
 2993TIP3    H130614   1.223   0.923   7.127  0.3724 -0.0809 -0.2635
 2993TIP3    H230615   1.315   0.819   7.188 -0.3073 -1.3404 -1.3197
 2994TIP3   OH230616   2.340   2.014   1.758  0.0180 -0.1079  0.6699
 2994TIP3    H130617   2.350   1.928   1.800 -1.5287 -0.2733  0.7572
 2994TIP3    H230618   2.268   2.056   1.806  0.7233  1.2373  0.5999
 2995TIP3   OH230619   6.719   5.523   0.622  0.8791  0.7253 -0.3378
 2995TIP3    H130620   6.799   5.477   0.648  1.5211  1.2550 -1.3531
 2995TIP3    H230621   6.745   5.614   0.615 -0.2346  1.1882  0.9977
 2996TIP3   OH230622   0.547   2.121   1.267  0.3242 -0.0589 -0.7167
 2996TIP3    H130623   0.629   2.170   1.277 -0.4971  1.4082 -0.8125
 2996TIP3    H230624   0.479   2.189   1.266 -1.0165 -1.3201  0.6519
 2997TIP3   OH230625   1.476   3.071   1.297  0.3976 -0.7076 -0.7119
 2997TIP3    H130626   1.503   2.997   1.351  0.9925 -0.8161 -1.1540
 2997TIP3    H230627   1.436   3.032   1.220 -1.0209 -0.5477 -0.0850
 2998TIP3   OH230628   1.208   4.674   2.034  0.1697  0.3241  0.4237
 2998TIP3    H130629   1.250   4.629   1.960 -0.9622  0.5292 -0.3723
 2998TIP3    H230630   1.259   4.754   2.046  1.0134 -0.2284  0.5720
 2999TIP3   OH230631   4.043   6.617   3.774 -0.2755  0.3609  0.7567
 2999TIP3    H130632   4.022   6.609   3.681 -0.3694 -1.0413  0.8757
 2999TIP3    H230633   4.095   6.697   3.780 -0.4609  0.5921 -0.4630
 3000TIP3   OH230634   0.350   2.429   2.463 -0.2382  0.1143 -0.7513
 3000TIP3    H130635   0.323   2.388   2.546  1.6919 -1.8999 -1.0288
 3000TIP3    H230636   0.284   2.401   2.400 -0.0455 -0.9050 -0.5081
 3001TIP3   OH230637   0.083   3.416   7.584  0.1994  0.1089  0.2462
 3001TIP3    H130638   0.105   3.335   7.631  0.5880  1.4872  2.6298
 3001TIP3    H230639   0.145   3.419   7.511  0.1500 -1.7243  0.0794
 3002TIP3   OH230640   4.539   3.683   0.047 -0.5962 -0.4965 -0.5693
 3002TIP3    H130641   4.507   3.664   0.135 -0.9461 -0.5944 -0.7159
 3002TIP3    H230642   4.581   3.602   0.018  1.7779  0.2686  0.4630
 3003TIP3   OH230643   3.822   5.564   0.612 -0.6440  0.1328 -0.6488
 3003TIP3    H130644   3.806   5.658   0.610  0.5879  0.3437 -1.7440
 3003TIP3    H230645   3.809   5.536   0.522 -0.6493 -0.6982 -0.3958
 3004TIP3   OH230646   1.334   5.266   7.627 -0.1781 -0.3030  0.0144
 3004TIP3    H130647   1.306   5.274   7.718 -1.4136 -0.1868 -0.3608
 3004TIP3    H230648   1.253   5.256   7.577  0.4862 -0.5234 -1.0641
 3005TIP3   OH230649   0.272   4.801   6.343 -0.7457  0.1033 -0.3361
 3005TIP3    H130650   0.208   4.730   6.352 -1.0501  0.2115 -1.5063
 3005TIP3    H230651   0.337   4.767   6.283  0.4416 -0.0793  0.9989
 3006TIP3   OH230652   6.496   0.625   7.040 -0.3135  0.1470 -0.0069
 3006TIP3    H130653   6.486   0.612   6.945  1.2664 -0.0570 -0.1747
 3006TIP3    H230654   6.528   0.715   7.048 -0.6315  0.2271  0.3427
 3007TIP3   OH230655   1.770   3.824   1.465  0.1429  0.2173 -0.0250
 3007TIP3    H130656   1.822   3.881   1.522  2.8118 -1.4315 -0.5792
 3007TIP3    H230657   1.799   3.846   1.377 -0.2860 -0.6021 -0.3759
 3008TIP3   OH230658   6.784   0.488   7.060 -0.1066  0.1610 -0.0431
 3008TIP3    H130659   6.707   0.448   7.102 -0.6256 -1.2782 -2.2175
 3008TIP3    H230660   6.824   0.417   7.010  0.6477  1.6949 -1.7169
 3009TIP3   OH230661   4.018   2.262   1.870 -0.2219  0.1535 -0.4450
 3009TIP3    H130662   4.058   2.218   1.944 -0.7838 -0.6461 -0.6063
 3009TIP3    H230663   4.092   2.289   1.815  0.1259 -1.5512 -0.8825
 3010TIP3   OH230664   0.508   5.572   0.707 -0.0663  0.2912 -0.1519
 3010TIP3    H130665   0.597   5.538   0.703 -0.0666 -0.1253  1.8858
 3010TIP3    H230666   0.454   5.505   0.666  0.3542 -0.4088  0.4249
 3011TIP3   OH230667   2.610   6.612   7.035  0.1298 -0.1756  0.2096
 3011TIP3    H130668   2.587   6.534   6.985  3.3684 -0.9165 -0.3783
 3011TIP3    H230669   2.644   6.673   6.969  2.3651 -0.3030  1.1554
 3012TIP3   OH230670   5.254   1.075   1.993  0.8241 -0.2284 -0.6874
 3012TIP3    H130671   5.315   1.047   1.925 -0.4851 -0.8843 -1.6407
 3012TIP3    H230672   5.285   1.031   2.072  0.5257 -2.1053 -1.5468
 3013TIP3   OH230673   2.886   3.961   1.360 -0.4746 -0.6098  0.2422
 3013TIP3    H130674   2.839   3.899   1.304 -0.8082 -0.1471  0.0032
 3013TIP3    H230675   2.976   3.958   1.328 -0.7756  0.0811 -0.7200
 3014TIP3   OH230676   5.071   0.659   0.945 -0.1147 -0.1282  0.7561
 3014TIP3    H130677   5.118   0.690   1.022  1.6861 -1.5001  0.2856
 3014TIP3    H230678   5.032   0.575   0.972 -0.0483 -0.2860  0.3691
 3015TIP3   OH230679   1.591   2.643   1.153 -0.1601 -0.2470  0.0427
 3015TIP3    H130680   1.557   2.618   1.239  0.5941  0.1142  0.4599
 3015TIP3    H230681   1.607   2.737   1.160 -0.0725 -0.2204 -0.4880
 3016TIP3   OH230682   1.447   5.862   6.650  0.0716  0.0498  0.2520
 3016TIP3    H130683   1.516   5.826   6.706  2.6903  1.5204 -1.8028
 3016TIP3    H230684   1.450   5.956   6.666  0.7796  0.4807 -2.1245
 3017TIP3   OH230685   3.604   1.217   2.570 -0.0969 -0.1018 -0.0909
 3017TIP3    H130686   3.515   1.190   2.594 -0.7848  2.5213  0.6199
 3017TIP3    H230687   3.654   1.211   2.651 -0.1951  0.4895  0.0170
 3018TIP3   OH230688   4.026   4.080   0.566  0.1266  0.2398  0.4710
 3018TIP3    H130689   4.033   4.066   0.472 -0.1819 -2.7691  0.7861
 3018TIP3    H230690   3.941   4.042   0.590 -0.4380  2.1850  1.8160
 3019TIP3   OH230691   3.315   6.313   0.812  0.1569 -0.0369 -0.4177
 3019TIP3    H130692   3.298   6.395   0.765  1.3778  0.4462 -0.0598
 3019TIP3    H230693   3.315   6.338   0.905  2.7772  0.0738 -0.3586
 3020TIP3   OH230694   2.019   1.083   8.451 -0.6115 -0.2371 -0.2139
 3020TIP3    H130695   2.093   1.071   8.392 -1.2613 -0.4040 -1.0154
 3020TIP3    H230696   1.955   1.132   8.400 -0.6244  0.9020  0.8314
 3021TIP3   OH230697   1.966   2.880   0.288  0.0107 -0.3253  0.2323
 3021TIP3    H130698   1.909   2.866   0.212  0.6016  2.0599 -0.7539
 3021TIP3    H230699   2.046   2.830   0.268  0.2364  0.4352 -0.8550
 3022TIP3   OH230700   3.371   0.359   0.718 -0.0389 -0.0493 -0.0853
 3022TIP3    H130701   3.455   0.313   0.718 -0.0828 -0.1364 -0.4825
 3022TIP3    H230702   3.377   0.420   0.644 -0.1632  0.2439  0.1440
 3023TIP3   OH230703   0.698   2.269   1.923  0.0740 -0.4099  0.2490
 3023TIP3    H130704   0.614   2.282   1.967 -0.1395  1.8545 -0.7013
 3023TIP3    H230705   0.749   2.347   1.944  1.2532 -0.8903 -0.7085
 3024TIP3   OH230706   1.299   4.625   8.153 -0.8067 -1.2685  0.1027
 3024TIP3    H130707   1.380   4.592   8.192 -0.7120  1.1394  2.2191
 3024TIP3    H230708   1.233   4.560   8.177 -0.0711 -1.6353  1.2245
 3025TIP3   OH230709   5.911   2.735   1.079  0.7388 -0.0355  0.3512
 3025TIP3    H130710   5.904   2.648   1.039  0.1775  0.8516 -1.6131
 3025TIP3    H230711   5.848   2.788   1.031 -0.4727  1.0166  2.8874
 3026TIP3   OH230712   0.601   2.905   0.148 -0.2715 -0.5594 -0.4150
 3026TIP3    H130713   0.657   2.933   0.076  1.7392 -3.7533 -0.2837
 3026TIP3    H230714   0.619   2.967   0.219  0.6540  0.3334 -1.4039
 3027TIP3   OH230715   4.055   3.834   1.538 -0.0706 -0.0848  0.0647
 3027TIP3    H130716   4.110   3.814   1.614  1.0169 -1.6016 -1.0568
 3027TIP3    H230717   4.047   3.751   1.492 -1.0886  0.7094 -1.2437
 3028TIP3   OH230718   4.805   5.916   7.888  0.3053  1.0203  0.0684
 3028TIP3    H130719   4.892   5.925   7.927  0.2808  0.6784  0.2070
 3028TIP3    H230720   4.804   5.826   7.854  0.0678  1.0796 -0.0818
 3029TIP3   OH230721   3.236   3.470   0.922 -0.1124 -0.0718  0.2250
 3029TIP3    H130722   3.172   3.435   0.861 -1.0410  0.9287  0.5885
 3029TIP3    H230723   3.320   3.461   0.877 -0.4396 -1.7895 -0.0826
 3030TIP3   OH230724   6.356   1.504   1.777 -0.7950  0.3541  0.3605
 3030TIP3    H130725   6.375   1.515   1.870  1.9025 -0.5508  0.0255
 3030TIP3    H230726   6.287   1.438   1.774  0.1892 -0.8094  1.7535
 3031TIP3   OH230727   2.534   5.370   6.542 -0.1671  0.1956  0.0373
 3031TIP3    H130728   2.528   5.312   6.465  1.7471  0.3819 -0.2965
 3031TIP3    H230729   2.449   5.360   6.586 -0.9013 -0.7535 -1.5002
 3032TIP3   OH230730   2.428   4.091   0.372  0.2059 -0.5399 -0.5921
 3032TIP3    H130731   2.386   4.128   0.450  1.0436  0.9369 -0.7975
 3032TIP3    H230732   2.501   4.039   0.406 -0.0274 -0.7096 -0.3534
 3033TIP3   OH230733   1.411   6.106   7.495  0.3565 -0.1089 -0.2778
 3033TIP3    H130734   1.434   6.154   7.416  0.0051  0.7358  0.1214
 3033TIP3    H230735   1.379   6.021   7.464  2.5498 -0.7634 -0.9250
 3034TIP3   OH230736   4.221   5.541   1.434 -0.3401  0.0091 -0.0531
 3034TIP3    H130737   4.147   5.560   1.491  0.5946  1.4683  0.7361
 3034TIP3    H230738   4.190   5.566   1.346 -0.6770  0.9962  0.3257
 3035TIP3   OH230739   3.382   5.505   2.153  0.2592  0.1390 -0.5637
 3035TIP3    H130740   3.332   5.475   2.229 -0.9489 -1.6295 -1.9717
 3035TIP3    H230741   3.463   5.454   2.156  1.2200  1.6483  0.6779
 3036TIP3   OH230742   0.370   2.509   1.755 -0.1633 -0.3594 -0.7223
 3036TIP3    H130743   0.283   2.549   1.764  0.4991  1.0715 -0.3797
 3036TIP3    H230744   0.384   2.503   1.661  0.4660  2.0561 -0.8674
 3037TIP3   OH230745   6.920   5.118   1.212 -1.0449  0.2103 -0.0520
 3037TIP3    H130746   7.015   5.116   1.206 -1.1704 -2.0395 -2.7311
 3037TIP3    H230747   6.902   5.098   1.304  1.0394 -0.7483  0.1994
 3038TIP3   OH230748   3.740   0.078   7.129 -0.4863  0.5135  0.1215
 3038TIP3    H130749   3.768   0.021   7.202  0.2417 -0.9017 -1.2069
 3038TIP3    H230750   3.655   0.043   7.104  1.2280 -2.2053 -2.6993
 3039TIP3   OH230751   0.861   0.732   7.121  0.1942 -0.4885  0.2183
 3039TIP3    H130752   0.885   0.819   7.155  1.0553 -0.2102 -1.0439
 3039TIP3    H230753   0.930   0.711   7.058 -0.2877 -1.8726  0.1331
 3040TIP3   OH230754   3.489   3.816   7.530  0.4693  0.2307  0.1508
 3040TIP3    H130755   3.583   3.811   7.549  0.6371 -1.1400 -0.8707
 3040TIP3    H230756   3.484   3.847   7.440 -0.1107  1.2471  0.5208
 3041TIP3   OH230757   2.227   1.355   0.735 -0.5455  0.0300  0.1378
 3041TIP3    H130758   2.134   1.351   0.713 -0.8735 -0.3823  1.5110
 3041TIP3    H230759   2.248   1.448   0.737 -0.6053  0.1016 -1.3734
 3042TIP3   OH230760   4.341   4.954   0.769 -0.0594  0.1840 -0.2743
 3042TIP3    H130761   4.336   4.938   0.674 -2.6536  0.6460 -0.2835
 3042TIP3    H230762   4.250   4.965   0.796  0.6605  0.4772  2.2279
 3043TIP3   OH230763   4.998   5.282   7.888  0.4874  0.3805  0.6461
 3043TIP3    H130764   5.046   5.320   7.814 -1.9825  1.0899 -0.7218
 3043TIP3    H230765   5.022   5.336   7.963  0.0179  2.2659 -0.4914
 3044TIP3   OH230766   1.846   6.044   0.772  0.0904  0.7248  0.2642
 3044TIP3    H130767   1.909   6.106   0.734  0.4852  0.3363  0.2759
 3044TIP3    H230768   1.845   5.971   0.711  0.6280  0.1567  0.9253
 3045TIP3   OH230769   6.878   3.344   2.458  0.3523 -0.6216 -0.7629
 3045TIP3    H130770   6.783   3.336   2.457  0.1539  1.2067 -2.3903
 3045TIP3    H230771   6.910   3.254   2.464 -1.4236 -1.1588  2.2314
 3046TIP3   OH230772   5.335   1.645   0.264  0.0661 -0.0188 -0.2449
 3046TIP3    H130773   5.284   1.723   0.241 -1.3804 -0.9720 -0.4460
 3046TIP3    H230774   5.348   1.600   0.180  0.4385 -0.2443 -0.0632
 3047TIP3   OH230775   6.527   0.764   8.509 -0.0494  0.0460 -0.5989
 3047TIP3    H130776   6.458   0.715   8.555  0.0926  1.3712  1.1499
 3047TIP3    H230777   6.484   0.799   8.432 -1.1154  0.1403  0.0211
 3048TIP3   OH230778   4.177   1.785   8.323  0.0305 -0.0836  0.1636
 3048TIP3    H130779   4.223   1.867   8.338 -1.6807  0.7276  1.2618
 3048TIP3    H230780   4.089   1.811   8.298 -0.1825 -1.5911 -0.7612
 3049TIP3   OH230781   6.901   2.733   8.048  0.4801  0.1476 -0.1017
 3049TIP3    H130782   6.864   2.740   8.136  2.6526 -0.5108  0.9481
 3049TIP3    H230783   6.854   2.660   8.008 -0.6171  0.5265  0.4435
 3050TIP3   OH230784   6.443   4.452   6.431 -0.0180  0.6383  0.3287
 3050TIP3    H130785   6.393   4.391   6.378  2.7255 -0.2315 -1.4771
 3050TIP3    H230786   6.495   4.502   6.368  2.3338  0.5604  2.0640
 3051TIP3   OH230787   3.853   3.906   0.207  0.1098 -0.1800  0.0228
 3051TIP3    H130788   3.765   3.916   0.171 -0.1774 -1.1013  0.4582
 3051TIP3    H230789   3.862   3.980   0.269 -0.2699  0.0379 -0.1803
 3052TIP3   OH230790   1.789   0.210   1.604 -0.2044  1.2648  0.0392
 3052TIP3    H130791   1.805   0.162   1.685  2.3613  0.5105 -0.8003
 3052TIP3    H230792   1.858   0.277   1.602 -1.5663  2.7052 -0.5124
 3053TIP3   OH230793   5.697   6.124   2.093  0.0061 -0.1026  0.0490
 3053TIP3    H130794   5.773   6.095   2.143 -0.3835  0.0666  0.7551
 3053TIP3    H230795   5.658   6.043   2.059  0.2770 -0.2174  0.0101
 3054TIP3   OH230796   1.995   0.806   3.186 -0.5079  0.2727 -0.0403
 3054TIP3    H130797   2.056   0.828   3.256  0.7928  0.0983 -1.0763
 3054TIP3    H230798   1.960   0.890   3.156 -0.9877  0.3535  0.7223
 3055TIP3   OH230799   1.422   0.658   7.515 -0.7322  0.1721 -0.0763
 3055TIP3    H130800   1.486   0.614   7.570  0.4941  0.9748 -0.8074
 3055TIP3    H230801   1.428   0.615   7.430  0.0233  1.2837 -0.6120
 3056TIP3   OH230802   1.728   0.430   6.956  0.2997 -0.1742  0.9205
 3056TIP3    H130803   1.791   0.487   6.912  1.0522 -1.1667  0.6890
 3056TIP3    H230804   1.711   0.360   6.893  0.4116 -0.9311  1.7129
 3057TIP3   OH230805   4.516   2.454   1.672 -0.2641  0.0890  0.1345
 3057TIP3    H130806   4.598   2.420   1.637 -0.7864 -0.4407 -0.5860
 3057TIP3    H230807   4.515   2.425   1.763  1.2293  1.7050  0.7219
 3058TIP3   OH230808   0.594   5.851   7.848  0.2044 -0.2662  0.7750
 3058TIP3    H130809   0.680   5.829   7.885  1.0740  0.7551 -0.5374
 3058TIP3    H230810   0.606   5.937   7.809 -1.1758 -0.4994 -0.2463
 3059TIP3   OH230811   5.364   0.706   1.787 -0.6197 -0.5404  0.3147
 3059TIP3    H130812   5.437   0.645   1.796  1.0838  1.3899  0.2075
 3059TIP3    H230813   5.306   0.685   1.860 -0.1209 -2.2813  0.2504
 3060TIP3   OH230814   0.900   2.070   0.140  0.2462 -0.7205  0.5983
 3060TIP3    H130815   0.825   2.028   0.097  0.2395  0.5015 -0.6635
 3060TIP3    H230816   0.974   2.052   0.083  0.4312  0.1034  0.5605
 3061TIP3   OH230817   0.949   2.262   1.719  0.2265 -0.2943 -0.6279
 3061TIP3    H130818   1.013   2.191   1.712 -0.5445 -1.3897  2.1379
 3061TIP3    H230819   0.866   2.221   1.696 -0.1199 -0.1573  0.3215
 3062TIP3   OH230820   2.727   5.926   7.116 -0.3000  0.3236  0.0535
 3062TIP3    H130821   2.643   5.955   7.080 -0.7048 -0.2049  0.5660
 3062TIP3    H230822   2.788   5.932   7.042 -0.3115  2.6350  0.1557
 3063TIP3   OH230823   4.289   1.165   2.854 -0.4904  0.0317  0.5392
 3063TIP3    H130824   4.270   1.072   2.838 -0.9500 -0.3021  2.7356
 3063TIP3    H230825   4.368   1.183   2.803 -0.2051 -1.6579  0.3369
 3064TIP3   OH230826   1.021   4.985   1.561 -0.5295  0.1429  0.3385
 3064TIP3    H130827   1.044   5.053   1.623 -2.1746  0.0722  1.0920
 3064TIP3    H230828   0.968   4.923   1.611 -0.1054 -1.0422 -0.6254
 3065TIP3   OH230829   6.665   4.994   0.574 -0.4764 -0.0686  0.2561
 3065TIP3    H130830   6.692   4.902   0.567 -4.3181 -1.4440  0.7817
 3065TIP3    H230831   6.647   5.021   0.484  0.1451 -0.0065  0.1492
 3066TIP3   OH230832   2.199   1.546   6.988 -0.3637 -0.3476  0.0009
 3066TIP3    H130833   2.125   1.501   6.947 -0.7111 -1.4354  1.7271
 3066TIP3    H230834   2.182   1.639   6.971 -2.3026 -0.5422  0.6196
 3067TIP3   OH230835   1.091   0.046   7.950  0.0385  0.3048 -0.0909
 3067TIP3    H130836   1.061  -0.018   7.886 -1.0854 -0.0451  0.7496
 3067TIP3    H230837   1.135   0.113   7.898 -1.1686  0.2303 -1.2819
 3068TIP3   OH230838   2.341   3.300   0.106  0.3043 -0.3756 -0.0992
 3068TIP3    H130839   2.409   3.328   0.167 -0.2794 -1.6247  1.1852
 3068TIP3    H230840   2.297   3.227   0.151 -1.6130  0.1276 -1.0606
 3069TIP3   OH230841   2.652   6.649   2.366  0.1553  0.1968 -0.3968
 3069TIP3    H130842   2.730   6.595   2.361  0.0907  0.1252 -0.6921
 3069TIP3    H230843   2.599   6.621   2.291 -1.6603 -2.0745  1.5901
 3070TIP3   OH230844   6.814   6.538   1.470 -0.4544 -0.7656 -0.4974
 3070TIP3    H130845   6.842   6.628   1.456 -0.6973 -0.7248 -0.7402
 3070TIP3    H230846   6.893   6.486   1.461 -0.4316 -0.6414 -1.0454
 3071TIP3   OH230847   3.126   4.895   6.438  0.2087  0.0515  0.1138
 3071TIP3    H130848   3.215   4.927   6.422 -0.0325 -0.3574 -2.4642
 3071TIP3    H230849   3.138   4.804   6.465  0.5823 -0.2274 -0.9337
 3072TIP3   OH230850   3.926   1.910   2.014  0.0835 -0.0223  0.0930
 3072TIP3    H130851   4.021   1.897   2.024  0.1059  0.2485  0.2276
 3072TIP3    H230852   3.917   1.956   1.931  0.1133  0.5041  0.3808
 3073TIP3   OH230853   3.473   5.381   1.898 -0.0515 -0.0628  0.1775
 3073TIP3    H130854   3.484   5.409   1.807 -0.4688  0.2092  0.2067
 3073TIP3    H230855   3.399   5.432   1.930  0.4905  0.3096  0.8640
 3074TIP3   OH230856   1.065   2.504   7.640  0.1446 -0.5742 -0.1067
 3074TIP3    H130857   1.057   2.596   7.613  3.0781 -0.2832 -0.2946
 3074TIP3    H230858   1.073   2.507   7.735  0.9230 -0.5635 -0.1704
 3075TIP3   OH230859   3.634   0.769   8.286  0.1690 -0.0258  0.6958
 3075TIP3    H130860   3.617   0.676   8.274  0.6733 -0.1136  0.6657
 3075TIP3    H230861   3.551   0.812   8.261 -0.3259 -0.5086  1.4663
 3076TIP3   OH230862   1.020   3.375   8.038 -0.0324  0.3807  0.4371
 3076TIP3    H130863   0.934   3.416   8.043  0.0298  0.6967 -0.8361
 3076TIP3    H230864   1.001   3.282   8.024 -0.1862  0.6260 -1.1074
 3077TIP3   OH230865   5.045   0.367   8.067 -0.1940 -0.0351  0.4924
 3077TIP3    H130866   5.116   0.431   8.066 -2.4405  2.7521 -2.7096
 3077TIP3    H230867   5.026   0.354   8.160  2.1709  1.8305  1.3371
 3078TIP3   OH230868   0.690   4.993   0.914 -0.7410  0.5099 -0.8934
 3078TIP3    H130869   0.741   4.924   0.872 -1.2910 -0.1328 -0.5262
 3078TIP3    H230870   0.711   4.985   1.007 -1.3462  0.3873 -0.7675
 3079TIP3   OH230871   4.063   4.944   1.286  0.0025  0.3651 -0.5437
 3079TIP3    H130872   4.084   5.029   1.248 -0.5932  0.7552 -0.0285
 3079TIP3    H230873   4.145   4.914   1.325  0.2159  0.7053 -0.7279
 3080TIP3   OH230874   2.754   6.728   7.815 -0.6689  0.1190  0.0343
 3080TIP3    H130875   2.675   6.753   7.863 -0.3996  2.0788 -0.4502
 3080TIP3    H230876   2.825   6.740   7.877 -0.4442  1.4935 -0.4642
 3081TIP3   OH230877   6.055   1.543   0.858 -0.0595 -0.0856  0.2630
 3081TIP3    H130878   6.123   1.502   0.911  0.4188 -0.0306 -0.3031
 3081TIP3    H230879   6.099   1.613   0.812 -0.5515  0.0913  0.0533
 3082TIP3   OH230880   3.740   1.826   0.466 -0.3864 -0.3234  0.4905
 3082TIP3    H130881   3.685   1.805   0.542 -0.2486 -0.1151  0.6480
 3082TIP3    H230882   3.717   1.916   0.445 -0.3225 -0.3361  0.3685
 3083TIP3   OH230883   4.859   6.755   1.122  0.3633 -0.9779 -0.7054
 3083TIP3    H130884   4.868   6.757   1.027 -0.8711  1.0736 -0.8353
 3083TIP3    H230885   4.815   6.672   1.140 -1.2020 -0.5192 -2.1447
 3084TIP3   OH230886   6.880   6.244   8.263  0.6583  0.5844 -0.2701
 3084TIP3    H130887   6.844   6.157   8.277  1.9576  0.0040 -0.4018
 3084TIP3    H230888   6.900   6.277   8.351 -0.5072  1.0724 -0.1671
 3085TIP3   OH230889   3.670   4.137   1.078 -0.5339 -0.2091 -0.5933
 3085TIP3    H130890   3.700   4.166   1.164 -0.1198 -4.0193  0.7458
 3085TIP3    H230891   3.575   4.145   1.081 -0.5658 -0.8037  0.4802
 3086TIP3   OH230892   3.148   6.760   1.321  0.1573  0.4574 -0.7671
 3086TIP3    H130893   3.145   6.854   1.338  1.5156  0.5543 -0.9799
 3086TIP3    H230894   3.238   6.743   1.294 -0.7703 -0.3670 -3.8096
 3087TIP3   OH230895   2.221   0.469   7.250 -0.2781  0.5326  0.1071
 3087TIP3    H130896   2.269   0.396   7.288  0.4309  0.7531 -0.3547
 3087TIP3    H230897   2.200   0.526   7.324 -1.0849 -0.2594  0.5137
 3088TIP3   OH230898   1.034   5.003   7.708  0.6374 -0.2957  0.2539
 3088TIP3    H130899   1.128   5.016   7.694  0.5023  1.3235  0.6675
 3088TIP3    H230900   1.005   4.953   7.632  1.9682 -1.5270  0.5242
 3089TIP3   OH230901   3.690   5.221   6.850 -0.5039  0.6782  0.0252
 3089TIP3    H130902   3.598   5.213   6.827 -0.5043 -0.5285  0.4158
 3089TIP3    H230903   3.690   5.226   6.946 -0.0723 -1.2053  0.1637
 3090TIP3   OH230904   4.505   0.477   0.778  0.2009  0.1513  0.2791
 3090TIP3    H130905   4.423   0.492   0.731 -0.8395 -1.5081  1.4470
 3090TIP3    H230906   4.486   0.404   0.837  1.8361  1.2627  2.3251
 3091TIP3   OH230907   1.066   3.859   0.917 -0.4662  0.7361 -0.3501
 3091TIP3    H130908   1.112   3.920   0.859 -0.3780  0.0342 -1.0169
 3091TIP3    H230909   1.130   3.839   0.986  0.5588 -0.8798 -1.7135
 3092TIP3   OH230910   6.031   0.774   1.412  0.1767 -0.3161  0.2541
 3092TIP3    H130911   6.031   0.717   1.488  0.2000 -1.7630 -0.7969
 3092TIP3    H230912   6.122   0.804   1.404  0.2593 -0.4827  0.5653
 3093TIP3   OH230913   3.685   4.493   1.733  0.1465  0.7718 -0.0261
 3093TIP3    H130914   3.744   4.420   1.752  0.6446  0.9295 -0.9066
 3093TIP3    H230915   3.614   4.484   1.796 -0.0096 -0.7124 -0.3836
 3094TIP3   OH230916   2.271   0.304   0.598 -0.0846  0.2027  0.1517
 3094TIP3    H130917   2.221   0.270   0.672 -2.0655  1.4536 -0.5452
 3094TIP3    H230918   2.222   0.381   0.569  2.3225  1.5991 -0.5104
 3095TIP3   OH230919   0.253   5.218   6.905 -0.1910 -0.1404  0.2727
 3095TIP3    H130920   0.167   5.256   6.883 -0.3871 -1.2366 -0.9717
 3095TIP3    H230921   0.249   5.203   6.999 -0.3252  2.3246  0.7424
 3096TIP3   OH230922   4.828   4.235   6.743 -0.8390 -0.3224 -0.1868
 3096TIP3    H130923   4.895   4.285   6.697 -1.7708 -0.5178 -1.8641
 3096TIP3    H230924   4.875   4.164   6.785  0.2474  0.7691  0.5161
 3097TIP3   OH230925   0.885   6.641   8.133  0.0494  0.2783  0.0981
 3097TIP3    H130926   0.853   6.727   8.107  1.9128  1.8175  2.4668
 3097TIP3    H230927   0.868   6.637   8.227 -0.9097 -2.4404 -0.1125
 3098TIP3   OH230928   6.347   4.266   2.505 -0.4073 -0.0442 -0.2404
 3098TIP3    H130929   6.429   4.273   2.457 -0.3831 -0.9150 -0.3271
 3098TIP3    H230930   6.367   4.302   2.592 -0.4858  1.6550 -0.8847
 3099TIP3   OH230931   1.300   2.201   0.807 -0.7591  0.5247  0.6868
 3099TIP3    H130932   1.323   2.241   0.724 -1.0584  0.8935  0.7781
 3099TIP3    H230933   1.205   2.207   0.811 -0.6920  1.4438  1.5069
 3100TIP3   OH230934   2.704   3.181   1.572  0.7631  0.1044 -0.9314
 3100TIP3    H130935   2.714   3.263   1.621  0.0934 -0.5394  0.3170
 3100TIP3    H230936   2.609   3.171   1.561  0.8658 -0.2511 -1.5332
 3101TIP3   OH230937   2.474   4.105   1.186  0.0308  0.1906 -0.3772
 3101TIP3    H130938   2.498   4.148   1.268  0.3798 -0.1073 -0.3180
 3101TIP3    H230939   2.409   4.040   1.212  0.7181 -0.4410 -0.2106
 3102TIP3   OH230940   4.545   5.373   1.977 -0.2764  0.6630 -0.8549
 3102TIP3    H130941   4.570   5.432   2.048 -0.8198 -0.1841  0.0711
 3102TIP3    H230942   4.495   5.304   2.020  0.0426 -0.2871 -1.9538
 3103TIP3   OH230943   0.258   1.866   1.590  0.8999 -0.1500 -0.1186
 3103TIP3    H130944   0.277   1.779   1.556  0.5202  0.3305 -1.6366
 3103TIP3    H230945   0.201   1.906   1.524  0.1717  0.8656  1.0699
 3104TIP3   OH230946   4.652   4.961   0.422 -0.1503 -0.2077 -0.1612
 3104TIP3    H130947   4.718   4.993   0.360 -0.0003 -0.2120 -0.0072
 3104TIP3    H230948   4.687   4.878   0.454 -0.3416 -0.3228 -0.2519
 3105TIP3   OH230949   1.208   2.508   1.354  0.1466  0.8635 -0.3519
 3105TIP3    H130950   1.212   2.560   1.274  0.3858  1.0661 -0.2077
 3105TIP3    H230951   1.298   2.508   1.388 -0.2285  2.0054  0.6992
 3106TIP3   OH230952   0.428   3.393   0.339 -0.3605 -0.2088  0.2553
 3106TIP3    H130953   0.453   3.475   0.298 -0.1343 -0.6202 -0.4544
 3106TIP3    H230954   0.373   3.418   0.414 -0.2065  0.5800  0.1060
 3107TIP3   OH230955   0.247   6.533   8.268  0.0433  0.0591 -0.6796
 3107TIP3    H130956   0.166   6.504   8.226  0.1679  1.5519 -2.0645
 3107TIP3    H230957   0.307   6.550   8.196  1.0507  0.5093  0.2363
 3108TIP3   OH230958   1.714   6.420   7.897  0.3253 -0.5463  0.4083
 3108TIP3    H130959   1.778   6.479   7.858 -0.6588  0.5951  0.4569
 3108TIP3    H230960   1.679   6.371   7.822  0.5664 -0.4804  0.2500
 3109TIP3   OH230961   0.331   2.051   7.981 -0.2716  0.0122 -0.0183
 3109TIP3    H130962   0.356   1.982   8.043  0.8189 -0.4597 -0.9385
 3109TIP3    H230963   0.296   2.121   8.036 -1.1847 -1.1674  0.9644
 3110TIP3   OH230964   3.984   5.633   8.341 -0.0633  0.6404  0.0114
 3110TIP3    H130965   3.995   5.673   8.427 -1.5640  0.8139  0.1577
 3110TIP3    H230966   3.940   5.700   8.289  3.3214  1.6486 -1.8414
 3111TIP3   OH230967   1.675   3.069   7.355  0.3127  0.1678  0.7303
 3111TIP3    H130968   1.678   3.062   7.260  0.7878  2.2051  0.5440
 3111TIP3    H230969   1.762   3.043   7.385  1.2810  2.6199  0.2785
 3112TIP3   OH230970   5.259   6.669   0.038  0.3692  0.0065  0.2843
 3112TIP3    H130971   5.284   6.662  -0.054 -1.7639 -0.4386 -0.3176
 3112TIP3    H230972   5.289   6.756   0.064  0.3003  0.4547 -1.0612
 3113TIP3   OH230973   5.149   5.353   7.673 -0.1960 -0.5354  0.2372
 3113TIP3    H130974   5.178   5.442   7.694 -1.5774  0.1490 -0.5848
 3113TIP3    H230975   5.225   5.312   7.631  0.8366 -0.1530  1.6809
 3114TIP3   OH230976   2.227   3.424   2.418  0.1799 -0.0043  0.0011
 3114TIP3    H130977   2.143   3.457   2.385  1.6249  2.2255 -1.7271
 3114TIP3    H230978   2.236   3.463   2.505 -0.5345 -0.1982  0.1657
 3115TIP3   OH230979   1.683   2.977   7.908 -0.0738  0.2155 -0.3985
 3115TIP3    H130980   1.707   2.885   7.923 -1.3656 -0.4780 -2.1552
 3115TIP3    H230981   1.610   2.992   7.968  0.8087  0.4521  0.6455
 3116TIP3   OH230982   6.636   2.863   0.601 -0.1239  0.5848 -0.4298
 3116TIP3    H130983   6.703   2.912   0.553 -1.7523  1.5442 -1.8606
 3116TIP3    H230984   6.625   2.782   0.552  1.8687 -0.9228  1.3862
 3117TIP3   OH230985   1.713   6.293   1.982 -0.5933  0.5278 -0.0016
 3117TIP3    H130986   1.663   6.295   2.063 -1.1982 -0.3884 -0.3427
 3117TIP3    H230987   1.650   6.267   1.915  0.1926 -0.0073 -0.5550
 3118TIP3   OH230988   4.360   3.876   8.070  0.7109  0.0089 -0.0420
 3118TIP3    H130989   4.317   3.953   8.032  1.3476  0.9926  1.1456
 3118TIP3    H230990   4.296   3.841   8.131  0.6147 -0.0880 -0.1987
 3119TIP3   OH230991   2.698   3.072   7.415  0.1994  0.3690  0.0493
 3119TIP3    H130992   2.628   3.031   7.466 -0.7527  0.0827 -1.4262
 3119TIP3    H230993   2.775   3.070   7.473 -0.7863 -0.0738  1.3894
 3120TIP3   OH230994   2.487   5.575   0.682 -0.0485  0.4433 -0.5659
 3120TIP3    H130995   2.559   5.529   0.725  0.6782  1.4217 -0.7004
 3120TIP3    H230996   2.499   5.556   0.589  0.1456  0.7513 -0.6049
 3121TIP3   OH230997   5.286   1.535   7.816  0.1987 -0.0473 -0.2448
 3121TIP3    H130998   5.258   1.465   7.757  0.6522 -0.8342  0.4441
 3121TIP3    H230999   5.286   1.614   7.762  0.4001 -0.7119 -1.2419
 3122TIP3   OH231000   2.317   1.835   2.503  0.3344 -0.1416 -0.4611
 3122TIP3    H131001   2.317   1.825   2.598 -0.7534 -0.9385 -0.5354
 3122TIP3    H231002   2.300   1.747   2.470 -1.9516  0.5559 -1.3208
 3123TIP3   OH231003   6.854   1.207   8.018  0.1343  0.5776  0.0517
 3123TIP3    H131004   6.907   1.269   8.067  1.1314 -0.9371  0.9724
 3123TIP3    H231005   6.764   1.230   8.038  0.5046  1.1898  1.0469
 3124TIP3   OH231006   4.129   5.716   0.631 -0.3659 -0.2017 -0.0439
 3124TIP3    H131007   4.036   5.717   0.654 -0.4755 -0.2756 -0.4702
 3124TIP3    H231008   4.174   5.703   0.714 -0.7560 -0.6462  0.1041
 3125TIP3   OH231009   5.670   2.046   7.100  0.4128 -0.3415 -0.3937
 3125TIP3    H131010   5.632   1.959   7.092  1.0493 -0.7188  0.4841
 3125TIP3    H231011   5.641   2.076   7.186 -0.8671  0.8621 -1.2005
 3126TIP3   OH231012   6.100   1.570   2.094 -0.6063 -0.6074  0.1029
 3126TIP3    H131013   6.158   1.541   2.164 -1.2822 -2.0748  0.0994
 3126TIP3    H231014   6.020   1.596   2.138 -0.8442 -1.0334 -0.0637
 3127TIP3   OH231015   3.377   5.668   8.401  0.1662  0.1606 -0.4892
 3127TIP3    H131016   3.301   5.639   8.351  1.4493 -0.8327 -1.9779
 3127TIP3    H231017   3.370   5.622   8.484 -2.7752  2.9282  0.9897
 3128TIP3   OH231018   5.233   0.494   2.584  0.1571 -0.0101 -0.1953
 3128TIP3    H131019   5.195   0.470   2.499 -1.1257  1.1002  0.0410
 3128TIP3    H231020   5.290   0.568   2.564  0.4683 -0.2417 -0.1876
 3129TIP3   OH231021   1.020   1.501   6.896 -0.7652  0.0094  0.5618
 3129TIP3    H131022   0.991   1.422   6.942 -0.1868 -0.7170 -0.2968
 3129TIP3    H231023   1.114   1.505   6.913 -0.5896 -0.1357 -0.3453
 3130TIP3   OH231024   6.248   6.395   0.529  0.2763  0.3580 -0.1886
 3130TIP3    H131025   6.304   6.415   0.604  2.6327 -0.9748 -1.4807
 3130TIP3    H231026   6.230   6.480   0.489 -1.2365  1.1214  1.9441
 3131TIP3   OH231027   0.270   5.996   6.935 -0.1490  0.0026  0.3780
 3131TIP3    H131028   0.185   6.003   6.891 -0.8843 -0.9658  1.5945
 3131TIP3    H231029   0.321   5.939   6.879 -0.6761 -0.2782  0.1721
 3132TIP3   OH231030   6.856   1.734   1.663 -0.2395  0.6050 -0.4274
 3132TIP3    H131031   6.887   1.778   1.584 -1.3064 -0.5462 -1.5287
 3132TIP3    H231032   6.935   1.698   1.703  0.0435 -1.9975 -3.0018
 3133TIP3   OH231033   6.184   4.508   7.851  0.8466 -0.0831  0.0375
 3133TIP3    H131034   6.175   4.602   7.833  0.8890  0.1913  1.3131
 3133TIP3    H231035   6.095   4.473   7.844  0.5068  0.4336  1.3943
 3134TIP3   OH231036   3.459   2.961   0.712  0.0726  0.3221 -0.1511
 3134TIP3    H131037   3.524   2.952   0.642 -0.3118  1.0930 -0.6166
 3134TIP3    H231038   3.505   2.929   0.790  0.3275 -1.0588 -0.8288
 3135TIP3   OH231039   0.740   6.648   7.840 -0.1119  0.2411  0.0596
 3135TIP3    H131040   0.775   6.567   7.878 -0.5735 -0.8697 -1.7441
 3135TIP3    H231041   0.650   6.652   7.872 -0.3452 -0.4226 -0.4804
 3136TIP3   OH231042   2.124   6.749   7.410 -0.3222  0.6428 -0.1558
 3136TIP3    H131043   2.204   6.697   7.403 -1.0255 -0.4663 -0.1775
 3136TIP3    H231044   2.053   6.685   7.406 -1.2055  1.5613  0.3291
 3137TIP3   OH231045   6.671   2.116   1.469 -0.1417 -0.3311 -0.3427
 3137TIP3    H131046   6.707   2.144   1.385  0.7534 -2.8265 -0.8667
 3137TIP3    H231047   6.722   2.163   1.535 -1.6291  2.5825 -1.0832
 3138TIP3   OH231048   3.801   6.683   7.927  0.2002 -0.3396 -0.5103
 3138TIP3    H131049   3.711   6.697   7.954 -0.1274 -0.2894 -1.5953
 3138TIP3    H231050   3.797   6.610   7.866  0.5461  1.1309 -2.3726
 3139TIP3   OH231051   3.676   6.480   2.411  0.5865 -0.1464 -0.5166
 3139TIP3    H131052   3.717   6.505   2.494 -0.7649 -1.5580  0.6505
 3139TIP3    H231053   3.744   6.494   2.345  2.1586 -0.2270  1.0069
 3140TIP3   OH231054   1.807   4.689   7.235  0.5170 -0.8582  0.4460
 3140TIP3    H131055   1.786   4.631   7.162  1.0428 -2.9353  1.8661
 3140TIP3    H231056   1.889   4.731   7.208  1.1396 -2.2117  0.1480
 3141TIP3   OH231057   5.050   0.018   1.942  0.2725 -0.2042 -0.1992
 3141TIP3    H131058   5.125  -0.042   1.949  1.6107  1.5135  1.0630
 3141TIP3    H231059   5.075   0.079   1.873 -0.0557  0.2716  0.1021
 3142TIP3   OH231060   2.571   1.665   1.316  0.0002  0.5336 -0.4232
 3142TIP3    H131061   2.558   1.760   1.319  1.9316  0.8712 -0.7674
 3142TIP3    H231062   2.485   1.628   1.333 -0.2217  2.2925  3.3275
 3143TIP3   OH231063   1.836   4.930   0.919  0.2412 -0.2945  0.3909
 3143TIP3    H131064   1.787   5.007   0.947  1.4906  0.7725 -0.2531
 3143TIP3    H231065   1.846   4.941   0.824  3.0657  0.3850  0.6831
 3144TIP3   OH231066   2.163   3.955   6.860  0.7344 -0.0332 -0.5628
 3144TIP3    H131067   2.173   4.045   6.831  0.6615  0.6153  1.2630
 3144TIP3    H231068   2.246   3.935   6.904 -0.4382  0.4002  2.0583
 3145TIP3   OH231069   1.206   0.285   8.347  0.2788  0.0834 -0.0569
 3145TIP3    H131070   1.211   0.202   8.393  1.2665 -0.6603 -1.4212
 3145TIP3    H231071   1.227   0.351   8.413  2.1659 -0.9804  0.4923
 3146TIP3   OH231072   6.361   0.623   1.582 -0.3742 -0.2009  0.3782
 3146TIP3    H131073   6.410   0.659   1.656  1.6251  0.4032 -1.1456
 3146TIP3    H231074   6.421   0.560   1.542 -1.7906 -1.2502 -0.1635
 3147TIP3   OH231075   2.279   5.403   1.087 -0.1508 -0.0523 -0.1390
 3147TIP3    H131076   2.190   5.417   1.055 -0.0747  0.8340  0.0084
 3147TIP3    H231077   2.313   5.491   1.104  0.2555 -0.4305  1.1823
 3148TIP3   OH231078   0.305   0.185   8.189 -0.3372 -0.2653 -0.1687
 3148TIP3    H131079   0.319   0.092   8.173 -2.7233 -0.7554  0.2288
 3148TIP3    H231080   0.353   0.229   8.118  1.0384 -1.7588 -0.2089
 3149TIP3   OH231081   0.011   0.867   8.529 -0.1406  0.1597 -0.5741
 3149TIP3    H131082  -0.025   0.892   8.444 -0.4533  1.8700  0.0240
 3149TIP3    H231083  -0.053   0.897   8.593  1.6418  2.1153  0.4436
 3150TIP3   OH231084   4.561   4.576   6.309 -0.4274 -0.9963 -0.6411
 3150TIP3    H131085   4.645   4.611   6.280 -0.3935 -0.6873 -0.1886
 3150TIP3    H231086   4.578   4.483   6.325 -0.4507 -1.1722 -1.5880
 3151TIP3   OH231087   2.428   2.899   0.455 -0.3072  0.3168  0.7553
 3151TIP3    H131088   2.340   2.863   0.465 -0.3216 -0.3637 -1.2897
 3151TIP3    H231089   2.484   2.838   0.502 -0.7606 -0.0901  0.7797
 3152TIP3   OH231090   4.314   6.808   0.882  0.1667  0.4903 -0.0526
 3152TIP3    H131091   4.295   6.896   0.850  1.8383  0.2751 -1.9022
 3152TIP3    H231092   4.302   6.752   0.805  0.2771 -0.7040  0.7843
 3153TIP3   OH231093   2.065   0.789   1.477 -0.3798 -0.1234 -0.4402
 3153TIP3    H131094   1.983   0.832   1.452 -0.6338 -1.4512 -2.0964
 3153TIP3    H231095   2.078   0.722   1.410  0.4264 -2.0608  1.5333
 3154TIP3   OH231096   6.794   2.409   2.596  0.2790 -0.2135  0.1695
 3154TIP3    H131097   6.873   2.357   2.583 -0.4946 -1.4287  0.0920
 3154TIP3    H231098   6.738   2.353   2.651 -0.2370  0.9250  0.8374
 3155TIP3   OH231099   5.564   5.648   1.711 -0.1383  0.5282 -0.2204
 3155TIP3    H131100   5.519   5.732   1.723 -1.1069 -0.0871  0.7168
 3155TIP3    H231101   5.622   5.662   1.636 -0.3733  1.9866 -0.1644
 3156TIP3   OH231102   3.689   6.506   0.059  0.5459 -0.8615 -1.1661
 3156TIP3    H131103   3.716   6.422   0.022  1.2852 -1.0773 -0.1841
 3156TIP3    H231104   3.716   6.571  -0.006  2.2982 -1.1790 -0.8195
 3157TIP3   OH231105   0.076   2.570   8.261  0.1630 -0.2711  0.4381
 3157TIP3    H131106  -0.013   2.597   8.284 -0.0914 -1.1079  0.4562
 3157TIP3    H231107   0.128   2.593   8.338  0.0762  0.7201  0.2184
 3158TIP3   OH231108   1.628   2.006   0.254 -0.2955  0.2846  0.5627
 3158TIP3    H131109   1.655   1.916   0.233  2.8652  0.7091  2.1011
 3158TIP3    H231110   1.640   2.054   0.172 -0.5847 -0.4260  0.0947
 3159TIP3   OH231111   3.293   6.098   2.192  0.5148  0.0806 -0.2244
 3159TIP3    H131112   3.303   6.174   2.249  1.4416 -0.7054  0.7065
 3159TIP3    H231113   3.211   6.058   2.219  0.1422  0.6210 -0.5568
 3160TIP3   OH231114   0.972   2.772   1.708  0.2721 -0.2996 -0.3984
 3160TIP3    H131115   0.945   2.744   1.620 -0.4369 -1.3911  0.1576
 3160TIP3    H231116   0.965   2.694   1.762  1.8538  0.0769  0.3988
 3161TIP3   OH231117   5.049   5.020   8.288  0.1353 -0.1883  0.3331
 3161TIP3    H131118   5.015   5.063   8.209  0.3490 -0.3359  0.1609
 3161TIP3    H231119   5.072   4.932   8.259  1.8079  0.2852  0.1578
 3162TIP3   OH231120   2.116   3.171   1.613 -0.3424 -0.0441 -0.0611
 3162TIP3    H131121   2.025   3.198   1.622 -0.3786 -0.5498  1.2449
 3162TIP3    H231122   2.165   3.253   1.612 -0.7059  0.1929  0.6671
 3163TIP3   OH231123   6.137   4.025   7.523  0.3315  0.1551  0.4486
 3163TIP3    H131124   6.073   3.979   7.469  1.5439 -0.4339 -0.5130
 3163TIP3    H231125   6.180   4.086   7.463  1.8885 -0.7002  0.6470
 3164TIP3   OH231126   3.257   5.782   1.600 -0.0634  0.3892  0.2065
 3164TIP3    H131127   3.350   5.781   1.622 -0.3472 -0.9120  1.4953
 3164TIP3    H231128   3.254   5.819   1.512  1.5397  1.7203  0.6695
 3165TIP3   OH231129   6.159   4.419   0.135  0.0074 -0.0536 -0.0742
 3165TIP3    H131130   6.103   4.345   0.158 -0.1437 -0.1759 -0.7983
 3165TIP3    H231131   6.148   4.428   0.040 -0.9689  1.6912  0.1613
 3166TIP3   OH231132   4.875   1.025   0.069 -0.2850  0.3664  0.5198
 3166TIP3    H131133   4.884   0.942   0.116  0.7959  0.1522 -0.0273
 3166TIP3    H231134   4.781   1.042   0.068 -0.4276 -0.2100  1.7247
 3167TIP3   OH231135   2.650   4.623   2.184  0.1355  0.0366 -0.6045
 3167TIP3    H131136   2.738   4.585   2.191  0.6058  1.2522  0.7254
 3167TIP3    H231137   2.665   4.717   2.189 -1.2879  0.2351  0.3837
 3168TIP3   OH231138   1.927   0.616   2.347  0.1107 -0.3847 -0.1600
 3168TIP3    H131139   1.880   0.697   2.331  0.1764  0.0207  1.5591
 3168TIP3    H231140   1.924   0.569   2.263  0.3737  1.5151 -1.2773
 3169TIP3   OH231141   1.129   6.820   1.651  0.0867 -0.4390 -0.1383
 3169TIP3    H131142   1.044   6.798   1.615 -0.1532 -1.2949  0.8837
 3169TIP3    H231143   1.131   6.915   1.655 -0.8871 -0.4225 -0.0191
 3170TIP3   OH231144   2.524   1.122   1.910 -0.1562 -0.1722 -0.4021
 3170TIP3    H131145   2.557   1.032   1.909  2.9071  0.8286 -2.6545
 3170TIP3    H231146   2.501   1.140   1.819 -0.0408  1.5389 -0.1285
 3171TIP3   OH231147   4.524   4.708   7.596 -0.2365 -0.9186  0.0806
 3171TIP3    H131148   4.437   4.675   7.572 -0.5175 -0.1757  0.0747
 3171TIP3    H231149   4.584   4.658   7.540 -0.7828 -0.2103 -1.1832
 3172TIP3   OH231150   2.376   6.937   8.444  0.1436  0.3816 -0.3213
 3172TIP3    H131151   2.308   6.901   8.501  0.5982  0.1856  0.1042
 3172TIP3    H231152   2.451   6.879   8.457  0.3217  0.4546 -0.9694
 3173TIP3   OH231153   4.008   1.889   7.846  0.2256  0.0003  0.0674
 3173TIP3    H131154   3.914   1.906   7.834  0.3379 -0.7590 -2.7755
 3173TIP3    H231155   4.030   1.826   7.776  2.4416 -1.5462  1.9943
 3174TIP3   OH231156   1.975   3.954   0.038 -0.3653 -0.6815 -0.0281
 3174TIP3    H131157   2.064   3.976   0.065  0.4030 -2.5162 -0.9356
 3174TIP3    H231158   1.933   4.039   0.025  0.5184  0.2753  2.5734
 3175TIP3   OH231159   2.185   4.076   7.900 -0.4515  0.5728 -0.1231
 3175TIP3    H131160   2.117   4.094   7.835  1.6972  1.4521 -2.3060
 3175TIP3    H231161   2.216   3.989   7.878  2.7760  2.1951 -2.9443
 3176TIP3   OH231162   1.832   5.573   7.966 -0.2457 -0.0429 -0.0394
 3176TIP3    H131163   1.881   5.653   7.946 -2.7702  1.8594  0.9283
 3176TIP3    H231164   1.767   5.567   7.895 -0.4491 -0.9405  0.2121
 3177TIP3   OH231165   3.879   2.561   7.244 -0.0766 -0.4116 -0.3199
 3177TIP3    H131166   3.962   2.515   7.231  0.4980 -0.4142  2.5969
 3177TIP3    H231167   3.883   2.636   7.186  1.6113 -0.8541 -0.8255
 3178TIP3   OH231168   3.940   6.819   2.099 -0.0784  0.1322  0.3767
 3178TIP3    H131169   3.915   6.829   2.191  0.8000  0.2214  0.6174
 3178TIP3    H231170   3.982   6.902   2.076 -1.1401  0.4756 -0.3988
 3179TIP3   OH231171   2.112   0.801   0.373 -0.3587  0.3517 -0.3592
 3179TIP3    H131172   2.138   0.863   0.304 -1.4453  1.0583 -0.1751
 3179TIP3    H231173   2.023   0.776   0.349  0.0240 -1.0810 -0.3577
 3180TIP3   OH231174   2.133   2.123   8.096  0.0658 -0.0080  0.1108
 3180TIP3    H131175   2.186   2.054   8.055  0.7155  0.4700  0.1269
 3180TIP3    H231176   2.053   2.127   8.044 -0.1255 -1.0005  0.3099
 3181TIP3   OH231177   4.064   0.037   2.392  0.0982 -0.5958 -0.1742
 3181TIP3    H131178   4.037   0.027   2.483  1.4099  0.6906  0.4005
 3181TIP3    H231179   4.088   0.129   2.384  1.5354 -1.0271 -1.3758
 3182TIP3   OH231180   1.751   6.115   1.460 -0.1749  0.4668  0.4000
 3182TIP3    H131181   1.667   6.120   1.415 -0.1023  0.9253  0.3117
 3182TIP3    H231182   1.793   6.199   1.442  0.9246 -0.3013 -0.7822
 3183TIP3   OH231183   6.272   1.230   7.396 -0.2024 -0.6159  0.0330
 3183TIP3    H131184   6.315   1.196   7.317  1.5103  0.4445  0.4430
 3183TIP3    H231185   6.211   1.296   7.363  1.6428  0.9709 -0.3785
 3184TIP3   OH231186   4.610   2.834   7.773 -0.0364 -0.1790  0.3900
 3184TIP3    H131187   4.530   2.858   7.820 -0.0502 -1.1787  0.9051
 3184TIP3    H231188   4.681   2.872   7.824 -0.1969  1.3491 -0.4702
 3185TIP3   OH231189   0.790   6.933   1.798  0.3638 -0.5493  0.7808
 3185TIP3    H131190   0.847   6.960   1.870  0.1965  0.7439  0.4621
 3185TIP3    H231191   0.716   6.890   1.840  0.6321 -0.4673  1.3369
 3186TIP3   OH231192   2.046   2.705   2.107 -0.2283 -0.2655 -0.0494
 3186TIP3    H131193   1.984   2.726   2.176  1.0860  1.9137  0.5571
 3186TIP3    H231194   2.130   2.737   2.140  1.0333 -2.0165 -1.3503
 3187TIP3   OH231195   5.896   4.735   1.176 -0.3496  0.0493 -0.3191
 3187TIP3    H131196   5.976   4.777   1.208 -1.4267  1.1371  1.1021
 3187TIP3    H231197   5.828   4.802   1.188 -1.9229 -1.6655  0.9343
 3188TIP3   OH231198   4.164   4.781   5.987 -0.8678 -0.1250  0.3099
 3188TIP3    H131199   4.193   4.869   6.012  2.4343 -0.5637 -1.3883
 3188TIP3    H231200   4.205   4.723   6.051 -0.4633 -0.6052 -0.3738
 3189TIP3   OH231201   0.178   1.976   1.293 -0.6670  0.1351 -0.2623
 3189TIP3    H131202   0.261   1.934   1.316 -0.4537  1.9299  2.7316
 3189TIP3    H231203   0.117   1.903   1.283  0.6491 -1.0984  0.2262
 3190TIP3   OH231204   5.379   4.371   6.966  0.0670 -0.0991 -0.2783
 3190TIP3    H131205   5.455   4.385   7.022 -0.4547 -0.9647  0.6896
 3190TIP3    H231206   5.407   4.306   6.902  0.2947 -0.0358 -0.2417
 3191TIP3   OH231207   5.712   5.881   0.338  0.4123 -0.2990  0.2615
 3191TIP3    H131208   5.788   5.855   0.391 -0.6310 -1.0082  1.4615
 3191TIP3    H231209   5.653   5.923   0.400  0.7374  2.3551 -1.0832
 3192TIP3   OH231210   3.972   2.780   8.259 -0.8089  0.3314  0.0149
 3192TIP3    H131211   3.929   2.865   8.247  0.2835  0.9645  0.3927
 3192TIP3    H231212   3.966   2.763   8.353  0.6523  0.9488  0.2503
 3193TIP3   OH231213   6.279   3.473   2.554  0.2699 -0.1269 -0.1109
 3193TIP3    H131214   6.351   3.495   2.613  1.4051  1.6099 -2.0335
 3193TIP3    H231215   6.307   3.390   2.514  0.8165  0.1252 -0.2621
 3194TIP3   OH231216   4.182   3.348   7.683 -0.1216  0.0240 -0.0649
 3194TIP3    H131217   4.277   3.356   7.676 -0.1613  1.3714  0.6166
 3194TIP3    H231218   4.161   3.382   7.770 -1.2984  0.4939 -0.5062
 3195TIP3   OH231219   2.853   0.516   0.258 -0.0829 -0.1941 -0.6406
 3195TIP3    H131220   2.843   0.460   0.181  0.0756 -2.1862  0.7367
 3195TIP3    H231221   2.776   0.499   0.311  0.8221 -0.4634  0.6298
 3196TIP3   OH231222   1.326   0.457   7.335  0.4168  0.2913  0.1626
 3196TIP3    H131223   1.267   0.407   7.278 -0.4880  2.1388 -0.6148
 3196TIP3    H231224   1.413   0.445   7.296  0.1133 -0.1174 -0.4025
 3197TIP3   OH231225   0.019   1.203   0.125 -0.6570 -0.0284  0.1710
 3197TIP3    H131226   0.099   1.150   0.130  0.7605  2.0471  0.5393
 3197TIP3    H231227  -0.029   1.166   0.051  1.8884  0.2736 -1.7583
 3198TIP3   OH231228   5.248   1.676   2.663  0.3925 -0.7360  0.3448
 3198TIP3    H131229   5.310   1.677   2.590  1.2109 -0.3555  1.0237
 3198TIP3    H231230   5.244   1.768   2.691 -0.9281 -0.6546 -0.0468
 3199TIP3   OH231231   3.225   3.469   0.232 -0.1986  0.4942  0.4118
 3199TIP3    H131232   3.154   3.511   0.281 -0.4940  2.8584 -1.8372
 3199TIP3    H231233   3.289   3.539   0.217  1.1870 -0.8474 -0.1691
 3200TIP3   OH231234   0.480   0.561   0.858 -0.1096  0.0518  0.5257
 3200TIP3    H131235   0.456   0.653   0.847  0.2812 -0.0112 -1.0897
 3200TIP3    H231236   0.531   0.540   0.780  1.4334 -1.0272  1.7514
 3201TIP3   OH231237   2.237   6.076   8.444  0.0719 -0.0809  0.2740
 3201TIP3    H131238   2.277   6.020   8.510  2.9191 -0.3627 -1.4974
 3201TIP3    H231239   2.288   6.059   8.364 -1.6488  1.9681 -1.3938
 3202TIP3   OH231240   2.697   5.836   6.325  0.0207  0.2124  0.2295
 3202TIP3    H131241   2.711   5.770   6.393  0.7225  0.9132  0.7955
 3202TIP3    H231242   2.785   5.858   6.295 -0.2983 -0.3883 -1.2324
 3203TIP3   OH231243   1.983   3.336   0.590 -0.0043 -0.0451 -0.1581
 3203TIP3    H131244   1.995   3.241   0.584 -0.0316 -0.0077 -0.8704
 3203TIP3    H231245   1.897   3.348   0.630  0.8734 -0.3114  1.9893
 3204TIP3   OH231246   4.727   2.364   7.764  0.0943 -0.0710  0.0059
 3204TIP3    H131247   4.769   2.449   7.750 -0.7240  0.4130  0.4279
 3204TIP3    H231248   4.657   2.381   7.827  0.6068 -1.2713  0.9454
 3205TIP3   OH231249   1.339   3.453   1.868  0.1458  0.1130  0.1011
 3205TIP3    H131250   1.264   3.511   1.874  0.1498  0.1186  0.0963
 3205TIP3    H231251   1.409   3.508   1.834  0.5326  0.4761  1.3963
 3206TIP3   OH231252   2.705   5.521   2.471 -0.0812 -0.4657  0.0708
 3206TIP3    H131253   2.641   5.484   2.532  0.4614 -1.0353  0.3080
 3206TIP3    H231254   2.789   5.508   2.515  0.1831  0.4742 -0.1391
 3207TIP3   OH231255   3.841   1.744   2.862  0.0568  0.0267  0.0288
 3207TIP3    H131256   3.908   1.705   2.807  1.2334  1.1576  0.5930
 3207TIP3    H231257   3.869   1.835   2.874 -0.7721  0.1350  1.5073
 3208TIP3   OH231258   0.050   1.782   3.351 -0.5901 -0.5468 -0.2014
 3208TIP3    H131259   0.036   1.844   3.422  1.0214  0.2395 -0.5267
 3208TIP3    H231260   0.130   1.735   3.375 -0.7188 -1.1399 -0.8859
 3209TIP3   OH231261   3.106   1.218   0.512 -0.1611 -0.1451 -0.0594
 3209TIP3    H131262   3.044   1.173   0.454 -1.6329 -1.5443  2.4301
 3209TIP3    H231263   3.071   1.306   0.521  0.4870  0.3359 -1.7685
 3210TIP3   OH231264   3.617   6.955   3.914 -0.4001 -0.2001 -0.1791
 3210TIP3    H131265   3.554   7.006   3.861 -2.6747  0.0875  2.5508
 3210TIP3    H231266   3.588   6.864   3.905 -0.3118 -0.2413 -0.0547
 3211TIP3   OH231267   2.240   4.865   6.854 -0.6943 -0.2881 -0.1584
 3211TIP3    H131268   2.322   4.912   6.868 -0.8275  0.0400 -0.4443
 3211TIP3    H231269   2.221   4.879   6.761 -2.0260  1.2249  0.2825
 3212TIP3   OH231270   4.661   1.210   7.993  0.1997  0.1741  0.0899
 3212TIP3    H131271   4.733   1.265   7.963 -0.7165  1.7291  0.6742
 3212TIP3    H231272   4.588   1.230   7.935  0.1863 -1.3675 -0.4762
 3213TIP3   OH231273   6.311   2.434   1.898 -0.1172 -0.0156 -0.0759
 3213TIP3    H131274   6.397   2.412   1.864 -0.2551 -0.0080 -0.4292
 3213TIP3    H231275   6.321   2.521   1.937 -0.0038  0.0475 -0.2497
 3214TIP3   OH231276   2.887   3.243   8.236 -0.0241 -0.4202 -0.3053
 3214TIP3    H131277   2.968   3.285   8.208  0.4882  0.4772  2.2558
 3214TIP3    H231278   2.838   3.311   8.283 -0.8708 -1.6855  0.7589
 3215TIP3   OH231279   0.016   6.545   0.383 -0.5106  0.0172  0.0039
 3215TIP3    H131280   0.104   6.511   0.399  0.0739  0.6478 -1.6316
 3215TIP3    H231281  -0.043   6.473   0.406  0.4955 -0.7526  0.2049
 3216TIP3   OH231282   3.335   3.537   8.102 -0.0699  0.3576 -0.6134
 3216TIP3    H131283   3.361   3.524   8.193 -0.3977  0.1495 -0.5480
 3216TIP3    H231284   3.264   3.475   8.088 -2.2636  2.5769 -0.0529
 3217TIP3   OH231285   4.696   5.739   0.232  0.2708 -0.2448 -0.5842
 3217TIP3    H131286   4.747   5.664   0.201 -0.5067 -0.2705 -1.8461
 3217TIP3    H231287   4.670   5.786   0.153 -3.1080 -1.1828 -0.2130
 3218TIP3   OH231288   1.825   3.619   7.951  0.1700 -0.0934 -0.5714
 3218TIP3    H131289   1.778   3.664   8.021  1.3138 -1.1237  0.9234
 3218TIP3    H231290   1.808   3.671   7.873 -1.7475  0.6858  0.3125
 3219TIP3   OH231291   3.621   6.287   1.079 -0.2621  0.1369 -0.2103
 3219TIP3    H131292   3.538   6.239   1.088  0.1342 -0.5021  0.0467
 3219TIP3    H231293   3.626   6.308   0.986 -1.0625  0.8139 -0.1167
 3220TIP3   OH231294   5.166   4.048   2.696  0.1009 -0.5891  0.2079
 3220TIP3    H131295   5.240   4.060   2.636 -1.1890  2.2195 -1.0235
 3220TIP3    H231296   5.170   4.124   2.754 -0.4113 -1.7256  1.8098
 3221TIP3   OH231297   3.032   5.702   8.432  0.0839 -0.2952  0.2223
 3221TIP3    H131298   2.937   5.693   8.438  0.0500 -0.3704 -0.3441
 3221TIP3    H231299   3.064   5.613   8.417  0.2803 -0.3231  0.7792
 3222TIP3   OH231300   3.278   6.522   1.819 -0.1503  0.3160  0.1342
 3222TIP3    H131301   3.278   6.482   1.732  2.0948  0.8843 -0.1803
 3222TIP3    H231302   3.332   6.464   1.872 -3.2713 -1.2983  1.8998
 3223TIP3   OH231303   4.481   0.034   7.377 -0.7899  0.0697  0.5953
 3223TIP3    H131304   4.423   0.035   7.454 -1.0136  1.7295  0.4387
 3223TIP3    H231305   4.506   0.125   7.364 -1.0993 -0.0886 -1.5602
 3224TIP3   OH231306   4.373   6.405   1.724 -0.1870 -0.0352 -0.1235
 3224TIP3    H131307   4.394   6.350   1.799  0.4489 -1.2038 -1.1162
 3224TIP3    H231308   4.278   6.403   1.717 -0.1493 -1.2955 -0.3450
 3225TIP3   OH231309   5.209   1.324   8.478  0.4961  0.0847 -0.0931
 3225TIP3    H131310   5.135   1.385   8.484  0.4677 -0.0136  0.6992
 3225TIP3    H231311   5.262   1.358   8.405  1.0111  1.6719  0.9587
 3226TIP3   OH231312   5.760   4.074   6.733 -0.0096 -0.3093 -0.3111
 3226TIP3    H131313   5.818   4.042   6.803  1.6813  0.5763 -1.2283
 3226TIP3    H231314   5.814   4.070   6.654 -1.5197 -0.2646 -1.3794
 3227TIP3   OH231315   1.115   2.381   8.468  0.2441 -0.4248 -0.6137
 3227TIP3    H131316   1.033   2.340   8.441  0.4323 -1.4508  0.3068
 3227TIP3    H231317   1.095   2.420   8.553  1.0648 -1.9250  0.3022
 3228TIP3   OH231318   2.750   0.168   1.296 -0.5330  0.1904  0.0277
 3228TIP3    H131319   2.757   0.081   1.256  0.2270  0.8473 -1.3261
 3228TIP3    H231320   2.697   0.219   1.235 -0.4746  0.8478  0.5118
 3229TIP3   OH231321   3.824   2.993   8.181 -0.2264  0.6254  0.6280
 3229TIP3    H131322   3.737   2.953   8.185 -0.0596  0.1994  0.0736
 3229TIP3    H231323   3.817   3.070   8.237 -0.5643 -0.1536  1.6883
 3230TIP3   OH231324   1.140   5.421   7.365 -0.1560  0.3255  0.4016
 3230TIP3    H131325   1.108   5.331   7.361  0.1783  0.2169  0.1744
 3230TIP3    H231326   1.155   5.437   7.459 -0.0170  0.0754  0.4238
 3231TIP3   OH231327   4.578   4.732   8.276 -0.3377 -0.4292  0.2747
 3231TIP3    H131328   4.619   4.808   8.236 -0.5790  1.4413  3.2385
 3231TIP3    H231329   4.490   4.730   8.239  0.1529 -0.2281 -0.9506
 3232TIP3   OH231330   4.811   0.252   0.147 -0.3505 -0.5870  0.4961
 3232TIP3    H131331   4.904   0.236   0.164 -0.5382 -1.4354  0.7541
 3232TIP3    H231332   4.791   0.333   0.195  0.7038  0.7058 -1.1272
 3233TIP3   OH231333   5.601   1.813   7.614  0.2397 -0.1531  0.0537
 3233TIP3    H131334   5.695   1.798   7.607  0.2648  0.3567 -0.9694
 3233TIP3    H231335   5.577   1.778   7.700  1.4638  0.2360  0.5780
 3234TIP3   OH231336   0.561   1.770   1.706 -0.0956  0.7687 -0.0172
 3234TIP3    H131337   0.535   1.800   1.794 -1.3927  0.3241 -0.2238
 3234TIP3    H231338   0.478   1.746   1.664  0.5864  0.2654 -1.1049
 3235TIP3   OH231339   6.838   0.076   0.155  0.1449  0.2239 -0.3136
 3235TIP3    H131340   6.861   0.005   0.216 -0.4227  1.3952  1.3246
 3235TIP3    H231341   6.835   0.033   0.070 -0.5358 -1.8131  0.6562
 3236TIP3   OH231342   0.734   3.635   7.340 -0.1352  0.2795 -0.1788
 3236TIP3    H131343   0.672   3.688   7.390 -0.7581 -1.2779  0.7924
 3236TIP3    H231344   0.681   3.567   7.300  0.7030  0.0604 -0.9608
 3237TIP3   OH231345   5.962   3.260   8.134 -0.3505  0.6351  0.0093
 3237TIP3    H131346   6.007   3.292   8.212 -0.2185  0.0746  0.1668
 3237TIP3    H231347   6.028   3.261   8.065 -0.5669  1.4965 -0.1963
 3238TIP3   OH231348   4.502   4.234   7.266 -0.0781 -0.6264  0.4303
 3238TIP3    H131349   4.496   4.276   7.180  2.2162 -0.7366  0.1635
 3238TIP3    H231350   4.494   4.140   7.247  0.7173 -0.6709  0.2776
 3239TIP3   OH231351   0.594   3.209   1.158  0.5736  0.6327 -0.1879
 3239TIP3    H131352   0.515   3.261   1.174  0.7581  1.3368 -1.3584
 3239TIP3    H231353   0.582   3.175   1.069  1.3496  0.3143 -0.1778
 3240TIP3   OH231354   0.490   6.774   1.206  0.9689  0.2455 -0.2699
 3240TIP3    H131355   0.465   6.732   1.124  0.6455 -0.1476  0.0285
 3240TIP3    H231356   0.585   6.776   1.204  1.0716 -1.7468  0.3134
 3241TIP3   OH231357   1.441   1.641   0.497 -0.3413 -0.0442 -0.4101
 3241TIP3    H131358   1.364   1.637   0.441  0.1754 -0.8628 -1.0818
 3241TIP3    H231359   1.486   1.558   0.483 -0.4903 -0.5210  1.6780
 3242TIP3   OH231360   1.023   1.260   1.645 -0.0501 -0.6392  0.5383
 3242TIP3    H131361   1.060   1.272   1.558 -0.9707 -1.7310 -0.0219
 3242TIP3    H231362   1.030   1.347   1.686  0.7850 -0.2196 -0.4509
 3243TIP3   OH231363   4.791   3.812   6.280 -0.0776 -0.2802 -0.0610
 3243TIP3    H131364   4.865   3.867   6.307  0.2306 -0.8518  0.2870
 3243TIP3    H231365   4.750   3.860   6.209 -0.0634  0.6033  0.5069
 3244TIP3   OH231366   0.684   1.146   1.319 -0.0159  0.9073  0.2227
 3244TIP3    H131367   0.611   1.207   1.311 -0.1677  0.5682 -1.2957
 3244TIP3    H231368   0.757   1.191   1.276  0.3439  0.7497  0.6680
 3245TIP3   OH231369   0.146   0.321   0.443 -0.3794  0.0279  0.4415
 3245TIP3    H131370   0.178   0.397   0.493 -0.8270 -0.2292  1.1334
 3245TIP3    H231371   0.121   0.358   0.358  0.4385  0.4668  0.3818
 3246TIP3   OH231372   1.118   1.530   2.043 -0.5444 -0.5669 -0.0887
 3246TIP3    H131373   1.180   1.463   2.072  0.6612  0.7557  0.4630
 3246TIP3    H231374   1.036   1.507   2.086  0.3461 -0.6039  1.6464
 3247TIP3   OH231375   1.769   2.506   0.243 -0.1192 -0.0510 -0.0096
 3247TIP3    H131376   1.776   2.416   0.274 -1.0180  0.3007  1.3348
 3247TIP3    H231377   1.705   2.502   0.171 -0.9094 -0.3555  0.6992
 3248TIP3   OH231378   1.779   1.244   7.806 -0.4013 -0.2004 -0.3425
 3248TIP3    H131379   1.796   1.338   7.806  0.1397 -0.2906  0.4765
 3248TIP3    H231380   1.859   1.204   7.771 -1.0691 -0.3062 -1.8431
 3249TIP3   OH231381   5.209   2.891   7.666 -0.6772 -0.3198  0.2805
 3249TIP3    H131382   5.246   2.860   7.584 -1.5366  1.4297 -0.8158
 3249TIP3    H231383   5.154   2.818   7.696 -0.1413 -1.0862 -0.5452
 3250TIP3   OH231384   1.149   6.037   7.612  0.1475  0.3807  0.2829
 3250TIP3    H131385   1.067   6.016   7.567  0.5206  1.8856 -1.1770
 3250TIP3    H231386   1.214   5.978   7.574 -0.1234 -0.4877  1.1100
 3251TIP3   OH231387   0.746   0.622   8.399 -0.0096  0.1988 -0.3914
 3251TIP3    H131388   0.795   0.637   8.318 -1.0162 -1.1439 -1.3079
 3251TIP3    H231389   0.800   0.561   8.449  0.1164  0.1656 -0.5665
 3252TIP3   OH231390   5.557   5.030   0.655 -0.1073 -0.1187 -0.3490
 3252TIP3    H131391   5.532   5.040   0.747  0.8181  0.1130 -0.1154
 3252TIP3    H231392   5.641   4.983   0.658 -1.6418 -3.2289 -1.1857
 3253TIP3   OH231393   2.945   1.097   2.774  0.2602 -0.1594  0.2112
 3253TIP3    H131394   2.954   1.045   2.854  0.1547 -1.1056 -0.3802
 3253TIP3    H231395   3.000   1.052   2.710 -1.2884 -0.6221 -0.8370
 3254TIP3   OH231396   0.655   6.311   0.482  0.7226  0.2874 -0.2756
 3254TIP3    H131397   0.665   6.403   0.507 -2.6398  0.1617  2.3517
 3254TIP3    H231398   0.686   6.262   0.558 -2.3090 -0.4248  0.6558
 3255TIP3   OH231399   6.067   1.838   7.506 -0.1679  0.6242  0.1103
 3255TIP3    H131400   6.015   1.772   7.460 -0.7698  1.1596 -0.0061
 3255TIP3    H231401   6.149   1.843   7.457 -0.2832  0.2594 -0.1249
 3256TIP3   OH231402   1.097   1.508   1.723  0.0161 -0.6544 -0.7011
 3256TIP3    H131403   1.100   1.589   1.673 -2.3257 -0.1357 -0.1246
 3256TIP3    H231404   1.153   1.524   1.799 -0.5344  0.5049 -0.5172
 3257TIP3   OH231405   3.793   2.661   7.503  1.1037  0.2269 -0.4958
 3257TIP3    H131406   3.762   2.743   7.464 -2.0365 -1.7104 -2.5676
 3257TIP3    H231407   3.819   2.608   7.427  0.5458 -1.5926  0.5351
 3258TIP3   OH231408   2.144   2.744   2.392  0.0057  0.2862 -0.1334
 3258TIP3    H131409   2.082   2.677   2.365 -0.2780 -0.2291  1.6845
 3258TIP3    H231410   2.204   2.752   2.318 -2.6852  1.4761 -2.3633
 3259TIP3   OH231411   0.725   6.290   7.411 -0.3466  0.0666  0.1666
 3259TIP3    H131412   0.735   6.370   7.463 -0.1376  0.5453 -0.5970
 3259TIP3    H231413   0.701   6.321   7.324  1.5380 -0.5910 -0.6332
 3260TIP3   OH231414   6.341   1.680   1.071 -0.5504  0.3970 -0.3151
 3260TIP3    H131415   6.395   1.629   1.131 -0.0251  0.6414 -0.5767
 3260TIP3    H231416   6.279   1.617   1.035  0.5703 -0.2257 -1.2007
 3261TIP3   OH231417   0.107   6.065   1.614  0.0329  0.1886 -0.0043
 3261TIP3    H131418   0.068   6.126   1.678  3.2985 -0.2505  2.6946
 3261TIP3    H231419   0.092   5.978   1.652 -0.4483 -0.3463 -1.3640
 3262TIP3   OH231420   3.733   1.049   0.502 -0.2700 -0.3311 -0.1652
 3262TIP3    H131421   3.694   1.074   0.585  2.1099 -1.7854  1.5114
 3262TIP3    H231422   3.697   0.962   0.483  0.0988 -0.5135 -0.0301
 3263TIP3   OH231423   3.137   2.670   7.440 -0.2346 -0.6960 -0.1831
 3263TIP3    H131424   3.082   2.592   7.447 -1.6351  0.1612 -1.1217
 3263TIP3    H231425   3.220   2.638   7.404  0.2613 -2.1535  2.0625
 3264TIP3   OH231426   4.648   2.870   1.757 -0.5049 -0.1465 -0.2072
 3264TIP3    H131427   4.646   2.886   1.663 -0.4287  2.0199  0.1113
 3264TIP3    H231428   4.670   2.954   1.796  1.8263 -1.4944  1.6623
 3265TIP3   OH231429   6.149   2.512   6.899 -0.3703 -0.7110 -0.4237
 3265TIP3    H131430   6.124   2.535   6.809 -1.6601 -0.4297 -0.0032
 3265TIP3    H231431   6.067   2.500   6.945  0.2745 -0.6168  0.7952
 3266TIP3   OH231432   1.316   0.996   8.277  0.2974 -0.3063  0.2382
 3266TIP3    H131433   1.400   0.951   8.270  0.5680  0.2321 -0.0561
 3266TIP3    H231434   1.264   0.962   8.204  0.3114 -0.5318  0.3336
 3267TIP3   OH231435   4.076   0.647   6.930 -0.4498  0.3290  0.2367
 3267TIP3    H131436   4.035   0.689   6.855 -0.4214  0.0590  0.0695
 3267TIP3    H231437   4.004   0.633   6.991 -0.2548  1.7646  0.8340
 3268TIP3   OH231438   3.812   2.145   0.613  0.3531  0.7359  0.4614
 3268TIP3    H131439   3.884   2.194   0.574 -0.0989  0.7217 -0.3960
 3268TIP3    H231440   3.853   2.065   0.646  0.8532  1.0687  0.6563
 3269TIP3   OH231441   3.218   6.551   7.075 -0.0268 -0.7511  0.0815
 3269TIP3    H131442   3.156   6.491   7.033 -1.5222  0.1966  0.8385
 3269TIP3    H231443   3.253   6.500   7.148 -0.9097 -0.9038  0.4207
 3270TIP3   OH231444   6.611   0.240   0.292 -0.7320 -0.1998  0.1259
 3270TIP3    H131445   6.523   0.201   0.288 -0.6894 -0.3926  0.8737
 3270TIP3    H231446   6.669   0.167   0.271 -0.7643 -0.0241 -0.5610
 3271TIP3   OH231447   0.794   1.935   1.117  0.4126 -0.5992 -0.3507
 3271TIP3    H131448   0.745   1.857   1.143 -1.0989 -0.7600 -3.2849
 3271TIP3    H231449   0.784   1.995   1.191 -0.3496 -2.3146  1.0069
 3272TIP3   OH231450   3.002   5.316   8.114 -0.1772  0.2698 -0.3244
 3272TIP3    H131451   2.935   5.353   8.172 -1.4303 -0.0247 -1.5312
 3272TIP3    H231452   2.980   5.349   8.027  0.7198 -0.5639 -0.8945
 3273TIP3   OH231453   5.527   5.563   0.988  0.7502 -0.1958 -0.1842
 3273TIP3    H131454   5.490   5.643   1.028 -1.2630 -0.8984 -0.5253
 3273TIP3    H231455   5.595   5.596   0.928  0.7662  1.1725  0.5310
 3274TIP3   OH231456   5.866   2.710   0.399  0.0207  0.9706 -0.0919
 3274TIP3    H131457   5.875   2.625   0.357  0.0868  1.1612 -0.4603
 3274TIP3    H231458   5.839   2.689   0.489 -1.6603  0.5972 -0.6407
 3275TIP3   OH231459   1.046   3.846   1.302 -0.2959 -0.1226 -0.4724
 3275TIP3    H131460   1.033   3.914   1.368 -0.1534 -0.1821 -0.3817
 3275TIP3    H231461   1.094   3.777   1.348 -0.3670 -0.2474 -0.5864
 3276TIP3   OH231462   0.342   1.199   2.139 -0.3062 -1.0075  0.3840
 3276TIP3    H131463   0.336   1.110   2.175  0.1078 -0.1716  2.6806
 3276TIP3    H231464   0.418   1.237   2.184  0.8067 -0.1221 -2.0841
 3277TIP3   OH231465   3.018   3.937   0.533  0.4404 -0.3739  0.6536
 3277TIP3    H131466   3.032   3.856   0.581  1.9571 -1.3543 -1.3088
 3277TIP3    H231467   2.923   3.940   0.518  0.2347 -1.1799  1.7003
 3278TIP3   OH231468   0.381   0.962   0.522  0.1388 -0.7472  0.1794
 3278TIP3    H131469   0.312   1.021   0.492  1.6853 -0.2028 -2.6890
 3278TIP3    H231470   0.336   0.880   0.542 -1.3770 -0.3666 -1.4760
 3279TIP3   OH231471   0.267   3.701   8.149  0.4152  0.2254 -0.0226
 3279TIP3    H131472   0.209   3.633   8.115  0.3966  0.6715 -0.9355
 3279TIP3    H231473   0.239   3.781   8.103  0.2780  0.9007  1.2111
 3280TIP3   OH231474   2.722   1.939   1.004 -0.0511  0.2847  0.0133
 3280TIP3    H131475   2.680   1.899   1.080  0.7251 -0.2710  0.1557
 3280TIP3    H231476   2.815   1.920   1.015  0.2995  1.7968 -0.1179
 3281TIP3   OH231477   4.507   0.090   0.665 -0.9715 -0.2046  0.5330
 3281TIP3    H131478   4.513   0.181   0.638 -2.4491 -0.7438 -1.8995
 3281TIP3    H231479   4.522   0.040   0.584  1.1801 -2.2079  2.0377
 3282TIP3   OH231480   0.550   4.445   0.305  0.2938  0.2739  0.0649
 3282TIP3    H131481   0.475   4.481   0.259  1.4619  1.3178 -1.1140
 3282TIP3    H231482   0.528   4.453   0.398 -0.6639  1.4386 -0.2413
 3283TIP3   OH231483   4.178   5.898   2.925  0.3729 -0.2503 -0.6387
 3283TIP3    H131484   4.119   5.866   2.857  1.2835 -0.2978 -1.4197
 3283TIP3    H231485   4.217   5.819   2.963  0.0131 -0.2145 -0.1790
 3284TIP3   OH231486   3.292   2.182   0.452  0.7936  0.2917  0.3069
 3284TIP3    H131487   3.323   2.235   0.526  1.7362 -0.6686  0.6308
 3284TIP3    H231488   3.288   2.093   0.487 -0.5676  0.1017 -0.2838
 3285TIP3   OH231489   3.447   6.581   2.284 -0.2513  0.4014  0.1218
 3285TIP3    H131490   3.474   6.608   2.196  2.2054  0.8610  0.9408
 3285TIP3    H231491   3.529   6.555   2.327 -1.4914 -0.5589  2.0370
 3286TIP3   OH231492   1.313   3.983   7.482 -0.0735  0.2819 -0.2101
 3286TIP3    H131493   1.245   4.047   7.465  1.2547  1.3177 -2.0105
 3286TIP3    H231494   1.269   3.914   7.532 -2.0924  1.4872 -0.2033
 3287TIP3   OH231495   6.034   4.802   0.849  0.8899 -0.5150  0.0938
 3287TIP3    H131496   6.102   4.782   0.913 -0.7121 -0.3998  1.9046
 3287TIP3    H231497   6.021   4.721   0.800  1.3478 -0.9371  0.6721
 3288TIP3   OH231498   5.584   1.533   0.913 -0.6668 -0.0386 -0.4164
 3288TIP3    H131499   5.660   1.574   0.954 -0.8806 -2.7337  3.1081
 3288TIP3    H231500   5.622   1.467   0.854 -0.2187 -0.9091  0.8142
 3289TIP3   OH231501   6.915   2.472   0.983  0.2358  0.3336 -0.6808
 3289TIP3    H131502   6.834   2.424   1.001  0.6327  0.0633  0.4682
 3289TIP3    H231503   6.947   2.435   0.900 -1.4104  1.2780 -1.7881
 3290TIP3   OH231504   5.265   5.598   8.269  0.3254  0.4074 -0.9588
 3290TIP3    H131505   5.332   5.666   8.275  3.2869 -2.1868 -1.9149
 3290TIP3    H231506   5.226   5.610   8.183  2.4458 -0.3823 -2.0908
 3291TIP3   OH231507   6.106   6.884   2.778 -0.2849  0.1195 -0.3294
 3291TIP3    H131508   6.036   6.908   2.839 -1.1852  0.0870 -1.3241
 3291TIP3    H231509   6.073   6.908   2.692  1.3770  1.1158 -0.7459
 3292TIP3   OH231510   1.051   4.328   1.399 -0.1199  0.2547 -0.2301
 3292TIP3    H131511   1.094   4.407   1.366 -1.1332  1.0497  0.3287
 3292TIP3    H231512   1.120   4.282   1.447  0.3191  1.1241 -0.0009
 3293TIP3   OH231513   6.726   3.574   8.124  0.3770  0.0672  0.5044
 3293TIP3    H131514   6.680   3.492   8.107  1.4200 -0.2049 -1.2952
 3293TIP3    H231515   6.793   3.551   8.189  0.4394 -0.4413  0.2689
 3294TIP3   OH231516   1.861   1.979   7.476 -0.6521 -0.2545 -0.2765
 3294TIP3    H131517   1.778   1.990   7.522  1.0750  1.8424  2.6615
 3294TIP3    H231518   1.860   2.046   7.408 -0.6564  1.0944  1.0011
 3295TIP3   OH231519   0.037   0.299   8.222  0.2459 -0.1615  0.1971
 3295TIP3    H131520   0.012   0.267   8.135  1.5103  2.2247 -1.1581
 3295TIP3    H231521   0.092   0.230   8.259 -0.7705 -1.4534 -0.6494
 3296TIP3   OH231522   4.709   5.767   7.187  0.4443  0.0495 -0.4253
 3296TIP3    H131523   4.715   5.863   7.190 -0.0145  0.0741 -0.1832
 3296TIP3    H231524   4.787   5.737   7.233  0.1225  0.3222  0.3136
 3297TIP3   OH231525   6.946   1.440   1.160  0.3406 -0.6896  0.5595
 3297TIP3    H131526   7.032   1.446   1.117 -0.0847 -1.5783 -0.4774
 3297TIP3    H231527   6.885   1.426   1.088 -0.5202 -1.3494  1.3956
 3298TIP3   OH231528   5.870   5.667   8.188 -0.0322  0.7583  0.1606
 3298TIP3    H131529   5.852   5.715   8.107  2.5430  1.1544 -0.2597
 3298TIP3    H231530   5.894   5.734   8.251  1.9656  0.2348  0.0376
 3299TIP3   OH231531   4.625   1.013   7.441  0.4213  0.0300  0.0377
 3299TIP3    H131532   4.540   1.035   7.478 -0.1335  0.1034 -1.2284
 3299TIP3    H231533   4.608   0.938   7.384  1.0697  0.4515 -0.7289
 3300TIP3   OH231534   0.535   0.872   0.306  0.2143  0.5306 -0.4062
 3300TIP3    H131535   0.519   0.926   0.229  0.9523  1.6632  0.2016
 3300TIP3    H231536   0.462   0.894   0.365  1.1082  1.7600  0.2898
 3301TIP3   OH231537   5.859   5.235   2.618  0.0323  0.4360 -0.3546
 3301TIP3    H131538   5.924   5.190   2.563  0.2424  1.1177 -0.6811
 3301TIP3    H231539   5.907   5.311   2.653 -0.6341  1.0586 -0.7546
 3302TIP3   OH231540   3.276   1.710   1.856 -0.0483  0.0452 -0.5372
 3302TIP3    H131541   3.250   1.780   1.916 -0.6479 -0.1863 -0.5240
 3302TIP3    H231542   3.320   1.646   1.911  1.8123  1.0616 -0.7643
 3303TIP3   OH231543   1.052   6.665   6.923  0.4461  0.2766  0.2392
 3303TIP3    H131544   1.054   6.699   6.834  1.8899  2.0867  0.9019
 3303TIP3    H231545   1.026   6.574   6.914 -0.2046  0.6302 -1.9482
 3304TIP3   OH231546   4.207   0.801   8.348 -0.3126  0.3047 -0.5147
 3304TIP3    H131547   4.145   0.857   8.395 -1.3556  0.4599 -1.9851
 3304TIP3    H231548   4.238   0.855   8.275  1.5970  0.2228  0.1931
 3305TIP3   OH231549   1.646   2.269   1.592 -0.5161 -0.2634 -0.5891
 3305TIP3    H131550   1.686   2.183   1.607 -1.7453 -1.2618 -2.6357
 3305TIP3    H231551   1.642   2.278   1.497 -3.6044  0.4940 -0.4879
 3306TIP3   OH231552   3.401   1.307   6.850 -0.4817 -0.5221  0.5722
 3306TIP3    H131553   3.428   1.241   6.787 -1.7753 -0.0435 -0.5370
 3306TIP3    H231554   3.427   1.390   6.810 -0.4972 -0.2626  1.0931
 3307TIP3   OH231555   3.615   5.843   1.894  0.4804 -0.1271  0.0954
 3307TIP3    H131556   3.695   5.857   1.845  0.6907  0.7178  0.6543
 3307TIP3    H231557   3.637   5.776   1.958  0.2424 -1.1340 -0.8645
 3308TIP3   OH231558   1.354   0.181   1.108  0.0883 -0.0002  0.5859
 3308TIP3    H131559   1.338   0.275   1.122  0.9009  0.0835  0.9710
 3308TIP3    H231560   1.349   0.170   1.013 -0.1256  0.4081  0.5454
 3309TIP3   OH231561   5.116   2.589   8.149 -0.5606  0.2236  0.2404
 3309TIP3    H131562   5.084   2.648   8.081 -0.1141  1.2096  0.8598
 3309TIP3    H231563   5.143   2.647   8.221  2.6255 -0.4919 -0.2251
 3310TIP3   OH231564   2.001   3.018   2.213 -0.1469 -0.0067 -1.0513
 3310TIP3    H131565   1.960   2.938   2.247  1.2332 -0.5513 -0.6083
 3310TIP3    H231566   1.988   3.013   2.118  0.9110 -1.3541 -1.1557
 3311TIP3   OH231567   5.197   1.565   0.488  0.3602  0.1263 -0.0751
 3311TIP3    H131568   5.254   1.614   0.429 -0.7374  1.4286 -0.0833
 3311TIP3    H231569   5.252   1.492   0.518  0.8936 -0.6984 -2.8030
 3312TIP3   OH231570   5.434   1.917   7.430  0.1359  0.5402  0.2054
 3312TIP3    H131571   5.412   1.827   7.405 -2.4730  1.4513 -1.1677
 3312TIP3    H231572   5.522   1.911   7.466  0.3791 -2.4257 -0.6115
 3313TIP3   OH231573   6.258   2.300   0.303  0.1769  0.0414  0.1150
 3313TIP3    H131574   6.335   2.269   0.351 -0.5798 -0.9766  0.7240
 3313TIP3    H231575   6.230   2.378   0.351  1.4155  1.0330 -0.7271
 3314TIP3   OH231576   3.007   6.705   2.542  0.2686  0.4216 -0.2034
 3314TIP3    H131577   3.064   6.651   2.596  0.3759  1.5367  0.8458
 3314TIP3    H231578   3.066   6.744   2.478  0.7481  1.6409  0.9318
 3315TIP3   OH231579   0.344   0.288   7.242  0.1637 -0.3092 -0.0055
 3315TIP3    H131580   0.386   0.204   7.221  0.4061 -0.0810 -0.4677
 3315TIP3    H231581   0.414   0.339   7.282 -0.2843 -0.7221  1.3572
 3316TIP3   OH231582   1.230   1.463   0.780 -0.0055 -0.4383 -0.0693
 3316TIP3    H131583   1.187   1.548   0.794  1.1512  0.2924 -0.8186
 3316TIP3    H231584   1.175   1.419   0.715 -0.3219 -0.0495 -0.0722
 3317TIP3   OH231585   5.965   6.786   1.173 -0.5020 -0.1529  0.5259
 3317TIP3    H131586   5.890   6.827   1.129 -0.3102 -1.0247 -0.6515
 3317TIP3    H231587   5.960   6.818   1.263 -0.9199  1.6573 -0.1035
 3318TIP3   OH231588   3.639   0.805   0.461 -0.2606 -0.4203  0.1893
 3318TIP3    H131589   3.623   0.777   0.371  0.1105  2.5816 -0.9549
 3318TIP3    H231590   3.553   0.801   0.503 -0.6363 -0.9310 -0.6043
 3319TIP3   OH231591   0.651   6.345   6.977 -0.4568  0.2528  0.6196
 3319TIP3    H131592   0.636   6.273   7.038 -2.1912  0.6310  0.6702
 3319TIP3    H231593   0.646   6.424   7.030 -0.1173  0.5012  0.2945
 3320TIP3   OH231594   5.142   4.616   1.543  0.0135  0.2067  0.3363
 3320TIP3    H131595   5.186   4.541   1.582 -1.4993 -1.2555 -0.6547
 3320TIP3    H231596   5.108   4.585   1.460  1.1347  2.6066 -1.1462
 3321TIP3   OH231597   4.542   4.494   1.431  0.0346 -0.3175  0.3910
 3321TIP3    H131598   4.603   4.421   1.442 -1.2597 -1.6200 -0.6982
 3321TIP3    H231599   4.456   4.455   1.440 -0.7614  0.7321 -1.7915
 3322TIP3   OH231600   4.238   4.785   6.371 -0.1535  0.2168  0.6202
 3322TIP3    H131601   4.259   4.855   6.308  0.1979 -0.3406  0.1035
 3322TIP3    H231602   4.251   4.704   6.321  2.9330 -0.3852  2.1695
 3323TIP3   OH231603   4.874   4.874   1.434  0.2159 -0.4322  0.0950
 3323TIP3    H131604   4.962   4.906   1.415 -0.0932  0.0018 -0.6528
 3323TIP3    H231605   4.861   4.801   1.374 -1.1908  1.6577 -2.3628
 3324TIP3   OH231606   3.519   0.874   0.003  0.3010  0.4099 -0.1887
 3324TIP3    H131607   3.559   0.857  -0.082  2.2278 -0.2216  0.7526
 3324TIP3    H231608   3.504   0.968   0.006  1.7705  0.6807 -0.6331
 3325TIP3   OH231609   0.469   6.445   7.497 -0.0456 -0.0752 -0.7809
 3325TIP3    H131610   0.486   6.356   7.529 -1.2877 -0.7976 -2.0401
 3325TIP3    H231611   0.542   6.497   7.532 -1.1937 -0.7568  3.1200
 3326TIP3   OH231612   3.259   0.821   2.355  0.2350 -0.9422 -0.0827
 3326TIP3    H131613   3.227   0.855   2.271  0.1694  1.9927  1.0219
 3326TIP3    H231614   3.187   0.835   2.416  1.4973  0.3408  1.2011
 3327TIP3   OH231615   2.340   6.266   8.247 -0.3824  0.0181 -0.1561
 3327TIP3    H131616   2.372   6.333   8.308 -0.8449  0.5003 -0.4280
 3327TIP3    H231617   2.248   6.253   8.272 -1.0005  1.2610 -1.6218
 3328TIP3   OH231618   5.687   3.036   0.335 -0.3625 -0.4569 -0.4073
 3328TIP3    H131619   5.726   3.109   0.382  1.9024 -0.8251 -1.5812
 3328TIP3    H231620   5.626   2.997   0.398 -0.6778  1.6411  0.6639
 3329TIP3   OH231621   3.154   4.688   0.458  0.0670  0.2922 -0.0354
 3329TIP3    H131622   3.239   4.668   0.496  0.1619 -0.0582 -0.4242
 3329TIP3    H231623   3.166   4.675   0.364 -0.6613 -0.7046 -0.0083
 3330TIP3   OH231624   3.114   1.120   0.925 -0.4304 -0.2946 -0.0184
 3330TIP3    H131625   3.171   1.154   0.994  1.5339 -1.4752 -0.9632
 3330TIP3    H231626   3.097   1.030   0.950  0.7703 -0.9152 -1.2701
 3331TIP3   OH231627   0.532   6.098   7.033 -0.2197 -0.7423 -0.3078
 3331TIP3    H131628   0.442   6.091   7.063 -0.2672 -1.2216 -0.5648
 3331TIP3    H231629   0.546   6.021   6.979  0.3805 -0.7283 -0.1804
 3332TIP3   OH231630   2.381   0.809   2.813  0.1091  0.3495 -0.0004
 3332TIP3    H131631   2.443   0.881   2.805  0.2645  0.2371  0.1623
 3332TIP3    H231632   2.381   0.767   2.727 -2.1610  2.2685 -1.0552
 3333TIP3   OH231633   4.442   4.233   6.986 -0.1233  0.4815  0.0789
 3333TIP3    H131634   4.353   4.228   6.950  0.1170  0.4526 -0.5268
 3333TIP3    H231635   4.496   4.260   6.912  0.1177  2.2468  0.8545
 3334TIP3   OH231636   2.058   6.442   0.994  0.0893 -0.3422 -0.6170
 3334TIP3    H131637   2.029   6.375   1.056 -1.0297  0.2312 -0.5056
 3334TIP3    H231638   2.063   6.522   1.046 -2.1033  0.4246 -1.4915
 3335TIP3   OH231639   4.466   0.495   1.187  0.2049 -0.0828  0.2965
 3335TIP3    H131640   4.501   0.570   1.139  0.7831  0.3848  1.4256
 3335TIP3    H231641   4.507   0.500   1.273 -0.0287 -1.4913  0.5096
 3336TIP3   OH231642   6.568   6.081   1.293 -0.2748 -0.3544 -0.2214
 3336TIP3    H131643   6.535   6.016   1.230  0.5429 -1.0918  0.0814
 3336TIP3    H231644   6.530   6.164   1.264 -0.5095 -0.7992 -1.2481
 3337TIP3   OH231645   5.270   3.723   7.526 -0.8895 -0.7914 -0.3276
 3337TIP3    H131646   5.301   3.663   7.593 -0.0761 -1.4607 -1.2664
 3337TIP3    H231647   5.283   3.676   7.444 -0.1688  0.6865 -1.0975
 3338TIP3   OH231648   3.934   2.411   2.271 -0.0843 -0.4448 -0.5675
 3338TIP3    H131649   4.005   2.442   2.327  1.1195 -2.4444 -0.8914
 3338TIP3    H231650   3.974   2.403   2.184 -0.8766 -0.9720 -0.8998
 3339TIP3   OH231651   4.135   0.384   7.541 -0.3712  0.1678 -0.5941
 3339TIP3    H131652   4.160   0.294   7.561 -2.3016 -0.1322  0.7361
 3339TIP3    H231653   4.080   0.376   7.463 -1.0209  0.0960 -0.1386
 3340TIP3   OH231654   5.616   4.916   7.844  0.2581 -0.3268  0.4218
 3340TIP3    H131655   5.547   4.937   7.781  1.0013 -2.0613 -1.0372
 3340TIP3    H231656   5.671   4.994   7.846  0.7024 -0.5220 -1.7806
 3341TIP3   OH231657   0.011   3.408   2.063  0.2727  0.4393 -0.2256
 3341TIP3    H131658   0.099   3.381   2.039  0.3177  0.8288 -0.5238
 3341TIP3    H231659  -0.046   3.338   2.030  0.3351  0.9553 -1.4920
 3342TIP3   OH231660   0.904   3.827   8.371  0.0236 -0.0364  0.5635
 3342TIP3    H131661   0.936   3.776   8.445  0.2412 -1.4056 -0.4432
 3342TIP3    H231662   0.812   3.844   8.391 -0.1683 -1.2125  0.7251
 3343TIP3   OH231663   1.487   1.131   0.303 -0.3982 -0.2503 -0.3336
 3343TIP3    H131664   1.437   1.208   0.328 -0.7915  0.0825 -2.0294
 3343TIP3    H231665   1.498   1.082   0.385 -0.1700  1.5521  0.7799
 3344TIP3   OH231666   2.065   3.309   1.959 -0.5551  0.4281 -0.1929
 3344TIP3    H131667   2.093   3.382   1.903 -0.0990 -0.9454 -1.8581
 3344TIP3    H231668   2.085   3.337   2.048 -0.6856  2.4460 -0.7547
 3345TIP3   OH231669   2.588   0.995   2.807 -0.0396  0.0863  0.1725
 3345TIP3    H131670   2.607   1.069   2.750  1.0475  1.4159  2.1351
 3345TIP3    H231671   2.599   1.029   2.896 -0.9615 -2.0569  1.1938
 3346TIP3   OH231672   0.358   0.860   8.058 -0.1863 -0.1971 -1.0365
 3346TIP3    H131673   0.361   0.806   7.979  1.1490 -1.1096 -0.3910
 3346TIP3    H231674   0.415   0.815   8.121  0.3979  1.5674 -0.2222
 3347TIP3   OH231675   5.634   4.442   0.238 -0.4410  0.0655 -0.1452
 3347TIP3    H131676   5.588   4.526   0.226  1.9587  1.4487 -0.1801
 3347TIP3    H231677   5.710   4.464   0.291 -0.4786 -2.4053  1.0373
 3348TIP3   OH231678   1.951   5.902   1.624  0.3210 -0.3280 -0.5674
 3348TIP3    H131679   1.885   5.942   1.567  1.5279  1.1097 -1.0148
 3348TIP3    H231680   1.913   5.818   1.648 -2.9045  1.4579  1.3634
 3349TIP3   OH231681   6.955   3.124   0.192 -0.5457 -0.4972 -0.3400
 3349TIP3    H131682   6.999   3.117   0.107 -1.3268  1.3605 -0.9676
 3349TIP3    H231683   7.024   3.152   0.252 -0.2096 -0.7488 -0.6023
 3350TIP3   OH231684   0.540   6.518   1.862  0.3331  0.8204  0.3817
 3350TIP3    H131685   0.619   6.501   1.914  0.4143  0.7269  0.2302
 3350TIP3    H231686   0.487   6.440   1.874  1.2868 -0.1658 -1.3762
 3351TIP3   OH231687   4.763   6.177   8.443  0.2852  0.0136  0.9486
 3351TIP3    H131688   4.832   6.243   8.444  0.6521 -0.3465  0.2199
 3351TIP3    H231689   4.800   6.105   8.393 -1.6134  0.9049 -1.9614
 3352TIP3   OH231690   2.469   3.275   2.770 -0.1062  0.4879 -0.2043
 3352TIP3    H131691   2.549   3.222   2.779 -0.6800 -0.4512 -0.4628
 3352TIP3    H231692   2.399   3.215   2.796 -0.9588  0.5124 -2.2693
 3353TIP3   OH231693   6.185   3.621   1.743 -0.3652  0.5511  0.4981
 3353TIP3    H131694   6.269   3.575   1.745 -1.8302 -2.4142 -0.1566
 3353TIP3    H231695   6.165   3.628   1.649 -1.1429  0.6016  0.6631
 3354TIP3   OH231696   6.173   6.485   7.081 -0.1824 -0.4649 -0.3905
 3354TIP3    H131697   6.247   6.528   7.040 -0.4104 -0.9230 -1.2920
 3354TIP3    H231698   6.173   6.519   7.171 -0.7428  1.9158 -1.2146
 3355TIP3   OH231699   5.907   5.501   0.897 -0.4909  0.3896  0.7179
 3355TIP3    H131700   5.817   5.527   0.880 -0.9425 -0.5290  1.5855
 3355TIP3    H231701   5.918   5.419   0.849 -0.3889  0.0634  1.2919
 3356TIP3   OH231702   4.066   3.113   0.954 -0.0892  0.3849 -0.3709
 3356TIP3    H131703   3.977   3.144   0.939 -1.1044 -1.9662  0.3582
 3356TIP3    H231704   4.073   3.105   1.049  0.9083  0.5460 -0.4244
 3357TIP3   OH231705   2.025   1.022   0.546  0.0116  0.4504  0.3793
 3357TIP3    H131706   2.058   0.941   0.507  0.1838  0.8530 -0.3289
 3357TIP3    H231707   2.093   1.048   0.608 -0.0398  0.0658  0.6067
 3358TIP3   OH231708   3.021   1.645   1.333  0.3082  0.2014 -0.3652
 3358TIP3    H131709   3.013   1.550   1.345 -2.0117  0.4039  0.1705
 3358TIP3    H231710   3.008   1.682   1.420 -0.7034  1.0473 -0.8417
 3359TIP3   OH231711   1.657   1.645   1.096 -1.2892 -0.1436 -0.0283
 3359TIP3    H131712   1.565   1.628   1.117 -2.2807  2.8535 -1.3946
 3359TIP3    H231713   1.657   1.669   1.003  0.9632 -0.4621 -0.1724
 3360TIP3   OH231714   1.075   6.202   0.693 -0.1944 -0.3179  0.1689
 3360TIP3    H131715   1.118   6.212   0.608  0.4573 -0.9130  0.4182
 3360TIP3    H231716   1.140   6.157   0.747 -0.8410 -0.5031  0.7990
 3361TIP3   OH231717   2.595   2.272   1.182  0.1806  0.1147  0.1163
 3361TIP3    H131718   2.670   2.318   1.218  0.6571 -0.5703  0.0312
 3361TIP3    H231719   2.595   2.294   1.089  3.2706 -3.6038 -1.0559
 3362TIP3   OH231720   4.889   6.546   7.093  0.1351  0.3644  0.7236
 3362TIP3    H131721   4.899   6.554   6.998 -1.1171 -0.6151  0.4787
 3362TIP3    H231722   4.966   6.498   7.122  0.8936  1.3007  0.3248
 3363TIP3   OH231723   4.434   6.552   3.168 -0.5296  0.6297 -0.3796
 3363TIP3    H131724   4.351   6.519   3.201 -0.0879 -1.0463 -0.8407
 3363TIP3    H231725   4.439   6.517   3.079  1.6336 -1.1951  0.3644
 3364TIP3   OH231726   3.656   6.662   2.861  0.2950  0.0239  0.1990
 3364TIP3    H131727   3.741   6.657   2.904  1.4001  2.2271 -1.5296
 3364TIP3    H231728   3.608   6.729   2.911 -0.3282 -0.9424  0.9368
 3365TIP3   OH231729   6.340   3.087   1.676  0.3079 -0.2119  0.0740
 3365TIP3    H131730   6.299   3.001   1.687  1.6467 -0.7699  1.0418
 3365TIP3    H231731   6.283   3.134   1.616 -0.5637 -1.7161 -0.3175
 3366TIP3   OH231732   0.185   4.191   7.391 -0.6635  0.3040 -0.0025
 3366TIP3    H131733   0.166   4.176   7.484 -0.3929 -1.7038 -0.2343
 3366TIP3    H231734   0.278   4.213   7.389 -0.2746 -1.2502  0.0799
 3367TIP3   OH231735   4.310   2.777   8.300 -0.3170  0.2173  0.4990
 3367TIP3    H131736   4.263   2.746   8.222 -0.8515 -1.0637  1.3052
 3367TIP3    H231737   4.361   2.852   8.269 -0.9680  0.0916 -0.9514
 3368TIP3   OH231738   4.791   4.876   6.390 -0.3079 -0.5111  0.0593
 3368TIP3    H131739   4.773   4.909   6.302  0.9776 -0.2962 -0.1418
 3368TIP3    H231740   4.772   4.782   6.385 -5.2330  0.1597  0.9587
 3369TIP3   OH231741   3.362   1.002   1.250  0.5120  0.3263  0.2925
 3369TIP3    H131742   3.307   1.062   1.199 -1.2726 -0.4473  1.2248
 3369TIP3    H231743   3.436   1.057   1.279 -0.6482  1.8869  0.4494
 3370TIP3   OH231744   2.370   0.401   1.808  0.1185  0.6768  0.1346
 3370TIP3    H131745   2.308   0.328   1.797 -0.1020  1.0443 -1.3124
 3370TIP3    H231746   2.335   0.470   1.752  2.6999  0.3089 -2.1685
 3371TIP3   OH231747   0.312   6.507   7.003  0.3165 -0.0825 -0.4679
 3371TIP3    H131748   0.397   6.492   7.045  0.8420  0.0473 -1.4536
 3371TIP3    H231749   0.318   6.460   6.920  0.0487  1.2729 -1.2853
 3372TIP3   OH231750   2.473   5.609   8.197  0.0087 -0.5441 -0.1600
 3372TIP3    H131751   2.499   5.671   8.129 -1.3079 -0.6450 -0.7863
 3372TIP3    H231752   2.404   5.557   8.157  1.7861 -3.2125 -0.0620
 3373TIP3   OH231753   2.969   3.922   7.589 -0.5488 -0.1509  0.2395
 3373TIP3    H131754   2.930   4.004   7.559 -0.7129  0.6693  2.4950
 3373TIP3    H231755   2.904   3.884   7.648 -0.8922 -2.4542 -1.4714
 3374TIP3   OH231756   4.261   4.568   0.122 -0.2948  0.4628 -0.2412
 3374TIP3    H131757   4.339   4.540   0.074 -1.1389 -1.6913 -0.4787
 3374TIP3    H231758   4.293   4.591   0.209  0.5960 -0.4853 -0.3076
 3375TIP3   OH231759   6.764   3.847   0.914 -0.4934 -0.9401 -0.2596
 3375TIP3    H131760   6.722   3.763   0.933 -0.2716 -0.8468  0.6760
 3375TIP3    H231761   6.802   3.875   0.997 -0.5392  0.0834 -0.5672
 3376TIP3   OH231762   6.245   0.260   6.822 -0.9386  0.3138 -0.2083
 3376TIP3    H131763   6.316   0.305   6.776  0.2698 -0.8342  0.4726
 3376TIP3    H231764   6.201   0.209   6.754 -1.1311  1.0428 -0.6379
 3377TIP3   OH231765   6.265   5.777   1.005 -0.2335 -0.2574 -0.8637
 3377TIP3    H131766   6.295   5.760   0.916 -2.6234  1.8214 -2.1843
 3377TIP3    H231767   6.172   5.759   1.004 -0.5466  0.9003  0.8915
 3378TIP3   OH231768   1.452   0.386   0.120 -0.3547 -0.3945 -0.2014
 3378TIP3    H131769   1.419   0.370   0.208  0.5124  1.3184  0.4937
 3378TIP3    H231770   1.417   0.472   0.096  0.2692 -0.3654 -1.0930
 3379TIP3   OH231771   1.444   6.380   7.933 -0.2880 -0.1196 -0.2192
 3379TIP3    H131772   1.419   6.317   8.000  1.6566  0.2786  0.9335
 3379TIP3    H231773   1.531   6.410   7.958 -0.1561  1.2418 -2.0596
 3380TIP3   OH231774   5.177   3.044   1.516  0.9846 -0.0125  0.9315
 3380TIP3    H131775   5.225   3.125   1.533  1.3600 -0.1025  0.3279
 3380TIP3    H231776   5.093   3.057   1.559  0.4461  1.3283 -0.4154
 3381TIP3   OH231777   4.331   2.396   6.994  0.4007  0.0833 -0.3632
 3381TIP3    H131778   4.323   2.452   6.917  1.3906  0.4765 -0.2005
 3381TIP3    H231779   4.258   2.334   6.986 -1.2241  1.8604 -0.1348
 3382TIP3   OH231780   0.098   5.986   7.966  0.1950  0.2148 -0.0761
 3382TIP3    H131781   0.029   5.994   7.901 -0.6154 -1.0600  0.5889
 3382TIP3    H231782   0.089   5.896   8.000  0.6084  0.8175  1.7505
 3383TIP3   OH231783   6.341   2.436   1.104 -0.2520  0.2553  0.0310
 3383TIP3    H131784   6.427   2.448   1.063 -0.7811  1.4120 -0.8002
 3383TIP3    H231785   6.279   2.477   1.043 -1.2704  0.4325  1.1391
 3384TIP3   OH231786   3.157   6.674   8.301 -0.3504 -0.1859 -0.2721
 3384TIP3    H131787   3.128   6.681   8.392 -1.6690 -0.9397 -0.5992
 3384TIP3    H231788   3.158   6.580   8.283  1.5442 -0.1363 -0.5644
 3385TIP3   OH231789   5.959   6.748   7.720 -0.5046 -0.7291 -0.2297
 3385TIP3    H131790   6.040   6.742   7.669 -0.2391 -3.2797  0.3566
 3385TIP3    H231791   5.982   6.803   7.796  0.4607 -0.8480 -0.4219
 3386TIP3   OH231792   5.832   0.496   2.281  0.4824  0.0022  0.0931
 3386TIP3    H131793   5.847   0.408   2.246  2.0113  0.4612 -0.5020
 3386TIP3    H231794   5.878   0.496   2.365  0.1510  0.1155  0.2757
 3387TIP3   OH231795   0.193   3.109   2.203  0.2868 -0.1413 -0.1005
 3387TIP3    H131796   0.268   3.101   2.144  1.2100 -0.7972  1.1113
 3387TIP3    H231797   0.231   3.103   2.291 -1.3216 -1.7311  0.5383
 3388TIP3   OH231798   3.964   4.468   1.205 -0.1948 -0.3340  0.1133
 3388TIP3    H131799   4.054   4.500   1.205 -0.8082  1.7024 -2.2206
 3388TIP3    H231800   3.971   4.378   1.172  0.9544 -0.0370 -0.5154
 3389TIP3   OH231801   0.739   4.689   1.939 -0.3534 -0.3521  0.1885
 3389TIP3    H131802   0.788   4.705   1.858 -1.6333 -0.1775 -0.5917
 3389TIP3    H231803   0.758   4.599   1.962 -0.2255 -0.5077 -0.5030
 3390TIP3   OH231804   1.979   5.222   0.929 -0.0608 -0.2600 -0.2231
 3390TIP3    H131805   1.894   5.250   0.894 -0.0232 -0.1748 -0.2450
 3390TIP3    H231806   1.956   5.174   1.009 -0.0399  1.2697  0.7397
 3391TIP3   OH231807   2.315   2.352   2.330 -0.1438 -0.6397  0.0932
 3391TIP3    H131808   2.284   2.361   2.420  1.3516  0.3975  0.5415
 3391TIP3    H231809   2.257   2.286   2.292 -0.8073 -1.1148  1.8041
 3392TIP3   OH231810   5.931   4.935   2.123  0.3433 -0.5091 -0.3361
 3392TIP3    H131811   5.945   4.841   2.109  0.1347 -0.5722 -0.1411
 3392TIP3    H231812   5.881   4.939   2.205  0.3353 -0.2288 -0.3549
 3393TIP3   OH231813   2.555   5.298   7.740 -0.3271  0.3291  0.0276
 3393TIP3    H131814   2.553   5.394   7.743  0.0281  0.3387  0.0526
 3393TIP3    H231815   2.465   5.271   7.758 -0.1017  0.6195  1.6800
 3394TIP3   OH231816   4.980   4.107   1.143 -0.2171 -0.0203 -0.1304
 3394TIP3    H131817   5.062   4.111   1.193  0.1228  0.2147 -0.6875
 3394TIP3    H231818   4.986   4.025   1.094 -1.1824 -0.9563  1.2488
 3395TIP3   OH231819   4.198   3.449   7.942 -0.0849  0.0540  0.3795
 3395TIP3    H131820   4.267   3.513   7.928 -0.0086  0.3861  2.1497
 3395TIP3    H231821   4.143   3.486   8.011 -0.0951 -1.7285  1.3894
 3396TIP3   OH231822   2.502   6.793   1.698  0.1732 -0.3766  0.0464
 3396TIP3    H131823   2.461   6.732   1.637 -0.0317  1.1625 -1.4488
 3396TIP3    H231824   2.513   6.744   1.779 -0.2708 -2.2684 -0.9925
 3397TIP3   OH231825   3.284   4.976   1.580  0.5156 -0.1610 -0.0573
 3397TIP3    H131826   3.341   5.017   1.644  1.1091  0.6161 -1.0669
 3397TIP3    H231827   3.327   4.893   1.558  1.0070  0.1997 -0.4557
 3398TIP3   OH231828   6.251   4.955   6.795  0.3487 -0.5949  0.8526
 3398TIP3    H131829   6.268   4.988   6.707  0.2429  0.6417  1.2715
 3398TIP3    H231830   6.155   4.946   6.799  0.1499  1.2492  1.4409
 3399TIP3   OH231831   1.780   1.138   0.544 -0.0486 -0.2704  0.3309
 3399TIP3    H131832   1.873   1.125   0.525 -0.7225 -0.0176 -4.3175
 3399TIP3    H231833   1.735   1.075   0.488 -2.7357  0.9070  1.0136
 3400TIP3   OH231834   5.314   1.516   1.404  0.5539 -0.3794  0.3012
 3400TIP3    H131835   5.222   1.518   1.430  0.1598  3.7318 -0.6484
 3400TIP3    H231836   5.362   1.522   1.486 -0.1752  0.1218  0.7065
 3401TIP3   OH231837   4.440   2.034   1.119  0.7365  0.2261 -0.2697
 3401TIP3    H131838   4.482   1.949   1.133 -2.3610 -1.3742  0.1725
 3401TIP3    H231839   4.387   2.022   1.041 -0.8824  1.2736  0.6218
 3402TIP3   OH231840   0.910   2.535   6.660  0.6488 -0.0085 -0.0819
 3402TIP3    H131841   0.835   2.498   6.707 -0.6776 -0.1706 -2.2167
 3402TIP3    H231842   0.934   2.467   6.597  2.1631  0.3468  0.0652
 3403TIP3   OH231843   3.495   4.756   7.290 -0.4036  0.1592 -0.2640
 3403TIP3    H131844   3.428   4.749   7.358  0.0333 -0.3883  0.1172
 3403TIP3    H231845   3.446   4.758   7.208 -0.9328  0.6938  0.0511
 3404TIP3   OH231846   3.161   0.538   8.407 -0.3620  0.0551  0.2484
 3404TIP3    H131847   3.146   0.517   8.499 -2.3302  0.0950 -0.0052
 3404TIP3    H231848   3.232   0.480   8.380  0.5472  0.3558  1.8899
 3405TIP3   OH231849   5.284   1.874   7.724 -0.1598  0.1200  0.2549
 3405TIP3    H131850   5.231   1.891   7.801  0.1533  1.0259  0.2775
 3405TIP3    H231851   5.221   1.854   7.655 -0.6280  2.1467  0.0316
 3406TIP3   OH231852   6.559   2.486   0.944 -0.2465 -0.6352  0.3662
 3406TIP3    H131853   6.583   2.576   0.923 -4.1502  0.4229 -0.4954
 3406TIP3    H231854   6.557   2.441   0.860 -1.7699 -0.4629  0.2838
 3407TIP3   OH231855   2.639   4.939   7.910  0.7234  0.5410  0.1144
 3407TIP3    H131856   2.690   5.015   7.881 -1.1132  0.8882 -2.5827
 3407TIP3    H231857   2.606   4.900   7.829 -1.7577 -0.7220  1.6234
 3408TIP3   OH231858   3.855   6.211   6.657 -0.3801  1.1481 -0.2209
 3408TIP3    H131859   3.874   6.203   6.564 -0.5473 -2.6126 -0.0920
 3408TIP3    H231860   3.764   6.184   6.666 -1.1920  3.8688  0.8695
 3409TIP3   OH231861   2.302   6.795   7.853  0.2456  0.4738  0.1444
 3409TIP3    H131862   2.357   6.824   7.779 -0.4521 -1.0806 -1.0273
 3409TIP3    H231863   2.351   6.722   7.892 -0.0237  0.4274  0.3965
 3410TIP3   OH231864   6.082   5.508   1.502 -0.0577 -0.4207  0.1120
 3410TIP3    H131865   6.058   5.579   1.562 -0.0423  0.5463 -0.9984
 3410TIP3    H231866   6.173   5.526   1.479 -0.3583 -0.2211 -0.9570
 3411TIP3   OH231867   4.147   2.109   1.352  0.3040  0.0026 -0.0342
 3411TIP3    H131868   4.062   2.143   1.322  0.6170  1.5579  0.7731
 3411TIP3    H231869   4.132   2.015   1.362 -0.3843 -0.3033 -3.0524
 3412TIP3   OH231870   5.184   5.789   0.580 -0.4608  0.1409  0.2561
 3412TIP3    H131871   5.166   5.882   0.592  0.7616  0.5030 -0.6112
 3412TIP3    H231872   5.122   5.762   0.512 -1.0251  0.2304  0.7207
 3413TIP3   OH231873   1.961   6.847   1.050  0.9160  0.1779  0.0212
 3413TIP3    H131874   2.033   6.785   1.043  0.5022 -0.3880  0.6273
 3413TIP3    H231875   1.908   6.831   0.972  0.4737 -0.6836  0.4884
 3414TIP3   OH231876   2.184   5.475   7.079  0.0697  0.5339 -0.4442
 3414TIP3    H131877   2.111   5.489   7.019  0.9618 -0.0795 -1.7106
 3414TIP3    H231878   2.261   5.507   7.032  0.6499  1.1571  0.8576
 3415TIP3   OH231879   5.155   4.206   7.113  0.1767  0.2851 -0.1998
 3415TIP3    H131880   5.228   4.269   7.111  1.1025 -0.7136  0.6831
 3415TIP3    H231881   5.160   4.161   7.028 -0.9680  1.8688 -1.1629
 3416TIP3   OH231882   4.971   0.355   2.047  0.2457  0.2081  0.2149
 3416TIP3    H131883   4.919   0.288   2.003  0.1788  0.3630  0.0585
 3416TIP3    H231884   4.907   0.407   2.096  0.2066  0.6222 -0.2662
 3417TIP3   OH231885   0.104   4.564   6.318  0.2371 -0.1247  0.7316
 3417TIP3    H131886   0.065   4.485   6.356  1.6107 -0.4685  1.5007
 3417TIP3    H231887   0.191   4.537   6.290  0.3065  0.8510 -0.0656
 3418TIP3   OH231888   6.446   3.400   2.212 -0.0239 -0.1930 -0.1169
 3418TIP3    H131889   6.407   3.352   2.285  0.0438  0.9387  0.6825
 3418TIP3    H231890   6.524   3.348   2.189 -0.4367 -0.9440  0.1278
 3419TIP3   OH231891   5.568   6.930   6.932 -0.6264 -0.2929  0.1251
 3419TIP3    H131892   5.593   6.866   6.999  2.9287 -0.5089 -1.2023
 3419TIP3    H231893   5.547   6.876   6.855  0.5397  0.0278 -0.4418
 3420TIP3   OH231894   6.236   6.360   8.064 -0.0843 -0.3993 -0.1155
 3420TIP3    H131895   6.300   6.342   7.995 -0.2072  0.5470 -0.4917
 3420TIP3    H231896   6.286   6.352   8.145  0.3939 -0.1656 -0.3824
 3421TIP3   OH231897   2.509   0.094   8.244 -0.5304  0.3087  0.4385
 3421TIP3    H131898   2.475   0.173   8.202 -2.2412 -0.1480  0.8980
 3421TIP3    H231899   2.434   0.057   8.290  0.1464 -1.7659 -0.0257
 3422TIP3   OH231900   0.539   2.692   8.364 -0.1668  0.2375  0.7000
 3422TIP3    H131901   0.607   2.631   8.391 -0.2690 -0.2139 -0.0294
 3422TIP3    H231902   0.584   2.776   8.354  0.8985 -0.5446 -2.2671
 3423TIP3   OH231903   2.574   4.717   8.081  0.3842  0.1576 -0.7006
 3423TIP3    H131904   2.585   4.729   8.176 -2.1100 -1.0601 -0.1826
 3423TIP3    H231905   2.598   4.802   8.044  2.1880  0.4355  0.9133
 3424TIP3   OH231906   3.039   6.151   7.569 -0.0136 -0.6319  0.4932
 3424TIP3    H131907   2.987   6.071   7.573  0.0620 -0.6576  1.2997
 3424TIP3    H231908   2.976   6.222   7.579 -0.1073 -0.5785 -0.4587
 3425TIP3   OH231909   6.648   4.136   6.688  0.1193  0.2858  0.1153
 3425TIP3    H131910   6.661   4.045   6.663  0.3508 -0.1314  1.6731
 3425TIP3    H231911   6.607   4.176   6.611 -0.7893 -1.3265 -0.2905
 3426TIP3   OH231912   3.178   6.489   7.848 -0.3353 -0.1419 -0.4378
 3426TIP3    H131913   3.107   6.474   7.910 -0.5539  1.2895 -0.3189
 3426TIP3    H231914   3.178   6.411   7.792  0.6007 -2.0173  2.0028
 3427TIP3   OH231915   3.981   6.620   6.543  0.7752  0.0416  0.2809
 3427TIP3    H131916   3.939   6.561   6.481  1.7086 -0.9606  0.5842
 3427TIP3    H231917   3.916   6.631   6.614  0.3273 -0.0470 -0.1104
 3428TIP3   OH231918   0.484   2.672   1.501  0.2629 -0.0926  0.8330
 3428TIP3    H131919   0.434   2.668   1.419 -2.5980 -0.4594  2.4490
 3428TIP3    H231920   0.559   2.728   1.481 -0.9835  0.8296 -1.7088
 3429TIP3   OH231921   4.310   5.618   7.856  0.3289 -0.1004 -0.1659
 3429TIP3    H131922   4.246   5.630   7.926  0.7011  1.6430 -0.0795
 3429TIP3    H231923   4.315   5.523   7.844 -4.2862 -0.3982 -2.0197
 3430TIP3   OH231924   2.676   0.198   0.931 -0.0792 -0.0140  0.0163
 3430TIP3    H131925   2.627   0.180   0.850 -0.1398 -3.0463  0.6113
 3430TIP3    H231926   2.608   0.221   0.995 -0.4230 -1.0184  0.0316
 3431TIP3   OH231927   6.628   4.880   2.462 -0.9234  0.3392  0.4019
 3431TIP3    H131928   6.675   4.853   2.384  0.4106  0.5611  1.1036
 3431TIP3    H231929   6.602   4.797   2.504 -0.8638  0.2081  0.1819
 3432TIP3   OH231930   2.797   1.567   7.578 -0.4974 -0.0076 -0.0045
 3432TIP3    H131931   2.762   1.655   7.594  1.2530  0.2014  3.5396
 3432TIP3    H231932   2.843   1.575   7.495 -2.1983  1.7772 -0.8715
 3433TIP3   OH231933   1.214   5.759   7.751  0.5707  0.2861 -0.0286
 3433TIP3    H131934   1.309   5.769   7.748  0.5381  0.3541 -1.0663
 3433TIP3    H231935   1.193   5.757   7.845  1.2302  3.8490  0.3344
 3434TIP3   OH231936   4.793   5.964   8.235  1.2633  0.4300  0.1706
 3434TIP3    H131937   4.765   5.875   8.258  0.2196  0.7041  0.0044
 3434TIP3    H231938   4.880   5.952   8.197  1.2159 -0.5012  0.3177
 3435TIP3   OH231939   3.319   1.411   0.642 -0.1588  0.4702  0.0213
 3435TIP3    H131940   3.398   1.386   0.595 -0.7064  2.0439 -1.8593
 3435TIP3    H231941   3.282   1.328   0.671  1.5323 -0.3758 -0.1339
 3436TIP3   OH231942   4.841   3.696   1.340 -0.2454 -0.1276 -0.0761
 3436TIP3    H131943   4.933   3.710   1.360 -0.0662  1.1243 -1.6506
 3436TIP3    H231944   4.794   3.751   1.403  0.0464 -0.8574  0.8063
 3437TIP3   OH231945   6.288   5.887   0.109 -0.1712 -0.0244  0.6380
 3437TIP3    H131946   6.275   5.981   0.098 -0.4521 -0.1678 -0.4265
 3437TIP3    H231947   6.226   5.862   0.178 -0.6297  0.4512  0.4053
 3438TIP3   OH231948   0.736   1.444   0.446  0.2775  0.3222  0.0988
 3438TIP3    H131949   0.654   1.470   0.404 -0.1186 -0.9983  0.0289
 3438TIP3    H231950   0.789   1.524   0.446 -0.8551  1.0929 -0.1996
 3439TIP3   OH231951   6.670   4.539   7.240  0.0890  0.4516  0.1197
 3439TIP3    H131952   6.637   4.591   7.313  0.6750  1.0333 -0.0165
 3439TIP3    H231953   6.609   4.466   7.233  0.9467 -0.5846  2.3115
 3440TIP3   OH231954   2.902   4.966   0.866 -0.4240 -0.4213  0.2363
 3440TIP3    H131955   2.945   4.917   0.795 -1.2816  0.0904 -0.6618
 3440TIP3    H231956   2.814   4.929   0.871 -0.3444 -0.5122  1.1136
 3441TIP3   OH231957   0.719   4.984   1.179  0.5450  1.0734 -0.5328
 3441TIP3    H131958   0.756   4.908   1.225  1.4045  1.3247 -0.7902
 3441TIP3    H231959   0.738   5.058   1.236 -1.3671  0.9827  0.3159
 3442TIP3   OH231960   4.666   0.960   7.715  0.4859  0.1768 -0.1030
 3442TIP3    H131961   4.576   0.959   7.746  0.1295 -0.9706 -1.1374
 3442TIP3    H231962   4.661   0.999   7.628  1.2663  1.8457  0.5455
 3443TIP3   OH231963   6.570   5.461   0.077 -0.5482 -0.1580 -0.0742
 3443TIP3    H131964   6.615   5.515   0.012  0.5821  2.0406  2.3463
 3443TIP3    H231965   6.515   5.523   0.125 -3.2860 -2.1487 -0.4435
 3444TIP3   OH231966   5.656   6.501   1.636 -0.2069 -0.6480 -0.6107
 3444TIP3    H131967   5.687   6.420   1.676  1.5615 -0.4149 -1.4353
 3444TIP3    H231968   5.681   6.494   1.544 -0.2950  0.6882 -0.7595
 3445TIP3   OH231969   3.795   5.819   8.240  0.3221  0.4260 -0.0308
 3445TIP3    H131970   3.745   5.821   8.158  0.4037  1.1605 -0.0692
 3445TIP3    H231971   3.840   5.903   8.242 -2.2876  1.9494  2.3571
 3446TIP3   OH231972   6.125   1.876   7.785 -0.3371 -0.2512  0.1827
 3446TIP3    H131973   6.198   1.933   7.810  1.2694 -2.2839  0.3788
 3446TIP3    H231974   6.126   1.876   7.690 -1.8292  1.7678  0.0951
 3447TIP3   OH231975   3.297   5.542   0.136  0.0824 -0.7796 -0.1003
 3447TIP3    H131976   3.328   5.469   0.190 -0.9476 -1.1584 -0.0000
 3447TIP3    H231977   3.263   5.606   0.199  0.8145 -0.2903 -0.1978
 3448TIP3   OH231978   1.205   6.439   1.869  0.1702  0.3885 -0.1900
 3448TIP3    H131979   1.227   6.350   1.895 -2.1418 -0.1927 -0.0229
 3448TIP3    H231980   1.275   6.465   1.810  0.4487 -1.8508 -0.9286
 3449TIP3   OH231981   5.590   5.265   8.377  0.1156  0.4391  0.2304
 3449TIP3    H131982   5.548   5.184   8.349  1.1287  0.0762 -0.2928
 3449TIP3    H231983   5.595   5.258   8.472  0.8180 -0.4325  0.1372
 3450TIP3   OH231984   5.380   2.872   6.907 -0.2175 -0.2675 -0.1798
 3450TIP3    H131985   5.338   2.880   6.821 -0.5337  1.9088  0.1098
 3450TIP3    H231986   5.457   2.930   6.901 -0.0035 -0.4302  0.8632
 3451TIP3   OH231987   3.388   3.873   8.273 -0.0046 -0.3574 -0.1579
 3451TIP3    H131988   3.365   3.785   8.304 -0.5152 -0.6587 -1.3070
 3451TIP3    H231989   3.389   3.864   8.177  0.0398  0.8697 -0.2795
 3452TIP3   OH231990   6.419   5.222   1.882 -0.6478 -0.2248  0.3312
 3452TIP3    H131991   6.365   5.218   1.804  0.7696 -0.7790 -0.6569
 3452TIP3    H231992   6.425   5.132   1.913 -1.2783 -0.0011  1.1629
 3453TIP3   OH231993   2.739   3.504   8.294 -0.1412  0.2548 -0.1242
 3453TIP3    H131994   2.739   3.560   8.371  4.6771 -0.9953  1.1427
 3453TIP3    H231995   2.765   3.562   8.222 -1.8294  0.8514 -0.2954
 3454TIP3   OH231996   0.141   6.020   2.430 -0.5878 -0.4999 -0.7055
 3454TIP3    H131997   0.220   5.988   2.474 -0.4244  0.4660 -0.2862
 3454TIP3    H231998   0.163   6.018   2.337  0.7550  1.8077 -0.5171
 3455TIP3   OH231999   2.813   0.063   7.914  0.0798  0.8979 -0.6485
 3455TIP3    H132000   2.903   0.037   7.895  0.3900  1.0246  0.5741
 3455TIP3    H232001   2.769  -0.017   7.941  0.5353  1.2635  1.2836
 3456TIP3   OH232002   2.047   3.455   7.896  0.1776 -0.8912  0.5334
 3456TIP3    H132003   2.083   3.535   7.858  2.4360 -1.3305  1.5885
 3456TIP3    H232004   1.955   3.477   7.914  0.8879  1.7533  1.4863
 3457TIP3   OH232005   4.599   3.637   6.931 -0.8006  0.0519 -0.8241
 3457TIP3    H132006   4.664   3.690   6.884 -1.0726  1.1251 -0.0353
 3457TIP3    H232007   4.645   3.556   6.953  0.0496  0.5047 -0.8854
 3458TIP3   OH232008   6.217   4.246   7.956 -0.0731 -0.4094  0.1709
 3458TIP3    H132009   6.139   4.215   8.001 -0.9389  0.4041 -0.7386
 3458TIP3    H232010   6.195   4.334   7.925  0.3900 -1.0035 -2.0388
 3459TIP3   OH232011   1.308   3.302   7.995  0.1958 -0.1768  0.2975
 3459TIP3    H132012   1.220   3.336   7.978  0.0769  0.4544  1.9451
 3459TIP3    H232013   1.359   3.380   8.018  1.0276 -0.6202 -0.0109
 3460TIP3   OH232014   2.931   4.393   1.781  0.0106 -0.1988  0.0862
 3460TIP3    H132015   2.981   4.333   1.726 -1.0235 -0.6438 -0.3951
 3460TIP3    H232016   2.998   4.439   1.833  0.9941  0.0051 -1.2873
 3461TIP3   OH232017   3.220   5.466   1.594  0.1218 -0.1484 -0.2226
 3461TIP3    H132018   3.255   5.549   1.562  0.2977  0.2291  0.8924
 3461TIP3    H232019   3.125   5.474   1.580 -0.0324  0.8695  1.2022
 3462TIP3   OH232020   4.897   0.871   8.075 -0.1003 -0.4960  0.7719
 3462TIP3    H132021   4.802   0.882   8.077 -0.1010 -0.2672 -0.1535
 3462TIP3    H232022   4.912   0.808   8.005  0.5523  0.9385 -0.4206
 3463TIP3   OH232023   2.481   0.940   0.582  0.0794  0.0282 -0.2408
 3463TIP3    H132024   2.548   0.893   0.632 -0.3155 -0.0768  0.2072
 3463TIP3    H232025   2.524   1.020   0.552  0.2210  0.2765  0.5972
 3464TIP3   OH232026   2.966   1.029   0.290 -0.0917  0.4510  0.1946
 3464TIP3    H132027   2.945   0.937   0.276  1.0038  0.4912 -2.1984
 3464TIP3    H232028   3.048   1.043   0.243 -0.8614  2.9223 -0.6062
 3465TIP3   OH232029   0.313   2.112   2.341 -0.1686 -0.0875 -0.7485
 3465TIP3    H132030   0.223   2.082   2.353  0.2368 -1.6983 -1.3818
 3465TIP3    H232031   0.306   2.188   2.283 -1.1458  0.1319 -0.3610
 3466TIP3   OH232032   3.289   5.908   1.061  0.1449 -0.4966 -0.1128
 3466TIP3    H132033   3.252   5.938   0.978 -0.3965 -0.0534  0.2848
 3466TIP3    H232034   3.337   5.828   1.038 -0.4853 -0.6987 -0.7506
 3467TIP3   OH232035   1.819   5.992   8.021  0.1821  0.5134  0.0092
 3467TIP3    H132036   1.875   6.046   8.078  0.2552 -0.3424  0.7546
 3467TIP3    H232037   1.798   5.915   8.073 -2.4024  1.1564  0.0753
 3468TIP3   OH232038   1.285   4.294   8.191 -0.2620 -0.0155  0.5741
 3468TIP3    H132039   1.277   4.265   8.281 -0.8988  0.8844  0.8176
 3468TIP3    H232040   1.276   4.214   8.139  0.7840 -0.6386  1.3165
 3469TIP3   OH232041   0.752   5.873   7.187  0.0768  0.2386  0.3128
 3469TIP3    H132042   0.687   5.891   7.120  2.0847  1.8273 -1.3395
 3469TIP3    H232043   0.755   5.778   7.193 -2.5151  0.1062  0.6702
 3470TIP3   OH232044   3.333   2.441   7.278 -0.2589 -0.2131  0.1795
 3470TIP3    H132045   3.378   2.356   7.268 -0.2240 -0.0957 -0.7772
 3470TIP3    H232046   3.392   2.504   7.237 -0.7527  0.1168 -0.0360
 3471TIP3   OH232047   3.884   3.726   8.070  0.1734  0.4597 -0.4397
 3471TIP3    H132048   3.964   3.752   8.024  1.1980  0.0446  1.0428
 3471TIP3    H232049   3.860   3.642   8.031 -0.6129  1.4296 -2.1495
 3472TIP3   OH232050   4.001   0.146   7.047  0.2793 -0.8987  0.2335
 3472TIP3    H132051   4.008   0.218   6.985 -0.1907 -0.3743  0.7800
 3472TIP3    H232052   3.907   0.134   7.060  0.3466 -1.8724 -0.1468
 3473TIP3   OH232053   3.195   5.938   0.579 -0.0942  0.3147  0.4481
 3473TIP3    H132054   3.289   5.919   0.580 -0.3866 -1.2602  0.1488
 3473TIP3    H232055   3.171   5.936   0.486 -0.9350 -2.1872  0.6543
 3474TIP3   OH232056   2.949   5.782   0.508  0.0075 -0.2448 -0.3407
 3474TIP3    H132057   3.003   5.705   0.527 -1.2981 -0.7774  1.6096
 3474TIP3    H232058   2.964   5.840   0.582 -0.8423  0.3025 -0.5900
 3475TIP3   OH232059   6.843   1.464   2.221 -0.1402  0.4928  0.3316
 3475TIP3    H132060   6.889   1.547   2.209  0.7626 -0.0884 -0.3346
 3475TIP3    H232061   6.751   1.488   2.229  0.2032  1.6391  1.1388
 3476TIP3   OH232062   4.144   0.276   0.969  0.4703  0.6090  0.0496
 3476TIP3    H132063   4.087   0.352   0.977 -1.3646 -0.6134 -0.7517
 3476TIP3    H232064   4.210   0.288   1.037 -1.3165  1.6024  1.7072
 3477TIP3   OH232065   5.297   5.078   0.511  0.0966  0.2277  0.0155
 3477TIP3    H132066   5.282   5.024   0.588 -1.1018 -0.4183 -0.6508
 3477TIP3    H232067   5.390   5.103   0.518  0.2769 -0.6352  1.1243
 3478TIP3   OH232068   2.989   0.186   8.412  0.4963 -0.0180  0.8495
 3478TIP3    H132069   2.944   0.257   8.456 -0.3218 -0.4098  0.6752
 3478TIP3    H232070   2.929   0.159   8.342 -0.1220 -2.1320  2.0807
 3479TIP3   OH232071   1.282   0.948   1.242 -0.4279 -0.9313 -0.4133
 3479TIP3    H132072   1.206   0.984   1.286  0.2770  1.8411 -1.2808
 3479TIP3    H232073   1.247   0.898   1.168 -1.4242 -0.7598 -0.0601
 3480TIP3   OH232074   6.508   3.294   1.782  0.5620 -0.7016 -0.2890
 3480TIP3    H132075   6.427   3.246   1.768 -0.9049  1.7598 -0.9744
 3480TIP3    H232076   6.535   3.273   1.871 -0.0283 -2.6457 -0.5426
 3481TIP3   OH232077   6.487   4.630   1.681  0.4540  0.2663 -0.0796
 3481TIP3    H132078   6.462   4.603   1.770  1.8464  2.4809  1.0870
 3481TIP3    H232079   6.413   4.603   1.626 -0.4627 -1.1589  1.7372
 3482TIP3   OH232080   6.492   1.153   2.266  0.0094  0.6246  0.3343
 3482TIP3    H132081   6.400   1.132   2.250 -0.0623  0.2140  1.2042
 3482TIP3    H232082   6.516   1.213   2.196 -0.6129 -0.1310 -0.5366
 3483TIP3   OH232083   6.609   6.752   1.042  0.1746  0.5795  0.1630
 3483TIP3    H132084   6.525   6.782   1.076  1.1041  1.4511  1.8412
 3483TIP3    H232085   6.636   6.820   0.980  0.0189  0.7314  0.2596
 3484TIP3   OH232086   6.312   1.875   8.486  0.2100 -0.5074 -0.6350
 3484TIP3    H132087   6.318   1.869   8.581  1.0231 -1.1448 -0.7241
 3484TIP3    H232088   6.397   1.907   8.458 -0.1011 -0.0985 -1.1382
 3485TIP3   OH232089   4.424   1.829   0.579  0.0638  0.2749 -0.0972
 3485TIP3    H132090   4.372   1.877   0.515  0.2703  0.3772 -0.1907
 3485TIP3    H232091   4.380   1.744   0.588 -0.8184  0.8048  0.7378
 3486TIP3   OH232092   2.770   1.478   8.258  0.6166 -0.1557 -0.6271
 3486TIP3    H132093   2.682   1.507   8.282  0.4008 -0.8606 -0.5402
 3486TIP3    H232094   2.812   1.556   8.223 -0.6722 -0.2340 -2.4651
 3487TIP3   OH232095   5.356   1.291   7.960 -0.4796  0.4339  0.2509
 3487TIP3    H132096   5.343   1.376   7.917  2.1340  0.5143 -0.5499
 3487TIP3    H232097   5.365   1.313   8.053 -1.8324  0.7633  0.3256
 3488TIP3   OH232098   4.433   5.404   8.178 -0.2533  0.7111 -0.0916
 3488TIP3    H132099   4.373   5.465   8.221  0.6285  1.3143  0.3048
 3488TIP3    H232100   4.376   5.335   8.144 -1.1683  1.2533  0.2981
 3489TIP3   OH232101   3.220   1.233   1.139 -0.3767  0.2475 -0.3519
 3489TIP3    H132102   3.292   1.287   1.173 -0.2463  0.7355 -1.3584
 3489TIP3    H232103   3.143   1.266   1.185 -0.0557  0.1526  0.2686
 3490TIP3   OH232104   2.829   6.139   7.296  0.3124 -0.5328 -0.3617
 3490TIP3    H132105   2.769   6.112   7.365  0.4380  3.5931  1.6776
 3490TIP3    H232106   2.772   6.165   7.223 -0.0440 -1.4043 -0.3992
 3491TIP3   OH232107   0.075   2.743   0.520 -0.0535  0.5863 -0.1883
 3491TIP3    H132108   0.008   2.675   0.511 -1.2893  2.0056 -2.5953
 3491TIP3    H232109   0.147   2.713   0.464  0.2027  0.3692  0.2516
 3492TIP3   OH232110   5.484   4.875   1.125 -0.2189 -0.2423  0.0164
 3492TIP3    H132111   5.440   4.911   1.202 -1.6628 -0.9079 -0.4647
 3492TIP3    H232112   5.459   4.782   1.125 -0.0851 -0.2902 -1.1527
 3493TIP3   OH232113   3.531   4.783   6.794 -0.1404  0.0577  0.0511
 3493TIP3    H132114   3.458   4.844   6.799 -0.4234 -0.3288  0.9017
 3493TIP3    H232115   3.547   4.771   6.701 -1.0220  0.3081 -0.1342
 3494TIP3   OH232116   2.993   1.391   1.442 -0.3538 -0.4560 -0.3721
 3494TIP3    H132117   2.958   1.302   1.449  0.8012 -0.8919  0.0654
 3494TIP3    H232118   3.079   1.387   1.484  0.6678  0.3404 -2.2713
 3495TIP3   OH232119   0.340   6.410   1.513  0.0215 -0.1499  0.4809
 3495TIP3    H132120   0.410   6.374   1.568  0.2390 -0.4003  0.0424
 3495TIP3    H232121   0.358   6.375   1.426 -0.8351 -0.4592  0.4280
 3496TIP3   OH232122   6.942   0.542   8.104 -0.3395  0.0411 -0.7988
 3496TIP3    H132123   6.973   0.469   8.157 -2.6149 -0.4304  0.0006
 3496TIP3    H232124   6.850   0.553   8.129 -0.2206  2.8587 -1.2691
 3497TIP3   OH232125   2.343   5.259   6.830 -0.3638 -0.7509 -0.1277
 3497TIP3    H132126   2.264   5.244   6.883  0.5656  2.1163  2.3749
 3497TIP3    H232127   2.314   5.318   6.760 -0.4610  0.6461  1.0372
 3498TIP3   OH232128   3.819   0.084   7.622  0.4569  0.0802 -0.6597
 3498TIP3    H132129   3.821   0.042   7.536 -1.9115 -0.4368 -0.5516
 3498TIP3    H232130   3.787   0.173   7.604  0.6135  0.1932 -0.3817
 3499TIP3   OH232131   1.361   0.961   0.580  0.0554  0.2129  0.0093
 3499TIP3    H132132   1.265   0.962   0.582  0.0455  1.5961 -0.0021
 3499TIP3    H232133   1.386   1.048   0.612  1.2842  0.1515 -0.7328
 3500TIP3   OH232134   0.305   0.143   1.213 -0.2580 -0.0456  0.2334
 3500TIP3    H132135   0.389   0.147   1.259  0.0770 -1.2120 -0.2527
 3500TIP3    H232136   0.243   0.185   1.272  1.0358  2.8338 -0.2907
 3501TIP3   OH232137   0.175   0.714   7.448  0.3027  0.3180 -0.0997
 3501TIP3    H132138   0.181   0.796   7.496 -1.7117  0.6372 -0.3067
 3501TIP3    H232139   0.199   0.736   7.358 -0.2937  0.7027 -0.1665
 3502TIP3   OH232140   3.791   0.917   2.546  0.0958  0.1693 -0.0998
 3502TIP3    H132141   3.717   0.901   2.488  2.9135 -2.1688 -3.5201
 3502TIP3    H232142   3.837   0.991   2.506  1.5254 -0.7913 -0.2997
 3503TIP3   OH232143   2.160   5.598   2.394 -0.3243  0.5538  0.7353
 3503TIP3    H132144   2.240   5.651   2.393 -0.6669  1.1306  1.9741
 3503TIP3    H232145   2.090   5.661   2.408 -1.2441  0.2925 -2.2044
 3504TIP3   OH232146   3.651   0.471   2.015 -0.6467  0.0888  0.0960
 3504TIP3    H132147   3.628   0.431   1.932 -0.8413  0.3628  0.0148
 3504TIP3    H232148   3.651   0.565   1.997 -1.4710  0.1989  0.5884
 3505TIP3   OH232149   3.074   2.799   1.171 -0.0311 -0.1921 -0.4441
 3505TIP3    H132150   3.168   2.805   1.156 -0.1583 -0.6403 -1.5667
 3505TIP3    H232151   3.035   2.849   1.100 -0.6749 -1.9075 -1.3582
 3506TIP3   OH232152   3.877   2.011   1.740  0.4118 -0.4625 -0.5571
 3506TIP3    H132153   3.823   1.979   1.669  0.5981  0.8138 -1.3012
 3506TIP3    H232154   3.964   2.023   1.701  0.2295  1.3973 -0.4639
 3507TIP3   OH232155   6.045   4.782   8.323 -0.3374  0.0782 -0.2776
 3507TIP3    H132156   5.986   4.711   8.298  1.1545 -0.9234 -1.0364
 3507TIP3    H232157   5.991   4.861   8.315 -1.3815 -0.7311 -1.7128
 3508TIP3   OH232158   0.601   6.814   0.582  0.8089 -0.3381  0.5175
 3508TIP3    H132159   0.653   6.876   0.632  0.0578 -0.2592  1.2326
 3508TIP3    H232160   0.563   6.756   0.648  0.7918 -1.0080 -0.0661
 3509TIP3   OH232161   2.688   2.535   0.028 -0.0438  0.0893 -0.0756
 3509TIP3    H132162   2.733   2.606   0.073 -0.6820  0.4363  0.0260
 3509TIP3    H232163   2.749   2.507  -0.040  1.5687 -1.4223  1.8687
 3510TIP3   OH232164   0.665   6.239   1.260 -0.0439  0.1894 -0.1197
 3510TIP3    H132165   0.652   6.150   1.225 -1.2007 -0.0518  0.8656
 3510TIP3    H232166   0.577   6.272   1.274  0.3778  1.4802 -0.3713
 3511TIP3   OH232167   2.411   3.775   7.894  0.6995  0.0682  0.9101
 3511TIP3    H132168   2.468   3.698   7.886  0.1975 -0.1177 -2.9608
 3511TIP3    H232169   2.323   3.741   7.875  0.3554  1.4380 -0.0622
 3512TIP3   OH232170   2.972   3.932   8.052  0.4587 -0.5429 -0.3229
 3512TIP3    H132171   2.983   3.840   8.027 -2.6755 -0.6192 -2.0075
 3512TIP3    H232172   2.883   3.954   8.022  0.9532  2.9488  0.3492
 3513TIP3   OH232173   0.325   1.208   0.944  0.9429  0.6680  0.3062
 3513TIP3    H132174   0.256   1.189   1.008 -0.9818 -1.1434 -2.1424
 3513TIP3    H232175   0.388   1.136   0.955 -0.3191 -0.6991 -0.9570
 3514TIP3   OH232176   0.624   1.485   1.500 -0.1632 -0.7224 -0.1102
 3514TIP3    H132177   0.680   1.510   1.573 -0.6188  0.0779 -0.0133
 3514TIP3    H232178   0.681   1.485   1.423  0.3200 -1.5819  0.2397
 3515TIP3   OH232179   3.529   5.751   2.179 -0.2814  0.1376 -0.4320
 3515TIP3    H132180   3.468   5.759   2.252  0.7724 -0.9744  0.6121
 3515TIP3    H232181   3.499   5.674   2.131  0.0533 -0.1810 -0.1389
 3516TIP3   OH232182   1.807   1.861   1.871  0.1151 -0.0010 -0.3458
 3516TIP3    H132183   1.751   1.822   1.938  0.8976 -2.8528 -1.1943
 3516TIP3    H232184   1.890   1.880   1.916  1.1300 -3.1755 -0.6135
 3517TIP3   OH232185   1.524   2.535   8.011 -0.2044  0.0258  0.7545
 3517TIP3    H132186   1.462   2.568   7.946  1.1279  1.7441  0.2539
 3517TIP3    H232187   1.553   2.451   7.976 -0.7073  0.1802 -0.0610
 3518TIP3   OH232188   5.882   2.052   2.449 -0.6248  0.0706  0.2637
 3518TIP3    H132189   5.824   2.109   2.499 -2.1605 -0.4198 -0.8969
 3518TIP3    H232190   5.878   1.967   2.495 -2.1223 -0.4116 -0.7038
 3519TIP3   OH232191   5.693   6.018   7.563 -0.1571  0.3674  0.5232
 3519TIP3    H132192   5.675   6.027   7.469 -2.4690  0.3921  0.9083
 3519TIP3    H232193   5.760   5.950   7.568  0.2481  0.5951 -1.1511
 3520TIP3   OH232194   6.815   6.185   7.426  0.0074 -0.3946 -0.1625
 3520TIP3    H132195   6.733   6.201   7.379  0.3690 -0.5637 -0.8477
 3520TIP3    H232196   6.878   6.162   7.359  0.7757  0.3014  0.3028
 3521TIP3   OH232197   6.417   6.800   8.329 -0.5696 -0.2003  0.3328
 3521TIP3    H132198   6.349   6.803   8.261  0.7924  1.1391 -1.0805
 3521TIP3    H232199   6.412   6.886   8.372  0.8995  0.4143 -0.5936
 3522TIP3   OH232200   0.727   2.507   1.269 -0.6748 -0.5073 -0.0683
 3522TIP3    H132201   0.727   2.591   1.224  2.9164 -0.5715 -0.4629
 3522TIP3    H232202   0.761   2.526   1.356 -0.7516 -1.4314  0.1729
 3523TIP3   OH232203   4.272   2.318   1.138  0.2569 -0.3203  0.8311
 3523TIP3    H132204   4.285   2.407   1.106  0.8508 -0.7555 -0.1865
 3523TIP3    H232205   4.181   2.298   1.119  0.8274 -0.9143 -1.5816
 3524TIP3   OH232206   4.220   4.755   7.463  0.4841  0.0725  0.3031
 3524TIP3    H132207   4.245   4.672   7.423 -0.8107  0.3207 -1.1503
 3524TIP3    H232208   4.129   4.769   7.434  0.4890  1.7114  0.9648
 3525TIP3   OH232209   2.896   1.238   2.244 -0.3742 -0.1678 -0.5671
 3525TIP3    H132210   2.859   1.326   2.252  1.4666  0.5066  2.6006
 3525TIP3    H232211   2.959   1.245   2.173  1.5255  1.9383  1.1531
 3526TIP3   OH232212   3.061   1.896   0.163  0.4649  0.2016 -0.2886
 3526TIP3    H132213   3.000   1.840   0.211 -0.4656  0.2697 -1.3484
 3526TIP3    H232214   3.146   1.852   0.172  0.0446 -0.5254  0.2262
 3527TIP3   OH232215   4.321   0.644   0.469  0.3235  0.2927 -0.1446
 3527TIP3    H132216   4.276   0.630   0.552  1.0456  0.7447  0.3373
 3527TIP3    H232217   4.260   0.612   0.402  0.5692 -2.1145  0.6746
 3528TIP3   OH232218   1.215   3.599   8.495  0.4728  0.3872 -0.0024
 3528TIP3    H132219   1.129   3.631   8.520  0.4180 -0.8963  1.5767
 3528TIP3    H232220   1.206   3.578   8.402 -1.3292 -0.9019  0.4051
 3529TIP3   OH232221   3.809   6.914   8.230 -0.3775 -0.2299 -0.4102
 3529TIP3    H132222   3.857   6.848   8.181  0.1521  0.5050 -0.9008
 3529TIP3    H232223   3.755   6.957   8.164 -1.8025 -1.0956  0.1416
 3530TIP3   OH232224   3.565   4.325   8.117 -0.1649  0.5057  0.0342
 3530TIP3    H132225   3.633   4.260   8.133 -1.5442 -0.6245  1.4575
 3530TIP3    H232226   3.502   4.281   8.061  0.8411  1.9919 -2.4623
 3531TIP3   OH232227   0.841   3.313   8.471  0.5239 -0.3851  0.4222
 3531TIP3    H132228   0.821   3.321   8.564 -0.2975  0.8308  0.1639
 3531TIP3    H232229   0.759   3.335   8.427  0.7408 -1.5065 -0.5931
 3532TIP3   OH232230   3.553   1.244   7.108 -1.0329 -0.1118 -0.3286
 3532TIP3    H132231   3.515   1.255   7.020  1.9590  2.8303 -1.4557
 3532TIP3    H232232   3.601   1.161   7.103 -0.2446  0.4029 -1.7865
 3533TIP3   OH232233   3.666   0.714   0.196 -0.4008 -0.2750  0.0399
 3533TIP3    H132234   3.760   0.715   0.184 -0.5988  0.5173 -1.7129
 3533TIP3    H232235   3.633   0.780   0.135 -1.9571  0.8093  1.9471
 3534TIP3   OH232236   2.028   0.706   0.922  0.0982  0.4582 -0.5263
 3534TIP3    H132237   1.933   0.707   0.913  0.0853  2.6880 -0.7812
 3534TIP3    H232238   2.054   0.798   0.915  2.0512  0.2236  2.0770
 3535TIP3   OH232239   1.309   0.321   0.743  0.2539  0.4954  0.0331
 3535TIP3    H132240   1.312   0.397   0.801  1.3203  0.6589 -0.2270
 3535TIP3    H232241   1.356   0.253   0.790  1.5218  0.7601 -0.8161
 3536TIP3   OH232242   0.907   1.719   1.384 -0.4510 -0.0681 -0.0272
 3536TIP3    H132243   0.970   1.781   1.347 -0.3747  0.5812  1.1216
 3536TIP3    H232244   0.862   1.770   1.452 -1.6868 -0.7474 -0.3197
 3537TIP3   OH232245   1.910   5.632   0.900 -0.1895 -0.6455  0.1435
 3537TIP3    H132246   1.882   5.685   0.826  0.8291  0.4286  0.4996
 3537TIP3    H232247   1.837   5.635   0.961  0.1926  1.1256  0.5516
 3538TIP3   OH232248   3.115   5.221   1.778 -0.1124 -0.1069 -0.1054
 3538TIP3    H132249   3.175   5.155   1.814  3.2213  2.7985  0.2433
 3538TIP3    H232250   3.130   5.217   1.683 -0.5778 -0.4240 -0.1669
 3539TIP3   OH232251   0.323   6.583   0.691  0.7599  0.3497 -0.9751
 3539TIP3    H132252   0.362   6.498   0.671  1.5999 -0.0555  1.9830
 3539TIP3    H232253   0.229   6.565   0.701  1.0588 -0.4320  0.5214
 3540TIP3   OH232254   5.893   3.991   1.678 -0.1366 -0.0548  0.2493
 3540TIP3    H132255   5.924   3.901   1.685  1.9783  0.4578 -1.4790
 3540TIP3    H232256   5.799   3.985   1.698  0.3512 -2.2265  2.4368
 3541TIP3   OH232257   4.735   5.003   0.079 -0.1818  0.5803 -0.1174
 3541TIP3    H132258   4.750   5.048  -0.004 -0.0929 -1.5600 -1.3449
 3541TIP3    H232259   4.770   4.915   0.065 -2.5145 -0.6800  1.2653
 3542TIP3   OH232260   1.650   1.282   1.902  0.3114 -0.1403  0.3299
 3542TIP3    H132261   1.707   1.341   1.951 -0.8532  0.9971  0.3775
 3542TIP3    H232262   1.637   1.326   1.817 -0.6574 -0.2467  0.4072
 3543TIP3   OH232263   4.641   4.298   6.342  0.3258  0.4710 -0.4237
 3543TIP3    H132264   4.719   4.353   6.352 -0.0834  0.6548  2.5799
 3543TIP3    H232265   4.666   4.213   6.378 -0.4226  0.0487 -0.8683
 3544TIP3   OH232266   5.999   0.978   1.716 -0.0910 -0.0814  0.1689
 3544TIP3    H132267   6.073   1.038   1.713 -0.1423 -0.0559 -1.1958
 3544TIP3    H232268   6.036   0.892   1.694 -0.4447 -0.0800 -0.4635
 3545TIP3   OH232269   1.338   0.828   2.046 -0.3089 -0.2974 -0.3843
 3545TIP3    H132270   1.257   0.853   2.091  0.1641  1.1499 -0.2866
 3545TIP3    H232271   1.388   0.910   2.040  1.2252 -1.2046 -0.2805
 3546TIP3   OH232272   1.416   0.199   6.745  0.7574 -0.0327 -0.0507
 3546TIP3    H132273   1.439   0.106   6.750  3.0753  0.4856  0.1705
 3546TIP3    H232274   1.498   0.243   6.721 -0.6445  1.8096 -1.8487
 3547TIP3   OH232275   6.225   1.816   1.943  0.2675 -0.7045 -0.2564
 3547TIP3    H132276   6.192   1.829   1.854 -1.6697  1.2344  0.6435
 3547TIP3    H232277   6.186   1.734   1.971 -1.7678  0.2285 -0.1607
 3548TIP3   OH232278   3.096   6.549   7.542 -0.2607  0.7432  0.1559
 3548TIP3    H132279   3.126   6.615   7.480 -1.9152  1.8224  0.4224
 3548TIP3    H232280   3.103   6.592   7.628 -1.9030  0.8428  0.2788
 3549TIP3   OH232281   3.331   5.625   7.477  0.0132  0.2390  1.1105
 3549TIP3    H132282   3.311   5.706   7.429  1.2872  0.0323  0.1641
 3549TIP3    H232283   3.422   5.637   7.506 -0.2096 -0.3353  2.0819
 3550TIP3   OH232284   1.911   4.794   0.634 -0.1432  0.1135  0.2254
 3550TIP3    H132285   1.969   4.828   0.567 -0.1259  0.8377  0.6001
 3550TIP3    H232286   1.962   4.725   0.677  0.2620  0.4191  0.2409
 3551TIP3   OH232287   4.299   4.639   8.225  0.3850  0.1220 -0.5269
 3551TIP3    H132288   4.216   4.605   8.258  1.5003 -2.4763 -0.1181
 3551TIP3    H232289   4.282   4.658   8.133 -0.7667 -0.0284 -0.3597
 3552TIP3   OH232290   3.684   3.463   8.203  0.1108 -0.3527 -0.0154
 3552TIP3    H132291   3.637   3.520   8.264  0.5238  0.6474 -0.6184
 3552TIP3    H232292   3.696   3.382   8.252 -0.7190 -0.0316  0.7662
 3553TIP3   OH232293   6.419   3.084   2.003  0.3332  0.2688 -0.0832
 3553TIP3    H132294   6.406   3.032   2.082  0.2655  1.6329  0.8390
 3553TIP3    H232295   6.505   3.126   2.017  0.8887 -0.4240 -1.2977
 3554TIP3   OH232296   6.599   1.224   1.555 -0.1571  0.1757 -0.1705
 3554TIP3    H132297   6.669   1.162   1.577 -0.8675 -0.8189 -0.6539
 3554TIP3    H232298   6.604   1.290   1.624  0.4849 -0.5307  0.4835
 3555TIP3   OH232299   5.910   6.708   1.580 -0.1540  1.1198  0.0294
 3555TIP3    H132300   5.963   6.785   1.562 -1.5452  2.1316  0.0668
 3555TIP3    H232301   5.821   6.742   1.592 -1.2070 -0.6539 -1.8756
 3556TIP3   OH232302   4.611   4.060   0.200  0.0346 -0.4287  0.2937
 3556TIP3    H132303   4.675   4.126   0.173 -0.6759  0.1773  0.0520
 3556TIP3    H232304   4.611   3.996   0.128 -1.3533  0.8247 -0.9032
 3557TIP3   OH232305   1.744   4.666   8.006 -0.3934  0.0435  0.3505
 3557TIP3    H132306   1.767   4.686   8.097 -1.5075  0.8792  0.4692
 3557TIP3    H232307   1.652   4.692   7.998  0.1513  1.6791 -1.4691
 3558TIP3   OH232308   1.828   2.980   6.809  0.5020  0.3238  0.4840
 3558TIP3    H132309   1.839   2.899   6.858  0.0113  0.5172  0.9266
 3558TIP3    H232310   1.733   2.988   6.797  0.5625  0.7038  0.2261
 3559TIP3   OH232311   5.679   1.764   8.416  0.3635 -0.0253 -0.3005
 3559TIP3    H132312   5.586   1.778   8.432  0.2549 -1.9638  1.2899
 3559TIP3    H232313   5.713   1.736   8.502  1.7348 -2.3341 -1.4965
 3560TIP3   OH232314   1.546   4.447   0.878 -0.0703 -0.2662 -0.0528
 3560TIP3    H132315   1.509   4.364   0.848  1.8908 -1.3312  0.2858
 3560TIP3    H232316   1.547   4.503   0.800 -3.9641  0.5272  0.2986
 3561TIP3   OH232317   3.930   2.181   2.433 -0.1939  0.4069 -0.6388
 3561TIP3    H132318   3.876   2.117   2.387  1.6588 -0.8212 -1.1824
 3561TIP3    H232319   3.958   2.242   2.365  1.8074 -0.8940 -1.0451
 3562TIP3   OH232320   4.566   0.346   7.572 -0.1909 -0.0257 -0.1586
 3562TIP3    H132321   4.651   0.305   7.584  0.6593  2.1719  2.2699
 3562TIP3    H232322   4.571   0.390   7.487  1.4600  0.7929  0.3357
 3563TIP3   OH232323   0.505   6.101   8.003  0.6350 -0.3897  0.1425
 3563TIP3    H132324   0.546   6.186   8.014 -1.4356  0.7052 -0.1105
 3563TIP3    H232325   0.485   6.071   8.091 -2.3671  1.4040  0.2171
 3564TIP3   OH232326   1.372   4.724   7.597  0.0228  0.3568  0.2356
 3564TIP3    H132327   1.395   4.801   7.544 -0.2529  0.5426  0.3792
 3564TIP3    H232328   1.370   4.757   7.687 -2.3277  0.7650  0.1146
 3565TIP3   OH232329   5.740   2.908   7.691  0.0540  0.5561  0.0814
 3565TIP3    H132330   5.652   2.884   7.718 -1.0171  2.6184 -1.3230
 3565TIP3    H232331   5.739   3.004   7.688  1.4577  0.5866 -2.6741
 3566TIP3   OH232332   4.405   2.880   0.003  0.5222 -0.0446 -0.9772
 3566TIP3    H132333   4.342   2.859  -0.066 -0.8779 -2.5425  0.9252
 3566TIP3    H232334   4.369   2.958   0.045  0.0526  0.0205 -1.4883
 3567TIP3   OH232335   1.631   5.616   0.576 -0.0189 -0.3557 -0.1043
 3567TIP3    H132336   1.689   5.688   0.600  0.1967 -0.5426 -0.0599
 3567TIP3    H232337   1.576   5.651   0.506  1.1886 -0.6443 -1.2457
 3568TIP3   OH232338   2.094   4.098   7.430 -0.9997  0.3840  0.5068
 3568TIP3    H132339   2.059   4.047   7.357  0.7095  0.7393 -0.6209
 3568TIP3    H232340   2.042   4.071   7.506  0.4249 -3.9079  0.2562
 3569TIP3   OH232341   6.787   4.327   1.333 -0.4711 -0.1471  0.2103
 3569TIP3    H132342   6.736   4.247   1.324  1.7536 -1.5230 -0.9249
 3569TIP3    H232343   6.722   4.395   1.353 -2.7095 -1.7892 -1.0550
 3570TIP3   OH232344   4.243   1.680   0.236 -0.0146  0.4184 -0.8478
 3570TIP3    H132345   4.151   1.677   0.265 -0.0243  2.0395 -0.6170
 3570TIP3    H232346   4.274   1.766   0.264  2.3486 -1.0061  1.3256
 3571TIP3   OH232347   2.706   6.450   2.070 -0.5572  0.5922  0.0542
 3571TIP3    H132348   2.715   6.355   2.063  0.3315  0.3040  3.4261
 3571TIP3    H232349   2.791   6.484   2.044  0.5873  0.0604  2.7554
 3572TIP3   OH232350   2.277   5.531   8.017 -0.1885 -0.0410  0.1764
 3572TIP3    H132351   2.305   5.517   7.926  1.0390  0.2830  0.4856
 3572TIP3    H232352   2.217   5.605   8.012 -0.4153 -0.2539 -0.4108
 3573TIP3   OH232353   0.757   3.634   1.865 -0.4139  0.0539 -0.3736
 3573TIP3    H132354   0.803   3.713   1.838  3.2740 -1.1138  1.8506
 3573TIP3    H232355   0.705   3.660   1.941 -0.2679  0.5728 -0.4541
 3574TIP3   OH232356   1.244   0.317   7.104  0.0919 -0.0496  0.2999
 3574TIP3    H132357   1.210   0.250   7.045  1.1239  1.3033 -1.9311
 3574TIP3    H232358   1.265   0.391   7.048  2.5799  0.7778  2.1303
 3575TIP3   OH232359   0.427   0.483   1.447 -0.2967 -0.4104  0.0133
 3575TIP3    H132360   0.340   0.499   1.411 -0.3886  0.1582  0.4805
 3575TIP3    H232361   0.487   0.523   1.384 -0.5023  1.4846  0.9626
 3576TIP3   OH232362   3.043   5.687   1.255 -0.2356  0.8435  0.4791
 3576TIP3    H132363   3.100   5.748   1.301  0.9493  0.9933 -1.0820
 3576TIP3    H232364   2.954   5.714   1.278  0.2920  2.1725  1.0390
 3577TIP3   OH232365   3.813   5.302   1.496  0.4405  0.3017 -0.4216
 3577TIP3    H132366   3.815   5.214   1.459  1.4097  0.3812 -0.5794
 3577TIP3    H232367   3.784   5.358   1.424  0.9707  0.2703 -0.6596
 3578TIP3   OH232368   1.913   1.583   0.387  0.4393  0.2511  0.7498
 3578TIP3    H132369   1.909   1.505   0.331 -2.0741  2.1725 -2.0186
 3578TIP3    H232370   1.978   1.639   0.345  1.2148  0.2853  1.9366
 3579TIP3   OH232371   1.425   5.326   1.117  0.6021  0.1696 -0.2716
 3579TIP3    H132372   1.388   5.414   1.115 -0.4985 -0.2537  0.4932
 3579TIP3    H232373   1.438   5.303   1.025  0.7653  1.0755 -0.4793
 3580TIP3   OH232374   6.007   2.221   7.716  0.5562 -0.4613  0.4504
 3580TIP3    H132375   5.962   2.221   7.800 -0.1194  0.5795  0.1246
 3580TIP3    H232376   5.940   2.193   7.653  0.7530 -0.2217  0.1288
 3581TIP3   OH232377   1.552   3.733   7.052  0.3619  0.0319 -0.1536
 3581TIP3    H132378   1.526   3.682   6.976  1.8368  0.8953 -1.2791
 3581TIP3    H232379   1.478   3.724   7.113 -1.9843  1.2362 -2.5844
 3582TIP3   OH232380   6.104   4.887   8.044  0.0200 -0.1599 -0.2922
 3582TIP3    H132381   6.156   4.956   8.085  2.1790 -0.9726 -1.5127
 3582TIP3    H232382   6.144   4.806   8.073 -0.2794 -0.8013 -1.5945
 3583TIP3   OH232383   2.541   6.900   2.417 -0.8118 -0.3494  0.5227
 3583TIP3    H132384   2.624   6.936   2.447 -1.9734  2.1686  0.9883
 3583TIP3    H232385   2.557   6.806   2.408  2.0766  0.0641  0.4731
 3584TIP3   OH232386   6.145   2.501   0.927 -0.2143 -0.4828  0.2249
 3584TIP3    H132387   6.148   2.583   0.878  1.9413 -0.3111  0.5268
 3584TIP3    H232388   6.052   2.485   0.943 -0.7677  1.0650 -1.1999
 3585TIP3   OH232389   0.500   0.059   7.230 -0.3688  0.0256 -0.4255
 3585TIP3    H132390   0.539  -0.029   7.237 -0.2980 -0.0051 -1.1538
 3585TIP3    H232391   0.572   0.118   7.252 -0.7155 -0.1179  1.2226
 3586TIP3   OH232392   1.421   4.922   0.143 -0.0632  0.5604  0.1904
 3586TIP3    H132393   1.346   4.951   0.092 -1.1100  0.4303  1.6021
 3586TIP3    H232394   1.426   4.984   0.216  3.3164  2.7163 -1.6001
 3587TIP3   OH232395   3.068   0.824   0.573 -0.0296  0.3929  0.1789
 3587TIP3    H132396   3.114   0.843   0.491 -0.3347 -1.9452 -0.6152
 3587TIP3    H232397   3.138   0.822   0.639  0.5262  0.2853 -0.3973
 3588TIP3   OH232398   0.002   5.484   1.284 -0.3144  0.0038  0.1488
 3588TIP3    H132399   0.007   5.579   1.277  0.0413 -0.0903 -0.9922
 3588TIP3    H232400   0.086   5.459   1.322  0.0029  0.0632 -0.5098
 3589TIP3   OH232401   4.796   6.335   2.285  0.1252  0.1602 -0.3330
 3589TIP3    H132402   4.853   6.381   2.223  2.5904 -1.6579  0.4347
 3589TIP3    H232403   4.845   6.336   2.367 -1.7108 -0.1259  0.8131
 3590TIP3   OH232404   6.644   0.113   8.306 -0.3790  0.4751 -0.5544
 3590TIP3    H132405   6.548   0.117   8.308 -0.3725  0.8926 -0.8898
 3590TIP3    H232406   6.672   0.205   8.305  0.0885  0.4038  1.6296
 3591TIP3   OH232407   2.949   0.623   2.006 -0.4342  0.0370 -0.3993
 3591TIP3    H132408   2.932   0.716   1.991 -1.4929  0.0942  0.9642
 3591TIP3    H232409   3.038   0.620   2.041 -0.7455  0.6565  0.4742
 3592TIP3   OH232410   5.000   5.339   1.682  0.0777 -0.4508  0.2827
 3592TIP3    H132411   4.972   5.248   1.691 -1.8455  0.1468  0.8806
 3592TIP3    H232412   5.037   5.361   1.767 -0.8052 -0.2823  0.6411
 3593TIP3   OH232413   5.443   3.473   8.518 -0.5156 -0.7438 -0.4931
 3593TIP3    H132414   5.517   3.433   8.472 -0.0213 -0.9954  0.5101
 3593TIP3    H232415   5.453   3.567   8.502  0.2130 -0.7469 -0.0916
 3594TIP3   OH232416   2.154   6.881   1.418  0.6631  0.1278 -0.5524
 3594TIP3    H132417   2.207   6.958   1.398 -0.1315  0.7818 -0.1675
 3594TIP3    H232418   2.068   6.901   1.383  0.0748  0.0098  0.7816
 3595TIP3   OH232419   3.043   0.058   1.133  1.1261  0.2311  0.0516
 3595TIP3    H132420   3.025   0.119   1.060  1.0441  1.3090  0.9404
 3595TIP3    H232421   2.959   0.015   1.149  1.2056 -0.1950 -0.6476
 3596TIP3   OH232422   5.268   6.833   1.907  0.5564  0.3323  0.0650
 3596TIP3    H132423   5.354   6.796   1.925  0.5088  0.0303 -0.3302
 3596TIP3    H232424   5.221   6.765   1.859  0.5460  0.9648 -0.8635
 3597TIP3   OH232425   3.183   2.981   0.016 -0.7362 -0.6117 -0.2010
 3597TIP3    H132426   3.217   3.059   0.060 -0.3562 -0.5306 -0.6342
 3597TIP3    H232427   3.187   2.912   0.083  0.9455 -0.7824 -0.4168
 3598TIP3   OH232428   3.721   3.960   0.868  0.1852  0.2243 -0.1423
 3598TIP3    H132429   3.691   4.041   0.909 -0.5841  0.1525 -0.5392
 3598TIP3    H232430   3.680   3.890   0.918  1.1963  0.0527  0.4717
 3599TIP3   OH232431   3.637   4.933   1.735  0.1442  0.3673  0.0535
 3599TIP3    H132432   3.610   5.025   1.731 -3.0607 -0.4560 -2.9539
 3599TIP3    H232433   3.601   4.901   1.818 -0.5595  1.3495  0.1461
 3600TIP3   OH232434   4.237   6.936   8.336 -0.7044  0.1760  0.2287
 3600TIP3    H132435   4.166   6.991   8.304  1.5154  2.3143 -1.4642
 3600TIP3    H232436   4.295   6.996   8.383 -0.2192 -1.5693  2.0018
 3601TIP3   OH232437   6.745   3.211   1.399 -0.2083 -0.2284 -0.4578
 3601TIP3    H132438   6.729   3.127   1.356 -0.8344 -0.2778 -0.1436
 3601TIP3    H232439   6.790   3.188   1.480 -1.7110 -0.4125  0.3605
 3602TIP3   OH232440   3.756   1.646   2.045  0.1209 -0.0194 -0.1915
 3602TIP3    H132441   3.690   1.713   2.029  1.1559  0.6013 -2.1974
 3602TIP3    H232442   3.837   1.682   2.008  1.2922 -1.3253  0.9662
 3603TIP3   OH232443   1.367   1.588   8.466 -0.5928 -0.1941  0.4237
 3603TIP3    H132444   1.363   1.657   8.533 -1.3783  0.7643 -0.5828
 3603TIP3    H232445   1.277   1.558   8.457 -0.5553 -0.0751 -0.4320
 3604TIP3   OH232446   1.605   0.781   6.880  0.1965  0.1993 -0.0267
 3604TIP3    H132447   1.662   0.840   6.830  0.7483 -1.2852 -1.2151
 3604TIP3    H232448   1.656   0.759   6.958  0.6163  0.0922 -0.3281
 3605TIP3   OH232449   6.482   4.881   1.084 -0.2317  0.0090 -0.5879
 3605TIP3    H132450   6.466   4.975   1.086 -2.5655 -0.2371  2.8985
 3605TIP3    H232451   6.569   4.872   1.046  1.7844  3.9406  2.3504
 3606TIP3   OH232452   6.445   5.035   0.749 -0.4235  0.2977 -0.2566
 3606TIP3    H132453   6.532   5.025   0.710 -0.3393 -0.4390  0.0953
 3606TIP3    H232454   6.393   4.965   0.710 -0.4652 -0.1503  0.5751
 3607TIP3   OH232455   2.385   6.363   2.278  0.1122  0.2009  0.5674
 3607TIP3    H132456   2.389   6.456   2.256 -2.0011  0.2713  0.2238
 3607TIP3    H232457   2.448   6.352   2.348  1.0809  1.6888 -0.0121
 3608TIP3   OH232458   1.016   2.255   0.857 -0.0105  0.6036  0.1290
 3608TIP3    H132459   0.981   2.284   0.773  0.8513  0.8975 -0.1467
 3608TIP3    H232460   1.001   2.330   0.916 -0.8940  0.2792  0.3250
 3609TIP3   OH232461   6.394   3.392   1.055 -0.5032  0.4169  0.0618
 3609TIP3    H132462   6.339   3.428   0.986 -2.7736 -3.0435 -0.1944
 3609TIP3    H232463   6.460   3.340   1.010  2.1089  3.0930  0.4551
 3610TIP3   OH232464   5.819   2.329   0.734 -0.2446  0.0908  0.1359
 3610TIP3    H132465   5.738   2.374   0.708 -0.7096 -1.6481 -1.5667
 3610TIP3    H232466   5.881   2.348   0.664  0.8200  1.2501  1.3371
 3611TIP3   OH232467   0.633   2.120   7.939 -0.1672 -0.5468  0.1999
 3611TIP3    H132468   0.726   2.128   7.956  0.5338 -1.5874 -2.6585
 3611TIP3    H232469   0.620   2.028   7.916 -2.0019 -0.5118  0.8420
 3612TIP3   OH232470   4.368   1.604   2.409 -0.3438  0.3328 -0.1117
 3612TIP3    H132471   4.277   1.593   2.436  0.0196 -0.7405  0.7749
 3612TIP3    H232472   4.418   1.598   2.491  0.6886 -1.4857 -0.8141
 3613TIP3   OH232473   6.501   3.614   1.159  0.2967  0.2192  0.6304
 3613TIP3    H132474   6.449   3.546   1.116  0.7541  0.4240 -0.2782
 3613TIP3    H232475   6.560   3.567   1.218  0.0992 -0.1170  0.5587
 3614TIP3   OH232476   4.564   4.718   1.225  0.3766 -0.4123 -0.7191
 3614TIP3    H132477   4.569   4.708   1.320 -0.3058  0.8928 -0.5210
 3614TIP3    H232478   4.610   4.642   1.190  1.6652 -0.3204  0.6659
 3615TIP3   OH232479   1.424   2.026   2.200 -0.3774 -0.0894 -0.0245
 3615TIP3    H132480   1.389   1.964   2.265  1.2834  0.6190  1.6416
 3615TIP3    H232481   1.397   1.989   2.116  0.3653 -2.9938  0.8760
 3616TIP3   OH232482   5.644   4.701   7.527 -0.0920  0.4133 -0.4221
 3616TIP3    H132483   5.582   4.631   7.551  0.4424  0.9954  3.2376
 3616TIP3    H232484   5.721   4.654   7.496 -0.7127 -0.4940 -0.6579
 3617TIP3   OH232485   5.392   2.433   8.365  0.6367 -0.6291 -0.8775
 3617TIP3    H132486   5.475   2.433   8.413  1.1327  1.9163 -1.5819
 3617TIP3    H232487   5.381   2.342   8.335  3.4754 -0.9303 -1.2569
 3618TIP3   OH232488   0.489   2.103   0.087  0.3379  0.4192 -0.2966
 3618TIP3    H132489   0.501   2.189   0.048 -0.3411  0.2500 -0.9041
 3618TIP3    H232490   0.453   2.049   0.016  1.4429 -0.5648 -0.1480
 3619TIP3   OH232491   2.549   3.563   0.484  0.1041  0.1484  0.2778
 3619TIP3    H132492   2.598   3.497   0.533 -2.2815 -0.8032  1.4975
 3619TIP3    H232493   2.499   3.513   0.419 -0.1646  0.9834 -0.1812
 3620TIP3   OH232494   5.054   2.146   1.206  0.6660 -0.4506 -0.2413
 3620TIP3    H132495   5.137   2.157   1.253 -0.4922 -2.1282  2.4069
 3620TIP3    H232496   5.036   2.052   1.209 -2.0060  0.0153  0.5368
 3621TIP3   OH232497   0.478   3.928   0.854  0.7468 -0.0731  0.2047
 3621TIP3    H132498   0.539   3.998   0.829 -1.5503  1.7219 -0.8037
 3621TIP3    H232499   0.507   3.852   0.805  0.8955  1.3479 -2.0523
 3622TIP3   OH232500   6.449   4.740   0.323  0.1605  0.1545 -0.1036
 3622TIP3    H132501   6.378   4.719   0.262 -0.8479 -1.4051  1.4869
 3622TIP3    H232502   6.515   4.673   0.306 -0.0718 -0.2115  0.3977
 3623TIP3   OH232503   1.439   5.838   0.973 -0.2656  0.1755  0.7296
 3623TIP3    H132504   1.361   5.890   0.993  0.2194  0.3022  2.4837
 3623TIP3    H232505   1.510   5.885   1.016  0.5933 -0.5753  0.1615
 3624TIP3   OH232506   1.694   0.337   0.003 -0.2398 -0.0573  0.0861
 3624TIP3    H132507   1.760   0.403  -0.017 -1.1351  0.5743 -0.9542
 3624TIP3    H232508   1.625   0.385   0.048 -0.3413 -0.5527  0.4709
 3625TIP3   OH232509   3.610   2.226   6.931  0.1762 -0.3913 -0.1236
 3625TIP3    H132510   3.515   2.231   6.940  0.0156 -1.2541 -1.1866
 3625TIP3    H232511   3.640   2.316   6.947 -0.8782  0.0452 -0.5110
 3626TIP3   OH232512   6.479   6.012   7.380  0.2579 -0.2768  0.4048
 3626TIP3    H132513   6.543   5.954   7.338 -1.2498 -2.0871  0.4683
 3626TIP3    H232514   6.451   6.071   7.310  2.2387  0.8446  0.4816
 3627TIP3   OH232515   4.696   1.522   1.497 -0.4777  0.6190  0.2025
 3627TIP3    H132516   4.727   1.482   1.578  0.7101  1.5859  0.2640
 3627TIP3    H232517   4.677   1.613   1.521 -0.7158  0.7512 -0.4615
 3628TIP3   OH232518   3.579   6.601   1.041  0.5646 -0.3042 -0.3409
 3628TIP3    H132519   3.647   6.542   1.072 -0.2475 -1.1982 -0.2408
 3628TIP3    H232520   3.616   6.641   0.962  1.5983  0.0075  0.2763
 3629TIP3   OH232521   6.124   0.461   2.770  0.6574 -0.1610 -0.8131
 3629TIP3    H132522   6.084   0.387   2.815 -2.8059  0.3160 -2.8141
 3629TIP3    H232523   6.115   0.534   2.832 -0.3063 -0.3810 -0.6807
 3630TIP3   OH232524   2.804   1.676   8.524 -0.6399  0.0592  0.4859
 3630TIP3    H132525   2.812   1.754   8.469 -0.1730 -0.7744 -0.6769
 3630TIP3    H232526   2.710   1.657   8.524 -0.6063 -0.1716 -0.4056
 3631TIP3   OH232527   4.885   2.493   1.422 -1.3419  0.0657 -0.7168
 3631TIP3    H132528   4.847   2.416   1.465 -0.3316  0.0447  0.1726
 3631TIP3    H232529   4.868   2.479   1.329 -0.8672 -1.4142 -0.6028
 3632TIP3   OH232530   4.979   1.398   0.057 -1.0471 -0.0733  0.1610
 3632TIP3    H132531   5.043   1.373   0.124 -1.6552 -0.3361  0.6503
 3632TIP3    H232532   4.906   1.339   0.070 -0.8805 -0.6111 -1.2162
 3633TIP3   OH232533   2.388   4.681   1.320 -0.1372  1.3364 -0.0261
 3633TIP3    H132534   2.344   4.598   1.304  2.0197 -0.1273  1.1829
 3633TIP3    H232535   2.360   4.737   1.247 -0.4358 -0.9242 -1.7655
 3634TIP3   OH232536   3.491   6.088   8.373 -0.2066  0.0768 -0.4257
 3634TIP3    H132537   3.548   6.107   8.298 -0.6201  0.7543 -0.5742
 3634TIP3    H232538   3.448   6.006   8.350 -0.4236  0.3437 -0.9885
 3635TIP3   OH232539   6.130   4.101   6.627 -0.1009 -0.1806 -0.1981
 3635TIP3    H132540   6.219   4.067   6.619  0.7856  1.9927 -0.2083
 3635TIP3    H232541   6.099   4.107   6.537  0.8309  1.6343 -0.4498
 3636TIP3   OH232542   6.865   4.721   6.398  0.2895 -0.2273  0.1551
 3636TIP3    H132543   6.935   4.670   6.357  0.1027 -0.0628 -0.3804
 3636TIP3    H232544   6.876   4.810   6.364 -0.5455 -0.3316 -0.4251
 3637TIP3   OH232545   3.938   0.001   0.901 -0.3443  0.7279 -0.0789
 3637TIP3    H132546   3.930   0.084   0.949  3.3164  0.2121  1.7516
 3637TIP3    H232547   4.028  -0.000   0.870  0.9026 -3.8179  2.7583
 3638TIP3   OH232548   0.177   6.249   0.145  0.4031  0.5051  0.0144
 3638TIP3    H132549   0.240   6.300   0.197 -0.2218  0.3379  0.9720
 3638TIP3    H232550   0.227   6.173   0.116  0.7809  0.6180  0.3479
 3639TIP3   OH232551   4.168   4.586   1.080  0.6110  0.6817  0.0962
 3639TIP3    H132552   4.238   4.582   1.014  1.0362  0.7228  0.5323
 3639TIP3    H232553   4.114   4.659   1.053  0.2355  0.1179 -0.7287
 3640TIP3   OH232554   6.435   5.760   1.806 -0.1216 -0.4653  0.8278
 3640TIP3    H132555   6.386   5.680   1.790 -0.1716 -0.3930  0.6127
 3640TIP3    H232556   6.383   5.808   1.870 -1.0076  0.2131 -0.3684
 3641TIP3   OH232557   4.771   4.197   1.902 -0.2506  0.3804 -0.4135
 3641TIP3    H132558   4.839   4.238   1.849 -0.0703  0.6722  0.0465
 3641TIP3    H232559   4.792   4.220   1.992 -0.2505 -0.5739 -0.1589
 3642TIP3   OH232560   5.744   6.161   1.008  0.0370 -1.0234 -0.3416
 3642TIP3    H132561   5.788   6.141   0.926  0.1970 -1.2143 -0.2127
 3642TIP3    H232562   5.787   6.104   1.072 -1.3196 -2.2268 -0.4563
 3643TIP3   OH232563   0.949   4.173   6.382 -0.0246 -0.1363  0.3633
 3643TIP3    H132564   0.868   4.219   6.404  0.4399  1.6439 -1.3441
 3643TIP3    H232565   0.936   4.084   6.415 -2.2179  0.3932  1.0883
 3644TIP3   OH232566   5.986   6.506   2.792 -0.7783  0.0937  0.1363
 3644TIP3    H132567   5.981   6.454   2.873 -0.0190 -0.2346 -0.0205
 3644TIP3    H232568   6.072   6.547   2.795 -0.9634  0.5211 -0.2513
 3645TIP3   OH232569   4.323   5.679   0.081  0.5546  0.1060 -0.1422
 3645TIP3    H132570   4.293   5.628   0.156  2.9539  1.6917  2.1058
 3645TIP3    H232571   4.380   5.620   0.033  2.8883  0.3511  2.1231
 3646TIP3   OH232572   6.743   2.576   1.389  0.6289 -0.0661 -0.1662
 3646TIP3    H132573   6.713   2.585   1.479  1.9363  0.3889  0.2521
 3646TIP3    H232574   6.666   2.596   1.336  0.2694  1.4551  0.8495
 3647TIP3   OH232575   0.927   5.295   6.495  0.1283 -0.2648  0.2027
 3647TIP3    H132576   0.973   5.375   6.518 -1.0025  0.6444 -0.5829
 3647TIP3    H232577   0.875   5.273   6.572 -0.7811  0.6718 -0.1213
 3648TIP3   OH232578   6.813   1.606   8.089 -0.3595 -0.3978  0.4261
 3648TIP3    H132579   6.856   1.537   8.139  2.3476  0.7419 -0.1591
 3648TIP3    H232580   6.846   1.687   8.127  0.2148  0.5129 -1.8652
 3649TIP3   OH232581   1.804   5.405   1.997  0.5905 -0.6598  0.8450
 3649TIP3    H132582   1.857   5.390   1.920  1.4625  1.4596  0.9629
 3649TIP3    H232583   1.863   5.447   2.060 -0.0775 -2.3252  2.7301
 3650TIP3   OH232584   0.163   4.185   0.669  0.2788  0.1627 -0.1298
 3650TIP3    H132585   0.181   4.091   0.673 -1.6028 -0.4278 -2.8034
 3650TIP3    H232586   0.094   4.198   0.735  1.2594 -0.0922  0.9726
 3651TIP3   OH232587   6.351   3.847   1.472 -0.2975  0.0746  0.6251
 3651TIP3    H132588   6.335   3.932   1.429  1.0303  0.6138  1.1613
 3651TIP3    H232589   6.266   3.803   1.468 -0.9051  1.2392 -0.0743
 3652TIP3   OH232590   4.613   0.202   0.430 -0.0697  0.1951 -0.4795
 3652TIP3    H132591   4.705   0.227   0.432 -0.1578  0.5645 -0.9477
 3652TIP3    H232592   4.609   0.130   0.367 -0.2650  0.8624 -1.2334
 3653TIP3   OH232593   0.978   4.542   8.440  0.0582 -0.0649  0.3435
 3653TIP3    H132594   0.947   4.454   8.415 -0.3124  0.5262 -1.4538
 3653TIP3    H232595   0.904   4.580   8.487 -0.5455 -0.0287 -0.6069
 3654TIP3   OH232596   1.203   5.095   6.231 -0.1892 -0.9782 -0.3043
 3654TIP3    H132597   1.184   5.023   6.172 -0.0594 -0.2468 -1.2552
 3654TIP3    H232598   1.134   5.090   6.297  0.2591 -2.4303  0.1029
 3655TIP3   OH232599   5.066   0.954   7.181  0.1417  0.3337 -0.1552
 3655TIP3    H132600   4.976   0.926   7.194  0.3486  0.7500  2.8042
 3655TIP3    H232601   5.063   1.009   7.103 -2.2203  0.5670  0.0336
 3656TIP3   OH232602   1.294   4.721   0.721  0.3617  1.0511 -0.2631
 3656TIP3    H132603   1.384   4.704   0.748  0.1102 -0.0838 -0.0951
 3656TIP3    H232604   1.282   4.668   0.642 -0.3655  0.6740  0.0970
 3657TIP3   OH232605   4.199   1.103   0.948  0.1929  0.5822 -0.0386
 3657TIP3    H132606   4.145   1.140   0.879  0.2448 -1.7784 -1.4438
 3657TIP3    H232607   4.137   1.070   1.013  0.1101  1.7328  0.4806
 3658TIP3   OH232608   6.960   0.678   7.122  0.4397  0.1650 -0.4739
 3658TIP3    H132609   7.040   0.630   7.106  0.0628 -0.5203 -0.3375
 3658TIP3    H232610   6.893   0.611   7.137 -0.2343  0.7122 -0.9286
 3659TIP3   OH232611   6.359   4.123   1.436 -0.5994  0.2930 -0.1919
 3659TIP3    H132612   6.276   4.099   1.476  0.0867 -1.4116  0.2866
 3659TIP3    H232613   6.410   4.163   1.507 -0.2307 -0.6267  0.0694
 3660TIP3   OH232614   3.402   0.841   1.987  0.0693  0.5329  0.2003
 3660TIP3    H132615   3.351   0.785   2.045 -0.8998  0.5328 -0.6239
 3660TIP3    H232616   3.431   0.783   1.916  2.7151  0.1185  1.4691
 3661TIP3   OH232617   5.077   2.363   0.292  0.6827 -0.5325 -0.2552
 3661TIP3    H132618   5.080   2.271   0.264 -1.2416  0.1525 -3.2069
 3661TIP3    H232619   4.986   2.389   0.278  1.6508  2.4150 -1.8974
 3662TIP3   OH232620   5.914   6.616   0.966  0.0635  0.2605 -0.4645
 3662TIP3    H132621   5.980   6.548   0.950 -0.9350 -0.5623 -1.2100
 3662TIP3    H232622   5.953   6.671   1.033  0.9430 -0.9949  0.1054
 3663TIP3   OH232623   2.834   1.084   2.467  0.6287  0.3081  0.4335
 3663TIP3    H132624   2.774   1.017   2.434 -0.8341  0.2606  2.9340
 3663TIP3    H232625   2.865   1.129   2.389 -0.1540 -1.7625 -1.1631
 3664TIP3   OH232626   6.438   5.200   8.427  0.6869 -0.2911 -0.0188
 3664TIP3    H132627   6.398   5.268   8.372 -0.4725 -0.2616  0.8130
 3664TIP3    H232628   6.364   5.150   8.460  1.2996  0.0208  1.9414
 3665TIP3   OH232629   3.609   5.715   7.638  0.3965  0.5943 -0.1553
 3665TIP3    H132630   3.543   5.732   7.705 -1.1552  1.3080 -1.7836
 3665TIP3    H232631   3.634   5.624   7.651 -1.5601  0.0416 -0.0143
 3666TIP3   OH232632   4.150   0.595   1.614  0.4756  0.1291 -0.0035
 3666TIP3    H132633   4.089   0.618   1.684 -0.5068 -3.2080  0.3907
 3666TIP3    H232634   4.097   0.548   1.550  2.2910 -1.3596 -0.4939
 3667TIP3   OH232635   4.406   0.036   7.933  0.4116  0.1823  0.0393
 3667TIP3    H132636   4.328  -0.001   7.974 -0.3891 -2.1221 -3.2444
 3667TIP3    H232637   4.476  -0.025   7.956  0.5962  0.5260  0.3990
 3668TIP3   OH232638   1.236   6.487   7.187  0.4911  0.9951  0.4234
 3668TIP3    H132639   1.161   6.428   7.175 -0.0222  1.7220  0.0375
 3668TIP3    H232640   1.281   6.486   7.103  0.2236  1.5055  0.2719
 3669TIP3   OH232641   2.290   4.193   0.597 -0.1220 -0.2605 -0.1136
 3669TIP3    H132642   2.195   4.182   0.603 -0.4304  2.0661 -0.0243
 3669TIP3    H232643   2.311   4.256   0.665  1.5151 -0.7029 -0.1700
 3670TIP3   OH232644   2.960   6.044   2.582  0.2828  0.0788 -0.0161
 3670TIP3    H132645   2.896   5.985   2.541  0.1960  1.2092 -1.6270
 3670TIP3    H232646   3.034   5.987   2.605  0.5131 -0.6003 -2.1850
 3671TIP3   OH232647   4.082   5.949   0.031 -0.0693 -0.0650 -0.1018
 3671TIP3    H132648   4.043   5.861   0.033  1.5269 -0.7917  0.1261
 3671TIP3    H232649   4.054   5.989   0.113 -0.3732 -0.5449  0.0381
 3672TIP3   OH232650   5.886   1.332   1.609 -0.2549  0.1343 -0.3868
 3672TIP3    H132651   5.804   1.381   1.599 -0.8834 -0.3574  1.9058
 3672TIP3    H232652   5.955   1.396   1.589 -1.1124  0.2323 -3.6197
 3673TIP3   OH232653   4.072   3.628   0.549 -0.0428  0.3879 -0.1678
 3673TIP3    H132654   3.981   3.654   0.563 -0.3635 -0.4047 -0.6686
 3673TIP3    H232655   4.123   3.704   0.575 -0.8695  1.0054 -0.2832
 3674TIP3   OH232656   4.500   1.149   0.538  0.5172  0.4680 -0.0668
 3674TIP3    H132657   4.587   1.163   0.502  0.6309 -2.1083 -1.0705
 3674TIP3    H232658   4.504   1.061   0.575 -2.4089 -1.1389 -2.9868
 3675TIP3   OH232659   4.038   4.123   6.464 -0.1166  0.2159 -0.1109
 3675TIP3    H132660   4.110   4.078   6.419  0.5300  2.1574 -1.1520
 3675TIP3    H232661   4.047   4.097   6.555  1.8785  0.2988 -0.2239
 3676TIP3   OH232662   0.303   6.055   1.072 -0.7375  0.2948 -0.2401
 3676TIP3    H132663   0.231   5.994   1.058 -0.0840 -0.1107 -2.2691
 3676TIP3    H232664   0.271   6.115   1.140 -2.5643 -0.4908 -0.3369
 3677TIP3   OH232665   6.911   1.243   1.353 -0.3501 -0.0167  0.7439
 3677TIP3    H132666   6.838   1.196   1.313  0.2518  0.1288 -0.5620
 3677TIP3    H232667   6.921   1.322   1.300  0.4053  0.2315  1.2453
 3678TIP3   OH232668   1.695   5.155   0.975 -0.0257 -0.5040  0.1186
 3678TIP3    H132669   1.663   5.230   0.924  1.6681 -0.6115 -1.1628
 3678TIP3    H232670   1.670   5.175   1.065 -0.4293  1.1532 -0.3299
 3679TIP3   OH232671   5.443   5.899   7.436 -0.1465  0.1359 -0.4167
 3679TIP3    H132672   5.374   5.952   7.474 -0.2391 -0.0099 -0.3800
 3679TIP3    H232673   5.499   5.961   7.390 -0.0867  0.2998 -0.1240
 3680TIP3   OH232674   4.630   4.845   2.106 -0.1298  0.3438 -0.0690
 3680TIP3    H132675   4.644   4.846   2.201  0.7389  0.6276 -0.1892
 3680TIP3    H232676   4.698   4.904   2.072  0.4621 -0.8265 -0.9740
 3681TIP3   OH232677   6.830   2.303   1.312  0.3060  0.2351 -0.0198
 3681TIP3    H132678   6.840   2.394   1.337  0.0083  0.6622 -1.3716
 3681TIP3    H232679   6.762   2.304   1.244  2.0863 -0.6467 -1.9223
 3682TIP3   OH232680   2.915   6.174   6.196 -0.1607 -0.0956 -0.1515
 3682TIP3    H132681   2.875   6.167   6.109  1.9574 -0.2375 -1.1767
 3682TIP3    H232682   2.928   6.083   6.223 -0.8361 -0.0516  0.3638
 3683TIP3   OH232683   4.322   5.996   6.627  0.2559 -0.1577  0.1560
 3683TIP3    H132684   4.293   6.014   6.717  0.2550  2.1140 -0.2540
 3683TIP3    H232685   4.409   5.957   6.638 -0.5638 -1.8365  1.1780
 3684TIP3   OH232686   3.127   0.557   0.141  0.4693 -0.1979  0.2029
 3684TIP3    H132687   3.217   0.540   0.168  1.0133 -0.3912 -1.5849
 3684TIP3    H232688   3.075   0.547   0.221  2.0324 -0.0033  1.2799
 3685TIP3   OH232689   6.615   2.721   7.486 -0.5160  0.2362  0.8000
 3685TIP3    H132690   6.596   2.729   7.579 -2.2950  1.2062  0.3937
 3685TIP3    H232691   6.534   2.747   7.442 -0.0397 -1.1405 -1.0214
 3686TIP3   OH232692   5.796   4.723   7.829  0.5627  0.0708  0.1495
 3686TIP3    H132693   5.773   4.633   7.855  0.9994  0.1423  0.8261
 3686TIP3    H232694   5.720   4.775   7.855  0.0619 -0.1785 -0.7796
 3687TIP3   OH232695   5.642   1.810   0.996  0.0755  0.0176  0.1279
 3687TIP3    H132696   5.720   1.758   1.016  0.3644  0.9529  1.6195
 3687TIP3    H232697   5.586   1.798   1.073 -1.4623 -0.9403 -1.0785
 3688TIP3   OH232698   6.288   1.574   0.277  0.1580 -0.0373 -0.1909
 3688TIP3    H132699   6.347   1.638   0.237  1.7137 -0.2123  1.6897
 3688TIP3    H232700   6.291   1.499   0.219  1.9566 -0.0943 -0.0693
 3689TIP3   OH232701   5.971   6.629   8.071 -0.5250  0.0879 -0.4861
 3689TIP3    H132702   5.899   6.578   8.034 -0.8908 -0.4365  0.8976
 3689TIP3    H232703   5.955   6.718   8.040 -1.7222 -0.0346 -0.2881
 3690TIP3   OH232704   3.866   5.856   7.926 -0.0545  0.2937 -0.2324
 3690TIP3    H132705   3.925   5.782   7.941 -0.3920 -0.4243 -2.1846
 3690TIP3    H232706   3.902   5.926   7.980  0.7815 -1.0284  0.9946
 3691TIP3   OH232707   0.497   2.945   7.996 -0.1200  0.6343  0.3074
 3691TIP3    H132708   0.482   2.980   7.908 -0.1880  3.2392  1.2579
 3691TIP3    H232709   0.416   2.900   8.018 -0.3227  0.4566 -0.7505
 3692TIP3   OH232710   4.600   1.649   0.139 -0.5829  0.2338  0.2787
 3692TIP3    H132711   4.556   1.578   0.186 -0.3378  1.2298  2.0854
 3692TIP3    H232712   4.683   1.661   0.185  0.1985  0.4803 -1.1489
 3693TIP3   OH232713   6.661   2.527   2.084 -0.2917  0.0472 -0.8714
 3693TIP3    H132714   6.666   2.575   2.002  0.6652 -0.7664 -1.3120
 3693TIP3    H232715   6.629   2.591   2.148  1.9671  1.5952 -1.1934
 3694TIP3   OH232716   2.928   5.755   2.324 -0.5200  0.4397  0.0917
 3694TIP3    H132717   2.945   5.688   2.391 -0.7566 -0.4219 -0.6880
 3694TIP3    H232718   2.879   5.709   2.256 -0.6388  1.4033 -0.4949
 3695TIP3   OH232719   0.542   3.245   7.510  0.6557 -0.3835  0.7941
 3695TIP3    H132720   0.507   3.232   7.421 -0.0707 -0.5226  1.0975
 3695TIP3    H232721   0.559   3.339   7.515  0.3983 -0.3267  0.6211
 3696TIP3   OH232722   4.333   1.454   1.541  0.5531 -0.3632  0.5611
 3696TIP3    H132723   4.244   1.444   1.508 -0.3320  1.0514  2.3261
 3696TIP3    H232724   4.388   1.455   1.463 -1.0954 -0.0356 -0.6453
 3697TIP3   OH232725   1.999   1.719   0.160  0.0006 -0.1015  0.1277
 3697TIP3    H132726   1.961   1.805   0.181  0.0939  0.2824 -1.1655
 3697TIP3    H232727   1.948   1.689   0.084  0.9687 -0.4914 -0.3783
 3698TIP3   OH232728   1.458   3.297   1.612 -0.3177  0.2652 -0.6684
 3698TIP3    H132729   1.524   3.280   1.679 -1.2759  0.9210  0.4759
 3698TIP3    H232730   1.389   3.233   1.629 -1.6497  1.9441  0.5113
 3699TIP3   OH232731   3.157   3.308   8.019  0.1906  0.4571 -0.2970
 3699TIP3    H132732   3.205   3.255   7.956 -0.4050 -0.9494  0.3703
 3699TIP3    H232733   3.068   3.313   7.983 -0.2597 -0.7047  0.5898
 3700TIP3   OH232734   0.879   0.086   7.779 -0.0979  0.5000 -0.5880
 3700TIP3    H132735   0.915   0.131   7.703  2.0158  1.7974  1.0903
 3700TIP3    H232736   0.888   0.148   7.851  1.2335 -1.8850  1.4551
 3701TIP3   OH232737   1.277   2.624   7.897  0.2935  0.7789 -0.3717
 3701TIP3    H132738   1.295   2.689   7.829  1.0283  1.2628  0.2675
 3701TIP3    H232739   1.182   2.623   7.906  0.3003  2.3369  0.1390
 3702TIP3   OH232740   5.624   1.779   7.086 -0.8170  0.0243  0.6217
 3702TIP3    H132741   5.669   1.759   7.168 -1.9023  0.9063  1.4696
 3702TIP3    H232742   5.547   1.721   7.087 -1.3376  0.7016  0.7108
 3703TIP3   OH232743   4.757   1.969   1.643  0.3203 -0.1551  0.2839
 3703TIP3    H132744   4.831   2.008   1.691  0.0833  0.3980  0.2042
 3703TIP3    H232745   4.744   2.027   1.569  0.3849 -0.7587 -0.2047
 3704TIP3   OH232746   5.718   1.441   2.197 -0.2114  1.1832  0.7367
 3704TIP3    H132747   5.802   1.398   2.212 -0.2858  1.2016  1.2044
 3704TIP3    H232748   5.696   1.418   2.106  0.5404  1.6067  0.4433
 3705TIP3   OH232749   0.857   5.928   7.954 -0.2580 -0.1097 -0.0299
 3705TIP3    H132750   0.945   5.962   7.938 -0.2799 -0.3242 -0.6262
 3705TIP3    H232751   0.869   5.859   8.019  0.2181 -1.1213 -1.1583
 3706TIP3   OH232752   5.082   5.165   1.933  0.0275 -0.1252  0.2025
 3706TIP3    H132753   5.163   5.212   1.912 -0.0193  0.3965  1.1291
 3706TIP3    H232754   5.110   5.073   1.939  0.6485  0.0892  0.8876
 3707TIP3   OH232755   4.549   1.558   2.618  0.1050 -0.1219 -0.2524
 3707TIP3    H132756   4.588   1.528   2.699 -0.4010  1.4796  0.6311
 3707TIP3    H232757   4.609   1.529   2.549  0.7112 -1.1959  0.7125
 3708TIP3   OH232758   6.391   0.737   2.342  0.0274 -0.1127  0.3440
 3708TIP3    H132759   6.329   0.799   2.303  0.6214 -0.1032 -0.6293
 3708TIP3    H232760   6.343   0.654   2.344  0.2607 -0.3254 -1.2819
 3709TIP3   OH232761   1.493   1.591   8.217 -0.0990 -0.1849  0.5672
 3709TIP3    H132762   1.414   1.557   8.175 -0.7770  0.6020  1.1684
 3709TIP3    H232763   1.465   1.615   8.305  0.6544  0.6914  0.5856
 3710TIP3   OH232764   0.768   5.982   1.397  0.7865 -0.1232 -0.2134
 3710TIP3    H132765   0.807   5.944   1.318  0.0571 -0.6585 -0.3251
 3710TIP3    H232766   0.774   6.076   1.384  0.0053 -0.1946 -1.2526
 3711TIP3   OH232767   5.648   2.314   7.004 -0.0882 -0.0872  0.1291
 3711TIP3    H132768   5.559   2.328   7.036 -0.3204  0.5001 -0.7348
 3711TIP3    H232769   5.666   2.222   7.023 -0.9363 -0.2492  0.1882
 3712TIP3   OH232770   0.880   2.765   8.482 -0.1607 -0.3565 -0.6360
 3712TIP3    H132771   0.875   2.761   8.386  0.5601  0.1397 -0.6998
 3712TIP3    H232772   0.889   2.858   8.502 -0.0303 -0.4836 -0.0964
 3713TIP3   OH232773   1.154   0.660   7.430  0.1295  0.5403  0.0783
 3713TIP3    H132774   1.189   0.583   7.386 -1.4370 -0.1537 -0.0199
 3713TIP3    H232775   1.227   0.721   7.433  1.5725 -1.1300  0.6324
 3714TIP3   OH232776   1.400   0.834   6.704  0.0840 -0.3408 -0.2268
 3714TIP3    H132777   1.369   0.922   6.680  1.1848 -0.1410 -0.9458
 3714TIP3    H232778   1.452   0.848   6.784  0.0458 -0.3794 -0.1949
 3715TIP3   OH232779   4.753   5.839   6.854  0.6761  0.2144 -0.2267
 3715TIP3    H132780   4.837   5.882   6.833  0.0328  1.5024 -0.2922
 3715TIP3    H232781   4.748   5.843   6.950  0.3864  0.7638 -0.2604
 3716TIP3   OH232782   2.360   0.016   2.026 -0.1781 -0.6901 -0.1731
 3716TIP3    H132783   2.433   0.035   2.085  0.5932 -0.4523 -1.1797
 3716TIP3    H232784   2.282   0.017   2.083  0.6452 -1.5311  1.0273
 3717TIP3   OH232785   6.504   5.723   0.211 -0.6231 -0.3577 -0.2378
 3717TIP3    H132786   6.448   5.792   0.176  0.1399  0.4942  0.1719
 3717TIP3    H232787   6.576   5.770   0.253 -0.5615 -1.3823  0.8583
 3718TIP3   OH232788   1.064   6.760   2.400 -0.6571 -0.0725  0.2968
 3718TIP3    H132789   1.096   6.672   2.422  2.0844  0.4825 -0.9940
 3718TIP3    H232790   1.065   6.762   2.305 -2.0265  0.9623  0.2806
 3719TIP3   OH232791   3.011   6.315   2.129 -0.0002  0.3373 -0.4784
 3719TIP3    H132792   2.962   6.238   2.100 -0.3709  0.7633 -0.9739
 3719TIP3    H232793   3.018   6.371   2.052  2.9759 -0.5634 -1.0104
 3720TIP3   OH232794   4.256   6.754   1.976 -0.1030 -0.1749 -0.0853
 3720TIP3    H132795   4.232   6.792   2.061  0.2187 -0.2321  0.0316
 3720TIP3    H232796   4.314   6.819   1.936  1.5797 -1.1070  0.7027
 3721TIP3   OH232797   2.434   2.901   8.100 -0.6145 -0.0180  0.3730
 3721TIP3    H132798   2.496   2.959   8.057 -0.1097 -0.7409  0.1083
 3721TIP3    H232799   2.350   2.948   8.096 -0.3707  0.3541 -0.5138
 3722TIP3   OH232800   4.503   1.763   2.235  0.7054  0.4164 -0.9155
 3722TIP3    H132801   4.467   1.702   2.299  1.4194 -1.3349 -2.1116
 3722TIP3    H232802   4.475   1.849   2.266  1.3201 -0.3062  1.9430
 3723TIP3   OH232803   4.251   4.397   1.267  0.2926 -0.4367 -0.0639
 3723TIP3    H132804   4.283   4.328   1.209 -0.1385 -0.1708 -0.6351
 3723TIP3    H232805   4.235   4.471   1.209 -0.3570 -0.2332  0.3624
 3724TIP3   OH232806   1.068   0.951   0.558 -0.4140  0.1781  0.4403
 3724TIP3    H132807   1.031   0.976   0.643 -1.0286 -1.0307  0.5613
 3724TIP3    H232808   1.017   1.001   0.494  0.0431  1.0842  0.7799
 3725TIP3   OH232809   5.029   2.647   2.309 -0.0776 -0.9491  0.3458
 3725TIP3    H132810   5.027   2.737   2.276  1.4994 -1.0455 -0.0899
 3725TIP3    H232811   5.116   2.637   2.346 -1.0472 -1.5477  2.6453
 3726TIP3   OH232812   6.892   1.478   0.524  0.1138 -0.5547 -0.2286
 3726TIP3    H132813   6.882   1.539   0.451 -0.6161  0.5645  0.7678
 3726TIP3    H232814   6.911   1.533   0.599  0.0073 -1.6087  0.6027
 3727TIP3   OH232815   3.988   0.320   7.306 -0.0302  0.0997 -0.2541
 3727TIP3    H132816   3.905   0.350   7.270 -0.5828 -0.5384  0.4652
 3727TIP3    H232817   4.007   0.239   7.259 -0.0556 -0.0097 -0.0757
 3728TIP3   OH232818   6.129   2.307   6.625 -0.3743  0.4651 -0.8649
 3728TIP3    H132819   6.177   2.384   6.655  1.0436 -1.1350  1.2686
 3728TIP3    H232820   6.186   2.267   6.560  2.0546 -2.0233  2.4169
 3729TIP3   OH232821   2.604   6.142   1.353 -0.1788  0.2394  0.0208
 3729TIP3    H132822   2.534   6.129   1.417  1.9113 -2.3904  2.0334
 3729TIP3    H232823   2.591   6.073   1.289 -0.5174  0.9832 -0.7297
 3730TIP3   OH232824   0.771   0.036   0.701  0.1803  0.0356 -0.2687
 3730TIP3    H132825   0.813  -0.046   0.727  1.4215  1.2762  1.9382
 3730TIP3    H232826   0.842   0.091   0.669 -0.4080  0.7377 -0.3996
 3731TIP3   OH232827   2.484   4.135   6.340 -0.4824 -0.1277  0.0305
 3731TIP3    H132828   2.458   4.212   6.289  0.0949 -0.7981 -1.2954
 3731TIP3    H232829   2.495   4.066   6.276  0.2268 -1.0131  1.0796
 3732TIP3   OH232830   4.177   5.450   0.163  0.0265 -0.5622 -0.1393
 3732TIP3    H132831   4.132   5.493   0.236 -1.4708 -1.3098 -0.5648
 3732TIP3    H232832   4.191   5.360   0.194 -0.2208 -0.7618 -0.5954
 3733TIP3   OH232833   3.455   4.801   8.061 -0.0762  0.5179 -0.4060
 3733TIP3    H132834   3.523   4.747   8.022  1.3224  1.2972  0.8629
 3733TIP3    H232835   3.427   4.860   7.991 -1.2948 -1.4588 -1.6728
 3734TIP3   OH232836   0.142   1.008   8.215  0.3417 -0.8907 -0.3370
 3734TIP3    H132837   0.171   0.943   8.280  0.3036  0.6285  1.2969
 3734TIP3    H232838   0.223   1.046   8.181  0.3817  0.2685  0.9591
 3735TIP3   OH232839   6.230   6.248   0.822 -0.4484  0.0732 -0.2014
 3735TIP3    H132840   6.317   6.289   0.817 -1.0932  1.3559 -1.5170
 3735TIP3    H232841   6.243   6.162   0.782  0.5199 -0.3530  0.9475
 3736TIP3   OH232842   1.702   6.650   0.199  0.0016 -0.1024 -0.1975
 3736TIP3    H132843   1.633   6.714   0.179  0.2698 -0.2354 -1.6498
 3736TIP3    H232844   1.686   6.625   0.290 -2.1577 -0.4682 -0.6227
 3737TIP3   OH232845   4.517   0.695   2.096  0.3760  0.0347  0.0284
 3737TIP3    H132846   4.447   0.755   2.071 -0.8691 -0.8076  1.3075
 3737TIP3    H232847   4.491   0.610   2.061 -0.0497 -0.5947  1.7295
 3738TIP3   OH232848   1.518   2.329   7.571  0.2724 -0.7011  0.1863
 3738TIP3    H132849   1.470   2.398   7.525  1.9203  0.1451 -0.3217
 3738TIP3    H232850   1.458   2.254   7.570 -1.9552  0.9167  1.5376
 3739TIP3   OH232851   3.836   2.726   0.130 -0.0679 -0.2662  0.2516
 3739TIP3    H132852   3.927   2.741   0.103 -0.5587  3.5822  0.1160
 3739TIP3    H232853   3.786   2.727   0.048 -0.3681 -1.5744  0.3936
 3740TIP3   OH232854   1.638   4.987   0.375 -0.3103 -0.2694 -0.6319
 3740TIP3    H132855   1.675   4.942   0.299 -1.9909 -0.1729 -1.5570
 3740TIP3    H232856   1.635   5.079   0.350 -0.0891 -0.1191 -0.1101
 3741TIP3   OH232857   1.407   5.701   0.330 -1.0520  0.3325 -0.1757
 3741TIP3    H132858   1.469   5.649   0.280 -0.4267  2.6296 -1.9583
 3741TIP3    H232859   1.322   5.682   0.290 -1.0801 -0.4750  0.2431
 3742TIP3   OH232860   1.498   3.045   0.939  0.0515  0.5825  0.3775
 3742TIP3    H132861   1.521   2.956   0.911  1.5783  1.1509 -0.2309
 3742TIP3    H232862   1.402   3.047   0.933 -0.2908 -1.7724  2.6957
 3743TIP3   OH232863   2.130   1.266   3.281 -0.7448  0.0022 -0.9389
 3743TIP3    H132864   2.176   1.196   3.328  0.6442  2.3928  1.5494
 3743TIP3    H232865   2.190   1.293   3.212 -0.7914 -0.4617 -1.1648
 3744TIP3   OH232866   1.072   5.527   7.086 -0.0734 -0.1729  0.7935
 3744TIP3    H132867   1.125   5.488   7.155  0.8440 -1.8203 -0.7470
 3744TIP3    H232868   1.130   5.530   7.010 -1.8780 -1.2525 -0.7251
 3745TIP3   OH232869   4.635   4.701   7.285  0.9375 -1.0759 -0.2032
 3745TIP3    H132870   4.635   4.656   7.200 -0.6761 -1.4421 -0.0529
 3745TIP3    H232871   4.694   4.650   7.340  1.7364 -1.0331 -1.0017
 3746TIP3   OH232872   2.204   1.287   2.320 -0.2912 -0.2445  0.4278
 3746TIP3    H132873   2.231   1.206   2.362 -0.9942 -1.1531 -0.7988
 3746TIP3    H232874   2.247   1.285   2.234 -1.0099  0.2348  0.0405
 3747TIP3   OH232875   6.191   3.274   1.535 -0.7915 -0.1750 -0.3781
 3747TIP3    H132876   6.119   3.236   1.485  0.6636 -1.1564 -1.7996
 3747TIP3    H232877   6.212   3.355   1.489 -2.0638  1.0227  1.0441
 3748TIP3   OH232878   3.640   3.018   0.519 -0.4591  0.0774  0.1899
 3748TIP3    H132879   3.669   3.100   0.559 -0.4293  0.0335  0.2590
 3748TIP3    H232880   3.715   2.959   0.528 -0.4132  0.1024 -0.0333
 3749TIP3   OH232881   5.507   4.583   1.542  0.1801 -0.2789  0.0265
 3749TIP3    H132882   5.572   4.518   1.516 -0.4286 -1.9688  2.3871
 3749TIP3    H232883   5.450   4.593   1.466  2.3799  0.2760 -1.6399
 3750TIP3   OH232884   3.255   2.148   3.058  0.3526 -0.2681  0.5568
 3750TIP3    H132885   3.207   2.117   3.135  0.5024 -0.3653  0.6130
 3750TIP3    H232886   3.188   2.182   3.000  0.0527 -1.7302 -0.0102
 3751TIP3   OH232887   3.962   3.671   0.255 -0.5801 -0.6357  0.2073
 3751TIP3    H132888   3.970   3.669   0.351 -1.7907 -0.8476  0.3136
 3751TIP3    H232889   3.927   3.758   0.236 -0.8525 -0.7895  0.0039
 3752TIP3   OH232890   0.783   5.571   1.127 -0.0429  0.5883 -0.0127
 3752TIP3    H132891   0.708   5.631   1.127  0.4744  1.3953  2.6048
 3752TIP3    H232892   0.744   5.485   1.141 -0.5367  1.1308  2.5318
 3753TIP3   OH232893   0.359   0.087   0.445  0.0452 -0.1723  0.5221
 3753TIP3    H132894   0.295   0.158   0.450 -0.8565 -0.9070 -0.2984
 3753TIP3    H232895   0.331   0.024   0.511 -0.1254 -0.5339  0.1076
 3754TIP3   OH232896   6.591   3.535   7.197 -0.4386 -0.2407 -0.1899
 3754TIP3    H132897   6.551   3.549   7.111  2.2638 -0.9719 -1.6900
 3754TIP3    H232898   6.615   3.623   7.226  0.0639 -0.1127 -0.9603
 3755TIP3   OH232899   3.835   5.825   0.362  0.5487  0.4377 -0.0841
 3755TIP3    H132900   3.750   5.822   0.317  1.2338  1.8613 -1.5775
 3755TIP3    H232901   3.817   5.872   0.443  0.0257  1.5351 -0.7997
 3756TIP3   OH232902   1.711   5.061   6.806  0.4049  0.2918  0.3247
 3756TIP3    H132903   1.790   5.014   6.779 -0.3708 -1.6856  1.3037
 3756TIP3    H232904   1.639   5.013   6.767 -0.4095  1.0595  0.8345
 3757TIP3   OH232905   3.526   5.307   8.518 -0.2102  0.3140  0.0594
 3757TIP3    H132906   3.439   5.296   8.557  0.6229 -1.8716  1.5200
 3757TIP3    H232907   3.540   5.227   8.467  1.1461  0.3497  0.3287
 3758TIP3   OH232908   5.152   1.022   0.068 -0.0317 -0.5501  0.5410
 3758TIP3    H132909   5.059   1.025   0.087 -0.0075 -1.8451  0.9882
 3758TIP3    H232910   5.177   1.113   0.050 -1.6864 -0.3594 -1.1171
 3759TIP3   OH232911   1.622   2.201   1.050 -0.4220 -0.3416 -0.0649
 3759TIP3    H132912   1.541   2.150   1.050 -0.9877  0.4611 -1.8835
 3759TIP3    H232913   1.681   2.153   0.992 -0.0856 -0.2194  0.1741
 3760TIP3   OH232914   2.945   5.134   1.249  0.3177 -0.3755 -0.3551
 3760TIP3    H132915   2.965   5.227   1.264 -1.0714 -0.1261  0.1717
 3760TIP3    H232916   2.860   5.136   1.204 -0.3859 -1.3982  0.8618
 3761TIP3   OH232917   0.002   4.300   6.978 -0.2266 -0.2531  0.0145
 3761TIP3    H132918   0.004   4.210   6.945  0.1631 -0.3855  0.3887
 3761TIP3    H232919   0.072   4.303   7.043 -1.3656 -0.1783  1.2907
 3762TIP3   OH232920   4.339   1.338   1.007 -0.4432  0.0641  0.2781
 3762TIP3    H132921   4.415   1.282   1.024 -1.1761 -1.0794 -0.1489
 3762TIP3    H232922   4.289   1.292   0.940 -2.6454 -0.3090  2.0586
 3763TIP3   OH232923   2.654   6.271   3.186  0.0791 -0.1782  1.2926
 3763TIP3    H132924   2.690   6.345   3.137  0.0690  0.5953  2.4184
 3763TIP3    H232925   2.571   6.303   3.220 -1.6631 -1.8664 -1.0777
 3764TIP3   OH232926   0.171   5.225   7.854 -0.0110  0.5535 -0.0591
 3764TIP3    H132927   0.243   5.265   7.903 -1.1395  1.2238  1.0823
 3764TIP3    H232928   0.106   5.203   7.920 -1.3025  0.8776 -1.1829
 3765TIP3   OH232929   4.530   5.131   0.581 -0.0764 -0.2601 -0.1873
 3765TIP3    H132930   4.595   5.078   0.535 -0.2788 -1.8223  1.2070
 3765TIP3    H232931   4.533   5.098   0.671 -0.5102  1.8763  0.6595
 3766TIP3   OH232932   4.698   0.837   1.927  0.2574  0.0544 -0.0310
 3766TIP3    H132933   4.675   0.930   1.928  1.4368  0.3523  0.7126
 3766TIP3    H232934   4.637   0.796   1.988  0.1924  0.4616  0.1792
 3767TIP3   OH232935   6.131   6.089   1.087  0.2857 -0.2731 -0.8054
 3767TIP3    H132936   6.193   6.030   1.044  1.4492 -0.9130  1.5780
 3767TIP3    H232937   6.145   6.174   1.044  1.8935 -0.7060 -1.2066
 3768TIP3   OH232938   3.860   5.286   2.556 -0.3847  0.0276 -0.3209
 3768TIP3    H132939   3.796   5.356   2.542 -0.1845  0.6632  1.5798
 3768TIP3    H232940   3.939   5.317   2.512 -0.9389 -0.0683 -1.4093
 3769TIP3   OH232941   0.542   2.622   0.219  0.0344  0.5073  0.2949
 3769TIP3    H132942   0.448   2.610   0.209 -0.0800  1.3045  0.3744
 3769TIP3    H232943   0.555   2.717   0.220  0.7786  0.4148  0.8000
 3770TIP3   OH232944   2.117   6.431   7.114 -0.0888  0.1944  0.0371
 3770TIP3    H132945   2.038   6.413   7.063  0.4294 -0.7540 -0.4638
 3770TIP3    H232946   2.104   6.384   7.196  0.9507 -2.0492 -0.9857
 3771TIP3   OH232947   2.871   1.843   2.231 -0.5667  0.1155 -0.1217
 3771TIP3    H132948   2.817   1.897   2.289 -1.5465  2.9495 -3.3605
 3771TIP3    H232949   2.820   1.762   2.219 -1.3671  0.3919  1.2236
 3772TIP3   OH232950   1.213   6.077   8.350 -0.1559 -0.7485 -1.0395
 3772TIP3    H132951   1.243   6.142   8.415  1.3853 -1.3246 -1.1353
 3772TIP3    H232952   1.122   6.060   8.374  0.8882 -2.5528  2.4098
 3773TIP3   OH232953   1.051   0.713   1.849  0.6632 -0.6998  0.7048
 3773TIP3    H132954   1.027   0.621   1.844 -0.5020 -0.3882  0.3120
 3773TIP3    H232955   1.122   0.723   1.786 -0.5533 -0.9352 -0.7738
 3774TIP3   OH232956   1.787   3.867   7.032 -0.3334 -0.6346 -0.4572
 3774TIP3    H132957   1.768   3.957   7.006 -1.1913 -0.3148  1.0934
 3774TIP3    H232958   1.701   3.825   7.038 -0.3016 -0.5365  2.0907
 3775TIP3   OH232959   0.859   5.012   2.280 -0.2230 -0.4202 -0.2206
 3775TIP3    H132960   0.920   5.038   2.349  0.4449  0.6075 -1.1605
 3775TIP3    H232961   0.871   4.918   2.270  1.5900 -0.1667 -0.7097
 3776TIP3   OH232962   1.610   0.360   1.040  0.4036 -0.6283 -0.0561
 3776TIP3    H132963   1.518   0.361   1.012 -0.6409 -2.0895  2.9151
 3776TIP3    H232964   1.637   0.452   1.034 -1.5438 -0.0022 -0.1575
 3777TIP3   OH232965   1.673   6.614   1.064 -0.2722  0.7590 -0.1126
 3777TIP3    H132966   1.653   6.538   1.008 -0.1942  1.2532 -0.8304
 3777TIP3    H232967   1.694   6.576   1.149 -1.0586  0.0232 -0.2257
 3778TIP3   OH232968   5.204   3.836   0.333  0.0817  0.1959 -0.1840
 3778TIP3    H132969   5.209   3.931   0.326 -0.0613  0.1745 -0.6056
 3778TIP3    H232970   5.278   3.812   0.388  0.4248  0.5054 -0.5045
 3779TIP3   OH232971   1.435   5.105   7.995  0.8535 -0.4002 -0.2354
 3779TIP3    H132972   1.511   5.162   8.005  0.5221  0.0766 -0.3745
 3779TIP3    H232973   1.381   5.150   7.930 -2.1017  2.0733  3.5293
 3780TIP3   OH232974   6.535   3.731   0.658 -0.0114 -0.1928  0.2749
 3780TIP3    H132975   6.604   3.743   0.724  0.4027  1.3687 -0.3907
 3780TIP3    H232976   6.573   3.671   0.594  0.4547  0.0619  0.3067
 3781TIP3   OH232977   1.291   4.193   1.116  0.1507  0.4510 -0.7339
 3781TIP3    H132978   1.367   4.243   1.146  0.4780 -0.4856  0.0587
 3781TIP3    H232979   1.286   4.118   1.176 -1.7268  0.7662 -0.4164
 3782TIP3   OH232980   5.941   0.588   1.632 -0.5243 -0.2201 -0.2301
 3782TIP3    H132981   6.001   0.651   1.671 -0.9252  0.0251 -0.0090
 3782TIP3    H232982   5.976   0.502   1.656 -1.1465 -0.0762  1.2595
 3783TIP3   OH232983   1.069   6.586   0.800  0.6080 -0.1759  0.5785
 3783TIP3    H132984   1.073   6.567   0.706  0.4489 -0.6138  0.6539
 3783TIP3    H232985   1.063   6.499   0.841 -1.0581  0.0408  0.8970
 3784TIP3   OH232986   4.667   3.052   2.001  0.0121  0.2551  1.1529
 3784TIP3    H132987   4.723   3.129   1.993  0.0749  0.1777  0.7964
 3784TIP3    H232988   4.693   3.012   2.084 -0.1405  0.7076  1.4222
 3785TIP3   OH232989   1.592   4.532   7.535 -0.3703 -0.3551  0.1767
 3785TIP3    H132990   1.546   4.616   7.537  1.9758  1.0031 -0.0263
 3785TIP3    H232991   1.545   4.481   7.469 -0.7421  1.4911 -1.0733
 3786TIP3   OH232992   6.227   4.752   0.092 -0.1565 -0.1026 -0.1973
 3786TIP3    H132993   6.196   4.689   0.027 -1.5644 -0.0917  0.4398
 3786TIP3    H232994   6.149   4.804   0.114 -0.0741 -0.9962  2.5185
 3787TIP3   OH232995   2.896   5.914   7.569  0.2529  0.1644  0.0977
 3787TIP3    H132996   2.942   5.837   7.601  1.1348  0.9668  0.8311
 3787TIP3    H232997   2.843   5.882   7.496  0.0469 -1.2560  0.8446
 3788TIP3   OH232998   1.858   2.165   7.179 -0.7684  0.1126  0.2825
 3788TIP3    H132999   1.837   2.078   7.146 -1.3829 -0.0829  1.1665
 3788TIP3    H233000   1.806   2.224   7.123 -0.4754 -0.0933 -0.2123
 3789TIP3   OH233001   6.841   5.599   8.369 -0.3920  0.2523 -0.7700
 3789TIP3    H133002   6.769   5.550   8.330  1.5112 -3.6931  0.1223
 3789TIP3    H233003   6.915   5.585   8.310  0.5941  0.9378  0.2367
 3790TIP3   OH233004   1.959   0.476   1.584  0.6225  0.4077 -0.4615
 3790TIP3    H133005   2.029   0.529   1.622  0.7769 -0.4299  0.4478
 3790TIP3    H233006   2.001   0.392   1.564 -0.2564 -0.3212  0.6795
 3791TIP3   OH233007   2.991   0.534   0.961  0.3137 -0.2463  0.2217
 3791TIP3    H133008   2.927   0.463   0.955  0.4376 -0.2707 -1.2532
 3791TIP3    H233009   3.076   0.491   0.950  0.4224  0.0663 -0.1810
 3792TIP3   OH233010   4.304   6.690   1.280 -0.1382 -0.3592  0.2073
 3792TIP3    H133011   4.299   6.596   1.260  2.0129 -0.4021 -0.3818
 3792TIP3    H233012   4.378   6.721   1.229  1.1333  1.0331  2.7260
 3793TIP3   OH233013   4.528   5.567   7.038 -0.0064 -0.2958  0.3126
 3793TIP3    H133014   4.563   5.644   7.081 -0.6092 -0.3287  0.8828
 3793TIP3    H233015   4.518   5.503   7.108 -0.8892 -0.3937  0.1114
 3794TIP3   OH233016   2.034   5.722   8.204  0.0218  0.1789 -0.6353
 3794TIP3    H133017   2.066   5.787   8.141 -0.2550  0.9036 -0.0427
 3794TIP3    H233018   1.967   5.672   8.157  2.0051 -1.4299 -1.9436
 3795TIP3   OH233019   2.237   5.659   0.688  0.0813 -0.1369  0.0767
 3795TIP3    H133020   2.176   5.594   0.723 -0.6719  0.6024  0.1767
 3795TIP3    H233021   2.323   5.623   0.705 -0.3225 -0.9114  0.5133
 3796TIP3   OH233022   2.110   5.448   0.816 -0.3525 -0.3237 -0.5738
 3796TIP3    H133023   2.092   5.359   0.846 -0.8352  0.0183  0.1701
 3796TIP3    H233024   2.039   5.501   0.853 -0.4139  0.2786 -1.5044
 3797TIP3   OH233025   3.121   4.146   7.970 -0.8255 -0.3302 -0.2021
 3797TIP3    H133026   3.107   4.052   7.977  3.3538 -1.0587  1.9526
 3797TIP3    H233027   3.128   4.163   7.876 -1.6866 -2.1701 -0.6358
 3798TIP3   OH233028   0.668   0.081   8.279  0.1056  0.0909  0.5532
 3798TIP3    H133029   0.593   0.102   8.334 -0.4284 -0.4148  0.0255
 3798TIP3    H233030   0.743   0.084   8.339 -0.6385 -2.0841  1.7152
 3799TIP3   OH233031   2.195   2.958   7.810 -0.2048 -0.0686 -0.3320
 3799TIP3    H133032   2.235   2.923   7.731 -0.5168 -0.9741 -0.1036
 3799TIP3    H233033   2.166   3.046   7.786  0.1890 -0.1324 -1.0568
 3800TIP3   OH233034   3.300   4.060   6.960 -0.2108 -0.6119  0.2947
 3800TIP3    H133035   3.298   4.060   6.865  0.7589 -0.2587  0.2559
 3800TIP3    H233036   3.333   3.974   6.984 -0.3729 -0.6701  0.3091
 3801TIP3   OH233037   4.398   2.125   2.136  0.2847  0.0572  0.3127
 3801TIP3    H133038   4.409   2.052   2.076 -0.7035 -0.1302  0.3414
 3801TIP3    H233039   4.397   2.085   2.223  0.5179  0.1916  0.3779
 3802TIP3   OH233040   3.931   0.743   0.183  0.4633 -0.1808  0.2044
 3802TIP3    H133041   4.009   0.688   0.190  0.8103  0.2681 -0.1322
 3802TIP3    H233042   3.943   0.811   0.249  0.2866 -0.1899  0.2481
 3803TIP3   OH233043   5.100   0.501   1.215  0.1961  0.0184  0.4700
 3803TIP3    H133044   5.012   0.537   1.227  0.5070  1.8816 -1.9389
 3803TIP3    H233045   5.150   0.536   1.288 -0.5333  1.0003  0.5203
 3804TIP3   OH233046   1.373   0.110   7.780 -0.0079 -0.4228  0.9384
 3804TIP3    H133047   1.395   0.022   7.752 -1.3434 -0.6411  0.4729
 3804TIP3    H233048   1.350   0.156   7.699 -3.3825 -0.8972  1.4584
 3805TIP3   OH233049   0.168   3.634   2.872 -0.3276  0.2463  0.1362
 3805TIP3    H133050   0.139   3.702   2.812  1.5978  1.5965  0.6550
 3805TIP3    H233051   0.089   3.609   2.920 -1.1335  1.9158 -0.2688
 3806TIP3   OH233052   6.083   2.953   1.054  0.2007 -0.0506  0.2672
 3806TIP3    H133053   6.003   3.004   1.071 -1.2743 -1.3974 -2.0710
 3806TIP3    H233054   6.053   2.863   1.049  2.3903 -0.9822  2.0430
 3807TIP3   OH233055   1.038   4.910   1.975 -0.2167  0.1653  0.3409
 3807TIP3    H133056   0.991   4.892   1.894 -0.6667  2.0341  0.1510
 3807TIP3    H233057   1.080   4.827   1.997 -0.2938 -0.4454 -1.6542
 3808TIP3   OH233058   0.096   2.814   0.790  0.2278  0.0376 -0.3339
 3808TIP3    H133059   0.119   2.904   0.811  1.6315 -0.7058  1.5942
 3808TIP3    H233060   0.103   2.810   0.694  1.9560  1.5240 -0.3338
 3809TIP3   OH233061   5.024   1.156   1.475 -0.6467 -0.1555  0.1834
 3809TIP3    H133062   5.090   1.149   1.544 -2.5400 -0.7949  2.0519
 3809TIP3    H233063   5.073   1.145   1.393  1.4435 -1.2111  1.4914
 3810TIP3   OH233064   0.024   2.857   0.228 -0.0389 -0.5226 -0.5263
 3810TIP3    H133065   0.118   2.854   0.245 -0.2783 -2.1945  0.7862
 3810TIP3    H233066   0.005   2.949   0.212  1.3033  0.4322  2.5651
 3811TIP3   OH233067   2.354   3.226   7.614  0.3487 -0.8448 -0.1162
 3811TIP3    H133068   2.260   3.229   7.631  0.5464 -0.7501  1.0019
 3811TIP3    H233069   2.360   3.206   7.521 -0.7953  1.1737 -0.6995
 3812TIP3   OH233070   2.905   4.828   1.292  0.2516 -0.3971 -0.3536
 3812TIP3    H133071   2.964   4.862   1.225  0.5024 -1.1428 -0.5189
 3812TIP3    H233072   2.911   4.733   1.283  1.1597 -0.5644  1.4612
 3813TIP3   OH233073   2.363   2.142   1.213  0.2753 -0.5619  0.0689
 3813TIP3    H133074   2.442   2.188   1.183  0.3960 -1.4457 -0.9967
 3813TIP3    H233075   2.373   2.139   1.308  0.6838  0.8420  0.1028
 3814TIP3   OH233076   0.851   4.069   0.522  0.2327  0.3242 -0.9142
 3814TIP3    H133077   0.839   4.155   0.481 -0.5025  0.0215 -1.3403
 3814TIP3    H233078   0.783   4.014   0.483 -0.3958 -0.0129  0.5914
 3815TIP3   OH233079   1.430   0.438   0.505 -0.2321 -0.0924 -0.3913
 3815TIP3    H133080   1.441   0.531   0.523  2.3995 -0.6703  1.6524
 3815TIP3    H233081   1.394   0.401   0.585 -0.1129 -1.0134 -0.7446
 3816TIP3   OH233082   5.256   6.285   7.370 -0.5663 -0.1486  0.6410
 3816TIP3    H133083   5.348   6.313   7.365 -0.8734  0.8147 -0.0303
 3816TIP3    H233084   5.229   6.275   7.279 -1.8145  2.0521  0.6931
 3817TIP3   OH233085   5.460   1.608   7.451 -0.3725  0.0369  0.0323
 3817TIP3    H133086   5.420   1.522   7.459 -1.4850  0.5757  0.5355
 3817TIP3    H233087   5.555   1.592   7.457 -0.3551 -1.4402 -2.7463
 3818TIP3   OH233088   1.429   1.197   0.703  0.5837 -0.2629  0.1725
 3818TIP3    H133089   1.416   1.135   0.774  0.2967  1.5287  1.7642
 3818TIP3    H233090   1.473   1.272   0.743 -0.5715  1.2907 -1.2420
 3819TIP3   OH233091   6.815   5.133   7.525 -0.5436 -0.2823 -0.4717
 3819TIP3    H133092   6.884   5.171   7.470 -0.4874 -1.3704 -1.1749
 3819TIP3    H233093   6.797   5.201   7.591  0.2690  0.5393 -1.0709
 3820TIP3   OH233094   5.143   0.738   1.615 -0.2987  0.5987  0.6206
 3820TIP3    H133095   5.226   0.719   1.659 -0.2936  1.0168  0.8001
 3820TIP3    H233096   5.167   0.752   1.523 -0.4665 -1.5314  0.1925
 3821TIP3   OH233097   1.021   5.375   1.582 -0.0576  0.4634 -0.2817
 3821TIP3    H133098   0.931   5.400   1.601  0.2683  1.5453 -0.0790
 3821TIP3    H233099   1.071   5.409   1.656  0.3994 -0.9986  0.1017
 3822TIP3   OH233100   4.444   4.214   2.476  0.2303 -0.0261 -0.3881
 3822TIP3    H133101   4.517   4.210   2.415 -0.1981  0.0598 -0.9140
 3822TIP3    H233102   4.445   4.129   2.520 -0.2454 -0.6108 -1.4598
 3823TIP3   OH233103   4.765   3.856   0.036  0.0222 -0.1787 -0.4265
 3823TIP3    H133104   4.844   3.820   0.076  1.5187  0.1312 -2.8748
 3823TIP3    H233105   4.708   3.780   0.023  0.8320 -0.7824 -0.5528
 3824TIP3   OH233106   2.624   0.601   2.129  0.2343  0.1382 -0.2594
 3824TIP3    H133107   2.682   0.672   2.157 -0.8840  0.9547  0.0665
 3824TIP3    H233108   2.675   0.521   2.142  1.3150  0.8358 -0.0907
 3825TIP3   OH233109   1.773   2.455   1.103 -0.0561  0.3377  0.0103
 3825TIP3    H133110   1.711   2.522   1.131  0.3352 -0.3048  2.6342
 3825TIP3    H233111   1.719   2.378   1.086 -0.1502  0.3074  0.4533
 3826TIP3   OH233112   5.115   5.733   1.579  0.2902  0.1562  0.0324
 3826TIP3    H133113   5.051   5.742   1.509  0.8366 -1.7286 -0.7676
 3826TIP3    H233114   5.136   5.823   1.604 -0.4715  0.8629 -1.7165
 3827TIP3   OH233115   6.172   3.924   8.502  0.0841 -0.8368 -0.1525
 3827TIP3    H133116   6.236   3.853   8.507  0.3588 -0.6715 -1.0847
 3827TIP3    H233117   6.218   3.994   8.456 -0.1153  0.0327  0.9322
 3828TIP3   OH233118   6.115   4.039   1.513 -0.3734 -0.3128 -0.4296
 3828TIP3    H133119   6.045   4.009   1.455 -0.3889  1.3769 -1.3423
 3828TIP3    H233120   6.072   4.057   1.596 -1.3759  2.0633 -1.3726
 3829TIP3   OH233121   0.392   2.397   1.486 -0.6617 -0.5677 -0.5663
 3829TIP3    H133122   0.322   2.383   1.422 -0.3825 -0.1888 -0.9667
 3829TIP3    H233123   0.459   2.445   1.437  0.0904 -1.3603 -0.3193
 3830TIP3   OH233124   1.388   2.624   0.581 -0.0708 -0.6915 -0.6121
 3830TIP3    H133125   1.445   2.559   0.622 -0.0431 -0.3138 -0.0331
 3830TIP3    H233126   1.313   2.574   0.551 -1.0446 -0.7539  1.6694
 3831TIP3   OH233127   1.365   6.811   6.978  0.0722 -0.3236 -0.3038
 3831TIP3    H133128   1.350   6.716   6.980 -1.9485 -0.0390 -0.1123
 3831TIP3    H233129   1.412   6.826   6.896  0.4018 -1.4765 -0.3424
 3832TIP3   OH233130   6.950   6.383   8.499 -0.0220 -1.0171 -0.2077
 3832TIP3    H133131   6.942   6.459   8.555 -1.4152 -1.2519 -0.0416
 3832TIP3    H233132   7.023   6.333   8.535  0.2486 -0.2607  0.2926
 3833TIP3   OH233133   1.784   0.176   8.037  0.3360 -0.1180  1.0882
 3833TIP3    H133134   1.856   0.155   7.977  0.2314 -0.8937  1.2320
 3833TIP3    H233135   1.770   0.096   8.087  0.9352  0.7424  2.7065
 3834TIP3   OH233136   6.181   4.510   0.981  0.2931 -0.4270 -0.5015
 3834TIP3    H133137   6.090   4.488   0.998 -0.5911 -0.4762 -4.4307
 3834TIP3    H233138   6.190   4.601   1.011 -0.8650 -0.6054  0.4228
 3835TIP3   OH233139   3.396   5.313   1.472  0.0827 -0.1856 -0.2448
 3835TIP3    H133140   3.334   5.363   1.526  0.2492  0.2794 -0.4766
 3835TIP3    H233141   3.396   5.358   1.387  0.2478 -0.5718 -0.4514
 3836TIP3   OH233142   2.631   6.572   0.864  0.2060  0.3715  0.1106
 3836TIP3    H133143   2.596   6.519   0.935  0.5961  1.3069  1.0297
 3836TIP3    H233144   2.692   6.513   0.819  1.9553  0.4872  2.1607
 3837TIP3   OH233145   0.155   3.917   1.811  0.4144  0.0166  0.7887
 3837TIP3    H133146   0.213   3.986   1.777 -0.6009 -0.1094 -1.3338
 3837TIP3    H233147   0.180   3.909   1.903 -0.0093  3.8208  1.3918
 3838TIP3   OH233148   2.745   0.907   1.337 -0.1336 -0.0008  0.2453
 3838TIP3    H133149   2.724   0.868   1.422  1.3441 -3.4610 -0.8102
 3838TIP3    H233150   2.663   0.903   1.288 -0.4669  0.0616  0.7873
 3839TIP3   OH233151   2.263   5.895   1.960 -0.1793  0.5299 -0.1830
 3839TIP3    H133152   2.168   5.903   1.961 -0.3225 -0.8705  1.5199
 3839TIP3    H233153   2.294   5.978   1.996 -0.6986  1.1699 -1.1483
 3840TIP3   OH233154   5.801   4.881   6.801 -0.0157 -0.2049 -0.1350
 3840TIP3    H133155   5.884   4.835   6.797  0.9737  1.2716  1.6561
 3840TIP3    H233156   5.824   4.973   6.785 -0.8473  0.6042  2.7234
 3841TIP3   OH233157   0.482   5.295   7.461 -0.4881  0.4859 -0.1669
 3841TIP3    H133158   0.450   5.247   7.385  3.2910  0.7106 -2.1395
 3841TIP3    H233159   0.448   5.247   7.536 -1.6865 -1.7323 -2.0046
 3842TIP3   OH233160   4.953   3.115   0.056 -0.3969 -0.3503 -0.4371
 3842TIP3    H133161   4.918   3.204   0.061 -1.4905 -0.7785 -0.1612
 3842TIP3    H233162   4.975   3.104  -0.037 -0.1212  0.2500 -0.4512
 3843TIP3   OH233163   1.920   6.958   1.299 -0.0758 -0.1872  0.1188
 3843TIP3    H133164   1.916   6.928   1.208 -1.3249 -0.6119  0.2876
 3843TIP3    H233165   1.829   6.959   1.327  0.1489  1.5494  0.8700
 3844TIP3   OH233166   4.246   3.888   0.307  0.6250 -0.4398  0.3045
 3844TIP3    H133167   4.164   3.936   0.307 -1.3883 -3.4032  3.1277
 3844TIP3    H233168   4.244   3.835   0.227 -0.8230 -1.2742  0.8628
 3845TIP3   OH233169   1.811   3.183   7.785 -0.5645 -0.2632  0.1632
 3845TIP3    H133170   1.783   3.245   7.853 -1.5316  0.1933 -0.6160
 3845TIP3    H233171   1.766   3.101   7.807 -1.3321  0.0440 -0.2360
 3846TIP3   OH233172   2.739   0.743   6.936 -0.0854 -0.4917  0.4528
 3846TIP3    H133173   2.707   0.655   6.919 -0.7625 -0.1807  0.0963
 3846TIP3    H233174   2.700   0.768   7.019 -0.8430 -0.0858 -0.0163
 3847TIP3   OH233175   5.471   2.025   8.046  0.3178 -0.0234 -0.2286
 3847TIP3    H133176   5.508   2.108   8.016 -2.6325  1.4379 -0.1761
 3847TIP3    H233177   5.493   1.963   7.976 -2.3102  2.1813 -3.3016
 3848TIP3   OH233178   3.680   0.785   1.973 -0.2997  0.6101  0.2646
 3848TIP3    H133179   3.589   0.781   2.003 -0.9334  0.0612 -1.5551
 3848TIP3    H233180   3.698   0.879   1.965 -1.4982  0.7451 -1.4428
 3849TIP3   OH233181   3.590   0.325   1.800  0.4707  1.0745 -0.2233
 3849TIP3    H133182   3.559   0.243   1.839  0.9815  2.0899  2.5703
 3849TIP3    H233183   3.527   0.344   1.730 -0.7687 -0.7000  0.3385
 3850TIP3   OH233184   6.887   5.051   7.137  0.3566  0.9345 -0.5394
 3850TIP3    H133185   6.844   5.072   7.054 -1.7132  0.9135  0.4430
 3850TIP3    H233186   6.852   4.966   7.161 -0.2375  1.5805  1.0308
 3851TIP3   OH233187   0.534   6.096   7.536  0.5176 -0.2257  0.5428
 3851TIP3    H133188   0.577   6.106   7.621  0.1108 -0.0263  0.7278
 3851TIP3    H233189   0.574   6.163   7.481  2.4752 -1.8399 -0.1335
 3852TIP3   OH233190   3.956   1.497   0.404  0.6794 -0.1078 -0.1120
 3852TIP3    H133191   3.980   1.589   0.389 -1.5283  0.4003 -0.9437
 3852TIP3    H233192   3.932   1.493   0.497  2.0963 -0.1944  0.2649
 3853TIP3   OH233193   3.517   3.523   1.134  0.5684  0.9418  0.6758
 3853TIP3    H133194   3.443   3.579   1.159  0.6158  0.8423  1.0485
 3853TIP3    H233195   3.571   3.578   1.078 -0.7467  0.4375 -1.1713
 3854TIP3   OH233196   3.852   0.798   1.471  0.6757  0.3345 -0.5311
 3854TIP3    H133197   3.812   0.711   1.479  0.3523  0.5075 -0.2593
 3854TIP3    H233198   3.789   0.857   1.512  1.3797  0.5609  0.2555
 3855TIP3   OH233199   0.171   5.499   8.185  0.5670 -0.0773  0.0546
 3855TIP3    H133200   0.193   5.424   8.129 -0.9041  0.0788 -0.7853
 3855TIP3    H233201   0.228   5.489   8.262  2.7753 -0.2230 -1.4951
 3856TIP3   OH233202   0.564   3.782   7.116  0.1507 -0.0644  0.3270
 3856TIP3    H133203   0.605   3.709   7.162 -0.2999 -0.1499  0.6056
 3856TIP3    H233204   0.606   3.860   7.151  2.2943 -0.2421 -1.6083
 3857TIP3   OH233205   6.271   1.519   2.327  0.4816 -0.5276  0.7988
 3857TIP3    H133206   6.284   1.613   2.339 -0.5836 -0.2367 -0.1933
 3857TIP3    H233207   6.237   1.489   2.412  2.0204 -0.2806  1.5390
 3858TIP3   OH233208   0.477   3.738   7.427 -0.1955 -0.6746  0.5572
 3858TIP3    H133209   0.438   3.805   7.371  1.1325  0.3713  0.8363
 3858TIP3    H233210   0.545   3.784   7.476  1.4219 -2.3971  0.0625
 3859TIP3   OH233211   2.982   0.518   0.488 -0.2178 -0.0769 -0.0387
 3859TIP3    H133212   2.983   0.610   0.512  0.2870  0.1242 -0.7775
 3859TIP3    H233213   2.925   0.513   0.411 -1.5738 -0.6585  0.9660
 3860TIP3   OH233214   3.353   5.421   1.184  0.1485  0.3739 -0.7499
 3860TIP3    H133215   3.367   5.507   1.145 -1.8633  0.9263 -0.3405
 3860TIP3    H233216   3.262   5.400   1.164  0.7357 -1.9410 -1.3333
 3861TIP3   OH233217   3.750   4.231   2.071 -0.0740  0.1700 -0.2024
 3861TIP3    H133218   3.685   4.292   2.105  1.7739  3.4223 -2.0061
 3861TIP3    H233219   3.827   4.244   2.126  0.3392 -0.6159 -0.5769
 3862TIP3   OH233220   3.527   2.868   7.014 -0.2009 -0.2912 -0.4294
 3862TIP3    H133221   3.476   2.942   7.046 -1.3005 -1.4156  0.5384
 3862TIP3    H233222   3.564   2.898   6.931  0.8847  1.9599  0.7577
 3863TIP3   OH233223   2.585   6.424   1.489  0.1462 -0.1803  0.5243
 3863TIP3    H133224   2.545   6.409   1.404  0.4743 -1.2220  0.5365
 3863TIP3    H233225   2.678   6.437   1.469  0.2075 -0.3327  0.7055
 3864TIP3   OH233226   4.857   4.917   7.280  0.4371  0.6308 -0.2222
 3864TIP3    H133227   4.846   4.989   7.218 -2.5262 -0.0682 -0.6793
 3864TIP3    H233228   4.769   4.883   7.292  1.5915 -2.3708  0.6566
 3865TIP3   OH233229   3.677   2.333   7.365 -0.1470 -0.4576  0.0153
 3865TIP3    H133230   3.600   2.278   7.352  0.8413 -1.3218 -3.5213
 3865TIP3    H233231   3.674   2.395   7.291  1.3287  1.0501  1.1536
 3866TIP3   OH233232   4.011   5.059   0.429  0.0878  1.0691  0.0221
 3866TIP3    H133233   4.063   5.014   0.363  1.4110 -0.6102  2.0811
 3866TIP3    H233234   4.074   5.082   0.497 -1.7648 -1.5124  2.8751
 3867TIP3   OH233235   6.823   3.272   7.706  0.1910 -0.1042 -0.6197
 3867TIP3    H133236   6.876   3.340   7.663 -0.8561  0.0581 -1.6845
 3867TIP3    H233237   6.736   3.310   7.714  0.6492  0.5784  3.2880
 3868TIP3   OH233238   0.230   4.469   7.054 -0.5428  0.2505  0.3831
 3868TIP3    H133239   0.279   4.470   6.972  2.2976  1.5942  1.9594
 3868TIP3    H233240   0.242   4.381   7.088 -0.4699  0.1414  0.0824
 3869TIP3   OH233241   1.086   0.765   0.330 -0.5194  0.0640 -0.1720
 3869TIP3    H133242   1.070   0.811   0.413 -0.1717 -1.1430  0.5897
 3869TIP3    H233243   1.115   0.834   0.270 -1.8019  1.1424  0.3838
 3870TIP3   OH233244   1.523   2.163   8.177  0.1031  0.2685 -0.0970
 3870TIP3    H133245   1.538   2.069   8.167  0.8280  0.2692  0.8460
 3870TIP3    H233246   1.439   2.178   8.134  1.4782 -0.2189 -3.2901
 3871TIP3   OH233247   2.633   6.944   3.107  0.4093 -0.5321 -0.4447
 3871TIP3    H133248   2.708   7.001   3.123  1.0331 -1.3220 -0.4958
 3871TIP3    H233249   2.571   6.999   3.058  0.9877  0.0964 -0.4871
 3872TIP3   OH233250   6.867   4.741   8.260  0.1507  0.2896 -0.2679
 3872TIP3    H133251   6.796   4.762   8.321  0.7145 -0.5322  0.7175
 3872TIP3    H233252   6.823   4.715   8.179 -0.6772 -0.0336  0.2772
 3873TIP3   OH233253   3.821   0.705   7.990  0.2377 -0.3330  0.0457
 3873TIP3    H133254   3.822   0.744   8.078 -0.5301 -0.5371  0.1519
 3873TIP3    H233255   3.780   0.772   7.935  0.6764 -0.2250 -0.1521
 3874TIP3   OH233256   4.774   1.201   1.575  0.4289 -0.1866  0.1096
 3874TIP3    H133257   4.855   1.160   1.546  0.4035 -0.0289 -0.1981
 3874TIP3    H233258   4.802   1.270   1.635  0.4746 -0.6108  0.5794
 3875TIP3   OH233259   1.654   6.496   7.580 -0.3683  0.2775 -0.2598
 3875TIP3    H133260   1.574   6.494   7.528 -1.3267  0.1578  1.1512
 3875TIP3    H233261   1.679   6.404   7.589  0.0171  0.3227 -0.8061
 3876TIP3   OH233262   2.395   1.511   1.598  0.0896 -0.2626 -0.1475
 3876TIP3    H133263   2.488   1.506   1.577 -0.0735  0.3258 -1.0431
 3876TIP3    H233264   2.352   1.524   1.514 -1.1364 -3.9709 -0.2875
 3877TIP3   OH233265   2.111   4.670   1.042  0.0810  0.3102  0.0000
 3877TIP3    H133266   2.078   4.648   1.129 -0.9185  2.5826  0.2650
 3877TIP3    H233267   2.033   4.688   0.990  0.5966 -1.9433 -1.7274
 3878TIP3   OH233268   0.092   3.841   7.472  0.1177  0.4680  0.2459
 3878TIP3    H133269   0.016   3.857   7.416  1.2949 -0.5704 -1.7822
 3878TIP3    H233270   0.057   3.795   7.548 -1.4162  1.0243 -0.0846
 3879TIP3   OH233271   2.323   2.800   1.477  0.0921 -0.4680 -0.3053
 3879TIP3    H133272   2.327   2.766   1.387  1.6628 -0.4762 -0.2535
 3879TIP3    H233273   2.246   2.757   1.515 -0.9214 -0.0576 -1.7961
 3880TIP3   OH233274   6.659   0.542   8.118  0.1980 -0.3124  0.5849
 3880TIP3    H133275   6.580   0.505   8.078  0.1966 -1.7541  1.8065
 3880TIP3    H233276   6.639   0.542   8.212  0.7486  1.5863  0.7338
 3881TIP3   OH233277   3.091   6.105   0.796  0.1957  0.1338  0.6192
 3881TIP3    H133278   3.147   6.038   0.757 -0.7341  0.5559 -1.5820
 3881TIP3    H233279   3.141   6.187   0.786  1.2582 -0.1141  3.1540
 3882TIP3   OH233280   2.184   4.915   7.880 -0.2835  0.2102  0.4558
 3882TIP3    H133281   2.117   4.847   7.869  1.1812 -1.2935  0.2241
 3882TIP3    H233282   2.260   4.867   7.912  0.4991  1.9614  1.3065
 3883TIP3   OH233283   5.289   0.911   8.370 -0.3703  0.7972 -0.1546
 3883TIP3    H133284   5.377   0.906   8.407 -0.3656  2.8685  0.2203
 3883TIP3    H233285   5.237   0.953   8.438 -1.5066  0.2082 -0.6424
 3884TIP3   OH233286   4.605   6.966   1.118 -0.6317  0.4715 -0.4981
 3884TIP3    H133287   4.515   6.996   1.103 -0.9577 -0.7354 -1.0821
 3884TIP3    H233288   4.597   6.871   1.130  0.3791  0.5500  1.0939
 3885TIP3   OH233289   1.095   0.479   2.704 -0.3226 -0.0678 -0.1203
 3885TIP3    H133290   1.097   0.571   2.730 -0.0082  0.0279 -0.4674
 3885TIP3    H233291   1.153   0.436   2.766 -0.5252 -0.0464  0.0872
 3886TIP3   OH233292   0.180   2.551   7.706 -0.1507  0.1240  0.3061
 3886TIP3    H133293   0.239   2.527   7.777 -1.9226 -0.4556  1.6504
 3886TIP3    H233294   0.142   2.634   7.734  0.9881  1.2016 -1.1935
 3887TIP3   OH233295   4.392   1.554   0.588  0.4136  0.2182 -0.2037
 3887TIP3    H133296   4.480   1.540   0.554  0.8485  0.3711  0.8434
 3887TIP3    H233297   4.394   1.519   0.677 -1.1982 -1.8279 -0.8746
 3888TIP3   OH233298   2.374   6.596   1.552  0.0149  0.3115  0.0157
 3888TIP3    H133299   2.456   6.546   1.551  1.0006  1.8340  1.2476
 3888TIP3    H233300   2.309   6.535   1.586  0.4191 -1.1847 -1.7605
 3889TIP3   OH233301   2.097   3.246   7.721 -0.1286 -0.4229 -0.0884
 3889TIP3    H133302   2.007   3.222   7.700 -0.9553  1.5257  0.9664
 3889TIP3    H233303   2.089   3.316   7.785  2.1402  0.1759 -0.3597
 3890TIP3   OH233304   3.020   6.934   0.462 -0.0148  0.6777  0.9873
 3890TIP3    H133305   3.000   6.984   0.541  0.6028  0.8227  1.0539
 3890TIP3    H233306   3.011   6.998   0.391 -0.5343  0.5561  0.9391
 3891TIP3   OH233307   1.375   6.872   2.039  0.0030  0.0809  0.3827
 3891TIP3    H133308   1.342   6.803   2.097 -0.6488  1.3334  1.5579
 3891TIP3    H233309   1.455   6.903   2.082 -0.1107  0.5578  0.2525
 3892TIP3   OH233310   0.087   4.891   1.872  0.3953  0.8493 -0.1199
 3892TIP3    H133311   0.059   4.855   1.955 -3.4973  2.5690 -0.4698
 3892TIP3    H233312   0.126   4.817   1.825 -0.0030 -0.8529  2.0663
 3893TIP3   OH233313   2.732   3.660   6.290 -0.1784  0.2801 -0.3815
 3893TIP3    H133314   2.708   3.659   6.383 -1.6821  0.0267 -0.7472
 3893TIP3    H233315   2.820   3.697   6.289 -0.6528  1.5933  1.0318
 3894TIP3   OH233316   4.803   2.564   0.676 -0.1045 -0.5145  0.4795
 3894TIP3    H133317   4.728   2.517   0.638 -1.1752  0.4959  1.2952
 3894TIP3    H233318   4.864   2.494   0.700 -0.2852 -1.3014 -1.1700
 3895TIP3   OH233319   4.285   5.643   8.292 -0.2600 -0.1602 -0.2480
 3895TIP3    H133320   4.230   5.710   8.334 -1.4092  0.6636 -2.8756
 3895TIP3    H233321   4.231   5.564   8.296 -0.9421  0.2316 -1.2784
 3896TIP3   OH233322   4.618   6.537   8.410 -0.1681 -0.3551  0.2597
 3896TIP3    H133323   4.533   6.570   8.381 -1.3744 -3.1436  0.2084
 3896TIP3    H233324   4.646   6.479   8.340  1.6589  0.2754  0.4339
 3897TIP3   OH233325   5.200   5.040   7.032 -0.5093  0.2357  0.3912
 3897TIP3    H133326   5.259   5.093   6.979  1.3781  1.5086  3.4756
 3897TIP3    H233327   5.113   5.074   7.014 -0.0316  0.3706 -2.0110
 3898TIP3   OH233328   4.972   2.843   1.319 -0.0203  0.4538  0.1339
 3898TIP3    H133329   4.922   2.900   1.378  0.6092  1.9330 -0.6976
 3898TIP3    H233330   4.906   2.797   1.268 -0.5665  1.7140 -0.3350
 3899TIP3   OH233331   5.767   1.482   1.852  0.3975  0.0574  0.5206
 3899TIP3    H133332   5.851   1.504   1.810  0.4853 -0.1774  0.5715
 3899TIP3    H233333   5.721   1.565   1.858 -1.3140 -0.3288 -3.6094
 3900TIP3   OH233334   2.766   0.374   2.141 -0.1750  0.5156 -0.3471
 3900TIP3    H133335   2.857   0.388   2.116  1.3600 -2.0073  3.1461
 3900TIP3    H233336   2.745   0.286   2.110  0.1096 -0.6324  2.4630
 3901TIP3   OH233337   3.511   0.306   0.130  0.5205  0.4327 -0.1862
 3901TIP3    H133338   3.556   0.251   0.194  0.0293  0.7622  0.4534
 3901TIP3    H233339   3.570   0.309   0.055  0.7981 -0.5195 -0.0182
 3902TIP3   OH233340   2.800   5.801   7.343 -0.1916  0.3370  0.1850
 3902TIP3    H133341   2.885   5.769   7.313 -1.1996 -0.8689 -1.5678
 3902TIP3    H233342   2.753   5.822   7.262 -1.9707 -0.1211  1.0579
 3903TIP3   OH233343   4.940   2.258   7.919 -0.4235  0.2901  0.1002
 3903TIP3    H133344   4.883   2.287   7.848 -1.2340 -2.3886 -0.4513
 3903TIP3    H233345   4.907   2.172   7.943  2.1610 -0.5119  1.1644
 3904TIP3   OH233346   5.025   6.568   8.061 -0.3197  0.2974 -0.1328
 3904TIP3    H133347   5.112   6.541   8.090 -1.4975 -1.1027  2.4704
 3904TIP3    H233348   4.992   6.492   8.011 -0.3597  0.4930 -0.4056
 3905TIP3   OH233349   3.829   6.581   0.283  0.2687 -0.4677  0.3656
 3905TIP3    H133350   3.780   6.572   0.201 -1.3793  1.9681  0.9866
 3905TIP3    H233351   3.807   6.502   0.332  0.1680 -1.3018 -0.9575
 3906TIP3   OH233352   1.173   3.154   0.340 -0.0572  0.3898 -0.5800
 3906TIP3    H133353   1.229   3.230   0.355 -1.2161  0.8547  1.9064
 3906TIP3    H233354   1.234   3.081   0.325  1.1683  1.1912  0.3374
 3907TIP3   OH233355   4.503   1.974   1.403  0.4993 -0.0502  0.2021
 3907TIP3    H133356   4.583   1.928   1.379 -0.5103 -0.7237 -2.2329
 3907TIP3    H233357   4.457   1.914   1.462 -0.7738 -2.3669 -2.8751
 3908TIP3   OH233358   6.350   2.721   1.488  0.1815 -0.3438  0.1180
 3908TIP3    H133359   6.280   2.757   1.543  0.7004 -0.6536  1.0110
 3908TIP3    H233360   6.347   2.773   1.408 -0.2224  0.5058  0.6700
 3909TIP3   OH233361   6.865   6.156   0.232  0.2710  0.1195 -0.0839
 3909TIP3    H133362   6.900   6.072   0.262 -0.3129 -0.1890 -0.2779
 3909TIP3    H233363   6.911   6.173   0.150 -0.2611 -0.4402 -0.5014
 3910TIP3   OH233364   5.773   2.744   2.245  0.4818  0.3747  0.4227
 3910TIP3    H133365   5.812   2.831   2.237  0.1560  0.4862 -0.0005
 3910TIP3    H233366   5.679   2.759   2.232  0.3451  0.0477  0.9764
 3911TIP3   OH233367   4.276   5.355   1.803  0.6600  0.1915 -0.3038
 3911TIP3    H133368   4.215   5.359   1.877  0.1130 -0.4436 -0.7053
 3911TIP3    H233369   4.220   5.346   1.727  1.2654 -0.4427 -0.6809
 3912TIP3   OH233370   3.209   0.092   0.851  0.3773 -0.1073 -0.0772
 3912TIP3    H133371   3.266   0.078   0.927 -0.0150 -1.0505  0.0598
 3912TIP3    H233372   3.152   0.014   0.849  0.3621 -0.0850 -1.3225
 3913TIP3   OH233373   2.032   1.535   3.060 -0.2715 -0.8102  0.0468
 3913TIP3    H133374   2.007   1.556   3.150  2.0107 -0.2870  0.6197
 3913TIP3    H233375   1.963   1.574   3.007  0.2360  2.2244  1.4181
 3914TIP3   OH233376   1.605   6.541   2.500  0.2748  0.1011  0.5229
 3914TIP3    H133377   1.621   6.454   2.536  0.5233 -0.2224 -0.3513
 3914TIP3    H233378   1.693   6.575   2.481  0.2129  0.7437  1.2885
 3915TIP3   OH233379   3.992   2.140   8.305 -0.4494 -0.5369  0.4062
 3915TIP3    H133380   3.981   2.227   8.268  1.8678  0.2095  1.3203
 3915TIP3    H233381   4.004   2.083   8.228 -2.0233 -0.1080 -0.1923
 3916TIP3   OH233382   4.822   6.330   8.154  0.7659 -0.6273 -0.2912
 3916TIP3    H133383   4.879   6.318   8.230  0.5802 -0.3657 -0.1072
 3916TIP3    H233384   4.743   6.282   8.175 -0.2103  1.2943  0.6995
 3917TIP3   OH233385   6.622   1.846   0.404  0.0669 -0.4585 -0.0960
 3917TIP3    H133386   6.556   1.824   0.470 -1.2966 -1.2431 -1.6464
 3917TIP3    H233387   6.681   1.906   0.449 -1.5518  0.0826  1.4522
 3918TIP3   OH233388   1.677   5.817   1.444 -0.5385  0.0390  0.5749
 3918TIP3    H133389   1.677   5.852   1.533 -0.4061  0.7675  0.2916
 3918TIP3    H233390   1.731   5.878   1.395  0.3814 -1.0059  0.2478
 3919TIP3   OH233391   3.131   3.855   8.488 -0.6828 -0.1743  0.0771
 3919TIP3    H133392   3.087   3.797   8.425 -1.8456  1.1381 -0.3760
 3919TIP3    H233393   3.123   3.942   8.450 -0.0737  0.4626  1.3392
 3920TIP3   OH233394   4.670   4.055   1.687 -0.6533  0.3576  0.4064
 3920TIP3    H133395   4.728   4.078   1.760  0.3965  0.2366 -0.3643
 3920TIP3    H233396   4.603   3.999   1.726 -0.2886  0.5482  1.3340
 3921TIP3   OH233397   3.711   4.569   1.152  0.4792 -0.3155 -0.1951
 3921TIP3    H133398   3.796   4.526   1.164 -0.5874 -1.8753  2.5275
 3921TIP3    H233399   3.711   4.641   1.215 -0.1181 -0.1049 -0.4243
 3922TIP3   OH233400   4.117   3.411   0.708  0.1659 -0.3520  0.0784
 3922TIP3    H133401   4.090   3.486   0.655  0.2605  1.0113  1.8582
 3922TIP3    H233402   4.198   3.439   0.750  0.1208 -1.3943  0.9047
 3923TIP3   OH233403   4.517   6.474   2.908 -0.3020  0.7581  0.6524
 3923TIP3    H133404   4.585   6.407   2.912 -0.4861  0.4157 -1.3590
 3923TIP3    H233405   4.563   6.552   2.876 -0.8967  0.4209 -1.0925
 3924TIP3   OH233406   6.422   2.385   8.144 -0.4477  0.1439  0.0354
 3924TIP3    H133407   6.395   2.451   8.208  2.2571  0.7461  0.7005
 3924TIP3    H233408   6.357   2.390   8.074 -2.6218  0.5759  1.9829
 3925TIP3   OH233409   6.556   3.871   1.757  0.2533  0.4559 -0.2457
 3925TIP3    H133410   6.598   3.799   1.804 -2.7127 -1.8753 -0.8223
 3925TIP3    H233411   6.542   3.838   1.668 -1.3443  1.6564 -0.4969
 3926TIP3   OH233412   4.548   6.780   3.091 -0.0861  0.2320 -0.0713
 3926TIP3    H133413   4.491   6.718   3.137  0.8369  0.1504  1.0146
 3926TIP3    H233414   4.596   6.726   3.028 -0.1867  0.0600 -0.0012
 3927TIP3   OH233415   3.350   5.115   8.280  0.2560 -0.8370 -0.1228
 3927TIP3    H133416   3.308   5.142   8.361 -0.8613  0.0597 -0.9604
 3927TIP3    H233417   3.361   5.021   8.288 -1.4187 -1.0172  0.3817
 3928TIP3   OH233418   5.771   4.945   7.576 -0.1615  0.3957  0.6026
 3928TIP3    H133419   5.721   4.864   7.569 -0.5421  0.5865  1.0622
 3928TIP3    H233420   5.829   4.932   7.651  1.5959 -0.4052 -0.8170
 3929TIP3   OH233421   2.682   2.698   2.845  0.1781 -0.5132  0.2601
 3929TIP3    H133422   2.738   2.632   2.885 -0.1774 -0.7559  0.3637
 3929TIP3    H233423   2.632   2.735   2.918  1.9493  1.4681  0.5888
 3930TIP3   OH233424   6.157   6.316   2.003 -0.1364  0.7844  0.1564
 3930TIP3    H133425   6.240   6.307   2.050 -1.2477  0.5446  2.1895
 3930TIP3    H233426   6.145   6.411   1.994  1.4737  0.8612 -2.4175
 3931TIP3   OH233427   0.850   1.260   3.220  0.5864 -0.1185  0.2574
 3931TIP3    H133428   0.838   1.273   3.314  1.3467  1.5264  0.1609
 3931TIP3    H233429   0.762   1.260   3.184  0.3519  1.8175  0.7018
 3932TIP3   OH233430   4.013   6.186   6.895 -0.1321 -0.5029  0.6408
 3932TIP3    H133431   3.984   6.200   6.804  0.9517  2.0136  0.5921
 3932TIP3    H233432   3.946   6.229   6.948 -0.3012 -1.2016  1.0092
 3933TIP3   OH233433   1.883   2.959   0.798  0.1211  0.0318 -0.1195
 3933TIP3    H133434   1.822   2.888   0.816 -0.0696 -0.5561 -2.6946
 3933TIP3    H233435   1.829   3.029   0.761  0.6348  0.5512  0.0957
 3934TIP3   OH233436   3.960   4.261   8.380  0.3883 -0.8354  0.2849
 3934TIP3    H133437   3.972   4.169   8.403  1.2194 -0.3263  1.9851
 3934TIP3    H233438   3.869   4.267   8.352  0.1602 -2.0559  0.7271
 3935TIP3   OH233439   4.294   3.553   2.662 -0.2548  0.1126  0.2046
 3935TIP3    H133440   4.362   3.487   2.646 -0.6210 -0.2330  0.0844
 3935TIP3    H233441   4.232   3.510   2.720 -1.5482 -0.3448 -1.4450
 3936TIP3   OH233442   3.065   2.753   7.862 -0.3334 -0.0026  0.3555
 3936TIP3    H133443   3.004   2.740   7.790  0.0570 -2.3426  0.3684
 3936TIP3    H233444   3.076   2.666   7.900  1.0392  0.8179  1.9628
 3937TIP3   OH233445   2.253   0.012   7.318 -0.1875 -0.4236  0.2374
 3937TIP3    H133446   2.238  -0.080   7.339  0.8426 -0.6283  0.1328
 3937TIP3    H233447   2.223   0.021   7.227 -0.7685 -0.5325  0.4191
 3938TIP3   OH233448   2.522   4.497   7.936 -0.0902 -0.4819 -0.2539
 3938TIP3    H133449   2.542   4.578   7.982 -0.5328 -0.8116  0.5305
 3938TIP3    H233450   2.598   4.441   7.952  0.4373 -0.0739 -1.1972
 3939TIP3   OH233451   3.991   3.072   7.420  0.2712  0.2761 -0.0561
 3939TIP3    H133452   3.944   3.150   7.449 -0.6423 -0.4825  0.5583
 3939TIP3    H233453   3.923   3.006   7.407  1.1896 -1.0414  1.4643
 3940TIP3   OH233454   0.669   1.891   0.472  0.5105  0.0512  0.0099
 3940TIP3    H133455   0.717   1.942   0.537  0.1575  0.0285  0.2899
 3940TIP3    H233456   0.608   1.953   0.432  1.0682  0.1879 -0.6575
 3941TIP3   OH233457   5.944   0.341   1.947 -0.0705  0.5284 -0.0078
 3941TIP3    H133458   5.915   0.292   2.023 -1.2560 -0.1594 -0.8764
 3941TIP3    H233459   5.866   0.388   1.917  0.4335  0.9674 -0.6743
 3942TIP3   OH233460   1.231   3.680   7.042  0.2374  0.3850  0.1888
 3942TIP3    H133461   1.240   3.660   7.135  0.2203 -0.6914 -0.0229
 3942TIP3    H233462   1.220   3.775   7.038 -2.5076  0.2158  1.5067
 3943TIP3   OH233463   2.116   4.051   8.332  0.5389 -0.2642 -0.4392
 3943TIP3    H133464   2.189   4.087   8.383  1.3067 -1.5932 -0.5585
 3943TIP3    H233465   2.073   4.128   8.294  2.6351  0.4979 -1.4148
 3944TIP3   OH233466   2.607   6.202   0.448  0.0957  0.0875  0.4209
 3944TIP3    H133467   2.699   6.217   0.470  0.2491 -2.4270  1.8692
 3944TIP3    H233468   2.609   6.164   0.360  0.6124 -1.0994  0.9140
 3945TIP3   OH233469   1.711   2.019   2.190  0.3224  0.3404  0.4072
 3945TIP3    H133470   1.616   2.009   2.190  0.2881 -0.2965  3.6270
 3945TIP3    H233471   1.729   2.079   2.118 -2.3702 -0.3712 -0.9894
 3946TIP3   OH233472   0.436   0.736   1.282  0.1469 -0.0059  0.6464
 3946TIP3    H133473   0.482   0.793   1.344  0.9538  1.3156 -1.0961
 3946TIP3    H233474   0.353   0.782   1.264  0.8483  0.7567 -0.8466
 3947TIP3   OH233475   6.067   1.392   7.332 -0.7771 -0.1921 -0.5023
 3947TIP3    H133476   6.083   1.412   7.240  1.7847  1.5199  0.2246
 3947TIP3    H233477   5.973   1.409   7.344 -1.6981 -2.6186 -3.2216
 3948TIP3   OH233478   2.438   6.872   1.084  0.4883 -0.1967 -0.0167
 3948TIP3    H133479   2.516   6.838   1.040  0.9061 -0.0578  0.5993
 3948TIP3    H233480   2.440   6.831   1.171  1.0307  1.3738  0.7675
 3949TIP3   OH233481   0.563   3.689   7.797  0.5765 -0.7143  0.2107
 3949TIP3    H133482   0.476   3.656   7.822  0.5444 -0.3065  0.6473
 3949TIP3    H233483   0.603   3.615   7.751 -0.2927 -0.6401 -0.6919
 3950TIP3   OH233484   6.205   2.163   8.464 -0.2517  0.5506  0.2833
 3950TIP3    H133485   6.194   2.072   8.437 -1.6395  0.6772  0.3033
 3950TIP3    H233486   6.269   2.159   8.535 -1.9308 -0.7463  1.8387
 3951TIP3   OH233487   3.864   2.498   0.557 -0.2714 -0.1477 -0.3145
 3951TIP3    H133488   3.847   2.592   0.549 -0.3692 -0.3039 -2.6705
 3951TIP3    H233489   3.849   2.479   0.649 -0.5839  2.0746  0.1616
 3952TIP3   OH233490   2.959   4.025   1.961  0.4856  0.5067 -0.0086
 3952TIP3    H133491   2.885   4.069   2.003  0.3818  0.2058  0.1273
 3952TIP3    H233492   3.028   4.092   1.959  0.3283  0.6797  0.1863
 3953TIP3   OH233493   5.524   5.557   2.023  0.1756  0.0278  0.0968
 3953TIP3    H133494   5.543   5.465   2.039  0.0681 -0.0838 -0.4088
 3953TIP3    H233495   5.450   5.577   2.080  2.4414  0.7880  3.0426
 3954TIP3   OH233496   4.720   1.327   8.509  0.0596  0.0759  0.0683
 3954TIP3    H133497   4.719   1.273   8.430 -1.5270 -0.3736  0.3642
 3954TIP3    H233498   4.764   1.407   8.482  0.7332 -0.5942 -0.9069
 3955TIP3   OH233499   5.587   3.970   6.397  0.2560 -0.4751  0.3292
 3955TIP3    H133500   5.537   3.950   6.476  0.1368 -0.4191  0.2690
 3955TIP3    H233501   5.677   3.980   6.428  0.4659 -1.8674  0.2495
 3956TIP3   OH233502   1.597   1.026   8.169 -0.2616 -0.4010  0.2510
 3956TIP3    H133503   1.675   1.044   8.118 -0.1169 -0.3332  0.4929
 3956TIP3    H233504   1.563   1.112   8.193  1.7893 -0.3108  3.4835
 3957TIP3   OH233505   1.670   6.904   8.123 -0.0404  0.0758  0.1469
 3957TIP3    H133506   1.579   6.934   8.121  0.1340  0.5848 -0.7923
 3957TIP3    H233507   1.681   6.864   8.209 -1.0244  0.4069  0.4319
 3958TIP3   OH233508   3.250   4.533   7.979 -0.2974  0.1459  0.5928
 3958TIP3    H133509   3.207   4.459   8.021 -1.0783  0.2875  0.0593
 3958TIP3    H233510   3.307   4.493   7.913 -0.4495  0.0075  0.5459
 3959TIP3   OH233511   2.108   2.468   7.906 -0.3945 -0.8728 -0.1653
 3959TIP3    H133512   2.149   2.446   7.990  1.5627 -1.2293 -1.1546
 3959TIP3    H233513   2.057   2.546   7.924  1.5724  0.2430  0.9709
 3960TIP3   OH233514   6.396   6.278   7.870  0.1346  0.7524  0.3621
 3960TIP3    H133515   6.466   6.342   7.859 -1.4780  2.4812 -0.3359
 3960TIP3    H233516   6.408   6.217   7.798 -0.2871  2.2545 -1.0379
 3961TIP3   OH233517   3.626   0.467   0.982 -0.1353  0.5495  0.1259
 3961TIP3    H133518   3.573   0.395   1.015 -0.1750  0.3440 -0.3726
 3961TIP3    H233519   3.594   0.544   1.030 -0.6255  0.3657  0.1031
 3962TIP3   OH233520   5.093   3.025   0.823  0.2978 -0.0022 -0.1730
 3962TIP3    H133521   5.133   2.940   0.807 -1.2346 -0.7532 -0.1739
 3962TIP3    H233522   5.012   3.006   0.871 -1.0519  1.2574 -1.8068
 3963TIP3   OH233523   1.042   5.051   6.450  0.2919  0.3513 -0.2728
 3963TIP3    H133524   0.983   4.982   6.482  0.3797 -0.0740 -0.9970
 3963TIP3    H233525   1.009   5.131   6.490  0.0827 -0.0848  0.4543
 3964TIP3   OH233526   4.459   3.954   7.236 -0.2008  0.2211 -0.4428
 3964TIP3    H133527   4.550   3.928   7.248 -0.4074  0.1074  1.1782
 3964TIP3    H233528   4.436   3.924   7.149  1.9796  2.3381 -1.8878
 3965TIP3   OH233529   0.956   6.318   2.558 -0.2340  0.0964 -0.4452
 3965TIP3    H133530   1.036   6.367   2.538  1.3395 -1.6547  1.1888
 3965TIP3    H233531   0.893   6.386   2.582  1.1413  1.4629 -0.4845
 3966TIP3   OH233532   3.663   0.025   3.576  0.0518  0.4829  0.1554
 3966TIP3    H133533   3.586   0.020   3.632  0.4297 -1.8979  0.5445
 3966TIP3    H233534   3.736  -0.002   3.633  0.7097 -0.2196 -0.9881
 3967TIP3   OH233535   1.568   3.346   8.427 -0.2591 -0.3583  0.4075
 3967TIP3    H133536   1.496   3.295   8.391 -0.4427  1.1483 -1.5264
 3967TIP3    H233537   1.632   3.351   8.355  0.6226  0.4630  1.2118
 3968TIP3   OH233538   0.788   1.554   1.687  0.1496 -0.1975  0.0010
 3968TIP3    H133539   0.736   1.625   1.724 -0.5523 -0.1003 -1.1389
 3968TIP3    H233540   0.878   1.581   1.700 -0.1038  0.8581 -0.3293
 3969TIP3   OH233541   2.201   1.942   0.107 -0.3667  0.7322 -0.5375
 3969TIP3    H133542   2.204   2.001   0.032  0.5151 -0.4729 -1.4825
 3969TIP3    H233543   2.116   1.898   0.099 -0.6998  1.3066 -0.2533
 3970TIP3   OH233544   5.538   4.368   7.752 -0.0323  0.3493 -0.3448
 3970TIP3    H133545   5.468   4.403   7.697  0.5732  1.1475 -0.6287
 3970TIP3    H233546   5.601   4.331   7.690 -0.0660 -0.1275 -0.1038
 3971TIP3   OH233547   3.380   6.815   8.251  0.1672 -0.2184  0.3080
 3971TIP3    H133548   3.295   6.771   8.249 -0.2004  0.4886 -0.2086
 3971TIP3    H233549   3.380   6.862   8.334  0.1039 -0.3232  0.3678
 3972TIP3   OH233550   0.105   2.407   7.485  0.1718 -0.5825  0.2277
 3972TIP3    H133551   0.026   2.450   7.452 -1.2844 -3.1868  0.0614
 3972TIP3    H233552   0.138   2.467   7.552 -2.8760 -0.0781  1.4616
 3973TIP3   OH233553   3.836   5.507   2.183  0.4882 -0.8387 -0.4079
 3973TIP3    H133554   3.905   5.539   2.240  1.2593 -2.9807 -0.0262
 3973TIP3    H233555   3.759   5.501   2.239  0.2212  0.6721 -0.5951
 3974TIP3   OH233556   0.097   6.818   8.507 -0.0793 -0.2693  0.0294
 3974TIP3    H133557   0.066   6.756   8.572 -0.7983 -1.8469 -1.7260
 3974TIP3    H233558   0.020   6.839   8.454  0.6319  0.3516 -0.7992
 3975TIP3   OH233559   5.490   5.391   1.645  0.0117 -0.1142  0.4761
 3975TIP3    H133560   5.511   5.484   1.650 -0.4602  0.1257 -1.2478
 3975TIP3    H233561   5.519   5.355   1.728  2.1054  1.1964  0.3696
 3976TIP3   OH233562   0.667   2.819   1.357 -0.1220  0.0651 -0.1692
 3976TIP3    H133563   0.762   2.816   1.344  0.1340  1.8754  0.9467
 3976TIP3    H233564   0.633   2.859   1.277  0.1732  0.4519 -0.1000
 3977TIP3   OH233565   6.650   4.472   6.634 -0.0935  0.2461  0.2080
 3977TIP3    H133566   6.602   4.473   6.551 -0.4840 -2.1090  0.3474
 3977TIP3    H233567   6.715   4.403   6.624  0.5394  0.6216  1.5148
 3978TIP3   OH233568   2.247   1.033   0.712  0.4008  0.4603 -0.1900
 3978TIP3    H133569   2.311   0.980   0.666  1.0151  1.2450 -0.2569
 3978TIP3    H233570   2.298   1.104   0.752 -0.5059  1.5145 -0.8567
 3979TIP3   OH233571   4.769   5.193   6.388 -0.0536 -0.1728 -0.4493
 3979TIP3    H133572   4.690   5.247   6.393  0.2376  0.3163 -1.0543
 3979TIP3    H233573   4.742   5.117   6.336  0.2368  0.6876 -1.9276
 3980TIP3   OH233574   5.323   1.362   2.945 -0.0732 -0.5153  0.0857
 3980TIP3    H133575   5.297   1.328   3.031 -1.8866 -1.3390 -0.7410
 3980TIP3    H233576   5.250   1.341   2.887 -0.9916  3.9487 -0.7755
 3981TIP3   OH233577   5.548   4.923   0.244 -0.2331  0.4594 -0.1987
 3981TIP3    H133578   5.457   4.927   0.213  0.3340  0.4084 -1.9430
 3981TIP3    H233579   5.588   5.003   0.210  0.7587 -0.2483 -0.7303
 3982TIP3   OH233580   2.790   4.451   7.701 -0.0901  1.1947  0.1622
 3982TIP3    H133581   2.848   4.523   7.729 -1.3417  1.6446  1.7445
 3982TIP3    H233582   2.705   4.493   7.689 -0.7744  0.0262  0.8470
 3983TIP3   OH233583   0.717   4.659   8.465  0.0347 -0.0259 -0.0420
 3983TIP3    H133584   0.689   4.629   8.379  2.3309  1.5917 -1.4614
 3983TIP3    H233585   0.721   4.754   8.457 -0.7714  0.2616  2.2487
 3984TIP3   OH233586   5.148   0.025   7.142 -0.4411 -0.3731  0.7556
 3984TIP3    H133587   5.175   0.094   7.082 -0.9314 -0.2274  0.6998
 3984TIP3    H233588   5.120  -0.047   7.085 -0.0515 -0.5755  0.8131
 3985TIP3   OH233589   2.589   0.372   8.075  0.1834  0.3600 -0.0506
 3985TIP3    H133590   2.670   0.358   8.027  0.4111  1.7894 -0.1241
 3985TIP3    H233591   2.581   0.467   8.082 -0.9981  0.2258  0.7881
 3986TIP3   OH233592   1.134   5.487   7.657  0.0301 -0.0154  0.0355
 3986TIP3    H133593   1.058   5.492   7.715  0.4045 -0.3586  0.5653
 3986TIP3    H233594   1.191   5.559   7.686  0.7356 -0.8759  0.8639
 3987TIP3   OH233595   5.523   6.264   0.334 -0.0757 -0.1674 -0.2612
 3987TIP3    H133596   5.560   6.324   0.270  1.5569 -0.5636  0.2751
 3987TIP3    H233597   5.460   6.211   0.285 -0.4373  0.9721 -1.0460
 3988TIP3   OH233598   6.393   2.881   8.222  0.1271  0.2772  0.6617
 3988TIP3    H133599   6.400   2.785   8.220  1.8554  0.3671 -2.2662
 3988TIP3    H233600   6.483   2.911   8.238 -0.0370  1.4137 -0.4281
 3989TIP3   OH233601   1.617   6.830   2.160 -0.0961  0.0133 -0.1163
 3989TIP3    H133602   1.673   6.890   2.211 -0.4743 -0.3041  0.6873
 3989TIP3    H233603   1.555   6.795   2.224  0.2636 -1.4195 -0.5325
 3990TIP3   OH233604   4.143   6.945   8.035 -0.4785  0.1416  0.9440
 3990TIP3    H133605   4.149   7.040   8.044  2.1695  0.1893 -0.4627
 3990TIP3    H233606   4.079   6.932   7.965  0.0701  0.9766  0.2638
 3991TIP3   OH233607   6.455   0.950   8.022 -0.5652  0.5242 -0.3137
 3991TIP3    H133608   6.550   0.938   8.011 -0.6858 -0.0045 -0.7837
 3991TIP3    H233609   6.416   0.896   7.954 -1.2246  0.3481  0.1979
 3992TIP3   OH233610   4.951   3.397   1.224  0.2538 -0.3391 -0.1612
 3992TIP3    H133611   4.967   3.303   1.223  1.3750 -0.2473  2.2206
 3992TIP3    H233612   4.858   3.406   1.208  0.5380 -1.6246 -3.2029
 3993TIP3   OH233613   4.970   4.317   1.685 -0.1136 -0.7278 -0.1560
 3993TIP3    H133614   4.885   4.360   1.694 -0.3088 -0.6396 -2.0141
 3993TIP3    H233615   5.017   4.339   1.766 -1.7416 -0.5606  0.7892
 3994TIP3   OH233616   5.631   3.818   7.644  0.1639 -0.2954 -0.2757
 3994TIP3    H133617   5.570   3.891   7.651 -1.7770 -1.9202  0.5161
 3994TIP3    H233618   5.611   3.777   7.560  0.6151 -0.4692 -0.3042
 3995TIP3   OH233619   1.158   2.187   1.992  0.3714  0.3331  0.7912
 3995TIP3    H133620   1.105   2.255   2.035 -1.1098  0.9258 -1.7759
 3995TIP3    H233621   1.228   2.236   1.948 -0.4170  0.2165 -0.6596
 3996TIP3   OH233622   4.752   2.296   2.099  0.3365  0.0532  1.0061
 3996TIP3    H133623   4.802   2.235   2.154  0.2454 -0.1966  0.8113
 3996TIP3    H233624   4.680   2.325   2.155 -0.6020 -1.3276  0.5380
 3997TIP3   OH233625   2.814   1.279   1.927 -0.5168 -0.2726 -0.3747
 3997TIP3    H133626   2.849   1.350   1.872  0.3639  1.3217  2.0641
 3997TIP3    H233627   2.734   1.315   1.964 -0.2739 -0.6983  0.5880
 3998TIP3   OH233628   3.195   6.199   0.365 -0.4133  0.8968  0.0676
 3998TIP3    H133629   3.284   6.183   0.334  0.1037  1.1665  1.3360
 3998TIP3    H233630   3.144   6.126   0.330  0.4033  0.4845 -0.2906
 3999TIP3   OH233631   3.141   2.756   0.201  0.0499  0.0703 -0.1188
 3999TIP3    H133632   3.182   2.773   0.286 -0.0410 -2.4488  0.5105
 3999TIP3    H233633   3.210   2.718   0.148 -0.5141 -0.8056 -0.2606
 4000TIP3   OH233634   4.175   6.746   6.375 -0.1901  0.3134 -0.5171
 4000TIP3    H133635   4.225   6.666   6.394  0.4095  0.6491 -0.6566
 4000TIP3    H233636   4.101   6.743   6.435 -0.9028 -1.0018 -1.4035
 4001TIP3   OH233637   5.312   4.514   2.075  0.0500  0.4954 -0.7359
 4001TIP3    H133638   5.364   4.527   1.995 -0.4479  1.5232 -0.9088
 4001TIP3    H233639   5.371   4.467   2.134  1.9987  3.4654 -0.1226
 4002TIP3   OH233640   1.359   2.181   7.332 -0.0475  0.5276  0.3075
 4002TIP3    H133641   1.394   2.098   7.299 -2.3456 -0.4340  0.1619
 4002TIP3    H233642   1.357   2.238   7.256 -0.0475  0.1653  0.0333
 4003TIP3   OH233643   5.882   4.380   7.608  0.2794  0.4307  0.0057
 4003TIP3    H133644   5.817   4.321   7.569  1.9392 -0.8382 -0.9743
 4003TIP3    H233645   5.928   4.326   7.672 -0.1951  1.5825  1.3893
 4004TIP3   OH233646   5.882   2.239   1.682 -0.2206 -0.1825 -0.1652
 4004TIP3    H133647   5.959   2.263   1.734  0.2701 -1.1018 -0.4464
 4004TIP3    H233648   5.901   2.275   1.595  0.3231 -1.1614 -0.4741
 4005TIP3   OH233649   0.800   5.208   8.469 -0.7314 -0.2751  0.4155
 4005TIP3    H133650   0.784   5.120   8.435  0.1100  0.2089 -1.3290
 4005TIP3    H233651   0.891   5.206   8.497 -1.1418 -0.3770  1.8088
 4006TIP3   OH233652   6.746   3.343   7.330 -0.3588  0.5301  0.0697
 4006TIP3    H133653   6.691   3.415   7.299  0.3712  0.9468 -0.2895
 4006TIP3    H233654   6.687   3.288   7.382 -1.2517  0.6486 -0.7835
 4007TIP3   OH233655   3.156   1.552   8.238  0.2377 -0.0341 -0.3438
 4007TIP3    H133656   3.113   1.597   8.310 -0.5039  0.2402 -0.9420
 4007TIP3    H233657   3.098   1.566   8.163 -0.4408 -2.6609 -0.3933
 4008TIP3   OH233658   5.038   1.102   2.730 -0.1902  0.0061 -0.1715
 4008TIP3    H133659   5.115   1.064   2.774 -1.5640 -2.2567  0.4343
 4008TIP3    H233660   5.045   1.196   2.747  1.8498 -0.2629  0.8101
 4009TIP3   OH233661   2.428   4.102   0.924  0.5309  0.3879  1.3481
 4009TIP3    H133662   2.461   4.103   1.014 -0.0374  1.0748  1.5568
 4009TIP3    H233663   2.496   4.146   0.873  1.5313 -1.2858  1.1816
 4010TIP3   OH233664   4.392   2.986   2.038  0.1011  0.6085  0.6196
 4010TIP3    H133665   4.413   2.896   2.066  1.7472  0.0387 -2.0854
 4010TIP3    H233666   4.474   3.020   2.004 -1.1629  2.0313 -1.2104
 4011TIP3   OH233667   4.218   3.058   7.206  0.4185 -0.1450  0.2183
 4011TIP3    H133668   4.251   3.089   7.290  2.0026  0.1404 -0.4638
 4011TIP3    H233669   4.297   3.046   7.153 -0.3674 -2.3383 -0.5571
 4012TIP3   OH233670   6.162   1.231   8.304 -0.3036  0.4221  0.2630
 4012TIP3    H133671   6.093   1.272   8.356 -0.8556 -0.3849  0.1746
 4012TIP3    H233672   6.119   1.204   8.223  0.1541  0.0672  0.1297
 4013TIP3   OH233673   3.699   1.709   7.383 -0.1662 -0.0998 -0.1299
 4013TIP3    H133674   3.756   1.783   7.404  1.6252 -1.4414 -0.0238
 4013TIP3    H233675   3.622   1.748   7.341  0.9442  1.7614 -0.5101
 4014TIP3   OH233676   4.619   5.406   1.307  0.0199 -0.0172 -0.1638
 4014TIP3    H133677   4.710   5.434   1.306  0.2863 -0.1141  3.7110
 4014TIP3    H233678   4.573   5.470   1.253  1.9111  2.1713  0.6552
 4015TIP3   OH233679   0.013   4.522   7.766  0.0284 -0.0775  0.2430
 4015TIP3    H133680   0.074   4.468   7.715 -1.0663 -0.6507 -0.5117
 4015TIP3    H233681   0.034   4.503   7.857  0.9690 -0.2689 -0.0070
 4016TIP3   OH233682   4.979   1.637   7.733 -0.1348 -0.5918 -0.1435
 4016TIP3    H133683   5.064   1.656   7.693  0.7668 -0.6776  1.5997
 4016TIP3    H233684   4.929   1.718   7.725 -0.3492 -0.8643 -2.1519
 4017TIP3   OH233685   1.531   2.738   0.194 -0.6925  0.3724  0.1574
 4017TIP3    H133686   1.513   2.644   0.198  2.0842 -0.3968 -1.9348
 4017TIP3    H233687   1.574   2.758   0.277  1.4506 -1.0003 -0.5329
 4018TIP3   OH233688   4.234   5.138   7.106  0.1968  0.3277  0.3786
 4018TIP3    H133689   4.310   5.101   7.061  1.3630  1.8228  1.0257
 4018TIP3    H233690   4.255   5.131   7.199 -1.2256 -0.7438  0.6544
 4019TIP3   OH233691   3.465   1.636   2.339  0.5942 -0.2567 -0.4229
 4019TIP3    H133692   3.453   1.703   2.271 -1.0002 -0.6097 -0.5243
 4019TIP3    H233693   3.435   1.678   2.420  0.5081 -0.5295 -0.3111
 4020TIP3   OH233694   2.455   5.125   8.041 -0.3631  0.3417 -0.2902
 4020TIP3    H133695   2.393   5.160   7.977 -0.4074 -0.1685 -0.5257
 4020TIP3    H233696   2.518   5.075   7.989  0.1968  0.7698 -0.0467
 4021TIP3   OH233697   3.155   5.131   0.867 -0.2077 -0.0482  0.4168
 4021TIP3    H133698   3.099   5.180   0.928  0.2525 -0.4401  1.1740
 4021TIP3    H233699   3.180   5.052   0.915  1.2841  0.2790  0.2476
 4022TIP3   OH233700   6.628   1.458   1.733 -0.2282 -0.3348 -0.7115
 4022TIP3    H133701   6.631   1.442   1.827  0.5022  0.3246 -0.6110
 4022TIP3    H233702   6.543   1.500   1.719  0.0075  0.3503 -0.1981
 4023TIP3   OH233703   5.716   0.335   8.023 -0.5191  0.1604 -0.5201
 4023TIP3    H133704   5.726   0.274   8.096  0.7436 -0.8849 -1.5221
 4023TIP3    H233705   5.758   0.291   7.949  1.3531  2.6453 -1.0488
 4024TIP3   OH233706   2.857   6.258   0.597 -0.8300  0.2660  0.2609
 4024TIP3    H133707   2.947   6.282   0.576 -1.0994  0.9019 -0.1851
 4024TIP3    H233708   2.851   6.164   0.577 -0.1889  0.1564  0.5769
 4025TIP3   OH233709   2.681   6.876   1.528 -0.5622 -0.2783 -0.3033
 4025TIP3    H133710   2.609   6.847   1.583 -0.6545 -0.3052 -0.4391
 4025TIP3    H233711   2.639   6.919   1.453 -0.4243  0.7531  0.1933
 4026TIP3   OH233712   4.386   4.906   1.693 -0.4077  0.4904 -0.2666
 4026TIP3    H133713   4.400   4.873   1.782 -1.5963 -0.1642 -0.3022
 4026TIP3    H233714   4.455   4.865   1.641  0.6617  1.3321  0.4377
 4027TIP3   OH233715   5.050   3.504   1.868  0.0493  0.0239 -0.2462
 4027TIP3    H133716   5.024   3.415   1.892 -1.5820  0.4553 -0.3462
 4027TIP3    H233717   5.075   3.545   1.951 -0.0562 -0.2503 -0.0775
 4028TIP3   OH233718   1.711   1.336   2.211  0.1036  0.1781 -0.7299
 4028TIP3    H133719   1.646   1.390   2.255  0.7348  2.0857 -2.0076
 4028TIP3    H233720   1.671   1.250   2.204 -0.7082  0.2509  1.9306
 4029TIP3   OH233721   3.969   6.030   0.268 -0.0674 -0.0461 -0.3644
 4029TIP3    H133722   3.925   5.959   0.315 -0.5687 -0.3459 -1.2678
 4029TIP3    H233723   4.008   6.084   0.337 -0.4394 -0.7032  0.3713
 4030TIP3   OH233724   5.766   0.708   7.586 -0.1759  0.0234  0.4249
 4030TIP3    H133725   5.730   0.642   7.645 -0.1768 -0.0471  0.3446
 4030TIP3    H233726   5.763   0.668   7.500  0.8812 -0.3163  0.5282
 4031TIP3   OH233727   3.928   0.282   0.183 -0.3206  0.1512  0.0990
 4031TIP3    H133728   3.964   0.202   0.145 -1.4965 -0.4212  0.1510
 4031TIP3    H233729   3.849   0.253   0.228 -0.1301  1.1682  1.1192
 4032TIP3   OH233730   0.836   1.007   0.110 -0.0059 -0.6520  0.2785
 4032TIP3    H133731   0.893   1.059   0.166  0.9521 -1.0041 -0.3375
 4032TIP3    H233732   0.859   1.034   0.021  0.3808 -1.9677 -0.0443
 4033TIP3   OH233733   5.452   6.680   1.706 -0.3932  0.2828 -0.7423
 4033TIP3    H133734   5.535   6.637   1.689  0.6386  2.0792 -0.5383
 4033TIP3    H233735   5.386   6.624   1.664  0.5873 -2.4548  1.1083
 4034TIP3   OH233736   6.496   6.792   1.560  0.3991  0.6362  0.1700
 4034TIP3    H133737   6.439   6.818   1.632 -0.2396 -1.5840  0.5216
 4034TIP3    H233738   6.514   6.874   1.514 -0.0120  1.9559  2.2244
 4035TIP3   OH233739   1.962   0.816   1.744 -0.1544  0.0359  0.1388
 4035TIP3    H133740   1.882   0.867   1.738 -1.7606 -2.0887  1.8450
 4035TIP3    H233741   1.993   0.810   1.653 -0.4170  3.0409 -0.2527
 4036TIP3   OH233742   1.165   3.450   0.209  0.4259 -0.5909  0.2263
 4036TIP3    H133743   1.197   3.504   0.137  0.4278  1.4949  1.6753
 4036TIP3    H233744   1.071   3.443   0.194  0.1192  1.3831  0.8876
 4037TIP3   OH233745   4.265   6.453   2.155 -0.4063  0.2860 -0.3804
 4037TIP3    H133746   4.278   6.401   2.234  0.8095  1.4837  0.2501
 4037TIP3    H233747   4.194   6.513   2.177 -2.0401 -1.2216 -1.2207
 4038TIP3   OH233748   2.238   6.419   7.647  0.7156 -0.2011 -0.0728
 4038TIP3    H133749   2.277   6.474   7.578  1.0830 -1.2969 -0.7619
 4038TIP3    H233750   2.155   6.462   7.668  0.2923 -0.1740 -1.6619
 4039TIP3   OH233751   0.118   6.054   0.488 -0.1194  0.2730 -0.6983
 4039TIP3    H133752   0.127   6.146   0.462 -1.6951  0.9135  0.8420
 4039TIP3    H233753   0.135   6.054   0.582 -2.5251 -0.5379 -0.1831
 4040TIP3   OH233754   5.586   5.444   8.164 -0.1524 -0.0277  0.2513
 4040TIP3    H133755   5.669   5.489   8.181 -1.5533  2.5524  0.8579
 4040TIP3    H233756   5.585   5.372   8.226  2.1580 -0.9428 -0.6565
 4041TIP3   OH233757   5.377   0.555   0.417 -0.9200 -0.0975 -0.2693
 4041TIP3    H133758   5.291   0.593   0.430 -1.3469 -0.7354 -1.1500
 4041TIP3    H233759   5.390   0.555   0.322  0.2232  0.3688 -0.1239
 4042TIP3   OH233760   4.391   4.203   6.585 -0.2153  0.0308  0.0040
 4042TIP3    H133761   4.299   4.212   6.612 -0.2686  2.0606 -0.6529
 4042TIP3    H233762   4.439   4.255   6.649  0.2567  0.4438 -0.6775
 4043TIP3   OH233763   5.683   5.981   1.796  0.0188  0.4307 -0.1363
 4043TIP3    H133764   5.642   5.945   1.875 -1.0180  0.7235 -0.5171
 4043TIP3    H233765   5.766   5.934   1.788 -0.1455 -0.0402  0.7840
 4044TIP3   OH233766   2.753   2.459   2.670  0.8533  0.5088  0.3688
 4044TIP3    H133767   2.659   2.475   2.677  0.6551 -0.1439 -0.4989
 4044TIP3    H233768   2.786   2.472   2.759 -0.0910  0.5319  0.7378
 4045TIP3   OH233769   0.798   6.163   0.670  0.1037  0.1351  0.3114
 4045TIP3    H133770   0.885   6.181   0.706  0.5028  0.9431 -0.9990
 4045TIP3    H233771   0.811   6.089   0.611  0.6325  2.2328 -2.3865
 4046TIP3   OH233772   2.814   5.156   0.355 -0.7799  0.5807 -0.8546
 4046TIP3    H133773   2.908   5.151   0.372 -1.1540 -0.2111  1.2628
 4046TIP3    H233774   2.795   5.249   0.349  0.0286  0.7671 -0.5559
 4047TIP3   OH233775   4.269   3.285   1.009 -0.2582  0.0881  0.8199
 4047TIP3    H133776   4.188   3.245   0.977  0.2973 -0.0602 -0.5039
 4047TIP3    H233777   4.299   3.227   1.079 -0.7389 -0.4588  0.5766
 4048TIP3   OH233778   5.850   5.215   1.120  0.5112  0.5569 -0.0261
 4048TIP3    H133779   5.898   5.291   1.153  0.2871  0.8403 -0.3404
 4048TIP3    H233780   5.829   5.238   1.029 -1.0359  0.8604  0.3682
 4049TIP3   OH233781   5.686   6.578   2.388 -0.0085 -0.1873 -0.2401
 4049TIP3    H133782   5.629   6.561   2.463  2.6849 -1.5216  1.6756
 4049TIP3    H233783   5.688   6.495   2.341 -1.4788  0.5716 -1.7116
 4050TIP3   OH233784   0.136   3.456   2.554  0.5548 -0.0072 -0.2823
 4050TIP3    H133785   0.150   3.548   2.531 -0.5353 -0.2195 -2.0010
 4050TIP3    H233786   0.041   3.446   2.558  0.6578 -1.0152  0.0921
 4051TIP3   OH233787   4.466   3.885   1.771  0.0475  0.2931  0.0808
 4051TIP3    H133788   4.394   3.944   1.749  0.2334 -0.0059 -1.4645
 4051TIP3    H233789   4.440   3.846   1.854 -1.5787  0.1986 -0.4317
 4052TIP3   OH233790   4.280   4.465   6.489  0.1542 -0.3430  0.6717
 4052TIP3    H133791   4.304   4.386   6.440 -2.2677 -1.7749  1.6055
 4052TIP3    H233792   4.226   4.432   6.562 -0.4462  2.1335  1.4324
 4053TIP3   OH233793   3.601   5.154   2.436  0.0938 -0.3158 -0.2301
 4053TIP3    H133794   3.685   5.150   2.481  1.3830  0.0749 -2.4429
 4053TIP3    H233795   3.605   5.084   2.372 -0.4179  0.9269 -1.6855
 4054TIP3   OH233796   1.461   4.898   0.935 -0.1254 -0.3942  0.4519
 4054TIP3    H133797   1.482   4.975   0.882 -2.0151 -0.3659 -0.3161
 4054TIP3    H233798   1.515   4.828   0.898 -0.1692  0.0207 -0.4284
 4055TIP3   OH233799   0.246   2.866   8.331  0.2352  0.2828 -0.1991
 4055TIP3    H133800   0.307   2.891   8.400  1.5325  2.0214 -1.8733
 4055TIP3    H233801   0.160   2.874   8.371  0.9452  1.2967  1.2014
 4056TIP3   OH233802   6.215   1.237   7.994  0.1176 -0.4330 -0.0466
 4056TIP3    H133803   6.255   1.229   7.907 -0.1030 -1.4050 -0.0714
 4056TIP3    H233804   6.236   1.326   8.022  0.7356 -0.3211 -0.8264
 4057TIP3   OH233805   0.493   3.561   6.780  0.2475 -0.0431 -0.3262
 4057TIP3    H133806   0.446   3.572   6.863  1.6447 -2.3096  0.8792
 4057TIP3    H233807   0.435   3.598   6.714 -1.7266  0.2289  1.4678
 4058TIP3   OH233808   6.634   1.862   7.615  0.3285 -0.1588 -0.4310
 4058TIP3    H133809   6.611   1.936   7.559  0.0571  0.3631  0.3514
 4058TIP3    H233810   6.626   1.896   7.704 -1.6994 -1.6353  0.0339
 4059TIP3   OH233811   3.505   2.722   7.407 -0.2071 -0.3656 -0.3033
 4059TIP3    H133812   3.511   2.675   7.490 -0.0865 -0.1737 -0.2022
 4059TIP3    H233813   3.580   2.781   7.408 -0.6816  0.2458 -0.1634
 4060TIP3   OH233814   2.477   0.979   8.041 -0.3141 -0.0772  0.6442
 4060TIP3    H133815   2.568   1.009   8.051 -1.2584  3.0002  1.0929
 4060TIP3    H233816   2.451   1.010   7.954 -0.5825 -2.2237 -0.1108
 4061TIP3   OH233817   5.483   2.817   7.757  0.4167  0.1111  0.0050
 4061TIP3    H133818   5.406   2.872   7.745  0.1425 -0.4806 -1.0249
 4061TIP3    H233819   5.449   2.734   7.791  0.7948  0.4308  1.2287
 4062TIP3   OH233820   3.011   4.964   7.723  0.4039  0.1509  0.3865
 4062TIP3    H133821   2.968   4.906   7.785  1.1984 -0.5137  0.3270
 4062TIP3    H233822   2.957   4.961   7.644 -0.2616  0.5098  0.8232
 4063TIP3   OH233823   3.990   1.075   2.419  0.4076 -0.1290  0.1554
 4063TIP3    H133824   3.908   1.117   2.393 -0.5382 -1.8259  0.2836
 4063TIP3    H233825   4.006   1.010   2.351  0.2881 -1.5423  1.4338
 4064TIP3   OH233826   5.686   0.191   1.966  0.4822  0.0360  0.0739
 4064TIP3    H133827   5.660   0.179   2.057 -0.7742 -1.0721 -0.4096
 4064TIP3    H233828   5.668   0.284   1.948  0.9707  0.3247  1.0029
 4065TIP3   OH233829   1.495   5.396   1.508 -0.5664 -0.2728  0.2571
 4065TIP3    H133830   1.519   5.373   1.598 -1.9451 -0.5187  0.5775
 4065TIP3    H233831   1.468   5.487   1.512 -0.6609 -0.2919  0.0930
 4066TIP3   OH233832   2.436   6.039   7.032  0.5401 -0.2679 -0.1975
 4066TIP3    H133833   2.350   6.063   6.997  0.5507  0.7304  0.4420
 4066TIP3    H233834   2.425   5.947   7.058 -0.2177 -0.2689 -0.4762
 4067TIP3   OH233835   1.836   2.257   0.324  0.5737  0.5200 -1.3094
 4067TIP3    H133836   1.792   2.176   0.348 -0.1026  0.9193 -1.1478
 4067TIP3    H233837   1.901   2.232   0.259 -0.1014 -0.0562 -1.7721
 4068TIP3   OH233838   2.563   0.641   7.999  0.1419 -0.1534 -0.1938
 4068TIP3    H133839   2.573   0.719   7.944 -2.1006 -0.2568 -0.8405
 4068TIP3    H233840   2.600   0.666   8.084  1.9957  0.6313 -1.1749
 4069TIP3   OH233841   4.635   3.636   0.583  0.4290 -0.0224  0.1241
 4069TIP3    H133842   4.720   3.623   0.624  1.3032 -0.0418 -1.5849
 4069TIP3    H233843   4.635   3.728   0.556  0.6837 -0.4635 -1.4715
 4070TIP3   OH233844   4.268   4.018   7.425  0.0376 -0.3413 -0.0421
 4070TIP3    H133845   4.339   4.004   7.362 -0.8915  0.5193 -1.3553
 4070TIP3    H233846   4.188   3.997   7.375 -0.5967 -3.3332  1.9906
 4071TIP3   OH233847   3.219   5.548   2.388 -0.2427 -0.0296  0.4140
 4071TIP3    H133848   3.213   5.452   2.390  1.6861 -0.2084 -0.3145
 4071TIP3    H233849   3.171   5.576   2.466 -0.0693 -1.6437  1.1498
 4072TIP3   OH233850   2.788   3.801   7.745  0.4505  0.7676 -0.1343
 4072TIP3    H133851   2.782   3.784   7.839  2.5994  1.3747  0.1603
 4072TIP3    H233852   2.821   3.720   7.708  0.0817  0.6931 -0.3046
 4073TIP3   OH233853   5.952   1.871   8.101  0.5507  0.7668 -0.1285
 4073TIP3    H133854   5.970   1.863   8.195  2.5421  2.0648 -0.3428
 4073TIP3    H233855   6.007   1.944   8.072  1.2595 -0.6412 -2.6185
 4074TIP3   OH233856   5.404   5.794   1.077 -0.5996  0.1278  0.8381
 4074TIP3    H133857   5.447   5.864   1.027  0.4514 -1.1431 -0.1140
 4074TIP3    H233858   5.323   5.833   1.110 -0.0648  1.7608  0.2909
 4075TIP3   OH233859   2.113   3.302   8.389  0.0102 -0.2344  0.1792
 4075TIP3    H133860   2.101   3.215   8.351 -2.0715 -0.8296  1.9945
 4075TIP3    H233861   2.088   3.363   8.319 -2.1916 -1.2515 -0.0176
 4076TIP3   OH233862   3.200   4.989   1.921  0.5466  0.1408  0.1273
 4076TIP3    H133863   3.155   4.905   1.909  0.1103  0.4480 -0.4030
 4076TIP3    H233864   3.199   5.004   2.016  1.4513 -0.9004  0.3237
 4077TIP3   OH233865   2.053   0.917   2.057 -0.0725  0.6982  0.1150
 4077TIP3    H133866   2.074   0.916   1.963  0.6658 -1.3657  0.2646
 4077TIP3    H233867   2.011   1.002   2.070 -0.2547  1.0240 -2.0937
 4078TIP3   OH233868   4.628   0.794   0.175 -0.3570 -0.8267 -0.0264
 4078TIP3    H133869   4.597   0.713   0.134 -0.7809 -1.0083  0.6465
 4078TIP3    H233870   4.551   0.830   0.219  0.0473 -0.5353  0.4497
 4079TIP3   OH233871   5.192   3.440   0.902  0.1786 -0.2334  0.1734
 4079TIP3    H133872   5.277   3.423   0.860  0.5838  0.2021  0.7912
 4079TIP3    H233873   5.130   3.386   0.854  0.0798  2.2785 -2.8826
 4080TIP3   OH233874   2.746   5.531   8.523  0.4643 -0.1259  0.6227
 4080TIP3    H133875   2.658   5.496   8.506  0.2885  0.3550  0.5204
 4080TIP3    H233876   2.741   5.566   8.612  0.9400 -1.2694  1.1199
 4081TIP3   OH233877   0.306   5.159   1.516 -0.3067 -0.0894 -0.3878
 4081TIP3    H133878   0.390   5.116   1.532 -0.0759  0.4020 -0.2466
 4081TIP3    H233879   0.259   5.153   1.600 -0.9586 -1.5184 -0.8271
 4082TIP3   OH233880   1.635   0.285   7.853  0.4120 -0.1025  0.1356
 4082TIP3    H133881   1.561   0.227   7.836 -0.2583  0.3928  1.2242
 4082TIP3    H233882   1.676   0.248   7.932 -0.8712  1.6320  1.7023
 4083TIP3   OH233883   3.637   5.015   7.883  0.5412 -0.5028  0.2040
 4083TIP3    H133884   3.578   4.989   7.812  0.0266  1.5877 -0.1998
 4083TIP3    H233885   3.580   5.059   7.946  1.3694 -0.1904  0.7456
 4084TIP3   OH233886   1.255   0.963   0.215 -0.0498 -0.0443  0.0942
 4084TIP3    H133887   1.332   0.912   0.193 -0.1413  0.2338 -0.9182
 4084TIP3    H233888   1.290   1.044   0.253  0.3280  1.2711 -2.7893
 4085TIP3   OH233889   2.748   6.702   7.522  0.1390  0.2375 -0.1887
 4085TIP3    H133890   2.757   6.700   7.617 -0.4526  1.0261 -0.1073
 4085TIP3    H233891   2.774   6.614   7.494  0.0857 -0.0794  0.7206
 4086TIP3   OH233892   5.292   3.891   6.998 -0.4271  0.0551  0.3172
 4086TIP3    H133893   5.325   3.890   7.088  2.8433 -1.6322 -0.7591
 4086TIP3    H233894   5.368   3.870   6.944 -2.0249  1.9390 -2.9934
 4087TIP3   OH233895   5.825   4.378   0.037 -0.2058  0.1943 -0.3179
 4087TIP3    H133896   5.771   4.416   0.106  0.3097  0.0668  0.1625
 4087TIP3    H233897   5.902   4.435   0.034  0.1183 -0.2414 -0.2693
 4088TIP3   OH233898   1.229   4.192   8.494  0.4680  0.0755 -0.0450
 4088TIP3    H133899   1.186   4.119   8.450  0.4416 -1.8453  2.8569
 4088TIP3    H233900   1.171   4.214   8.567  2.0355  0.7557  1.0679
 4089TIP3   OH233901   6.429   3.890   0.408  0.3685  0.4635  0.2879
 4089TIP3    H133902   6.497   3.867   0.472 -0.3968  0.8759  1.2659
 4089TIP3    H233903   6.472   3.953   0.350  1.0710  0.0878  0.3802
 4090TIP3   OH233904   3.246   5.604   0.847  0.1120 -0.2173 -0.3072
 4090TIP3    H133905   3.151   5.599   0.861 -0.1264  0.9002 -1.3048
 4090TIP3    H233906   3.274   5.513   0.837 -0.8099 -0.5781  0.2944
 4091TIP3   OH233907   6.101   2.748   2.391  0.2295  0.1351 -0.3445
 4091TIP3    H133908   6.153   2.809   2.444 -0.6495  0.7520 -0.1741
 4091TIP3    H233909   6.136   2.758   2.302 -0.6065  1.7175 -0.5391
 4092TIP3   OH233910   6.562   1.631   2.698 -0.1421 -0.2628  0.8037
 4092TIP3    H133911   6.643   1.683   2.695 -0.2144 -0.1551 -1.9442
 4092TIP3    H233912   6.500   1.687   2.743  0.4471  1.0855  0.0107
 4093TIP3   OH233913   5.628   3.468   0.201  0.2256  0.0724  0.0477
 4093TIP3    H133914   5.577   3.429   0.130 -0.4660  1.4732 -0.2625
 4093TIP3    H233915   5.691   3.525   0.157 -1.2420  2.2057  0.5117
 4094TIP3   OH233916   6.429   5.863   0.474 -0.4419 -0.1059  0.3456
 4094TIP3    H133917   6.481   5.907   0.407 -0.3159 -0.5998  0.1104
 4094TIP3    H233918   6.366   5.929   0.503  0.6300  0.6605  0.9965
 4095TIP3   OH233919   2.159   4.457   2.363 -0.3303  0.1110 -0.0894
 4095TIP3    H133920   2.152   4.391   2.295  0.9342 -0.0685 -0.0688
 4095TIP3    H233921   2.239   4.505   2.343 -1.4932  2.0109 -0.4048
 4096TIP3   OH233922   0.080   4.383   1.789 -0.4935 -0.2516 -0.0122
 4096TIP3    H133923   0.163   4.344   1.817 -1.2268 -1.5590  0.4197
 4096TIP3    H233924   0.024   4.308   1.768 -2.0084  0.5591  0.9811
 4097TIP3   OH233925   6.919   0.332   1.445  0.5696  0.5158 -0.1869
 4097TIP3    H133926   6.956   0.330   1.533  0.1287 -0.5560 -0.0146
 4097TIP3    H233927   6.837   0.381   1.455  1.8679  2.9202 -0.5752
 4098TIP3   OH233928   2.536   3.374   8.140  0.2110 -0.1417  0.2647
 4098TIP3    H133929   2.592   3.330   8.076  0.5996  0.8010 -0.0478
 4098TIP3    H233930   2.589   3.446   8.174 -0.8989  0.9595 -0.2570
 4099TIP3   OH233931   2.166   4.920   6.592  0.6969 -0.7941 -0.3164
 4099TIP3    H133932   2.095   4.897   6.533  0.3711 -0.2268 -0.1546
 4099TIP3    H233933   2.170   5.016   6.590  1.7306 -0.8301 -0.6376
 4100TIP3   OH233934   0.939   1.059   1.101  0.4942 -0.1095 -0.2851
 4100TIP3    H133935   0.959   1.065   1.194  0.8432 -1.6328 -0.2331
 4100TIP3    H233936   0.847   1.032   1.098  0.5527 -0.2960 -0.3806
 4101TIP3   OH233937   2.406   1.865   1.144 -0.4374 -0.3956  0.0515
 4101TIP3    H133938   2.475   1.926   1.169 -1.8650  0.6597  1.6549
 4101TIP3    H233939   2.326   1.918   1.142 -1.0753 -1.2674 -3.1448
 4102TIP3   OH233940   0.281   0.858   8.383  0.3073 -0.2333 -0.8299
 4102TIP3    H133941   0.334   0.809   8.321 -0.0314  0.5836 -1.7824
 4102TIP3    H233942   0.215   0.795   8.413 -0.3065 -0.3128 -2.2565
 4103TIP3   OH233943   2.006   6.493   7.425  0.1066 -0.6929 -0.2242
 4103TIP3    H133944   1.924   6.451   7.402 -0.6087  0.0186  0.8929
 4103TIP3    H233945   2.070   6.422   7.429 -0.1489 -1.1099 -2.2628
 4104TIP3   OH233946   5.330   4.741   1.370  0.4133  0.1478  0.4001
 4104TIP3    H133947   5.288   4.733   1.284 -0.0321 -1.4877  0.7218
 4104TIP3    H233948   5.262   4.712   1.431  0.0514  3.1101  1.5425
 4105TIP3   OH233949   6.825   1.536   0.818 -0.7835  0.1564  0.4188
 4105TIP3    H133950   6.795   1.572   0.901  1.4407 -0.3715  1.5270
 4105TIP3    H233951   6.835   1.442   0.834  0.8023  0.2159 -0.0328
 4106TIP3   OH233952   6.771   5.435   2.097  0.1929  0.4299 -0.2989
 4106TIP3    H133953   6.735   5.406   2.181 -1.5969  0.9509 -0.8457
 4106TIP3    H233954   6.847   5.379   2.083 -0.2366 -0.5423  1.0519
 4107TIP3   OH233955   3.556   1.181   0.679 -0.2570  0.0086  0.7099
 4107TIP3    H133956   3.461   1.184   0.694 -0.8244 -1.4978 -1.8248
 4107TIP3    H233957   3.594   1.167   0.765 -2.4996 -1.1612  1.5941
 4108TIP3   OH233958   1.622   0.347   2.596 -0.2377  0.1517  0.2399
 4108TIP3    H133959   1.575   0.334   2.514 -0.5906 -2.4172  0.7812
 4108TIP3    H233960   1.572   0.297   2.660  1.1403  0.5082  1.6347
 4109TIP3   OH233961   4.891   4.318   7.809  0.2731  0.6992  0.0368
 4109TIP3    H133962   4.859   4.238   7.851 -0.4997  1.1841  0.4000
 4109TIP3    H233963   4.968   4.343   7.860 -0.0082  0.6723  0.4800
 4110TIP3   OH233964   4.949   5.819   0.423 -0.7108 -0.4727  0.6466
 4110TIP3    H133965   4.947   5.914   0.421 -1.9813 -0.4355  2.2547
 4110TIP3    H233966   4.898   5.792   0.347 -0.6555  0.1248  0.3937
 4111TIP3   OH233967   1.594   1.622   1.434 -0.3346 -0.3787  0.0730
 4111TIP3    H133968   1.604   1.665   1.519  0.8253 -2.8801  1.3081
 4111TIP3    H233969   1.667   1.655   1.382 -0.4535  0.4037  0.3849
 4112TIP3   OH233970   6.396   2.995   0.588  0.2918  0.4023 -0.1182
 4112TIP3    H133971   6.487   2.971   0.606  0.4943  0.3082 -1.2116
 4112TIP3    H233972   6.370   2.940   0.515 -0.2746  1.2328 -0.5632
 4113TIP3   OH233973   3.069   3.553   7.761 -0.2062 -0.0733 -0.4275
 4113TIP3    H133974   3.002   3.580   7.698 -0.0564  1.1978 -0.0681
 4113TIP3    H233975   3.152   3.582   7.724 -0.2007  1.6575  0.7773
 4114TIP3   OH233976   3.979   0.391   1.381  0.1688  0.2416  0.2392
 4114TIP3    H133977   3.909   0.455   1.397 -0.8645 -0.5431 -1.0039
 4114TIP3    H233978   4.015   0.416   1.296  0.0325 -0.5710 -0.0650
 4115TIP3   OH233979   1.756   5.633   6.305 -0.0465 -0.0798 -0.0354
 4115TIP3    H133980   1.821   5.628   6.235 -0.7567  0.7329 -0.7894
 4115TIP3    H233981   1.793   5.695   6.368  0.5133 -0.6742  0.2304
 4116TIP3   OH233982   0.052   0.973   1.577  0.3409  0.0982 -0.5815
 4116TIP3    H133983   0.078   0.903   1.636 -3.1285  1.4414  2.9969
 4116TIP3    H233984  -0.013   0.934   1.519  0.2724 -0.1960 -0.3035
 4117TIP3   OH233985   5.505   0.844   1.479  0.3633  0.3987  0.1723
 4117TIP3    H133986   5.570   0.834   1.547 -1.6741 -0.8489  2.0961
 4117TIP3    H233987   5.457   0.923   1.502 -1.6226 -1.0761  1.5145
 4118TIP3   OH233988   6.150   5.957   7.942  0.0422 -0.2490  0.4323
 4118TIP3    H133989   6.077   5.980   8.000  1.2289 -0.6031  2.1591
 4118TIP3    H233990   6.134   5.866   7.918  0.9771 -1.0536  2.6049
 4119TIP3   OH233991   5.035   1.055   3.017  0.2764 -0.3656  0.1144
 4119TIP3    H133992   5.062   1.074   3.107 -0.8665 -2.0781  0.8571
 4119TIP3    H233993   5.050   0.961   3.007 -2.5865 -0.8368 -0.4000
 4120TIP3   OH233994   3.844   6.932   7.376 -0.2842  0.0930 -0.4743
 4120TIP3    H133995   3.940   6.933   7.379 -0.2930  0.4938 -0.2906
 4120TIP3    H233996   3.822   6.840   7.360  0.0463 -0.5181  2.1286
 4121TIP3   OH233997   3.299   1.758   0.051 -0.1346  0.4702  0.0606
 4121TIP3    H133998   3.324   1.825  -0.012 -0.8088 -0.1837 -0.9307
 4121TIP3    H233999   3.325   1.675   0.010  0.2054  0.0741  1.0317
 4122TIP3   OH234000   0.919   3.378   6.603 -0.4234  0.3460  0.6565
 4122TIP3    H134001   0.969   3.336   6.533  0.5828  3.6050 -0.8338
 4122TIP3    H234002   0.956   3.344   6.684  1.0180 -0.7476 -0.4168
 4123TIP3   OH234003   0.889   5.865   1.170 -0.2305 -0.2442 -0.3862
 4123TIP3    H134004   0.837   5.786   1.184  0.6563 -0.7597  0.1374
 4123TIP3    H234005   0.899   5.871   1.075 -0.9808 -0.3116 -0.4681
 4124TIP3   OH234006   6.293   5.322   0.777 -0.1344 -0.2047  0.2586
 4124TIP3    H134007   6.316   5.230   0.767  2.0862  0.3131 -0.0122
 4124TIP3    H234008   6.301   5.339   0.871 -0.3911 -0.2409  0.2884
 4125TIP3   OH234009   3.605   4.573   8.022 -0.0712  0.3365  0.0773
 4125TIP3    H134010   3.589   4.481   8.042 -0.4496  0.3977  0.0767
 4125TIP3    H234011   3.597   4.579   7.927 -2.0745  0.7151  0.2078
 4126TIP3   OH234012   5.738   5.213   0.835 -0.3354  0.0144  0.3055
 4126TIP3    H134013   5.792   5.146   0.793 -1.6600 -0.1872 -1.1912
 4126TIP3    H234014   5.674   5.165   0.887 -0.7901  0.1192 -0.1410
 4127TIP3   OH234015   0.286   4.113   1.638  0.4484 -0.7355 -0.4331
 4127TIP3    H134016   0.353   4.116   1.569 -0.1362 -0.7060 -1.0070
 4127TIP3    H234017   0.295   4.196   1.685 -0.0491 -0.1620 -1.3338
 4128TIP3   OH234018   3.227   3.170   1.010 -0.7019  0.0679 -0.5462
 4128TIP3    H134019   3.274   3.162   1.092 -2.2107 -1.6140  0.2363
 4128TIP3    H234020   3.290   3.208   0.949  1.0474 -0.3840  0.8983
 4129TIP3   OH234021   6.403   3.043   0.181  0.4225 -0.1110  0.6657
 4129TIP3    H134022   6.495   3.029   0.201  0.4335  0.9621  1.4688
 4129TIP3    H234023   6.393   3.139   0.180 -1.0465 -0.1951  2.5067
 4130TIP3   OH234024   3.833   6.531   3.192  0.5007 -0.4522  0.1023
 4130TIP3    H134025   3.864   6.488   3.272 -0.0600 -0.8907  0.0954
 4130TIP3    H234026   3.788   6.461   3.144 -0.8036  0.2294  0.2856
 4131TIP3   OH234027   0.679   5.723   0.490  0.1811 -0.1164  0.2174
 4131TIP3    H134028   0.644   5.771   0.414  0.2018  1.3447  1.0916
 4131TIP3    H234029   0.681   5.632   0.462 -0.3868  0.3161 -1.3270
 4132TIP3   OH234030   6.124   3.818   2.292  0.0422  0.0881  0.1379
 4132TIP3    H134031   6.095   3.767   2.368 -1.6208  0.1091 -0.4407
 4132TIP3    H234032   6.119   3.909   2.320  0.2693  0.0595  0.2731
 4133TIP3   OH234033   5.744   3.904   0.403 -0.3897 -0.0005 -0.5023
 4133TIP3    H134034   5.792   3.940   0.478  0.2653 -1.5878 -0.1134
 4133TIP3    H234035   5.760   3.966   0.332  1.2395  0.1595 -0.0417
 4134TIP3   OH234036   5.114   1.847   0.267 -0.0290 -0.3713 -0.0348
 4134TIP3    H134037   5.187   1.901   0.298 -0.5399  0.2623  0.0916
 4134TIP3    H234038   5.041   1.908   0.259 -0.2000 -0.7381 -1.4389
 4135TIP3   OH234039   2.004   0.163   2.144 -0.2996  0.2306 -0.4175
 4135TIP3    H134040   1.933   0.120   2.095 -0.5093 -0.5347  0.5228
 4135TIP3    H234041   2.063   0.091   2.167  1.1271  0.9343 -1.6924
 4136TIP3   OH234042   0.470   4.501   7.902  0.0021 -0.4775  0.4307
 4136TIP3    H134043   0.408   4.573   7.914 -0.8677 -1.0800 -0.3321
 4136TIP3    H234044   0.459   4.447   7.980 -1.3238 -1.2169 -0.2339
 4137TIP3   OH234045   4.546   5.829   6.661 -0.1712 -0.0759 -0.3802
 4137TIP3    H134046   4.622   5.815   6.718 -0.4593  3.3978  1.1159
 4137TIP3    H234047   4.573   5.797   6.575  1.5687 -2.2994  0.9024
 4138TIP3   OH234048   0.688   6.123   7.758  0.1388 -0.4156  0.3673
 4138TIP3    H134049   0.675   6.199   7.814  1.4902  0.1139 -0.0213
 4138TIP3    H234050   0.782   6.107   7.759  0.3356  0.0855 -2.3539
 4139TIP3   OH234051   3.619   5.176   1.331 -0.5442  0.1683  0.1285
 4139TIP3    H134052   3.542   5.227   1.353 -2.2892 -1.2519 -2.1558
 4139TIP3    H234053   3.612   5.096   1.383  0.1557  0.5943  0.9069
 4140TIP3   OH234054   6.651   3.600   0.945 -0.0124 -0.0592 -0.0708
 4140TIP3    H134055   6.651   3.505   0.932 -0.1864  0.0138 -0.6212
 4140TIP3    H234056   6.617   3.611   1.034 -1.6959 -0.4440 -0.6263
 4141TIP3   OH234057   4.855   5.208   8.401 -0.4667 -0.3500 -0.1453
 4141TIP3    H134058   4.766   5.208   8.366 -0.5240 -3.6782 -0.3539
 4141TIP3    H234059   4.902   5.146   8.346  1.1279 -0.9904  1.8232
 4142TIP3   OH234060   3.189   3.178   7.575  0.6517  1.0392 -0.3054
 4142TIP3    H134061   3.208   3.176   7.669  0.6553 -0.4112 -0.3028
 4142TIP3    H234062   3.273   3.159   7.533  0.4860  0.8335 -0.5529
 4143TIP3   OH234063   0.880   1.445   0.201 -1.0089  0.8859  0.2636
 4143TIP3    H134064   0.832   1.445   0.284 -0.3969 -0.2434  0.6420
 4143TIP3    H234065   0.816   1.414   0.137 -1.2506  0.9687  0.4612
 4144TIP3   OH234066   2.708   4.028   7.457  0.2916 -0.1398 -0.3767
 4144TIP3    H134067   2.663   4.050   7.538  1.4841  0.3642  0.1730
 4144TIP3    H234068   2.774   4.096   7.447  0.9755 -0.8921 -1.1198
 4145TIP3   OH234069   6.826   3.583   2.223 -0.1744 -0.3737 -0.3990
 4145TIP3    H134070   6.885   3.609   2.294 -0.9334 -2.2783  1.0126
 4145TIP3    H234071   6.876   3.519   2.173 -0.2391 -0.2905 -0.5700
 4146TIP3   OH234072   3.562   0.198   1.098 -0.5605 -0.3016  0.2244
 4146TIP3    H134073   3.609   0.142   1.036 -1.0503  1.5838 -1.9739
 4146TIP3    H234074   3.479   0.152   1.114 -0.3003 -0.9648 -0.2909
 4147TIP3   OH234075   6.921   1.813   7.879 -0.1447  0.3316 -0.0468
 4147TIP3    H134076   6.845   1.766   7.845  0.1599  0.8070 -1.4148
 4147TIP3    H234077   6.986   1.744   7.896 -0.0709  0.1291 -1.0709
 4148TIP3   OH234078   1.063   4.254   1.718 -0.0861  0.1605  0.1572
 4148TIP3    H134079   1.122   4.307   1.664 -1.1782  1.1371 -0.1078
 4148TIP3    H234080   1.112   4.241   1.800  0.4069  1.1738  0.0428
 4149TIP3   OH234081   4.288   1.465   2.681 -0.3190 -0.1710  0.4842
 4149TIP3    H134082   4.286   1.385   2.734 -0.8851  1.0030  2.3294
 4149TIP3    H234083   4.381   1.491   2.680  0.1718 -1.7363 -1.6359
 4150TIP3   OH234084   3.137   1.834   2.111 -0.3189  0.5087  0.1335
 4150TIP3    H134085   3.045   1.850   2.132 -1.1639 -2.2794 -0.8736
 4150TIP3    H234086   3.160   1.756   2.162  0.8383  0.0018 -1.0943
 4151TIP3   OH234087   5.631   2.266   8.066 -0.2923  0.0453  0.4415
 4151TIP3    H134088   5.549   2.302   8.101 -0.3957  0.1645  0.0828
 4151TIP3    H234089   5.685   2.343   8.048 -0.2701 -0.0091  0.2708
 4152TIP3   OH234090   0.165   0.500   1.314 -0.6050 -0.1755  0.4652
 4152TIP3    H134091   0.143   0.557   1.240  0.8883 -0.9968 -0.6759
 4152TIP3    H234092   0.080   0.470   1.347 -1.3921  2.0422  0.6156
 4153TIP3   OH234093   5.162   1.146   7.765  0.0074 -0.6888 -0.6924
 4153TIP3    H134094   5.191   1.179   7.849  1.2363  0.0657 -1.3914
 4153TIP3    H234095   5.096   1.080   7.787 -0.7183  0.4613  0.8051
 4154TIP3   OH234096   5.471   4.128   1.767 -0.1852 -0.4129 -0.0728
 4154TIP3    H134097   5.532   4.055   1.778 -0.5616 -0.6997  0.1497
 4154TIP3    H234098   5.390   4.087   1.736 -0.6313 -0.1838  0.7574
 4155TIP3   OH234099   6.681   2.407   8.096  0.2243 -0.1693  0.5003
 4155TIP3    H134100   6.588   2.402   8.116 -0.0910 -1.2753 -1.0519
 4155TIP3    H234101   6.719   2.327   8.132  0.8777  0.8864  2.3148
 4156TIP3   OH234102   5.624   0.225   2.268  0.1173  0.1181  0.0220
 4156TIP3    H134103   5.572   0.298   2.301  1.9093  1.0934  0.8118
 4156TIP3    H234104   5.678   0.199   2.343  0.0836 -1.5230 -0.4761
 4157TIP3   OH234105   4.350   5.105   2.092  0.3743 -0.1571 -0.1356
 4157TIP3    H134106   4.343   5.194   2.127 -0.5604 -0.4563  0.4754
 4157TIP3    H234107   4.349   5.048   2.170 -0.4372 -0.7701 -0.5738
 4158TIP3   OH234108   4.952   5.671   7.272 -0.1929  0.3788  0.4931
 4158TIP3    H134109   4.977   5.601   7.332 -0.5918 -0.5363 -0.3751
 4158TIP3    H234110   5.002   5.654   7.193 -2.0648 -0.3660 -0.5954
 4159TIP3   OH234111   3.290   4.714   7.754  0.1623  0.5882  0.1642
 4159TIP3    H134112   3.278   4.680   7.843  2.2488 -1.5958 -0.2781
 4159TIP3    H234113   3.326   4.802   7.767 -2.3193  1.5161  1.3959
 4160TIP3   OH234114   2.657   0.752   8.524  0.1602 -0.3645 -0.0851
 4160TIP3    H134115   2.646   0.791   8.437  0.0271  0.2443  0.2043
 4160TIP3    H234116   2.615   0.666   8.516  0.9131 -0.6786 -0.8745
 4161TIP3   OH234117   4.947   0.897   2.575 -0.2799 -0.3128  0.4630
 4161TIP3    H134118   5.033   0.866   2.547 -0.4232 -0.2306 -0.0796
 4161TIP3    H234119   4.966   0.973   2.630 -0.0422  0.2914 -0.4397
 4162TIP3   OH234120   0.446   3.976   8.260  0.6082 -0.2052  0.4621
 4162TIP3    H134121   0.412   4.064   8.269 -0.9591 -0.6546 -0.6690
 4162TIP3    H234122   0.369   3.922   8.241  1.5429 -1.8017  0.9920
 4163TIP3   OH234123   6.335   1.285   1.260 -0.1693  0.1904 -0.5895
 4163TIP3    H134124   6.261   1.243   1.216 -0.2711  1.9956 -2.3109
 4163TIP3    H234125   6.362   1.354   1.199  2.8020 -0.2635  0.0613
 4164TIP3   OH234126   1.025   5.620   8.233 -0.5014 -0.2405  0.2937
 4164TIP3    H134127   0.980   5.581   8.308 -1.8317  0.6521 -0.0070
 4164TIP3    H234128   1.112   5.644   8.267 -0.0416 -2.3798  0.7705
 4165TIP3   OH234129   5.073   3.084   7.846 -0.0307 -0.0911 -1.0804
 4165TIP3    H134130   5.135   3.018   7.816  1.2514 -0.4332  2.0126
 4165TIP3    H234131   5.123   3.166   7.844 -0.6187  0.2643 -1.8636
 4166TIP3   OH234132   2.334   2.195   0.845 -0.1109  0.3566  0.2080
 4166TIP3    H134133   2.299   2.280   0.872 -0.8141  0.3702 -0.6951
 4166TIP3    H234134   2.256   2.142   0.828  0.3179 -0.7050  1.4378
 4167TIP3   OH234135   5.744   2.007   7.932  0.3239  0.0505 -0.1987
 4167TIP3    H134136   5.679   2.024   8.001  0.1703 -1.9540  0.2057
 4167TIP3    H234137   5.810   1.953   7.975  1.0726  0.1294 -1.2272
 4168TIP3   OH234138   1.292   6.596   2.113 -0.3606 -0.8797 -0.4012
 4168TIP3    H134139   1.244   6.539   2.173  0.8671 -0.7359  0.7657
 4168TIP3    H234140   1.279   6.556   2.027 -2.4616 -0.8861 -0.1301
 4169TIP3   OH234141   5.241   6.075   7.552 -0.1544 -0.3992 -0.3984
 4169TIP3    H134142   5.228   6.157   7.504  0.6753 -0.2978 -0.4775
 4169TIP3    H234143   5.197   6.089   7.636 -1.3595 -0.4665 -1.0082
 4170TIP3   OH234144   4.110   6.460   7.831 -0.4085 -0.0252  0.5986
 4170TIP3    H134145   4.189   6.405   7.836 -1.2187 -1.3081 -0.2365
 4170TIP3    H234146   4.038   6.401   7.852 -1.2115  1.0229  0.8896
 4171TIP3   OH234147   0.249   6.575   7.313  0.4574  0.5138  0.0890
 4171TIP3    H134148   0.295   6.640   7.260 -0.1963  0.2861 -0.7846
 4171TIP3    H234149   0.319   6.526   7.356  1.0112  0.6650 -0.6104
 4172TIP3   OH234150   0.763   5.237   6.694  0.4189  0.0312  0.5033
 4172TIP3    H134151   0.680   5.282   6.707  0.3203 -0.4315  1.5938
 4172TIP3    H234152   0.739   5.153   6.655  0.6073  0.8929 -1.5848
 4173TIP3   OH234153   0.491   3.344   1.993  0.5061  0.2957 -0.2631
 4173TIP3    H134154   0.422   3.291   2.033  0.7517  0.7880  0.8570
 4173TIP3    H234155   0.485   3.428   2.038  0.9773  0.7902 -1.0999
 4174TIP3   OH234156   3.651   6.186   1.772  0.2944  0.2642 -0.0206
 4174TIP3    H134157   3.599   6.120   1.818 -0.4061  1.6031  1.2023
 4174TIP3    H234158   3.614   6.189   1.684 -0.7032  0.0987  0.3755
 4175TIP3   OH234159   6.457   0.885   0.841 -0.0217  0.5861  0.5037
 4175TIP3    H134160   6.372   0.861   0.879 -0.0198  1.0799  0.8312
 4175TIP3    H234161   6.517   0.884   0.915  0.4681 -0.6892  0.1135
 4176TIP3   OH234162   2.497   4.381   0.482 -0.4803  0.1288 -0.5567
 4176TIP3    H134163   2.546   4.457   0.451  1.5684 -0.8547  0.0789
 4176TIP3    H234164   2.460   4.409   0.566 -0.8926  0.8514 -0.9764
 4177TIP3   OH234165   6.626   1.481   8.459 -0.2126 -0.2599  0.3827
 4177TIP3    H134166   6.611   1.448   8.548 -0.1056 -0.9198  0.1543
 4177TIP3    H234167   6.539   1.505   8.427 -0.2308  0.1632  0.7292
 4178TIP3   OH234168   5.896   1.525   0.102 -0.2735 -0.3065 -0.2394
 4178TIP3    H134169   5.978   1.568   0.127 -0.7826  0.1389  0.7325
 4178TIP3    H234170   5.828   1.587   0.129 -1.0485 -1.8785  1.6082
 4179TIP3   OH234171   0.295   3.746   0.267  0.8145 -0.0835  0.0229
 4179TIP3    H134172   0.274   3.816   0.328  3.3469 -0.6135  1.6302
 4179TIP3    H234173   0.301   3.790   0.182  0.9725  1.3992  0.7657
 4180TIP3   OH234174   5.075   6.340   1.002 -0.0229  0.1644  0.3538
 4180TIP3    H134175   5.052   6.247   0.999  0.0309  0.1771 -1.2913
 4180TIP3    H234176   5.034   6.372   1.082 -1.7537 -0.8539 -0.0777
 4181TIP3   OH234177   3.608   1.354   8.085 -0.3813  0.0188  0.7995
 4181TIP3    H134178   3.521   1.372   8.120 -1.5637 -1.9422 -0.8775
 4181TIP3    H234179   3.665   1.351   8.162 -2.1304 -0.3572  2.1468
 4182TIP3   OH234180   4.059   5.341   0.466 -0.5951  0.1189 -0.5298
 4182TIP3    H134181   4.119   5.339   0.540 -0.6192 -0.5098 -0.5232
 4182TIP3    H234182   4.022   5.253   0.462 -0.0963 -0.0568 -1.6993
 4183TIP3   OH234183   1.701   4.990   7.704  0.2531 -0.4860 -0.1368
 4183TIP3    H134184   1.725   4.935   7.629 -1.2857  1.0631 -1.8908
 4183TIP3    H234185   1.769   5.057   7.707  1.7060 -1.9265  1.5243
 4184TIP3   OH234186   4.114   6.699   8.348  0.0409  0.0201 -0.4979
 4184TIP3    H134187   4.053   6.689   8.274  0.2215 -0.9377 -0.5239
 4184TIP3    H234188   4.138   6.792   8.346  0.7269 -0.1529 -2.1931
 4185TIP3   OH234189   2.225   6.694   7.114 -0.1431 -0.3006  0.3078
 4185TIP3    H134190   2.190   6.607   7.132 -0.6182 -0.1639  0.0792
 4185TIP3    H234191   2.158   6.736   7.060 -0.6222  0.7240  1.6394
 4186TIP3   OH234192   1.294   1.061   2.411 -0.1924  0.6105  0.5161
 4186TIP3    H134193   1.233   1.039   2.482  0.3146 -0.4762  0.6313
 4186TIP3    H234194   1.300   1.157   2.414 -2.8718  0.8760 -0.3254
 4187TIP3   OH234195   5.421   1.586   2.468  0.1429  0.7207  0.5969
 4187TIP3    H134196   5.500   1.541   2.498  0.7735  0.7688 -0.9379
 4187TIP3    H234197   5.360   1.515   2.445  1.0099  0.5947 -1.4883
 4188TIP3   OH234198   4.837   5.993   1.852 -0.5728 -0.2360 -0.5835
 4188TIP3    H134199   4.785   5.914   1.838 -1.8062  0.2086  1.1239
 4188TIP3    H234200   4.790   6.061   1.804 -1.4687  0.1230  0.7785
 4189TIP3   OH234201   3.006   5.112   0.584  0.3275  0.3395 -0.1521
 4189TIP3    H134202   3.072   5.090   0.517  0.6365 -0.3585  0.3777
 4189TIP3    H234203   3.056   5.122   0.665 -0.3309 -1.2991  0.4936
 4190TIP3   OH234204   5.658   5.933   7.056  0.1232  0.1362 -0.4097
 4190TIP3    H134205   5.580   5.890   7.092  0.2055 -0.0146 -0.4112
 4190TIP3    H234206   5.633   6.026   7.049  0.4810  0.3688  1.1012
 4191TIP3   OH234207   0.934   2.925   0.661  0.0378  0.1363  0.1794
 4191TIP3    H134208   0.960   2.917   0.753 -0.3771 -0.0681  0.2804
 4191TIP3    H234209   0.980   2.853   0.617  1.3642  1.0737 -0.0343
 4192TIP3   OH234210   1.860   0.177   0.620 -0.2779 -0.2902 -0.3564
 4192TIP3    H134211   1.901   0.225   0.692 -1.3295 -0.5914  0.4800
 4192TIP3    H234212   1.933   0.144   0.568  0.5088 -0.0491  0.5623
 4193TIP3   OH234213   3.380   6.810   3.601 -0.0273  0.3430 -0.0015
 4193TIP3    H134214   3.288   6.834   3.614 -0.6035 -0.5985 -1.8786
 4193TIP3    H234215   3.408   6.864   3.527  0.9158  0.5294  0.4754
 4194TIP3   OH234216   2.097   6.623   8.388 -0.0438 -0.3988  0.0632
 4194TIP3    H134217   2.157   6.668   8.329  1.7559 -1.5222  0.9690
 4194TIP3    H234218   2.131   6.639   8.475 -1.3244 -0.7059  0.6525
 4195TIP3   OH234219   1.226   0.799   0.986  0.4902  0.1673  0.4619
 4195TIP3    H134220   1.239   0.716   1.031 -1.7798  0.2344  1.3935
 4195TIP3    H234221   1.216   0.776   0.894  1.0416 -0.4322  0.5453
 4196TIP3   OH234222   1.549   6.828   8.371 -0.2622  0.4287  0.2896
 4196TIP3    H134223   1.514   6.916   8.357  0.3042  0.6988  0.5337
 4196TIP3    H234224   1.520   6.804   8.459  1.1601  1.1497  0.9877
 4197TIP3   OH234225   5.724   1.021   0.348  0.3155 -0.3000  0.5490
 4197TIP3    H134226   5.722   1.074   0.268  0.7140 -0.8930  0.1388
 4197TIP3    H234227   5.814   1.026   0.379 -0.0986  0.9239  1.6633
 4198TIP3   OH234228   2.221   6.132   1.016  0.0254  0.3301  0.4377
 4198TIP3    H134229   2.253   6.187   1.087  0.0479  0.5946  0.2227
 4198TIP3    H234230   2.128   6.119   1.035 -0.7168  2.8292 -1.0164
 4199TIP3   OH234231   3.371   6.520   0.610 -0.1578 -0.1945 -0.0154
 4199TIP3    H134232   3.449   6.511   0.555  0.9355 -0.0201  1.4722
 4199TIP3    H234233   3.350   6.613   0.606  0.8524  0.0949  1.0839
 4200TIP3   OH234234   0.318   6.302   2.004 -0.4353  0.2815  0.5906
 4200TIP3    H134235   0.307   6.218   1.959 -2.0086  0.0214  1.3865
 4200TIP3    H234236   0.405   6.297   2.043 -0.0419 -0.4948 -0.3345
 4201TIP3   OH234237   5.628   4.330   1.515  0.2314  0.0612  0.2632
 4201TIP3    H134238   5.703   4.273   1.505  0.4656 -0.2242  2.8494
 4201TIP3    H234239   5.566   4.280   1.568 -1.5121  0.5532 -1.2034
 4202TIP3   OH234240   4.615   1.751   1.649 -0.2753 -0.3479 -0.5699
 4202TIP3    H134241   4.596   1.723   1.739 -2.4876 -0.0699 -0.8869
 4202TIP3    H234242   4.660   1.835   1.660  0.2010 -0.6930  0.2713
 4203TIP3   OH234243   1.132   3.363   7.336  0.5348  0.0891 -0.0991
 4203TIP3    H134244   1.200   3.335   7.397  0.6920  2.1076  0.7605
 4203TIP3    H234245   1.146   3.310   7.257  2.0133 -0.7276  0.6758
 4204TIP3   OH234246   4.670   0.450   1.716  0.1521 -0.2253  0.5353
 4204TIP3    H134247   4.740   0.501   1.756  0.5029 -2.0509  2.4697
 4204TIP3    H234248   4.597   0.457   1.778 -0.8816  0.4804 -0.7391
 4205TIP3   OH234249   2.411   4.880   7.455  0.8175 -0.0789  0.2529
 4205TIP3    H134250   2.427   4.856   7.364  1.3927 -0.9763  0.5802
 4205TIP3    H234251   2.317   4.869   7.467  0.6696  0.4609 -0.3402
 4206TIP3   OH234252   3.386   6.728   1.179 -0.9024  0.1291  0.1514
 4206TIP3    H134253   3.427   6.755   1.261 -0.7645 -0.7486  0.3810
 4206TIP3    H234254   3.454   6.678   1.133 -0.7905  1.0755 -0.7660
 4207TIP3   OH234255   3.492   1.398   0.978 -0.0170  0.2581 -0.1885
 4207TIP3    H134256   3.474   1.487   0.949  3.4168  1.5318  1.0565
 4207TIP3    H234257   3.458   1.394   1.067 -0.7222  0.0808 -0.4594
 4208TIP3   OH234258   1.784   0.572   2.582  0.8978 -0.3601  0.3227
 4208TIP3    H134259   1.751   0.482   2.576 -0.7663  0.2905 -1.3680
 4208TIP3    H234260   1.829   0.586   2.499  0.7631  0.5017  0.3906
 4209TIP3   OH234261   3.296   4.564   0.808  0.1081 -0.3980  0.3621
 4209TIP3    H134262   3.341   4.571   0.724  0.6001 -2.0803  0.4525
 4209TIP3    H234263   3.357   4.518   0.865 -0.9797 -1.0224  1.0611
 4210TIP3   OH234264   4.268   3.392   1.674  0.5071 -0.4677  0.3564
 4210TIP3    H134265   4.322   3.344   1.611  0.5110  0.5025 -0.3952
 4210TIP3    H234266   4.274   3.340   1.754  0.8841 -1.4726 -0.2991
 4211TIP3   OH234267   0.369   3.401   1.146  0.1237  0.3075  0.2344
 4211TIP3    H134268   0.411   3.464   1.087 -0.1427  0.8921  0.6629
 4211TIP3    H234269   0.276   3.406   1.123  0.1128 -0.0087  0.2036
 4212TIP3   OH234270   3.349   6.401   1.570  0.3353  0.1252 -0.2895
 4212TIP3    H134271   3.271   6.384   1.518 -0.9410 -0.6331  1.7555
 4212TIP3    H234272   3.420   6.407   1.506 -1.0228 -1.4005 -2.0445
 4213TIP3   OH234273   6.941   0.093   0.779  0.3774  0.2003 -0.2266
 4213TIP3    H134274   7.011   0.046   0.824 -0.1144 -3.0328 -2.4899
 4213TIP3    H234275   6.866   0.086   0.838  1.1590  1.1902  0.9419
 4214TIP3   OH234276   0.241   4.660   0.651  0.2026  0.1966 -0.1698
 4214TIP3    H134277   0.267   4.653   0.742  1.6013  0.8925 -0.4884
 4214TIP3    H234278   0.323   4.677   0.604 -0.6723  1.1759 -1.3903
 4215TIP3   OH234279   2.381   0.204   7.978 -0.1013  0.1746 -0.4154
 4215TIP3    H134280   2.434   0.258   8.036 -1.0177  1.4717 -0.7248
 4215TIP3    H234281   2.438   0.184   7.903  1.0308 -1.3677  0.7936
 4216TIP3   OH234282   3.345   0.540   7.680 -0.2077 -0.3622  0.2521
 4216TIP3    H134283   3.426   0.551   7.731  0.5126 -0.3896 -0.8525
 4216TIP3    H234284   3.374   0.537   7.589 -1.4154 -0.8996 -0.1377
 4217TIP3   OH234285   6.259   1.102   1.720  0.2005 -0.2653  0.2253
 4217TIP3    H134286   6.329   1.080   1.780 -0.5826  0.1172  1.3068
 4217TIP3    H234287   6.294   1.080   1.633  0.7909 -2.2443  0.9158
 4218TIP3   OH234288   2.949   6.407   2.820  0.6518 -0.1281 -0.1062
 4218TIP3    H134289   2.918   6.356   2.746  0.2724  1.5137 -1.1308
 4218TIP3    H234290   2.997   6.480   2.781  1.0179  0.4120  1.2897
 4219TIP3   OH234291   6.699   3.885   6.603 -0.2624 -0.2538 -0.2737
 4219TIP3    H134292   6.657   3.799   6.599  2.0384 -1.5238  0.4647
 4219TIP3    H234293   6.759   3.886   6.528  2.7490 -1.1539  1.9007
 4220TIP3   OH234294   2.443   0.390   0.862  0.2899  0.0242 -0.0988
 4220TIP3    H134295   2.423   0.318   0.922  1.3060 -0.6421 -0.5255
 4220TIP3    H234296   2.358   0.428   0.840 -0.3308 -1.4476 -0.3595
 4221TIP3   OH234297   1.070   0.372   7.797  0.0917 -0.3808  0.0034
 4221TIP3    H134298   1.149   0.411   7.836 -0.7083  0.3460  0.9545
 4221TIP3    H234299   1.062   0.415   7.712 -0.7873  1.6573  1.0340
 4222TIP3   OH234300   1.131   5.991   1.666 -0.1928  0.5013  0.0058
 4222TIP3    H134301   1.187   5.958   1.596  0.8725  0.7355  0.7357
 4222TIP3    H234302   1.101   6.076   1.635 -0.1407  0.3769 -0.3882
 4223TIP3   OH234303   0.596   6.883   0.079  0.1190  0.0796 -0.2436
 4223TIP3    H134304   0.542   6.951   0.038  1.0681  0.5843 -0.7020
 4223TIP3    H234305   0.543   6.851   0.152 -0.7484  0.6316 -0.6131
 4224TIP3   OH234306   0.507   1.604   2.246 -0.6604  0.0882 -0.5528
 4224TIP3    H134307   0.413   1.620   2.237 -0.5412  1.5240  0.4699
 4224TIP3    H234308   0.538   1.595   2.156 -1.4809  1.5326 -1.0146
 4225TIP3   OH234309   1.033   6.947   0.313 -0.0123  0.4467 -0.2759
 4225TIP3    H134310   1.029   7.042   0.302  0.3089  0.1874 -3.6417
 4225TIP3    H234311   1.070   6.935   0.401 -1.7079  3.3479  0.9953
 4226TIP3   OH234312   6.722   0.796   7.991  0.1943  0.2810 -0.2006
 4226TIP3    H134313   6.812   0.817   7.966 -0.5673  1.0543 -2.6142
 4226TIP3    H234314   6.728   0.710   8.032  2.1266  0.7312  0.6039
 4227TIP3   OH234315   0.385   1.353   0.454  0.3249 -0.8644 -0.1154
 4227TIP3    H134316   0.394   1.447   0.467  2.1500 -0.9354 -0.6287
 4227TIP3    H234317   0.298   1.332   0.490  0.1809  0.8749  0.6515
 4228TIP3   OH234318   4.602   6.701   2.679  0.2381  0.0864  0.1733
 4228TIP3    H134319   4.673   6.663   2.627  0.5703  0.8549  0.0395
 4228TIP3    H234320   4.628   6.687   2.770 -0.5899 -1.7130  0.1714
 4229TIP3   OH234321   1.117   4.890   6.062 -0.3407  0.2762 -0.3604
 4229TIP3    H134322   1.189   4.916   6.004 -0.6897  1.1245 -0.4283
 4229TIP3    H234323   1.039   4.930   6.024 -0.7392 -0.0360  0.1094
 4230TIP3   OH234324   0.668   2.864   1.944  0.7227 -0.2420 -0.4553
 4230TIP3    H134325   0.751   2.852   1.898  0.6395 -0.6692 -0.5046
 4230TIP3    H234326   0.621   2.782   1.928  0.2432  0.0487 -0.5271
 4231TIP3   OH234327   4.584   2.651   1.909  0.6319 -0.2545  0.0639
 4231TIP3    H134328   4.628   2.568   1.889 -0.8424 -1.5141  1.6931
 4231TIP3    H234329   4.637   2.717   1.865  2.5737 -1.9285 -0.2906
 4232TIP3   OH234330   6.093   4.849   0.453  0.0653 -0.1166  0.5489
 4232TIP3    H134331   6.175   4.880   0.415 -0.1890  0.6708  0.6267
 4232TIP3    H234332   6.103   4.754   0.457  1.2080  0.0095  1.0781
 4233TIP3   OH234333   2.492   4.948   1.957  0.6767 -0.1531  0.2077
 4233TIP3    H134334   2.573   4.998   1.948  0.2280  0.7405  1.0444
 4233TIP3    H234335   2.446   4.988   2.030 -1.0386  0.0689 -0.9228
 4234TIP3   OH234336   3.529   6.337   1.363 -0.1981 -0.1234 -0.0769
 4234TIP3    H134337   3.523   6.248   1.398  1.6699 -0.4320 -0.4066
 4234TIP3    H234338   3.583   6.328   1.285 -1.9163  0.9815 -1.4629
 4235TIP3   OH234339   2.138   1.983   0.475  0.7919 -0.7025 -0.0968
 4235TIP3    H134340   2.048   1.974   0.442  1.0577 -0.3432 -0.9585
 4235TIP3    H234341   2.127   2.016   0.564  0.0654  1.8452 -1.0307
 4236TIP3   OH234342   0.653   3.917   1.655 -0.3297 -0.0801  0.3808
 4236TIP3    H134343   0.597   3.840   1.643  1.0222 -1.0807  0.3127
 4236TIP3    H234344   0.623   3.955   1.738 -0.6972 -0.9480  0.6526
 4237TIP3   OH234345   1.991   6.158   0.502 -0.5080  0.1972  0.1892
 4237TIP3    H134346   2.038   6.241   0.494 -0.7231  0.3900  0.8086
 4237TIP3    H234347   2.060   6.094   0.521 -0.1084 -0.1222 -2.0851
 4238TIP3   OH234348   0.839   4.271   8.196  0.3459  0.0226 -0.6270
 4238TIP3    H134349   0.832   4.289   8.290  2.1369  1.3283 -0.7029
 4238TIP3    H234350   0.754   4.233   8.173  0.0053 -0.7169  1.5892
 4239TIP3   OH234351   3.410   4.844   8.334 -0.6029  0.2705  0.1361
 4239TIP3    H134352   3.448   4.840   8.246  1.0901 -0.0380  0.8423
 4239TIP3    H234353   3.365   4.761   8.345 -0.2623  0.0389 -0.1999
 4240TIP3   OH234354   6.599   1.207   1.227  0.1589 -0.1175  0.4343
 4240TIP3    H134355   6.612   1.119   1.262  0.2706  0.2328  1.2852
 4240TIP3    H234356   6.509   1.229   1.250  0.5078  0.4544  1.2700
 4241TIP3   OH234357   5.370   1.737   1.838  0.3342 -0.5772 -0.0693
 4241TIP3    H134358   5.459   1.759   1.809  0.4672  0.7202  1.2282
 4241TIP3    H234359   5.382   1.678   1.912  0.0914 -0.8654 -0.2572
 4242TIP3   OH234360   5.389   3.806   1.752 -0.6226  0.5543 -0.4768
 4242TIP3    H134361   5.439   3.733   1.788 -1.6656  0.1269  0.1464
 4242TIP3    H234362   5.298   3.783   1.768 -1.1563  0.4427 -3.2359
 4243TIP3   OH234363   3.902   0.430   2.115  0.2423  0.3649 -0.4646
 4243TIP3    H134364   3.899   0.336   2.129  1.5226  0.2715 -0.7207
 4243TIP3    H234365   3.811   0.458   2.121 -0.2997 -1.0517 -1.5816
 4244TIP3   OH234366   5.014   0.718   3.191 -0.1414 -0.7666  0.5400
 4244TIP3    H134367   4.966   0.657   3.134 -0.4744  0.6839 -0.8113
 4244TIP3    H234368   4.950   0.745   3.257 -0.7745 -0.0054 -0.3513
 4245TIP3   OH234369   6.623   1.381   7.891 -0.1781  0.9577  0.2670
 4245TIP3    H134370   6.575   1.317   7.839  2.0272 -2.8060  2.4450
 4245TIP3    H234371   6.574   1.388   7.973  1.5090 -1.1120  1.5649
 4246TIP3   OH234372   3.345   1.267   1.790  0.6673  0.7057 -0.0805
 4246TIP3    H134373   3.313   1.241   1.876 -2.7774 -0.4546 -1.5468
 4246TIP3    H234374   3.399   1.193   1.761  1.0220  0.6689  0.6525
 4247TIP3   OH234375   2.164   0.307   2.629 -0.0801  0.2178 -0.2468
 4247TIP3    H134376   2.244   0.258   2.652 -0.3739 -1.0986 -1.8491
 4247TIP3    H234377   2.137   0.270   2.545 -0.6108  2.8609 -1.3298
 4248TIP3   OH234378   4.184   5.942   7.125  0.1436  0.2852  0.1151
 4248TIP3    H134379   4.218   5.976   7.042 -1.4233  1.7187 -0.0096
 4248TIP3    H234380   4.132   5.866   7.101  0.8611 -0.1556 -0.0424
 4249TIP3   OH234381   1.837   6.708   1.666  0.0807 -0.1174 -0.6008
 4249TIP3    H134382   1.787   6.663   1.735  1.2495 -0.1920  0.2430
 4249TIP3    H234383   1.813   6.800   1.676  1.3029  0.0892  0.9124
 4250TIP3   OH234384   4.656   5.884   2.818  0.1338  0.0326 -0.4077
 4250TIP3    H134385   4.749   5.880   2.796  0.7077  0.0915  1.7839
 4250TIP3    H234386   4.638   5.977   2.829  0.5845 -0.0919  1.9129
 4251TIP3   OH234387   3.092   2.136   3.289  0.0379 -0.2183 -0.1120
 4251TIP3    H134388   3.067   2.221   3.324 -1.2973 -0.9309  0.7477
 4251TIP3    H234389   3.174   2.115   3.333  0.5602  0.7641 -0.5942
 4252TIP3   OH234390   5.020   3.840   1.024 -0.2006 -0.3046  0.6566
 4252TIP3    H134391   5.050   3.754   1.054 -0.4385 -0.6532 -0.1126
 4252TIP3    H234392   4.941   3.823   0.973 -0.4364  0.4022  0.7693
 4253TIP3   OH234393   6.815   5.293   7.758  0.7743 -0.4786 -0.0268
 4253TIP3    H134394   6.852   5.205   7.765 -1.6779 -1.7276 -1.2360
 4253TIP3    H234395   6.878   5.349   7.802  3.3192 -2.5658 -0.7626
 4254TIP3   OH234396   2.101   5.628   1.091  0.3762 -0.3641 -0.5534
 4254TIP3    H134397   2.182   5.674   1.069 -0.5650  1.6101 -0.1517
 4254TIP3    H234398   2.054   5.620   1.008  0.2746  0.0089 -0.5373
 4255TIP3   OH234399   6.336   5.492   1.712 -0.2302  0.0004 -0.2262
 4255TIP3    H134400   6.367   5.531   1.630  0.8882 -1.6371 -0.6352
 4255TIP3    H234401   6.415   5.462   1.756 -0.8645  0.3496  1.2065
 4256TIP3   OH234402   6.700   3.070   1.662  0.1382  0.1396  0.4795
 4256TIP3    H134403   6.741   3.112   1.738  2.0626  2.3082 -1.5744
 4256TIP3    H234404   6.606   3.083   1.675  0.4083  0.3542  2.5081
 4257TIP3   OH234405   4.660   4.778   6.887 -0.0169 -0.3749 -0.2230
 4257TIP3    H134406   4.751   4.764   6.914 -0.2224 -1.9204 -0.2214
 4257TIP3    H234407   4.665   4.797   6.794  0.4989  2.5076  0.3031
 4258TIP3   OH234408   0.013   1.847   0.271 -0.1067  0.0336  0.6258
 4258TIP3    H134409   0.018   1.802   0.355  0.6603  0.5888  0.8845
 4258TIP3    H234410   0.066   1.926   0.282 -1.1286  0.8359  0.0698
 4259TIP3   OH234411   5.115   3.735   1.734  0.3177 -0.7010  0.1563
 4259TIP3    H134412   5.113   3.652   1.783 -0.6075 -0.9695 -0.3180
 4259TIP3    H234413   5.042   3.785   1.768  1.5414  0.4246  1.2448
 4260TIP3   OH234414   5.915   1.645   2.275  0.1722  0.0362  0.5326
 4260TIP3    H134415   5.903   1.672   2.366 -1.0183 -1.3921  0.8374
 4260TIP3    H234416   5.911   1.549   2.278 -2.0439 -0.0130 -1.2582
 4261TIP3   OH234417   4.137   6.581   6.781 -0.2298 -0.6348  0.7560
 4261TIP3    H134418   4.096   6.596   6.696 -2.1453 -1.9532  1.3721
 4261TIP3    H234419   4.220   6.538   6.761 -0.6608 -0.9346 -0.4421
 4262TIP3   OH234420   5.502   5.733   7.190 -0.0658 -0.1409 -0.3884
 4262TIP3    H134421   5.492   5.640   7.209  1.2840 -0.4894 -1.2500
 4262TIP3    H234422   5.465   5.777   7.267  0.4969 -1.3989  0.6451
 4263TIP3   OH234423   0.210   1.872   2.154  0.0078 -0.3010  0.2194
 4263TIP3    H134424   0.206   1.779   2.134 -0.4816  0.0038 -1.2409
 4263TIP3    H234425   0.213   1.876   2.249  0.9496 -1.8245  0.2807
 4264TIP3   OH234426   2.840   6.068   6.875  0.0410  0.2387 -0.2072
 4264TIP3    H134427   2.866   6.151   6.915 -1.8458  0.3570  0.8934
 4264TIP3    H234428   2.756   6.087   6.833  0.4549 -0.6930 -1.5163
 4265TIP3   OH234429   1.835   4.546   0.095  0.0898  0.1272  0.1630
 4265TIP3    H134430   1.807   4.481   0.031 -1.6481  1.0844 -0.1181
 4265TIP3    H234431   1.876   4.615   0.043  0.9842 -0.2249  0.3665
 4266TIP3   OH234432   5.686   2.521   2.056  0.2247  0.0645 -0.1057
 4266TIP3    H134433   5.715   2.433   2.034  0.2714 -0.0909  0.5565
 4266TIP3    H234434   5.669   2.518   2.150  1.0865  1.0015  0.0975
 4267TIP3   OH234435   1.478   3.828   0.351  0.1573 -0.1007  0.1537
 4267TIP3    H134436   1.536   3.796   0.282 -0.1182 -0.5506  0.1274
 4267TIP3    H234437   1.456   3.917   0.324  3.0479  1.1739  1.5572
 4268TIP3   OH234438   2.483   4.734   1.551 -0.4799  0.0717  0.2216
 4268TIP3    H134439   2.422   4.731   1.477 -0.6928  2.6920  0.1696
 4268TIP3    H234440   2.561   4.690   1.519 -1.2890 -0.6887 -0.7959
 4269TIP3   OH234441   3.751   4.819   1.251 -0.3174  0.2029 -0.1626
 4269TIP3    H134442   3.731   4.879   1.323 -0.5426 -0.2791  0.1817
 4269TIP3    H234443   3.700   4.852   1.177  0.1059  0.8455 -0.1730
 4270TIP3   OH234444   1.941   5.863   8.426 -0.1855  0.2444 -0.2486
 4270TIP3    H134445   1.950   5.949   8.383 -0.6193  0.0771 -0.6812
 4270TIP3    H234446   1.985   5.802   8.366 -0.7923  0.0092 -0.4643
 4271TIP3   OH234447   3.280   4.011   0.716  0.1682  0.3435  0.5291
 4271TIP3    H134448   3.231   3.956   0.655  2.5632 -1.4244  0.0606
 4271TIP3    H234449   3.312   4.083   0.662 -1.1200  1.0338  0.6511
 4272TIP3   OH234450   0.830   6.074   2.482 -0.4658  0.1420  0.4086
 4272TIP3    H134451   0.863   6.159   2.511 -0.2248  1.0829 -2.2939
 4272TIP3    H234452   0.905   6.034   2.438 -1.1567 -0.5626 -0.1480
 4273TIP3   OH234453   6.853   3.911   1.162 -0.4395 -0.1918  0.0902
 4273TIP3    H134454   6.931   3.935   1.211  0.1530  0.8613 -1.3393
 4273TIP3    H234455   6.788   3.890   1.230  0.1227  1.9110  1.3648
 4274TIP3   OH234456   2.782   6.010   1.686  0.3116 -0.6005 -0.0555
 4274TIP3    H134457   2.708   5.957   1.716  0.0126 -1.7295 -2.5002
 4274TIP3    H234458   2.857   5.950   1.690  1.3428  0.7068  2.9772
 4275TIP3   OH234459   6.716   3.487   1.299 -0.1035 -0.5160 -0.2088
 4275TIP3    H134460   6.761   3.516   1.379 -0.5582  0.4197 -0.2785
 4275TIP3    H234461   6.741   3.395   1.290 -0.2024 -0.7002  1.1249
 4276TIP3   OH234462   3.359   3.203   0.772  0.2901 -0.1857 -0.2124
 4276TIP3    H134463   3.441   3.248   0.756  1.6573 -2.0205  1.1238
 4276TIP3    H234464   3.376   3.112   0.748 -1.3538 -0.6159  0.1063
 4277TIP3   OH234465   4.633   4.624   0.223 -0.4131  0.5413 -0.1871
 4277TIP3    H134466   4.569   4.638   0.292 -1.6134  0.6540 -1.2919
 4277TIP3    H234467   4.582   4.596   0.147  0.9958 -0.8882 -0.6766
 4278TIP3   OH234468   0.727   1.087   2.885 -0.0983 -0.2130 -0.8534
 4278TIP3    H134469   0.656   1.127   2.835 -0.1001 -0.0610 -0.7306
 4278TIP3    H234470   0.743   1.003   2.842 -1.3472 -0.9220  0.0168
 4279TIP3   OH234471   5.824   5.094   1.744  0.2348  0.0893 -0.0647
 4279TIP3    H134472   5.833   5.123   1.653 -1.5160  2.4830  0.4377
 4279TIP3    H234473   5.913   5.100   1.779  0.3325  3.3817 -0.5239
 4280TIP3   OH234474   0.483   5.926   1.528 -0.1289 -0.1440  0.2107
 4280TIP3    H134475   0.436   5.922   1.445  0.5103  0.7986 -0.2148
 4280TIP3    H234476   0.567   5.883   1.511  0.6192  1.3721 -0.0909
 4281TIP3   OH234477   3.851   3.983   1.212  0.2614  0.6686 -0.0184
 4281TIP3    H134478   3.877   4.056   1.268  0.2503  1.9923 -1.6229
 4281TIP3    H234479   3.805   4.025   1.139  0.1439 -0.9753 -0.9474
 4282TIP3   OH234480   3.636   6.442   8.119 -0.3216 -0.0890  0.1387
 4282TIP3    H134481   3.550   6.440   8.077  0.4035  1.7043 -1.5788
 4282TIP3    H234482   3.679   6.519   8.083  0.8349  0.9784  3.3950
 4283TIP3   OH234483   3.405   4.539   0.517  0.0343  0.2510  0.7136
 4283TIP3    H134484   3.478   4.504   0.466 -1.0874  0.2723 -0.9935
 4283TIP3    H234485   3.442   4.614   0.563  1.4166 -0.5935  1.0431
 4284TIP3   OH234486   6.547   0.668   1.780  0.6870  0.2758  0.3895
 4284TIP3    H134487   6.490   0.683   1.855  0.4783 -0.6410  0.4229
 4284TIP3    H234488   6.633   0.653   1.818  0.0276 -3.5758  0.7823
 4285TIP3   OH234489   3.590   1.291   2.061  0.7214  0.1814 -0.0029
 4285TIP3    H134490   3.653   1.220   2.049  0.3829 -0.3006  0.9278
 4285TIP3    H234491   3.618   1.335   2.141  0.5069  0.6433 -0.1770
 4286TIP3   OH234492   6.338   3.775   6.796 -0.6237  0.2511 -0.0193
 4286TIP3    H134493   6.347   3.840   6.866 -2.4529 -0.2669  0.7557
 4286TIP3    H234494   6.321   3.827   6.717 -0.5051  0.7749  0.2974
 4287TIP3   OH234495   6.853   0.659   7.749 -0.1249 -0.0829  0.8575
 4287TIP3    H134496   6.796   0.703   7.686  2.0475  0.6012 -0.7429
 4287TIP3    H234497   6.854   0.717   7.825 -1.1372  0.1486  0.7062
 4288TIP3   OH234498   1.262   5.786   0.566 -0.2360 -0.0122 -0.0003
 4288TIP3    H134499   1.293   5.759   0.480  0.2941 -1.5260  0.6232
 4288TIP3    H234500   1.338   5.828   0.607  0.6925 -2.4403  0.9887
 4289TIP3   OH234501   4.218   6.870   7.589 -0.0992 -0.1897  0.4744
 4289TIP3    H134502   4.313   6.868   7.601 -0.2511 -0.0788  1.8797
 4289TIP3    H234503   4.185   6.805   7.651 -0.9712 -0.0192  0.2000
 4290TIP3   OH234504   0.359   3.378   1.751 -0.1576 -0.8430 -0.2122
 4290TIP3    H134505   0.381   3.301   1.699  1.2531  1.0686 -2.6942
 4290TIP3    H234506   0.416   3.373   1.828  1.4242 -1.2645 -1.3626
 4291TIP3   OH234507   5.240   2.027   7.279 -0.8902 -0.3208 -0.2198
 4291TIP3    H134508   5.304   2.007   7.347  0.5386  3.0183 -0.3687
 4291TIP3    H234509   5.163   2.058   7.327 -0.8868 -0.5068 -0.0945
 4292TIP3   OH234510   6.720   6.703   0.488 -0.1213 -0.5175  0.5376
 4292TIP3    H134511   6.676   6.624   0.456 -0.9991  0.0726  0.2464
 4292TIP3    H234512   6.719   6.763   0.414  0.9006 -0.3649  0.6313
 4293TIP3   OH234513   5.353   6.885   0.139 -0.0349 -0.2817 -0.3099
 4293TIP3    H134514   5.402   6.891   0.221 -0.0612 -2.5617 -0.0860
 4293TIP3    H234515   5.409   6.931   0.076 -0.0835  1.6510  0.9393
 4294TIP3   OH234516   0.005   4.458   7.320  0.0763 -0.4715  0.3192
 4294TIP3    H134517   0.093   4.480   7.351 -0.6071  1.6268  0.9942
 4294TIP3    H234518  -0.011   4.520   7.249 -1.0511 -0.4382  0.5820
 4295TIP3   OH234519   5.268   0.293   7.005 -0.0711 -0.5657 -0.4541
 4295TIP3    H134520   5.253   0.318   6.914  0.6024  4.3358  0.4568
 4295TIP3    H234521   5.188   0.320   7.050  0.5744 -0.5119  0.6894
 4296TIP3   OH234522   0.544   0.817   2.885  0.4581  0.2877  0.4456
 4296TIP3    H134523   0.468   0.867   2.855 -0.8975 -1.4612  0.8140
 4296TIP3    H234524   0.514   0.773   2.965  1.6523 -0.9078  0.2709
 4297TIP3   OH234525   1.250   4.982   8.376  0.5779 -0.4660  0.6754
 4297TIP3    H134526   1.317   4.963   8.309  0.1044 -0.7556  0.2782
 4297TIP3    H234527   1.217   4.896   8.402 -0.0228 -0.2988  0.4753
 4298TIP3   OH234528   0.802   1.527   2.628  0.3472 -0.2368  0.3365
 4298TIP3    H134529   0.897   1.520   2.629  0.2632 -1.8276  0.3204
 4298TIP3    H234530   0.774   1.481   2.707 -0.3896  1.1337  0.9113
 4299TIP3   OH234531   4.292   2.102   1.790  0.1026 -0.6136 -0.2476
 4299TIP3    H134532   4.358   2.090   1.858  0.4521 -0.1730 -0.5039
 4299TIP3    H234533   4.252   2.016   1.780  1.8925 -1.3710 -1.3813
 4300TIP3   OH234534   6.665   4.894   8.400  0.0168  0.0325 -0.5797
 4300TIP3    H134535   6.589   4.882   8.456 -1.3473  0.0378 -2.3337
 4300TIP3    H234536   6.712   4.968   8.439 -0.1873 -0.7190  1.2042
 4301TIP3   OH234537   2.211   6.561   0.119 -0.4427 -0.0792  0.2976
 4301TIP3    H134538   2.222   6.467   0.110 -0.4602  0.0392 -1.3683
 4301TIP3    H234539   2.160   6.573   0.199  0.4275 -1.4032  1.0910
 4302TIP3   OH234540   4.728   1.544   0.944 -0.0727 -0.2693  0.3515
 4302TIP3    H134541   4.786   1.614   0.914 -0.2221  0.6082  1.9974
 4302TIP3    H234542   4.740   1.542   1.039 -2.9502  0.1886  0.8298
 4303TIP3   OH234543   5.671   5.750   0.116 -0.0445 -0.4800 -0.0426
 4303TIP3    H134544   5.659   5.668   0.164  0.2751  0.6099  2.0095
 4303TIP3    H234545   5.690   5.815   0.184  0.3276  1.1837 -1.6625
 4304TIP3   OH234546   5.183   6.482   7.106  0.4404 -0.3979 -0.0786
 4304TIP3    H134547   5.225   6.522   7.030 -1.4021  0.8433 -0.5082
 4304TIP3    H234548   5.197   6.388   7.093  0.5813 -0.1901 -1.7133
 4305TIP3   OH234549   4.963   5.046   2.457 -1.1606  0.4244  1.1914
 4305TIP3    H134550   4.886   5.103   2.463 -0.7426  1.1430  0.0081
 4305TIP3    H234551   5.036   5.103   2.480 -0.8184  0.1579  0.7576
 4306TIP3   OH234552   4.902   6.305   7.476  0.4235 -0.3064 -0.2179
 4306TIP3    H134553   4.960   6.312   7.400  1.5122 -1.3735  0.4713
 4306TIP3    H234554   4.814   6.321   7.441  0.9985  0.2255 -1.4997
 4307TIP3   OH234555   0.973   2.862   1.242 -0.1951  0.1237 -0.1877
 4307TIP3    H134556   0.981   2.784   1.296  0.2056 -0.9631 -1.7456
 4307TIP3    H234557   0.985   2.831   1.152 -0.2661  1.9415 -0.8792
 4308TIP3   OH234558   4.480   5.376   0.224 -0.0087 -0.3829  0.0147
 4308TIP3    H134559   4.458   5.461   0.263  0.9799 -0.6084  1.1531
 4308TIP3    H234560   4.535   5.397   0.149  0.2571 -0.0104  0.3112
 4309TIP3   OH234561   6.185   3.028   8.136  0.0773 -0.5703  0.0584
 4309TIP3    H134562   6.255   2.970   8.166 -0.3188 -0.2037  1.7556
 4309TIP3    H234563   6.104   2.981   8.155 -0.2785  0.7387  2.0388
 4310TIP3   OH234564   1.348   1.331   2.440  0.2546  0.4289 -0.0382
 4310TIP3    H134565   1.354   1.420   2.404 -0.6592  0.2654 -0.6335
 4310TIP3    H234566   1.403   1.333   2.518  0.8773  1.2960 -0.4784
 4311TIP3   OH234567   0.071   5.437   0.422  0.1285  0.1312  0.4836
 4311TIP3    H134568   0.112   5.352   0.409  0.1830 -0.0424  1.7050
 4311TIP3    H234569   0.018   5.426   0.501  1.1089  1.5765  1.3741
 4312TIP3   OH234570   0.459   5.196   7.705  0.3206 -0.0778 -0.2344
 4312TIP3    H134571   0.544   5.177   7.743 -0.2690  1.5085  2.1242
 4312TIP3    H234572   0.404   5.219   7.780 -2.2870 -1.2891 -1.6333
 4313TIP3   OH234573   0.826   2.059   6.876  0.3479 -0.0398  0.0628
 4313TIP3    H134574   0.816   1.981   6.820 -0.5409  0.2847 -0.2444
 4313TIP3    H234575   0.917   2.086   6.863  0.1614  0.0191 -1.2166
 4314TIP3   OH234576   6.656   2.954   0.252  0.5389 -0.0995 -0.7628
 4314TIP3    H134577   6.714   2.986   0.321 -2.0018  1.6229  0.7489
 4314TIP3    H234578   6.636   2.864   0.277 -0.6296  0.6008  1.1013
 4315TIP3   OH234579   3.590   6.818   0.307 -0.5222 -0.5016  0.0529
 4315TIP3    H134580   3.627   6.847   0.223 -0.9188 -2.7042 -0.9666
 4315TIP3    H234581   3.529   6.887   0.332  0.0792  0.5036 -1.1449
 4316TIP3   OH234582   5.482   0.441   2.357  0.3445  0.5900  0.1220
 4316TIP3    H134583   5.522   0.419   2.441  0.8829  1.0854  0.0005
 4316TIP3    H234584   5.438   0.525   2.373  0.0751  0.4684  0.0235
 4317TIP3   OH234585   1.493   6.471   7.362  0.0764 -0.2737 -0.2764
 4317TIP3    H134586   1.498   6.381   7.329  0.4156 -0.2353 -0.3365
 4317TIP3    H234587   1.410   6.505   7.327 -0.4514 -0.8220  0.4210
 4318TIP3   OH234588   0.008   2.039   8.465  0.1471  0.0961  0.2232
 4318TIP3    H134589  -0.060   2.061   8.401  2.1564 -0.9053 -2.4744
 4318TIP3    H234590   0.051   2.123   8.484  1.0465  0.1351 -1.7239
 4319TIP3   OH234591   2.889   1.734   1.611 -0.3648 -0.2491  0.0856
 4319TIP3    H134592   2.849   1.773   1.688 -0.4521 -1.0568  0.4581
 4319TIP3    H234593   2.983   1.738   1.627 -0.3314  0.6281 -0.2879
 4320TIP3   OH234594   6.368   0.078   0.246 -0.3612  0.1389  0.3882
 4320TIP3    H134595   6.379   0.085   0.151  0.6024 -2.6063  0.2058
 4320TIP3    H234596   6.280   0.042   0.257  0.3192 -1.6960  0.3123
 4321TIP3   OH234597   4.395   1.220   7.924 -0.1812  0.9193 -0.1472
 4321TIP3    H134598   4.386   1.148   7.861 -0.4355  0.3719  0.4926
 4321TIP3    H234599   4.361   1.183   8.006  0.6681  1.4285  0.4407
 4322TIP3   OH234600   1.081   4.335   6.167 -0.5000  0.2489 -0.0209
 4322TIP3    H134601   1.169   4.322   6.204 -0.2376  0.1153 -0.6858
 4322TIP3    H234602   1.024   4.281   6.223 -0.0247 -0.3841 -0.1363
 4323TIP3   OH234603   2.934   0.566   8.188  0.2218 -0.5796 -0.4464
 4323TIP3    H134604   2.933   0.478   8.149 -0.9844 -1.1388  0.7755
 4323TIP3    H234605   2.976   0.554   8.273 -1.9013 -0.4368  0.6780
 4324TIP3   OH234606   0.209   2.160   0.260  0.1083  0.4904  0.2374
 4324TIP3    H134607   0.157   2.138   0.337 -0.5384 -1.6338 -0.7419
 4324TIP3    H234608   0.295   2.122   0.278 -0.2610 -0.6888 -0.3548
 4325TIP3   OH234609   2.975   2.949   1.393 -0.0419  1.0674 -0.4751
 4325TIP3    H134610   2.976   3.038   1.359  2.0178  1.4535  0.4252
 4325TIP3    H234611   3.004   2.895   1.319  0.8814  1.4550 -0.4194
 4326TIP3   OH234612   6.320   1.487   7.989  0.0272 -0.2778  0.0387
 4326TIP3    H134613   6.385   1.470   8.058  1.2740  1.0993 -0.7317
 4326TIP3    H234614   6.303   1.581   7.995 -1.2893 -0.4816 -0.3225
 4327TIP3   OH234615   4.774   3.302   0.821  0.3891 -0.0921  0.5869
 4327TIP3    H134616   4.722   3.237   0.866  1.5404 -0.9036  0.7839
 4327TIP3    H234617   4.768   3.380   0.876  0.0771 -0.4278  1.0350
 4328TIP3   OH234618   5.983   1.041   0.372 -0.2729 -0.5651  0.1882
 4328TIP3    H134619   5.975   1.028   0.466 -0.5241 -0.2603  0.2123
 4328TIP3    H234620   6.041   1.117   0.363 -0.8771 -0.1032  0.1221
 4329TIP3   OH234621   2.566   6.773   0.003 -0.3423  0.5221  0.4754
 4329TIP3    H134622   2.591   6.805   0.090  0.0064  0.5377  0.3708
 4329TIP3    H234623   2.621   6.696  -0.011 -0.4890  0.4448  0.3200
 4330TIP3   OH234624   4.941   4.712   0.659 -0.3637  0.4997  0.7851
 4330TIP3    H134625   4.911   4.624   0.636 -0.3964  0.6727  0.1444
 4330TIP3    H234626   5.035   4.711   0.642 -0.6122  1.0669 -0.8516
 4331TIP3   OH234627   0.372   3.931   7.712  0.1722 -0.0391 -0.3895
 4331TIP3    H134628   0.371   3.839   7.686 -0.5459 -0.0421 -0.3593
 4331TIP3    H234629   0.464   3.948   7.734  0.1988 -0.9243  0.2454
 4332TIP3   OH234630   2.166   4.198   6.744  0.5630 -0.1505 -0.3840
 4332TIP3    H134631   2.102   4.262   6.713  0.5887 -0.2239 -0.5954
 4332TIP3    H234632   2.199   4.157   6.664  0.5676 -0.4059 -0.2510
 4333TIP3   OH234633   3.812   0.257   0.964 -0.2118 -0.3566 -0.1300
 4333TIP3    H134634   3.874   0.301   0.906 -2.2479 -0.0854 -2.2871
 4333TIP3    H234635   3.737   0.317   0.969 -0.9702 -1.3558  1.0383
 4334TIP3   OH234636   0.948   0.331   7.379  0.3360  0.1265 -0.2447
 4334TIP3    H134637   0.908   0.413   7.409 -0.9967  0.9019 -3.6672
 4334TIP3    H234638   0.875   0.276   7.352  1.3370 -1.1296 -0.5307
 4335TIP3   OH234639   2.771   6.408   0.285  0.3496  0.0199 -0.2133
 4335TIP3    H134640   2.754   6.319   0.254 -1.2809  0.3196 -0.2724
 4335TIP3    H234641   2.844   6.439   0.232  0.3750 -0.9820 -0.7822
 4336TIP3   OH234642   2.070   2.219   1.187  0.4633  0.4087 -0.0663
 4336TIP3    H134643   2.155   2.199   1.226 -0.3071  0.1830  1.6127
 4336TIP3    H234644   2.037   2.293   1.238  0.6993  2.1702 -2.3287
 4337TIP3   OH234645   3.676   2.412   7.643  0.0645 -0.0238  0.0478
 4337TIP3    H134646   3.677   2.387   7.551  1.1324  0.6787 -0.1566
 4337TIP3    H234647   3.717   2.499   7.644 -2.6246  1.3396  0.8247
 4338TIP3   OH234648   6.282   2.023   8.054 -0.4000 -0.0839 -0.1828
 4338TIP3    H134649   6.303   1.930   8.058 -2.2787 -0.5101  1.1547
 4338TIP3    H234650   6.290   2.046   7.961  0.8481 -1.3554 -0.4228
 4339TIP3   OH234651   4.308   0.991   2.487  0.3449 -0.0443 -0.5450
 4339TIP3    H134652   4.302   1.086   2.476  0.4496  0.1090  0.6025
 4339TIP3    H234653   4.301   0.977   2.581  3.0891 -0.9580 -0.3896
 4340TIP3   OH234654   4.253   6.186   8.229 -0.0448  0.5044 -0.0867
 4340TIP3    H134655   4.160   6.169   8.210 -0.1664  0.9876  0.0592
 4340TIP3    H234656   4.255   6.205   8.323  0.3113 -0.2302  0.0589
 4341TIP3   OH234657   6.691   4.318   0.017 -0.1357 -0.0330 -0.3485
 4341TIP3    H134658   6.689   4.379  -0.057 -0.1541 -0.0623 -0.3718
 4341TIP3    H234659   6.635   4.246  -0.010  0.2221 -0.2618 -0.4949
 4342TIP3   OH234660   1.914   1.529   1.069  0.4868 -0.4478  0.4232
 4342TIP3    H134661   1.836   1.583   1.056 -0.2669 -1.0874  1.9116
 4342TIP3    H234662   1.982   1.570   1.016 -0.1232  1.7666  1.2350
 4343TIP3   OH234663   2.453   5.802   7.334 -0.1465  0.1218 -0.2578
 4343TIP3    H134664   2.509   5.787   7.258  0.3231  0.3935  0.0282
 4343TIP3    H234665   2.367   5.821   7.297 -0.3883 -1.6090 -0.6648
 4344TIP3   OH234666   4.904   6.831   2.568 -0.0828  0.1677  0.0905
 4344TIP3    H134667   4.895   6.901   2.503  0.6819 -0.4261 -0.6704
 4344TIP3    H234668   4.855   6.758   2.532 -3.0620  1.0179  2.0450
 4345TIP3   OH234669   5.790   4.984   8.328 -0.5360  0.4787 -0.1494
 4345TIP3    H134670   5.741   4.904   8.312 -0.5204  0.4865 -0.2367
 4345TIP3    H234671   5.794   4.991   8.423 -0.8590  0.5730 -0.1414
 4346TIP3   OH234672   3.317   3.148   7.848  0.7316  0.3110  0.8696
 4346TIP3    H134673   3.355   3.062   7.865  1.1206  0.2350 -0.2815
 4346TIP3    H234674   3.390   3.200   7.816  0.1558  0.5552 -0.0961
 4347TIP3   OH234675   2.459   6.810   1.374  0.3416  0.2037  0.6373
 4347TIP3    H134676   2.386   6.860   1.411 -0.5120 -0.5556  0.0133
 4347TIP3    H234677   2.453   6.724   1.415  0.0017 -0.3263 -0.4923
 4348TIP3   OH234678   1.320   4.780   1.750 -0.5875 -0.0713  0.0805
 4348TIP3    H134679   1.313   4.873   1.771  0.2626 -0.0801  0.4835
 4348TIP3    H234680   1.411   4.758   1.772 -0.4624 -0.7456 -1.0308
 4349TIP3   OH234681   1.618   0.386   8.190  0.3382  0.0995  0.0951
 4349TIP3    H134682   1.660   0.312   8.146  1.1901  0.6592 -0.0536
 4349TIP3    H234683   1.524   0.369   8.180  0.5160 -0.5277 -0.6801
 4350TIP3   OH234684   1.586   1.173   8.465 -0.1239 -0.3518  0.4607
 4350TIP3    H134685   1.530   1.096   8.455 -2.0419  0.8696  1.0962
 4350TIP3    H234686   1.624   1.164   8.552 -0.8873 -0.2661  0.8134
 4351TIP3   OH234687   3.943   6.563   0.887  0.1223  0.5740 -0.6694
 4351TIP3    H134688   4.005   6.497   0.919  1.1172  0.8804 -1.8984
 4351TIP3    H234689   3.916   6.611   0.965 -0.7629 -1.3668  0.2918
 4352TIP3   OH234690   5.772   3.367   7.191 -0.0963 -0.1480 -0.1627
 4352TIP3    H134691   5.796   3.453   7.156 -0.5105 -0.0206 -0.1363
 4352TIP3    H234692   5.782   3.308   7.117 -0.3514  0.0174 -0.3320
 4353TIP3   OH234693   6.263   4.458   6.845 -0.0970 -0.5965  0.2215
 4353TIP3    H134694   6.240   4.513   6.770  0.0358 -0.9233 -0.0614
 4353TIP3    H234695   6.296   4.520   6.910 -0.1481 -0.3162 -0.0154
 4354TIP3   OH234696   4.931   6.073   0.274 -0.6220  0.1903  0.2634
 4354TIP3    H134697   4.992   6.124   0.328  0.7185 -1.6437  0.5554
 4354TIP3    H234698   4.871   6.139   0.237  0.4880  1.8585  1.3123
 4355TIP3   OH234699   4.437   5.645   1.808 -0.4082  0.3325  0.3083
 4355TIP3    H134700   4.343   5.662   1.814 -0.5883 -0.3208 -0.4664
 4355TIP3    H234701   4.469   5.653   1.897 -1.6093 -1.7672  0.9965
 4356TIP3   OH234702   1.942   4.114   7.666 -0.7278 -0.4162 -0.4597
 4356TIP3    H134703   1.871   4.171   7.693 -1.2354 -0.9846 -0.5792
 4356TIP3    H234704   1.922   4.029   7.707  1.2187  0.0404  1.6610
 4357TIP3   OH234705   0.558   5.260   0.601 -0.1818 -0.2143  0.4001
 4357TIP3    H134706   0.561   5.306   0.684  1.2892 -0.5615  0.5731
 4357TIP3    H234707   0.645   5.221   0.592 -1.0558 -2.1507 -0.1906
 4358TIP3   OH234708   6.690   5.202   8.175  0.2423 -0.4180  0.4850
 4358TIP3    H134709   6.629   5.177   8.106  0.0639  0.9048  0.1281
 4358TIP3    H234710   6.679   5.136   8.243 -0.5534 -0.9856 -0.1848
 4359TIP3   OH234711   4.065   4.489   8.232  0.6635  0.1217  1.1439
 4359TIP3    H134712   4.055   4.400   8.267 -1.2643 -0.2536 -0.1943
 4359TIP3    H234713   4.017   4.487   8.149  1.6747  2.0743  0.4612
 4360TIP3   OH234714   3.457   2.272   2.550  0.3451 -0.0139 -0.1357
 4360TIP3    H134715   3.506   2.191   2.565 -0.5509 -0.0533  3.2597
 4360TIP3    H234716   3.468   2.323   2.630 -0.3083  2.6549 -1.5993
 4361TIP3   OH234717   5.975   5.986   8.523 -0.7363 -0.0414 -0.6566
 4361TIP3    H134718   6.059   5.965   8.565 -0.6908  0.5994 -0.4180
 4361TIP3    H234719   5.999   6.038   8.447 -0.9052 -0.0465 -0.7118
 4362TIP3   OH234720   5.117   4.401   7.971  0.1976 -0.3188 -0.0411
 4362TIP3    H134721   5.173   4.464   7.927 -0.3681  0.7056  0.6553
 4362TIP3    H234722   5.160   4.316   7.958  1.0624  0.2299 -0.8434
 4363TIP3   OH234723   2.551   2.856   1.615 -0.3874 -0.2427  0.1541
 4363TIP3    H134724   2.533   2.915   1.688  0.0332 -0.2739  0.2852
 4363TIP3    H234725   2.467   2.848   1.569 -0.7605 -0.5541  0.8719
 4364TIP3   OH234726   3.162   5.093   8.045  0.3258 -0.5255  0.2626
 4364TIP3    H134727   3.107   5.172   8.050  1.0784  0.0443 -0.2602
 4364TIP3    H234728   3.216   5.096   8.124 -0.4823 -1.1643  0.8520
 4365TIP3   OH234729   3.536   1.948   3.345 -0.3930 -0.3219  0.2150
 4365TIP3    H134730   3.621   1.992   3.351 -0.3504 -0.2947 -0.4483
 4365TIP3    H234731   3.551   1.877   3.282 -0.6542 -0.8246  0.7138
 4366TIP3   OH234732   3.945   3.386   1.329  0.5039 -0.4818  0.2499
 4366TIP3    H134733   3.896   3.362   1.250  0.5027  2.4508 -0.7557
 4366TIP3    H234734   3.992   3.306   1.352 -1.1099 -2.0424 -1.4852
 4367TIP3   OH234735   2.099   4.414   7.910 -0.4665  0.3138 -0.5241
 4367TIP3    H134736   2.138   4.372   7.833 -1.8289 -0.6382 -0.7505
 4367TIP3    H234737   2.006   4.421   7.888 -0.7049  1.0217  0.6213
 4368TIP3   OH234738   6.442   2.139   7.158  0.5768  0.1229 -0.6388
 4368TIP3    H134739   6.517   2.184   7.119  0.7877  0.3963  0.0686
 4368TIP3    H234740   6.463   2.046   7.151  0.7545  0.1802 -0.8812
 4369TIP3   OH234741   4.281   6.849   2.944 -0.4090 -0.0797  0.1422
 4369TIP3    H134742   4.357   6.795   2.966  2.0142  3.0701  0.1618
 4369TIP3    H234743   4.229   6.851   3.024 -0.1000 -1.5517  0.4142
 4370TIP3   OH234744   5.497   1.009   0.079  0.1715 -0.2829  0.4596
 4370TIP3    H134745   5.517   1.073   0.012 -1.0215  0.7967  1.0769
 4370TIP3    H234746   5.536   0.927   0.048  0.1903  0.3343 -1.2115
 4371TIP3   OH234747   1.661   3.726   7.673  0.1419 -0.7135  0.4092
 4371TIP3    H134748   1.628   3.698   7.588 -0.1016  0.3270  0.1429
 4371TIP3    H234749   1.583   3.738   7.727 -0.0284  1.7433 -0.2220
 4372TIP3   OH234750   3.394   0.857   0.608  0.0903 -0.4994 -0.2672
 4372TIP3    H134751   3.456   0.824   0.674  0.6233 -1.7637 -1.3412
 4372TIP3    H234752   3.368   0.943   0.640  1.6216 -0.3703  0.7368
 4373TIP3   OH234753   1.721   2.932   0.076 -0.7269 -0.2551  0.0340
 4373TIP3    H134754   1.653   2.875   0.111  0.1276 -0.4109  1.5326
 4373TIP3    H234755   1.727   2.909  -0.016 -1.6337 -1.3281  0.2287
 4374TIP3   OH234756   5.145   6.380   0.705 -0.8326  0.1721 -0.1143
 4374TIP3    H134757   5.101   6.387   0.790 -0.2718 -1.1255  0.3150
 4374TIP3    H234758   5.159   6.470   0.678 -1.5691  0.6106  0.8807
 4375TIP3   OH234759   0.569   4.739   0.641  0.3990  0.3374 -0.1519
 4375TIP3    H134760   0.570   4.793   0.562 -0.6210 -0.9093 -1.0720
 4375TIP3    H234761   0.651   4.759   0.685  0.5832  1.7266 -1.0610
 4376TIP3   OH234762   1.181   6.755   0.166  0.2350  0.4594  0.6686
 4376TIP3    H134763   1.137   6.827   0.210 -0.1884  0.7072 -0.1440
 4376TIP3    H234764   1.120   6.681   0.173 -0.7059  1.0081 -1.1326
 4377TIP3   OH234765   4.788   1.801   0.557 -0.6348 -0.2336 -0.3462
 4377TIP3    H134766   4.848   1.733   0.524 -0.2607 -0.7606  1.3364
 4377TIP3    H234767   4.798   1.798   0.652 -1.6358  1.2688 -0.1599
 4378TIP3   OH234768   4.697   4.538   7.862  0.5205  0.1863 -0.0197
 4378TIP3    H134769   4.744   4.467   7.819 -1.2969 -0.3053 -1.3036
 4378TIP3    H234770   4.738   4.618   7.828  0.3722 -0.2242 -1.2074
 4379TIP3   OH234771   2.917   5.855   6.572 -0.9391  0.8162  0.3153
 4379TIP3    H134772   2.979   5.801   6.522 -0.6803  0.1317  1.3390
 4379TIP3    H234773   2.859   5.792   6.614 -0.3801  1.2756  1.8626
 4380TIP3   OH234774   2.873   1.511   2.179  0.6036  0.8630  0.4450
 4380TIP3    H134775   2.827   1.498   2.096 -0.5030  0.5384  1.0876
 4380TIP3    H234776   2.956   1.551   2.154 -0.4664  2.5339 -0.7002
 4381TIP3   OH234777   5.113   6.623   1.796 -0.2439 -0.6171 -0.1344
 4381TIP3    H134778   5.103   6.556   1.863  0.7603  0.2049  0.8898
 4381TIP3    H234779   5.028   6.665   1.790  0.0429  0.3481  1.8230
 4382TIP3   OH234780   3.198   6.219   2.591  0.0062  0.7801  0.3176
 4382TIP3    H134781   3.197   6.215   2.686 -1.3022  2.4935  0.4152
 4382TIP3    H234782   3.107   6.201   2.565  0.5452 -0.7508 -0.7091
 4383TIP3   OH234783   5.967   4.480   1.621  0.1129 -0.5988 -0.2625
 4383TIP3    H134784   6.000   4.453   1.535  2.0646  1.3165 -0.1882
 4383TIP3    H234785   5.879   4.515   1.602  1.0458  1.1200 -1.7806
 4384TIP3   OH234786   5.666   6.589   7.916  0.6413  0.3136  0.3189
 4384TIP3    H134787   5.665   6.668   7.862  0.0802  0.7543  0.9483
 4384TIP3    H234788   5.616   6.613   7.994 -0.9316 -1.1277 -0.1569
 4385TIP3   OH234789   6.849   0.736   7.430 -0.2395 -0.4012 -0.0664
 4385TIP3    H134790   6.942   0.718   7.420 -0.3713 -1.3928  0.3286
 4385TIP3    H234791   6.843   0.830   7.445  0.5544 -0.0450 -1.7137
 4386TIP3   OH234792   3.935   1.680   8.030 -0.4177 -1.2000  0.7478
 4386TIP3    H134793   3.998   1.720   7.970 -0.6109 -0.6473  0.9124
 4386TIP3    H234794   3.955   1.587   8.026 -0.2877 -1.1501 -0.0172
 4387TIP3   OH234795   2.385   4.413   2.054  0.1908 -0.4693  0.2416
 4387TIP3    H134796   2.303   4.371   2.028 -0.9696  1.0166  1.3395
 4387TIP3    H234797   2.370   4.506   2.042  2.0499 -0.1939 -0.3376
 4388TIP3   OH234798   5.903   4.452   0.371  0.6410  0.1468  0.8948
 4388TIP3    H134799   5.936   4.373   0.327  0.1886 -0.5028  1.6984
 4388TIP3    H234800   5.980   4.507   0.383  1.8792 -1.9976  4.1697
 4389TIP3   OH234801   2.976   6.813   1.792 -0.0715  0.6369 -0.1580
 4389TIP3    H134802   2.939   6.878   1.852  0.2406  2.8180 -2.1830
 4389TIP3    H234803   2.916   6.813   1.717  1.7836  1.2080 -1.7004
 4390TIP3   OH234804   5.415   4.405   7.331 -0.0180 -0.0594  0.4540
 4390TIP3    H134805   5.429   4.312   7.315  0.5201  0.3683 -1.9941
 4390TIP3    H234806   5.338   4.427   7.280  0.8510  1.1393 -0.4139
 4391TIP3   OH234807   3.960   0.956   0.701  0.8141  0.4004  0.0619
 4391TIP3    H134808   3.933   1.047   0.710 -1.0990 -0.1955  0.8197
 4391TIP3    H234809   4.056   0.959   0.702  0.8706  2.6118 -2.5529
 4392TIP3   OH234810   3.318   6.314   2.337  0.2685  0.4891  0.7040
 4392TIP3    H134811   3.317   6.405   2.309 -0.7423  0.0886 -0.6859
 4392TIP3    H234812   3.259   6.311   2.413  1.4238  1.2167  1.6702
 4393TIP3   OH234813   4.526   6.242   8.259 -0.0038  0.4372 -0.7176
 4393TIP3    H134814   4.439   6.257   8.295 -0.1339  0.1345 -0.9085
 4393TIP3    H234815   4.577   6.210   8.333 -1.1467 -3.6286 -1.4613
 4394TIP3   OH234816   3.811   3.766   7.426 -0.5919  0.0813  0.0570
 4394TIP3    H134817   3.831   3.711   7.502 -0.2471  0.4409  0.2294
 4394TIP3    H234818   3.748   3.714   7.375 -0.1443 -0.5428  0.1314
 4395TIP3   OH234819   1.608   2.872   1.423  0.6350 -0.3674 -0.7077
 4395TIP3    H134820   1.651   2.813   1.360  1.2544 -1.2177  0.4657
 4395TIP3    H234821   1.674   2.937   1.443  0.8968 -0.8374  0.0041
 4396TIP3   OH234822   4.117   3.974   1.018 -0.0477  0.3125 -0.0244
 4396TIP3    H134823   4.039   3.990   0.965 -1.7163 -2.4124  1.4303
 4396TIP3    H234824   4.102   4.023   1.099 -1.1211 -1.5474  0.9471
 4397TIP3   OH234825   2.773   3.206   7.801 -0.2599  0.1054 -0.1285
 4397TIP3    H134826   2.835   3.263   7.846 -0.0675 -0.2658  0.0884
 4397TIP3    H234827   2.824   3.165   7.731 -1.0990  2.4017 -2.2091
 4398TIP3   OH234828   1.476   2.766   8.468  0.1758 -0.5292 -0.0097
 4398TIP3    H134829   1.475   2.748   8.562 -1.2864 -1.3934 -0.1657
 4398TIP3    H234830   1.385   2.787   8.447  0.2228 -1.6310 -1.4617
 4399TIP3   OH234831   3.468   5.177   1.707  0.2779 -0.1357 -0.1305
 4399TIP3    H134832   3.505   5.226   1.781 -0.0366 -0.1027  0.0075
 4399TIP3    H234833   3.463   5.240   1.636 -2.5935  0.8313  0.7873
 4400TIP3   OH234834   5.825   2.052   8.359  0.0472  0.0768 -0.5168
 4400TIP3    H134835   5.911   2.013   8.342  0.4668  1.1182 -0.8358
 4400TIP3    H234836   5.764   1.978   8.352  0.6209 -0.2453 -2.8630
 4401TIP3   OH234837   0.427   0.979   2.309  0.3238  0.2208  0.5604
 4401TIP3    H134838   0.508   1.015   2.346 -0.0589  1.9541 -0.2114
 4401TIP3    H234839   0.365   0.983   2.382  0.4907  0.4297  0.6956
 4402TIP3   OH234840   0.118   6.803   0.323  0.3579 -0.7442  0.3024
 4402TIP3    H134841   0.036   6.849   0.343  1.7988  1.1152  2.3297
 4402TIP3    H234842   0.092   6.711   0.319 -1.7897 -0.2617  1.3119
 4403TIP3   OH234843   3.086   6.918   8.016  0.1124 -0.0125 -0.1199
 4403TIP3    H134844   3.181   6.925   8.011 -0.0560  1.8546 -2.0208
 4403TIP3    H234845   3.055   7.007   8.032 -1.4303  0.6153 -4.8874
 4404TIP3   OH234846   4.838   4.707   1.719  0.2068  0.0492  0.1603
 4404TIP3    H134847   4.899   4.720   1.646  1.1437 -0.3659  0.8569
 4404TIP3    H234848   4.798   4.622   1.702 -3.3232  1.9354 -2.5077
 4405TIP3   OH234849   6.963   4.771   0.177 -0.5578 -0.1205 -0.3871
 4405TIP3    H134850   6.959   4.864   0.199  0.9044 -0.2226  0.4281
 4405TIP3    H234851   6.887   4.757   0.120  0.2087  1.9738 -2.0870
 4406TIP3   OH234852   6.860   0.752   2.748 -0.3111 -0.1269  0.1000
 4406TIP3    H134853   6.933   0.785   2.800 -0.4010 -0.1987  0.2720
 4406TIP3    H234854   6.804   0.706   2.810 -0.9232  0.6238  0.1234
 4407TIP3   OH234855   0.340   1.959   7.504 -0.1707 -0.1536  0.3406
 4407TIP3    H134856   0.333   2.053   7.490 -0.9373 -0.4259 -1.3555
 4407TIP3    H234857   0.290   1.943   7.584  0.7231  0.9732  1.1537
 4408TIP3   OH234858   5.596   5.743   7.624 -0.2761  0.0705  0.5964
 4408TIP3    H134859   5.685   5.772   7.605 -0.6964  0.8046 -0.3850
 4408TIP3    H234860   5.548   5.757   7.542 -1.0161 -1.4463  0.7361
 4409TIP3   OH234861   2.215   5.464   0.149  0.7196  0.4606 -0.5834
 4409TIP3    H134862   2.244   5.374   0.166  0.3060  0.3415 -0.5171
 4409TIP3    H234863   2.137   5.475   0.203  0.9027  0.9405 -0.4121
 4410TIP3   OH234864   0.364   5.214   7.238 -0.0815 -0.3577  0.9694
 4410TIP3    H134865   0.299   5.280   7.214  0.7663  0.4142  0.7385
 4410TIP3    H234866   0.317   5.130   7.229 -0.2093 -0.0798 -2.2961
 4411TIP3   OH234867   6.853   0.908   0.305 -0.3851  0.2964 -0.4180
 4411TIP3    H134868   6.791   0.949   0.244 -0.1649  0.1176 -0.7646
 4411TIP3    H234869   6.803   0.836   0.344  0.0676 -0.8967 -1.9035
 4412TIP3   OH234870   4.011   2.454   7.733 -0.5416  0.1841 -0.0008
 4412TIP3    H134871   4.015   2.444   7.637  2.0440  1.2437 -0.0893
 4412TIP3    H234872   4.095   2.495   7.756 -1.5869  1.0506  2.6044
 4413TIP3   OH234873   0.158   5.376   0.937  0.3427  0.1701  0.3872
 4413TIP3    H134874   0.201   5.326   0.868 -1.9696  1.2597 -2.0215
 4413TIP3    H234875   0.080   5.325   0.959 -1.8203  2.2538 -1.8030
 4414TIP3   OH234876   6.891   6.281   1.191  0.4336  0.2677  0.1494
 4414TIP3    H134877   6.803   6.317   1.201 -0.5064 -1.4115 -1.5438
 4414TIP3    H234878   6.894   6.209   1.253 -0.1585 -0.9460 -1.1811
 4415TIP3   OH234879   2.466   1.818   6.888  0.1770 -0.9053  0.1343
 4415TIP3    H134880   2.488   1.847   6.799  0.4063 -0.5368  0.3102
 4415TIP3    H234881   2.510   1.734   6.898  2.7409  0.4618  0.9963
 4416TIP3   OH234882   5.280   5.412   6.777 -0.9097  0.0539  0.8476
 4416TIP3    H134883   5.317   5.446   6.696 -2.2320  0.3263  0.3295
 4416TIP3    H234884   5.186   5.404   6.759 -1.1091 -0.6736  2.0763
 4417TIP3   OH234885   0.228   0.534   0.600 -0.7408 -0.3616 -0.5470
 4417TIP3    H134886   0.211   0.516   0.692 -0.8628 -2.5030 -0.9467
 4417TIP3    H234887   0.197   0.624   0.587 -0.5084  0.0684  1.5236
 4418TIP3   OH234888   5.415   2.920   0.153  0.0666 -0.0777  0.0104
 4418TIP3    H134889   5.435   2.887   0.065  2.2719  0.7822  0.1066
 4418TIP3    H234890   5.440   2.849   0.212  0.6820  0.1361  0.0179
 4419TIP3   OH234891   3.329   3.542   8.383 -0.1680  0.6989 -0.2285
 4419TIP3    H134892   3.233   3.536   8.380 -0.1960  0.3572  0.8678
 4419TIP3    H234893   3.357   3.456   8.415  0.5016  0.8237 -0.4745
 4420TIP3   OH234894   4.318   4.220   1.055 -0.0044  0.5099  0.3327
 4420TIP3    H134895   4.356   4.254   0.974 -2.1634  0.3362 -0.8301
 4420TIP3    H234896   4.347   4.129   1.059 -0.5678  0.2650 -0.7367
 4421TIP3   OH234897   1.833   3.946   8.070 -0.2299 -0.2758 -0.1037
 4421TIP3    H134898   1.756   3.913   8.116 -0.9697  0.5152 -0.7364
 4421TIP3    H234899   1.811   3.938   7.977  0.2576  0.4112 -0.2852
 4422TIP3   OH234900   5.285   5.316   1.851  0.0692 -0.1988 -0.8548
 4422TIP3    H134901   5.296   5.404   1.815 -0.9788 -0.1509 -1.1040
 4422TIP3    H234902   5.373   5.287   1.873  0.4974  0.6361 -1.4371
 4423TIP3   OH234903   5.789   0.600   0.925  0.3726  0.0182 -0.1767
 4423TIP3    H134904   5.698   0.570   0.926  0.3333 -0.0928 -2.3198
 4423TIP3    H234905   5.831   0.551   0.996 -1.2759  0.3341  1.1021
 4424TIP3   OH234906   2.495   4.217   7.095  0.0561 -0.4257  0.4008
 4424TIP3    H134907   2.577   4.170   7.109  1.1874  1.4271  0.3722
 4424TIP3    H234908   2.469   4.245   7.182  1.0695  1.4730  0.1520
 4425TIP3   OH234909   5.930   0.005   2.131 -0.2845 -0.1636 -0.0555
 4425TIP3    H134910   5.908   0.015   2.038  0.5043  2.9351 -0.0137
 4425TIP3    H234911   5.999  -0.062   2.132 -2.7198 -2.9079 -1.1905
 4426TIP3   OH234912   1.500   5.213   0.778  0.3822  0.1009  0.0329
 4426TIP3    H134913   1.444   5.275   0.731  2.4613  0.6655 -1.8822
 4426TIP3    H234914   1.501   5.135   0.723  2.9276  0.7961 -1.0398
 4427TIP3   OH234915   0.731   0.227   7.251 -0.0333 -0.0053 -0.1240
 4427TIP3    H134916   0.802   0.236   7.188 -0.1372 -0.5375 -0.3186
 4427TIP3    H234917   0.681   0.308   7.242 -0.7532 -0.5894 -1.5972
 4428TIP3   OH234918   2.215   5.048   7.136 -0.0496  0.4116  0.5303
 4428TIP3    H134919   2.153   5.085   7.074  1.2240 -0.2400 -1.2142
 4428TIP3    H234920   2.256   5.124   7.178 -0.4761  0.8779  0.1054
 4429TIP3   OH234921   3.181   1.282   7.787  0.5822 -0.0375 -0.1597
 4429TIP3    H134922   3.121   1.355   7.801 -0.0651 -0.4204 -0.8229
 4429TIP3    H234923   3.216   1.297   7.699  2.1079  0.6248  0.5350
 4430TIP3   OH234924   0.867   6.087   0.986  0.5660 -0.0074  0.0729
 4430TIP3    H134925   0.860   6.006   0.936  0.7828 -1.2297  1.9359
 4430TIP3    H234926   0.777   6.117   0.996  0.4330 -0.3230 -0.1617
 4431TIP3   OH234927   2.449   6.675   7.242  0.2796 -0.4719 -0.0444
 4431TIP3    H134928   2.377   6.692   7.181 -0.7151  0.3039  1.2834
 4431TIP3    H234929   2.516   6.632   7.189 -0.6121  0.0058 -1.6267
 4432TIP3   OH234930   1.272   6.881   1.113 -0.4297  0.4846 -0.1918
 4432TIP3    H134931   1.275   6.976   1.127 -0.2253  0.5118 -0.4209
 4432TIP3    H234932   1.356   6.849   1.147 -1.0855  0.2038  1.2339
 4433TIP3   OH234933   6.548   1.180   8.396 -0.3341  0.0666 -0.0113
 4433TIP3    H134934   6.504   1.196   8.312 -0.1327 -3.5317 -0.9641
 4433TIP3    H234935   6.482   1.137   8.450  0.0959  0.6892  1.0490
 4434TIP3   OH234936   5.254   6.252   8.148 -0.3421  0.1399  0.3919
 4434TIP3    H134937   5.309   6.189   8.194 -0.8329  1.3012  2.6681
 4434TIP3    H234938   5.196   6.289   8.215 -1.8791  1.1066 -1.3624
 4435TIP3   OH234939   0.271   1.849   0.453 -0.2523  0.2204 -0.4004
 4435TIP3    H134940   0.203   1.895   0.503 -0.6130 -0.9916  0.2560
 4435TIP3    H234941   0.331   1.919   0.425  0.2761  0.9447  2.2029
 4436TIP3   OH234942   5.592   4.497   7.072  0.4613  0.2670  0.3052
 4436TIP3    H134943   5.604   4.557   6.998  1.8899 -0.7085 -0.2870
 4436TIP3    H234944   5.541   4.548   7.135 -0.0445  1.4298 -0.9709
 4437TIP3   OH234945   5.647   0.544   1.623 -0.3441  0.4717 -0.0744
 4437TIP3    H134946   5.604   0.521   1.540  0.6589 -1.1936 -0.1858
 4437TIP3    H234947   5.738   0.564   1.597 -0.0743  0.1249  0.5908
 4438TIP3   OH234948   2.478   1.954   7.117 -0.3185 -0.2498  0.0063
 4438TIP3    H134949   2.539   1.907   7.173  0.4086  1.4405  0.7181
 4438TIP3    H234950   2.485   1.911   7.032 -0.1134 -1.7351  0.7509
 4439TIP3   OH234951   4.082   5.177   7.825  0.7639  0.1852  0.0380
 4439TIP3    H134952   4.014   5.154   7.890  2.3098  0.0649  1.6970
 4439TIP3    H234953   4.034   5.184   7.743 -1.4035  0.8889  1.2618
 4440TIP3   OH234954   3.349   6.664   2.035 -0.7252 -0.2583  0.0476
 4440TIP3    H134955   3.361   6.754   2.004 -0.9066 -0.6156 -1.0933
 4440TIP3    H234956   3.350   6.611   1.956 -0.5599 -1.2782  0.7163
 4441TIP3   OH234957   5.938   3.933   1.307 -0.1683 -0.2149 -0.2419
 4441TIP3    H134958   6.025   3.915   1.272 -0.0141  0.2280 -0.0930
 4441TIP3    H234959   5.881   3.869   1.264  0.5316 -1.8384  1.0856
 4442TIP3   OH234960   6.855   2.962   0.462  0.2625 -0.5342 -0.0147
 4442TIP3    H134961   6.901   3.040   0.491  0.6666 -0.4088 -0.9753
 4442TIP3    H234962   6.912   2.923   0.395 -2.1962  1.1715 -3.3969
 4443TIP3   OH234963   5.481   1.798   1.245  0.5711 -1.0873 -0.0928
 4443TIP3    H134964   5.547   1.743   1.285 -0.0417 -1.0427  1.0095
 4443TIP3    H234965   5.502   1.887   1.275 -0.9635 -1.2753  1.7005
 4444TIP3   OH234966   2.972   5.774   7.003  0.1597 -0.4436  0.1961
 4444TIP3    H134967   2.999   5.832   7.075 -1.8759  0.6753  0.1388
 4444TIP3    H234968   3.054   5.738   6.969  1.4435  1.6618  0.8787
 4445TIP3   OH234969   0.371   3.759   2.068 -0.1865 -0.1904  0.4448
 4445TIP3    H134970   0.281   3.790   2.057  0.0086  0.2401  0.0480
 4445TIP3    H234971   0.362   3.674   2.111 -0.8646 -0.9388 -1.1353
 4446TIP3   OH234972   6.194   2.687   0.109 -0.4515  0.2500 -0.2416
 4446TIP3    H134973   6.177   2.766   0.056  2.5180  1.9007  1.0039
 4446TIP3    H234974   6.129   2.691   0.179 -0.4123  1.5848 -0.2525
 4447TIP3   OH234975   0.013   4.083   1.361 -0.3791  0.5900 -0.0661
 4447TIP3    H134976  -0.070   4.121   1.330  0.5786  1.2094 -2.0751
 4447TIP3    H234977   0.074   4.157   1.363  0.4274 -0.0709  0.1639
 4448TIP3   OH234978   1.912   4.327   0.476 -0.4117 -0.5117 -0.1213
 4448TIP3    H134979   1.839   4.284   0.432 -3.0174  1.4599  1.9563
 4448TIP3    H234980   1.893   4.420   0.470  1.6421  0.0487  0.9939
 4449TIP3   OH234981   2.368   2.276   8.137 -0.2753 -0.0716 -0.1552
 4449TIP3    H134982   2.297   2.212   8.147 -0.0323 -0.2037  0.8531
 4449TIP3    H234983   2.324   2.361   8.138 -0.6791 -0.1954 -2.2191
 4450TIP3   OH234984   4.734   4.566   7.488  0.1464  0.5674 -0.4549
 4450TIP3    H134985   4.766   4.604   7.570 -1.5773 -1.2949  1.1863
 4450TIP3    H234986   4.773   4.479   7.485 -3.2198 -1.1712  0.8478
 4451TIP3   OH234987   3.890   5.034   2.144  0.3321 -0.1939 -0.1896
 4451TIP3    H134988   3.962   5.066   2.199  0.2050  2.0227 -1.1974
 4451TIP3    H234989   3.886   5.096   2.072 -1.8986 -0.9011 -0.7408
 4452TIP3   OH234990   6.505   6.630   7.933  0.4545  0.1821 -0.4080
 4452TIP3    H134991   6.555   6.565   7.884  0.1634 -0.8178  0.5715
 4452TIP3    H234992   6.532   6.618   8.024  0.1720  1.2440 -0.1657
 4453TIP3   OH234993   2.503   4.379   8.241  0.0826  0.0752 -0.3049
 4453TIP3    H134994   2.456   4.391   8.158  0.3799  0.9231 -0.3590
 4453TIP3    H234995   2.529   4.287   8.241  1.6264  0.4639 -1.9868
 4454TIP3   OH234996   1.002   1.644   6.639 -0.1469 -0.2319 -0.3345
 4454TIP3    H134997   1.008   1.583   6.713  1.4399 -0.7075 -0.7923
 4454TIP3    H234998   1.084   1.630   6.591 -0.5370  1.0389 -1.4262
 4455TIP3   OH234999   2.928   3.207   1.271 -0.0301 -0.6264  0.1892
 4455TIP3    H135000   2.838   3.236   1.285 -0.5296 -0.7160 -2.3120
 4455TIP3    H235001   2.980   3.287   1.267 -0.5530 -0.3350 -1.4718
 4456TIP3   OH235002   6.290   6.520   7.563  0.9404  0.1726  0.9988
 4456TIP3    H135003   6.380   6.497   7.538  1.0250  0.2352  1.2514
 4456TIP3    H235004   6.263   6.583   7.496 -1.2310 -4.4761 -3.1024
 4457TIP3   OH235005   5.063   1.365   7.525  0.2375 -0.1334 -0.3802
 4457TIP3    H135006   4.980   1.318   7.527  1.1667 -1.9990 -2.0841
 4457TIP3    H235007   5.084   1.373   7.432  0.8467  2.4720 -0.0986
 4458TIP3   OH235008   1.797   0.690   2.995  0.1477 -0.1290  0.2736
 4458TIP3    H135009   1.807   0.616   2.936 -2.4678 -0.7643  0.5232
 4458TIP3    H235010   1.877   0.690   3.047  1.8214 -0.5280 -2.1201
 4459TIP3   OH235011   5.805   0.453   1.223  0.4282  0.0962  0.1099
 4459TIP3    H135012   5.862   0.530   1.221 -0.3543  0.7290  1.2700
 4459TIP3    H235013   5.719   0.487   1.246  0.2826 -1.2413  1.6963
 4460TIP3   OH235014   5.090   0.964   0.661 -0.1708  0.6959  1.1208
 4460TIP3    H135015   5.035   1.039   0.684  1.3343  1.9347  0.9005
 4460TIP3    H235016   5.170   1.004   0.627  0.6950 -1.0368  1.0473
 4461TIP3   OH235017   3.328   5.149   2.724 -0.0927  0.1585  0.0609
 4461TIP3    H135018   3.287   5.179   2.804  0.1200 -0.2817  0.3405
 4461TIP3    H235019   3.398   5.090   2.753  0.2211  0.2720 -0.4303
 4462TIP3   OH235020   0.565   1.499   0.216 -0.4427  0.0104 -0.6527
 4462TIP3    H135021   0.474   1.509   0.186 -0.5643 -0.0177 -0.3009
 4462TIP3    H235022   0.618   1.530   0.143 -0.7602  1.0856 -0.4418
 4463TIP3   OH235023   0.872   6.135   7.193  0.2744 -0.4314  0.2595
 4463TIP3    H135024   0.813   6.064   7.169 -1.7421  1.0056  0.7431
 4463TIP3    H235025   0.834   6.173   7.272  0.7341  1.7595 -0.4918
 4464TIP3   OH235026   1.937   0.442   0.705 -0.7394  0.2441 -0.0091
 4464TIP3    H135027   1.865   0.478   0.653  0.5470  1.0992 -1.2738
 4464TIP3    H235028   2.016   0.471   0.660  0.4340  0.0569  1.8131
 4465TIP3   OH235029   6.534   1.382   0.203  0.6355 -0.2135 -0.1746
 4465TIP3    H135030   6.514   1.398   0.295  0.3671  3.4888 -0.7311
 4465TIP3    H235031   6.450   1.385   0.159  1.0114  1.2752 -0.8607
 4466TIP3   OH235032   3.629   2.459   8.407 -0.3158  0.3594 -0.3106
 4466TIP3    H135033   3.550   2.431   8.453  0.2055 -0.0312  0.3699
 4466TIP3    H235034   3.632   2.404   8.328  1.0976 -2.1658  1.3775
 4467TIP3   OH235035   0.917   5.682   2.349 -0.3592 -0.2656  0.2996
 4467TIP3    H135036   0.870   5.757   2.313  0.7592  0.7879  0.9310
 4467TIP3    H235037   0.870   5.606   2.317  0.0973  0.5956 -2.7134
 4468TIP3   OH235038   2.868   0.263   1.640 -0.0890 -0.4019  0.4091
 4468TIP3    H135039   2.841   0.323   1.710 -0.3126  0.3062 -0.2697
 4468TIP3    H235040   2.948   0.221   1.674  1.1147  1.5881  0.2046
 4469TIP3   OH235041   4.016   0.959   1.127 -0.4092  0.2069 -0.1119
 4469TIP3    H135042   4.048   0.913   1.204 -0.4344 -2.5188 -1.6260
 4469TIP3    H235043   3.922   0.969   1.142 -0.4756 -0.6486  0.0579
 4470TIP3   OH235044   4.655   2.212   1.053  0.5807 -0.2945 -0.1273
 4470TIP3    H135045   4.703   2.173   0.980  0.0571 -1.8697  0.3329
 4470TIP3    H235046   4.572   2.166   1.054  0.2008  0.3781  0.8937
 4471TIP3   OH235047   2.595   0.284   1.940  0.1259 -0.3085 -0.0672
 4471TIP3    H135048   2.602   0.210   1.879 -0.0879 -0.3825 -0.0025
 4471TIP3    H235049   2.521   0.335   1.906  0.8886  0.4114 -0.6905
 4472TIP3   OH235050   3.939   1.296   1.262 -0.6859  0.1741  0.0384
 4472TIP3    H135051   3.935   1.308   1.167 -0.6840  0.6424  0.0953
 4472TIP3    H235052   3.853   1.260   1.285 -0.7946  0.3368 -0.1067
 4473TIP3   OH235053   2.402   4.566   2.315 -0.1923 -0.1417 -0.0989
 4473TIP3    H135054   2.446   4.648   2.340  0.9531 -1.0022  0.8175
 4473TIP3    H235055   2.441   4.543   2.230 -2.1093  1.3612 -1.4673
 4474TIP3   OH235056   4.017   5.122   6.942 -0.1630  0.1657 -0.3647
 4474TIP3    H135057   3.938   5.123   6.997 -1.4766  0.3685 -2.1570
 4474TIP3    H235058   4.089   5.135   7.003 -1.4809 -0.3276  1.3842
 4475TIP3   OH235059   0.890   5.293   0.898  0.6779 -0.1829 -0.2038
 4475TIP3    H135060   0.964   5.237   0.873  0.6358  0.3617 -1.6169
 4475TIP3    H235061   0.861   5.257   0.982  0.1461 -2.7875 -1.4144
 4476TIP3   OH235062   4.380   1.919   8.455  0.3422 -0.1632  0.2692
 4476TIP3    H135063   4.422   1.834   8.445  0.1346 -0.2778  0.3627
 4476TIP3    H235064   4.389   1.941   8.547 -2.7280 -1.7593  1.1020
 4477TIP3   OH235065   3.754   1.988   7.748  0.1199 -0.0897  0.4408
 4477TIP3    H135066   3.782   1.978   7.657  1.9108  2.3523  0.6008
 4477TIP3    H235067   3.674   2.041   7.742  0.7129  0.8166  0.2755
 4478TIP3   OH235068   5.751   6.151   1.373 -0.1030  0.2034 -0.2345
 4478TIP3    H135069   5.787   6.070   1.335 -0.9888 -0.4362  0.2569
 4478TIP3    H235070   5.658   6.149   1.349 -0.8179 -0.4710  2.2985
 4479TIP3   OH235071   4.691   0.347   1.084 -0.3468  0.0020  0.2976
 4479TIP3    H135072   4.604   0.385   1.092 -1.3080 -2.3570  2.3164
 4479TIP3    H235073   4.676   0.257   1.055  1.2068 -1.0224  2.3885
 4480TIP3   OH235074   5.657   6.222   6.945 -0.1417  0.1776 -0.0118
 4480TIP3    H135075   5.567   6.195   6.965 -0.9715  1.4765 -1.7025
 4480TIP3    H235076   5.654   6.317   6.945  1.5159  0.2659  0.8888
 4481TIP3   OH235077   1.352   6.757   8.029  0.0693  0.1002  0.1619
 4481TIP3    H135078   1.404   6.831   8.060 -0.0092 -0.4720  1.7411
 4481TIP3    H235079   1.269   6.765   8.077 -0.5749 -0.0811 -0.8974
 4482TIP3   OH235080   2.545   6.940   7.311 -0.4352  0.9508 -0.2016
 4482TIP3    H135081   2.487   6.864   7.314  0.5291  0.1568 -0.9441
 4482TIP3    H235082   2.529   6.980   7.226 -0.3619  1.1151 -0.1403
 4483TIP3   OH235083   5.418   5.311   1.059 -0.2021 -0.7478  0.1849
 4483TIP3    H135084   5.460   5.391   1.028  0.2675 -1.1080 -0.1239
 4483TIP3    H235085   5.376   5.336   1.141  1.4746 -0.5996  1.0457
 4484TIP3   OH235086   2.662   2.303   0.164  0.1704 -0.6386  0.7155
 4484TIP3    H135087   2.569   2.326   0.156  0.2780 -0.1563  0.7870
 4484TIP3    H235088   2.707   2.364   0.106  0.4258 -1.0096  0.5209
 4485TIP3   OH235089   5.839   5.781   7.509 -0.4449  0.3224  0.4903
 4485TIP3    H135090   5.930   5.774   7.537 -0.0209  0.5823 -0.7862
 4485TIP3    H235091   5.841   5.763   7.415 -1.8011 -0.3024  0.5575
 4486TIP3   OH235092   2.553   1.542   8.421  0.2454 -0.0387  0.1686
 4486TIP3    H135093   2.534   1.473   8.485 -1.5127  0.3864  0.1433
 4486TIP3    H235094   2.480   1.603   8.429  1.2174  1.2578 -0.5918
 4487TIP3   OH235095   2.032   4.165   0.680 -0.4793 -0.1843  0.4408
 4487TIP3    H135096   1.994   4.194   0.763 -0.4325 -1.4636  0.9207
 4487TIP3    H235097   1.997   4.226   0.615 -0.1278  1.1427  1.4553
 4488TIP3   OH235098   5.171   5.305   0.414 -0.5507  0.3956  0.3693
 4488TIP3    H135099   5.211   5.226   0.449 -0.5459  0.3702  0.3060
 4488TIP3    H235100   5.191   5.303   0.321 -0.7808  0.3317  0.3192
 4489TIP3   OH235101   1.016   0.290   0.709  0.1729  0.1025  0.2745
 4489TIP3    H135102   1.035   0.294   0.802  0.6063  3.7964  0.1870
 4489TIP3    H235103   1.096   0.254   0.670 -0.4767 -2.7210  1.2864
 4490TIP3   OH235104   1.007   4.453   7.471 -0.3817  0.7370  0.3962
 4490TIP3    H135105   1.033   4.506   7.545  1.2582 -0.5185  0.7937
 4490TIP3    H235106   1.083   4.456   7.411 -1.4339  1.2518 -0.9695
 4491TIP3   OH235107   2.811   0.979   7.259  0.3823  0.2196 -0.1293
 4491TIP3    H135108   2.844   1.050   7.314 -1.6212  0.2361  1.1790
 4491TIP3    H235109   2.722   0.963   7.292  0.3783 -2.1636 -1.0983
 4492TIP3   OH235110   4.950   6.788   6.739 -0.3814  0.0101  0.1770
 4492TIP3    H135111   4.898   6.867   6.723  2.0301  1.5083 -0.9541
 4492TIP3    H235112   4.892   6.716   6.717 -1.2137  1.6193 -3.9161
 4493TIP3   OH235113   5.902   0.939   2.455  0.0631  0.1327  0.2372
 4493TIP3    H135114   5.976   0.898   2.409  0.3673 -0.6755  1.3803
 4493TIP3    H235115   5.935   1.026   2.479 -0.5730  1.1268 -2.1781
 4494TIP3   OH235116   1.612   0.730   7.836 -0.3942 -0.0266  0.9594
 4494TIP3    H135117   1.661   0.812   7.836  2.0481 -1.3512  2.4714
 4494TIP3    H235118   1.622   0.697   7.926 -0.4099 -2.4496  0.1325
 4495TIP3   OH235119   4.475   4.723   6.521  0.0862 -0.0982  0.7899
 4495TIP3    H135120   4.474   4.688   6.432  0.8735  0.4039  0.5752
 4495TIP3    H235121   4.404   4.677   6.565 -1.3285  0.7666 -0.5141
 4496TIP3   OH235122   4.934   3.669   7.040  0.4804 -0.1997 -0.6161
 4496TIP3    H135123   4.944   3.731   6.967 -1.3899  0.6846 -0.1915
 4496TIP3    H235124   4.865   3.610   7.011 -1.7725  1.3950  1.1469
 4497TIP3   OH235125   3.035   5.945   7.224  0.1746  0.5364 -0.7084
 4497TIP3    H135126   2.959   5.998   7.245  0.1685 -0.1940  1.3428
 4497TIP3    H235127   3.072   5.921   7.309 -0.5738 -3.7828 -1.3586
 4498TIP3   OH235128   3.584   4.583   0.914  0.3726  0.2863 -0.0835
 4498TIP3    H135129   3.646   4.568   0.986 -1.7116  0.7875  1.9464
 4498TIP3    H235130   3.526   4.652   0.947 -1.9764 -0.9515 -1.3779
 4499TIP3   OH235131   6.000   0.395   3.251 -0.6114  0.2425  0.4271
 4499TIP3    H135132   6.031   0.307   3.230  0.4239  0.6023  0.3883
 4499TIP3    H235133   6.075   0.438   3.291 -1.1825  1.0328  0.6684
 4500TIP3   OH235134   6.894   1.013   7.416 -0.0351  0.5192  0.1240
 4500TIP3    H135135   6.951   1.062   7.475  1.9188 -3.1736  1.6598
 4500TIP3    H235136   6.952   0.988   7.343 -0.8145  0.1841 -0.3902
 4501TIP3   OH235137   3.393   3.066   7.413 -0.1815 -0.1273 -0.0638
 4501TIP3    H135138   3.391   2.985   7.465 -1.7464 -0.6937 -0.9290
 4501TIP3    H235139   3.478   3.066   7.371  2.3436  1.6452  4.3512
 4502TIP3   OH235140   0.062   0.784   7.917 -0.6408  0.4496 -0.4599
 4502TIP3    H135141   0.121   0.736   7.859  0.6175  2.5820 -1.0327
 4502TIP3    H235142   0.070   0.739   8.002 -0.8020 -1.3320 -1.3412
 4503TIP3   OH235143   6.504   3.303   1.463 -0.0492  0.1349  0.0117
 4503TIP3    H135144   6.599   3.306   1.459 -0.0841  0.3282 -0.8711
 4503TIP3    H235145   6.484   3.264   1.549  0.8270 -0.9133 -0.2481
 4504TIP3   OH235146   0.341   0.167   2.818 -0.6265 -0.8864 -0.5461
 4504TIP3    H135147   0.348   0.129   2.730 -0.0415  0.6416 -1.1968
 4504TIP3    H235148   0.423   0.145   2.860 -0.3583 -0.5047 -0.8616
 4505TIP3   OH235149   5.446   1.173   1.836 -0.2050  0.0603 -0.1819
 4505TIP3    H135150   5.493   1.113   1.777  0.5590  0.2537  0.2049
 4505TIP3    H235151   5.516   1.215   1.887 -0.6160  2.2395 -1.3187
 4506TIP3   OH235152   6.079   6.153   0.338  0.3850 -0.5287  0.0943
 4506TIP3    H135153   6.123   6.129   0.257  0.1579 -2.1730  0.4376
 4506TIP3    H235154   5.998   6.195   0.310  1.1645  0.6396 -0.5165
 4507TIP3   OH235155   6.246   4.897   1.807  0.2390  0.4977  0.6796
 4507TIP3    H135156   6.219   4.833   1.741  2.1480 -0.2358  0.5374
 4507TIP3    H235157   6.259   4.979   1.757 -1.2218  0.7505  0.6871
 4508TIP3   OH235158   4.952   1.983   2.027 -0.1710  0.2420  0.2282
 4508TIP3    H135159   5.038   1.949   2.050 -0.1276  0.5893  0.5987
 4508TIP3    H235160   4.891   1.916   2.057  0.0354 -0.8245 -1.6049
 4509TIP3   OH235161   5.043   3.299   0.423  0.4040 -0.6864 -0.3843
 4509TIP3    H135162   5.027   3.324   0.514  1.4219 -0.1034 -0.3519
 4509TIP3    H235163   5.100   3.368   0.389  0.0496 -0.9147 -1.4581
 4510TIP3   OH235164   0.233   3.062   0.794  0.1248  0.1414  0.1065
 4510TIP3    H135165   0.316   3.014   0.799 -0.4708 -0.9862 -0.4503
 4510TIP3    H235166   0.250   3.134   0.733  0.3686 -0.8048 -0.9684
 4511TIP3   OH235167   3.495   2.095   0.092 -0.0435 -0.1425  0.1699
 4511TIP3    H135168   3.560   2.119   0.026 -0.7301 -2.2070 -1.3528
 4511TIP3    H235169   3.546   2.070   0.168  0.9028 -0.4889 -0.5630
 4512TIP3   OH235170   6.256   4.978   7.450  0.0270 -0.4719  0.8047
 4512TIP3    H135171   6.331   4.964   7.392 -0.2739 -1.3502  0.6154
 4512TIP3    H235172   6.232   5.069   7.437  0.3446 -0.4993  0.0060
 4513TIP3   OH235173   4.984   5.183   7.429 -0.0245  0.1853  0.6556
 4513TIP3    H135174   5.021   5.182   7.517  1.1680 -0.3400  0.1700
 4513TIP3    H235175   5.057   5.210   7.373 -0.6131 -0.0607 -0.2376
 4514TIP3   OH235176   6.580   0.315   7.142 -0.0467  0.2893  0.2350
 4514TIP3    H135177   6.521   0.242   7.120 -0.1397 -0.4158  2.5280
 4514TIP3    H235178   6.530   0.367   7.206  0.6467  1.4869 -0.1632
 4515TIP3   OH235179   3.737   0.186   1.318  0.0914  0.1816  0.0226
 4515TIP3    H135180   3.822   0.219   1.289  0.3831 -1.2671 -0.8914
 4515TIP3    H235181   3.686   0.179   1.238  0.3981 -2.4558 -0.0452
 4516TIP3   OH235182   4.428   4.268   7.918 -0.0971 -0.5319 -0.0184
 4516TIP3    H135183   4.443   4.269   8.013 -1.8893  1.0305  0.3068
 4516TIP3    H235184   4.499   4.320   7.881  0.8365 -1.4791  0.4033
 4517TIP3   OH235185   4.170   6.448   3.104 -0.1385  0.3160  0.0105
 4517TIP3    H135186   4.150   6.524   3.157 -1.7253 -0.1181  0.0830
 4517TIP3    H235187   4.088   6.399   3.099  0.5593 -0.8364 -0.9276
 4518TIP3   OH235188   4.567   4.319   6.756  0.3080 -0.1785 -0.0623
 4518TIP3    H135189   4.557   4.398   6.703 -1.0754 -1.2738 -1.5402
 4518TIP3    H235190   4.655   4.287   6.735 -0.0822 -0.3928 -1.4264
 4519TIP3   OH235191   5.058   1.419   1.464 -0.4853 -0.1603  0.0609
 4519TIP3    H135192   5.068   1.324   1.465 -0.6633 -0.1741  0.4911
 4519TIP3    H235193   5.002   1.439   1.538 -0.4123  0.2862  0.0015
 4520TIP3   OH235194   3.473   5.676   2.938 -0.1246  0.3627 -0.0977
 4520TIP3    H135195   3.489   5.581   2.937  0.9191  0.5323 -1.5437
 4520TIP3    H235196   3.559   5.716   2.929 -0.6952  1.4147 -1.2224
 4521TIP3   OH235197   5.409   5.783   0.009  0.5108  0.1480  0.2181
 4521TIP3    H135198   5.436   5.793  -0.082  0.3655 -0.7377  0.0699
 4521TIP3    H235199   5.482   5.818   0.060 -0.0712  2.1800 -0.2399
 4522TIP3   OH235200   6.520   2.290   7.713 -0.5578 -0.1733  0.5380
 4522TIP3    H135201   6.611   2.301   7.684 -0.3786 -1.4527  0.5782
 4522TIP3    H235202   6.479   2.375   7.694  0.7746  0.6142  1.0550
 4523TIP3   OH235203   4.592   2.431   2.263 -0.6336 -0.2149 -0.5403
 4523TIP3    H135204   4.564   2.365   2.327 -0.4983  1.6662  1.5471
 4523TIP3    H235205   4.631   2.501   2.315  0.2618  1.0484 -2.7658
 4524TIP3   OH235206   2.282   3.152   0.495 -0.7155 -0.3422  0.1191
 4524TIP3    H135207   2.316   3.065   0.473 -1.4069 -0.4819 -0.4159
 4524TIP3    H235208   2.187   3.142   0.494 -0.8516  0.8231 -1.6679
 4525TIP3   OH235209   3.462   5.425   6.332 -0.2343 -0.4237  0.3854
 4525TIP3    H135210   3.403   5.492   6.296  1.3995  0.5344 -0.6428
 4525TIP3    H235211   3.527   5.475   6.382  0.5915 -1.3090  0.2201
 4526TIP3   OH235212   6.100   1.579   8.382  0.2787  0.2098 -0.1169
 4526TIP3    H135213   6.186   1.593   8.424 -1.0059 -0.8623  3.2216
 4526TIP3    H235214   6.089   1.484   8.382 -0.8921  0.3354 -0.5648
 4527TIP3   OH235215   4.428   5.384   1.504  0.3606  0.8653 -0.2477
 4527TIP3    H135216   4.494   5.380   1.435 -0.3520 -1.9814 -0.9010
 4527TIP3    H235217   4.359   5.439   1.469 -0.6301 -1.6198 -2.5534
 4528TIP3   OH235218   5.508   2.344   1.881  0.2528  0.2898  0.2283
 4528TIP3    H135219   5.508   2.399   1.802 -0.2174  2.5634  1.7158
 4528TIP3    H235220   5.600   2.341   1.908  0.2918  0.2826  0.0967
 4529TIP3   OH235221   1.207   4.328   7.882 -0.6147 -0.4771  0.3914
 4529TIP3    H135222   1.300   4.310   7.897 -0.8886 -0.9420  1.7021
 4529TIP3    H235223   1.175   4.253   7.833 -0.4168 -0.5943  0.4408
 4530TIP3   OH235224   5.112   5.995   1.719  0.0626 -0.3597 -0.1428
 4530TIP3    H135225   5.018   5.988   1.738 -0.3821 -0.6545 -2.1634
 4530TIP3    H235226   5.133   6.086   1.737 -0.3282 -0.5519  1.4124
 4531TIP3   OH235227   2.485   6.966   0.441  0.0642 -0.4712 -0.2623
 4531TIP3    H135228   2.541   6.901   0.397  3.8246  1.2521  1.5590
 4531TIP3    H235229   2.543   7.040   0.459 -2.9931  1.7438  1.4516
 4532TIP3   OH235230   2.900   1.214   1.161  0.0689 -0.0664 -0.1238
 4532TIP3    H135231   2.877   1.224   1.253 -1.2421  0.5988 -0.4998
 4532TIP3    H235232   2.818   1.226   1.113  0.1424 -3.2062 -1.2811
 4533TIP3   OH235233   1.987   3.531   0.875 -0.1274 -0.0836  0.1039
 4533TIP3    H135234   1.919   3.472   0.841 -1.5364 -0.0650  2.6310
 4533TIP3    H235235   1.963   3.617   0.839 -0.7716 -0.2716  0.0666
 4534TIP3   OH235236   6.617   0.067   7.455  0.2697  0.8012 -0.4283
 4534TIP3    H135237   6.647   0.146   7.409 -2.9354  1.7532 -1.1076
 4534TIP3    H235238   6.534   0.046   7.414  0.5502 -2.4276  0.4185
 4535TIP3   OH235239   0.433   4.587   6.533  0.3802 -0.2152 -0.5453
 4535TIP3    H135240   0.445   4.587   6.438  4.8726 -3.2662 -0.3028
 4535TIP3    H235241   0.507   4.637   6.567  0.3878 -1.4031  1.3526
 4536TIP3   OH235242   1.535   5.214   0.052 -0.3566 -0.3887 -0.1180
 4536TIP3    H135243   1.629   5.230   0.062 -0.2234 -0.4297 -1.2156
 4536TIP3    H235244   1.529   5.148  -0.016 -1.1944 -0.2070 -0.2310
 4537TIP3   OH235245   0.561   6.045   2.202 -0.1138  0.3851 -0.1253
 4537TIP3    H135246   0.562   6.004   2.289 -2.3693  1.0520  0.2719
 4537TIP3    H235247   0.494   6.112   2.208 -0.2548  0.5080 -2.3791
 4538TIP3   OH235248   6.415   2.381   7.393 -0.0221 -0.1234 -0.3177
 4538TIP3    H135249   6.456   2.383   7.480  1.5746 -1.3633 -0.9885
 4538TIP3    H235250   6.480   2.420   7.335 -0.8964  0.2907 -1.0500
 4539TIP3   OH235251   1.615   4.554   0.282 -0.3761  0.5491 -0.2390
 4539TIP3    H135252   1.691   4.559   0.341 -0.3004 -0.9389 -0.1518
 4539TIP3    H235253   1.654   4.541   0.195 -0.4646 -1.8976  0.0030
 4540TIP3   OH235254   4.096   0.775   1.302 -0.3429 -0.1120 -0.0481
 4540TIP3    H135255   4.185   0.740   1.293 -0.9835 -1.1866 -3.2895
 4540TIP3    H235256   4.051   0.713   1.359 -0.0735 -1.9194 -1.6966
 4541TIP3   OH235257   5.611   0.229   1.037 -0.1433 -0.4779  0.1795
 4541TIP3    H135258   5.605   0.321   1.010  3.3303 -0.4856 -1.1472
 4541TIP3    H235259   5.584   0.180   0.959 -0.0988 -0.5833  0.2308
 4542TIP3   OH235260   1.698   1.228   0.955  0.0856  0.3895 -0.6868
 4542TIP3    H135261   1.746   1.202   0.876  0.5079  0.9470 -0.6260
 4542TIP3    H235262   1.630   1.288   0.923 -0.6926 -0.5324 -0.7931
 4543TIP3   OH235263   4.360   0.717   2.457 -0.0520 -0.7412 -0.4476
 4543TIP3    H135264   4.345   0.810   2.469 -0.1614 -0.8667  0.4531
 4543TIP3    H235265   4.275   0.682   2.431  0.0953 -0.5266 -1.2471
 4544TIP3   OH235266   5.993   6.420   1.298  0.5959 -0.1809  0.2753
 4544TIP3    H135267   5.934   6.396   1.370 -0.2896  1.7317  0.2429
 4544TIP3    H235268   5.936   6.418   1.221  1.3779 -1.5134 -0.3045
 4545TIP3   OH235269   3.090   6.427   6.639 -0.1016  0.0195  0.1846
 4545TIP3    H135270   3.182   6.452   6.634 -0.7990  2.8706 -0.6987
 4545TIP3    H235271   3.062   6.420   6.547 -1.4177  2.3277  0.3276
 4546TIP3   OH235272   0.966   4.027   1.519  0.1345  0.1406 -0.4185
 4546TIP3    H135273   1.037   4.009   1.581  1.5114 -0.2332 -2.0508
 4546TIP3    H235274   0.903   4.079   1.570  1.5634  0.4927  1.0754
 4547TIP3   OH235275   0.700   4.433   1.629 -0.1013  0.1554 -0.3582
 4547TIP3    H135276   0.731   4.367   1.692 -0.5220  0.6591  0.3909
 4547TIP3    H235277   0.712   4.391   1.544 -1.2818 -1.3139  0.1336
 4548TIP3   OH235278   5.994   4.155   7.706  0.0880 -0.1947 -0.3587
 4548TIP3    H135279   5.950   4.071   7.699 -0.0169 -0.1126 -0.6944
 4548TIP3    H235280   6.062   4.152   7.639  0.1135 -0.0301 -0.3412
 4549TIP3   OH235281   4.341   6.367   7.368  0.2995 -0.1837  0.2059
 4549TIP3    H135282   4.330   6.356   7.462 -0.1923  0.2519  0.2011
 4549TIP3    H235283   4.270   6.317   7.329  0.0709  0.2247  0.0900
 4550TIP3   OH235284   3.606   0.881   7.897 -0.3739 -0.3461  0.4566
 4550TIP3    H135285   3.651   0.924   7.969 -3.6608  0.3350  2.2520
 4550TIP3    H235286   3.543   0.945   7.865 -0.1718 -1.2326 -1.9767
 4551TIP3   OH235287   1.617   1.387   1.638 -0.7078 -0.0004  0.6529
 4551TIP3    H135288   1.527   1.392   1.608 -0.0152  0.4988 -1.5055
 4551TIP3    H235289   1.667   1.363   1.560  1.3100  2.1423  1.1927
 4552TIP3   OH235290   3.362   6.926   2.094 -0.4901 -1.2545  0.7347
 4552TIP3    H135291   3.270   6.942   2.076 -0.4648  0.2798  1.8443
 4552TIP3    H235292   3.362   6.862   2.165 -0.8015  0.7647  2.6423
 4553TIP3   OH235293   6.297   1.021   8.435 -0.1199  0.3418 -0.5467
 4553TIP3    H135294   6.247   1.082   8.382 -1.0135 -0.7481 -1.0019
 4553TIP3    H235295   6.326   0.953   8.374 -0.9357 -0.7911  0.2600
 4554TIP3   OH235296   3.546   5.485   8.024  0.0267  0.2948 -0.4754
 4554TIP3    H135297   3.571   5.576   8.008 -1.1848  0.5521 -1.0161
 4554TIP3    H235298   3.490   5.462   7.950  0.1401 -0.8247 -0.2338
 4555TIP3   OH235299   4.925   0.242   1.233 -0.1691  0.9210 -0.1378
 4555TIP3    H135300   4.851   0.252   1.292 -0.8541  2.5513 -1.2134
 4555TIP3    H235301   4.959   0.331   1.222  0.0352  0.6488 -2.0475
 4556TIP3   OH235302   6.287   3.337   0.322  0.2873 -0.1149  0.1161
 4556TIP3    H135303   6.225   3.267   0.303  0.2886 -1.1596  3.4578
 4556TIP3    H235304   6.234   3.417   0.323 -0.6368 -0.7242  0.8667
 4557TIP3   OH235305   3.336   0.472   1.177 -0.1602  0.1280  0.1186
 4557TIP3    H135306   3.320   0.444   1.087 -0.2312 -1.7932  0.6927
 4557TIP3    H235307   3.370   0.561   1.168 -0.2626  0.0220 -1.7925
 4558TIP3   OH235308   3.038   4.431   7.495 -0.3746  0.7696 -1.0205
 4558TIP3    H135309   3.009   4.506   7.442  0.3424  1.7386 -0.0788
 4558TIP3    H235310   3.022   4.458   7.585 -1.0477 -0.6358 -0.6981
 4559TIP3   OH235311   3.817   5.514   0.342 -0.2228  0.2659  0.2670
 4559TIP3    H135312   3.904   5.530   0.305  0.0054  2.4510  1.5727
 4559TIP3    H235313   3.758   5.560   0.283 -0.3537 -0.1014  0.1111
 4560TIP3   OH235314   3.536   0.902   2.435  0.1097 -0.3735  0.6018
 4560TIP3    H135315   3.505   0.929   2.348 -0.1028  2.9128  1.5562
 4560TIP3    H235316   3.464   0.850   2.471 -0.9803  0.5319 -0.1909
 4561TIP3   OH235317   4.765   4.542   8.229  0.4635  0.3892 -0.2486
 4561TIP3    H135318   4.728   4.630   8.241 -0.5846  0.1467 -1.4647
 4561TIP3    H235319   4.697   4.494   8.182  1.4796 -0.7470 -0.5931
 4562TIP3   OH235320   3.281   0.858   6.955  0.3148  0.2614  0.0519
 4562TIP3    H135321   3.234   0.808   7.021 -1.5842  1.0844 -0.5945
 4562TIP3    H235322   3.301   0.794   6.886  1.6818 -0.4435  1.0645
 4563TIP3   OH235323   6.829   0.776   0.899  0.1982  0.0824 -0.2604
 4563TIP3    H135324   6.891   0.828   0.849  1.3210  0.1025  1.1028
 4563TIP3    H235325   6.816   0.697   0.846  1.1322  0.2252 -0.7141
 4564TIP3   OH235326   3.006   0.515   2.825 -0.0701  0.9082  0.1627
 4564TIP3    H135327   3.019   0.544   2.916 -1.0753  0.3958  0.4805
 4564TIP3    H235328   2.960   0.432   2.833  0.4973  0.4934 -0.8096
 4565TIP3   OH235329   4.465   3.779   0.813 -0.1429  0.7634  0.3957
 4565TIP3    H135330   4.498   3.691   0.831  1.6227  0.9589 -1.4486
 4565TIP3    H235331   4.417   3.770   0.730  3.2317  2.0318 -1.9358
 4566TIP3   OH235332   3.700   5.493   7.449 -0.3276 -0.5515  0.3466
 4566TIP3    H135333   3.650   5.572   7.427 -1.3657 -0.8867  1.4207
 4566TIP3    H235334   3.762   5.483   7.377 -0.0213  1.3685  0.2986
 4567TIP3   OH235335   2.020   0.151   7.840  0.0843 -0.3803 -0.4373
 4567TIP3    H135336   2.095   0.210   7.845 -0.9468  1.0145 -0.8483
 4567TIP3    H235337   1.978   0.172   7.757  0.6998 -3.0157 -1.5137
 4568TIP3   OH235338   1.087   2.134   6.906  0.3555 -0.5346  0.1735
 4568TIP3    H135339   1.145   2.078   6.856  1.6459  0.7016  0.2111
 4568TIP3    H235340   1.103   2.222   6.872 -3.1349 -0.3587 -1.3448
 4569TIP3   OH235341   6.065   2.594   2.120 -0.2440 -0.4689  0.1948
 4569TIP3    H135342   6.082   2.502   2.100 -1.9616 -0.5021 -1.3949
 4569TIP3    H235343   6.136   2.641   2.078 -0.8842 -0.9171 -1.4509
 4570TIP3   OH235344   0.420   1.179   8.480 -0.0736  0.0013  0.7395
 4570TIP3    H135345   0.473   1.199   8.558  0.5038  0.7183  0.1786
 4570TIP3    H235346   0.442   1.248   8.418  0.1522 -1.0434 -0.3896
 4571TIP3   OH235347   3.945   4.321   8.023 -0.0794  0.1908 -0.1460
 4571TIP3    H135348   4.020   4.342   7.967  1.0239  0.6985  1.4724
 4571TIP3    H235349   3.968   4.238   8.065  0.0538  0.8482  1.1295
 4572TIP3   OH235350   3.863   6.421   8.320 -0.0182  0.0522 -0.2704
 4572TIP3    H135351   3.836   6.329   8.315 -1.2881  0.3476  0.4848
 4572TIP3    H235352   3.888   6.444   8.231  0.8449 -1.1687 -0.3672
 4573TIP3   OH235353   3.145   4.823   7.069  0.0529 -0.8541 -0.2860
 4573TIP3    H135354   3.104   4.812   6.983  1.7083  0.3100 -1.2806
 4573TIP3    H235355   3.226   4.772   7.065  0.5679 -0.1129  0.2620
 4574TIP3   OH235356   5.450   1.151   7.469  0.8880 -0.2378 -0.3890
 4574TIP3    H135357   5.393   1.089   7.423 -0.9347  0.3888  0.9360
 4574TIP3    H235358   5.521   1.097   7.503  0.6765 -1.1795 -1.3850
 4575TIP3   OH235359   5.673   3.768   0.158 -0.1396 -0.3442  0.3041
 4575TIP3    H135360   5.704   3.785   0.246 -0.0297 -1.2069  0.4448
 4575TIP3    H235361   5.642   3.853   0.126  3.2444  0.8490 -0.2256
 4576TIP3   OH235362   5.221   1.935   2.768  0.3691  0.2239  0.1260
 4576TIP3    H135363   5.142   1.983   2.793 -0.0887 -0.8325  0.7724
 4576TIP3    H235364   5.259   1.987   2.698 -0.0511  1.5771  0.8738
 4577TIP3   OH235365   3.816   2.272   0.220  0.5201  0.9389  0.1564
 4577TIP3    H135366   3.869   2.308   0.291  0.2319  0.2548  0.7278
 4577TIP3    H235367   3.874   2.212   0.174 -0.1977 -1.2567  1.9058
 4578TIP3   OH235368   6.082   1.008   0.621  0.0989 -0.4735 -0.2677
 4578TIP3    H135369   6.174   1.033   0.632  0.0394  0.2143 -1.3077
 4578TIP3    H235370   6.062   0.957   0.700  0.5702  1.6722  1.3228
 4579TIP3   OH235371   1.111   5.176   1.205  0.3471 -0.0284  0.0378
 4579TIP3    H135372   1.134   5.091   1.243  1.5612  0.4582  0.4413
 4579TIP3    H235373   1.122   5.164   1.110 -1.7284 -0.9552 -0.1406
 4580TIP3   OH235374   0.201   4.186   8.026 -0.1580 -0.2294  0.4430
 4580TIP3    H135375   0.150   4.176   8.107 -0.5520 -0.9450  0.1172
 4580TIP3    H235376   0.205   4.281   8.013 -0.2146 -0.1094  1.2228
 4581TIP3   OH235377   2.769   3.460   0.322 -0.2655 -0.5548  0.4227
 4581TIP3    H135378   2.774   3.364   0.330  1.7861 -0.4702  0.6373
 4581TIP3    H235379   2.854   3.491   0.354 -0.1934  1.2222 -1.3404
 4582TIP3   OH235380   2.025   2.849   7.164  0.1795  0.0388 -0.5270
 4582TIP3    H135381   2.089   2.861   7.095 -1.2574  2.5352 -1.5789
 4582TIP3    H235382   2.059   2.900   7.238 -0.4091  1.1678 -1.0061
 4583TIP3   OH235383   3.197   0.689   7.161 -0.3469 -0.0097 -0.2202
 4583TIP3    H135384   3.116   0.740   7.168 -0.2072 -0.0166  3.8281
 4583TIP3    H235385   3.169   0.598   7.171  0.0962  0.0985  4.1042
 4584TIP3   OH235386   5.751   4.864   0.866  0.0619  0.0805 -0.2508
 4584TIP3    H135387   5.847   4.860   0.865  0.1705  1.6484  0.2499
 4584TIP3    H235388   5.730   4.910   0.948 -1.1670 -0.9890  0.0558
 4585TIP3   OH235389   0.413   5.413   0.419  0.0880 -0.8842  0.8067
 4585TIP3    H135390   0.478   5.361   0.465 -1.3209 -1.5305  2.1810
 4585TIP3    H235391   0.358   5.349   0.374 -0.5718 -0.4784  1.0182
 4586TIP3   OH235392   0.732   4.656   1.247  0.2567 -0.3613 -0.2186
 4586TIP3    H135393   0.666   4.589   1.262  0.5149 -0.6634 -0.4036
 4586TIP3    H235394   0.783   4.658   1.328 -0.3371  0.2874  0.1464
 4587TIP3   OH235395   3.755   1.471   0.701  0.2289  0.6032 -0.7737
 4587TIP3    H135396   3.849   1.469   0.720  0.0392 -1.4954  0.2151
 4587TIP3    H235397   3.722   1.547   0.748  1.4401  1.4377 -1.2350
 4588TIP3   OH235398   5.843   1.619   1.015  0.0862 -0.2152 -0.2880
 4588TIP3    H135399   5.860   1.571   1.096  0.4002 -0.2210 -0.3553
 4588TIP3    H235400   5.916   1.595   0.958 -1.0704 -1.6200 -1.2214
 4589TIP3   OH235401   0.941   6.514   2.210  0.0274 -0.0024 -0.0593
 4589TIP3    H135402   0.882   6.487   2.140 -0.9742 -1.7229  1.3671
 4589TIP3    H235403   0.893   6.584   2.255 -0.8254 -1.1437  0.8688
 4590TIP3   OH235404   2.591   1.962   1.353  0.0724 -0.0031 -0.2576
 4590TIP3    H135405   2.531   2.036   1.354 -1.4131 -1.1581  0.6685
 4590TIP3    H235406   2.659   1.986   1.417 -0.1752  0.7092 -0.2533
 4591TIP3   OH235407   5.013   0.230   8.325  0.3398  0.5172  0.0428
 4591TIP3    H135408   5.102   0.197   8.319  0.5090  0.8814  0.5196
 4591TIP3    H235409   4.981   0.199   8.410 -0.0458  0.2584 -0.1909
 4592TIP3   OH235410   6.444   4.938   7.016 -0.0607 -0.2261  0.1879
 4592TIP3    H135411   6.392   4.936   6.935  1.6237  0.8497 -0.9800
 4592TIP3    H235412   6.462   5.030   7.031 -0.5856 -0.3886  1.9966
 4593TIP3   OH235413   4.106   1.991   0.238 -0.1620  0.1458  0.8843
 4593TIP3    H135414   4.075   2.055   0.173  1.2321 -0.1375 -0.0998
 4593TIP3    H235415   4.035   1.926   0.242 -0.0262 -0.1748 -0.8712
 4594TIP3   OH235416   5.523   6.602   2.063 -0.5017  0.4296 -0.3253
 4594TIP3    H135417   5.611   6.569   2.047 -0.0869 -0.1054  2.4819
 4594TIP3    H235418   5.500   6.566   2.149 -2.9871  1.5416 -0.4542
 4595TIP3   OH235419   5.978   0.323   8.382  0.1876 -0.3848  0.0105
 4595TIP3    H135420   5.887   0.295   8.375 -0.0180 -0.0167  1.0511
 4595TIP3    H235421   5.991   0.382   8.307 -0.8538  0.6388  0.6012
 4596TIP3   OH235422   5.965   0.858   0.842  0.2012  0.2139  0.6021
 4596TIP3    H135423   5.907   0.896   0.776  0.2211  0.4111  0.6961
 4596TIP3    H235424   5.908   0.803   0.895  0.2710 -0.3221  0.1343
 4597TIP3   OH235425   3.458   5.623   1.410 -0.1035 -0.8812  0.1266
 4597TIP3    H135426   3.529   5.678   1.443  0.1266 -0.6624 -0.7111
 4597TIP3    H235427   3.420   5.673   1.338 -2.8256  0.2179  2.1557
 4598TIP3   OH235428   2.865   6.680   1.517 -0.0114  0.4883  0.8292
 4598TIP3    H135429   2.942   6.682   1.459  0.5596  0.2567  1.5610
 4598TIP3    H235430   2.816   6.759   1.495  0.4468  0.6444  0.3570
 4599TIP3   OH235431   2.985   3.891   0.992 -0.6462 -0.4025  0.1019
 4599TIP3    H135432   3.015   3.913   1.081  0.1550  1.1259 -0.5126
 4599TIP3    H235433   2.897   3.926   0.987 -0.6547 -0.3981  0.2599
 4600TIP3   OH235434   4.305   0.180   6.966 -0.1720 -0.3315 -0.1369
 4600TIP3    H135435   4.220   0.138   6.953 -0.4861  0.2281  0.0399
 4600TIP3    H235436   4.307   0.201   7.060 -0.4680  0.9497 -0.3910
 4601TIP3   OH235437   3.553   5.552   0.221 -0.6980  0.0470 -0.0353
 4601TIP3    H135438   3.475   5.603   0.196 -1.0019 -1.1645 -1.7734
 4601TIP3    H235439   3.526   5.461   0.211  0.3306 -0.4515  1.4194
 4602TIP3   OH235440   6.748   1.162   0.628  0.1842 -0.1082 -0.1446
 4602TIP3    H135441   6.672   1.219   0.633 -1.3342 -1.9869 -0.6619
 4602TIP3    H235442   6.761   1.146   0.535  0.9635 -0.1243 -0.0407
 4603TIP3   OH235443   0.554   2.639   0.792  0.5116 -0.2851 -0.3582
 4603TIP3    H135444   0.480   2.640   0.853  1.2341  0.1790  0.5211
 4603TIP3    H235445   0.515   2.612   0.709 -0.6810  0.0799  0.0550
 4604TIP3   OH235446   2.279   6.901   0.626 -0.6132 -0.4869  0.2268
 4604TIP3    H135447   2.302   6.858   0.709 -1.3831  0.0999  0.7545
 4604TIP3    H235448   2.363   6.923   0.586 -0.0978  2.6431  2.6458
 4605TIP3   OH235449   0.138   3.232   1.588  0.2874  0.3055  0.4338
 4605TIP3    H135450   0.062   3.271   1.632  0.1248 -2.2190  2.6554
 4605TIP3    H235451   0.208   3.297   1.601 -1.0432  1.9567 -0.2522
 4606TIP3   OH235452   5.000   4.895   0.890  0.3421  0.2757 -0.0791
 4606TIP3    H135453   5.047   4.944   0.958 -1.1401  0.9831  0.4882
 4606TIP3    H235454   4.922   4.948   0.872  0.1004 -0.5083 -1.4837
 4607TIP3   OH235455   5.323   3.514   1.321 -0.5900 -0.1799  0.3128
 4607TIP3    H135456   5.256   3.496   1.386 -1.6174  0.2196 -0.5959
 4607TIP3    H235457   5.302   3.602   1.288  2.3001  1.4283  2.2747
 4608TIP3   OH235458   2.482   2.645   0.828  0.3119 -0.4284 -0.2967
 4608TIP3    H135459   2.455   2.575   0.887  0.3244 -0.3234 -0.1656
 4608TIP3    H235460   2.484   2.723   0.883 -1.1285 -0.0398 -0.7615
 4609TIP3   OH235461   2.767   1.926   8.387 -0.2527 -0.6050 -0.9621
 4609TIP3    H135462   2.710   2.002   8.378  1.5490  1.2487  1.8458
 4609TIP3    H235463   2.839   1.941   8.326 -0.9742 -1.2365 -2.0075
 4610TIP3   OH235464   4.767   5.094   1.148 -0.4124  0.4788 -0.2391
 4610TIP3    H135465   4.715   5.105   1.228 -0.7355 -0.2578 -0.3401
 4610TIP3    H235466   4.853   5.131   1.170 -0.6945  0.8585  0.2374
 4611TIP3   OH235467   5.404   5.438   6.513  0.0182  0.1117  0.3777
 4611TIP3    H135468   5.417   5.374   6.444  0.5203  0.8497 -0.2326
 4611TIP3    H235469   5.485   5.434   6.565  0.0941  0.3099  0.2782
 4612TIP3   OH235470   0.071   5.885   1.013  0.3402 -0.2130 -0.4211
 4612TIP3    H135471   0.004   5.937   1.058  0.7113 -0.1523  0.0629
 4612TIP3    H235472   0.028   5.802   0.994  0.2418 -0.3096  0.2180
 4613TIP3   OH235473   5.037   0.692   0.665 -0.0822  0.5483  0.0939
 4613TIP3    H135474   5.043   0.672   0.759  0.1224 -1.7597 -0.3778
 4613TIP3    H235475   5.047   0.788   0.661  1.5854  0.5301  2.2709
 4614TIP3   OH235476   0.247   4.106   6.378  0.3324  0.3878  0.1045
 4614TIP3    H135477   0.228   4.052   6.456  0.0672  0.8545  0.3677
 4614TIP3    H235478   0.337   4.083   6.355  0.5141  0.4419  0.7169
 4615TIP3   OH235479   4.922   0.697   1.255  0.1650 -0.1517 -0.4720
 4615TIP3    H135480   4.847   0.754   1.239  0.2426  0.4942  1.2040
 4615TIP3    H235481   4.997   0.744   1.220  0.0951  0.3234  0.0086
 4616TIP3   OH235482   3.029   5.429   0.754 -0.1614 -0.0130 -0.0274
 4616TIP3    H135483   2.975   5.376   0.696  1.2984 -2.3197  0.6065
 4616TIP3    H235484   3.001   5.403   0.842 -1.5515  2.6016  0.4130
 4617TIP3   OH235485   1.355   4.769   1.409  0.2266  0.1131  0.4506
 4617TIP3    H135486   1.446   4.767   1.440  0.2670 -1.9799  0.3188
 4617TIP3    H235487   1.330   4.677   1.403 -1.5315  0.6257 -0.6420
 4618TIP3   OH235488   3.944   1.764   0.280 -0.0701  0.0832 -0.0994
 4618TIP3    H135489   3.879   1.731   0.217 -1.0718  2.4448 -0.4039
 4618TIP3    H235490   3.893   1.813   0.344  1.4255  3.1750 -1.0841
 4619TIP3   OH235491   6.654   6.869   2.754  0.3659 -0.1594 -0.2169
 4619TIP3    H135492   6.673   6.930   2.683  1.0812  0.0739  0.1691
 4619TIP3    H235493   6.601   6.801   2.713  0.8563 -0.0834 -1.0005
 4620TIP3   OH235494   5.403   1.232   2.644 -0.4003 -0.3234  0.1019
 4620TIP3    H135495   5.375   1.189   2.725 -0.6428 -0.5782 -0.1160
 4620TIP3    H235496   5.327   1.227   2.586 -0.1106 -0.4756 -0.2757
 4621TIP3   OH235497   3.805   2.973   2.146 -0.0043  0.2831 -0.3495
 4621TIP3    H135498   3.884   2.950   2.097  1.2894  0.5583  1.5067
 4621TIP3    H235499   3.837   3.025   2.220 -1.8566 -0.2428  0.8782
 4622TIP3   OH235500   6.116   0.173   7.813  0.2673  0.3144 -0.0592
 4622TIP3    H135501   6.186   0.117   7.847  0.1610 -0.5645 -1.2114
 4622TIP3    H235502   6.151   0.208   7.731 -0.0785  1.1015  0.1202
 4623TIP3   OH235503   0.419   6.534   2.817 -0.3558 -0.1223 -0.2794
 4623TIP3    H135504   0.485   6.575   2.761 -0.0143 -0.8230 -0.3994
 4623TIP3    H235505   0.406   6.447   2.779 -1.8692  0.2520 -0.6804
 4624TIP3   OH235506   6.316   0.042   0.645  0.4407 -0.7859  0.2388
 4624TIP3    H135507   6.308  -0.001   0.730  1.5196 -0.3463  0.5727
 4624TIP3    H235508   6.310   0.135   0.664  0.5945 -0.6852 -0.1836
 4625TIP3   OH235509   1.154   6.403   2.330  0.0507 -0.1266  0.0208
 4625TIP3    H135510   1.077   6.448   2.296  1.0534  0.8447 -1.0425
 4625TIP3    H235511   1.170   6.331   2.269 -1.2152 -1.6653  1.4078
 4626TIP3   OH235512   2.297   6.129   7.996  0.0047 -0.3187 -0.3115
 4626TIP3    H135513   2.344   6.148   8.077  0.8380 -1.5519 -0.4821
 4626TIP3    H235514   2.320   6.201   7.937  0.4425 -0.1093  0.1114
 4627TIP3   OH235515   4.796   5.305   1.923 -0.4540  0.0661 -1.1257
 4627TIP3    H135516   4.805   5.269   1.835 -0.8529 -0.6206 -0.8931
 4627TIP3    H235517   4.702   5.317   1.935 -0.4433 -0.3122 -0.6157
 4628TIP3   OH235518   5.680   3.323   8.368  0.0643  0.5071  0.3045
 4628TIP3    H135519   5.681   3.247   8.311  1.5377  0.1278  0.7919
 4628TIP3    H235520   5.732   3.297   8.444  0.1837  1.8273  0.7073
 4629TIP3   OH235521   0.109   5.381   6.633 -0.0617  0.0949 -0.1030
 4629TIP3    H135522   0.202   5.358   6.629 -0.2609 -0.9065  0.6774
 4629TIP3    H235523   0.077   5.337   6.711 -1.3038  0.0300 -0.6303
 4630TIP3   OH235524   3.832   5.068   7.136 -0.7097 -0.1487 -0.2239
 4630TIP3    H135525   3.881   5.076   7.218 -2.0542 -3.1009  0.9845
 4630TIP3    H235526   3.741   5.087   7.159 -0.9320  0.3198 -1.3673
 4631TIP3   OH235527   0.173   5.859   7.163  0.0550  0.1181  0.1639
 4631TIP3    H135528   0.178   5.924   7.234 -0.3028  1.0703 -0.6581
 4631TIP3    H235529   0.202   5.907   7.085 -2.4791  0.0383 -0.9384
 4632TIP3   OH235530   3.765   0.107   2.457  0.3777 -0.1057 -0.4123
 4632TIP3    H135531   3.834   0.131   2.518  0.3545  0.4000 -0.5846
 4632TIP3    H235532   3.732   0.023   2.491  0.4350  0.1152  0.2092
 4633TIP3   OH235533   5.343   4.965   7.278 -0.4097  0.1882 -0.4257
 4633TIP3    H135534   5.422   5.010   7.247 -0.2104  0.6651  0.7249
 4633TIP3    H235535   5.288   4.958   7.200  0.3454  0.7530 -1.0345
 4634TIP3   OH235536   3.630   5.744   8.007 -0.0026 -0.3022 -0.0497
 4634TIP3    H135537   3.706   5.775   7.958  0.4647  2.3378  2.1237
 4634TIP3    H235538   3.555   5.772   7.955  0.4892  0.7563 -0.2053
 4635TIP3   OH235539   0.359   6.909   8.072 -0.0523 -0.7294  0.2186
 4635TIP3    H135540   0.403   6.965   8.009 -0.3473  1.2414  1.6592
 4635TIP3    H235541   0.429   6.861   8.116  0.4945  0.6650  0.9121
 4636TIP3   OH235542   3.250   3.138   1.913 -0.5558  0.2814 -0.1363
 4636TIP3    H135543   3.329   3.140   1.859  0.1892 -1.2346  0.8270
 4636TIP3    H235544   3.276   3.181   1.995 -1.1996  1.1064 -0.3425
 4637TIP3   OH235545   6.399   0.029   7.302 -0.0803 -0.4427  0.2485
 4637TIP3    H135546   6.355   0.111   7.281  0.2636 -0.7457 -1.8202
 4637TIP3    H235547   6.385  -0.027   7.226  3.0647 -0.8621 -0.1636
 4638TIP3   OH235548   5.560   1.194   2.950 -0.0167 -0.1188  0.3936
 4638TIP3    H135549   5.545   1.106   2.916 -1.4317 -0.0465  0.7451
 4638TIP3    H235550   5.484   1.244   2.919  0.6769  0.9295  0.3521
 4639TIP3   OH235551   1.150   2.550   2.260  0.2999 -0.4600 -0.2616
 4639TIP3    H135552   1.171   2.460   2.284 -0.4487 -0.4379  0.4915
 4639TIP3    H235553   1.215   2.603   2.305 -0.0992 -0.5329  0.4061
 4640TIP3   OH235554   0.418   0.067   2.102 -0.6826 -0.5884  0.5572
 4640TIP3    H135555   0.469   0.015   2.164  1.5004  2.3763  1.4389
 4640TIP3    H235556   0.480   0.128   2.064 -3.0162  1.2360 -0.5948
 4641TIP3   OH235557   2.700   6.925   3.393  0.1212  0.1421  0.1867
 4641TIP3    H135558   2.642   6.935   3.317  0.0371 -1.0141  0.0874
 4641TIP3    H235559   2.777   6.880   3.359  0.0179 -0.5273  0.8162
 4642TIP3   OH235560   5.939   3.729   8.255  0.6294 -0.7580  0.8267
 4642TIP3    H135561   5.921   3.687   8.171 -0.6670  0.5781  0.3994
 4642TIP3    H235562   6.032   3.712   8.271  1.2750  0.1780 -1.5799
 4643TIP3   OH235563   2.501   6.292   1.059  0.1896  0.3978  0.1548
 4643TIP3    H135564   2.569   6.348   1.098 -0.0830  1.1674 -0.4367
 4643TIP3    H235565   2.428   6.298   1.120 -0.3875  1.9347 -0.6311
 4644TIP3   OH235566   6.938   5.619   7.246 -0.4993 -0.5883  0.0945
 4644TIP3    H135567   6.945   5.565   7.167 -0.7472 -0.1531 -0.2288
 4644TIP3    H235568   7.019   5.671   7.247 -1.5490  1.1892 -1.2180
 4645TIP3   OH235569   5.819   6.255   0.389  0.3259 -0.3092  0.0931
 4645TIP3    H135570   5.770   6.229   0.312  0.0586 -0.2858  0.2539
 4645TIP3    H235571   5.761   6.235   0.463  1.0693 -1.5354  0.3738
 4646TIP3   OH235572   5.208   0.198   2.985  0.3708  0.1821 -0.7629
 4646TIP3    H135573   5.135   0.251   2.952 -0.1361 -0.4021 -0.6114
 4646TIP3    H235574   5.278   0.261   3.002 -0.5782  0.9568  0.4271
 4647TIP3   OH235575   0.939   0.551   0.950  0.4674  0.2773  0.1663
 4647TIP3    H135576   0.991   0.482   0.992  1.5064  1.1472  0.3703
 4647TIP3    H235577   0.855   0.510   0.930  0.7590 -0.7982  1.0564
 4648TIP3   OH235578   5.169   5.639   1.324  0.5194 -0.1319 -0.5644
 4648TIP3    H135579   5.160   5.552   1.284 -1.3381 -0.0149 -0.4650
 4648TIP3    H235580   5.149   5.625   1.417  0.8447  0.3073 -0.4235
 4649TIP3   OH235581   2.444   4.258   1.818  0.2468  0.3440  0.1723
 4649TIP3    H135582   2.473   4.331   1.874 -0.2709 -0.5592  1.6652
 4649TIP3    H235583   2.468   4.286   1.729 -2.3014  3.5762  0.2925
 4650TIP3   OH235584   0.350   4.745   7.967  0.0415 -0.0914  0.3149
 4650TIP3    H135585   0.271   4.726   8.018 -0.2529  0.2168 -0.0157
 4650TIP3    H235586   0.347   4.840   7.953 -0.5349 -0.3203 -1.3065
 4651TIP3   OH235587   5.983   4.357   2.504 -0.5464  0.4813  0.5982
 4651TIP3    H135588   5.921   4.430   2.493  1.6834  2.4075  0.0093
 4651TIP3    H235589   5.997   4.324   2.415 -1.2088 -0.4210  0.8139
 4652TIP3   OH235590   4.745   4.078   6.479  0.1427  0.9592  0.5574
 4652TIP3    H135591   4.721   4.043   6.565  0.3079 -0.3986  0.0835
 4652TIP3    H235592   4.840   4.074   6.478  0.1187 -1.5555 -0.6093
 4653TIP3   OH235593   1.130   2.805   0.369 -0.2631 -0.2983 -0.8134
 4653TIP3    H135594   1.205   2.861   0.390  0.1386 -0.7317 -1.0732
 4653TIP3    H235595   1.128   2.739   0.438 -0.0268 -0.6574 -1.1474
 4654TIP3   OH235596   5.083   1.240   2.459 -0.4687  0.1303 -0.4798
 4654TIP3    H135597   5.059   1.170   2.399  1.1958 -0.4732 -0.4866
 4654TIP3    H235598   5.019   1.233   2.530 -0.4318 -1.3031 -0.5555
 4655TIP3   OH235599   0.671   6.369   0.229 -0.5159  0.0850  0.0827
 4655TIP3    H135600   0.592   6.419   0.207 -0.0389  0.9660  0.3017
 4655TIP3    H235601   0.666   6.357   0.324  0.6463  2.0300  0.4375
 4656TIP3   OH235602   1.406   6.949   1.556 -0.6205  0.0774 -0.0321
 4656TIP3    H135603   1.390   6.998   1.636 -0.7735 -0.2254  0.1240
 4656TIP3    H235604   1.353   6.994   1.490 -0.0233  0.6985 -0.1043
 4657TIP3   OH235605   3.962   1.996   2.895  0.1696 -0.6302 -0.2769
 4657TIP3    H135606   3.969   2.033   2.983 -0.1343 -2.1633  0.4217
 4657TIP3    H235607   4.050   2.004   2.858 -0.1412  1.8995 -0.6689
 4658TIP3   OH235608   1.345   0.700   0.522 -0.0726 -0.5138  0.2721
 4658TIP3    H135609   1.264   0.687   0.573 -0.6865  0.4748 -0.4143
 4658TIP3    H235610   1.374   0.788   0.545  0.5587 -0.6825  0.1444
 4659TIP3   OH235611   4.031   4.047   1.816 -0.3895  0.4163 -0.1529
 4659TIP3    H135612   4.114   4.021   1.776 -0.3175  0.1850  0.1426
 4659TIP3    H235613   4.048   4.046   1.910 -0.7201  0.3969 -0.0916
 4660TIP3   OH235614   6.764   1.548   6.803 -0.5308  0.0216 -0.9162
 4660TIP3    H135615   6.838   1.537   6.863 -0.6514 -1.0075 -0.9281
 4660TIP3    H235616   6.712   1.468   6.814 -0.7725 -0.0057 -2.0843
 4661TIP3   OH235617   1.231   1.514   7.352  0.5446 -0.2720  0.3901
 4661TIP3    H135618   1.160   1.464   7.311 -0.4968  0.2415  1.5261
 4661TIP3    H235619   1.297   1.522   7.283 -0.5965 -0.5421 -0.7754
 4662TIP3   OH235620   2.864   2.121   1.461  0.2652 -0.0554  0.2426
 4662TIP3    H135621   2.800   2.192   1.456 -0.5651 -0.7993  0.1177
 4662TIP3    H235622   2.881   2.112   1.555  1.2786  1.0772  0.1957
 4663TIP3   OH235623   0.826   2.010   0.674  0.1082 -0.1116  0.8644
 4663TIP3    H135624   0.758   2.054   0.724 -0.7161 -0.0324 -0.2864
 4663TIP3    H235625   0.885   1.973   0.740 -0.1686  1.1791  1.8537
 4664TIP3   OH235626   3.012   5.845   1.695  0.1003  0.1826 -0.2599
 4664TIP3    H135627   3.096   5.800   1.690  0.3348  0.6693 -0.9169
 4664TIP3    H235628   2.979   5.827   1.783  1.5028  1.0706  0.4700
 4665TIP3   OH235629   2.198   3.483   0.626 -0.4460  0.0138 -0.2004
 4665TIP3    H135630   2.116   3.434   0.629 -0.6289  0.3435  0.2577
 4665TIP3    H235631   2.250   3.448   0.699 -0.7765  0.8329  0.4543
 4666TIP3   OH235632   3.081   5.018   7.240 -0.5421  0.4774  0.2853
 4666TIP3    H135633   3.103   5.056   7.155 -3.7081  1.2679 -0.3016
 4666TIP3    H235634   3.105   4.926   7.232  0.7365  0.8832 -0.8463
 4667TIP3   OH235635   4.610   3.917   0.435 -0.0659 -0.2249  0.4306
 4667TIP3    H135636   4.592   4.001   0.478  1.8733  0.1172  0.6816
 4667TIP3    H235637   4.653   3.940   0.353  1.8271 -0.9481  1.1627
 4668TIP3   OH235638   6.292   4.282   7.079  0.0264 -0.5335 -0.6660
 4668TIP3    H135639   6.312   4.318   6.993 -1.0168  1.0899 -0.2695
 4668TIP3    H235640   6.367   4.304   7.133  0.4428 -1.0841 -1.0090
 4669TIP3   OH235641   6.606   2.072   7.449  0.3926 -0.1863  0.1078
 4669TIP3    H135642   6.649   2.036   7.371 -1.4813 -0.8946 -0.6833
 4669TIP3    H235643   6.512   2.058   7.432 -0.1985  1.8166  1.4397
 4670TIP3   OH235644   5.372   1.379   0.611  0.4719  0.1178 -0.0312
 4670TIP3    H135645   5.375   1.407   0.703  0.7441  3.2350 -0.8689
 4670TIP3    H235646   5.456   1.409   0.575  0.1904 -0.6836 -1.4089
 4671TIP3   OH235647   6.643   5.471   8.245  0.4282 -0.1534 -0.6776
 4671TIP3    H135648   6.688   5.399   8.199 -0.0840  0.2550 -1.8762
 4671TIP3    H235649   6.550   5.448   8.239  0.3190  0.1862 -0.3024
 4672TIP3   OH235650   5.958   6.243   8.070  0.1780 -0.6349 -0.1400
 4672TIP3    H135651   5.988   6.321   8.117  3.2177 -1.6745 -0.0957
 4672TIP3    H235652   5.984   6.259   7.979  0.0792 -1.2252 -0.2738
 4673TIP3   OH235653   1.855   0.299   7.686 -0.0388 -0.2739  0.1285
 4673TIP3    H135654   1.884   0.390   7.680 -0.4958 -0.1193  0.2366
 4673TIP3    H235655   1.775   0.302   7.739 -0.0119 -0.7490  0.2060
 4674TIP3   OH235656   0.773   6.785   1.172  0.0296  0.8175  0.4392
 4674TIP3    H135657   0.823   6.864   1.151  0.7396  0.3071  0.1661
 4674TIP3    H235658   0.829   6.713   1.144  0.7688  0.0833  3.5191
 4675TIP3   OH235659   2.887   1.888   0.424 -0.2064 -0.0515 -0.1738
 4675TIP3    H135660   2.844   1.808   0.394 -1.2413  0.6177 -0.5351
 4675TIP3    H235661   2.874   1.950   0.352  1.8083  0.0510 -0.5183
 4676TIP3   OH235662   4.336   0.100   0.117 -0.2877  0.1979  0.6316
 4676TIP3    H135663   4.407   0.161   0.098  0.2147  0.0705  2.0062
 4676TIP3    H235664   4.370   0.014   0.093  0.0408  0.1353  1.3026
 4677TIP3   OH235665   4.158   1.718   7.115 -0.0638 -0.2347 -0.0780
 4677TIP3    H135666   4.172   1.787   7.050  1.2798  0.6512  1.0986
 4677TIP3    H235667   4.198   1.641   7.076 -3.0713 -0.9184 -2.1716
 4678TIP3   OH235668   6.846   3.664   7.889  1.0969 -0.5660  0.2298
 4678TIP3    H135669   6.792   3.631   7.960  0.1770  1.1459  0.3945
 4678TIP3    H235670   6.803   3.746   7.863  0.3634 -1.9452 -3.4819
 4679TIP3   OH235671   5.375   0.438   3.029  0.0857  0.1005  0.1623
 4679TIP3    H135672   5.304   0.468   2.972 -1.5549 -2.5187  0.6431
 4679TIP3    H235673   5.455   0.455   2.979 -1.2203 -1.5414 -2.7650
 4680TIP3   OH235674   1.706   0.912   0.415  0.0517 -0.3062  0.0003
 4680TIP3    H135675   1.745   0.863   0.487 -0.3312 -2.7027 -1.2955
 4680TIP3    H235676   1.745   0.874   0.336 -0.7299  1.1023 -1.1134
 4681TIP3   OH235677   2.212   0.349   8.254  0.7230  0.3093  0.3179
 4681TIP3    H135678   2.188   0.263   8.289  0.8173 -0.0641 -0.5115
 4681TIP3    H235679   2.139   0.373   8.198  2.0166 -0.6670 -1.9279
 4682TIP3   OH235680   0.565   0.382   7.992  0.1621  0.1392  0.1765
 4682TIP3    H135681   0.653   0.348   7.975 -1.0043 -3.1755 -0.0934
 4682TIP3    H235682   0.563   0.399   8.086  0.8924 -0.4476  0.3042
 4683TIP3   OH235683   0.224   3.922   0.686 -0.5147  0.0165 -0.2300
 4683TIP3    H135684   0.164   3.851   0.707  0.1396 -0.5445 -0.2120
 4683TIP3    H235685   0.308   3.894   0.722  0.2480 -0.1799 -2.0546
 4684TIP3   OH235686   4.810   6.204   7.003 -0.2387  0.0217 -0.5327
 4684TIP3    H135687   4.755   6.261   6.950 -0.2502 -0.2698 -0.8441
 4684TIP3    H235688   4.870   6.163   6.940  0.2882  0.2834 -0.2070
 4685TIP3   OH235689   6.128   6.637   0.666 -0.1027  0.0813 -0.0211
 4685TIP3    H135690   6.209   6.666   0.623  1.2391 -0.5772  1.9283
 4685TIP3    H235691   6.158   6.582   0.738 -2.3727 -1.4856 -0.1810
 4686TIP3   OH235692   0.295   6.611   1.976  0.8455  0.1885 -0.8455
 4686TIP3    H135693   0.264   6.601   1.886 -1.9018  2.9274 -0.3597
 4686TIP3    H235694   0.390   6.605   1.969  0.7494  0.6299 -3.9871
 4687TIP3   OH235695   0.393   6.935   1.744  0.3309  0.0967 -0.0190
 4687TIP3    H135696   0.336   6.872   1.700 -0.5773  0.2778  0.8661
 4687TIP3    H235697   0.435   6.884   1.813  1.3585 -0.0620 -0.7353
 4688TIP3   OH235698   2.651   6.872   8.075  0.5293  0.1447 -0.2184
 4688TIP3    H135699   2.654   6.791   8.125 -0.3427 -0.2157 -0.7242
 4688TIP3    H235700   2.600   6.932   8.129  1.4563  0.4809  0.3085
 4689TIP3   OH235701   0.587   5.449   7.856  0.3348 -0.1725 -0.3053
 4689TIP3    H135702   0.662   5.446   7.798 -0.8993  2.3556 -2.2732
 4689TIP3    H235703   0.609   5.516   7.921 -0.3577  1.0196 -1.2489
 4690TIP3   OH235704   6.540   6.675   2.212  0.4900 -0.2243  0.2331
 4690TIP3    H135705   6.500   6.756   2.245  0.4024  0.2192 -0.9081
 4690TIP3    H235706   6.529   6.680   2.117  2.7897 -0.3435 -0.0853
 4691TIP3   OH235707   3.704   0.734   3.007 -0.0762 -0.3012  0.3921
 4691TIP3    H135708   3.796   0.736   3.032 -0.0367 -0.1778  0.2410
 4691TIP3    H235709   3.663   0.676   3.070  0.0815 -0.2509  0.5418
 4692TIP3   OH235710   2.017   3.738   8.366 -0.3377 -0.3988  0.2425
 4692TIP3    H135711   1.981   3.814   8.412 -0.3464 -0.4072  0.2504
 4692TIP3    H235712   1.952   3.669   8.381 -0.4775 -0.3262 -0.0106
 4693TIP3   OH235713   1.945   6.271   1.778 -0.4063  0.4077  0.3172
 4693TIP3    H135714   1.960   6.183   1.811 -0.8824 -1.1177 -3.0717
 4693TIP3    H235715   1.863   6.299   1.820  0.1993 -0.3454  2.0981
 4694TIP3   OH235716   2.593   1.973   2.116  0.1314  0.7237  0.3531
 4694TIP3    H135717   2.618   1.994   2.026  2.1445  1.6603  1.0773
 4694TIP3    H235718   2.639   2.038   2.170  0.0481 -0.6179  2.1511
 4695TIP3   OH235719   0.972   6.522   0.531  0.0534 -0.2723 -0.0602
 4695TIP3    H135720   1.039   6.548   0.469  0.7268  0.4013  0.9342
 4695TIP3    H235721   0.889   6.535   0.484  0.4859  1.4134 -0.4119
 4696TIP3   OH235722   6.411   3.262   0.558  0.2429 -0.4275 -0.4517
 4696TIP3    H135723   6.371   3.286   0.474 -0.2109 -1.6551 -0.6113
 4696TIP3    H235724   6.393   3.168   0.567  2.0405 -0.7548  0.0716
 4697TIP3   OH235725   4.547   2.793   1.434  0.2109 -0.5676 -0.5414
 4697TIP3    H135726   4.640   2.797   1.457 -0.3191 -0.0579  1.7519
 4697TIP3    H235727   4.532   2.700   1.416  0.6030 -1.1950  1.9588
 4698TIP3   OH235728   2.310   1.577   1.350  0.2208 -0.0549  0.0393
 4698TIP3    H135729   2.296   1.524   1.272  0.1916 -1.3720  0.9149
 4698TIP3    H235730   2.223   1.609   1.373  0.2386  0.3970 -0.4898
 4699TIP3   OH235731   0.062   2.093   0.499  0.4512 -0.1896  0.0731
 4699TIP3    H135732  -0.027   2.126   0.517 -0.5593 -1.8999 -1.4850
 4699TIP3    H235733   0.102   2.085   0.585  0.2165  3.3830  0.6828
 4700TIP3   OH235734   1.443   5.787   8.102  0.0907 -0.2905  0.2765
 4700TIP3    H135735   1.514   5.833   8.056 -0.8476  2.1823  1.1557
 4700TIP3    H235736   1.368   5.847   8.096 -1.2607 -1.7983  1.3797
 4701TIP3   OH235737   4.531   5.356   7.236 -0.6877  0.4004  0.8736
 4701TIP3    H135738   4.520   5.265   7.211 -1.3108  1.1098 -1.7445
 4701TIP3    H235739   4.625   5.366   7.250  0.0700  0.2012 -2.9725
 4702TIP3   OH235740   0.695   3.051   0.435  0.1673  0.8498 -0.5920
 4702TIP3    H135741   0.706   3.060   0.530 -0.7858 -1.3286 -0.2195
 4702TIP3    H235742   0.782   3.070   0.400  1.2528 -0.8867  0.9612
 4703TIP3   OH235743   3.504   0.183   7.255 -0.4497 -0.0211  0.2877
 4703TIP3    H135744   3.417   0.222   7.241 -0.8284 -0.9717 -0.0597
 4703TIP3    H235745   3.510   0.114   7.190  1.3482  1.2260 -0.9776
 4704TIP3   OH235746   0.490   4.495   1.808 -0.5444 -0.3783 -0.4480
 4704TIP3    H135747   0.562   4.506   1.745 -3.2491  3.5238 -3.3506
 4704TIP3    H235748   0.509   4.558   1.877 -1.0064  0.5521 -1.1444
 4705TIP3   OH235749   6.536   1.524   2.251 -0.1818 -0.1965 -0.0681
 4705TIP3    H135750   6.578   1.591   2.305 -0.2914  0.6625 -1.0076
 4705TIP3    H235751   6.445   1.523   2.279 -0.1725  0.0291 -0.0295
 4706TIP3   OH235752   6.912   5.746   0.642  0.2260 -0.1834 -0.5650
 4706TIP3    H135753   6.961   5.689   0.584  0.4601 -1.0186  0.4278
 4706TIP3    H235754   6.952   5.734   0.728  0.1348  1.3054 -0.2828
 4707TIP3   OH235755   0.279   3.955   1.059  0.1054 -0.1100 -0.4426
 4707TIP3    H135756   0.314   3.945   1.148  0.2856  0.8624 -0.3843
 4707TIP3    H235757   0.353   3.986   1.008 -0.5300  1.6550 -0.3931
 4708TIP3   OH235758   6.643   1.694   0.679  0.0858 -0.4371 -0.0541
 4708TIP3    H135759   6.718   1.645   0.711  0.4740 -0.8608 -1.5266
 4708TIP3    H235760   6.678   1.780   0.654  0.1690 -0.7614 -1.0879
 4709TIP3   OH235761   1.210   5.803   8.475  0.2665 -0.3915 -0.2181
 4709TIP3    H135762   1.192   5.858   8.398  0.0759 -0.5445 -0.2849
 4709TIP3    H235763   1.261   5.859   8.533  1.4493 -0.6730 -0.9683
 4710TIP3   OH235764   1.345   2.945   0.300  0.0158 -0.1386 -0.1751
 4710TIP3    H135765   1.373   3.009   0.233  1.5567 -1.4155 -0.8230
 4710TIP3    H235766   1.371   2.860   0.264 -1.0378 -1.0545  1.1370
 4711TIP3   OH235767   0.863   5.664   0.157 -0.0871 -0.5260 -0.1801
 4711TIP3    H135768   0.833   5.752   0.136 -0.8198 -0.4105  1.2517
 4711TIP3    H235769   0.812   5.639   0.234  2.3036 -0.9795  1.3490
 4712TIP3   OH235770   3.276   6.288   8.439  0.9756 -0.0229 -0.6129
 4712TIP3    H135771   3.341   6.357   8.427  1.2529 -0.0321  0.7335
 4712TIP3    H235772   3.327   6.207   8.441  0.6347 -0.3323 -2.3882
 4713TIP3   OH235773   4.767   6.390   1.836  0.2987  0.4278  0.4277
 4713TIP3    H135774   4.698   6.403   1.901  0.8101 -2.0979  1.6001
 4713TIP3    H235775   4.848   6.406   1.884  0.6168  0.7704 -0.2167
 4714TIP3   OH235776   4.021   4.575   6.131  0.5947 -0.4951  0.2072
 4714TIP3    H135777   4.037   4.623   6.049  0.0669 -0.3692  0.1707
 4714TIP3    H235778   4.107   4.566   6.171  1.0498 -1.6232 -0.9476
 4715TIP3   OH235779   1.072   4.872   0.652  0.0439 -0.3465 -0.3195
 4715TIP3    H135780   1.083   4.870   0.557  1.2288  1.0425 -0.2577
 4715TIP3    H235781   1.142   4.816   0.685  0.4395  0.1824 -0.2430
 4716TIP3   OH235782   2.462   3.478   8.440  0.3505 -0.2852  0.4317
 4716TIP3    H135783   2.527   3.419   8.400 -0.0747 -0.6414  0.2445
 4716TIP3    H235784   2.416   3.423   8.503 -0.1730 -0.2065  0.1275
 4717TIP3   OH235785   0.756   6.366   1.597 -0.2546 -0.4986  0.2795
 4717TIP3    H135786   0.816   6.361   1.671  2.1581 -0.2570 -1.5394
 4717TIP3    H235787   0.716   6.453   1.604 -0.0412 -0.4689  1.2666
 4718TIP3   OH235788   2.650   1.198   0.962 -0.2965  0.0291  0.0272
 4718TIP3    H135789   2.722   1.165   0.908 -0.4758  0.0120 -0.2051
 4718TIP3    H235790   2.598   1.252   0.902 -0.3158  0.2781  0.2647
 4719TIP3   OH235791   4.979   6.502   1.577 -0.0800 -0.0649  0.2224
 4719TIP3    H135792   4.999   6.558   1.651  0.3894  0.8307 -0.5616
 4719TIP3    H235793   4.918   6.553   1.524 -0.7087 -0.8461  0.1710
 4720TIP3   OH235794   3.373   5.277   7.872  0.6348  0.6353  0.8083
 4720TIP3    H135795   3.299   5.242   7.922  0.9725 -0.0339  0.8524
 4720TIP3    H235796   3.392   5.209   7.807  1.0847  0.8846  0.6728
 4721TIP3   OH235797   1.361   2.523   6.952 -0.3360 -0.3404  0.1260
 4721TIP3    H135798   1.360   2.604   7.002  0.4320 -1.2627  1.7262
 4721TIP3    H235799   1.435   2.531   6.892 -1.7326  1.0971 -1.5202
 4722TIP3   OH235800   2.866   1.035   0.547  0.2019  0.4600 -0.5966
 4722TIP3    H135801   2.917   0.956   0.564  0.1355  0.3954 -0.6988
 4722TIP3    H235802   2.882   1.055   0.455 -1.2112 -0.4777 -1.0897
 4723TIP3   OH235803   6.131   3.967   7.089  0.5888  0.0791 -0.2884
 4723TIP3    H135804   6.218   4.000   7.063  0.5876 -0.2826 -0.7767
 4723TIP3    H235805   6.148   3.880   7.123  0.5010  0.2917  0.3040
 4724TIP3   OH235806   5.198   0.534   8.454 -0.0870  0.4816  0.2949
 4724TIP3    H135807   5.191   0.449   8.497 -1.1478 -0.5711 -1.8093
 4724TIP3    H235808   5.193   0.598   8.525 -0.1695 -1.1793  1.8465
 4725TIP3   OH235809   1.443   3.117   0.113  0.5321  0.0318  0.2669
 4725TIP3    H135810   1.474   3.113   0.022  0.1907 -0.7516  0.1792
 4725TIP3    H235811   1.509   3.169   0.158  1.3639 -0.6059 -0.1749
 4726TIP3   OH235812   2.367   0.647   2.590 -0.5727 -0.3579 -0.1520
 4726TIP3    H135813   2.298   0.583   2.574 -0.7839  0.1671 -1.5195
 4726TIP3    H235814   2.381   0.688   2.505  0.9186  0.0636  0.2698
 4727TIP3   OH235815   1.600   2.032   7.871  0.2240  0.0060  0.1525
 4727TIP3    H135816   1.688   1.995   7.858  0.3078  0.6798 -1.4538
 4727TIP3    H235817   1.549   1.959   7.906  1.3555 -0.4726  0.8761
 4728TIP3   OH235818   5.097   2.906   0.507 -0.4447  0.1606 -0.0761
 4728TIP3    H135819   5.082   2.849   0.431  0.8864 -0.4976  0.1350
 4728TIP3    H235820   5.014   2.953   0.517 -1.9154 -2.3070  0.2429
 4729TIP3   OH235821   2.810   4.569   6.120  0.4032  0.0626 -0.0430
 4729TIP3    H135822   2.728   4.573   6.170  0.3860  1.6341 -0.1413
 4729TIP3    H235823   2.859   4.497   6.159 -0.0307  0.6250  1.6021
 4730TIP3   OH235824   5.031   2.871   0.247  0.3355 -0.2907 -0.0945
 4730TIP3    H135825   4.984   2.890   0.166  0.9215  1.0133 -0.1633
 4730TIP3    H235826   5.077   2.789   0.231  0.2662 -0.1580 -0.9933
 4731TIP3   OH235827   1.371   4.901   2.082 -0.0223 -0.2273 -0.1863
 4731TIP3    H135828   1.456   4.857   2.089 -0.6830 -1.4678  0.5912
 4731TIP3    H235829   1.383   4.984   2.127  1.7805  1.3153 -3.2331
 4732TIP3   OH235830   4.406   6.819   0.039  0.0094  0.0569 -0.7934
 4732TIP3    H135831   4.368   6.734   0.016 -0.5843  0.3327 -0.8749
 4732TIP3    H235832   4.486   6.825  -0.013  0.5203 -0.8211 -0.1226
 4733TIP3   OH235833   6.463   6.745   2.586 -0.3086  0.1897  0.3068
 4733TIP3    H135834   6.530   6.677   2.582  0.9901  1.4764 -2.2307
 4733TIP3    H235835   6.385   6.700   2.617  1.0715 -1.9036  0.9569
 4734TIP3   OH235836   6.900   0.658   2.253 -0.3702 -0.4547 -0.2855
 4734TIP3    H135837   6.870   0.735   2.301  2.1521 -0.5455  1.6253
 4734TIP3    H235838   6.922   0.594   2.321  0.9248 -1.5414 -1.6548
 4735TIP3   OH235839   5.113   5.213   0.811  0.1902  0.5782  0.2427
 4735TIP3    H135840   5.113   5.294   0.761  0.4434  0.5145  0.1388
 4735TIP3    H235841   5.024   5.180   0.804  0.0522  0.9194  0.4011
 4736TIP3   OH235842   5.299   4.193   1.421  0.0414  0.1711 -0.0687
 4736TIP3    H135843   5.316   4.263   1.484 -1.6126  1.0624 -0.5710
 4736TIP3    H235844   5.365   4.126   1.442  0.8841  1.3395  1.2056
 4737TIP3   OH235845   6.955   3.216   0.591  0.3063 -0.6322  0.3302
 4737TIP3    H135846   6.863   3.238   0.607 -0.0991 -2.9133  1.7145
 4737TIP3    H235847   7.004   3.271   0.653 -0.1620  0.1157  0.0507
 4738TIP3   OH235848   1.263   3.526   1.137 -0.6866  0.5237 -0.1749
 4738TIP3    H135849   1.313   3.446   1.125 -0.2201  0.9577 -1.2489
 4738TIP3    H235850   1.209   3.509   1.214  0.4948 -0.2670  0.5205
 4739TIP3   OH235851   4.145   3.182   7.952 -0.2997 -0.1058  0.4183
 4739TIP3    H135852   4.192   3.144   7.877 -1.0780 -0.4745  0.1008
 4739TIP3    H235853   4.172   3.274   7.953  0.1824 -0.2369  0.0496
 4740TIP3   OH235854   5.968   4.837   6.354  0.2348  0.0254 -0.3321
 4740TIP3    H135855   5.881   4.842   6.315  0.2088  1.0944 -0.1752
 4740TIP3    H235856   5.964   4.898   6.428  0.7445 -0.8320  0.4189
 4741TIP3   OH235857   1.505   0.129   8.365 -0.3054 -0.0135 -0.0173
 4741TIP3    H135858   1.567   0.194   8.398 -0.6461  2.0384 -2.9909
 4741TIP3    H235859   1.436   0.125   8.431  0.3018  1.8095  0.7827
 4742TIP3   OH235860   4.634   1.803   0.784 -0.3290  0.1980 -0.0910
 4742TIP3    H135861   4.582   1.810   0.704 -0.3487 -0.2692 -0.1209
 4742TIP3    H235862   4.582   1.748   0.842 -0.5094  0.8789  0.4113
 4743TIP3   OH235863   4.596   6.192   0.895 -0.1949 -0.1667  0.0224
 4743TIP3    H135864   4.640   6.195   0.980 -1.3256 -2.0609  0.7350
 4743TIP3    H235865   4.667   6.190   0.831  0.6818  0.4404  0.9619
 4744TIP3   OH235866   2.389   2.309   8.440 -0.5132 -0.0696  0.3387
 4744TIP3    H135867   2.407   2.399   8.412 -0.3282 -0.2746 -0.2151
 4744TIP3    H235868   2.395   2.312   8.535  1.0449  0.1960  0.2635
 4745TIP3   OH235869   0.575   1.761   8.209  0.0068  0.1036  0.6683
 4745TIP3    H135870   0.640   1.799   8.268  0.1474 -1.0446  1.2930
 4745TIP3    H235871   0.623   1.694   8.160 -0.7877 -1.1272  1.5161
 4746TIP3   OH235872   3.517   2.207   3.131 -0.0368  0.3867 -0.1569
 4746TIP3    H135873   3.565   2.128   3.109 -0.7839  0.0928 -0.7991
 4746TIP3    H235874   3.425   2.179   3.134 -0.2832  1.1659 -0.1123
 4747TIP3   OH235875   3.328   0.213   1.851  0.0799 -0.0991  0.0434
 4747TIP3    H135876   3.273   0.199   1.774 -1.6556  2.1567  0.7374
 4747TIP3    H235877   3.309   0.138   1.908 -3.4198  1.1481  0.7877
 4748TIP3   OH235878   1.963   2.339   7.701 -0.4858  0.6708 -0.4224
 4748TIP3    H135879   1.995   2.395   7.771 -0.4519  0.0470  0.0601
 4748TIP3    H235880   2.037   2.330   7.641  0.9992 -2.3541  1.6355
 4749TIP3   OH235881   1.794   5.835   0.580  0.1700  0.3190  0.2248
 4749TIP3    H135882   1.888   5.854   0.579  0.1967  0.1828 -0.8405
 4749TIP3    H235883   1.764   5.856   0.492 -0.3764 -1.7185 -0.1135
 4750TIP3   OH235884   6.700   3.679   1.907 -0.7378 -0.3168 -0.1524
 4750TIP3    H135885   6.694   3.605   1.847  0.4411  1.0951 -2.1428
 4750TIP3    H235886   6.791   3.678   1.937 -0.8913 -0.0652  0.3254
 4751TIP3   OH235887   6.872   0.601   1.763 -0.6750  0.4975  0.0027
 4751TIP3    H135888   6.967   0.601   1.773 -0.8045  0.0417  1.5832
 4751TIP3    H235889   6.840   0.644   1.843 -1.8247 -0.6110  0.1749
 4752TIP3   OH235890   1.142   0.024   1.981  0.0243 -0.0009 -0.5208
 4752TIP3    H135891   1.224  -0.020   2.004 -0.8316 -1.0594  0.6452
 4752TIP3    H235892   1.132   0.010   1.887  1.9613  1.5592 -1.0273
 4753TIP3   OH235893   1.828   0.873   2.313 -0.3469 -0.1068  0.2894
 4753TIP3    H135894   1.775   0.941   2.354  0.8915 -0.0264  1.8583
 4753TIP3    H235895   1.878   0.920   2.246 -0.1859  0.3695  0.7291
 4754TIP3   OH235896   3.604   4.377   0.395  0.4211 -0.2318 -0.2692
 4754TIP3    H135897   3.679   4.379   0.454  1.0790 -1.8471 -0.9810
 4754TIP3    H235898   3.622   4.445   0.330  1.2408 -0.5421 -0.3759
 4755TIP3   OH235899   0.619   1.203   0.460 -0.2728 -0.4394  0.1320
 4755TIP3    H135900   0.659   1.290   0.465 -0.8176 -0.1867  0.2059
 4755TIP3    H235901   0.525   1.220   0.455 -0.3683 -1.0190 -0.1598
 4756TIP3   OH235902   0.916   5.270   7.198  0.0201  0.2113  0.2954
 4756TIP3    H135903   0.972   5.223   7.258 -0.6483  1.2308  1.7741
 4756TIP3    H235904   0.842   5.299   7.251 -1.8160 -0.8713 -1.5193
 4757TIP3   OH235905   5.926   0.048   8.251  0.3147  0.3357  0.0290
 4757TIP3    H135906   5.955   0.138   8.238  2.1711  0.0118  1.4800
 4757TIP3    H235907   5.906   0.043   8.345 -1.1403 -0.4185 -0.2922
 4758TIP3   OH235908   3.316   5.107   1.267  0.6807  0.3701  0.5491
 4758TIP3    H135909   3.324   5.145   1.354  0.4686  0.1059  0.6887
 4758TIP3    H235910   3.328   5.013   1.281  0.4333  0.3041  0.3265
 4759TIP3   OH235911   1.946   5.228   0.486 -0.1047  0.4282 -0.0136
 4759TIP3    H135912   1.911   5.154   0.535  1.4869  0.5679  1.4249
 4759TIP3    H235913   1.869   5.278   0.458 -1.1307 -0.9357  0.2930
 4760TIP3   OH235914   5.233   4.385   0.331 -0.0308 -0.4047 -0.3428
 4760TIP3    H135915   5.158   4.414   0.279  0.5691 -1.1068 -1.6560
 4760TIP3    H235916   5.309   4.402   0.275  1.0389  1.9074  1.6383
 4761TIP3   OH235917   3.543   3.257   1.184  0.0425 -0.2236 -0.2617
 4761TIP3    H135918   3.499   3.303   1.112 -2.4229  1.1431  1.9595
 4761TIP3    H235919   3.538   3.317   1.258  1.8644 -1.8521  1.2782
 4762TIP3   OH235920   6.524   4.807   2.155 -0.4499  0.4041  0.4185
 4762TIP3    H135921   6.614   4.805   2.186 -0.4074 -0.2567  0.2564
 4762TIP3    H235922   6.528   4.856   2.072 -0.0881 -0.3894 -0.0454
 4763TIP3   OH235923   5.884   2.675   6.985 -0.3013 -0.5114 -0.4676
 4763TIP3    H135924   5.859   2.767   6.991 -0.2730 -0.5305  0.0265
 4763TIP3    H235925   5.835   2.641   6.911 -1.2641 -0.3947  0.0955
 4764TIP3   OH235926   2.840   0.355   7.872 -0.3660 -0.2608 -0.3021
 4764TIP3    H135927   2.757   0.367   7.825 -1.4056  0.3983  1.5766
 4764TIP3    H235928   2.845   0.260   7.888 -0.5898 -0.3421 -0.7008
 4765TIP3   OH235929   2.766   5.210   0.719  0.0729 -0.1233 -0.7273
 4765TIP3    H135930   2.738   5.122   0.747  2.4128 -0.7293 -0.0863
 4765TIP3    H235931   2.842   5.194   0.664  1.0240  1.5461  0.0503
 4766TIP3   OH235932   4.412   2.568   0.876 -0.0209  0.1918 -0.0458
 4766TIP3    H135933   4.330   2.518   0.878  0.2040 -0.1769  1.2827
 4766TIP3    H235934   4.475   2.510   0.832 -0.5588  0.6490 -1.4609
 4767TIP3   OH235935   3.673   6.395   3.377  0.3675 -0.3649  0.3806
 4767TIP3    H135936   3.610   6.403   3.449  0.3617  0.4884  0.2944
 4767TIP3    H235937   3.619   6.388   3.299  0.3466  1.0632  0.2333
 4768TIP3   OH235938   5.208   4.050   8.037  0.0136  0.4797 -0.0795
 4768TIP3    H135939   5.161   3.990   7.979 -0.4586  0.0132  0.7784
 4768TIP3    H235940   5.300   4.035   8.016 -0.0803 -0.7920  0.3476
 4769TIP3   OH235941   0.771   4.318   0.211 -0.3680 -0.5026 -0.7936
 4769TIP3    H135942   0.692   4.370   0.229  0.1317  0.6006 -1.6731
 4769TIP3    H235943   0.830   4.337   0.284 -1.5300 -2.7555  0.8729
 4770TIP3   OH235944   4.251   5.840   1.334  0.1423  0.1058  0.3146
 4770TIP3    H135945   4.310   5.899   1.286  0.4830 -0.6282 -0.1893
 4770TIP3    H235946   4.308   5.789   1.390 -0.1206  0.0357  0.5205
 4771TIP3   OH235947   5.653   4.405   2.211 -0.5214  1.0637 -0.2060
 4771TIP3    H135948   5.565   4.407   2.249 -0.5263 -0.7441 -0.0595
 4771TIP3    H235949   5.638   4.392   2.117 -0.4532  3.9450 -0.7230
 4772TIP3   OH235950   3.676   6.791   1.787  0.2286  0.2458  0.3575
 4772TIP3    H135951   3.703   6.703   1.814 -0.4855  0.3756  1.5428
 4772TIP3    H235952   3.655   6.782   1.694  0.1571 -0.8393  0.4662
 4773TIP3   OH235953   4.802   0.754   3.380  0.4208  0.0249 -0.1541
 4773TIP3    H135954   4.837   0.701   3.452  0.1693  3.2893  2.6246
 4773TIP3    H235955   4.712   0.724   3.371  0.9727 -1.6886 -0.4815
 4774TIP3   OH235956   1.819   1.911   7.077 -0.0608  0.1891  0.2840
 4774TIP3    H135957   1.824   1.816   7.085 -0.9797  0.1466  0.3904
 4774TIP3    H235958   1.830   1.928   6.984 -1.4631 -0.1356  0.0486
 4775TIP3   OH235959   5.282   2.842   0.780 -0.3156  0.6250  0.2497
 4775TIP3    H135960   5.292   2.783   0.706 -0.0332 -0.7206  1.3064
 4775TIP3    H235961   5.317   2.926   0.750  1.2504 -0.3014 -0.6477
 4776TIP3   OH235962   1.158   6.647   1.243 -0.6848 -0.0561 -0.4542
 4776TIP3    H135963   1.198   6.719   1.195  1.3288 -0.7302  0.1104
 4776TIP3    H235964   1.088   6.615   1.185 -0.1821  0.9400 -1.6536
 4777TIP3   OH235965   5.522   4.946   6.778 -0.1727 -0.0790  0.1650
 4777TIP3    H135966   5.613   4.916   6.781 -0.4237 -1.1045 -1.1572
 4777TIP3    H235967   5.508   4.991   6.861  1.5459  0.1256  0.3729
 4778TIP3   OH235968   4.742   0.057   1.354  0.0334 -0.4207  0.0343
 4778TIP3    H135969   4.724   0.079   1.446  0.7983 -1.0304  0.3487
 4778TIP3    H235970   4.659   0.068   1.309 -0.3243 -0.0045  0.7901
 4779TIP3   OH235971   1.843   4.056   1.611 -0.3575 -0.1334 -0.3042
 4779TIP3    H135972   1.784   4.118   1.568 -0.2652  0.1481 -0.0239
 4779TIP3    H235973   1.787   4.007   1.672 -0.3181  0.0721 -0.1035
 4780TIP3   OH235974   0.555   5.043   1.547 -1.3058 -0.3292  0.3678
 4780TIP3    H135975   0.629   5.057   1.606 -1.3635  0.0571  0.3518
 4780TIP3    H235976   0.539   4.948   1.550 -2.3826 -0.1290  2.2754
 4781TIP3   OH235977   3.305   6.429   1.081 -0.1782  0.5416  0.3645
 4781TIP3    H135978   3.321   6.356   1.141 -1.3397 -0.0552 -0.0163
 4781TIP3    H235979   3.381   6.486   1.092  0.4620 -0.4165  1.1205
 4782TIP3   OH235980   5.966   1.342   8.447 -0.1581  0.2765  0.0346
 4782TIP3    H135981   5.912   1.418   8.471 -2.4141 -1.3696  0.4824
 4782TIP3    H235982   5.954   1.280   8.518 -1.5721 -2.0495 -2.0758
 4783TIP3   OH235983   5.165   3.140   7.545  0.4188 -0.9722 -0.1881
 4783TIP3    H135984   5.092   3.118   7.488 -0.8062 -1.1810  1.3876
 4783TIP3    H235985   5.208   3.057   7.563  0.2863 -1.0301 -0.1377
 4784TIP3   OH235986   3.721   2.248   2.166 -0.2581  0.4863  0.0347
 4784TIP3    H135987   3.753   2.171   2.214  0.1664  0.1897 -0.7095
 4784TIP3    H235988   3.795   2.309   2.167  0.2257 -0.0476 -1.3574
 4785TIP3   OH235989   6.158   0.401   1.040  0.5762 -0.1950 -0.5502
 4785TIP3    H135990   6.111   0.447   0.970 -0.7398 -1.5325 -0.5893
 4785TIP3    H235991   6.120   0.314   1.041  1.5236 -0.6241  0.9567
 4786TIP3   OH235992   3.939   2.274   8.019  0.1277  0.0284  0.0212
 4786TIP3    H135993   3.931   2.365   7.990  1.2373 -0.0421 -0.5627
 4786TIP3    H235994   4.014   2.275   8.078  0.4801 -0.5947 -0.4060
 4787TIP3   OH235995   4.266   5.159   0.489  0.3966 -0.4819 -0.3902
 4787TIP3    H135996   4.357   5.131   0.496  0.9127  1.0368 -0.6010
 4787TIP3    H235997   4.254   5.178   0.396 -0.1792 -0.7729 -0.3817
 4788TIP3   OH235998   5.152   4.278   2.846 -0.1433  0.1541  0.4037
 4788TIP3    H135999   5.057   4.282   2.833 -0.1302  0.2016  0.3246
 4788TIP3    H236000   5.182   4.367   2.830 -0.1701  0.2882  1.0722
 4789TIP3   OH236001   4.223   0.577   0.714 -0.3095  0.5517 -0.8685
 4789TIP3    H136002   4.211   0.633   0.790 -0.9720 -1.1105  0.3268
 4789TIP3    H236003   4.152   0.513   0.720  1.2359 -1.3079 -1.3103
 4790TIP3   OH236004   5.199   0.858   2.500  0.1034 -0.2922  0.3029
 4790TIP3    H136005   5.231   0.842   2.411  0.2223 -2.0840  0.6192
 4790TIP3    H236006   5.275   0.894   2.546  0.3226 -0.2397 -0.0941
 4791TIP3   OH236007   1.330   2.882   7.676  0.4467 -0.2378 -0.0694
 4791TIP3    H136008   1.261   2.828   7.637 -0.2002  1.7824 -1.9418
 4791TIP3    H236009   1.407   2.864   7.623  0.5071 -0.1402 -0.0150
 4792TIP3   OH236010   2.928   2.956   7.981 -0.2988  0.2308 -0.2649
 4792TIP3    H136011   3.001   2.902   7.952 -0.0362 -1.1315  2.5832
 4792TIP3    H236012   2.850   2.913   7.946  0.0824 -0.1010 -0.7111
 4793TIP3   OH236013   4.633   3.352   6.773 -0.4162 -0.2651  0.0687
 4793TIP3    H136014   4.681   3.296   6.834 -1.0809 -0.9947 -0.0580
 4793TIP3    H236015   4.688   3.430   6.763 -0.1508 -0.2707  1.3459
 4794TIP3   OH236016   6.006   2.995   7.173  0.2137 -0.6543  0.1530
 4794TIP3    H136017   6.065   2.938   7.124 -0.0357 -0.6609 -0.1452
 4794TIP3    H236018   5.937   3.018   7.110 -0.5593 -1.3270  0.7284
 4795TIP3   OH236019   6.790   6.264   7.695 -0.5284 -0.2643 -0.2566
 4795TIP3    H136020   6.811   6.261   7.602 -0.8328 -1.3946 -0.3060
 4795TIP3    H236021   6.787   6.172   7.722 -1.9912 -0.0249  0.5110
 4796TIP3   OH236022   1.997   0.790   7.365 -0.1335 -0.2837 -0.2027
 4796TIP3    H136023   2.019   0.839   7.285  0.8595  0.3207  0.4263
 4796TIP3    H236024   1.956   0.855   7.422  0.6306 -0.3293  0.4035
 4797TIP3   OH236025   5.331   0.939   2.230 -0.6426 -0.3944  0.0619
 4797TIP3    H136026   5.361   0.858   2.189  0.8577 -0.4719  1.2009
 4797TIP3    H236027   5.411   0.982   2.261 -1.5427  0.5720  1.1917
 4798TIP3   OH236028   6.348   0.771   7.835  0.0540  0.2302 -0.3512
 4798TIP3    H136029   6.261   0.736   7.850  0.3815 -0.4940 -0.0736
 4798TIP3    H236030   6.346   0.802   7.744 -0.4097 -0.0234 -0.4322
 4799TIP3   OH236031   6.645   5.634   2.298 -0.0168 -0.6031 -0.3506
 4799TIP3    H136032   6.614   5.624   2.388 -2.0061 -1.0465 -1.0341
 4799TIP3    H236033   6.656   5.544   2.266  0.4796 -0.4474 -0.6363
 4800TIP3   OH236034   4.983   0.443   1.602 -0.0803  0.1798  0.2090
 4800TIP3    H136035   4.973   0.537   1.620 -0.9820  0.3562 -1.0425
 4800TIP3    H236036   4.930   0.428   1.524  0.9757 -1.1449 -0.3069
 4801TIP3   OH236037   4.424   5.985   0.466  0.1583 -0.5465  0.4585
 4801TIP3    H136038   4.402   5.962   0.376  1.5456 -0.1537  0.0002
 4801TIP3    H236039   4.519   5.983   0.469  0.1511 -0.0584  1.7937
 4802TIP3   OH236040   2.560   3.158   8.339  0.0568 -0.4542 -0.5685
 4802TIP3    H136041   2.649   3.193   8.341 -0.3821  0.7255  1.4531
 4802TIP3    H236042   2.523   3.188   8.256  1.1489  0.0800 -0.8714
 4803TIP3   OH236043   3.994   1.429   8.095  0.8436  0.1229  0.2532
 4803TIP3    H136044   3.979   1.414   8.188  0.4214 -3.4972 -0.2587
 4803TIP3    H236045   3.953   1.355   8.051 -2.5169  3.5442 -3.2394
 4804TIP3   OH236046   6.947   5.077   0.136  0.1823 -0.5106  0.6046
 4804TIP3    H136047   6.943   5.086   0.232  0.5312 -0.0587  0.5835
 4804TIP3    H236048   6.883   5.141   0.104  0.2314 -0.5001  0.5283
 4805TIP3   OH236049   5.661   3.810   1.471 -0.5885  0.4374  0.0738
 4805TIP3    H136050   5.706   3.760   1.539 -1.0164  0.1705  0.1604
 4805TIP3    H236051   5.655   3.750   1.396 -0.6540  0.5286  0.0051
 4806TIP3   OH236052   5.831   3.546   8.484  0.6103  0.1987  0.4418
 4806TIP3    H136053   5.780   3.608   8.535 -0.4687  0.1905 -0.5491
 4806TIP3    H236054   5.890   3.600   8.432 -0.1595  0.4110 -0.2436
 4807TIP3   OH236055   1.239   0.260   2.569 -0.0562 -0.2447 -0.2031
 4807TIP3    H136056   1.203   0.319   2.636  3.5912  0.1654  1.6117
 4807TIP3    H236057   1.215   0.301   2.486 -4.1174 -0.3759  0.6771
 4808TIP3   OH236058   2.952   6.457   0.973 -0.0722 -0.2394  0.5883
 4808TIP3    H136059   2.877   6.411   0.936 -0.4128 -0.1307  1.1252
 4808TIP3    H236060   3.004   6.484   0.898 -0.2729 -0.8199  0.2343
 4809TIP3   OH236061   6.033   3.289   8.431  0.4499  0.0294  0.6493
 4809TIP3    H136062   5.958   3.348   8.433 -0.6870 -1.1086 -2.6207
 4809TIP3    H236063   6.002   3.210   8.474 -0.3739 -0.5241 -0.9018
 4810TIP3   OH236064   2.372   4.697   0.486 -0.2720  0.2136  0.1119
 4810TIP3    H136065   2.311   4.626   0.507  0.3957 -0.7982 -1.2356
 4810TIP3    H236066   2.390   4.686   0.392  2.6890 -0.1204  0.6177
 4811TIP3   OH236067   2.049   4.356   1.114 -0.1401  0.2251  0.7749
 4811TIP3    H136068   2.140   4.333   1.133  0.9490  0.9298 -2.7242
 4811TIP3    H236069   2.042   4.448   1.138  0.1424  0.2283  0.8452
 4812TIP3   OH236070   0.434   0.842   7.474  0.1943 -0.0978 -0.5423
 4812TIP3    H136071   0.375   0.873   7.543 -0.1496  1.2147 -1.3802
 4812TIP3    H236072   0.519   0.882   7.495  0.2253 -0.1414 -0.5824
 4813TIP3   OH236073   3.237   5.278   2.300  0.1333  0.2388 -0.4331
 4813TIP3    H136074   3.265   5.207   2.357  1.1133  0.3176 -0.7997
 4813TIP3    H236075   3.296   5.273   2.225  0.4037  1.6208 -0.3308
 4814TIP3   OH236076   6.330   6.107   1.894 -0.1812 -0.5300 -0.4384
 4814TIP3    H136077   6.261   6.147   1.947  1.8455  1.1959  1.0336
 4814TIP3    H236078   6.341   6.019   1.930  0.8698  0.4664  1.8463
 4815TIP3   OH236079   0.733   3.475   1.105  0.9115 -0.0275 -0.1968
 4815TIP3    H136080   0.702   3.394   1.143  0.9621 -0.1799 -0.4752
 4815TIP3    H236081   0.792   3.511   1.171 -1.4317  1.3510  1.2992
 4816TIP3   OH236082   2.274   4.509   7.524  0.2304 -0.4793  0.2340
 4816TIP3    H136083   2.232   4.594   7.538  1.9465  0.5948 -0.7888
 4816TIP3    H236084   2.302   4.512   7.432 -1.7906 -3.1723 -0.5974
 4817TIP3   OH236085   3.588   4.547   6.375 -0.0456 -0.3108  0.2132
 4817TIP3    H136086   3.562   4.586   6.292 -0.5651 -0.9533  0.0636
 4817TIP3    H236087   3.561   4.611   6.441 -1.5448 -0.6870  0.0216
 4818TIP3   OH236088   3.657   0.665   1.170 -0.4293 -0.3930 -0.4963
 4818TIP3    H136089   3.680   0.758   1.168  1.6597 -0.8684 -2.0305
 4818TIP3    H236090   3.655   0.642   1.263  0.1444  0.9353 -0.1446
 4819TIP3   OH236091   1.809   5.965   6.638 -0.3830 -0.4192  0.1428
 4819TIP3    H136092   1.895   5.982   6.678  0.1263 -1.9635 -0.2190
 4819TIP3    H236093   1.746   5.989   6.706  0.3760 -0.4008  0.8566
 4820TIP3   OH236094   2.017   6.003   1.118 -0.2618  0.1258  0.0967
 4820TIP3    H136095   2.050   6.013   1.207 -2.4189  0.9731  0.8642
 4820TIP3    H236096   1.960   5.927   1.122 -0.5832  0.3262 -0.5046
 4821TIP3   OH236097   2.779   5.806   0.831 -0.5603  0.0310  0.4068
 4821TIP3    H136098   2.725   5.816   0.753 -0.2430 -0.4702  0.1143
 4821TIP3    H236099   2.794   5.896   0.861 -0.1407  0.2797 -0.4933
 4822TIP3   OH236100   3.045   2.196   7.855  0.0066 -0.3570  0.1815
 4822TIP3    H136101   3.046   2.103   7.830 -1.8262  0.2873 -2.8553
 4822TIP3    H236102   2.968   2.204   7.912 -0.6487 -0.5332 -0.6454
 4823TIP3   OH236103   0.897   5.525   8.458 -0.0367  0.3272 -0.2348
 4823TIP3    H136104   0.880   5.591   8.525 -1.1348 -0.6066  0.4322
 4823TIP3    H236105   0.914   5.445   8.508  0.4294 -0.0971 -1.0570
 4824TIP3   OH236106   4.556   0.262   7.266 -0.2795 -0.3872 -0.0271
 4824TIP3    H136107   4.576   0.260   7.172 -1.2398 -0.7726 -0.2435
 4824TIP3    H236108   4.556   0.355   7.288  0.1542 -0.3028 -0.3647
 4825TIP3   OH236109   4.865   3.842   7.525 -0.0334 -0.2917 -0.0418
 4825TIP3    H136110   4.784   3.876   7.486 -0.6449 -1.0406  0.5599
 4825TIP3    H236111   4.906   3.791   7.455 -0.7565 -1.0172  0.0514
 4826TIP3   OH236112   1.079   0.185   7.565 -0.0055  0.2220  0.1692
 4826TIP3    H136113   1.048   0.251   7.502 -1.6029 -0.3256  0.3314
 4826TIP3    H236114   1.146   0.231   7.616 -0.2837  1.3751 -0.4540
 4827TIP3   OH236115   1.787   3.009   2.524 -0.2632  0.4078 -0.1729
 4827TIP3    H136116   1.882   3.011   2.516 -0.3795 -0.0805 -2.8652
 4827TIP3    H236117   1.766   2.917   2.539 -0.3300  0.2500 -1.1262
 4828TIP3   OH236118   1.216   0.001   8.260 -0.0875  0.3917 -0.2713
 4828TIP3    H136119   1.296   0.032   8.218 -0.3721  0.9429 -0.4126
 4828TIP3    H236120   1.156  -0.018   8.187 -0.4226  0.9179 -0.1413
 4829TIP3   OH236121   6.260   0.726   0.939 -0.0329 -0.1697  0.1629
 4829TIP3    H136122   6.250   0.706   1.032 -1.0251  0.4734  0.2123
 4829TIP3    H236123   6.170   0.729   0.906  0.2270  1.1494 -0.4822
 4830TIP3   OH236124   5.451   4.199   0.333  0.0208 -0.0284 -0.1561
 4830TIP3    H136125   5.363   4.165   0.344  0.8259 -2.1523  0.2364
 4830TIP3    H236126   5.468   4.194   0.239  0.0816 -0.6172 -0.1161
 4831TIP3   OH236127   6.809   5.877   1.566  0.1267 -0.2679  0.0194
 4831TIP3    H136128   6.867   5.870   1.641 -0.0050  0.9901  0.2590
 4831TIP3    H236129   6.721   5.878   1.604  0.0932  2.2091  0.0758
 4832TIP3   OH236130   4.446   3.165   0.357  0.0491  0.5779 -0.1188
 4832TIP3    H136131   4.481   3.222   0.426 -1.9387  1.2042  0.4199
 4832TIP3    H236132   4.510   3.093   0.352  0.4999  0.7324  2.0666
 4833TIP3   OH236133   6.941   4.130   6.689 -0.7489  0.3553 -0.6466
 4833TIP3    H136134   6.967   4.082   6.767  1.1725  0.6619 -1.0539
 4833TIP3    H236135   6.856   4.092   6.664 -0.3393 -1.2647  0.3004
 4834TIP3   OH236136   0.610   1.014   1.899  0.2609 -0.0636  0.3540
 4834TIP3    H136137   0.647   1.018   1.987 -0.4326  2.0095  0.6115
 4834TIP3    H236138   0.675   1.056   1.843 -0.3528  0.8360  0.3004
 4835TIP3   OH236139   1.039   5.168   1.791 -0.0399  0.0098 -0.3150
 4835TIP3    H136140   1.129   5.140   1.807 -0.3805 -0.2019  1.3813
 4835TIP3    H236141   1.043   5.263   1.788  0.3163 -0.0201 -0.7546
 4836TIP3   OH236142   2.530   1.335   1.181 -0.3330 -0.4731 -0.5043
 4836TIP3    H136143   2.588   1.261   1.162  2.1173  0.5397  2.2711
 4836TIP3    H236144   2.563   1.406   1.126  1.3708  0.1583  1.2110
 4837TIP3   OH236145   2.686   1.227   2.691  0.3536 -0.5477 -0.5410
 4837TIP3    H136146   2.652   1.215   2.602 -0.9524 -0.8612 -0.0296
 4837TIP3    H236147   2.781   1.232   2.680  0.2128 -0.4719 -1.9603
 4838TIP3   OH236148   2.327   0.658   0.610  0.2758  0.0033 -0.2825
 4838TIP3    H136149   2.341   0.678   0.702 -1.2722 -0.2413  0.0348
 4838TIP3    H236150   2.378   0.724   0.563 -0.1882  1.1384  0.7453
 4839TIP3   OH236151   6.284   4.669   7.024  0.4986  0.1907  0.2495
 4839TIP3    H136152   6.360   4.726   7.022  0.8199 -0.2278  0.3328
 4839TIP3    H236153   6.264   4.656   7.116 -0.0222  0.7480  0.2231
 4840TIP3   OH236154   0.342   1.023   1.935 -0.4753  0.3030 -0.4031
 4840TIP3    H136155   0.336   1.092   2.000 -0.2199 -0.6377  0.6578
 4840TIP3    H236156   0.434   1.021   1.909 -0.4237  0.1744 -0.2131
 4841TIP3   OH236157   4.311   0.471   6.816 -0.6985 -0.4609  0.4962
 4841TIP3    H136158   4.313   0.402   6.882 -3.8514 -0.3487  0.8393
 4841TIP3    H236159   4.227   0.514   6.828 -0.4763  0.9658 -2.2182
 4842TIP3   OH236160   3.118   6.274   7.255  0.2325  0.5854 -0.2417
 4842TIP3    H136161   3.056   6.230   7.313  1.2340 -1.3348 -0.5396
 4842TIP3    H236162   3.134   6.358   7.297 -0.4539 -0.0126  1.3034
 4843TIP3   OH236163   2.551   0.851   1.908 -0.4122  0.2685 -0.3482
 4843TIP3    H136164   2.543   0.823   1.817 -1.8330  0.5267 -0.3188
 4843TIP3    H236165   2.591   0.777   1.953 -0.5251 -0.1989 -1.0124
 4844TIP3   OH236166   4.114   6.025   0.895  0.1391  0.0777  0.5694
 4844TIP3    H136167   4.138   6.109   0.935  0.8227  0.3715 -0.4226
 4844TIP3    H236168   4.181   6.011   0.828 -1.5960  0.1793 -1.2828
 4845TIP3   OH236169   6.223   5.074   8.217 -0.1432  0.3849 -0.1373
 4845TIP3    H136170   6.161   5.147   8.219 -0.5990 -0.0263  0.9261
 4845TIP3    H236171   6.215   5.032   8.302  3.0270  1.5075  0.8504
 4846TIP3   OH236172   4.022   2.976   7.027 -0.3941 -0.0890 -0.0052
 4846TIP3    H136173   4.078   2.984   7.104  2.5695 -0.6844 -1.9534
 4846TIP3    H236174   4.066   3.027   6.959 -2.6417  0.0222 -1.4936
 4847TIP3   OH236175   0.252   3.180   8.042 -0.3396  0.2431  0.4994
 4847TIP3    H136176   0.161   3.209   8.033 -0.9271 -1.6464  0.0164
 4847TIP3    H236177   0.264   3.114   7.974  1.9274  1.6106 -0.5289
 4848TIP3   OH236178   4.875   4.203   0.186 -0.1104 -0.1398  0.7768
 4848TIP3    H136179   4.923   4.146   0.126 -1.7854 -1.0161  0.2017
 4848TIP3    H236180   4.857   4.282   0.135  1.2882  0.5130  1.2327
 4849TIP3   OH236181   5.576   4.312   1.944 -0.3682 -0.5504 -0.0551
 4849TIP3    H136182   5.545   4.243   1.885 -1.4283  0.1065 -0.3100
 4849TIP3    H236183   5.562   4.394   1.895  0.8478 -0.1392  0.2424
 4850TIP3   OH236184   6.390   0.498   0.359 -0.0713  0.2299  0.0391
 4850TIP3    H136185   6.335   0.524   0.433  0.6096  2.0733 -0.0464
 4850TIP3    H236186   6.467   0.458   0.400 -0.8348 -1.1376  0.2008
 4851TIP3   OH236187   5.906   3.922   7.401 -0.6265  0.1275  0.6494
 4851TIP3    H136188   5.842   3.959   7.339  0.6662  0.9323 -0.2521
 4851TIP3    H236189   5.905   3.828   7.383  0.3267  0.4248 -1.2483
 4852TIP3   OH236190   3.428   2.895   7.627 -0.3141  0.3170 -0.1710
 4852TIP3    H136191   3.394   2.805   7.621 -0.4758  0.3337  0.4303
 4852TIP3    H236192   3.436   2.911   7.721 -1.3425  1.3285 -0.2366
 4853TIP3   OH236193   5.667   4.151   7.021  0.5598  0.0574 -0.2276
 4853TIP3    H136194   5.740   4.096   6.991  0.0840 -0.7008 -0.0340
 4853TIP3    H236195   5.606   4.151   6.947  0.3744 -0.0191 -0.0755
 4854TIP3   OH236196   1.865   6.336   6.728  0.2144 -0.2609  0.5335
 4854TIP3    H136197   1.871   6.387   6.647  0.9718  1.2401  1.4941
 4854TIP3    H236198   1.944   6.282   6.727  0.3733 -0.0314  0.3936
 4855TIP3   OH236199   5.119   1.382   2.738 -0.0080 -0.0052 -0.7020
 4855TIP3    H136200   5.048   1.441   2.763  1.7374  1.4615  1.2651
 4855TIP3    H236201   5.190   1.441   2.712  1.4088 -1.2613  0.1586
 4856TIP3   OH236202   3.943   4.173   7.637 -0.5252 -0.1508 -0.1825
 4856TIP3    H136203   4.011   4.107   7.655 -0.3578  0.2232  0.5952
 4856TIP3    H236204   3.937   4.175   7.542  1.2552  0.4798 -0.3313
 4857TIP3   OH236205   4.588   0.193   6.667  0.6032  0.3560 -0.2280
 4857TIP3    H136206   4.614   0.284   6.657  1.0253  0.1148 -1.4904
 4857TIP3    H236207   4.498   0.190   6.634  0.6024  0.3088 -0.2232
 4858TIP3   OH236208   2.222   1.395   1.157 -0.0368  0.2869 -0.2386
 4858TIP3    H136209   2.287   1.326   1.171  0.4474  1.0900  1.7263
 4858TIP3    H236210   2.138   1.349   1.155  0.3666 -0.4690 -0.0668
 4859TIP3   OH236211   4.379   6.888   1.628  0.0815 -0.5215  0.8282
 4859TIP3    H136212   4.413   6.891   1.718 -1.4706 -0.0357  1.4307
 4859TIP3    H236213   4.388   6.978   1.596  2.4101 -1.0445 -0.2647
 4860TIP3   OH236214   4.359   0.724   0.023  0.0645 -0.3659  1.2025
 4860TIP3    H136215   4.415   0.647   0.018 -0.1160 -0.5777  2.3371
 4860TIP3    H236216   4.326   0.735  -0.066  1.5502 -0.4887  0.6064
 4861TIP3   OH236217   3.644   6.160   8.141 -0.5178 -0.4808 -0.0158
 4861TIP3    H136218   3.641   6.247   8.101 -0.7280 -0.6768 -0.4233
 4861TIP3    H236219   3.736   6.133   8.132 -0.0145  0.4592  1.7535
 4862TIP3   OH236220   5.962   0.450   2.521 -0.8842 -0.0953  0.2241
 4862TIP3    H136221   5.898   0.389   2.556 -0.1469 -0.0112  1.8353
 4862TIP3    H236222   6.019   0.470   2.595  1.4837 -0.7587 -1.3034
 4863TIP3   OH236223   4.576   4.013   6.665  0.1980  0.1297 -0.2250
 4863TIP3    H136224   4.533   4.069   6.600  0.0291  0.3684  0.0901
 4863TIP3    H236225   4.552   4.050   6.749  0.2745 -0.2821 -0.0159
 4864TIP3   OH236226   4.439   5.005   0.055 -0.6970 -0.0059 -0.7742
 4864TIP3    H136227   4.410   4.954   0.131 -1.4660 -1.4592 -1.9775
 4864TIP3    H236228   4.533   4.989   0.050 -0.1437  2.1604  1.3061
 4865TIP3   OH236229   6.642   5.055   0.309  0.2926 -0.1010 -0.4002
 4865TIP3    H136230   6.590   5.108   0.250  0.7680 -1.2033 -1.8567
 4865TIP3    H236231   6.618   4.965   0.288 -0.6390 -0.5299  2.1342
 4866TIP3   OH236232   4.439   3.901   1.357  0.0803 -0.3605  1.0048
 4866TIP3    H136233   4.417   3.839   1.426  0.8983 -1.5863  0.2164
 4866TIP3    H236234   4.360   3.909   1.305  0.8763 -3.8077 -1.1264
 4867TIP3   OH236235   2.301   4.927   0.042  0.5106  0.0416 -0.6430
 4867TIP3    H136236   2.362   4.878   0.097 -0.8917 -1.9002 -0.7018
 4867TIP3    H236237   2.325   4.904  -0.048  0.7999  0.6992 -0.7414
 4868TIP3   OH236238   2.480   2.769   6.895 -0.3127 -0.1275 -0.2381
 4868TIP3    H136239   2.556   2.820   6.866 -1.9428  1.2306 -2.4179
 4868TIP3    H236240   2.420   2.834   6.932 -1.0304 -0.9670  0.1191
 4869TIP3   OH236241   2.583   2.930   7.214 -0.0808  0.3643  0.3775
 4869TIP3    H136242   2.642   2.942   7.288 -0.3549  0.6014  0.5604
 4869TIP3    H236243   2.503   2.893   7.253 -0.1532  0.3045  0.1739
 4870TIP3   OH236244   5.327   5.082   1.583 -0.4131 -0.1268 -0.2749
 4870TIP3    H136245   5.258   5.077   1.650  0.4274  0.8972  0.7162
 4870TIP3    H236246   5.357   5.173   1.588  0.1326 -0.2197 -1.5981
 4871TIP3   OH236247   4.213   4.742   7.969 -0.4366 -0.0791  0.4264
 4871TIP3    H136248   4.139   4.745   7.908 -1.9514 -3.2637  1.8669
 4871TIP3    H236249   4.281   4.694   7.922 -0.2330  0.5882  0.0241
 4872TIP3   OH236250   5.017   4.050   6.489  0.1059 -0.2651 -0.3045
 4872TIP3    H136251   5.039   3.987   6.420 -0.6569 -1.6871  0.6955
 4872TIP3    H236252   5.100   4.092   6.510  0.2790  0.5682 -2.3983
 4873TIP3   OH236253   2.725   6.288   0.811 -0.0419  0.7011 -0.1133
 4873TIP3    H136254   2.740   6.202   0.851  0.4407 -0.0757 -1.8550
 4873TIP3    H236255   2.754   6.277   0.720 -3.0405  1.7444 -1.3127
 4874TIP3   OH236256   6.878   6.662   0.156 -0.1021 -0.3885 -0.0169
 4874TIP3    H136257   6.918   6.601   0.218 -1.2874 -0.6344  0.5248
 4874TIP3    H236258   6.797   6.690   0.198  0.0861  1.0512 -0.5543
 4875TIP3   OH236259   5.115   1.781   2.345 -0.3049  0.0551 -0.0296
 4875TIP3    H136260   5.158   1.712   2.396 -0.5404  0.1071  0.2435
 4875TIP3    H236261   5.083   1.842   2.411  0.1610  0.5797 -0.2847
 4876TIP3   OH236262   0.556   0.401   0.177 -0.3818 -0.3106  0.2648
 4876TIP3    H136263   0.472   0.363   0.152  0.6932 -1.4101 -1.9807
 4876TIP3    H236264   0.594   0.337   0.237 -1.3381  0.4748  1.7698
 4877TIP3   OH236265   6.485   2.658   0.178  0.1166  0.0744 -0.1474
 4877TIP3    H136266   6.453   2.573   0.146 -0.1867  0.2010 -0.1859
 4877TIP3    H236267   6.408   2.715   0.175 -0.3653 -0.3597  2.4286
 4878TIP3   OH236268   2.818   3.701   0.675  0.6854 -0.2569  0.2726
 4878TIP3    H136269   2.768   3.735   0.601  1.3093 -0.8134 -0.4190
 4878TIP3    H236270   2.752   3.659   0.731  0.5153 -2.5953 -1.5179
 4879TIP3   OH236271   3.402   4.168   1.631  0.2855 -0.3213  0.5109
 4879TIP3    H136272   3.490   4.173   1.593  0.8707  0.6922  1.9065
 4879TIP3    H236273   3.417   4.134   1.720 -0.4471  1.8293  1.5193
 4880TIP3   OH236274   4.455   2.774   0.570  0.3455 -0.2168 -0.0067
 4880TIP3    H136275   4.513   2.774   0.646  1.8885 -2.5200 -1.0392
 4880TIP3    H236276   4.367   2.770   0.607  1.0298 -0.7476  1.6802
 4881TIP3   OH236277   4.612   1.876   7.903  0.1664  0.4647 -0.1225
 4881TIP3    H136278   4.665   1.810   7.948  1.4255  1.3571 -0.2278
 4881TIP3    H236279   4.536   1.889   7.960  0.8142  0.2418  0.8155
 4882TIP3   OH236280   3.974   1.129   3.189 -0.2917 -0.0560  0.1324
 4882TIP3    H136281   3.940   1.217   3.178 -1.3738 -0.6636 -2.0198
 4882TIP3    H236282   3.957   1.086   3.104 -0.4520 -2.5420  1.3288
 4883TIP3   OH236283   3.868   6.425   1.708  0.0190 -0.0690 -0.0893
 4883TIP3    H136284   3.915   6.348   1.740 -3.9172 -1.7402  2.3979
 4883TIP3    H236285   3.834   6.399   1.622 -0.2170 -0.6297  0.1731
 4884TIP3   OH236286   5.598   6.621   8.195 -0.4233  0.4132 -0.5659
 4884TIP3    H136287   5.520   6.629   8.250 -0.1605  0.5091 -0.2021
 4884TIP3    H236288   5.633   6.534   8.216  0.1925  0.8120  0.1163
 4885TIP3   OH236289   0.543   2.473   0.446 -0.6317 -0.4830  0.1935
 4885TIP3    H136290   0.454   2.473   0.482 -0.4608 -0.8461  0.6243
 4885TIP3    H236291   0.541   2.539   0.377 -0.5581  1.3873  1.8669
 4886TIP3   OH236292   2.141   2.286   0.503  0.4249 -0.3619  0.1915
 4886TIP3    H136293   2.067   2.316   0.450  1.5017  2.3948  0.0734
 4886TIP3    H236294   2.185   2.221   0.448  0.9808  1.7533 -2.0386
 4887TIP3   OH236295   5.651   6.847   8.059  0.1378 -0.0562  0.2061
 4887TIP3    H136296   5.743   6.840   8.033  0.2638  0.3032  0.5506
 4887TIP3    H236297   5.636   6.770   8.114 -0.4428 -1.4571 -1.7949
 4888TIP3   OH236298   5.123   5.060   8.003  0.0759 -0.4322 -0.4673
 4888TIP3    H136299   5.043   5.112   7.996  0.5124  0.5424  1.3326
 4888TIP3    H236300   5.185   5.117   8.048  0.9104 -2.1230  0.6200
 4889TIP3   OH236301   1.390   5.662   6.997  0.4340  0.3435  0.7046
 4889TIP3    H136302   1.323   5.645   6.931 -0.6628 -0.9838  2.1037
 4889TIP3    H236303   1.473   5.659   6.948 -0.4211  0.9996 -0.8590
 4890TIP3   OH236304   4.515   3.602   1.756 -0.3615 -0.5964 -0.2951
 4890TIP3    H136305   4.516   3.698   1.765  0.2988 -0.8073  2.7693
 4890TIP3    H236306   4.435   3.583   1.707 -0.4513  1.4960 -1.0606
 4891TIP3   OH236307   4.276   1.106   0.426  0.1722  0.7403 -0.3738
 4891TIP3    H136308   4.343   1.130   0.490  0.1157  3.1833 -1.1420
 4891TIP3    H236309   4.297   1.157   0.348 -1.7719  0.4939 -1.1208
 4892TIP3   OH236310   3.784   5.422   0.031 -0.8001  0.4956 -0.4411
 4892TIP3    H136311   3.803   5.355   0.098 -0.8465 -1.2869 -2.1091
 4892TIP3    H236312   3.691   5.412   0.013 -0.5779  0.2001 -1.5057
 4893TIP3   OH236313   2.245   4.086   6.511 -0.5456 -0.0358 -0.5083
 4893TIP3    H136314   2.331   4.124   6.492 -0.1584  0.1014  1.3729
 4893TIP3    H236315   2.240   4.010   6.452  0.6600  0.2251 -0.9933
 4894TIP3   OH236316   3.388   1.407   1.242  0.2644  0.4741 -0.0984
 4894TIP3    H136317   3.460   1.389   1.302  2.1168  0.9195 -2.0748
 4894TIP3    H236318   3.340   1.479   1.283  1.1126  0.3979  1.0928
 4895TIP3   OH236319   4.470   5.768   7.323 -0.2746  0.0635 -0.3604
 4895TIP3    H136320   4.477   5.818   7.405  0.2352  0.9883 -0.9590
 4895TIP3    H236321   4.560   5.746   7.300 -0.5631 -2.8686  0.9027
 4896TIP3   OH236322   2.795   2.574   2.133 -0.1356  0.3702 -0.3033
 4896TIP3    H136323   2.795   2.542   2.223  1.2021 -0.8047 -0.6735
 4896TIP3    H236324   2.779   2.495   2.080 -1.0630  1.0668 -1.0972
 4897TIP3   OH236325   0.608   5.971   1.124  0.2587 -0.5655 -0.1793
 4897TIP3    H136326   0.513   5.979   1.122  0.1426 -1.3820  1.2743
 4897TIP3    H236327   0.626   5.902   1.187  1.8509  0.2571  0.3435
 4898TIP3   OH236328   0.261   0.880   2.523  0.1990 -0.3727 -0.1308
 4898TIP3    H136329   0.300   0.917   2.602 -0.0259 -1.8294  0.7023
 4898TIP3    H236330   0.231   0.793   2.549 -0.1609 -0.7774 -1.7456
 4899TIP3   OH236331   6.815   4.403   0.431  0.3420 -0.1759  0.0939
 4899TIP3    H136332   6.846   4.443   0.512 -0.8428  0.1938  0.3886
 4899TIP3    H236333   6.790   4.314   0.456 -2.2247  0.6387  0.7165
 4900TIP3   OH236334   4.369   2.593   0.106 -0.0304  0.5962 -0.0070
 4900TIP3    H136335   4.382   2.684   0.076 -1.2754  0.2492 -1.7359
 4900TIP3    H236336   4.444   2.576   0.162  0.7144  2.4133 -0.3726
 4901TIP3   OH236337   5.781   5.855   8.390 -0.1408  0.2197  0.3881
 4901TIP3    H136338   5.749   5.813   8.470 -2.6136  1.9193  0.4053
 4901TIP3    H236339   5.827   5.933   8.421 -1.8226  1.3362  0.2147
 4902TIP3   OH236340   1.942   5.139   1.215  0.5144 -0.1365  0.6422
 4902TIP3    H136341   1.963   5.230   1.234 -1.7895  0.5149  0.4363
 4902TIP3    H236342   1.850   5.130   1.240 -0.2399 -1.5271 -2.1449
 4903TIP3   OH236343   2.469   6.856   7.641 -0.3490  0.3136  0.4320
 4903TIP3    H136344   2.545   6.890   7.593 -2.1127  0.5657 -2.4124
 4903TIP3    H236345   2.402   6.923   7.630 -1.1026  0.0179  2.7309
 4904TIP3   OH236346   5.073   2.207   8.236  0.2856  0.0984  0.2152
 4904TIP3    H136347   5.056   2.295   8.203 -2.0326 -0.8396 -1.3861
 4904TIP3    H236348   5.063   2.215   8.331  1.8350  1.8524  0.2776
 4905TIP3   OH236349   3.748   3.211   0.695 -0.3782  0.1508 -0.2645
 4905TIP3    H136350   3.757   3.131   0.746  1.0913  1.6037  1.9265
 4905TIP3    H236351   3.815   3.270   0.730 -0.2296  1.7815 -2.9585
 4906TIP3   OH236352   3.033   3.497   0.484  1.0523 -0.4944  0.1107
 4906TIP3    H136353   3.038   3.404   0.508 -1.6973 -0.4401  1.2916
 4906TIP3    H236354   3.030   3.543   0.567  0.1150  0.4357 -0.4094
 4907TIP3   OH236355   3.233   1.818   2.358 -0.2510 -0.2180 -0.0593
 4907TIP3    H136356   3.254   1.851   2.446  1.5320  2.1554 -1.2671
 4907TIP3    H236357   3.156   1.868   2.332 -0.8538 -1.0093  0.1640
 4908TIP3   OH236358   4.974   3.915   1.910 -0.1399  0.3013 -0.1990
 4908TIP3    H136359   5.018   3.867   1.980 -0.1629  0.0568 -0.3513
 4908TIP3    H236360   4.883   3.885   1.913 -0.1425  0.2913 -0.3281
 4909TIP3   OH236361   1.978   5.374   1.360  0.0428 -0.1782  0.1759
 4909TIP3    H136362   2.071   5.386   1.378 -0.2181 -0.4062  1.7326
 4909TIP3    H236363   1.939   5.459   1.382 -0.3624 -0.6442  1.3091
 4910TIP3   OH236364   2.419   0.851   7.602  0.8577 -0.1801 -0.5065
 4910TIP3    H136365   2.479   0.832   7.530  0.9754  0.4048 -0.5713
 4910TIP3    H236366   2.338   0.881   7.559  0.7664 -0.2804 -0.4051
 4911TIP3   OH236367   6.277   1.217   0.337  0.0585  0.6497 -0.6754
 4911TIP3    H136368   6.322   1.144   0.294 -1.3466 -0.4021 -0.4196
 4911TIP3    H236369   6.343   1.254   0.396  0.7841 -0.4205 -0.7874
 4912TIP3   OH236370   3.660   2.072   0.355 -0.3830 -0.2278 -0.6928
 4912TIP3    H136371   3.631   2.121   0.432  0.7777 -2.6925  1.4622
 4912TIP3    H236372   3.709   2.136   0.303 -2.1356  1.7931 -0.0290
 4913TIP3   OH236373   4.182   4.281   7.189 -0.9625  0.0573 -0.0202
 4913TIP3    H136374   4.175   4.266   7.095 -0.1814  0.7105 -0.1971
 4913TIP3    H236375   4.261   4.235   7.216 -0.8694  0.3413  0.2065
 4914TIP3   OH236376   4.852   0.511   8.259  0.4280  0.0798 -0.4444
 4914TIP3    H136377   4.858   0.481   8.168  2.0614 -1.3362  0.0879
 4914TIP3    H236378   4.770   0.474   8.291  0.4395 -0.4338 -0.9968
 4915TIP3   OH236379   1.252   3.130   1.748 -0.4854  0.5283  0.0962
 4915TIP3    H136380   1.176   3.119   1.804 -0.1152  0.5470  0.6143
 4915TIP3    H236381   1.272   3.042   1.716 -0.6060  0.4920  0.1230
 4916TIP3   OH236382   5.987   1.277   7.735  0.4972  0.2244  0.0095
 4916TIP3    H136383   6.018   1.354   7.783 -1.0230 -0.1533  1.7084
 4916TIP3    H236384   5.982   1.208   7.800 -2.3307 -0.1239 -0.4486
 4917TIP3   OH236385   1.628   5.886   7.280  0.1063 -0.2939 -0.5668
 4917TIP3    H136386   1.588   5.963   7.239  1.0641  1.0760  0.9858
 4917TIP3    H236387   1.704   5.867   7.225  0.6957  0.7886 -0.1585
 4918TIP3   OH236388   3.490   3.658   0.264 -0.0601 -0.0409  0.2635
 4918TIP3    H136389   3.569   3.619   0.225 -0.1799 -1.4853  1.3869
 4918TIP3    H236390   3.460   3.721   0.199  0.2651 -1.7029 -1.5873
 4919TIP3   OH236391   6.900   4.854   7.892 -0.0900 -0.4303  0.4729
 4919TIP3    H136392   6.947   4.852   7.975  0.0311  0.1922  0.4283
 4919TIP3    H236393   6.968   4.867   7.826 -0.1176 -1.5577  0.2053
 4920TIP3   OH236394   4.790   4.462   0.875 -0.1652  0.2957 -0.0460
 4920TIP3    H136395   4.820   4.383   0.831 -0.2290  0.0592  0.3283
 4920TIP3    H236396   4.779   4.526   0.805 -0.1487 -0.0387 -0.3564
 4921TIP3   OH236397   2.655   6.556   2.626  0.8785 -0.9980 -0.0804
 4921TIP3    H136398   2.666   6.600   2.541 -0.2503 -0.9923 -0.2378
 4921TIP3    H236399   2.674   6.625   2.690  0.5698 -0.6801 -0.3250
 4922TIP3   OH236400   3.684   5.245   0.405  0.2670  0.0694 -0.1842
 4922TIP3    H136401   3.686   5.183   0.333 -2.1617 -1.2842  0.8073
 4922TIP3    H236402   3.717   5.327   0.367 -0.3488 -0.7374 -2.6418
 4923TIP3   OH236403   5.568   2.144   7.339 -0.3112  0.5078  0.8671
 4923TIP3    H136404   5.520   2.226   7.348 -0.8895 -0.0158  3.0502
 4923TIP3    H236405   5.524   2.083   7.397 -0.8841 -1.9018 -1.8610
 4924TIP3   OH236406   5.411   6.612   7.829 -0.0834  0.6288  0.0786
 4924TIP3    H136407   5.492   6.593   7.782 -0.2714  1.0928 -0.4484
 4924TIP3    H236408   5.412   6.707   7.842 -0.4168  0.6068  0.3034
 4925TIP3   OH236409   0.402   0.131   7.869 -0.0217  0.2868 -0.4017
 4925TIP3    H136410   0.347   0.137   7.791  0.4207  0.5122 -0.7046
 4925TIP3    H236411   0.468   0.199   7.857 -0.6377  1.1070  0.7340
 4926TIP3   OH236412   0.059   3.140   7.455 -0.7256  0.2503  0.2989
 4926TIP3    H136413   0.098   3.152   7.369 -1.9954 -1.5826 -0.6089
 4926TIP3    H236414  -0.036   3.150   7.440 -0.9576 -0.0398  1.4731
 4927TIP3   OH236415   2.907   3.504   2.524  0.0163  0.1192 -1.0054
 4927TIP3    H136416   2.880   3.579   2.578 -0.2806  0.5793 -1.7792
 4927TIP3    H236417   2.999   3.522   2.503  0.2443 -0.2454 -0.3686
 4928TIP3   OH236418   6.452   5.227   0.199  0.0789  0.2224  0.0314
 4928TIP3    H136419   6.460   5.216   0.104  2.0044  0.2280  0.1451
 4928TIP3    H236420   6.458   5.322   0.212  0.4314  0.1796  0.1901
 4929TIP3   OH236421   5.398   3.021   1.066 -0.1297  0.2648 -0.3233
 4929TIP3    H136422   5.320   2.966   1.055  0.4353 -0.3872 -1.2820
 4929TIP3    H236423   5.364   3.106   1.094 -0.9952 -0.6941  1.7344
 4930TIP3   OH236424   0.596   5.409   0.089 -0.5617  0.4737 -0.0828
 4930TIP3    H136425   0.639   5.441   0.010 -0.5096  0.3073 -0.1228
 4930TIP3    H236426   0.531   5.346   0.057 -0.9867  0.8846 -0.0384
 4931TIP3   OH236427   4.926   5.602   1.741  0.4748 -0.9355 -0.0761
 4931TIP3    H136428   4.989   5.672   1.721  1.1738 -1.5627 -0.0978
 4931TIP3    H236429   4.962   5.524   1.699 -0.4082 -1.2759 -0.2330
 4932TIP3   OH236430   2.934   0.213   0.945  0.3460  0.0934 -0.0318
 4932TIP3    H136431   2.844   0.199   0.976  0.8427 -0.8245  1.0762
 4932TIP3    H236432   2.929   0.201   0.850 -0.8498  0.9215 -0.1008
 4933TIP3   OH236433   4.963   0.093   2.258  0.7610 -0.2836 -0.0504
 4933TIP3    H136434   4.996   0.082   2.169 -0.4178 -3.1216 -0.2459
 4933TIP3    H236435   5.020   0.037   2.311 -0.2230 -0.7462  0.5319
 4934TIP3   OH236436   6.346   6.368   1.525  0.0940  0.3297 -0.4592
 4934TIP3    H136437   6.363   6.374   1.619  0.9736 -0.1799 -0.5708
 4934TIP3    H236438   6.300   6.449   1.504  1.0667  1.0723  0.1745
 4935TIP3   OH236439   2.024   5.065   8.339  0.2561 -0.5400  0.6621
 4935TIP3    H136440   1.969   5.007   8.287  0.3267 -1.6785  1.8081
 4935TIP3    H236441   2.112   5.054   8.302 -0.0852  0.6263 -0.6070
 4936TIP3   OH236442   5.914   5.207   7.940 -0.7734 -0.0700 -0.1893
 4936TIP3    H136443   5.969   5.148   7.888 -1.7463 -0.2233 -1.0800
 4936TIP3    H236444   5.868   5.149   8.001 -0.3416 -0.0015  0.2073
 4937TIP3   OH236445   5.450   3.731   0.947  0.1512  0.2543 -0.5034
 4937TIP3    H136446   5.420   3.719   1.037 -0.3729 -0.4104 -0.7548
 4937TIP3    H236447   5.487   3.646   0.923 -0.3005  0.2339 -1.1346
 4938TIP3   OH236448   2.004   5.839   2.431 -0.5537  0.6779  0.2811
 4938TIP3    H136449   2.066   5.857   2.501 -0.9743 -0.1552  0.8916
 4938TIP3    H236450   1.931   5.898   2.447 -1.7945 -1.2138  2.0893
 4939TIP3   OH236451   0.549   6.514   1.311 -0.8497  0.4560 -0.0720
 4939TIP3    H136452   0.538   6.601   1.275  0.0167 -0.1641 -1.9875
 4939TIP3    H236453   0.613   6.472   1.253 -0.5597 -1.1502  1.3237
 4940TIP3   OH236454   1.573   5.573   0.164  0.4027  0.1374 -0.0016
 4940TIP3    H136455   1.635   5.625   0.113 -0.2808  0.3231 -0.6727
 4940TIP3    H236456   1.603   5.483   0.155  0.7306  0.2558 -0.0930
 4941TIP3   OH236457   2.267   0.713   7.771 -0.3757  0.0480  0.3320
 4941TIP3    H136458   2.346   0.756   7.738 -0.2456  0.5914  1.3138
 4941TIP3    H236459   2.299   0.655   7.840 -0.6759 -0.8391 -0.2624
 4942TIP3   OH236460   1.060   0.254   0.225 -0.1448 -0.8002 -0.0962
 4942TIP3    H136461   1.020   0.317   0.165  0.3244 -0.8181 -0.4341
 4942TIP3    H236462   1.106   0.308   0.290 -3.4078 -0.6199  2.3331
 4943TIP3   OH236463   0.055   3.127   2.533 -0.1384 -0.2716 -0.6773
 4943TIP3    H136464   0.070   3.141   2.626  1.5396 -0.8162 -0.8145
 4943TIP3    H236465   0.143   3.113   2.497 -0.8276 -1.0008 -2.1752
 4944TIP3   OH236466   1.476   1.984   2.737  0.6215 -0.0647  0.5391
 4944TIP3    H136467   1.502   1.892   2.742  0.1719 -0.1311  1.8094
 4944TIP3    H236468   1.381   1.982   2.737  0.5875  0.3414 -0.9849
 4945TIP3   OH236469   0.970   2.244   8.052  0.3603  0.0581  0.5002
 4945TIP3    H136470   1.024   2.196   7.989  0.0348 -1.1229  1.0838
 4945TIP3    H236471   0.970   2.334   8.021 -0.3053 -0.5999 -1.5357
 4946TIP3   OH236472   3.398   0.331   3.017  0.5459 -0.1157  0.4554
 4946TIP3    H136473   3.396   0.260   3.081  0.6861 -0.0584  0.5244
 4946TIP3    H236474   3.360   0.406   3.063  1.5488  0.1963  0.8110
 4947TIP3   OH236475   2.380   5.917   0.540 -0.2583  0.7476 -0.6417
 4947TIP3    H136476   2.314   5.986   0.546  0.3203  1.2197  0.8758
 4947TIP3    H236477   2.348   5.848   0.599 -0.5255 -0.0361 -1.6767
 4948TIP3   OH236478   1.030   6.027   0.347 -0.0908  0.2681 -0.2755
 4948TIP3    H136479   1.094   5.964   0.313 -0.0910 -0.0733  0.3382
 4948TIP3    H236480   1.077   6.110   0.348  0.0141  0.2193 -0.7887
 4949TIP3   OH236481   4.340   3.868   0.555 -0.4971 -0.0067  0.0430
 4949TIP3    H136482   4.428   3.901   0.536 -0.5537  1.2999  1.7053
 4949TIP3    H236483   4.290   3.887   0.476  1.0512 -2.3541 -1.6186
 4950TIP3   OH236484   3.131   2.483   7.781  0.3415 -0.0802 -0.0477
 4950TIP3    H136485   3.196   2.413   7.775 -0.3659 -0.7660  0.1752
 4950TIP3    H236486   3.149   2.539   7.706  1.1886 -0.2627  0.0100
 4951TIP3   OH236487   5.253   4.429   1.284 -0.4255 -0.3392 -0.2445
 4951TIP3    H136488   5.173   4.416   1.233 -0.2159 -0.9631 -0.4292
 4951TIP3    H236489   5.265   4.347   1.332 -0.3775  0.0782  0.4737
 4952TIP3   OH236490   3.642   3.631   8.404  0.2992 -0.2333 -0.2212
 4952TIP3    H136491   3.643   3.617   8.498 -0.1410  1.5728  0.0780
 4952TIP3    H236492   3.610   3.720   8.392  1.9621  0.2167 -1.9930
 4953TIP3   OH236493   2.270   1.872   7.744 -0.3730  0.4102  0.5602
 4953TIP3    H136494   2.230   1.786   7.738  0.3942  0.0622  0.2368
 4953TIP3    H236495   2.245   1.915   7.662  0.7366 -0.1860 -0.1186
 4954TIP3   OH236496   6.534   2.665   7.066 -0.0258 -0.0700  0.1721
 4954TIP3    H136497   6.509   2.636   6.979 -1.3967  1.0186  0.1623
 4954TIP3    H236498   6.450   2.680   7.111  0.6231 -1.2659  1.9241
 4955TIP3   OH236499   3.454   6.476   8.328 -0.0829 -0.3618  0.7210
 4955TIP3    H136500   3.519   6.446   8.264 -1.5719  1.8065 -2.0712
 4955TIP3    H236501   3.480   6.566   8.348 -2.0229  0.5198 -0.3719
 4956TIP3   OH236502   3.922   6.272   7.916 -0.0736  0.1293  0.0948
 4956TIP3    H136503   3.897   6.237   8.002 -0.0260  1.0576  0.4945
 4956TIP3    H236504   3.985   6.208   7.882 -0.2749 -0.3725  0.6413
 4957TIP3   OH236505   3.376   1.907   1.497  0.4488 -0.1045  0.2413
 4957TIP3    H136506   3.343   1.829   1.453 -0.5551  0.0223  0.7473
 4957TIP3    H236507   3.309   1.973   1.483  0.0885 -0.0661  1.9671
 4958TIP3   OH236508   0.853   6.241   6.791 -0.7121 -0.6067  0.5893
 4958TIP3    H136509   0.833   6.150   6.769 -0.8165 -0.3785 -0.2751
 4958TIP3    H236510   0.774   6.272   6.836 -0.2222 -1.2841  1.9841
 4959TIP3   OH236511   6.347   0.902   7.137  0.1620  0.1840 -0.1575
 4959TIP3    H136512   6.373   0.938   7.052  0.7280  0.6902  0.2218
 4959TIP3    H236513   6.382   0.964   7.200  1.9856 -1.5105  0.5888
 4960TIP3   OH236514   1.844   6.686   2.551 -0.5179 -0.1482 -0.2964
 4960TIP3    H136515   1.899   6.764   2.555 -0.3116 -0.3433  1.1274
 4960TIP3    H236516   1.906   6.613   2.553 -0.7847 -0.3646  0.9936
 4961TIP3   OH236517   5.499   4.047   7.717  0.2709  0.0316  0.3767
 4961TIP3    H136518   5.417   4.087   7.689 -0.1732 -0.1332  1.3844
 4961TIP3    H236519   5.482   4.021   7.808  1.0763 -0.9804  0.2472
 4962TIP3   OH236520   3.160   3.235   8.360  0.3504 -0.1760 -0.5664
 4962TIP3    H136521   3.156   3.329   8.380 -0.5602 -0.0003 -1.4801
 4962TIP3    H236522   3.239   3.226   8.306  0.5815  0.0190 -0.2642
 4963TIP3   OH236523   1.620   0.106   1.407 -0.0549 -0.3772 -0.5094
 4963TIP3    H136524   1.681   0.137   1.474  0.3480 -1.2432 -0.4558
 4963TIP3    H236525   1.540   0.086   1.456 -0.8780  1.9875 -0.7595
 4964TIP3   OH236526   5.798   1.144   0.073 -0.3765 -0.0495  0.2057
 4964TIP3    H136527   5.718   1.153   0.020 -0.2050 -1.1802 -0.2831
 4964TIP3    H236528   5.861   1.101   0.015  0.1298 -0.4449  1.0205
 4965TIP3   OH236529   4.211   4.840   0.530 -0.3375 -0.3215 -0.4309
 4965TIP3    H136530   4.117   4.860   0.530 -0.1621  0.5633  0.6547
 4965TIP3    H236531   4.226   4.796   0.613  0.2736 -0.1614 -0.4554
 4966TIP3   OH236532   1.132   6.014   1.261  0.0735  0.6777 -0.1047
 4966TIP3    H136533   1.159   6.027   1.170  1.0889 -0.2001  0.0420
 4966TIP3    H236534   1.040   5.988   1.256 -0.1797  1.6371 -0.7936
 4967TIP3   OH236535   5.907   5.971   1.169  0.1892  0.1828  0.3429
 4967TIP3    H136536   5.915   5.929   1.254  2.6761 -2.9211 -1.2084
 4967TIP3    H236537   5.995   5.998   1.146 -0.0694 -0.5446 -1.8491
 4968TIP3   OH236538   5.296   6.519   8.056  0.1253  0.1729  0.0953
 4968TIP3    H136539   5.325   6.559   7.974  0.1116  2.5271  1.1737
 4968TIP3    H236540   5.347   6.438   8.062  2.0241  1.2063 -1.0290
 4969TIP3   OH236541   5.919   2.869   8.141  0.1383 -0.2870 -0.0039
 4969TIP3    H136542   5.925   2.809   8.067  1.3044  0.9776 -1.0071
 4969TIP3    H236543   5.901   2.813   8.216  0.4392 -1.7960 -0.9994
 4970TIP3   OH236544   0.679   5.100   7.817  0.5760  0.1749 -0.2202
 4970TIP3    H136545   0.681   5.056   7.732 -0.1868 -0.2767 -0.0140
 4970TIP3    H236546   0.753   5.160   7.815  0.6341  0.0825 -1.1614
 4971TIP3   OH236547   4.461   1.203   2.665 -0.8749 -0.5549  0.4509
 4971TIP3    H136548   4.403   1.200   2.589 -0.0858 -0.6873 -0.1581
 4971TIP3    H236549   4.545   1.232   2.630 -0.4417 -0.8245  1.2393
 4972TIP3   OH236550   0.510   6.040   1.818  0.5748  0.0958  0.2119
 4972TIP3    H136551   0.482   6.115   1.766  1.4126  1.5288  1.7441
 4972TIP3    H236552   0.430   6.008   1.859  0.5789  1.9654  1.7915
 4973TIP3   OH236553   3.574   3.206   8.038  0.0721  0.4299  0.4423
 4973TIP3    H136554   3.668   3.218   8.054  0.4570 -2.6292  1.1505
 4973TIP3    H236555   3.567   3.200   7.943  0.5961  0.6150  0.3874
 4974TIP3   OH236556   5.657   0.770   0.267 -0.2143  0.2786  0.7386
 4974TIP3    H136557   5.714   0.755   0.191 -2.2339  0.8677 -0.9699
 4974TIP3    H236558   5.674   0.861   0.291  0.4995  0.0632  1.0975
 4975TIP3   OH236559   3.082   2.098   1.936 -0.1086 -0.1227  0.3008
 4975TIP3    H136560   3.056   2.123   2.025 -0.0986  0.1049  0.2396
 4975TIP3    H236561   3.177   2.088   1.941 -0.0143  0.6274  0.1376
 4976TIP3   OH236562   4.231   5.103   8.422  0.1807 -0.1342 -0.6633
 4976TIP3    H136563   4.168   5.034   8.444  0.1144 -0.6788 -2.4640
 4976TIP3    H236564   4.308   5.083   8.475 -0.1165 -1.1264 -0.5858
 4977TIP3   OH236565   5.717   1.122   1.649  0.0562 -0.1492  0.4190
 4977TIP3    H136566   5.792   1.179   1.668  0.7353 -0.4667 -1.1197
 4977TIP3    H236567   5.751   1.034   1.664 -0.2729 -0.2478  0.5692
 4978TIP3   OH236568   1.416   1.036   6.883 -0.1233 -0.2161 -0.5899
 4978TIP3    H136569   1.384   1.122   6.859 -0.2783 -0.0167  0.3139
 4978TIP3    H236570   1.337   0.981   6.889 -0.1975 -0.0162  0.4443
 4979TIP3   OH236571   3.871   5.863   0.904  0.6852  0.0281 -0.0952
 4979TIP3    H136572   3.961   5.892   0.890  0.2121  1.1092 -0.9781
 4979TIP3    H236573   3.828   5.937   0.945 -0.4926  0.5916 -2.2044
 4980TIP3   OH236574   4.540   6.053   1.240  0.2482  0.0775 -0.0669
 4980TIP3    H136575   4.543   5.969   1.194  0.7759  0.2462 -0.3382
 4980TIP3    H236576   4.630   6.086   1.238  0.0023  0.7658 -0.1760
 4981TIP3   OH236577   0.764   5.414   1.689  0.3070 -0.2543  0.0914
 4981TIP3    H136578   0.688   5.448   1.642  0.5128  1.3467  0.8458
 4981TIP3    H236579   0.743   5.426   1.782  0.8821 -1.1641  0.3590
 4982TIP3   OH236580   1.855   1.621   8.481 -0.4951  0.2112 -0.2250
 4982TIP3    H136581   1.920   1.633   8.412  0.0210 -1.5644 -0.1049
 4982TIP3    H236582   1.784   1.572   8.438 -1.9342  2.3639 -0.4288
 4983TIP3   OH236583   6.859   4.321   8.164 -0.3085  0.4302 -0.2712
 4983TIP3    H136584   6.897   4.235   8.148 -1.3420  0.0080 -0.5529
 4983TIP3    H236585   6.822   4.347   8.079 -0.8431  0.7153  0.0436
 4984TIP3   OH236586   5.751   2.462   7.807 -0.4728 -0.7491  0.3434
 4984TIP3    H136587   5.695   2.413   7.747 -1.4601 -0.5300  1.0428
 4984TIP3    H236588   5.805   2.517   7.751 -1.9686  0.0795 -0.3350
 4985TIP3   OH236589   0.907   1.126   0.401 -0.3810  1.0205  0.1071
 4985TIP3    H136590   0.942   1.214   0.418  0.8084  0.8184 -1.1095
 4985TIP3    H236591   0.816   1.130   0.431 -0.0059  2.2978  1.1788
 4986TIP3   OH236592   4.288   0.211   1.192  0.6463  0.0540  0.1249
 4986TIP3    H136593   4.300   0.285   1.251 -0.0860 -0.1276  0.5085
 4986TIP3    H236594   4.263   0.139   1.250  0.1703 -0.1871 -0.3801
 4987TIP3   OH236595   4.602   3.009   0.664  0.1640  0.1098 -0.1860
 4987TIP3    H136596   4.627   2.929   0.710 -0.9515 -0.8738 -1.2210
 4987TIP3    H236597   4.609   2.985   0.571 -2.1013  0.5579 -0.5254
 4988TIP3   OH236598   0.240   1.473   7.563 -0.2298  0.4024 -0.3455
 4988TIP3    H136599   0.267   1.431   7.481 -2.5012  0.5942 -1.2657
 4988TIP3    H236600   0.220   1.563   7.538 -2.3526  0.0946  0.0467
 4989TIP3   OH236601   0.772   4.330   7.849 -0.1966 -0.2363 -0.3135
 4989TIP3    H136602   0.796   4.423   7.846  1.1510 -0.3877  2.3995
 4989TIP3    H236603   0.677   4.331   7.860  0.0029  1.0066  2.0836
 4990TIP3   OH236604   2.786   0.714   1.660  0.6403  0.2841  0.4544
 4990TIP3    H136605   2.696   0.748   1.662  1.0941  1.5132  1.8707
 4990TIP3    H236606   2.795   0.676   1.573 -1.2565  0.1136  0.2784
 4991TIP3   OH236607   1.497   2.515   1.400  0.2233 -0.6603  0.1849
 4991TIP3    H136608   1.518   2.426   1.372  1.1991 -0.1604 -0.7482
 4991TIP3    H236609   1.521   2.518   1.492  0.3463 -1.3119  0.1776
 4992TIP3   OH236610   3.136   4.607   0.186  0.5129 -0.0936 -0.5943
 4992TIP3    H136611   3.080   4.659   0.129  1.1784  0.5591 -0.6621
 4992TIP3    H236612   3.210   4.582   0.131  0.7628 -0.1336 -0.2438
 4993TIP3   OH236613   4.846   1.499   8.259  0.4592 -0.3636 -0.2954
 4993TIP3    H136614   4.823   1.406   8.250  0.9181 -0.5233  0.1833
 4993TIP3    H236615   4.911   1.514   8.190  1.3508 -0.7235  0.4476
 4994TIP3   OH236616   2.579   1.193   2.180  0.0493  0.7332  0.2128
 4994TIP3    H136617   2.558   1.193   2.087 -0.2400  0.6697  0.2763
 4994TIP3    H236618   2.672   1.172   2.184  0.0356  0.6172 -0.0570
 4995TIP3   OH236619   5.710   1.341   0.705 -0.0810 -0.5297  0.4108
 4995TIP3    H136620   5.664   1.387   0.635  0.4165  0.4019  0.6698
 4995TIP3    H236621   5.800   1.331   0.672 -0.2980 -1.7964  0.1486
 4996TIP3   OH236622   6.861   0.751   1.472  0.7435  0.8405  0.0587
 4996TIP3    H136623   6.802   0.817   1.509  0.5485  0.6475  0.0946
 4996TIP3    H236624   6.882   0.694   1.546 -1.9833 -1.3192 -0.6457
 4997TIP3   OH236625   2.163   0.115   8.400  0.5561  0.0710  0.0374
 4997TIP3    H136626   2.128   0.134   8.487  0.0480  1.6283 -0.4808
 4997TIP3    H236627   2.249   0.075   8.417  0.2254 -0.1714  1.2420
 4998TIP3   OH236628   5.494   6.025   0.969 -0.0931 -1.0098  0.5344
 4998TIP3    H136629   5.573   6.080   0.970 -0.0612 -1.0563  0.6150
 4998TIP3    H236630   5.424   6.083   0.940  0.2601 -1.3531 -1.0856
 4999TIP3   OH236631   2.802   0.071   2.293  0.1543  0.6273  0.4267
 4999TIP3    H136632   2.725   0.046   2.242 -0.2053  1.3379  0.6138
 4999TIP3    H236633   2.807   0.005   2.362 -1.2547  1.4623  1.3916
 5000TIP3   OH236634   5.020   6.816   7.942  0.0077  0.1358  0.2252
 5000TIP3    H136635   5.054   6.753   8.005 -0.1297  1.5387  1.7703
 5000TIP3    H236636   5.063   6.793   7.860 -0.8295 -2.5925  0.4522
 5001TIP3   OH236637   3.203   6.750   7.404  0.2927 -0.4002 -0.0125
 5001TIP3    H136638   3.262   6.819   7.433  0.2953 -0.8454  1.0869
 5001TIP3    H236639   3.202   6.757   7.309 -0.4335  1.7124  0.1120
 5002TIP3   OH236640   1.169   0.499   1.621 -0.7257  0.5345 -0.4061
 5002TIP3    H136641   1.098   0.478   1.560 -0.0145 -3.2081 -0.1865
 5002TIP3    H236642   1.244   0.517   1.565 -0.9868  1.0792 -0.5973
 5003TIP3   OH236643   6.939   5.186   8.079  0.5142  0.6069 -0.2020
 5003TIP3    H136644   6.971   5.173   8.168  0.4993  0.5423 -0.2057
 5003TIP3    H236645   6.846   5.207   8.090  0.6113  1.0398 -0.1770
 5004TIP3   OH236646   0.172   3.447   0.189  0.0464 -0.2339  0.0090
 5004TIP3    H136647   0.197   3.360   0.220 -3.6335 -1.5683 -0.1531
 5004TIP3    H236648   0.218   3.508   0.246  0.9406 -2.3584  1.7091
 5005TIP3   OH236649   1.620   4.658   1.110  0.0276  0.0646  0.3008
 5005TIP3    H136650   1.553   4.664   1.041 -0.8721 -1.0978  1.0262
 5005TIP3    H236651   1.577   4.608   1.180  1.6521 -0.6774  0.8039
 5006TIP3   OH236652   6.251   6.677   3.028 -0.7409  0.1231  0.1517
 5006TIP3    H136653   6.235   6.760   3.074 -2.1431 -0.8188  1.4560
 5006TIP3    H236654   6.173   6.624   3.046 -0.3132 -1.1320 -1.4751
 5007TIP3   OH236655   1.985   3.473   1.143  0.5083  0.1673 -0.2269
 5007TIP3    H136656   1.996   3.452   1.051  0.1358  3.2438 -1.0948
 5007TIP3    H236657   1.891   3.489   1.153  0.5496 -0.0928  0.6959
 5008TIP3   OH236658   0.464   5.000   7.980  0.8313  1.2338  0.4137
 5008TIP3    H136659   0.541   5.017   7.926  0.3578 -1.0492 -1.0937
 5008TIP3    H236660   0.433   5.087   8.005  0.6540  2.5344 -3.6174
 5009TIP3   OH236661   5.440   2.260   0.672 -0.2444 -0.2452  0.8501
 5009TIP3    H136662   5.480   2.197   0.732 -0.8225 -1.5555 -0.0867
 5009TIP3    H236663   5.485   2.343   0.690  0.2998 -0.8364  2.3537
 5010TIP3   OH236664   5.704   2.631   0.644 -0.0033  0.4245  0.5831
 5010TIP3    H136665   5.629   2.689   0.632 -0.6526 -0.5714 -0.2445
 5010TIP3    H236666   5.679   2.549   0.603  2.3313  0.7206 -1.7434
 5011TIP3   OH236667   2.887   5.961   8.282  0.1224 -0.2657 -0.5469
 5011TIP3    H136668   2.939   5.910   8.221 -0.9742 -0.8451 -1.0262
 5011TIP3    H236669   2.817   5.902   8.310 -0.2686  0.4747  0.0887
 5012TIP3   OH236670   1.637   0.047   0.715 -0.6182 -0.8055 -0.8024
 5012TIP3    H136671   1.670  -0.036   0.750  0.9018  0.6051  1.3383
 5012TIP3    H236672   1.715   0.091   0.681 -0.9862  0.6795  0.1933
 5013TIP3   OH236673   3.930   5.537   1.122 -0.3031  0.2856  0.0392
 5013TIP3    H136674   3.974   5.621   1.136  0.4526 -0.1968  0.6492
 5013TIP3    H236675   4.001   5.476   1.101 -0.7262 -0.4217  0.6333
 5014TIP3   OH236676   1.150   0.613   0.696  0.2144  0.4712 -0.3461
 5014TIP3    H136677   1.056   0.630   0.686 -0.1458 -1.5207 -0.6989
 5014TIP3    H236678   1.161   0.592   0.789  0.7480  2.9019  0.2055
 5015TIP3   OH236679   6.397   4.851   1.406 -0.0515 -0.3440 -0.1295
 5015TIP3    H136680   6.390   4.861   1.501  0.0375 -1.9655  0.0724
 5015TIP3    H236681   6.460   4.918   1.379 -2.9219  2.8483  0.3600
 5016TIP3   OH236682   5.896   5.553   0.592 -0.5326 -0.3519 -0.1801
 5016TIP3    H136683   5.830   5.503   0.545  0.4888 -0.1489 -1.9173
 5016TIP3    H236684   5.975   5.500   0.586  0.2772  0.9091 -1.0696
 5017TIP3   OH236685   4.672   0.871   0.551  0.1804 -0.3823  0.1462
 5017TIP3    H136686   4.732   0.921   0.495  0.3546  1.1665  1.6509
 5017TIP3    H236687   4.589   0.873   0.503  0.5135  0.2378 -0.4357
 5018TIP3   OH236688   3.381   6.500   7.596  0.1583 -0.0463  0.8859
 5018TIP3    H136689   3.454   6.552   7.629  0.8246  0.0259 -0.6245
 5018TIP3    H236690   3.304   6.555   7.610  0.8882  1.5880 -1.0514
 5019TIP3   OH236691   2.745   5.918   2.433 -0.1026 -0.2965 -0.7932
 5019TIP3    H136692   2.802   5.860   2.384 -1.6105 -2.5470 -0.0196
 5019TIP3    H236693   2.736   5.877   2.519 -1.0486  1.2119 -0.1232
 5020TIP3   OH236694   3.253   6.231   7.715  0.5609  0.2876 -0.1586
 5020TIP3    H136695   3.176   6.202   7.665  0.4486 -2.0225  1.1992
 5020TIP3    H236696   3.328   6.203   7.662  0.4397 -1.7148  0.6423
 5021TIP3   OH236697   0.291   0.364   1.708  0.1641 -0.0519  0.2230
 5021TIP3    H136698   0.357   0.319   1.655 -1.7005 -2.0787 -0.5585
 5021TIP3    H236699   0.303   0.457   1.687  1.0941 -0.5794 -1.8994
 5022TIP3   OH236700   5.787   6.081   3.017 -0.0128  0.1211 -0.4631
 5022TIP3    H136701   5.711   6.138   3.027  0.8650  1.2283  0.0915
 5022TIP3    H236702   5.752   5.993   3.030 -1.0467  0.6669  0.7042
 5023TIP3   OH236703   3.619   3.135   7.212  0.2670  0.2066 -0.3473
 5023TIP3    H136704   3.558   3.137   7.138  1.2093  2.5956 -1.1311
 5023TIP3    H236705   3.636   3.226   7.232  1.0894 -0.3927  2.0030
 5024TIP3   OH236706   3.897   0.684   7.646  0.3826 -0.3338  0.1051
 5024TIP3    H136707   3.946   0.669   7.726  0.8165  1.7078  0.2817
 5024TIP3    H236708   3.857   0.770   7.658 -0.1106 -0.2793 -1.5986
 5025TIP3   OH236709   3.741   1.349   8.315 -0.0785 -0.2826  0.6618
 5025TIP3    H136710   3.697   1.340   8.399  1.0861  1.0824  1.4821
 5025TIP3    H236711   3.830   1.316   8.330  0.1419 -0.0421 -0.0238
 5026TIP3   OH236712   4.801   2.402   8.431  0.2342 -0.2575  0.4286
 5026TIP3    H136713   4.847   2.423   8.349 -0.7564 -0.1053 -0.1028
 5026TIP3    H236714   4.866   2.416   8.499  0.3419  2.2040 -0.0916
 5027TIP3   OH236715   5.169   0.623   7.285  0.5632  0.4899 -0.4171
 5027TIP3    H136716   5.144   0.679   7.359  0.5920 -0.6117  0.4409
 5027TIP3    H236717   5.087   0.580   7.259  0.7103  0.2565 -0.4944
 5028TIP3   OH236718   2.390   5.529   7.761  0.0823  0.2197  0.6132
 5028TIP3    H136719   2.407   5.607   7.709  0.8680 -1.5413 -1.9948
 5028TIP3    H236720   2.341   5.471   7.703 -0.3675 -1.3042  2.3935
 5029TIP3   OH236721   5.718   2.833   0.874  0.3532 -0.3772  1.0165
 5029TIP3    H136722   5.635   2.839   0.922 -0.5189  1.2701 -0.5385
 5029TIP3    H236723   5.703   2.766   0.807  0.7507 -1.0003  1.5392
 5030TIP3   OH236724   3.634   6.680   3.570 -0.4177  0.4744 -0.3616
 5030TIP3    H136725   3.562   6.621   3.547 -0.6065  1.4356 -2.5518
 5030TIP3    H236726   3.600   6.768   3.553  0.4574  1.1147  1.0387
 5031TIP3   OH236727   5.174   2.630   0.250 -0.4349  0.0495  0.2115
 5031TIP3    H136728   5.181   2.620   0.155 -1.2979 -0.0382  0.1503
 5031TIP3    H236729   5.125   2.553   0.279 -0.3536  0.1800  0.7075
 5032TIP3   OH236730   1.871   1.947   0.405 -0.0602  0.1131 -0.2618
 5032TIP3    H136731   1.811   1.894   0.457  0.8464  0.2111  0.9287
 5032TIP3    H236732   1.844   1.932   0.315 -3.4602  2.0704  0.2656
 5033TIP3   OH236733   2.854   0.613   1.408 -0.2217  0.1767  0.0630
 5033TIP3    H136734   2.903   0.664   1.345  1.4767 -0.9068  0.4221
 5033TIP3    H236735   2.889   0.524   1.399 -1.4633 -0.4412  1.0144
 5034TIP3   OH236736   2.398   6.853   3.285 -0.2843 -0.0777  0.7867
 5034TIP3    H136737   2.412   6.764   3.254  0.4411  0.4968 -0.6713
 5034TIP3    H236738   2.333   6.889   3.224 -1.1622  0.1726  1.8354
 5035TIP3   OH236739   2.707   3.132   2.170  0.7309  0.3548 -0.1281
 5035TIP3    H136740   2.771   3.176   2.114  1.8492 -0.8139  0.1852
 5035TIP3    H236741   2.760   3.091   2.239 -0.3839 -0.3642  0.3248
 5036TIP3   OH236742   4.004   6.885   6.728 -0.0372  0.6817 -0.1192
 5036TIP3    H136743   4.054   6.870   6.808  0.2658  0.0196 -0.4182
 5036TIP3    H236744   3.936   6.817   6.729  0.6446 -0.0484 -0.9440
 5037TIP3   OH236745   4.831   0.462   1.378 -0.2022  0.1993 -0.3723
 5037TIP3    H136746   4.741   0.484   1.402 -0.6640 -1.0740 -0.8614
 5037TIP3    H236747   4.870   0.546   1.354 -1.2522  0.7770 -0.1177
 5038TIP3   OH236748   3.405   2.614   0.120 -0.1390 -0.2629 -0.1729
 5038TIP3    H136749   3.478   2.560   0.151 -0.4480 -0.8660 -0.4782
 5038TIP3    H236750   3.328   2.576   0.161 -0.3476  0.0389 -0.2779
 5039TIP3   OH236751   2.330   4.018   8.116  0.0295  0.5498  0.1795
 5039TIP3    H136752   2.261   4.044   8.055  1.1218 -0.0180 -1.3633
 5039TIP3    H236753   2.385   4.096   8.123  0.4694  0.3016 -0.4008
 5040TIP3   OH236754   1.500   1.082   1.379 -0.2092 -0.8864  0.2162
 5040TIP3    H136755   1.467   1.081   1.469 -1.2005  0.8502 -0.0781
 5040TIP3    H236756   1.438   1.029   1.330 -1.1324  0.2030  0.1478
 5041TIP3   OH236757   3.778   3.194   8.351  0.2767  0.4612 -0.3855
 5041TIP3    H136758   3.705   3.209   8.410  0.6488  0.8048 -0.0045
 5041TIP3    H236759   3.855   3.196   8.407  0.5884  0.1799 -0.7909
 5042TIP3   OH236760   6.805   1.676   2.004  0.1442  0.3151 -0.0751
 5042TIP3    H136761   6.831   1.610   1.940 -1.4586 -0.9312  0.4961
 5042TIP3    H236762   6.878   1.738   2.005  0.5013  0.0245 -2.5921
 5043TIP3   OH236763   3.369   4.178   1.072 -0.1834 -0.1697 -0.1570
 5043TIP3    H136764   3.414   4.240   1.015  0.2166 -1.4364 -1.2852
 5043TIP3    H236765   3.276   4.189   1.052 -0.3641  1.6578  1.3617
 5044TIP3   OH236766   4.298   1.283   2.456  0.1902  0.2412 -0.1683
 5044TIP3    H136767   4.328   1.270   2.367  0.5110 -3.0109  0.3223
 5044TIP3    H236768   4.266   1.374   2.457  1.4355  0.8303 -3.1517
 5045TIP3   OH236769   3.161   4.050   8.251  0.2651  0.0044  0.2921
 5045TIP3    H136770   3.092   4.035   8.187  0.6758  1.1610 -0.4371
 5045TIP3    H236771   3.227   3.983   8.232 -0.8535 -1.4706  1.3458
 5046TIP3   OH236772   5.066   0.704   8.273 -0.4534  0.6127  0.2743
 5046TIP3    H136773   5.132   0.645   8.310 -1.5439 -2.3110 -1.9588
 5046TIP3    H236774   4.986   0.650   8.271 -1.2333  1.7013 -3.0256
 5047TIP3   OH236775   6.164   5.778   0.561  0.8934 -0.9275 -0.1823
 5047TIP3    H136776   6.154   5.696   0.610  1.8274  0.1934  1.9924
 5047TIP3    H236777   6.251   5.810   0.585  0.0163  1.4029  0.1599
 5048TIP3   OH236778   4.681   4.859   6.629 -0.1999 -0.0792  0.1334
 5048TIP3    H136779   4.742   4.891   6.562 -0.4023 -0.9041 -0.4551
 5048TIP3    H236780   4.610   4.818   6.579 -1.7628  1.7106  0.7510
 5049TIP3   OH236781   0.453   3.329   6.453  0.7503  0.1975 -0.0735
 5049TIP3    H136782   0.517   3.392   6.486 -1.1966  2.1375  0.2205
 5049TIP3    H236783   0.382   3.383   6.419 -0.8667 -1.8539 -0.1275
 5050TIP3   OH236784   5.004   6.422   1.250 -0.2948 -0.5712  0.0832
 5050TIP3    H136785   4.983   6.466   1.332 -1.9601 -1.5155  0.2248
 5050TIP3    H236786   4.946   6.345   1.249  0.3913 -1.1129 -1.5154
 5051TIP3   OH236787   0.145   2.297   8.502 -0.1806 -0.0067  0.1257
 5051TIP3    H136788   0.193   2.277   8.582 -0.7394  1.3920  0.8334
 5051TIP3    H236789   0.197   2.365   8.459 -1.4948  1.6116  0.9561
 5052TIP3   OH236790   4.383   3.167   1.212  0.0386  0.4973  0.8178
 5052TIP3    H136791   4.321   3.094   1.222 -0.0409  0.5790  0.9207
 5052TIP3    H236792   4.468   3.130   1.236  0.2597  0.0068 -0.6294
 5053TIP3   OH236793   6.027   4.532   8.104  0.2045 -0.3115  0.5826
 5053TIP3    H136794   6.017   4.487   8.021  1.4734  2.9092 -1.5246
 5053TIP3    H236795   5.945   4.582   8.114  0.4231  0.0173  0.7600
 5054TIP3   OH236796   5.165   0.353   1.005  0.5812 -0.0348  0.0999
 5054TIP3    H136797   5.072   0.365   0.985  0.1392 -0.2490  1.8963
 5054TIP3    H236798   5.178   0.394   1.090  2.7842  2.4146 -1.2691
 5055TIP3   OH236799   6.544   1.868   1.433  0.2918  0.4680 -0.1880
 5055TIP3    H136800   6.454   1.901   1.437  0.4961  1.0580 -0.3074
 5055TIP3    H236801   6.598   1.945   1.451  0.8624  0.6971 -2.4961
 5056TIP3   OH236802   2.068   0.989   0.168 -0.6775 -0.1402 -0.1268
 5056TIP3    H136803   1.987   0.988   0.219 -0.3813 -4.0452  0.5584
 5056TIP3    H236804   2.047   1.040   0.090 -2.7349  1.6112  1.4536
 5057TIP3   OH236805   4.446   3.963   1.037  0.5830  0.2766 -0.0472
 5057TIP3    H136806   4.475   3.918   0.957 -0.5172  0.2085 -0.4202
 5057TIP3    H236807   4.381   3.905   1.076 -0.7028  1.4065 -0.4215
 5058TIP3   OH236808   2.295   3.869   1.325 -0.1722 -0.0341 -0.1744
 5058TIP3    H136809   2.210   3.906   1.349  0.0521  0.0471  0.5370
 5058TIP3    H236810   2.342   3.862   1.408  0.1502 -1.0270 -0.4255
 5059TIP3   OH236811   6.140   6.288   6.785  0.0811  0.1625  0.0632
 5059TIP3    H136812   6.104   6.358   6.840 -0.2972  0.3892 -0.4675
 5059TIP3    H236813   6.209   6.330   6.734  1.3863 -0.3409  1.3154
 5060TIP3   OH236814   1.054   3.565   1.856 -0.3359 -0.7235 -0.4664
 5060TIP3    H136815   1.098   3.605   1.780 -1.4117  0.2819 -0.5932
 5060TIP3    H236816   0.961   3.570   1.835 -0.7276  0.5605  1.3591
 5061TIP3   OH236817   5.902   2.534   7.599 -0.2315 -0.2114 -0.2045
 5061TIP3    H136818   5.858   2.474   7.538 -0.9656  0.3566 -0.2466
 5061TIP3    H236819   5.993   2.504   7.600  0.5169  1.4345 -3.7423
 5062TIP3   OH236820   2.813   4.506   0.124 -0.6139 -1.2505 -0.2230
 5062TIP3    H136821   2.767   4.424   0.106 -1.1801 -1.1273  0.5827
 5062TIP3    H236822   2.851   4.493   0.211  1.1278 -1.4506 -0.9812
 5063TIP3   OH236823   1.698   4.307   7.944 -0.5554  0.3299  0.0965
 5063TIP3    H136824   1.756   4.371   7.902  0.6559 -0.9524 -0.2237
 5063TIP3    H236825   1.664   4.254   7.872 -0.5356 -0.2243  0.4888
 5064TIP3   OH236826   2.068   2.022   0.737  0.2151 -0.1204 -0.0207
 5064TIP3    H136827   2.043   1.960   0.806  0.2939  0.1037  0.2143
 5064TIP3    H236828   2.045   2.107   0.773  1.6342  0.1372  0.3728
 5065TIP3   OH236829   2.979   1.478   7.787 -0.2045 -0.0742  0.2090
 5065TIP3    H136830   2.891   1.444   7.769  0.0829 -1.5389  1.3197
 5065TIP3    H236831   3.007   1.519   7.705 -1.3599 -0.8758 -0.6127
 5066TIP3   OH236832   5.134   3.611   1.103 -0.6094  0.0503 -0.7254
 5066TIP3    H136833   5.057   3.563   1.135  0.8782 -1.1014  1.3328
 5066TIP3    H236834   5.176   3.550   1.042  0.2748 -0.5859  0.4783
 5067TIP3   OH236835   2.111   2.925   1.119  0.6062  0.7507 -0.2282
 5067TIP3    H136836   2.061   2.976   1.056 -1.9067 -0.7734  0.3883
 5067TIP3    H236837   2.127   2.985   1.192  0.5694  1.5558 -0.8731
 5068TIP3   OH236838   6.480   1.889   1.175  0.3233 -0.3589  0.1822
 5068TIP3    H136839   6.502   1.865   1.266  1.6138 -0.3300 -0.0972
 5068TIP3    H236840   6.408   1.831   1.151 -0.1636 -0.2418  1.2834
 5069TIP3   OH236841   2.403   0.787   3.218 -0.0958 -0.3140 -0.0767
 5069TIP3    H136842   2.418   0.881   3.210 -2.4312  0.1967  0.8634
 5069TIP3    H236843   2.465   0.748   3.157  2.1660  1.7004  0.7682
 5070TIP3   OH236844   6.896   5.871   7.423 -0.2575  0.0183  0.0241
 5070TIP3    H136845   6.957   5.800   7.399 -2.5858 -1.9197 -0.5471
 5070TIP3    H236846   6.936   5.911   7.500  1.0623 -2.1020  0.5531
 5071TIP3   OH236847   1.435   4.890   8.221 -0.0683 -0.1200  0.1704
 5071TIP3    H136848   1.420   4.947   8.145  1.9778  0.5657  0.2272
 5071TIP3    H236849   1.396   4.806   8.196  0.8320 -0.0079 -1.7774
 5072TIP3   OH236850   6.425   2.570   6.845 -0.2991  0.3394 -0.2363
 5072TIP3    H136851   6.452   2.494   6.793 -0.9137  0.0822 -0.1950
 5072TIP3    H236852   6.329   2.567   6.843 -0.3412  1.4874 -0.7789
 5073TIP3   OH236853   3.236   0.349   1.385 -0.0799 -0.2504 -0.0069
 5073TIP3    H136854   3.150   0.389   1.393 -0.2634 -0.7077  0.3874
 5073TIP3    H236855   3.267   0.374   1.298 -1.3934 -1.6207 -0.9049
 5074TIP3   OH236856   6.213   0.013   1.533 -0.5312  0.3898  0.2245
 5074TIP3    H136857   6.216  -0.064   1.590 -2.2783 -0.2310 -0.4497
 5074TIP3    H236858   6.302   0.048   1.536  0.4503 -1.8849  0.2307
 5075TIP3   OH236859   3.075   5.694   7.569  0.3465  0.0948  0.1791
 5075TIP3    H136860   3.052   5.614   7.617  0.1330  0.6933  1.1041
 5075TIP3    H236861   3.129   5.664   7.496  0.2258 -0.8960  0.4836
 5076TIP3   OH236862   6.748   4.844   7.249 -0.1319  0.1236  0.3105
 5076TIP3    H136863   6.772   4.756   7.221 -0.5570  0.3651 -0.8730
 5076TIP3    H236864   6.796   4.858   7.331  0.7380 -0.8192 -0.0280
 5077TIP3   OH236865   0.124   5.331   6.289  0.1519 -0.2179  0.1722
 5077TIP3    H136866   0.178   5.253   6.290  0.2672 -0.1407  1.2688
 5077TIP3    H236867   0.176   5.397   6.336 -1.1669 -0.3642  1.9435
 5078TIP3   OH236868   4.686   0.850   1.287  0.5217 -0.0055  0.4215
 5078TIP3    H136869   4.619   0.914   1.263  1.3839  0.6737 -0.2220
 5078TIP3    H236870   4.685   0.849   1.383 -0.0709  0.3470  0.4217
 5079TIP3   OH236871   5.598   4.274   0.548  0.1506 -0.1205  0.3285
 5079TIP3    H136872   5.552   4.358   0.542 -0.4816 -0.4941 -0.1416
 5079TIP3    H236873   5.563   4.222   0.476  1.6168 -0.2791 -0.3013
 5080TIP3   OH236874   0.747   6.519   7.569 -0.4766 -0.2924  0.0340
 5080TIP3    H136875   0.765   6.605   7.530 -0.6878 -0.6748 -0.9384
 5080TIP3    H236876   0.816   6.507   7.633  0.6444 -0.1860 -1.1176
 5081TIP3   OH236877   6.408   1.198   8.178  0.0239 -0.0369  0.6126
 5081TIP3    H136878   6.419   1.121   8.123  0.4522  1.4437 -1.4738
 5081TIP3    H236879   6.325   1.236   8.150 -0.1749  0.2937  1.6020
 5082TIP3   OH236880   6.396   1.412   2.682  0.1903 -0.0488 -0.4633
 5082TIP3    H136881   6.456   1.487   2.687 -0.8728  0.7393  2.3981
 5082TIP3    H236882   6.321   1.444   2.632 -0.1706  0.7620  0.5716
 5083TIP3   OH236883   1.432   6.778   2.337  0.0425 -0.4405 -0.0696
 5083TIP3    H136884   1.396   6.857   2.378 -0.2190  0.5138 -2.0405
 5083TIP3    H236885   1.422   6.710   2.404  1.9010  1.5032  2.4164
 5084TIP3   OH236886   0.481   6.060   0.857 -0.0888 -0.1994  0.1908
 5084TIP3    H136887   0.459   6.037   0.948 -0.0868 -0.4356  0.1310
 5084TIP3    H236888   0.504   5.977   0.816  0.2493 -0.0457  0.0661
 5085TIP3   OH236889   2.524   3.656   1.364 -0.1734  0.6285  0.0639
 5085TIP3    H136890   2.500   3.670   1.455 -0.3623 -0.5476  0.2142
 5085TIP3    H236891   2.509   3.563   1.349  1.6807  0.3973 -0.6310
 5086TIP3   OH236892   0.776   2.661   7.506 -0.2732 -0.4363 -0.7373
 5086TIP3    H136893   0.711   2.670   7.436  0.2545 -2.6276 -1.5952
 5086TIP3    H236894   0.839   2.597   7.471  1.0311 -0.1613  1.0141
 5087TIP3   OH236895   1.510   0.505   7.743 -0.1596 -0.1181  0.1674
 5087TIP3    H136896   1.580   0.441   7.754 -0.3520 -0.1848  1.0584
 5087TIP3    H236897   1.539   0.582   7.793 -1.3967 -0.6977  1.8623
 5088TIP3   OH236898   4.487   3.653   0.311  0.7533 -0.0646  0.2791
 5088TIP3    H136899   4.574   3.641   0.348  1.5333  0.6724 -1.2373
 5088TIP3    H236900   4.461   3.741   0.338  0.3205 -0.4108  1.0143
 5089TIP3   OH236901   2.724   5.786   8.413  0.1447  0.1972  0.7006
 5089TIP3    H136902   2.723   5.694   8.440  0.8085 -0.5383 -1.5732
 5089TIP3    H236903   2.740   5.834   8.494  0.0212 -1.6917  1.9129
 5090TIP3   OH236904   6.716   1.486   1.474  0.3158 -0.5701 -0.3303
 5090TIP3    H136905   6.748   1.520   1.558 -0.6243 -0.7859  0.1291
 5090TIP3    H236906   6.686   1.397   1.494 -4.3311  0.8781  0.2888
 5091TIP3   OH236907   5.622   2.020   0.249 -0.2188 -0.0412  0.1563
 5091TIP3    H136908   5.602   2.030   0.156  1.6195 -0.4410 -0.3185
 5091TIP3    H236909   5.700   2.073   0.263 -0.5287  0.1040  1.5067
 5092TIP3   OH236910   0.522   0.977   3.421  0.0641 -0.0220  0.2551
 5092TIP3    H136911   0.547   0.887   3.443  0.0990  0.2670  1.4644
 5092TIP3    H236912   0.563   0.993   3.336  2.6375 -0.1489  1.3699
 5093TIP3   OH236913   4.497   6.538   0.401  0.0916  0.2426  0.5353
 5093TIP3    H136914   4.566   6.604   0.403  0.0280  0.3546 -0.4452
 5093TIP3    H236915   4.543   6.455   0.412  0.8494  0.0194 -3.0092
 5094TIP3   OH236916   4.376   6.009   0.839 -0.3968 -0.0273 -0.0122
 5094TIP3    H136917   4.459   6.056   0.849 -0.4441 -0.0199  0.3610
 5094TIP3    H236918   4.373   5.986   0.746  0.1513 -0.2627  0.0218
 5095TIP3   OH236919   1.645   0.400   1.355  0.0553 -0.6386 -0.2182
 5095TIP3    H136920   1.660   0.305   1.352 -1.3689 -0.8950  0.0376
 5095TIP3    H236921   1.657   0.429   1.265  0.9733 -0.9720 -0.2160
 5096TIP3   OH236922   4.025   1.930   8.129 -0.1294 -0.0321 -0.1617
 5096TIP3    H136923   3.945   1.885   8.102  0.3367 -0.7303 -0.4049
 5096TIP3    H236924   4.083   1.925   8.053  0.3900 -0.1072  0.2311
 5097TIP3   OH236925   1.546   1.277   7.674 -0.2329  0.1547  0.2648
 5097TIP3    H136926   1.634   1.270   7.711 -0.3809 -0.0412  0.5869
 5097TIP3    H236927   1.541   1.365   7.638  0.3343 -0.0660 -0.3710
 5098TIP3   OH236928   2.236   4.224   1.383 -0.2188  0.2044  0.6574
 5098TIP3    H136929   2.183   4.304   1.379 -0.5425  0.0338  1.2792
 5098TIP3    H236930   2.172   4.154   1.400  0.3076  0.1453  2.6198
 5099TIP3   OH236931   1.670   3.462   7.126  0.5981  0.0153 -0.4791
 5099TIP3    H136932   1.622   3.539   7.095 -0.6546 -1.4000 -2.3302
 5099TIP3    H236933   1.639   3.391   7.069  2.8308 -1.5504  0.1440
 5100TIP3   OH236934   1.904   1.826   2.203  0.0042  0.1288  0.7255
 5100TIP3    H136935   1.813   1.851   2.186 -0.2094 -1.2436 -0.3743
 5100TIP3    H236936   1.935   1.890   2.267 -1.6402  0.8026  0.9057
 5101TIP3   OH236937   2.936   2.508   8.437  0.3718 -0.8145 -0.3169
 5101TIP3    H136938   3.024   2.525   8.471  1.1544  0.5176 -2.7335
 5101TIP3    H236939   2.943   2.423   8.393  0.1227 -1.2398  0.4550
 5102TIP3   OH236940   5.524   4.803   1.903  0.3056 -0.5803 -0.7261
 5102TIP3    H136941   5.563   4.816   1.990  0.7698 -2.0762 -0.6939
 5102TIP3    H236942   5.598   4.799   1.843 -0.0125  0.3916 -1.1990
 5103TIP3   OH236943   3.058   6.183   6.993 -1.0026 -0.0814  0.6226
 5103TIP3    H136944   3.030   6.266   6.955  1.0245  0.5462  0.4105
 5103TIP3    H236945   3.097   6.206   7.077 -1.0767 -0.9196  0.8983
 5104TIP3   OH236946   3.330   0.723   2.662  0.3675 -0.0181  0.4444
 5104TIP3    H136947   3.401   0.661   2.678  1.8727  1.0107 -1.7451
 5104TIP3    H236948   3.264   0.672   2.614  0.6796 -0.4240  0.4430
 5105TIP3   OH236949   0.789   0.662   0.361 -0.8095 -0.2008 -0.0612
 5105TIP3    H136950   0.857   0.681   0.296 -1.5645  2.4451 -0.1906
 5105TIP3    H236951   0.827   0.592   0.415  0.4201 -1.4809 -2.4024
 5106TIP3   OH236952   3.570   2.242   8.254  0.1062  0.3784 -0.0660
 5106TIP3    H136953   3.623   2.190   8.314  1.4644  0.3858 -1.1864
 5106TIP3    H236954   3.544   2.180   8.185 -0.1921  0.6838 -0.2299
 5107TIP3   OH236955   1.731   2.766   0.432  0.0369  0.1438  0.0323
 5107TIP3    H136956   1.792   2.751   0.359 -0.9716 -0.1042 -0.7815
 5107TIP3    H236957   1.757   2.703   0.499 -1.5016 -2.5126 -1.6906
 5108TIP3   OH236958   5.784   5.587   7.262 -0.6349 -0.1983 -0.4777
 5108TIP3    H136959   5.832   5.533   7.199 -0.8791 -1.4157  0.3328
 5108TIP3    H236960   5.696   5.595   7.225 -0.7650 -0.8754 -0.3365
 5109TIP3   OH236961   5.894   3.894   7.679  0.2414  0.4403 -0.1830
 5109TIP3    H136962   5.800   3.877   7.691 -0.1562  2.2564 -0.3514
 5109TIP3    H236963   5.908   3.891   7.584 -0.0163  1.6750 -0.2883
 5110TIP3   OH236964   4.152   6.347   0.950  0.0785  0.0686  0.4961
 5110TIP3    H136965   4.208   6.404   0.897  0.0494 -1.4971 -1.3382
 5110TIP3    H236966   4.213   6.300   1.007  0.6744 -1.2360 -1.1164
 5111TIP3   OH236967   6.960   1.492   0.181 -0.5317 -0.4565  0.1460
 5111TIP3    H136968   6.896   1.546   0.228 -0.4018  0.7986 -1.0654
 5111TIP3    H236969   6.944   1.403   0.214 -0.7170  0.2974  2.2179
 5112TIP3   OH236970   1.827   0.860   8.189  0.4238  0.6986 -0.3519
 5112TIP3    H136971   1.877   0.936   8.161 -0.6245  0.6217 -2.6156
 5112TIP3    H236972   1.738   0.893   8.200  0.6062  0.5220  2.1980
 5113TIP3   OH236973   4.853   3.513   0.331 -0.1050 -0.0943  0.1662
 5113TIP3    H136974   4.948   3.501   0.336 -0.2616 -1.4220  0.1731
 5113TIP3    H236975   4.840   3.564   0.252  0.5442 -0.9427 -0.5079
 5114TIP3   OH236976   5.173   4.142   6.823  0.0686  0.3028 -0.5220
 5114TIP3    H136977   5.163   4.047   6.811  3.0353 -0.3763  1.2328
 5114TIP3    H236978   5.261   4.161   6.790 -0.3818  2.4174 -0.6295
 5115TIP3   OH236979   2.768   6.433   7.346  0.7601  0.3110 -0.0911
 5115TIP3    H136980   2.759   6.500   7.278  3.7040 -0.9743 -1.9012
 5115TIP3    H236981   2.709   6.363   7.318  0.4332  0.6261 -0.2001
 5116TIP3   OH236982   5.047   2.562   7.303 -0.2247 -0.2162 -0.2708
 5116TIP3    H136983   5.137   2.550   7.274 -0.8792 -1.5839 -1.9037
 5116TIP3    H236984   5.038   2.507   7.381 -0.0691 -1.4272 -1.0809
 5117TIP3   OH236985   4.046   4.370   0.121 -0.3471  0.6625 -0.1055
 5117TIP3    H136986   4.127   4.420   0.108  0.2239  0.1501  1.2465
 5117TIP3    H236987   4.013   4.354   0.033  2.7001 -1.8111 -0.9712
 5118TIP3   OH236988   2.694   6.951   0.198  0.1001  0.3739  0.5328
 5118TIP3    H136989   2.723   7.010   0.267  1.3942 -0.6527  0.9123
 5118TIP3    H236990   2.675   7.008   0.124 -1.2696  1.4816  1.6871
 5119TIP3   OH236991   3.059   2.246   2.385 -0.3837 -0.2223 -0.2533
 5119TIP3    H136992   3.122   2.318   2.381  1.2903 -1.5832  0.6857
 5119TIP3    H236993   3.008   2.263   2.464 -0.9173  0.6274 -0.7609
 5120TIP3   OH236994   0.605   4.609   8.213 -0.1462 -0.2861  0.4901
 5120TIP3    H136995   0.530   4.552   8.197 -0.3568  0.0657  0.2131
 5120TIP3    H236996   0.661   4.596   8.137 -1.0431  1.2199 -0.4940
 5121TIP3   OH236997   4.750   3.051   7.640  0.1427 -0.6194  0.2630
 5121TIP3    H136998   4.700   3.055   7.721 -2.6738 -1.5009 -1.3105
 5121TIP3    H236999   4.808   3.127   7.644 -1.0753  0.2875  2.3468
 5122TIP3   OH237000   5.614   3.141   0.938 -0.1422 -0.2568 -0.3580
 5122TIP3    H137001   5.683   3.092   0.983 -0.6965 -0.1644  0.6338
 5122TIP3    H237002   5.534   3.093   0.960 -0.3096 -0.9850 -2.3552
 5123TIP3   OH237003   4.953   5.078   7.711  0.7765 -0.0214 -0.2651
 5123TIP3    H137004   4.969   5.005   7.770  1.1925 -1.5051 -2.1262
 5123TIP3    H237005   4.954   5.156   7.768  1.5547 -1.3174  1.5789
 5124TIP3   OH237006   6.669   5.714   8.096  0.3562 -0.0276  0.5686
 5124TIP3    H137007   6.638   5.692   8.008  3.6205 -0.9345 -0.4827
 5124TIP3    H237008   6.650   5.636   8.148  1.1007 -0.6945 -0.1321
 5125TIP3   OH237009   2.929   3.830   6.437 -0.1166 -0.3283  0.0845
 5125TIP3    H137010   2.997   3.889   6.405  0.1180 -1.1701 -1.0319
 5125TIP3    H237011   2.943   3.827   6.531 -0.6304  1.9911  0.3005
 5126TIP3   OH237012   5.076   0.641   2.362 -0.1401 -0.7717 -0.3282
 5126TIP3    H137013   5.125   0.695   2.424 -2.3533 -0.9335  1.6712
 5126TIP3    H237014   5.073   0.693   2.282  1.5879  0.0524  0.0912
 5127TIP3   OH237015   0.192   4.996   7.152 -0.0883 -0.0254 -0.0519
 5127TIP3    H137016   0.097   5.013   7.150 -0.3233 -0.2977  3.3808
 5127TIP3    H237017   0.200   4.912   7.198  1.8645  0.3974  0.4494
 5128TIP3   OH237018   6.008   0.601   0.079  0.1919  0.1647 -0.2171
 5128TIP3    H137019   5.933   0.658   0.095 -1.0229 -0.8961 -1.8529
 5128TIP3    H237020   6.050   0.638   0.001  0.6374  0.0205 -0.0507
 5129TIP3   OH237021   3.672   5.804   8.519  0.1158 -0.3763  0.3722
 5129TIP3    H137022   3.679   5.799   8.424  0.9098 -0.2723  0.4195
 5129TIP3    H237023   3.699   5.717   8.549 -2.6978 -1.3375  0.3989
 5130TIP3   OH237024   3.875   2.601   1.499 -0.1087  0.1380  0.1858
 5130TIP3    H137025   3.802   2.546   1.529 -1.0577  1.6791  0.8321
 5130TIP3    H237026   3.954   2.554   1.527 -0.8834 -0.9158  0.6636
 5131TIP3   OH237027   5.182   2.563   8.508  0.5894  0.0033 -0.2195
 5131TIP3    H137028   5.154   2.641   8.460  0.8220  0.1152 -0.1789
 5131TIP3    H237029   5.269   2.544   8.472  2.5057  2.3085  2.6713
 5132TIP3   OH237030   5.648   6.652   0.430 -0.1805 -0.1893 -0.3625
 5132TIP3    H137031   5.610   6.628   0.346 -1.2248  0.7873 -0.1904
 5132TIP3    H237032   5.613   6.739   0.449  0.0785 -0.3618  1.0526
 5133TIP3   OH237033   2.227   5.182   0.152 -0.9544 -0.0609  0.0260
 5133TIP3    H137034   2.251   5.094   0.124 -0.9762 -0.7824  2.1020
 5133TIP3    H237035   2.133   5.188   0.136 -1.1126 -0.7441  0.6734
 5134TIP3   OH237036   5.042   1.085   2.196  1.1663 -0.4606 -0.7243
 5134TIP3    H137037   5.120   1.077   2.142  1.7641 -1.5557  0.2459
 5134TIP3    H237038   5.004   0.997   2.197  1.5025 -0.6213  1.0769
 5135TIP3   OH237039   1.733   3.253   0.708 -0.1058  0.0197 -0.3786
 5135TIP3    H137040   1.646   3.288   0.687 -0.6441 -1.2341 -0.2982
 5135TIP3    H237041   1.744   3.179   0.649 -0.7856 -2.3205  2.2504
 5136TIP3   OH237042   4.448   2.608   2.129  0.9307  0.0105  0.1615
 5136TIP3    H137043   4.487   2.628   2.044  2.4962  0.5473  0.9592
 5136TIP3    H237044   4.500   2.534   2.161 -0.8403 -1.4033 -0.1137
 5137TIP3   OH237045   2.532   1.559   6.958  0.6943 -0.1653 -0.0723
 5137TIP3    H137046   2.440   1.568   6.933  0.8736  0.0681 -0.6913
 5137TIP3    H237047   2.544   1.465   6.973  0.6508 -0.3765 -1.2529
 5138TIP3   OH237048   2.506   1.135   1.631 -0.2790  0.1243 -0.4160
 5138TIP3    H137049   2.443   1.083   1.582 -0.1972  0.1301 -0.5265
 5138TIP3    H237050   2.541   1.196   1.567  0.2736 -0.2691 -0.4878
 5139TIP3   OH237051   2.280   4.618   7.882  0.0332  0.0335  0.2587
 5139TIP3    H137052   2.366   4.589   7.912  0.4089  0.7218 -0.1187
 5139TIP3    H237053   2.219   4.558   7.924  0.7856 -1.5705 -0.8179
 5140TIP3   OH237054   0.321   1.130   8.050 -0.2249 -0.0528  0.4266
 5140TIP3    H137055   0.407   1.164   8.074  0.1308  0.3217 -1.2452
 5140TIP3    H237056   0.336   1.038   8.028 -0.3573 -0.1285  0.6479
 5141TIP3   OH237057   1.169   1.484   7.625  0.0161  0.0648  0.0246
 5141TIP3    H137058   1.114   1.406   7.633 -0.7091  0.5374 -0.1778
 5141TIP3    H237059   1.178   1.497   7.531  2.8016 -1.5655 -0.0379
 5142TIP3   OH237060   0.305   3.597   7.830  0.5743 -0.1979 -0.5527
 5142TIP3    H137061   0.289   3.541   7.906  1.4672  2.0175  1.3783
 5142TIP3    H237062   0.228   3.584   7.774 -1.0835 -0.4561  1.6590
 5143TIP3   OH237063   3.570   0.600   7.852 -0.1289  0.2194 -0.2035
 5143TIP3    H137064   3.662   0.586   7.829  0.1816 -0.5268  1.3432
 5143TIP3    H237065   3.566   0.691   7.881  0.3439 -0.0127  0.6256
 5144TIP3   OH237066   6.789   2.645   8.312 -0.2200 -0.5898 -0.6984
 5144TIP3    H137067   6.701   2.682   8.320 -0.6269 -1.6676  0.0215
 5144TIP3    H237068   6.781   2.557   8.349  1.4485 -0.2463  0.5924
 5145TIP3   OH237069   5.174   6.206   7.846 -0.1765 -0.0496 -0.2148
 5145TIP3    H137070   5.221   6.248   7.774  0.0974  0.1198  0.0661
 5145TIP3    H237071   5.227   6.223   7.923 -0.7579  0.2452  0.1267
 5146TIP3   OH237072   4.247   6.536   2.861 -0.2401  0.2161 -0.0083
 5146TIP3    H137073   4.340   6.514   2.871  0.0009  0.8699 -0.6969
 5146TIP3    H237074   4.206   6.507   2.943 -0.0954 -3.4604 -1.0562
 5147TIP3   OH237075   3.007   6.648   3.002  0.0799 -0.3733  0.5108
 5147TIP3    H137076   2.953   6.715   2.960  0.3878 -1.6303 -2.0322
 5147TIP3    H237077   2.968   6.639   3.089  0.0931  3.1193  1.0506
 5148TIP3   OH237078   4.575   2.677   1.062 -0.9396  0.1624 -0.3101
 5148TIP3    H137079   4.512   2.631   1.006  0.1504 -1.7694 -0.0525
 5148TIP3    H237080   4.525   2.701   1.140 -1.9104  0.7804 -1.1020
 5149TIP3   OH237081   1.836   6.633   7.773  0.3590 -0.3724  0.0330
 5149TIP3    H137082   1.907   6.644   7.709 -0.2766 -0.6354 -0.7359
 5149TIP3    H237083   1.758   6.620   7.720 -0.6758  2.0987  0.8028
 5150TIP3   OH237084   0.249   6.007   8.504  0.2378 -0.0728  0.2828
 5150TIP3    H137085   0.225   5.931   8.452  0.0546 -0.1949  0.5455
 5150TIP3    H237086   0.321   5.977   8.560 -2.8332 -1.4922  3.8337
 5151TIP3   OH237087   1.045   3.547   0.999 -0.2138 -0.4227 -0.0009
 5151TIP3    H137088   1.127   3.566   1.045 -1.0120  1.4904  0.7366
 5151TIP3    H237089   1.000   3.484   1.056 -0.8868  1.4081  1.6029
 5152TIP3   OH237090   0.013   6.507   8.117 -0.1691 -0.2419 -0.3758
 5152TIP3    H137091   0.034   6.478   8.029  1.5094  1.3455 -0.5383
 5152TIP3    H237092  -0.003   6.426   8.166  0.7779 -1.2378 -1.6646
 5153TIP3   OH237093   5.550   1.214   3.223  0.3174 -0.6685 -0.1519
 5153TIP3    H137094   5.576   1.216   3.131  0.6036 -1.4467 -0.0941
 5153TIP3    H237095   5.460   1.245   3.224 -0.1033 -1.8214 -0.8500
 5154TIP3   OH237096   2.818   6.827   3.673  0.1111 -0.0035  0.0048
 5154TIP3    H137097   2.788   6.917   3.660 -0.3733  0.0911  1.5596
 5154TIP3    H237098   2.791   6.781   3.594  1.8043  1.5436 -1.5837
 5155TIP3   OH237099   4.267   5.007   6.215 -0.1691  0.3250 -0.2965
 5155TIP3    H137100   4.324   5.084   6.223  2.2021 -1.4331  1.5404
 5155TIP3    H237101   4.179   5.043   6.206  0.8237  3.2392  0.4591
 5156TIP3   OH237102   4.411   5.936   0.185 -0.4272  0.5281  0.5646
 5156TIP3    H137103   4.370   5.856   0.153  0.9513  0.0306 -0.0610
 5156TIP3    H237104   4.353   6.006   0.155 -1.4224 -0.2045  0.7354
 5157TIP3   OH237105   4.806   0.680   7.525 -0.4160 -0.4481 -0.1098
 5157TIP3    H137106   4.736   0.706   7.465 -1.6849 -0.6465  1.2524
 5157TIP3    H237107   4.870   0.751   7.518 -1.1076  0.1254 -0.8011
 5158TIP3   OH237108   4.904   2.809   7.547 -0.6034 -0.1314 -0.6241
 5158TIP3    H137109   4.964   2.848   7.484 -0.1895 -1.3394 -1.0154
 5158TIP3    H237110   4.838   2.876   7.563  0.1764  0.7688 -1.1242
 5159TIP3   OH237111   4.170   1.166   2.150  0.0917 -0.5295  0.2613
 5159TIP3    H137112   4.190   1.200   2.062 -0.8043 -0.9475 -0.1110
 5159TIP3    H237113   4.254   1.132   2.181  0.3082 -0.8826 -0.6627
 5160TIP3   OH237114   3.816   1.979   2.292  0.2066 -0.4935  0.8868
 5160TIP3    H137115   3.849   1.965   2.203  1.8489 -0.4447  1.4421
 5160TIP3    H237116   3.848   1.903   2.341 -2.1180 -1.4006  1.1253
 5161TIP3   OH237117   4.402   1.657   1.202  0.0987  0.5868  0.2354
 5161TIP3    H137118   4.322   1.649   1.150  0.5042  1.9366 -0.6580
 5161TIP3    H237119   4.470   1.678   1.138  1.1809 -0.5314  0.9824
 5162TIP3   OH237120   2.648   2.696   1.120 -0.1179  0.0371  0.2252
 5162TIP3    H137121   2.706   2.636   1.074  0.8827  0.5124  0.8394
 5162TIP3    H237122   2.695   2.720   1.200 -0.6373  1.3467  0.1752
 5163TIP3   OH237123   5.475   2.690   1.962  0.4662  0.2505  0.3145
 5163TIP3    H137124   5.437   2.721   2.044 -0.2244 -0.0085  0.0952
 5163TIP3    H237125   5.534   2.619   1.988  0.7685  0.6147  0.6459
 5164TIP3   OH237126   6.688   1.006   1.003 -0.2723  0.1356 -0.5963
 5164TIP3    H137127   6.696   1.101   1.014  1.2888 -0.0935  0.5363
 5164TIP3    H237128   6.753   0.984   0.937 -0.7054 -0.1315 -0.9334
 5165TIP3   OH237129   1.476   2.280   2.094  0.0185  0.1576  0.4688
 5165TIP3    H137130   1.471   2.206   2.154  2.9184 -0.8884 -0.4105
 5165TIP3    H237131   1.479   2.357   2.151 -0.7682 -0.5273  1.4803
 5166TIP3   OH237132   5.114   4.430   6.893 -0.5299  0.8453 -0.3753
 5166TIP3    H137133   5.093   4.337   6.885  0.4434  0.5742  0.1906
 5166TIP3    H237134   5.207   4.433   6.916 -0.8407  1.9154  0.8914
 5167TIP3   OH237135   5.571   4.058   8.291 -0.0103 -0.3108  0.3342
 5167TIP3    H137136   5.644   4.025   8.238 -0.5612  0.4463 -0.9323
 5167TIP3    H237137   5.494   4.011   8.258 -0.4979  0.7988 -0.1748
 5168TIP3   OH237138   2.057   1.926   1.960  0.0846  0.2072  0.3084
 5168TIP3    H137139   2.099   2.013   1.965  0.0635  0.1992  0.7061
 5168TIP3    H237140   2.083   1.883   2.042  1.7579 -0.9225 -0.7582
 5169TIP3   OH237141   4.338   6.526   6.411  0.1291 -0.6053  0.3777
 5169TIP3    H137142   4.398   6.534   6.336  0.6564 -1.4782  0.6873
 5169TIP3    H237143   4.355   6.438   6.445 -0.3786 -0.3546  1.2969
 5170TIP3   OH237144   1.214   1.241   8.283  0.7682 -0.3373 -0.4692
 5170TIP3    H137145   1.244   1.264   8.371  0.5703  1.1627 -0.7711
 5170TIP3    H237146   1.245   1.151   8.271  1.8477 -0.1593  0.6706
 5171TIP3   OH237147   2.049   2.919   8.066 -0.2080 -0.1971  0.2276
 5171TIP3    H137148   2.084   2.970   7.993  0.5260 -0.9003  0.0792
 5171TIP3    H237149   2.090   2.957   8.144  1.1936 -1.2272  0.0298
 5172TIP3   OH237150   2.516   1.639   7.757 -0.1442  0.2374 -0.1492
 5172TIP3    H137151   2.528   1.545   7.743  1.0196  0.2488  0.6617
 5172TIP3    H237152   2.485   1.671   7.672 -0.4322 -0.8466 -0.4754
 5173TIP3   OH237153   0.961   1.748   1.954 -0.4753  0.7276  0.7186
 5173TIP3    H137154   1.020   1.674   1.963  0.3388  1.2427 -0.1942
 5173TIP3    H237155   0.934   1.768   2.044 -1.7058 -1.4206  0.8923
 5174TIP3   OH237156   6.900   4.544   6.864 -0.1134  0.3116  0.1510
 5174TIP3    H137157   6.930   4.462   6.905 -1.7277 -0.2772  0.2295
 5174TIP3    H237158   6.911   4.529   6.770 -0.1920  0.0935  0.1760
 5175TIP3   OH237159   3.797   2.948   0.825 -0.0421  0.0732  0.2929
 5175TIP3    H137160   3.745   2.920   0.900 -0.3840  0.4327  0.1955
 5175TIP3    H237161   3.877   2.896   0.830  0.5661  1.0805  1.7234
 5176TIP3   OH237162   1.684   0.955   0.794 -0.5275 -0.1732 -0.3977
 5176TIP3    H137163   1.603   0.994   0.828 -1.1180 -0.2103 -1.7057
 5176TIP3    H237164   1.721   1.022   0.738 -0.9734 -1.0458 -1.7846
 5177TIP3   OH237165   6.841   4.169   7.682  0.4381 -0.3047  0.4388
 5177TIP3    H137166   6.930   4.142   7.659  0.7961  1.7029 -0.7411
 5177TIP3    H237167   6.832   4.257   7.645 -1.2351  0.5075  2.5552
 5178TIP3   OH237168   4.302   6.465   8.178  0.1758 -0.2434  0.1106
 5178TIP3    H137169   4.273   6.375   8.193  1.0451 -0.2884  1.6550
 5178TIP3    H237170   4.339   6.463   8.090  0.8333 -1.5731  0.3965
 5179TIP3   OH237171   4.586   0.532   1.444  0.0527  0.0952  0.0118
 5179TIP3    H137172   4.563   0.623   1.462  4.4366  1.4168  0.1346
 5179TIP3    H237173   4.589   0.490   1.530 -0.2166  0.3434  0.1429
 5180TIP3   OH237174   1.959   6.629   0.771  0.2745 -0.0271  0.5275
 5180TIP3    H137175   2.045   6.630   0.729 -0.8162  0.2689 -1.8361
 5180TIP3    H237176   1.960   6.551   0.827  1.5158 -0.9307 -0.7032
 5181TIP3   OH237177   2.937   6.420   8.009 -0.3360 -0.5745 -0.0388
 5181TIP3    H137178   2.846   6.430   7.980  0.6811  1.9304 -2.9494
 5181TIP3    H237179   2.964   6.508   8.035  2.0931 -0.4345 -2.4844
 5182TIP3   OH237180   5.058   0.578   7.626  0.0516 -0.6680  0.4066
 5182TIP3    H137181   5.089   0.493   7.595 -1.8235 -1.1185 -0.3871
 5182TIP3    H237182   5.063   0.635   7.549 -0.2054 -0.5200  0.4962
 5183TIP3   OH237183   5.162   5.051   2.664 -0.2081 -0.1645 -0.0083
 5183TIP3    H137184   5.221   5.005   2.723 -0.0090 -0.4550 -0.4235
 5183TIP3    H237185   5.089   4.990   2.650  0.0691 -0.3771 -0.5802
 5184TIP3   OH237186   2.259   0.353   7.718 -0.3781  0.1603  0.4604
 5184TIP3    H137187   2.288   0.424   7.662  0.1821  1.1702  1.9523
 5184TIP3    H237188   2.258   0.391   7.806  2.4340 -2.2817  1.7583
 5185TIP3   OH237189   4.429   6.222   6.980 -0.3950 -0.2458 -0.3553
 5185TIP3    H137190   4.505   6.266   6.942  0.1319 -0.7303  0.1261
 5185TIP3    H237191   4.447   6.222   7.074 -1.4131  0.4322 -0.1489
 5186TIP3   OH237192   2.028   6.630   8.010 -0.6580  0.0265 -0.0333
 5186TIP3    H137193   2.023   6.535   8.023 -0.6716 -0.1457 -1.1752
 5186TIP3    H237194   2.102   6.658   8.064 -0.8677 -0.5830  0.5750
 5187TIP3   OH237195   2.152   3.118   0.182  0.0353 -0.1284 -0.3723
 5187TIP3    H137196   2.057   3.106   0.177 -0.3506  1.2316  2.0501
 5187TIP3    H237197   2.188   3.029   0.174 -1.5690 -0.8910  0.3898
 5188TIP3   OH237198   2.389   5.646   1.118  0.3605  0.1223 -0.7249
 5188TIP3    H137199   2.361   5.719   1.172  1.4805 -0.6542  1.0055
 5188TIP3    H237200   2.475   5.672   1.084  1.0959 -0.6407  0.4926
 5189TIP3   OH237201   4.048   1.595   2.745 -0.2139  0.0859 -0.6695
 5189TIP3    H137202   4.134   1.555   2.733 -0.3582 -0.4502  0.0023
 5189TIP3    H237203   3.986   1.528   2.715 -0.5267 -0.8350  1.8538
 5190TIP3   OH237204   3.394   2.061   0.960 -0.0761  0.3316 -0.1291
 5190TIP3    H137205   3.336   2.135   0.946 -0.1072  0.0223 -1.9646
 5190TIP3    H237206   3.434   2.045   0.874  0.5306 -1.2759  0.3971
 5191TIP3   OH237207   1.369   1.533   2.858 -0.0677 -0.3874 -0.1382
 5191TIP3    H137208   1.377   1.455   2.803 -0.6884 -2.1340  2.1025
 5191TIP3    H237209   1.297   1.512   2.918  1.7004  0.6300  2.5008
 5192TIP3   OH237210   0.628   4.100   8.086  0.3898  0.2206 -0.3262
 5192TIP3    H137211   0.692   4.037   8.052 -0.5123  0.5285 -2.8520
 5192TIP3    H237212   0.564   4.046   8.133 -0.2581 -0.8023 -2.2738
 5193TIP3   OH237213   4.521   1.185   1.488  0.0818 -0.0790 -0.0933
 5193TIP3    H137214   4.615   1.202   1.489  0.4923 -2.1602  0.6255
 5193TIP3    H237215   4.496   1.191   1.396  0.8267  0.8502 -0.2524
 5194TIP3   OH237216   2.846   2.418   0.371 -0.4963  0.2189  0.3125
 5194TIP3    H137217   2.790   2.412   0.294 -0.8684  0.6229  0.5469
 5194TIP3    H237218   2.925   2.370   0.346 -0.2396  1.1087 -0.6512
 5195TIP3   OH237219   0.268   4.219   1.303  0.1715 -0.3444  0.3355
 5195TIP3    H137220   0.242   4.255   1.388  0.9400  0.3865  0.2794
 5195TIP3    H237221   0.224   4.275   1.239 -0.4604 -0.9359  0.2442
 5196TIP3   OH237222   0.328   6.672   7.671 -0.3227  0.1870 -0.0069
 5196TIP3    H137223   0.391   6.701   7.605 -0.4874  0.4681 -0.0389
 5196TIP3    H237224   0.380   6.667   7.752 -0.1427 -0.0706 -0.1359
 5197TIP3   OH237225   5.028   5.486   8.081  0.0326  0.7515 -0.5626
 5197TIP3    H137226   4.958   5.534   8.125  1.1729  1.1601  0.8914
 5197TIP3    H237227   5.075   5.553   8.031 -0.2811  0.5730 -1.1034
 5198TIP3   OH237228   4.317   5.425   6.893  0.3246  0.4406 -0.5738
 5198TIP3    H137229   4.236   5.427   6.945 -0.1517 -0.2394 -1.2801
 5198TIP3    H237230   4.378   5.480   6.943 -0.2879  0.2388  0.4299
 5199TIP3   OH237231   6.405   1.560   0.752  0.1124 -0.9951  0.4227
 5199TIP3    H137232   6.348   1.592   0.683  0.0559 -1.0479  0.4455
 5199TIP3    H237233   6.474   1.627   0.758  0.2403 -1.1012  0.1644
 5200TIP3   OH237234   0.569   3.045   7.700 -0.0938 -0.1907  0.5475
 5200TIP3    H137235   0.510   2.974   7.674 -0.6317  0.3454  0.2553
 5200TIP3    H237236   0.568   3.105   7.625  0.7860 -0.1422  0.5628
 5201TIP3   OH237237   4.392   0.236   1.574 -0.4373  0.1773  0.1519
 5201TIP3    H137238   4.353   0.303   1.519  1.0256 -1.0429 -2.5344
 5201TIP3    H237239   4.480   0.225   1.541  0.2941 -1.1797  2.3135
 5202TIP3   OH237240   2.976   3.355   7.462 -0.2004 -0.7938  0.6718
 5202TIP3    H137241   3.034   3.300   7.515 -0.3249 -1.4600  0.1225
 5202TIP3    H237242   2.945   3.297   7.392  2.2124  0.7445 -1.9006
 5203TIP3   OH237243   1.102   2.859   8.023 -0.7943  0.5090  0.0784
 5203TIP3    H137244   1.138   2.863   8.111 -1.2918 -0.0126  0.3117
 5203TIP3    H237245   1.148   2.928   7.975 -0.0058  0.3178  0.5491
 5204TIP3   OH237246   6.245   6.666   2.750 -0.2243  0.4762  0.4126
 5204TIP3    H137247   6.242   6.657   2.845 -3.0624  0.4239  0.4108
 5204TIP3    H237248   6.185   6.737   2.730 -1.4322 -0.9428 -1.4369
 5205TIP3   OH237249   2.032   1.630   1.319  0.2442 -0.2809  0.0102
 5205TIP3    H137250   1.981   1.590   1.389 -0.0941  2.5346  1.5427
 5205TIP3    H237251   1.976   1.623   1.241  0.6991 -3.6199 -0.1593
 5206TIP3   OH237252   2.802   5.516   1.169 -0.5844  0.2342  0.0578
 5206TIP3    H137253   2.771   5.563   1.092 -0.5056  1.1501  0.5636
 5206TIP3    H237254   2.897   5.513   1.160 -0.4194  1.8030  0.8883
 5207TIP3   OH237255   5.702   5.049   2.823 -0.5316 -0.1134  0.1739
 5207TIP3    H137256   5.735   5.060   2.734  0.1440 -0.2567  0.4010
 5207TIP3    H237257   5.689   4.955   2.833 -2.6615  0.0610 -0.4804
 5208TIP3   OH237258   6.775   1.261   0.883  0.0835 -0.5006 -0.0568
 5208TIP3    H137259   6.785   1.228   0.794 -0.2511  0.1872 -0.3496
 5208TIP3    H237260   6.692   1.308   0.883  1.4257  2.0240 -0.1843
 5209TIP3   OH237261   2.113   0.416   6.987 -0.3115 -0.2683  0.2509
 5209TIP3    H137262   2.129   0.434   7.079 -0.3091  0.5120  0.1061
 5209TIP3    H237263   2.197   0.386   6.953  0.1856  1.1976  0.1056
 5210TIP3   OH237264   4.511   6.573   2.352 -0.5544  0.0104  0.2146
 5210TIP3    H137265   4.449   6.613   2.414  0.6553  0.4774  1.1556
 5210TIP3    H237266   4.567   6.518   2.407  0.6126  0.5154 -0.4573
 5211TIP3   OH237267   1.349   2.052   0.203 -0.0424  0.2639  0.1057
 5211TIP3    H137268   1.297   1.972   0.216 -0.6473  0.9433  2.4391
 5211TIP3    H237269   1.433   2.033   0.244 -0.3334  0.9306  1.0483
 5212TIP3   OH237270   4.061   6.777   0.257 -0.3536  0.2291  0.3017
 5212TIP3    H137271   4.134   6.722   0.229 -0.1062  0.3985  0.6065
 5212TIP3    H237272   3.998   6.716   0.295 -0.2584  0.1125  0.2739
 5213TIP3   OH237273   0.448   6.858   2.710 -0.7324 -0.1341  0.4413
 5213TIP3    H137274   0.503   6.936   2.719 -2.2824  1.0555  0.1811
 5213TIP3    H237275   0.509   6.785   2.710  0.9064  1.1541 -0.6173
 5214TIP3   OH237276   6.314   5.253   6.858 -0.4319  0.2646 -0.3873
 5214TIP3    H137277   6.238   5.302   6.890 -1.1938 -0.4929 -0.9829
 5214TIP3    H237278   6.375   5.251   6.931 -0.7256  1.4071 -0.0931
 5215TIP3   OH237279   3.340   5.057   2.430 -0.2827 -0.2088  0.3760
 5215TIP3    H137280   3.432   5.084   2.421 -0.7773  1.9933  1.3451
 5215TIP3    H237281   3.327   5.050   2.524 -1.7205  1.9678  0.3966
 5216TIP3   OH237282   3.524   0.064   8.150  0.1289 -0.4933 -0.5712
 5216TIP3    H137283   3.453   0.077   8.087 -1.4152  3.1935  1.5776
 5216TIP3    H237284   3.506  -0.021   8.190 -0.9586 -1.2284 -2.4680
 5217TIP3   OH237285   6.328   3.850   0.782 -0.6444  0.5215  0.1613
 5217TIP3    H137286   6.395   3.877   0.845  0.0827  0.4952 -0.5886
 5217TIP3    H237287   6.376   3.806   0.712 -1.3336  1.3407 -0.8648
 5218TIP3   OH237288   5.225   6.058   2.706 -0.0841  0.3603 -0.4462
 5218TIP3    H137289   5.265   6.143   2.687 -0.3239  0.9341  1.4572
 5218TIP3    H237290   5.136   6.066   2.672 -0.0512  0.7923 -0.4349
 5219TIP3   OH237291   2.823   3.687   1.756  0.1782 -0.4807  0.0314
 5219TIP3    H137292   2.834   3.709   1.664 -2.3501 -0.4710 -0.3414
 5219TIP3    H237293   2.747   3.738   1.784  1.1984 -0.0907  2.2765
 5220TIP3   OH237294   0.342   5.828   6.739 -0.7099 -0.4176  0.2631
 5220TIP3    H137295   0.350   5.746   6.787 -2.1604 -0.7166  0.0478
 5220TIP3    H237296   0.351   5.803   6.647 -0.5854 -0.2529  0.2308
 5221TIP3   OH237297   6.961   6.179   1.838  1.0311 -0.1000  0.5168
 5221TIP3    H137298   6.974   6.208   1.928  0.0468 -0.9821  0.9739
 5221TIP3    H237299   6.906   6.246   1.798  1.0925  0.0660  0.7136
 5222TIP3   OH237300   2.390   3.719   2.002 -0.3157  0.1245 -0.1150
 5222TIP3    H137301   2.427   3.790   2.055  1.0629  0.5164 -1.5572
 5222TIP3    H237302   2.296   3.721   2.023 -0.0440  1.2183  1.1773
 5223TIP3   OH237303   1.154   3.566   8.227 -0.0120  0.0535 -0.1349
 5223TIP3    H137304   1.083   3.621   8.195  0.8908  1.6675  0.5411
 5223TIP3    H237305   1.143   3.483   8.180 -1.9584  0.4702 -0.4822
 5224TIP3   OH237306   4.102   5.376   2.448  0.8274 -0.1131 -0.0072
 5224TIP3    H137307   4.100   5.467   2.416 -0.3696  0.5045  1.7272
 5224TIP3    H237308   4.172   5.376   2.513  0.2568 -0.2198  0.6045
 5225TIP3   OH237309   1.816   6.151   1.016 -0.7565  0.5724  0.3051
 5225TIP3    H137310   1.794   6.102   0.937 -0.3820  0.7769  0.0706
 5225TIP3    H237311   1.910   6.137   1.028 -0.5384  1.6129 -0.0401
 5226TIP3   OH237312   2.709   3.698   8.464 -0.5540 -0.3267 -0.0099
 5226TIP3    H137313   2.669   3.780   8.435 -1.2421 -0.7337 -0.2579
 5226TIP3    H237314   2.720   3.708   8.558  1.0984  0.7599 -0.2760
 5227TIP3   OH237315   1.705   5.388   0.438  0.2667  0.3739  0.4631
 5227TIP3    H137316   1.638   5.355   0.377  1.3926 -0.8595 -0.1528
 5227TIP3    H237317   1.654   5.430   0.508 -1.3652 -3.0365  1.5353
 5228TIP3   OH237318   4.297   4.552   6.187  0.3070 -0.2076  0.3958
 5228TIP3    H137319   4.381   4.562   6.231  1.1518 -0.4395 -1.1047
 5228TIP3    H237320   4.283   4.457   6.184 -0.7320 -0.1394  1.8953
 5229TIP3   OH237321   5.308   2.089   2.532 -0.1653  0.3448 -0.0715
 5229TIP3    H137322   5.333   2.017   2.474  0.8450 -0.4806  1.3490
 5229TIP3    H237323   5.212   2.086   2.533 -0.2322  0.6079 -1.9417
 5230TIP3   OH237324   0.830   4.576   7.794  0.0887 -0.7580 -0.1367
 5230TIP3    H137325   0.923   4.553   7.787  1.1149  2.6089  0.6210
 5230TIP3    H237326   0.812   4.629   7.717 -0.8735 -0.4948  0.2553
 5231TIP3   OH237327   3.741   1.266   7.862 -0.6644 -0.3748 -0.9291
 5231TIP3    H137328   3.817   1.229   7.907  0.4501  2.1983 -0.5389
 5231TIP3    H237329   3.676   1.279   7.931 -1.6539 -2.7577 -1.2919
 5232TIP3   OH237330   5.439   0.692   7.684 -0.2627 -0.4504  0.2605
 5232TIP3    H137331   5.453   0.670   7.776 -0.7634 -0.5462  0.3122
 5232TIP3    H237332   5.421   0.786   7.684 -0.1106 -0.4208  0.2435
 5233TIP3   OH237333   2.938   0.533   6.931  0.6026 -0.2028  0.3371
 5233TIP3    H137334   2.908   0.616   6.968  0.5762 -0.1407  0.1757
 5233TIP3    H237335   3.001   0.501   6.995 -0.8703 -1.0592  1.4073
 5234TIP3   OH237336   0.237   0.354   2.347 -0.2001 -0.0938 -0.6822
 5234TIP3    H137337   0.163   0.386   2.399 -1.2846 -0.3701 -1.9878
 5234TIP3    H237338   0.305   0.334   2.411 -0.6159  1.7917  0.4214
 5235TIP3   OH237339   4.447   5.597   6.002  0.2954 -0.8772 -0.3669
 5235TIP3    H137340   4.372   5.576   6.059  0.2564  1.4280  0.5252
 5235TIP3    H237341   4.524   5.583   6.057  0.2598  1.3167  0.3285
 5236TIP3   OH237342   4.172   5.249   1.340  0.3737  0.2748 -0.1178
 5236TIP3    H137343   4.209   5.195   1.410 -0.0427 -1.2780 -1.0410
 5236TIP3    H237344   4.171   5.338   1.375  0.6258 -0.3950  1.6559
 5237TIP3   OH237345   1.349   1.308   0.450 -0.6019 -0.0942 -0.0891
 5237TIP3    H137346   1.372   1.288   0.541  0.9377 -0.0470 -0.4335
 5237TIP3    H237347   1.256   1.327   0.452 -0.5183  0.2897  1.5555
 5238TIP3   OH237348   2.221   2.643   0.474 -0.1754  0.1124 -0.3943
 5238TIP3    H137349   2.130   2.631   0.448 -0.2324  0.3886 -0.3200
 5238TIP3    H237350   2.269   2.648   0.391 -0.1802 -0.3749 -0.4323
 5239TIP3   OH237351   2.106   0.241   1.590 -0.0182 -0.1355 -0.2481
 5239TIP3    H137352   2.195   0.271   1.576  0.4284 -0.7367  1.1576
 5239TIP3    H237353   2.100   0.160   1.540  0.0530  0.1528 -0.7360
 5240TIP3   OH237354   1.460   3.679   7.827 -0.0456  0.3449  0.1825
 5240TIP3    H137355   1.480   3.598   7.780  1.0675  0.3669  0.5891
 5240TIP3    H237356   1.448   3.651   7.918 -0.3126  0.5527  0.2125
 5241TIP3   OH237357   2.551   2.922   2.248 -0.6007 -0.2405  0.4399
 5241TIP3    H137358   2.568   3.007   2.208 -1.1803 -0.3292 -0.0095
 5241TIP3    H237359   2.615   2.915   2.319  0.8981 -0.3483 -0.8693
 5242TIP3   OH237360   4.040   5.752   5.825 -0.1038  0.0682  0.3035
 5242TIP3    H137361   4.132   5.770   5.807 -0.5722  2.6383  0.1972
 5242TIP3    H237362   4.030   5.658   5.807  1.8197  0.3049 -2.4991
 5243TIP3   OH237363   1.113   0.122   1.723 -0.3164  0.4353  0.4113
 5243TIP3    H137364   1.050   0.191   1.702  0.4964  0.6944 -1.3214
 5243TIP3    H237365   1.185   0.168   1.766 -0.5466  0.3895  0.8530
 5244TIP3   OH237366   6.029   2.962   0.679 -0.0221 -0.0637 -0.2318
 5244TIP3    H137367   6.087   3.015   0.734  0.0973  0.6130 -0.9912
 5244TIP3    H237368   5.952   3.016   0.665  0.7178  0.5604 -2.2297
 5245TIP3   OH237369   3.412   1.738   2.596 -0.3584 -0.3683  0.5324
 5245TIP3    H137370   3.498   1.772   2.619 -0.5851 -0.0942  0.9943
 5245TIP3    H237371   3.412   1.647   2.628  0.5289 -1.1011 -1.3956
 5246TIP3   OH237372   1.270   0.510   2.018  0.3904  0.1442 -0.5348
 5246TIP3    H137373   1.257   0.602   2.040 -3.5997  0.4018 -3.0644
 5246TIP3    H237374   1.351   0.509   1.966  1.1015  1.9759  0.4512
 5247TIP3   OH237375   6.346   5.193   7.288 -0.2312  0.2361  0.3070
 5247TIP3    H137376   6.347   5.275   7.241 -0.4103  0.3254  0.4596
 5247TIP3    H237377   6.438   5.179   7.313  0.1465 -0.5904 -1.3965
 5248TIP3   OH237378   1.303   0.127   0.513 -0.2408  0.4441  0.6222
 5248TIP3    H137379   1.366   0.139   0.441 -0.7840 -0.3829 -0.0046
 5248TIP3    H237380   1.296   0.214   0.552  0.9709  0.6524  0.4403
 5249TIP3   OH237381   6.272   5.055   0.361 -0.4881 -0.4078 -0.0848
 5249TIP3    H137382   6.316   5.100   0.288  0.0368  0.1363  0.5524
 5249TIP3    H237383   6.186   5.096   0.365 -0.2690  0.0513  0.0367
 5250TIP3   OH237384   1.517   4.327   0.059  0.0835 -0.7413 -0.8048
 5250TIP3    H137385   1.459   4.352  -0.013 -0.0924  1.6572  0.0869
 5250TIP3    H237386   1.605   4.333   0.021  0.1398  2.4274 -0.4363
 5251TIP3   OH237387   5.383   5.208   6.917 -0.6621 -0.6267 -0.3293
 5251TIP3    H137388   5.330   5.272   6.871 -3.1590 -0.1943  2.8558
 5251TIP3    H237389   5.470   5.249   6.924 -1.9562  2.1472  0.9109
 5252TIP3   OH237390   1.951   1.076   3.133  0.3616  0.4196 -0.2128
 5252TIP3    H137391   1.994   1.150   3.175  2.2080 -0.2483 -0.8388
 5252TIP3    H237392   1.857   1.093   3.144  0.7525  2.4770  0.2603
 5253TIP3   OH237393   4.507   2.980   8.194  0.1418 -0.0376 -0.4232
 5253TIP3    H137394   4.578   3.002   8.255  1.1929  0.5467 -1.8013
 5253TIP3    H237395   4.453   3.058   8.190  1.4171  0.8296 -1.9919
 5254TIP3   OH237396   6.761   1.858   0.078 -0.3030 -0.2615 -0.0085
 5254TIP3    H137397   6.848   1.858   0.038  0.1323  1.1735  0.8711
 5254TIP3    H237398   6.776   1.879   0.170 -1.6201  0.5110  0.0567
 5255TIP3   OH237399   5.493   3.562   0.444 -0.2425  0.4247  0.3680
 5255TIP3    H137400   5.502   3.656   0.460 -0.1249  0.5543 -0.4295
 5255TIP3    H237401   5.538   3.547   0.361  0.6019 -0.5068  0.9569
 5256TIP3   OH237402   6.917   6.723   1.999 -0.0302 -0.2418  0.3493
 5256TIP3    H137403   6.982   6.785   2.034 -0.6117  1.3194 -1.1485
 5256TIP3    H237404   6.868   6.775   1.935 -1.2985 -1.9942 -0.1572
 5257TIP3   OH237405   0.608   6.814   8.131  0.2978  0.6126  0.3231
 5257TIP3    H137406   0.643   6.897   8.161  1.2752 -0.3392  1.9747
 5257TIP3    H237407   0.612   6.757   8.208  1.3470 -1.4964 -1.1747
 5258TIP3   OH237408   1.409   4.535   1.914 -0.2114 -0.3099 -0.6597
 5258TIP3    H137409   1.476   4.514   1.849  0.3583 -1.6606  0.3198
 5258TIP3    H237410   1.458   4.564   1.991 -0.7851 -0.6245 -0.1664
 5259TIP3   OH237411   2.000   1.331   7.987  0.5992 -0.2096  0.2867
 5259TIP3    H137412   1.940   1.402   8.009 -0.6689 -1.8289  2.3490
 5259TIP3    H237413   2.087   1.366   8.006  0.1044  1.1659  0.1315
 5260TIP3   OH237414   6.052   3.518   1.042 -0.3788 -0.4175 -0.0457
 5260TIP3    H137415   6.055   3.519   1.138  1.8638  0.9953 -0.0609
 5260TIP3    H237416   6.044   3.425   1.019  4.1816 -1.4668  1.5513
 5261TIP3   OH237417   6.082   6.085   7.332 -0.2039 -0.2958 -0.0610
 5261TIP3    H137418   6.061   6.141   7.257  4.1253 -0.1513 -1.4855
 5261TIP3    H237419   6.129   6.142   7.392  1.1839 -1.5343  0.1025
 5262TIP3   OH237420   3.759   1.277   2.811  0.5789  0.0314  0.5693
 5262TIP3    H137421   3.753   1.239   2.898  0.4657  0.5204  0.7779
 5262TIP3    H237422   3.726   1.367   2.821 -0.2285 -0.1612 -0.1340
 5263TIP3   OH237423   4.501   4.195   1.877  0.1518  0.0230  0.6933
 5263TIP3    H137424   4.464   4.187   1.965  1.0247  0.4585  1.1229
 5263TIP3    H237425   4.596   4.202   1.892  0.5271 -2.0676 -0.4139
 5264TIP3   OH237426   6.772   5.151   1.865  0.1706 -0.2502 -0.6610
 5264TIP3    H137427   6.725   5.164   1.947  0.2365  1.6471 -0.8699
 5264TIP3    H237428   6.819   5.069   1.876 -2.2177 -1.6339  0.0145
 5265TIP3   OH237429   3.111   5.545   6.029 -0.0842 -0.0756 -0.1406
 5265TIP3    H137430   3.097   5.466   5.976  0.3338 -0.3562  0.1644
 5265TIP3    H237431   3.206   5.559   6.027 -0.2890  1.4666 -1.6975
 5266TIP3   OH237432   0.743   5.376   7.450 -0.2806  0.3712 -0.1782
 5266TIP3    H137433   0.650   5.356   7.448 -0.5683  1.5464  0.6298
 5266TIP3    H237434   0.768   5.368   7.542  0.2633  0.7216 -0.2885
 5267TIP3   OH237435   1.902   3.915   0.578  0.0061  0.0145  0.1288
 5267TIP3    H137436   1.903   4.004   0.613 -1.2744 -0.9495  2.9245
 5267TIP3    H237437   1.811   3.899   0.556  0.0744 -0.8653  0.4617
 5268TIP3   OH237438   3.901   0.168   2.174 -0.4959  0.3592 -0.6587
 5268TIP3    H137439   3.805   0.170   2.168 -0.4408 -0.2308 -1.9467
 5268TIP3    H237440   3.918   0.139   2.264 -1.5007  1.6965  0.0066
 5269TIP3   OH237441   1.982   1.308   0.919  0.0916  0.4279 -0.0215
 5269TIP3    H137442   2.068   1.347   0.904 -0.0169  0.6253 -0.1266
 5269TIP3    H237443   1.933   1.375   0.967 -0.0138  0.3303  0.0074
 5270TIP3   OH237444   3.759   0.951   7.634  0.6302  0.2913  0.7372
 5270TIP3    H137445   3.756   0.974   7.541 -1.0275  0.2805  0.7623
 5270TIP3    H237446   3.691   1.004   7.674  0.9830 -0.0880  1.8681
 5271TIP3   OH237447   3.408   4.164   7.945 -0.2929 -0.2259 -0.2053
 5271TIP3    H137448   3.313   4.155   7.949 -0.3655  0.1511 -1.0313
 5271TIP3    H237449   3.425   4.211   7.864  0.7154 -1.9233 -1.0283
 5272TIP3   OH237450   5.446   1.004   0.354 -0.2898 -0.1134  0.0007
 5272TIP3    H137451   5.456   0.991   0.260  2.1563 -0.2789  0.2242
 5272TIP3    H237452   5.520   1.058   0.379 -0.5646 -0.5460  1.9326
 5273TIP3   OH237453   5.892   3.163   1.012 -0.5927 -0.4002  0.1268
 5273TIP3    H137454   5.961   3.221   1.044  0.1479 -0.2557 -1.6289
 5273TIP3    H237455   5.913   3.149   0.919 -1.8973 -1.8446  0.0091
 5274TIP3   OH237456   5.555   6.536   6.704 -0.2815  0.0929 -0.8106
 5274TIP3    H137457   5.614   6.479   6.654 -0.0069 -0.0807 -0.2912
 5274TIP3    H237458   5.580   6.523   6.795 -1.1230  0.0087 -0.5776
 5275TIP3   OH237459   5.496   1.464   2.761  0.0546  0.0690  0.3496
 5275TIP3    H137460   5.478   1.387   2.708 -1.0366  1.3534 -1.2581
 5275TIP3    H237461   5.434   1.458   2.835  1.7545 -1.8559  1.7228
 5276TIP3   OH237462   3.436   4.475   6.904 -0.5173 -0.4216 -0.4313
 5276TIP3    H137463   3.487   4.396   6.915  2.3584  1.3446  0.0038
 5276TIP3    H237464   3.444   4.497   6.811  2.6076  1.5955  0.1424
 5277TIP3   OH237465   1.476   0.536   6.847  0.4067 -0.2652  0.2317
 5277TIP3    H137466   1.557   0.509   6.890  0.0751  0.0895  1.0916
 5277TIP3    H237467   1.486   0.630   6.831 -0.2864  0.0299  1.3999
 5278TIP3   OH237468   0.650   4.664   6.809 -0.5764  0.4061  0.7493
 5278TIP3    H137469   0.653   4.696   6.719 -0.2396 -1.8530 -0.1080
 5278TIP3    H237470   0.703   4.584   6.808 -1.3730 -0.2173  2.7199
 5279TIP3   OH237471   0.322   3.348   3.242  0.0892 -0.1577 -0.3932
 5279TIP3    H137472   0.342   3.372   3.151  0.2677  0.3135 -0.2339
 5279TIP3    H237473   0.300   3.431   3.284 -0.0551 -0.3839 -0.0211
 5280TIP3   OH237474   3.229   2.482   0.327 -0.1425  0.6118 -0.3470
 5280TIP3    H137475   3.140   2.459   0.352  0.4828 -1.7255 -0.0680
 5280TIP3    H237476   3.257   2.412   0.268  0.2362  3.2536 -3.6127
 5281TIP3   OH237477   0.402   2.667   2.169  0.1585  0.1822  0.2743
 5281TIP3    H137478   0.328   2.703   2.120  1.1885 -0.5020 -1.9241
 5281TIP3    H237479   0.391   2.702   2.258 -2.1117  1.0531 -0.2719
 5282TIP3   OH237480   6.933   6.912   7.512 -0.7233 -0.3936  0.1164
 5282TIP3    H137481   6.892   6.988   7.553 -0.5641  0.6905 -1.6255
 5282TIP3    H237482   6.955   6.855   7.586 -1.0800  1.1123  1.4677
 5283TIP3   OH237483   1.723   3.325   0.284  0.1337 -0.0472  0.5390
 5283TIP3    H137484   1.654   3.368   0.233  0.6756  0.8432  0.5294
 5283TIP3    H237485   1.711   3.358   0.373 -0.4737 -1.1830  0.8975
 5284TIP3   OH237486   6.062   1.484   7.899 -0.4480 -0.3086  0.4037
 5284TIP3    H137487   6.003   1.531   7.958  0.6086  1.4304  0.1427
 5284TIP3    H237488   6.147   1.487   7.942 -0.4218 -2.6187  0.6815
 5285TIP3   OH237489   2.445   6.861   3.570 -0.0354 -0.3877  0.1597
 5285TIP3    H137490   2.423   6.847   3.478  0.6463 -0.6236  0.0237
 5285TIP3    H237491   2.478   6.951   3.573  2.3009 -1.1462 -0.3281
 5286TIP3   OH237492   0.997   6.475   7.702 -0.7133 -0.5786 -0.2795
 5286TIP3    H137493   0.991   6.450   7.794 -2.5741 -0.3181 -0.2943
 5286TIP3    H237494   1.043   6.403   7.660  1.4015 -0.0916  1.0469
 5287TIP3   OH237495   2.086   3.816   8.053  0.5132  0.4469 -0.2652
 5287TIP3    H137496   2.115   3.803   7.963  0.9078  1.8189 -0.3515
 5287TIP3    H237497   1.993   3.838   8.046 -0.0064 -1.4831 -0.1568
 5288TIP3   OH237498   0.680   6.368   7.915  0.0323  0.2794  0.0739
 5288TIP3    H137499   0.748   6.341   7.976  0.6134  1.6774  0.0794
 5288TIP3    H237500   0.615   6.413   7.969 -0.3770 -0.1101 -0.0859
 5289TIP3   OH237501   4.825   6.640   7.466 -0.4544 -0.1920 -0.0840
 5289TIP3    H137502   4.848   6.569   7.406 -0.0944  0.4633 -0.7479
 5289TIP3    H237503   4.890   6.634   7.536  0.3642  0.2434 -0.7842
 5290TIP3   OH237504   5.895   4.597   7.451 -0.0036 -0.0627 -0.0512
 5290TIP3    H137505   5.904   4.556   7.537 -0.9153  0.3048  0.2341
 5290TIP3    H237506   5.858   4.529   7.395 -1.2653  0.2539  0.3559
 5291TIP3   OH237507   4.665   6.383   7.371 -0.0476  0.5277  0.3821
 5291TIP3    H137508   4.669   6.423   7.284  1.1794  1.1138  0.6863
 5291TIP3    H237509   4.575   6.352   7.379 -0.3783  1.1259 -0.8063
 5292TIP3   OH237510   0.876   5.257   0.260  0.7548 -0.0492  0.4604
 5292TIP3    H137511   0.929   5.261   0.181  0.2996  0.1749  0.1590
 5292TIP3    H237512   0.938   5.245   0.331  1.3510  1.8063  0.2954
 5293TIP3   OH237513   3.314   6.788   0.509 -0.3928 -0.2437  0.1977
 5293TIP3    H137514   3.259   6.851   0.555 -0.5312 -0.0372 -0.2424
 5293TIP3    H237515   3.348   6.837   0.434  0.4100 -0.3610  0.4735
 5294TIP3   OH237516   6.306   3.785   1.945 -0.1866  0.1192 -0.3569
 5294TIP3    H137517   6.296   3.757   1.854  1.1551 -0.2345 -0.4116
 5294TIP3    H237518   6.379   3.733   1.978 -0.6893  0.2203  0.9377
 5295TIP3   OH237519   4.593   0.976   8.451  0.3515 -0.5897 -0.6429
 5295TIP3    H137520   4.563   1.013   8.368 -0.5644 -0.5387 -0.2899
 5295TIP3    H237521   4.617   0.886   8.430  1.6182 -0.1317 -1.2865
 5296TIP3   OH237522   6.469   1.153   7.223 -0.3096 -0.0225 -0.9451
 5296TIP3    H137523   6.519   1.103   7.288 -0.7809 -2.5515 -2.4025
 5296TIP3    H237524   6.512   1.239   7.221  2.0563 -1.0993  0.0176
 5297TIP3   OH237525   2.180   2.361   1.468 -0.3301 -0.5546 -0.4356
 5297TIP3    H137526   2.149   2.392   1.383 -3.0189 -0.8135  0.3758
 5297TIP3    H237527   2.269   2.331   1.451 -0.2173  0.8578 -2.7986
 5298TIP3   OH237528   6.871   2.169   7.497 -0.2667  0.2400 -0.1118
 5298TIP3    H137529   6.873   2.252   7.544 -1.4479 -0.8614  1.9953
 5298TIP3    H237530   6.780   2.141   7.501  0.1327 -1.2458 -0.6374
 5299TIP3   OH237531   5.593   0.600   8.266  0.2731 -0.8836 -0.3957
 5299TIP3    H137532   5.512   0.552   8.284  0.7752 -1.6847 -0.2134
 5299TIP3    H237533   5.661   0.533   8.268  1.0048 -0.1502 -0.0638
 5300TIP3   OH237534   4.961   1.952   0.937 -0.4035  1.0870 -0.2624
 5300TIP3    H137535   4.980   1.862   0.962 -1.0981  1.0907  0.3071
 5300TIP3    H237536   5.044   1.998   0.948 -0.6791  1.1187  2.2219
 5301TIP3   OH237537   3.057   0.908   2.529 -0.2820  0.0486  0.3072
 5301TIP3    H137538   2.978   0.961   2.542  0.7314  1.2401  2.2028
 5301TIP3    H237539   3.050   0.838   2.594 -1.3064 -1.8764 -1.7669
 5302TIP3   OH237540   4.038   5.424   7.394  0.0146  0.1356 -0.3752
 5302TIP3    H137541   4.134   5.429   7.394  0.0398 -0.0650  1.0880
 5302TIP3    H237542   4.016   5.397   7.305  1.3389 -0.1602 -0.6396
 5303TIP3   OH237543   4.882   0.790   0.293  0.0210  0.4455 -0.4431
 5303TIP3    H137544   4.835   0.855   0.344 -0.3225 -1.2665  1.5926
 5303TIP3    H237545   4.814   0.741   0.247  0.2515  1.2915 -1.7095
 5304TIP3   OH237546   6.643   0.542   8.399  0.2948  0.4003 -0.0871
 5304TIP3    H137547   6.585   0.517   8.471 -0.9624  1.4463 -0.7065
 5304TIP3    H237548   6.651   0.637   8.406  1.1420  0.3789 -0.6218
 5305TIP3   OH237549   6.583   3.758   2.482 -0.7351 -0.7134 -0.4911
 5305TIP3    H137550   6.605   3.772   2.390 -3.6568  1.1081 -1.0359
 5305TIP3    H237551   6.489   3.775   2.487 -0.7500 -1.1542  2.7829
 5306TIP3   OH237552   1.953   3.125   1.006 -0.1436  0.2206 -0.0528
 5306TIP3    H137553   1.875   3.178   0.989 -0.6232  0.4799  2.6392
 5306TIP3    H237554   1.943   3.050   0.946 -1.8761  0.8004 -0.5606
 5307TIP3   OH237555   0.334   2.971   1.382 -0.5361  0.1941 -0.3578
 5307TIP3    H137556   0.411   2.935   1.338  0.7228 -1.4131  2.8560
 5307TIP3    H237557   0.362   3.057   1.413 -0.2041 -0.1517  0.3166
 5308TIP3   OH237558   4.419   5.683   2.750 -0.2091  0.2993 -0.3520
 5308TIP3    H137559   4.437   5.768   2.788  1.8948 -0.1680 -0.1568
 5308TIP3    H237560   4.385   5.631   2.822 -0.3784  0.6472 -0.1822
 5309TIP3   OH237561   4.799   4.411   0.017 -0.1992  0.5682  0.3327
 5309TIP3    H137562   4.818   4.452  -0.067 -2.9326  1.5509  0.0869
 5309TIP3    H237563   4.744   4.475   0.063 -0.2004 -0.6601  2.1674
 5310TIP3   OH237564   6.730   0.846   7.146  0.2291  0.6561 -0.6720
 5310TIP3    H137565   6.756   0.902   7.073  1.4962  1.3284  0.2494
 5310TIP3    H237566   6.807   0.791   7.163 -0.0965  0.4039  0.0563
 5311TIP3   OH237567   4.745   4.502   1.133 -0.0314 -0.2984 -0.2428
 5311TIP3    H137568   4.788   4.446   1.197 -0.0505  0.2140  0.2186
 5311TIP3    H237569   4.756   4.456   1.050  0.3726 -0.7494  0.0597
 5312TIP3   OH237570   0.025   3.642   1.935 -0.2069  0.2919 -0.6058
 5312TIP3    H137571   0.074   3.709   1.982 -1.8515  1.0326  0.1362
 5312TIP3    H237572  -0.000   3.579   2.003 -1.7968  0.8739 -0.6143
 5313TIP3   OH237573   1.384   5.511   8.110  0.1621 -0.4944 -0.8065
 5313TIP3    H137574   1.459   5.464   8.147 -0.4369 -1.8606 -1.2549
 5313TIP3    H237575   1.415   5.600   8.097  0.2925  0.3439  3.5114
 5314TIP3   OH237576   6.256   6.345   2.620  0.0084  0.3787  0.2268
 5314TIP3    H137577   6.297   6.357   2.535  0.9353 -0.2812  0.5689
 5314TIP3    H237578   6.249   6.434   2.656  0.5116  0.5609 -0.1201
 5315TIP3   OH237579   1.899   6.581   6.835 -0.3411  0.3185  0.0420
 5315TIP3    H137580   1.873   6.493   6.808 -1.5330  0.4990  0.5278
 5315TIP3    H237581   1.834   6.639   6.794  0.5835  1.0000 -0.4851
 5316TIP3   OH237582   5.561   5.365   7.420 -0.1636 -0.2299 -0.1986
 5316TIP3    H137583   5.572   5.400   7.332 -0.2517  0.2043 -0.0435
 5316TIP3    H237584   5.643   5.319   7.438  0.0085  0.0026 -0.3667
 5317TIP3   OH237585   4.267   1.013   1.774  0.2870  0.0298  0.2608
 5317TIP3    H137586   4.171   1.017   1.765 -0.1273 -1.4002  3.0725
 5317TIP3    H237587   4.289   1.090   1.825  0.1495 -1.2354  2.3363
 5318TIP3   OH237588   6.640   2.644   1.851  0.9037  0.1688  0.5388
 5318TIP3    H137589   6.646   2.601   1.766  1.3814 -0.7455  1.0192
 5318TIP3    H237590   6.582   2.720   1.836  0.2925 -0.4634 -0.3931
 5319TIP3   OH237591   1.255   5.687   7.264  0.2340 -0.1252  0.2348
 5319TIP3    H137592   1.340   5.664   7.227  0.6678  0.7350  0.6636
 5319TIP3    H237593   1.194   5.681   7.190  0.6559 -0.7781 -0.0682
 5320TIP3   OH237594   4.556   0.560   2.818 -0.2255  0.2622  0.0837
 5320TIP3    H137595   4.572   0.654   2.810 -0.8707  0.4516  0.8421
 5320TIP3    H237596   4.639   0.525   2.852 -0.1101  0.6242  0.1832
 5321TIP3   OH237597   5.222   5.425   1.530  0.7723  0.1395 -0.5426
 5321TIP3    H137598   5.276   5.402   1.605  0.5200 -1.1781 -0.7403
 5321TIP3    H237599   5.132   5.422   1.563  0.7256  0.9778 -0.5572
 5322TIP3   OH237600   1.236   0.093   6.949  0.1569  0.2258  0.4129
 5322TIP3    H137601   1.278   0.007   6.957 -1.3458 -0.5588  0.2844
 5322TIP3    H237602   1.254   0.120   6.859 -0.8065 -0.7827 -0.1121
 5323TIP3   OH237603   2.342   4.549   7.249 -0.0220 -0.1519 -0.0502
 5323TIP3    H137604   2.295   4.596   7.180  0.4045  0.0286 -0.2251
 5323TIP3    H237605   2.335   4.457   7.225 -3.2777 -0.5285  1.7596
 5324TIP3   OH237606   0.736   1.803   2.631 -0.2456  0.4737  0.2452
 5324TIP3    H137607   0.777   1.726   2.671 -0.6568  1.1578  2.0520
 5324TIP3    H237608   0.804   1.839   2.573  0.6056 -0.1667  0.8212
 5325TIP3   OH237609   2.106   4.456   1.475 -0.2091  0.3436  0.9450
 5325TIP3    H137610   2.187   4.500   1.501 -0.0491  0.8278 -0.3024
 5325TIP3    H237611   2.083   4.403   1.551  1.7144 -0.4502  1.0496
 5326TIP3   OH237612   6.857   2.819   1.887  0.0454  0.3504  0.4947
 5326TIP3    H137613   6.796   2.745   1.883  0.6507 -0.2101  1.3793
 5326TIP3    H237614   6.858   2.854   1.798 -0.8795 -0.1940  0.2599
 5327TIP3   OH237615   0.166   4.923   7.742 -0.0147  0.1162  0.0685
 5327TIP3    H137616   0.128   4.933   7.655 -1.0839 -1.0391  0.3859
 5327TIP3    H237617   0.230   4.994   7.748  1.5632 -0.9653 -2.4287
 5328TIP3   OH237618   3.132   4.312   0.254 -0.1281  0.1863 -0.2882
 5328TIP3    H137619   3.181   4.392   0.239 -1.1846  0.5353 -2.1044
 5328TIP3    H237620   3.128   4.269   0.168 -1.8601 -0.4745  0.0864
 5329TIP3   OH237621   1.229   6.235   2.125 -0.2660 -0.6161  0.4122
 5329TIP3    H137622   1.310   6.185   2.121  1.0588  1.4956 -2.3480
 5329TIP3    H237623   1.162   6.174   2.093  1.2679 -0.8881 -2.7100
 5330TIP3   OH237624   1.860   4.431   7.770 -0.3497  0.1663 -0.1334
 5330TIP3    H137625   1.894   4.425   7.681  0.5520 -0.2144  0.2305
 5330TIP3    H237626   1.873   4.523   7.794 -1.6732  0.5566 -0.7992
 5331TIP3   OH237627   5.988   6.295   0.612  0.0707 -0.2808 -0.3726
 5331TIP3    H137628   5.940   6.285   0.530  0.9282 -0.4266 -0.8636
 5331TIP3    H237629   6.078   6.312   0.585  0.0281  1.5723  0.4949
 5332TIP3   OH237630   4.413   3.222   6.908 -0.0482 -0.2262 -0.4086
 5332TIP3    H137631   4.492   3.277   6.901 -0.1730  0.0101  0.0591
 5332TIP3    H237632   4.444   3.141   6.949  0.1849 -0.6188 -1.3170
 5333TIP3   OH237633   1.694   2.933   1.123 -0.0993 -0.5257 -0.4337
 5333TIP3    H137634   1.721   2.958   1.034  0.6832  0.4648  0.0584
 5333TIP3    H237635   1.620   2.991   1.142  0.1995 -0.2237 -0.1756
 5334TIP3   OH237636   4.816   1.456   1.729 -0.2337  0.0258  0.0688
 5334TIP3    H137637   4.901   1.435   1.766  1.0389  1.6284 -1.7482
 5334TIP3    H237638   4.796   1.544   1.763 -0.3166  0.3762 -0.8503
 5335TIP3   OH237639   4.557   5.527   8.512 -0.0770  0.3926 -0.3820
 5335TIP3    H137640   4.572   5.477   8.432 -1.4654 -0.6736 -0.0079
 5335TIP3    H237641   4.603   5.609   8.498  1.2365 -0.4989 -1.5178
 5336TIP3   OH237642   2.568   1.261   8.005 -0.0977  0.0698 -0.2179
 5336TIP3    H137643   2.553   1.227   8.094 -0.2241 -0.5935 -0.4861
 5336TIP3    H237644   2.656   1.298   8.009 -0.5412  1.1099  0.4968
 5337TIP3   OH237645   0.107   1.102   7.853  0.3589 -0.0089 -0.0422
 5337TIP3    H137646   0.163   1.087   7.929 -0.3606 -0.8053  0.3619
 5337TIP3    H237647   0.019   1.111   7.891  0.2004  1.1350 -0.6618
 5338TIP3   OH237648   5.446   1.014   1.216  0.2811 -0.0777 -0.1102
 5338TIP3    H137649   5.485   1.086   1.167  1.0467 -0.3390  0.1062
 5338TIP3    H237650   5.472   0.935   1.167  1.7516 -0.4081  1.1385
 5339TIP3   OH237651   0.216   1.991   0.721  0.5006 -0.2915 -0.3337
 5339TIP3    H137652   0.252   2.036   0.797  0.8334  1.4700 -1.4735
 5339TIP3    H237653   0.202   1.901   0.751 -1.0530  0.7109  2.3387
 5340TIP3   OH237654   4.100   2.411   1.517 -0.3769  0.3615 -0.0382
 5340TIP3    H137655   4.122   2.458   1.598 -1.2371 -0.8053  0.9077
 5340TIP3    H237656   4.157   2.334   1.519  0.8506  1.1838 -1.4542
 5341TIP3   OH237657   1.020   4.239   7.224 -0.6462  0.2804  0.2495
 5341TIP3    H137658   1.087   4.304   7.243  0.4338 -1.2788  2.2792
 5341TIP3    H237659   0.980   4.268   7.142 -0.8800  3.9221  1.4996
 5342TIP3   OH237660   1.392   1.833   2.463 -0.4298 -0.1289  0.9295
 5342TIP3    H137661   1.416   1.771   2.532 -1.1423 -0.5321  0.8233
 5342TIP3    H237662   1.299   1.816   2.446 -0.0949 -0.5327 -0.6321
 5343TIP3   OH237663   5.481   2.197   1.206 -0.1982  0.0362  0.2837
 5343TIP3    H137664   5.551   2.136   1.228  0.3842  0.5855 -0.0213
 5343TIP3    H237665   5.410   2.175   1.266  0.4398 -0.1625  0.9764
 5344TIP3   OH237666   2.861   6.085   2.837 -0.0404  0.4690 -0.1039
 5344TIP3    H137667   2.936   6.120   2.790  1.0610  0.7147  1.7507
 5344TIP3    H237668   2.786   6.105   2.780  1.1560  1.1266 -1.5163
 5345TIP3   OH237669   0.523   3.073   0.912  0.3927 -0.2233  0.2341
 5345TIP3    H137670   0.582   3.022   0.856  1.1419  0.4753  0.3525
 5345TIP3    H237671   0.517   3.158   0.868  0.0405 -0.0555  0.6039
 5346TIP3   OH237672   4.346   0.894   2.211  0.1125  0.0748  0.4671
 5346TIP3    H137673   4.284   0.825   2.186 -1.2254  0.9130  1.4035
 5346TIP3    H237674   4.328   0.911   2.303 -0.7137  2.8142 -0.1357
 5347TIP3   OH237675   3.894   4.712   0.591 -0.0085 -0.1666 -0.1039
 5347TIP3    H137676   3.929   4.668   0.513  1.6283  1.9555 -0.6729
 5347TIP3    H237677   3.926   4.660   0.664  1.1820 -0.4066 -0.7685
 5348TIP3   OH237678   2.762   6.432   7.807 -0.0429 -0.0171  0.2431
 5348TIP3    H137679   2.798   6.404   7.723  2.1185  1.3126  0.6647
 5348TIP3    H237680   2.759   6.527   7.802 -1.7321  0.0038  0.9914
 5349TIP3   OH237681   2.615   1.880   2.655  0.1391 -0.0950 -0.0531
 5349TIP3    H137682   2.594   1.846   2.568 -1.2588  0.3429  0.0816
 5349TIP3    H237683   2.644   1.803   2.704 -1.4971 -0.8587 -0.1983
 5350TIP3   OH237684   6.666   6.743   7.567  0.3270 -0.0385  0.3279
 5350TIP3    H137685   6.711   6.663   7.543  0.8787 -0.3290  2.1956
 5350TIP3    H237686   6.729   6.813   7.548  0.8185 -0.2761  1.0442
 5351TIP3   OH237687   3.503   6.103   7.870 -0.0719 -0.1140 -0.0697
 5351TIP3    H137688   3.446   6.162   7.820 -0.3270  0.4085  0.8248
 5351TIP3    H237689   3.442   6.051   7.923  0.2869  0.8553  1.3435
 5352TIP3   OH237690   6.863   6.749   8.112  0.6783  0.4492 -0.1786
 5352TIP3    H137691   6.921   6.674   8.122  0.3487 -0.0439 -1.6988
 5352TIP3    H237692   6.847   6.755   8.018  0.4045  2.2120 -0.0631
 5353TIP3   OH237693   1.891   1.319   0.265 -0.3180 -0.1152  0.5119
 5353TIP3    H137694   1.981   1.292   0.249 -0.3055 -0.7921  1.6298
 5353TIP3    H237695   1.840   1.278   0.195  0.5514  2.7275 -2.0227
 5354TIP3   OH237696   4.087   6.775   1.079 -0.3321 -0.1581 -0.0392
 5354TIP3    H137697   4.169   6.761   1.031 -0.1090 -0.1531  0.3416
 5354TIP3    H237698   4.027   6.810   1.013  0.2672  0.8036 -0.0870
 5355TIP3   OH237699   6.482   2.867   1.831 -0.0534 -0.4230 -0.3683
 5355TIP3    H137700   6.463   2.898   1.742 -2.1982  0.5784  0.3637
 5355TIP3    H237701   6.484   2.947   1.884  1.5005 -0.9742  0.4532
 5356TIP3   OH237702   2.719   0.746   8.201 -0.1765 -0.4458  0.4034
 5356TIP3    H137703   2.788   0.684   8.225 -1.7747 -2.4018  0.2428
 5356TIP3    H237704   2.747   0.829   8.239  2.6434 -0.9467 -0.3460
 5357TIP3   OH237705   1.773   0.705   0.832  0.1598  0.1108  0.5399
 5357TIP3    H137706   1.721   0.776   0.795 -0.2936 -0.5375 -0.0985
 5357TIP3    H237707   1.720   0.669   0.902 -0.3473 -0.6498 -0.2110
 5358TIP3   OH237708   0.574   0.677   7.125  0.5396 -0.3933  0.2483
 5358TIP3    H137709   0.529   0.746   7.077  1.9289  0.0069 -0.5482
 5358TIP3    H237710   0.665   0.707   7.132  0.3898 -0.4263  3.2409
 5359TIP3   OH237711   4.800   2.469   1.852 -0.3648  0.0261 -0.0469
 5359TIP3    H137712   4.794   2.410   1.928 -0.7170 -1.2461 -1.0326
 5359TIP3    H237713   4.821   2.554   1.890 -1.2880 -0.4120  1.5503
 5360TIP3   OH237714   0.753   0.362   8.493 -0.4638 -0.3116 -0.2678
 5360TIP3    H137715   0.715   0.397   8.574  3.5196  1.1390  1.1771
 5360TIP3    H237716   0.755   0.267   8.507  1.4210 -0.0099  2.0629
 5361TIP3   OH237717   3.298   4.104   1.378  0.4036  0.6683 -0.0315
 5361TIP3    H137718   3.340   4.171   1.324 -4.1365  2.8975 -1.3766
 5361TIP3    H237719   3.327   4.123   1.467  3.0272  1.1542 -0.9091
 5362TIP3   OH237720   0.910   5.376   2.159  0.0431 -0.2023  0.1255
 5362TIP3    H137721   0.985   5.428   2.132 -0.3609  0.4088  0.1595
 5362TIP3    H237722   0.948   5.294   2.192  0.7010  0.1860  0.3543
 5363TIP3   OH237723   0.632   6.275   0.854 -0.1443  0.1857  0.0058
 5363TIP3    H137724   0.703   6.240   0.799  0.7738  0.6093  0.8853
 5363TIP3    H237725   0.559   6.215   0.840  0.2370 -0.0289 -1.2459
 5364TIP3   OH237726   1.472   2.541   2.197  0.6541 -0.3539 -0.4468
 5364TIP3    H137727   1.500   2.582   2.279  1.0605  0.3345 -0.9195
 5364TIP3    H237728   1.408   2.602   2.160  0.5121 -0.6373 -0.6747
 5365TIP3   OH237729   3.589   6.370   7.485  0.2408 -0.2314  0.0197
 5365TIP3    H137730   3.636   6.313   7.546 -0.3968 -1.0261 -0.2031
 5365TIP3    H237731   3.497   6.364   7.513 -0.3504 -2.0400 -2.0489
 5366TIP3   OH237732   0.832   3.244   0.947 -0.1931 -0.1509  0.0739
 5366TIP3    H137733   0.815   3.200   1.031  0.8880  1.2160  1.0718
 5366TIP3    H237734   0.773   3.318   0.947  0.5326  0.4398  0.1341
 5367TIP3   OH237735   4.444   3.475   7.447  0.2912  0.5700  0.5960
 5367TIP3    H137736   4.519   3.514   7.403  0.8201 -0.8239  0.2063
 5367TIP3    H237737   4.403   3.548   7.494  0.8864  1.6876 -0.5522
 5368TIP3   OH237738   4.039   0.326   2.416 -0.1892  0.1815  0.5384
 5368TIP3    H137739   3.950   0.353   2.440 -0.2475  1.3459 -0.8548
 5368TIP3    H237740   4.092   0.350   2.492 -0.7936  1.1987  0.6627
 5369TIP3   OH237741   4.183   0.746   0.958 -0.3280 -0.2111 -0.1690
 5369TIP3    H137742   4.256   0.808   0.949  0.8427 -0.8160  3.5793
 5369TIP3    H237743   4.127   0.784   1.025 -1.5425 -1.5343 -0.3839
 5370TIP3   OH237744   5.683   2.036   1.235 -0.1356  0.7908 -0.1306
 5370TIP3    H137745   5.725   2.040   1.149  0.6274 -0.7606  0.1246
 5370TIP3    H237746   5.752   2.062   1.297  0.0717 -0.4131  0.1769
 5371TIP3   OH237747   1.481   1.879   1.351  0.7037  0.0197  0.2739
 5371TIP3    H137748   1.452   1.787   1.353  1.2417 -0.1699 -0.2196
 5371TIP3    H237749   1.576   1.873   1.350  0.7453  0.6059  0.7692
 5372TIP3   OH237750   3.442   0.364   1.564 -0.0128 -0.8834  0.2037
 5372TIP3    H137751   3.406   0.313   1.491 -0.7550  0.0229 -0.0895
 5372TIP3    H237752   3.379   0.436   1.576  0.5397 -0.5435  1.1860
 5373TIP3   OH237753   6.099   5.226   7.478 -0.0522  0.4496 -0.4669
 5373TIP3    H137754   6.051   5.299   7.441 -0.3112 -0.5038 -2.1209
 5373TIP3    H237755   6.187   5.260   7.494 -0.3354  1.2824 -0.6526
 5374TIP3   OH237756   3.395   3.688   1.953  0.4955 -0.4451 -0.0116
 5374TIP3    H137757   3.310   3.718   1.921  0.9223  0.0221 -0.7336
 5374TIP3    H237758   3.447   3.673   1.874  2.2067  2.5895  0.3494
 5375TIP3   OH237759   0.425   4.203   2.100 -0.6958  0.5929  0.2649
 5375TIP3    H137760   0.341   4.161   2.120 -0.3389 -0.6156 -0.6952
 5375TIP3    H237761   0.481   4.179   2.174 -1.4171  2.2083  1.4137
 5376TIP3   OH237762   3.850   3.703   1.205  0.3220  0.0733  0.0273
 5376TIP3    H137763   3.938   3.684   1.237 -0.2605 -0.7559  1.2420
 5376TIP3    H237764   3.840   3.798   1.215  1.2638  0.2560 -0.6617
 5377TIP3   OH237765   5.620   6.848   1.973 -0.4965 -0.5716 -0.2376
 5377TIP3    H137766   5.583   6.760   1.977  2.1565 -1.7477  0.0272
 5377TIP3    H237767   5.661   6.861   2.058  0.6699  0.1784 -0.8807
 5378TIP3   OH237768   2.583   5.936   1.171 -0.6293  0.1016  0.1265
 5378TIP3    H137769   2.578   5.979   1.085 -2.1082 -1.6453 -0.7211
 5378TIP3    H237770   2.613   5.847   1.151 -3.0415 -1.0111  1.0928
 5379TIP3   OH237771   2.349   0.450   2.070  0.3608 -0.1153 -0.5565
 5379TIP3    H137772   2.412   0.520   2.092 -1.7381  1.7214  0.0073
 5379TIP3    H237773   2.353   0.444   1.975  2.4418 -1.1305 -0.4555
 5380TIP3   OH237774   0.989   1.973   0.878 -0.4476  0.1121 -0.7104
 5380TIP3    H137775   1.010   2.065   0.863  1.0420 -0.4837 -2.6256
 5380TIP3    H237776   0.944   1.972   0.962 -0.8986  2.6362 -0.8650
 5381TIP3   OH237777   3.386   5.640   7.176 -0.9706 -0.1641  0.3844
 5381TIP3    H137778   3.333   5.667   7.100  0.3916 -2.2228 -1.4219
 5381TIP3    H237779   3.440   5.716   7.195 -0.7855  0.1570 -1.2550
 5382TIP3   OH237780   0.110   6.545   2.828  0.7382  0.2180 -0.4043
 5382TIP3    H137781   0.070   6.629   2.848 -0.4902 -0.7166  1.2839
 5382TIP3    H237782   0.204   6.561   2.833  0.5430  1.6643 -0.9631
 5383TIP3   OH237783   2.749   0.955   3.128  0.0861  0.0368  0.5532
 5383TIP3    H137784   2.713   0.872   3.097 -0.3340  0.4601 -0.1389
 5383TIP3    H237785   2.675   1.000   3.168  0.0569  0.5254 -0.0394
 5384TIP3   OH237786   6.283   6.263   1.258 -0.1731 -0.6946 -0.0660
 5384TIP3    H137787   6.217   6.194   1.251 -0.7254 -0.1037 -0.7041
 5384TIP3    H237788   6.301   6.269   1.352  0.3322 -2.1145 -0.0332
 5385TIP3   OH237789   2.159   4.304   7.657 -0.0634  0.2596  0.1050
 5385TIP3    H137790   2.103   4.251   7.601  0.3181 -0.2551  0.2028
 5385TIP3    H237791   2.194   4.371   7.598  0.4356 -0.3537 -0.3142
 5386TIP3   OH237792   5.960   0.249   2.254 -0.6847  0.7552  0.2799
 5386TIP3    H137793   6.026   0.222   2.318 -0.4477  1.4750  0.3578
 5386TIP3    H237794   5.932   0.168   2.212  2.6156  0.6283 -2.1011
 5387TIP3   OH237795   6.864   5.359   1.071  0.3964  0.1509 -0.9417
 5387TIP3    H137796   6.851   5.266   1.090  1.3482  0.1952 -0.0055
 5387TIP3    H237797   6.910   5.393   1.147 -0.1352  1.4515 -1.1703
 5388TIP3   OH237798   4.493   5.596   1.162 -0.1922  0.4872 -0.3522
 5388TIP3    H137799   4.494   5.675   1.108 -0.3189  0.5758 -0.2274
 5388TIP3    H237800   4.494   5.629   1.252 -1.0527  0.3708 -0.2894
 5389TIP3   OH237801   3.785   3.000   0.254  0.2944  0.2758 -0.2332
 5389TIP3    H137802   3.691   2.983   0.265  0.1556  1.3116  0.3458
 5389TIP3    H237803   3.813   2.937   0.188 -0.7402 -0.2681 -0.1820
 5390TIP3   OH237804   3.724   0.990   8.123 -0.9569 -0.0974  0.2157
 5390TIP3    H137805   3.645   1.020   8.168 -0.3481  1.7300  0.1564
 5390TIP3    H237806   3.763   0.927   8.184 -2.6065 -1.3055  0.0866
 5391TIP3   OH237807   2.921   1.525   1.817  0.1393  0.2274 -0.0468
 5391TIP3    H137808   2.835   1.565   1.833 -0.3144 -1.2352  1.4528
 5391TIP3    H237809   2.949   1.562   1.733 -1.1470  2.0850  0.2743
 5392TIP3   OH237810   4.076   3.247   2.135  0.3649  0.0369  0.2426
 5392TIP3    H137811   4.003   3.230   2.195 -0.4253 -1.2278 -1.0042
 5392TIP3    H237812   4.154   3.241   2.190 -0.4519  1.5933  1.6516
 5393TIP3   OH237813   4.051   3.468   8.175  0.1144  0.1660 -0.6404
 5393TIP3    H137814   3.997   3.522   8.233 -1.3727 -1.7086 -0.1922
 5393TIP3    H237815   4.009   3.382   8.176  2.1730 -0.9207 -1.6324
 5394TIP3   OH237816   2.528   2.167   3.283  0.4460  0.3499  0.5149
 5394TIP3    H137817   2.446   2.215   3.294  1.0740  1.5165  0.2261
 5394TIP3    H237818   2.556   2.147   3.373 -0.4839 -0.6916  0.6078
 5395TIP3   OH237819   4.569   5.082   7.195  0.2745  0.0186  0.1492
 5395TIP3    H137820   4.622   5.110   7.270 -2.7865  2.2753  1.7236
 5395TIP3    H237821   4.509   5.016   7.231 -1.4359  1.3417 -0.1382
 5396TIP3   OH237822   6.539   5.191   7.011  0.3273 -0.4883 -0.2672
 5396TIP3    H137823   6.576   5.265   7.058  1.1779  0.7700 -2.7322
 5396TIP3    H237824   6.615   5.140   6.983 -0.2363 -2.1735  1.1263
 5397TIP3   OH237825   3.219   3.198   3.004  0.1991  0.1944 -0.2487
 5397TIP3    H137826   3.284   3.245   2.951 -0.1106  2.0856  0.9774
 5397TIP3    H237827   3.268   3.165   3.079  0.3357 -1.1907 -0.9101
 5398TIP3   OH237828   3.564   1.409   1.508 -0.3355  0.9252  0.0305
 5398TIP3    H137829   3.604   1.400   1.595  0.5060  2.4402 -0.1682
 5398TIP3    H237830   3.585   1.327   1.464 -0.9367  0.0497  1.2974
 5399TIP3   OH237831   0.269   5.769   2.431 -0.8659  0.4373  0.1285
 5399TIP3    H137832   0.287   5.792   2.340 -0.9194 -0.2302 -0.0508
 5399TIP3    H237833   0.339   5.709   2.455 -1.8885 -0.8601 -0.0593
 5400TIP3   OH237834   2.423   0.128   7.082  0.2203 -0.2643  0.1753
 5400TIP3    H137835   2.426   0.209   7.030  0.5870 -0.2890  0.1551
 5400TIP3    H237836   2.330   0.109   7.091  0.0492  0.8631  1.2512
 5401TIP3   OH237837   2.906   3.205   0.061 -0.6796  0.2940 -0.4813
 5401TIP3    H137838   2.885   3.151   0.136 -0.0947  0.0140 -0.5108
 5401TIP3    H237839   2.845   3.278   0.065 -0.3748  0.5040  0.5058
 5402TIP3   OH237840   3.815   3.298   0.225 -0.1950  0.3372  0.4308
 5402TIP3    H137841   3.868   3.318   0.302  2.1595 -1.2710 -0.6148
 5402TIP3    H237842   3.814   3.202   0.222 -1.1024  0.3708 -0.9608
 5403TIP3   OH237843   1.288   5.115   0.503 -0.1190  0.4477  1.3020
 5403TIP3    H137844   1.237   5.046   0.461  0.4434 -0.1644  1.6295
 5403TIP3    H237845   1.227   5.189   0.508 -0.1775  0.6205 -0.7558
 5404TIP3   OH237846   0.430   5.088   1.110  0.2946 -0.0763 -0.1377
 5404TIP3    H137847   0.512   5.043   1.090  0.7121  1.3672 -1.9839
 5404TIP3    H237848   0.449   5.141   1.187  1.5484  1.2459 -1.2980
 5405TIP3   OH237849   2.848   0.003   1.979 -0.5406  0.1256  0.0511
 5405TIP3    H137850   2.782   0.031   1.916  0.1602  2.7287  0.3550
 5405TIP3    H237851   2.798  -0.038   2.050 -1.3537 -2.8246 -2.0305
 5406TIP3   OH237852   5.652   1.784   1.821 -0.2009 -0.0177  0.3950
 5406TIP3    H137853   5.691   1.816   1.903  0.8990 -0.0207 -0.1082
 5406TIP3    H237854   5.693   1.837   1.753 -1.4565  0.3056 -0.1336
 5407TIP3   OH237855   6.249   0.574   0.619 -0.8410 -0.0154 -0.4141
 5407TIP3    H137856   6.299   0.633   0.675 -2.2229 -0.1495  1.0499
 5407TIP3    H237857   6.198   0.520   0.680 -1.8745 -0.6726 -1.7869
 5408TIP3   OH237858   6.288   0.316   1.431  0.1634 -0.4303  0.5869
 5408TIP3    H137859   6.330   0.384   1.378  1.0967 -1.1569  0.3673
 5408TIP3    H237860   6.356   0.287   1.491 -0.1466 -1.3589  0.5035
 5409TIP3   OH237861   2.945   3.190   2.272 -0.5591 -0.0002 -0.4874
 5409TIP3    H137862   2.962   3.116   2.330 -0.6059 -1.2490 -1.9779
 5409TIP3    H237863   2.878   3.241   2.317 -0.8499 -1.1136  0.3841
 5410TIP3   OH237864   4.325   3.418   8.432 -0.1079 -0.1224  0.1854
 5410TIP3    H137865   4.416   3.413   8.459 -0.1810  1.0290  0.7175
 5410TIP3    H237866   4.277   3.443   8.511 -0.7847 -0.0285 -0.2356
 5411TIP3   OH237867   5.915   1.297   0.953  0.0489 -0.6852  0.7264
 5411TIP3    H137868   5.993   1.314   0.900 -1.4363  0.3666 -1.2512
 5411TIP3    H237869   5.846   1.277   0.889 -2.0921  1.5813  2.1417
 5412TIP3   OH237870   5.862   4.242   2.254  0.1997  0.0498 -0.1926
 5412TIP3    H137871   5.784   4.298   2.254 -0.9319 -1.4579 -0.9759
 5412TIP3    H237872   5.913   4.270   2.178 -0.1829  0.2470 -0.3778
 5413TIP3   OH237873   0.773   4.262   1.409  0.6040 -0.3497 -0.4682
 5413TIP3    H137874   0.869   4.262   1.406  0.8014  3.6824  0.3853
 5413TIP3    H237875   0.747   4.308   1.329 -0.3473  1.7515  0.9809
 5414TIP3   OH237876   5.579   1.727   2.749  0.4956 -0.2280 -0.4578
 5414TIP3    H137877   5.604   1.727   2.842  2.6903 -1.8772 -0.9780
 5414TIP3    H237878   5.540   1.640   2.735 -1.3224  0.5818 -0.7913
 5415TIP3   OH237879   1.874   3.716   0.136 -0.4877 -0.0877 -0.2705
 5415TIP3    H137880   1.779   3.732   0.134 -0.3878  0.8665  1.3088
 5415TIP3    H237881   1.913   3.802   0.119  0.1504 -0.7758 -2.6484
 5416TIP3   OH237882   5.274   6.670   2.230 -0.3916  0.4330  0.3710
 5416TIP3    H137883   5.329   6.736   2.188 -0.6040  1.0843  1.0893
 5416TIP3    H237884   5.299   6.673   2.322  0.3216 -1.2214  0.2798
 5417TIP3   OH237885   2.201   2.451   0.940 -0.3115 -0.9615  0.4070
 5417TIP3    H137886   2.227   2.453   0.848 -0.5973 -1.6815  0.3031
 5417TIP3    H237887   2.189   2.543   0.964 -0.8496 -0.7931 -0.4590
 5418TIP3   OH237888   3.829   2.777   0.585 -0.1131 -0.3052 -0.0212
 5418TIP3    H137889   3.894   2.813   0.524  1.2112 -0.6664  1.0995
 5418TIP3    H237890   3.840   2.829   0.665 -1.9598  0.3060 -0.1301
 5419TIP3   OH237891   5.692   1.088   0.833 -0.5037  0.0035  0.1275
 5419TIP3    H137892   5.607   1.050   0.811 -0.9186  0.9813 -0.0128
 5419TIP3    H237893   5.702   1.159   0.770  0.0940  0.3459  0.6088
 5420TIP3   OH237894   0.173   0.247   3.131  0.1857 -0.0766 -0.4701
 5420TIP3    H137895   0.262   0.245   3.094  0.0281  1.0396 -0.9480
 5420TIP3    H237896   0.149   0.155   3.139  1.4893 -0.4072 -0.0655
 5421TIP3   OH237897   0.405   1.767   2.656 -0.4013  0.7821  0.7197
 5421TIP3    H137898   0.369   1.705   2.719 -1.6161  1.8731  1.1241
 5421TIP3    H237899   0.480   1.806   2.701  1.7486 -1.8173 -0.2901
 5422TIP3   OH237900   1.122   3.051   7.547 -0.2472 -0.4184  0.6156
 5422TIP3    H137901   1.211   3.059   7.514 -0.5393 -1.3296 -0.4504
 5422TIP3    H237902   1.108   3.131   7.598  0.4729  0.7592 -0.9351
 5423TIP3   OH237903   1.378   1.583   2.318  0.5784  0.1161  0.6423
 5423TIP3    H137904   1.390   1.597   2.224 -1.2824  1.4295  0.5412
 5423TIP3    H237905   1.406   1.666   2.357  0.1372  0.0396  1.1246
 5424TIP3   OH237906   2.137   1.824   6.932  0.1666  0.8315 -0.1182
 5424TIP3    H137907   2.053   1.867   6.918 -0.5136 -0.9363 -1.8789
 5424TIP3    H237908   2.181   1.879   6.997 -3.4743  0.3364  3.1694
 5425TIP3   OH237909   5.562   1.100   7.869 -0.0190  0.1223 -0.5512
 5425TIP3    H137910   5.513   1.045   7.807 -0.2430 -0.9773  0.5661
 5425TIP3    H237911   5.508   1.178   7.879 -2.2880 -1.5731  1.5998
 5426TIP3   OH237912   0.797   1.121   1.729 -0.0483  0.5184  0.0605
 5426TIP3    H137913   0.878   1.167   1.708 -0.7918  1.6420 -0.4008
 5426TIP3    H237914   0.792   1.051   1.665 -0.2339  1.4183 -0.9287
 5427TIP3   OH237915   5.804   3.247   7.821  0.2479  0.2691  0.1490
 5427TIP3    H137916   5.877   3.212   7.771  0.7460  0.1321  0.9495
 5427TIP3    H237917   5.789   3.183   7.891 -0.0804  0.7078  0.4926
 5428TIP3   OH237918   3.968   6.173   1.226 -0.4557 -0.0245  0.5734
 5428TIP3    H137919   3.999   6.262   1.247 -1.1050  0.0998  1.0545
 5428TIP3    H237920   3.988   6.122   1.304  0.9152 -0.5863 -0.1088
 5429TIP3   OH237921   6.295   1.387   0.067 -0.4789  0.4439  0.0277
 5429TIP3    H137922   6.227   1.356   0.128 -1.7144  1.4103 -0.8196
 5429TIP3    H237923   6.298   1.319  -0.000 -2.2960  1.4510 -1.1583
 5430TIP3   OH237924   1.946   1.828   8.034  0.1024  0.3854 -0.4131
 5430TIP3    H137925   2.009   1.836   8.106 -1.9025  0.7368  1.3782
 5430TIP3    H237926   1.866   1.868   8.067 -1.7483 -1.9123 -1.8121
 5431TIP3   OH237927   6.429   2.419   1.409  0.3093 -0.0464  0.3264
 5431TIP3    H137928   6.360   2.373   1.456  1.1222 -1.7902 -0.0803
 5431TIP3    H237929   6.387   2.448   1.328  0.2155 -1.8606 -0.3235
 5432TIP3   OH237930   1.453   1.461   1.263  0.0048  0.4608  0.0660
 5432TIP3    H137931   1.507   1.519   1.316 -2.0211  0.7392  1.9979
 5432TIP3    H237932   1.412   1.519   1.199 -0.3155  0.7879  0.5621
 5433TIP3   OH237933   0.132   2.921   1.699  0.2963 -0.5733 -0.0483
 5433TIP3    H137934   0.092   2.971   1.628  0.8808  1.0698  0.7455
 5433TIP3    H237935   0.223   2.911   1.673  0.0046 -2.0927 -0.6341
 5434TIP3   OH237936   5.788   5.847   7.994 -0.0838 -0.0172 -0.6225
 5434TIP3    H137937   5.795   5.925   7.939  0.6448 -0.1167 -0.6816
 5434TIP3    H237938   5.694   5.831   8.001 -0.2018 -0.8402 -3.0645
 5435TIP3   OH237939   5.699   0.275   7.564  0.5679  0.0707 -0.4437
 5435TIP3    H137940   5.755   0.350   7.584 -1.9350  1.7266  0.9411
 5435TIP3    H237941   5.655   0.299   7.483 -0.1294  0.0627 -0.0755
 5436TIP3   OH237942   2.956   5.762   1.944 -0.0181  0.0998  0.0897
 5436TIP3    H137943   2.919   5.712   2.016 -0.8682 -0.4474 -0.7120
 5436TIP3    H237944   3.040   5.795   1.978  0.6467 -1.9878  0.5910
 5437TIP3   OH237945   3.631   3.896   0.062  0.5938  0.2237  0.0272
 5437TIP3    H137946   3.545   3.874   0.099 -0.5455 -0.1554 -2.6531
 5437TIP3    H237947   3.611   3.953  -0.012  2.8223  1.6312  0.4241
 5438TIP3   OH237948   6.874   2.628   0.262  0.0418  0.2081  0.3226
 5438TIP3    H137949   6.913   2.714   0.251  1.5661 -0.2685  1.6261
 5438TIP3    H237950   6.886   2.585   0.177  2.5949  0.0318  0.6927
 5439TIP3   OH237951   6.434   0.294   1.907  0.0912 -0.2546 -0.5959
 5439TIP3    H137952   6.376   0.230   1.949 -0.2911  0.6088  0.2291
 5439TIP3    H237953   6.522   0.270   1.936  0.0052 -0.7320 -0.7256
 5440TIP3   OH237954   2.388   4.088   7.474  0.4966  0.0719  0.2495
 5440TIP3    H137955   2.411   4.033   7.549  1.9185  2.0624  1.3860
 5440TIP3    H237956   2.295   4.104   7.483 -0.3636 -3.2819 -1.0132
 5441TIP3   OH237957   4.985   0.060   1.655  0.3611 -0.1783  0.0332
 5441TIP3    H137958   4.911   0.100   1.610 -0.2425 -1.3109 -0.0177
 5441TIP3    H237959   5.025   0.131   1.705 -0.9049  0.3882  0.2592
 5442TIP3   OH237960   3.508   6.877   7.410 -0.0151  0.2679 -0.1598
 5442TIP3    H137961   3.516   6.959   7.362  0.0943  0.3436 -0.0150
 5442TIP3    H237962   3.513   6.809   7.343 -1.4388  0.4125 -0.4238
 5443TIP3   OH237963   0.280   5.316   0.671  0.3473 -0.9289 -0.0996
 5443TIP3    H137964   0.270   5.317   0.576  0.8101 -0.8162 -0.1465
 5443TIP3    H237965   0.324   5.233   0.690  1.5929 -0.3004 -0.1226
 5444TIP3   OH237966   2.626   2.752   0.595 -0.2045 -0.2925  0.1889
 5444TIP3    H137967   2.695   2.816   0.614  0.2148 -0.6912  0.0009
 5444TIP3    H237968   2.590   2.729   0.681 -2.0724  2.0663  0.1551
 5445TIP3   OH237969   2.821   0.325   0.630  0.0279 -0.2309  0.1606
 5445TIP3    H137970   2.883   0.389   0.595  0.8883  0.0879  2.1113
 5445TIP3    H237971   2.871   0.245   0.639 -0.6480 -0.7926 -0.8858
 5446TIP3   OH237972   5.327   3.804   1.192 -0.0334 -0.5546 -0.3769
 5446TIP3    H137973   5.318   3.900   1.187  0.2618 -0.5089 -0.0221
 5446TIP3    H237974   5.239   3.771   1.172 -0.8530 -0.1430  2.2643
 5447TIP3   OH237975   6.361   2.776   2.555  0.3636  0.1364  0.0269
 5447TIP3    H137976   6.446   2.786   2.599 -0.3691  1.0623  1.2921
 5447TIP3    H237977   6.352   2.855   2.503  0.0379  0.2881  0.3140
 5448TIP3   OH237978   3.708   6.174   7.677  0.0980  0.4961  0.0682
 5448TIP3    H137979   3.771   6.103   7.672 -0.5303 -0.0767  0.2003
 5448TIP3    H237980   3.661   6.160   7.759 -2.0062 -0.6435 -1.2329
 5449TIP3   OH237981   5.884   2.476   0.952 -0.8557  0.1234  0.0663
 5449TIP3    H137982   5.812   2.437   1.002 -1.0918 -1.2192 -1.2332
 5449TIP3    H237983   5.864   2.454   0.861  0.7484  0.4828 -0.4069
 5450TIP3   OH237984   6.831   6.332   0.426 -0.1772  0.3538 -0.1544
 5450TIP3    H137985   6.853   6.273   0.354 -1.1082  2.1002 -1.9809
 5450TIP3    H237986   6.736   6.343   0.420 -0.7702 -1.5184  3.1167
 5451TIP3   OH237987   0.126   3.194   1.896 -0.4284  0.0889 -0.1858
 5451TIP3    H137988   0.032   3.180   1.907 -0.3304  0.3076  1.0736
 5451TIP3    H237989   0.142   3.176   1.803 -1.4721 -1.2832 -0.1338
 5452TIP3   OH237990   5.958   0.694   2.134 -0.0756  0.1342  0.1114
 5452TIP3    H137991   5.897   0.743   2.078  0.0047  1.5609  1.1962
 5452TIP3    H237992   5.908   0.618   2.163 -0.5614  0.0846 -0.8222
 5453TIP3   OH237993   0.009   3.944   8.135 -0.1695 -0.0665 -0.0107
 5453TIP3    H137994  -0.044   4.005   8.085  0.1933  2.4550  2.4520
 5453TIP3    H237995   0.080   3.920   8.075 -0.5773  1.5582 -1.2160
 5454TIP3   OH237996   2.086   6.033   1.381 -0.1739 -0.0884  0.2657
 5454TIP3    H137997   2.066   5.967   1.447  1.5732 -1.1054 -0.1645
 5454TIP3    H237998   2.105   6.112   1.432  0.6234 -0.7130  0.9697
 5455TIP3   OH237999   5.700   0.307   0.128 -0.1227 -0.2444  0.0923
 5455TIP3    H138000   5.642   0.376   0.160  0.6300  1.4865 -2.0077
 5455TIP3    H238001   5.784   0.325   0.171 -0.2600 -0.6642  0.5400
 5456TIP3   OH238002   5.473   1.447   1.197  0.4553  0.2819  0.2294
 5456TIP3    H138003   5.555   1.489   1.221  0.3123  0.8175 -0.1956
 5456TIP3    H238004   5.409   1.482   1.259  0.6465 -0.5765  0.9366
 5457TIP3   OH238005   6.551   2.701   1.225  0.7223  0.0745  0.3492
 5457TIP3    H138006   6.462   2.707   1.192  0.2672  0.0856  1.5467
 5457TIP3    H238007   6.572   2.791   1.252  0.2138 -0.3459  2.2578
 5458TIP3   OH238008   0.330   2.700   0.472 -0.9287  0.0831 -0.5719
 5458TIP3    H138009   0.338   2.786   0.514 -0.5040  0.1425 -0.7689
 5458TIP3    H238010   0.396   2.701   0.403 -0.6111 -0.5654 -0.2902
 5459TIP3   OH238011   0.925   3.637   6.801  0.5629  0.1917 -0.2803
 5459TIP3    H138012   0.908   3.601   6.714 -0.9186 -0.0629  0.0873
 5459TIP3    H238013   0.977   3.715   6.785 -0.9581  1.0061 -1.5413
 5460TIP3   OH238014   4.370   2.247   0.159  0.3923 -0.0977 -0.2124
 5460TIP3    H138015   4.455   2.235   0.118  0.5335  0.6390 -0.1551
 5460TIP3    H238016   4.315   2.285   0.091  1.0572  2.6165  0.6384
 5461TIP3   OH238017   5.878   1.965   1.680  0.0739  0.2052 -0.1515
 5461TIP3    H138018   5.974   1.956   1.675  0.1938  1.3501 -0.1069
 5461TIP3    H238019   5.863   2.059   1.676 -1.0171  0.0699  0.5327
 5462TIP3   OH238020   5.837   4.656   2.187  0.0487  0.1314  0.1762
 5462TIP3    H138021   5.817   4.615   2.271  3.0514 -1.1129  0.3741
 5462TIP3    H238022   5.852   4.583   2.127  0.0988  0.9902 -0.8951
 5463TIP3   OH238023   1.297   6.165   0.826  0.1491 -0.2686  0.1521
 5463TIP3    H138024   1.364   6.176   0.759 -0.4863  0.0330 -0.4521
 5463TIP3    H238025   1.341   6.184   0.908  1.2047 -1.6135 -0.0626
 5464TIP3   OH238026   2.663   0.854   2.504  0.0601  0.2984 -0.1084
 5464TIP3    H138027   2.568   0.870   2.500 -0.0458 -0.4964 -0.8611
 5464TIP3    H238028   2.675   0.808   2.587 -0.2629  0.0839 -0.1762
 5465TIP3   OH238029   2.244   3.721   0.492 -0.0196 -0.2483 -0.3147
 5465TIP3    H138030   2.211   3.651   0.550  0.5633 -0.5010 -0.2841
 5465TIP3    H238031   2.181   3.724   0.420  0.9364 -2.0886 -1.2875
 5466TIP3   OH238032   1.591   3.741   0.078  0.5516 -0.2177 -0.4054
 5466TIP3    H138033   1.566   3.653   0.048 -1.3375  0.6385 -1.5194
 5466TIP3    H238034   1.516   3.796   0.055  0.9746  1.4065  1.8003
 5467TIP3   OH238035   0.974   6.333   0.893 -0.2423 -0.2605  0.2416
 5467TIP3    H138036   0.934   6.261   0.943  1.1109 -1.4716 -0.3309
 5467TIP3    H238037   1.010   6.290   0.815 -0.2540  1.2129 -0.6037
 5468TIP3   OH238038   0.746   0.941   0.789  0.5972  0.5578 -0.1361
 5468TIP3    H138039   0.665   0.891   0.775 -0.0488  1.3253  0.7240
 5468TIP3    H238040   0.812   0.875   0.809 -0.2603  0.0287  1.0818
 5469TIP3   OH238041   2.838   2.602   1.305  0.6008 -0.3884  0.5796
 5469TIP3    H138042   2.813   2.611   1.397 -0.2369  1.4846  0.2233
 5469TIP3    H238043   2.931   2.623   1.303  0.2710  1.3021  0.8313
 5470TIP3   OH238044   4.592   3.056   1.385  0.4629 -0.0363 -0.0888
 5470TIP3    H138045   4.572   2.974   1.430 -2.0196 -0.4070 -1.7106
 5470TIP3    H238046   4.683   3.075   1.410  0.3905 -2.0706  2.1051
 5471TIP3   OH238047   3.191   1.096   6.831  0.3384 -0.1413  0.2468
 5471TIP3    H138048   3.260   1.160   6.817 -0.5272  0.7813  0.0852
 5471TIP3    H238049   3.235   1.021   6.871  1.8113 -0.4197 -1.7284
 5472TIP3   OH238050   4.568   4.743   1.521  0.4250  0.7589 -0.9964
 5472TIP3    H138051   4.569   4.651   1.498  0.2378  0.3874  0.4066
 5472TIP3    H238052   4.643   4.754   1.580  0.7090  1.6046 -1.4939
 5473TIP3   OH238053   1.263   6.268   0.046 -0.5719  0.3549 -0.1869
 5473TIP3    H138054   1.323   6.287   0.117 -2.2638  0.6239  1.2446
 5473TIP3    H238055   1.288   6.328  -0.024  1.1445  0.0530  0.1390
 5474TIP3   OH238056   5.547   1.195   8.426 -0.8310 -0.4896 -0.5159
 5474TIP3    H138057   5.494   1.260   8.381 -3.1924 -2.8998 -1.4457
 5474TIP3    H238058   5.622   1.181   8.368  0.3342  2.0503  0.2210
 5475TIP3   OH238059   2.241   1.696   2.960  0.8420  0.1705 -0.1188
 5475TIP3    H138060   2.334   1.680   2.978  1.2454  0.0431 -2.0493
 5475TIP3    H238061   2.194   1.641   3.022  2.0555 -0.0930  0.6007
 5476TIP3   OH238062   2.338   0.569   0.263 -0.0190  0.5998 -0.5721
 5476TIP3    H138063   2.367   0.660   0.260  0.2787  0.4965 -0.8324
 5476TIP3    H238064   2.242   0.575   0.262 -0.1995  1.0928  3.5673
 5477TIP3   OH238065   5.185   0.538   2.832  0.0449 -0.3771 -0.3607
 5477TIP3    H138066   5.115   0.480   2.860 -0.0949 -0.4537 -0.8595
 5477TIP3    H238067   5.195   0.521   2.738 -0.7118  1.1402 -0.7579
 5478TIP3   OH238068   1.712   0.912   1.779  0.4582  0.0966  0.5226
 5478TIP3    H138069   1.740   0.994   1.740  1.8370 -0.0016  1.2534
 5478TIP3    H238070   1.659   0.938   1.854  1.2661  0.3450  1.0211
 5479TIP3   OH238071   1.276   3.585   7.313 -0.0834  0.2719 -0.1167
 5479TIP3    H138072   1.199   3.531   7.329  1.1015 -1.0184  1.6961
 5479TIP3    H238073   1.348   3.536   7.353  1.4399  2.1648 -0.3705
 5480TIP3   OH238074   4.721   1.366   0.661  0.0724 -0.0076 -0.0787
 5480TIP3    H138075   4.815   1.352   0.673  0.0592 -1.2536 -1.2321
 5480TIP3    H238076   4.707   1.457   0.687  1.7977  0.5456 -0.9003
 5481TIP3   OH238077   5.976   3.441   2.607 -0.2894  0.7932 -0.3975
 5481TIP3    H138078   5.942   3.352   2.613  0.3203  0.3823 -2.3791
 5481TIP3    H238079   6.069   3.432   2.627 -0.0043  0.7802 -1.6560
 5482TIP3   OH238080   0.119   2.110   1.052 -0.0005 -0.6010  0.2194
 5482TIP3    H138081   0.195   2.052   1.064  0.9631  0.5102 -0.3199
 5482TIP3    H238082   0.078   2.113   1.139  1.2315 -0.3308  0.8164
 5483TIP3   OH238083   3.374   0.068   8.408  0.0379  0.2304  0.4816
 5483TIP3    H138084   3.392   0.136   8.344  0.4405 -0.1518  0.1863
 5483TIP3    H238085   3.295   0.098   8.454  0.4170  1.0630  0.5993
 5484TIP3   OH238086   1.783   5.483   8.366 -0.3119 -0.7079  0.2490
 5484TIP3    H138087   1.717   5.426   8.325  0.7124 -2.0819  0.4541
 5484TIP3    H238088   1.779   5.563   8.314 -0.9805 -1.3913 -0.8184
 5485TIP3   OH238089   6.524   1.085   6.964 -0.0411 -0.4190  0.4338
 5485TIP3    H138090   6.535   1.114   7.054  0.8390 -1.1515  0.5791
 5485TIP3    H238091   6.610   1.054   6.937  0.6706  3.0364 -1.8828
 5486TIP3   OH238092   2.362   1.112   7.709  0.0174  0.2738 -0.0695
 5486TIP3    H138093   2.278   1.081   7.742  0.5088  0.8157  1.8163
 5486TIP3    H238094   2.407   1.032   7.681 -0.1591 -0.3543  1.3183
 5487TIP3   OH238095   1.011   6.695   3.142  0.3700  0.1064  0.1385
 5487TIP3    H138096   0.947   6.640   3.187  0.9143 -0.5469  0.1356
 5487TIP3    H238097   1.043   6.756   3.209  1.0001 -0.7004  0.5949
 5488TIP3   OH238098   4.927   4.882   7.925  0.2080 -0.5732 -1.1398
 5488TIP3    H138099   4.914   4.815   7.992 -1.5914  0.9901  0.1923
 5488TIP3    H238100   4.993   4.940   7.961 -1.0630  0.5034 -0.4609
 5489TIP3   OH238101   3.992   3.356   0.413 -0.6808  0.0500 -0.0179
 5489TIP3    H138102   4.038   3.439   0.406  0.2315 -0.4178  0.1828
 5489TIP3    H238103   4.040   3.307   0.480 -1.0553 -0.7231 -0.2918
 5490TIP3   OH238104   0.373   1.039   3.055  0.7775  0.4050  0.4021
 5490TIP3    H138105   0.401   0.947   3.057  0.5703  0.2816 -1.1681
 5490TIP3    H238106   0.322   1.050   3.135  0.1745 -1.0656  0.2651
 5491TIP3   OH238107   5.289   2.155   0.093  0.3454  0.0742  0.0509
 5491TIP3    H138108   5.256   2.104   0.166  0.0441  0.8833  0.5014
 5491TIP3    H238109   5.368   2.109   0.064 -0.1860 -0.8908  0.1227
 5492TIP3   OH238110   3.358   5.377   7.298  0.0621  0.0757 -0.2879
 5492TIP3    H138111   3.320   5.373   7.210  1.9204  0.6737 -1.1799
 5492TIP3    H238112   3.365   5.470   7.317  0.9855 -0.0169 -0.1268
 5493TIP3   OH238113   3.522   3.669   1.701 -0.7168  0.3608  0.6333
 5493TIP3    H138114   3.561   3.691   1.616 -1.2148  4.2764  1.2126
 5493TIP3    H238115   3.434   3.639   1.680 -0.5175  0.3860 -0.2780
 5494TIP3   OH238116   6.614   2.307   1.905 -0.0997 -0.4740 -0.4462
 5494TIP3    H138117   6.596   2.382   1.962  1.5665 -0.6413  0.3655
 5494TIP3    H238118   6.616   2.232   1.964  1.9345 -0.6156 -0.6239
 5495TIP3   OH238119   0.451   5.800   7.186  0.1126 -0.1335 -0.1331
 5495TIP3    H138120   0.392   5.864   7.227 -2.0970 -1.7560 -0.5664
 5495TIP3    H238121   0.464   5.733   7.254  0.4654 -0.3810 -0.4431
 5496TIP3   OH238122   4.057   5.470   5.814  0.4141 -0.1253  0.3636
 5496TIP3    H138123   4.097   5.391   5.779  0.7359  0.0428  0.3472
 5496TIP3    H238124   4.008   5.440   5.891  0.3747 -0.3688  0.2441
 5497TIP3   OH238125   0.457   3.060   2.083  0.6767  0.6784 -0.3486
 5497TIP3    H138126   0.485   3.023   2.167  0.2200 -1.7662 -1.1793
 5497TIP3    H238127   0.514   3.017   2.018  0.2192  1.6021 -1.3936
 5498TIP3   OH238128   4.710   4.880   1.002  0.0024  0.3031  0.3101
 5498TIP3    H138129   4.688   4.813   1.067 -0.2183 -0.4345 -0.4975
 5498TIP3    H238130   4.772   4.937   1.047 -0.1082 -0.2116  1.1503
 5499TIP3   OH238131   3.803   4.887   2.551 -0.2755  0.2712 -0.4792
 5499TIP3    H138132   3.861   4.835   2.495  0.4444  1.0510 -0.4633
 5499TIP3    H238133   3.715   4.856   2.528  0.0364  0.1900 -1.6517
 5500TIP3   OH238134   2.889   4.825   0.355  0.2298  0.2937  0.3495
 5500TIP3    H138135   2.923   4.760   0.416 -1.2754  0.2687  1.2012
 5500TIP3    H238136   2.832   4.881   0.407 -0.1297  1.0418 -0.7883
 5501TIP3   OH238137   4.973   2.722   7.936  0.6262  0.3832  0.3568
 5501TIP3    H138138   5.026   2.687   7.864  0.3897 -0.2056  0.4616
 5501TIP3    H238139   4.882   2.702   7.910  0.5577 -0.0924  0.9493
 5502TIP3   OH238140   1.170   4.200   7.444  0.4535 -0.3518  0.1058
 5502TIP3    H138141   1.096   4.196   7.384 -0.6294 -0.6139  1.4171
 5502TIP3    H238142   1.225   4.270   7.408 -0.1740 -0.4624 -1.1478
 5503TIP3   OH238143   6.241   3.712   8.167 -0.1645 -0.2041 -0.3996
 5503TIP3    H138144   6.247   3.729   8.073 -5.4845  0.6630 -0.9339
 5503TIP3    H238145   6.239   3.799   8.207  1.5352 -0.5569  0.5677
 5504TIP3   OH238146   0.281   5.629   1.024  0.2382 -0.4859 -0.1170
 5504TIP3    H138147   0.248   5.548   0.986 -1.5413  0.0020  0.2922
 5504TIP3    H238148   0.238   5.699   0.975  2.5158  0.2779 -1.1365
 5505TIP3   OH238149   2.767   3.030   7.062  0.0419  0.3425  0.2142
 5505TIP3    H138150   2.775   2.982   6.980  0.1908  0.2727  0.2691
 5505TIP3    H238151   2.684   3.000   7.100  0.4521 -0.3735  0.5696
 5506TIP3   OH238152   0.624   1.326   2.191 -0.1536  0.5095 -0.2696
 5506TIP3    H138153   0.709   1.356   2.223 -0.1254  1.9209 -1.5453
 5506TIP3    H238154   0.601   1.388   2.122 -3.0438  1.2788  1.2065
 5507TIP3   OH238155   4.640   2.932   0.373 -0.0117  0.5916 -0.0595
 5507TIP3    H138156   4.658   2.921   0.280 -0.1682  1.6177 -0.2266
 5507TIP3    H238157   4.575   2.864   0.393 -0.0453  0.4218 -0.7171
 5508TIP3   OH238158   4.121   3.122   2.847 -0.2709 -0.3009 -0.0513
 5508TIP3    H138159   4.095   3.081   2.929  1.3259  0.4942  0.8796
 5508TIP3    H238160   4.068   3.077   2.780 -0.0869 -2.4002  1.1418
 5509TIP3   OH238161   2.297   0.133   1.357 -0.8349 -0.3289  0.3614
 5509TIP3    H138162   2.264   0.166   1.273 -0.1210  0.0527  0.2179
 5509TIP3    H238163   2.330   0.211   1.402 -0.2601 -0.6768  0.5494
 5510TIP3   OH238164   6.265   0.516   7.088  0.0483 -0.0660  0.1120
 5510TIP3    H138165   6.347   0.550   7.054  1.0334 -2.7855 -0.4609
 5510TIP3    H238166   6.248   0.437   7.036 -1.5302 -1.0351  1.9607
 5511TIP3   OH238167   6.423   6.640   1.353 -0.1447 -0.7561  0.0689
 5511TIP3    H138168   6.339   6.656   1.397  0.8916  2.1884  1.1898
 5511TIP3    H238169   6.487   6.691   1.404  2.1483 -1.9289 -1.4635
 5512TIP3   OH238170   2.804   6.902   2.528 -0.1497  0.0239 -0.4313
 5512TIP3    H138171   2.843   6.815   2.522  0.0471  0.1310 -0.7650
 5512TIP3    H238172   2.836   6.937   2.611 -0.2969 -0.2565 -0.2591
 5513TIP3   OH238173   6.923   2.436   0.638  0.5657 -0.2022 -0.1992
 5513TIP3    H138174   6.952   2.379   0.709 -0.5324  0.1920  0.5783
 5513TIP3    H238175   6.999   2.493   0.621  0.4424  0.5023  1.4866
 5514TIP3   OH238176   4.525   2.338   1.929  0.4532  0.1004  0.2441
 5514TIP3    H138177   4.613   2.313   1.958  0.1029 -0.5843  0.7626
 5514TIP3    H238178   4.467   2.277   1.975 -0.1960 -0.5170 -1.3031
 5515TIP3   OH238179   3.455   1.308   2.301  0.2027 -0.3367 -0.3894
 5515TIP3    H138180   3.539   1.352   2.289  0.0454 -0.0431 -0.4234
 5515TIP3    H238181   3.449   1.291   2.395  0.0803  0.0889 -0.3180
 5516TIP3   OH238182   4.766   6.040   7.202  0.2239  0.1938  1.1918
 5516TIP3    H138183   4.791   6.084   7.120  0.3097  2.6025  2.4170
 5516TIP3    H238184   4.680   6.077   7.223 -1.2798 -2.7203  0.6817
 5517TIP3   OH238185   3.919   5.738   1.870 -0.5365  0.4054  0.0368
 5517TIP3    H138186   3.957   5.785   1.945 -0.6991  1.8472 -0.7418
 5517TIP3    H238187   3.873   5.664   1.909  1.1132 -0.0725  1.1953
 5518TIP3   OH238188   0.619   3.798   8.381 -0.3063  0.1049  0.1159
 5518TIP3    H138189   0.563   3.866   8.342  0.8745  0.5976 -0.8023
 5518TIP3    H238190   0.595   3.718   8.335 -1.1626  0.0379  0.6568
 5519TIP3   OH238191   2.839   5.687   6.793 -0.0569  0.5411  0.0140
 5519TIP3    H138192   2.750   5.689   6.827 -0.1502  0.0849 -0.1984
 5519TIP3    H238193   2.894   5.703   6.870 -0.2115 -1.5817  0.6191
 5520TIP3   OH238194   3.018   4.219   0.616  0.4335  0.2928 -0.0725
 5520TIP3    H138195   3.013   4.129   0.585 -0.4677  0.3684 -0.1646
 5520TIP3    H238196   2.931   4.238   0.651  1.0285  0.6587  1.2880
 5521TIP3   OH238197   6.441   6.354   6.866 -0.6447 -0.4118  0.0259
 5521TIP3    H138198   6.430   6.276   6.920  0.8866  0.7123  2.1263
 5521TIP3    H238199   6.395   6.423   6.915  3.3296  1.3336  1.8134
 5522TIP3   OH238200   0.075   2.956   1.240  0.3730 -0.1722 -0.4649
 5522TIP3    H138201   0.081   2.990   1.150  0.7161 -0.4057 -0.5307
 5522TIP3    H238202   0.165   2.955   1.272  0.2092  0.2824  0.0271
 5523TIP3   OH238203   6.478   5.095   2.182 -0.5162 -0.1753 -0.5991
 5523TIP3    H138204   6.416   5.036   2.139  1.5192 -1.6673 -1.6248
 5523TIP3    H238205   6.458   5.086   2.275 -2.3488  0.0353 -0.9203
 5524TIP3   OH238206   0.848   1.134   8.033 -0.1720  0.2815 -0.2788
 5524TIP3    H138207   0.803   1.088   8.104 -0.4776  1.5750  0.3909
 5524TIP3    H238208   0.911   1.070   7.999 -0.4085 -0.5461  0.7900
 5525TIP3   OH238209   0.933   0.650   0.090 -0.0434  0.2746 -0.2051
 5525TIP3    H138210   0.997   0.708   0.131  0.4642  1.1868 -2.2110
 5525TIP3    H238211   0.981   0.569   0.074  0.0623  0.2954  0.0020
 5526TIP3   OH238212   6.069   6.862   0.871 -0.0766 -0.3993  0.3966
 5526TIP3    H138213   6.092   6.835   0.960  1.3415  0.7394  0.4272
 5526TIP3    H238214   6.046   6.781   0.826  1.3950 -1.3186  1.1955
 5527TIP3   OH238215   2.818   3.482   0.047  0.3663 -0.2058  0.5835
 5527TIP3    H138216   2.767   3.552   0.008 -3.6646 -1.9763  2.0700
 5527TIP3    H238217   2.798   3.487   0.141 -0.7034 -3.6395  0.6764
 5528TIP3   OH238218   5.914   3.661   7.360 -0.5519  0.0225  0.0220
 5528TIP3    H138219   5.944   3.638   7.272 -1.2933  2.7002 -1.0187
 5528TIP3    H238220   5.818   3.659   7.354 -0.6148 -0.1421  0.8892
 5529TIP3   OH238221   5.110   5.934   0.112 -0.1839  0.2743  0.1737
 5529TIP3    H138222   5.118   5.840   0.129  0.7910  0.0935 -1.1438
 5529TIP3    H238223   5.032   5.960   0.161  1.5204 -0.4463  3.5790
 5530TIP3   OH238224   0.129   4.062   7.623 -0.0342  0.0717 -0.0008
 5530TIP3    H138225   0.103   3.998   7.556  1.1959 -0.2893 -0.1532
 5530TIP3    H238226   0.210   4.026   7.659 -0.2919  0.6522  1.1638
 5531TIP3   OH238227   2.288   0.038   2.502 -0.9369 -0.6337  0.1799
 5531TIP3    H138228   2.303   0.105   2.569 -2.8235  0.0899 -0.0800
 5531TIP3    H238229   2.377   0.014   2.473 -0.1744  0.9944  1.0131
 5532TIP3   OH238230   2.116   1.101   6.847 -0.5627 -0.1950 -0.8063
 5532TIP3    H138231   2.112   1.006   6.858  0.1414 -0.1536 -0.0135
 5532TIP3    H238232   2.055   1.136   6.913 -0.4077 -0.0907 -0.7155
 5533TIP3   OH238233   5.945   6.591   2.142 -0.7650 -0.2690  0.0630
 5533TIP3    H138234   5.863   6.635   2.121 -1.5256 -1.2286  0.9286
 5533TIP3    H238235   5.923   6.498   2.145  0.0403 -0.4471  1.5611
 5534TIP3   OH238236   3.276   2.527   1.956 -0.3529 -0.5954 -0.0915
 5534TIP3    H138237   3.285   2.434   1.933 -0.4221 -0.7327  0.4268
 5534TIP3    H238238   3.333   2.539   2.032 -2.6181 -0.9283  1.7543
 5535TIP3   OH238239   3.656   2.917   1.891  0.5019  0.7992  0.3086
 5535TIP3    H138240   3.605   2.996   1.910 -0.7822  0.3399 -1.0982
 5535TIP3    H238241   3.658   2.869   1.975 -0.1038  1.5243  0.7459
 5536TIP3   OH238242   5.988   5.153   1.982 -0.3377  0.0674 -0.3798
 5536TIP3    H138243   5.905   5.185   1.947  0.2954 -0.6227 -2.7127
 5536TIP3    H238244   5.966   5.070   2.024 -0.9829  0.4129 -0.0197
 5537TIP3   OH238245   5.360   2.165   0.958  0.1101 -0.5954  0.2580
 5537TIP3    H138246   5.441   2.119   0.934  0.1915 -1.8864  2.7122
 5537TIP3    H238247   5.376   2.196   1.047 -1.7963 -0.1195  0.4702
 5538TIP3   OH238248   4.352   2.779   1.731 -0.1751 -0.0731  0.3119
 5538TIP3    H138249   4.447   2.777   1.737 -0.0826 -0.8404 -0.9835
 5538TIP3    H238250   4.321   2.742   1.814  0.7126 -1.8629 -0.1035
 5539TIP3   OH238251   1.852   4.466   7.499  0.1044 -0.0108  0.0983
 5539TIP3    H138252   1.759   4.484   7.492  0.4787  1.9229 -0.5993
 5539TIP3    H238253   1.880   4.445   7.410  0.8831  2.7838 -0.4222
 5540TIP3   OH238254   4.869   4.056   7.904 -0.1440 -0.5204  0.8167
 5540TIP3    H138255   4.943   3.998   7.918  0.3511  0.0020  0.4067
 5540TIP3    H238256   4.792   4.003   7.925  0.3215 -1.1793  0.8730
 5541TIP3   OH238257   1.060   6.964   0.632  1.0713  0.5012  0.4949
 5541TIP3    H138258   1.084   6.907   0.706 -1.7193 -2.0467 -0.3662
 5541TIP3    H238259   1.143   6.979   0.586  2.1762 -1.7928  1.5449
 5542TIP3   OH238260   0.897   6.198   8.171 -0.2666 -0.2047  1.1046
 5542TIP3    H138261   0.887   6.110   8.136  0.1915  0.2549 -0.2425
 5542TIP3    H238262   0.808   6.230   8.183 -0.5334 -1.6135  3.7755
 5543TIP3   OH238263   6.540   5.303   7.910  0.0488  0.0221 -0.2212
 5543TIP3    H138264   6.614   5.268   7.861  1.2205  2.5901 -0.4309
 5543TIP3    H238265   6.489   5.226   7.934  2.5111 -1.8090 -0.4695
 5544TIP3   OH238266   2.711   4.053   7.159  0.5285  0.3834  0.3621
 5544TIP3    H138267   2.676   4.021   7.241  0.1559 -0.2043 -0.0184
 5544TIP3    H238268   2.764   3.981   7.125 -0.1481  0.2284 -0.4031
 5545TIP3   OH238269   0.335   1.626   1.859  0.3118 -0.7545 -0.1862
 5545TIP3    H138270   0.246   1.595   1.877  0.4809 -0.9583  0.3222
 5545TIP3    H238271   0.323   1.715   1.825 -0.0606 -0.6162  0.2939
 5546TIP3   OH238272   1.753   0.457   2.846 -0.3890 -0.3452  0.4358
 5546TIP3    H138273   1.658   0.451   2.854 -0.3968 -1.8365 -0.3446
 5546TIP3    H238274   1.767   0.507   2.765 -0.4935  0.2161  0.7598
 5547TIP3   OH238275   4.723   5.804   0.883 -0.4274  0.3573  0.1052
 5547TIP3    H138276   4.775   5.826   0.806  0.7813  0.8640  1.0386
 5547TIP3    H238277   4.735   5.710   0.894 -1.5267  0.0601 -0.9518
 5548TIP3   OH238278   0.279   5.554   1.659 -0.3430  0.4385  0.1632
 5548TIP3    H138279   0.217   5.626   1.651 -1.5606 -0.6205 -0.1634
 5548TIP3    H238280   0.360   5.596   1.689 -0.9902  1.9437 -0.0999
 5549TIP3   OH238281   2.592   2.629   7.596 -0.9498 -0.4769  0.4453
 5549TIP3    H138282   2.520   2.569   7.579 -0.9549 -0.3368 -0.0368
 5549TIP3    H238283   2.671   2.575   7.587 -0.7692  0.1387 -2.8570
 5550TIP3   OH238284   5.770   3.104   0.701 -0.3243  0.4725 -0.4159
 5550TIP3    H138285   5.745   3.055   0.780 -0.3179  0.6121 -0.3280
 5550TIP3    H238286   5.738   3.193   0.716  2.9076  1.5108  1.0514
 5551TIP3   OH238287   6.261   4.432   1.784  0.0838 -0.1900  0.1480
 5551TIP3    H138288   6.169   4.460   1.788  0.6924  1.8815  1.9109
 5551TIP3    H238289   6.262   4.348   1.829 -1.0166 -0.4974 -0.3669
 5552TIP3   OH238290   1.365   2.208   1.701  0.7459  0.2595  0.0995
 5552TIP3    H138291   1.303   2.139   1.679  0.8805 -0.4386  1.7846
 5552TIP3    H238292   1.422   2.213   1.624  1.0253 -1.8548  0.0967
 5553TIP3   OH238293   5.144   6.720   7.686 -0.1531 -0.0012  0.5310
 5553TIP3    H138294   5.097   6.637   7.695  1.2597 -0.7019  2.0576
 5553TIP3    H238295   5.235   6.697   7.707  0.6781  1.5120 -1.1923
 5554TIP3   OH238296   0.266   6.367   0.432  0.0334 -0.2971 -0.0300
 5554TIP3    H138297   0.281   6.319   0.514 -0.2101  0.2677  0.3444
 5554TIP3    H238298   0.354   6.378   0.394 -0.0221 -2.4325 -0.9327
 5555TIP3   OH238299   0.279   2.976   7.810 -0.1845 -0.1788 -0.5290
 5555TIP3    H138300   0.306   2.930   7.731 -0.3874  0.3615 -0.9188
 5555TIP3    H238301   0.195   2.936   7.833 -0.3159 -0.0656 -0.8114
 5556TIP3   OH238302   3.066   6.374   6.336  0.2414  0.1550  0.8103
 5556TIP3    H138303   3.132   6.307   6.316 -0.0798 -0.7484  2.5344
 5556TIP3    H238304   2.986   6.341   6.296 -0.0017 -0.7192  1.9705
 5557TIP3   OH238305   5.029   4.806   2.705  0.5057 -0.0518 -0.5034
 5557TIP3    H138306   5.053   4.718   2.677  0.1491 -0.1741 -0.4274
 5557TIP3    H238307   4.950   4.794   2.758  0.2096  0.3598 -0.8445
 5558TIP3   OH238308   1.840   0.683   2.011  0.0766  0.4348  0.0699
 5558TIP3    H138309   1.890   0.740   2.069  0.6327  0.0255  0.0036
 5558TIP3    H238310   1.854   0.721   1.924  3.4356 -1.7225 -0.5485
 5559TIP3   OH238311   3.692   1.509   2.264  0.2125  0.5144 -0.0397
 5559TIP3    H138312   3.613   1.547   2.301 -0.2799  0.3582 -0.8904
 5559TIP3    H238313   3.715   1.569   2.192 -1.7373 -1.7137 -2.7628
 5560TIP3   OH238314   2.047   1.324   7.503  0.0561  0.0142  0.2082
 5560TIP3    H138315   2.016   1.244   7.547  2.0531 -0.8615  0.1408
 5560TIP3    H238316   2.014   1.317   7.414  0.6723 -1.0461  0.0448
 5561TIP3   OH238317   2.195   4.621   8.501  0.5871  0.4167  0.3330
 5561TIP3    H138318   2.105   4.631   8.470  0.9459 -1.0901 -1.3294
 5561TIP3    H238319   2.244   4.591   8.424  1.7332 -2.5808  2.0679
 5562TIP3   OH238320   0.301   0.830   0.902 -0.2240  0.1675 -0.0939
 5562TIP3    H138321   0.342   0.884   0.969  2.0610 -1.9966  0.3869
 5562TIP3    H238322   0.328   0.869   0.819 -1.2098  1.5301  0.1914
 5563TIP3   OH238323   5.840   0.247   1.389 -0.2454  0.3501  0.3955
 5563TIP3    H138324   5.852   0.315   1.323  1.5079 -0.0778  0.2185
 5563TIP3    H238325   5.899   0.272   1.460  0.1209 -0.7371  0.4994
 5564TIP3   OH238326   6.635   6.786   0.212 -0.3970  0.2871  0.9248
 5564TIP3    H138327   6.572   6.822   0.274 -0.2427  1.3799  0.4616
 5564TIP3    H238328   6.581   6.733   0.152 -1.0122  1.8065  0.0829
 5565TIP3   OH238329   4.811   2.998   7.954  0.0287  0.0605  0.0709
 5565TIP3    H138330   4.755   3.076   7.958  0.6594  0.4801  0.8892
 5565TIP3    H238331   4.885   3.025   7.900  1.0390  0.5656  1.6481
 5566TIP3   OH238332   2.475   3.065   1.798 -0.1525 -0.2602  0.2175
 5566TIP3    H138333   2.479   3.107   1.884 -2.7673  1.8274 -0.5554
 5566TIP3    H238334   2.470   3.137   1.736 -2.2467 -1.6779 -1.3888
 5567TIP3   OH238335   4.471   2.525   1.410  0.1740  0.0924  0.5731
 5567TIP3    H138336   4.466   2.512   1.504  0.3713 -1.7560  0.3684
 5567TIP3    H238337   4.488   2.437   1.374  1.3637  0.9450 -1.0843
 5568TIP3   OH238338   5.766   5.661   1.540 -0.2332 -0.2205  0.4511
 5568TIP3    H138339   5.786   5.596   1.472 -0.3047 -0.3729  0.5755
 5568TIP3    H238340   5.851   5.696   1.565 -0.3199  1.3252 -1.1674
 5569TIP3   OH238341   6.120   6.832   8.306 -0.0401 -0.0316 -0.5880
 5569TIP3    H138342   6.116   6.842   8.402 -0.2832 -1.0848 -0.4782
 5569TIP3    H238343   6.064   6.902   8.273  0.1913  0.4635  0.0312
 5570TIP3   OH238344   6.300   1.231   3.181 -0.3162  0.4345 -0.5804
 5570TIP3    H138345   6.282   1.161   3.244 -1.2046 -0.5289 -1.8447
 5570TIP3    H238346   6.322   1.185   3.100 -4.1423  1.4130 -2.4066
 5571TIP3   OH238347   4.689   0.451   0.295  0.1630 -0.5046 -0.2900
 5571TIP3    H138348   4.598   0.427   0.278 -0.4148  1.3666 -0.0736
 5571TIP3    H238349   4.683   0.526   0.354  1.8043  0.3784 -1.1809
 5572TIP3   OH238350   5.597   0.963   2.072  0.7131  0.2506  0.0723
 5572TIP3    H138351   5.638   1.036   2.026 -0.0762  0.1814 -0.7672
 5572TIP3    H238352   5.613   0.981   2.165  2.2270  0.4510 -0.1974
 5573TIP3   OH238353   1.667   1.541   7.838  0.6067 -0.1248  0.4291
 5573TIP3    H138354   1.725   1.552   7.762  1.2328  1.2212  1.0738
 5573TIP3    H238355   1.579   1.558   7.803  0.9446  1.0217  0.0977
 5574TIP3   OH238356   5.819   3.618   2.042  0.0728  0.4688  0.5769
 5574TIP3    H138357   5.772   3.593   2.121 -0.2037  0.2933  0.3563
 5574TIP3    H238358   5.906   3.646   2.074 -0.4842  1.7095  1.0859
 5575TIP3   OH238359   3.973   0.954   2.142  0.0822 -0.4136  0.4503
 5575TIP3    H138360   4.039   1.023   2.136  0.9100 -1.2526 -0.4839
 5575TIP3    H238361   4.022   0.872   2.128 -1.0145 -1.1186  0.5887
 5576TIP3   OH238362   2.881   1.218   7.403  0.4193  0.1169 -0.3068
 5576TIP3    H138363   2.812   1.243   7.342  0.3434  1.6639  0.3440
 5576TIP3    H238364   2.959   1.209   7.349 -0.2772 -1.7137 -1.0579
 5577TIP3   OH238365   1.791   2.241   8.132 -0.1618 -0.7668 -0.2261
 5577TIP3    H138366   1.709   2.200   8.105 -0.4583 -0.7131  0.5528
 5577TIP3    H238367   1.849   2.233   8.056 -0.3007 -2.3569 -0.1859
 5578TIP3   OH238368   3.386   5.323   0.286 -0.0842 -0.7710 -0.1965
 5578TIP3    H138369   3.385   5.295   0.378 -0.2865  0.2102  0.1132
 5578TIP3    H238370   3.381   5.242   0.236  0.9884 -1.3917  0.6418
 5579TIP3   OH238371   5.833   6.113   6.772 -0.4729 -0.3823 -0.2477
 5579TIP3    H138372   5.868   6.190   6.727  1.3397 -0.7139  0.5258
 5579TIP3    H238373   5.744   6.139   6.798  0.3547  1.7468  0.6737
 5580TIP3   OH238374   4.699   0.113   2.359  0.1947  0.2164 -0.1566
 5580TIP3    H138375   4.794   0.114   2.345  0.5923 -0.3767  2.0246
 5580TIP3    H238376   4.677   0.204   2.376  0.2432  0.4453 -1.2393
 5581TIP3   OH238377   4.708   3.810   1.572  0.1904 -0.2854 -0.6788
 5581TIP3    H138378   4.745   3.885   1.619 -0.9957 -0.4013  0.5094
 5581TIP3    H238379   4.614   3.826   1.574 -0.0595 -1.6606 -0.6576
 5582TIP3   OH238380   6.253   5.977   6.910  0.2219 -0.6579 -0.3223
 5582TIP3    H138381   6.227   5.965   6.819  0.5237  1.5450 -0.7605
 5582TIP3    H238382   6.348   5.984   6.908  0.1936 -0.0436  0.0705
 5583TIP3   OH238383   2.162   6.057   7.209  0.0435  0.2221 -0.0388
 5583TIP3    H138384   2.173   5.964   7.189 -2.4379  0.0837 -1.1286
 5583TIP3    H238385   2.202   6.102   7.135  0.7449  0.0437  0.2175
 5584TIP3   OH238386   1.513   1.967   1.923 -0.2127 -0.1467 -0.2983
 5584TIP3    H138387   1.596   1.970   1.969 -0.2064 -0.1427 -0.3098
 5584TIP3    H238388   1.493   2.059   1.904 -1.0002 -0.0071  1.0928
 5585TIP3   OH238389   5.354   1.580   8.511 -0.1587 -0.2347 -0.1477
 5585TIP3    H138390   5.260   1.573   8.530 -0.7206  1.1506 -2.0105
 5585TIP3    H238391   5.362   1.543   8.423  1.2665 -1.3678  0.4388
 5586TIP3   OH238392   1.550   6.904   1.192 -0.1991 -0.1700 -0.5537
 5586TIP3    H138393   1.560   6.975   1.256 -3.3672  0.1474 -0.2439
 5586TIP3    H238394   1.583   6.940   1.110 -1.0353  1.4348 -0.2334
 5587TIP3   OH238395   1.693   4.247   0.297  0.1719 -0.4792  0.2625
 5587TIP3    H138396   1.616   4.263   0.242  1.2199  2.2183 -0.5699
 5587TIP3    H238397   1.661   4.257   0.387 -0.5276  0.3370 -0.0647
 5588TIP3   OH238398   0.412   3.231   0.578  0.0576 -0.4668  0.4346
 5588TIP3    H138399   0.455   3.281   0.508 -2.3211  1.0141 -0.0829
 5588TIP3    H238400   0.441   3.274   0.659  0.5194 -0.3006  0.1849
 5589TIP3   OH238401   6.026   1.464   0.421  0.3898 -0.5662  0.9329
 5589TIP3    H138402   5.957   1.504   0.474  2.4759  2.1515  1.7672
 5589TIP3    H238403   6.066   1.537   0.374  1.6427 -2.3021 -0.8452
 5590TIP3   OH238404   4.796   0.128   7.208 -0.5653 -0.1235 -0.2762
 5590TIP3    H138405   4.733   0.188   7.249  0.2777  1.3409 -1.0317
 5590TIP3    H238406   4.802   0.055   7.269 -0.6266  1.1773  1.3709
 5591TIP3   OH238407   6.135   0.135   2.413  0.4414 -0.1280  0.7151
 5591TIP3    H138408   6.159   0.043   2.404  0.1815 -0.0531 -1.1931
 5591TIP3    H238409   6.089   0.140   2.497 -1.5286 -2.2073 -0.1179
 5592TIP3   OH238410   4.977   6.028   0.929 -0.5817  0.0952 -0.0880
 5592TIP3    H138411   4.919   6.058   0.858  1.5017  1.3751 -1.3493
 5592TIP3    H238412   4.940   6.068   1.007 -1.2053  1.1826 -0.9053
 5593TIP3   OH238413   2.067   1.619   2.261 -0.3772  0.0734  0.3793
 5593TIP3    H138414   2.017   1.696   2.234 -0.5086  0.0391  0.5183
 5593TIP3    H238415   2.002   1.564   2.307  0.4457  1.5215  3.5559
 5594TIP3   OH238416   3.929   6.407   3.428  0.0920 -0.1769  0.0871
 5594TIP3    H138417   3.923   6.481   3.489 -0.0548  0.1299 -0.2954
 5594TIP3    H238418   3.840   6.374   3.420  0.2062 -0.5941  0.4955
 5595TIP3   OH238419   5.574   2.470   0.827  0.0741  0.3092  0.3685
 5595TIP3    H138420   5.603   2.414   0.900  0.0873  0.1309  0.2276
 5595TIP3    H238421   5.546   2.551   0.869 -0.5961 -0.0536  0.6446
 5596TIP3   OH238422   3.747   0.250   1.595  0.2822  0.0294  0.2113
 5596TIP3    H138423   3.662   0.247   1.640  0.4745 -2.0451  0.5020
 5596TIP3    H238424   3.731   0.208   1.510  0.3247  2.4310 -1.0997
 5597TIP3   OH238425   0.842   5.897   8.470 -0.2985  0.3564  0.4358
 5597TIP3    H138426   0.883   5.965   8.522  0.0523 -0.6603  1.5443
 5597TIP3    H238427   0.764   5.872   8.519 -1.3227  1.0551 -0.7779
 5598TIP3   OH238428   5.936   3.839   7.936 -0.4886 -0.2133  0.1741
 5598TIP3    H138429   5.922   3.859   7.843  1.1289 -0.0041 -0.0469
 5598TIP3    H238430   5.979   3.753   7.935  1.3006  0.6215  0.5814
 5599TIP3   OH238431   5.035   1.106   1.808  0.1282 -0.2836  0.1263
 5599TIP3    H138432   5.036   1.199   1.785 -0.2012  0.1847  1.8983
 5599TIP3    H238433   5.096   1.099   1.882 -0.6125 -1.2888  0.6628
 5600TIP3   OH238434   6.243   3.458   7.263 -0.1821  0.5713  0.3738
 5600TIP3    H138435   6.205   3.370   7.267  0.6973  0.1889  0.5868
 5600TIP3    H238436   6.209   3.501   7.342 -0.7903  0.5009  0.1561
 5601TIP3   OH238437   5.524   5.548   0.300 -0.3740 -0.2259  0.2064
 5601TIP3    H138438   5.472   5.628   0.292  0.5448  0.5134  1.3430
 5601TIP3    H238439   5.506   5.516   0.389 -1.1489 -1.6026 -0.4125
 5602TIP3   OH238440   0.673   1.720   1.186  0.2111 -0.2800 -0.2344
 5602TIP3    H138441   0.610   1.701   1.117 -1.0109  0.3068  0.6903
 5602TIP3    H238442   0.692   1.635   1.226 -0.6834 -0.3539  0.0503
 5603TIP3   OH238443   6.496   0.755   0.597  0.0422 -0.2516  0.0127
 5603TIP3    H138444   6.528   0.818   0.533 -1.0246  0.9386  0.6201
 5603TIP3    H238445   6.484   0.805   0.678  0.0292 -1.4246  0.7771
 5604TIP3   OH238446   2.989   0.902   2.983 -0.0115 -0.0453  0.5148
 5604TIP3    H138447   2.910   0.921   3.034  0.0284  0.6196  0.3413
 5604TIP3    H238448   3.039   0.841   3.037 -0.7616 -0.6770  0.5137
 5605TIP3   OH238449   3.608   4.493   8.336  0.2556  0.2657 -0.1520
 5605TIP3    H138450   3.582   4.441   8.260  1.6509 -1.1422  0.2844
 5605TIP3    H238451   3.634   4.429   8.402  0.5285  1.4944  0.9842
 5606TIP3   OH238452   4.861   1.030   1.170 -0.1407 -0.6962  0.0332
 5606TIP3    H138453   4.828   1.117   1.194 -0.7880  0.0122 -3.0491
 5606TIP3    H238454   4.782   0.975   1.167 -0.4886 -0.1684 -2.6180
 5607TIP3   OH238455   1.944   3.908   7.270 -0.2564 -0.3941  0.2768
 5607TIP3    H138456   1.913   3.933   7.182 -1.0290  0.2183  0.6990
 5607TIP3    H238457   1.864   3.905   7.323  0.2710 -0.0753  1.1136
 5608TIP3   OH238458   4.477   3.689   7.623 -0.0134  0.0294  0.3661
 5608TIP3    H138459   4.508   3.779   7.625  2.4848 -0.7308 -0.5401
 5608TIP3    H238460   4.465   3.666   7.715  0.4549  0.9143  0.6571
 5609TIP3   OH238461   0.340   0.637   0.153  0.0397 -0.1353 -0.1160
 5609TIP3    H138462   0.249   0.663   0.171 -1.1465 -1.7080 -3.1013
 5609TIP3    H238463   0.348   0.551   0.192 -0.1625 -0.4835 -0.8260
 5610TIP3   OH238464   5.170   3.635   8.519  0.3814  0.4874 -0.2298
 5610TIP3    H138465   5.219   3.556   8.543  0.1706  0.8369  1.5003
 5610TIP3    H238466   5.130   3.613   8.435  0.7310 -1.0756 -0.0272
 5611TIP3   OH238467   0.791   3.391   1.408  0.1073  0.2067  0.3925
 5611TIP3    H138468   0.877   3.366   1.372  0.3289  1.4177  0.0527
 5611TIP3    H238469   0.789   3.350   1.494  0.0679 -1.7396 -0.4836
 5612TIP3   OH238470   5.194   3.894   8.519 -0.7302  0.2254 -0.3382
 5612TIP3    H138471   5.284   3.915   8.541 -0.5196  1.1730 -2.0201
 5612TIP3    H238472   5.185   3.801   8.541  0.1223  0.5134  1.4147
 5613TIP3   OH238473   1.673   4.746   8.266 -0.0068  0.3344  0.4717
 5613TIP3    H138474   1.669   4.725   8.360 -1.2183 -1.4222  0.0905
 5613TIP3    H238475   1.592   4.795   8.249 -1.2362 -1.7491 -0.1041
 5614TIP3   OH238476   2.949   0.824   7.092 -0.5330 -0.0531  0.2265
 5614TIP3    H138477   2.886   0.833   7.020  0.3243 -1.3011 -0.7448
 5614TIP3    H238478   2.899   0.845   7.171 -1.4432  1.6292 -0.7302
 5615TIP3   OH238479   3.471   1.028   1.744  0.3319  0.3251  0.2273
 5615TIP3    H138480   3.457   0.999   1.834  3.8049 -2.3898  0.0855
 5615TIP3    H238481   3.466   0.948   1.692 -0.0438  1.6147 -1.8338
 5616TIP3   OH238482   6.099   5.188   6.692 -0.0122 -0.2607  0.3985
 5616TIP3    H138483   6.192   5.195   6.715 -0.2832  1.5227  1.0971
 5616TIP3    H238484   6.056   5.254   6.746 -1.2714  1.2574 -2.2567
 5617TIP3   OH238485   1.497   5.750   7.803 -0.4096  0.2823  0.0821
 5617TIP3    H138486   1.526   5.835   7.834 -0.1964  0.1151  0.3424
 5617TIP3    H238487   1.514   5.752   7.708  0.3390  0.2363  0.2103
 5618TIP3   OH238488   2.067   5.890   0.626 -0.2246 -0.0680 -0.0333
 5618TIP3    H138489   2.123   5.957   0.666 -0.2565  0.6865 -1.1960
 5618TIP3    H238490   2.103   5.807   0.658  1.8215  0.3756 -1.0126
 5619TIP3   OH238491   1.098   6.235   1.538 -0.4953 -0.2586 -0.1539
 5619TIP3    H138492   1.032   6.231   1.468 -0.0259  1.1403 -0.7152
 5619TIP3    H238493   1.082   6.319   1.581  1.6104  0.6755 -1.0452
 5620TIP3   OH238494   2.058   3.575   1.745  0.4358 -0.1196  0.0496
 5620TIP3    H138495   1.981   3.566   1.689  1.8757  0.0662 -2.0816
 5620TIP3    H238496   2.082   3.668   1.737  1.6502 -0.4653 -0.4277
 5621TIP3   OH238497   6.282   1.146   7.742  0.1481  0.0559  0.2180
 5621TIP3    H138498   6.224   1.072   7.728  1.5205 -1.3219  1.4934
 5621TIP3    H238499   6.357   1.130   7.685  0.7407  0.1184  0.9576
 5622TIP3   OH238500   6.790   2.146   8.284  0.1427  0.5512 -0.0602
 5622TIP3    H138501   6.733   2.126   8.210 -1.1575 -0.2643  1.1149
 5622TIP3    H238502   6.758   2.230   8.317  1.1704  1.2700 -0.7890
 5623TIP3   OH238503   1.662   1.725   0.247 -0.4543  0.3077 -0.5498
 5623TIP3    H138504   1.637   1.660   0.313  0.4998  0.8932  0.4186
 5623TIP3    H238505   1.734   1.685   0.200 -1.3650 -0.2568 -1.5106
 5624TIP3   OH238506   6.189   0.117   8.085  0.4396  0.2797  0.2653
 5624TIP3    H138507   6.109   0.168   8.066  0.0457  0.6108  2.5501
 5624TIP3    H238508   6.260   0.178   8.065  0.1036  0.3468 -0.7932
 5625TIP3   OH238509   0.187   3.683   0.989 -0.8094  0.6431 -0.5792
 5625TIP3    H138510   0.160   3.674   1.081  0.7136 -0.7907 -0.2060
 5625TIP3    H238511   0.244   3.760   0.988 -0.3318  0.3024 -0.1749
 5626TIP3   OH238512   4.184   0.269   8.335  0.0367  0.4748 -0.2778
 5626TIP3    H138513   4.153   0.277   8.245 -1.3527  0.2391  0.1520
 5626TIP3    H238514   4.118   0.315   8.387  1.0202  0.9362  0.5911
 5627TIP3   OH238515   6.317   5.397   1.033 -0.1371 -0.6704  0.0525
 5627TIP3    H138516   6.258   5.427   1.102 -1.3635  2.6848 -2.2155
 5627TIP3    H238517   6.405   5.417   1.067 -0.7702  2.5466  0.1457
 5628TIP3   OH238518   1.453   0.702   7.183  0.7257 -0.4312  0.2522
 5628TIP3    H138519   1.415   0.626   7.140 -0.0057 -0.6124  1.1922
 5628TIP3    H238520   1.548   0.691   7.173  0.5811 -0.4474 -1.3048
 5629TIP3   OH238521   5.426   0.720   7.251 -0.4460  0.2566 -0.4865
 5629TIP3    H138522   5.409   0.714   7.157  0.3234  1.7870 -0.7477
 5629TIP3    H238523   5.378   0.646   7.288 -0.8555 -0.3148 -2.0620
 5630TIP3   OH238524   6.757   2.434   7.637  0.1224  0.0513  0.4587
 5630TIP3    H138525   6.752   2.485   7.556 -0.9567  0.3831  0.7183
 5630TIP3    H238526   6.782   2.497   7.704  3.0389 -0.5859  0.1068
 5631TIP3   OH238527   6.886   6.946   0.450  0.2872  0.2081  0.0512
 5631TIP3    H138528   6.831   6.908   0.518  0.4136 -0.2724 -0.1157
 5631TIP3    H238529   6.915   7.030   0.487  0.5814 -0.1712  0.7047
 5632TIP3   OH238530   2.491   6.367   2.529  0.9940  0.0816 -0.0684
 5632TIP3    H138531   2.521   6.282   2.564  0.2369  0.8526  2.7801
 5632TIP3    H238532   2.547   6.431   2.572  0.2688  1.1300 -0.6554
 5633TIP3   OH238533   2.757   1.547   1.149  0.0575 -0.4996  0.4289
 5633TIP3    H138534   2.674   1.579   1.185  0.6255 -0.3508  1.6627
 5633TIP3    H238535   2.814   1.538   1.225  0.2025 -3.6988  0.1027
 5634TIP3   OH238536   3.323   2.855   1.038 -0.0005 -0.4925 -0.2498
 5634TIP3    H138537   3.391   2.878   1.101  1.0382  0.7951 -1.7580
 5634TIP3    H238538   3.291   2.940   1.005 -1.4856 -1.1017 -0.4754
 5635TIP3   OH238539   5.250   5.845   7.785 -0.2278 -0.2984  0.5485
 5635TIP3    H138540   5.315   5.909   7.815 -0.6111  0.0082  0.7300
 5635TIP3    H238541   5.171   5.865   7.835 -1.0090  0.4774 -0.9502
 5636TIP3   OH238542   1.599   0.531   2.106 -0.4595  0.0866  0.5428
 5636TIP3    H138543   1.571   0.553   2.017 -1.6087 -0.9886  0.6003
 5636TIP3    H238544   1.686   0.568   2.114 -0.1822 -0.1176 -1.1615
 5637TIP3   OH238545   3.703   2.492   1.906 -0.2182 -0.3537 -0.1732
 5637TIP3    H138546   3.717   2.466   1.815 -0.9663  1.3028 -0.8047
 5637TIP3    H238547   3.647   2.423   1.943 -1.4741 -0.1135 -1.5365
 5638TIP3   OH238548   1.150   1.320   1.401  0.8412 -0.2322 -0.5068
 5638TIP3    H138549   1.062   1.329   1.364  0.4999  1.0602  0.5489
 5638TIP3    H238550   1.207   1.365   1.340  0.6090 -0.0899 -0.6186
 5639TIP3   OH238551   2.443   3.790   0.240 -0.1608  0.0774  0.0393
 5639TIP3    H138552   2.434   3.872   0.191  1.8335  0.8460  0.8552
 5639TIP3    H238553   2.517   3.746   0.198  0.8619  0.2409  1.5995
 5640TIP3   OH238554   0.412   5.517   1.236 -0.4558  0.1555 -0.5791
 5640TIP3    H138555   0.363   5.535   1.155  0.5646 -1.1125 -1.5126
 5640TIP3    H238556   0.347   5.478   1.295 -0.8213 -0.5508 -1.4258
 5641TIP3   OH238557   5.108   0.393   7.426  0.5955  0.2104 -0.0445
 5641TIP3    H138558   5.181   0.446   7.394 -0.9126  1.3881 -1.8000
 5641TIP3    H238559   5.140   0.303   7.423  2.7055  0.8314  1.4987
 5642TIP3   OH238560   3.593   1.746   3.143  0.1234  0.0649  0.4042
 5642TIP3    H138561   3.549   1.670   3.104  1.8596 -0.6895 -0.1782
 5642TIP3    H238562   3.675   1.711   3.177  0.7031  1.5840  0.6396
 5643TIP3   OH238563   5.523   0.111   0.798 -0.1593 -0.0727 -0.2159
 5643TIP3    H138564   5.529   0.166   0.720  0.0363 -1.1647 -0.9985
 5643TIP3    H238565   5.435   0.072   0.794 -0.1153 -0.2061  0.0547
 5644TIP3   OH238566   4.520   6.487   1.490 -0.3151  0.0760  0.6037
 5644TIP3    H138567   4.438   6.505   1.444 -0.3941 -1.3849  0.1220
 5644TIP3    H238568   4.492   6.446   1.572 -0.0747 -1.7953 -0.1987
 5645TIP3   OH238569   1.005   4.486   6.849 -0.4274  0.1284  0.0378
 5645TIP3    H138570   1.065   4.468   6.777 -0.1337 -1.5943  0.6802
 5645TIP3    H238571   0.918   4.474   6.812 -0.3173  0.3379 -0.2941
 5646TIP3   OH238572   5.400   0.447   7.442 -0.1772  0.9307  0.0553
 5646TIP3    H138573   5.488   0.412   7.426 -0.4191  0.2460  0.1621
 5646TIP3    H238574   5.413   0.517   7.507  0.1385 -0.0879  1.1349
 5647TIP3   OH238575   5.572   5.635   2.543 -0.3056  0.2561 -0.2644
 5647TIP3    H138576   5.530   5.720   2.545 -0.5890  0.1055  1.0628
 5647TIP3    H238577   5.513   5.577   2.591  1.5473  0.1419  2.1080
 5648TIP3   OH238578   5.836   2.460   0.277 -0.0763 -0.3118  0.1378
 5648TIP3    H138579   5.808   2.418   0.358  0.0413 -1.0267 -0.1794
 5648TIP3    H238580   5.762   2.447   0.217 -0.7416  1.4174  0.5174
 5649TIP3   OH238581   2.205   0.865   8.084  0.7916  0.0616 -0.6434
 5649TIP3    H138582   2.189   0.846   8.176  1.6864 -0.0255 -0.5021
 5649TIP3    H238583   2.298   0.888   8.079  0.3365  1.9985 -1.1921
 5650TIP3   OH238584   0.697   3.977   1.362 -0.1321  0.5249 -0.2799
 5650TIP3    H138585   0.770   4.038   1.354  0.9859 -0.8408 -0.9488
 5650TIP3    H238586   0.660   3.996   1.449  1.0610  1.2056  0.1127
 5651TIP3   OH238587   5.113   3.218   7.242  0.2392 -0.0941 -0.1642
 5651TIP3    H138588   5.166   3.289   7.279 -0.2392  0.1641  0.0386
 5651TIP3    H238589   5.071   3.257   7.165  0.1300 -0.2089 -0.1640
 5652TIP3   OH238590   5.225   0.723   0.136  0.2284  0.1751 -0.0923
 5652TIP3    H138591   5.185   0.744   0.220  2.3402  0.3016  0.9387
 5652TIP3    H238592   5.202   0.797   0.079 -1.2141  0.0896  0.3388
 5653TIP3   OH238593   1.050   3.330   1.229  0.2071  0.3850 -0.3083
 5653TIP3    H138594   0.983   3.262   1.216  0.7064 -0.4280  1.1277
 5653TIP3    H238595   1.133   3.283   1.220  0.7227  1.6337 -3.4375
 5654TIP3   OH238596   2.862   1.377   0.399  0.6271 -0.1419 -0.0942
 5654TIP3    H138597   2.769   1.394   0.382  0.2527 -1.6626  0.2886
 5654TIP3    H238598   2.885   1.440   0.468 -0.3689 -0.3453  0.4398
 5655TIP3   OH238599   0.007   0.288   7.913  0.2487 -0.5103  0.0578
 5655TIP3    H138600   0.055   0.210   7.941  0.7959 -0.1713  0.0780
 5655TIP3    H238601   0.013   0.286   7.817 -1.0158 -1.2855 -0.0382
 5656TIP3   OH238602   1.872   3.957   1.235 -0.6637  0.2850 -0.5043
 5656TIP3    H138603   1.875   3.926   1.145 -0.1918 -0.1102 -0.3592
 5656TIP3    H238604   1.791   4.008   1.241 -2.2792 -2.1229 -0.3522
 5657TIP3   OH238605   1.723   3.008   0.551  0.3489 -0.1318  0.3592
 5657TIP3    H138606   1.700   2.915   0.545  2.1300 -0.5748 -0.1173
 5657TIP3    H238607   1.706   3.042   0.463 -0.3400  0.0172  0.5441
 5658TIP3   OH238608   4.807   1.565   7.315 -0.3869  0.4067  0.0247
 5658TIP3    H138609   4.837   1.523   7.235 -1.1093 -0.3192  0.1240
 5658TIP3    H238610   4.804   1.658   7.293 -0.2428  0.2513 -0.6805
 5659TIP3   OH238611   3.577   1.832   1.964  0.2831 -0.2350  0.1237
 5659TIP3    H138612   3.548   1.923   1.963 -0.9116 -0.5748  1.2407
 5659TIP3    H238613   3.596   1.811   1.872  0.3074  1.0420 -0.1732
 5660TIP3   OH238614   6.785   2.803   1.605  0.4366  0.2754  0.7992
 5660TIP3    H138615   6.865   2.774   1.560 -0.3443 -0.1710 -0.3735
 5660TIP3    H238616   6.788   2.898   1.602 -0.1518  0.2893 -1.3636
 5661TIP3   OH238617   2.445   6.470   8.394  0.1831 -0.3201 -0.0081
 5661TIP3    H138618   2.375   6.527   8.427  0.7589  0.8296 -0.6969
 5661TIP3    H238619   2.490   6.440   8.473 -0.2842 -0.0115  0.3842
 5662TIP3   OH238620   1.289   0.482   1.319 -0.0246  0.2745  0.0945
 5662TIP3    H138621   1.289   0.571   1.353  1.7098  0.7472 -0.9837
 5662TIP3    H238622   1.320   0.491   1.229 -0.4263 -1.3540 -0.2333
 5663TIP3   OH238623   5.984   5.354   1.329 -0.0714 -0.0505  0.2029
 5663TIP3    H138624   6.035   5.420   1.377 -0.0112 -0.0368  0.1206
 5663TIP3    H238625   5.893   5.377   1.347 -0.0587 -0.9263  1.5167
 5664TIP3   OH238626   0.035   5.227   7.307 -0.1530  0.9259  0.1321
 5664TIP3    H138627  -0.007   5.179   7.236 -0.5738  0.9072  0.3898
 5664TIP3    H238628   0.077   5.302   7.265  1.8522 -0.4646 -0.5195
 5665TIP3   OH238629   1.279   0.516   7.892  0.4717 -0.2869  0.0101
 5665TIP3    H138630   1.247   0.600   7.862 -2.3755 -1.7919 -1.5986
 5665TIP3    H238631   1.343   0.489   7.826 -0.6330 -0.5465 -0.9728
 5666TIP3   OH238632   4.255   5.207   1.071  0.5055  0.2018  0.0012
 5666TIP3    H138633   4.250   5.217   1.167  2.0476  1.2622  0.0168
 5666TIP3    H238634   4.335   5.156   1.057 -0.7569 -1.7099 -0.6898
 5667TIP3   OH238635   5.239   1.912   1.544  0.3125 -0.2002 -0.4909
 5667TIP3    H138636   5.252   1.912   1.639 -1.6766  1.3138 -0.1642
 5667TIP3    H238637   5.165   1.852   1.529 -0.3721  0.7180 -0.8926
 5668TIP3   OH238638   0.858   3.494   0.202 -0.1140 -0.4112 -0.3857
 5668TIP3    H138639   0.793   3.563   0.188  1.1326  0.7733 -0.5406
 5668TIP3    H238640   0.824   3.445   0.277  0.1479  1.8986  1.3775
 5669TIP3   OH238641   2.928   6.641   1.204  0.1733  0.7594 -0.1912
 5669TIP3    H138642   3.006   6.691   1.226 -0.2077  1.7550 -1.0328
 5669TIP3    H238643   2.951   6.594   1.124 -0.0440  0.9711 -0.3807
 5670TIP3   OH238644   0.965   4.968   0.042  0.2899 -0.2278  0.6768
 5670TIP3    H138645   1.001   4.944   0.127  1.4348 -0.4112  0.1653
 5670TIP3    H238646   1.009   5.050   0.019 -1.5205  0.9295  1.1510
 5671TIP3   OH238647   0.686   2.898   0.772  0.2765 -0.0379  0.0128
 5671TIP3    H138648   0.777   2.904   0.745  0.2757  0.1859  0.0559
 5671TIP3    H238649   0.644   2.846   0.704  0.3067  0.3813 -0.3354
 5672TIP3   OH238650   5.697   0.026   0.390  0.0400  0.1108  0.4586
 5672TIP3    H138651   5.735   0.112   0.408 -0.3370  0.2340  0.6681
 5672TIP3    H238652   5.608   0.031   0.425 -0.5369  0.1892 -0.9606
 5673TIP3   OH238653   0.693   4.328   0.703 -0.2832  0.1452  0.6753
 5673TIP3    H138654   0.661   4.240   0.723 -0.6099  0.2485  0.6247
 5673TIP3    H238655   0.740   4.319   0.620  2.7937 -0.6887  2.3454
 5674TIP3   OH238656   1.139   6.349   8.188 -0.2271 -0.9206  0.0576
 5674TIP3    H138657   1.198   6.354   8.263 -0.3546 -0.8397  0.1504
 5674TIP3    H238658   1.089   6.269   8.201  0.7909 -1.7079 -0.6931
 5675TIP3   OH238659   5.283   2.168   1.447 -0.1511  0.2196  0.3748
 5675TIP3    H138660   5.208   2.207   1.491 -1.5319 -0.7783 -0.9790
 5675TIP3    H238661   5.305   2.091   1.500 -0.9883 -0.2585  0.0465
 5676TIP3   OH238662   6.189   5.512   0.607  0.1424  0.0003 -0.5119
 5676TIP3    H138663   6.258   5.521   0.542  0.6943  0.5182  0.1210
 5676TIP3    H238664   6.226   5.454   0.673 -0.0828  0.1553 -0.2465
 5677TIP3   OH238665   6.314   5.119   1.648 -0.6494 -0.0346  0.4135
 5677TIP3    H138666   6.408   5.134   1.641 -0.4100  0.0432  2.8814
 5677TIP3    H238667   6.282   5.125   1.558  1.7068 -0.2246 -0.5047
 5678TIP3   OH238668   4.938   2.038   0.304  0.1410 -0.7724 -0.5728
 5678TIP3    H138669   4.914   2.057   0.213 -0.9042 -0.1971 -0.1904
 5678TIP3    H238670   4.855   2.034   0.350  0.6124 -1.8678  0.2268
 5679TIP3   OH238671   6.132   4.075   1.125 -0.7694 -0.3172  0.3434
 5679TIP3    H138672   6.056   4.098   1.178 -1.3185  0.9398 -0.9082
 5679TIP3    H238673   6.196   4.144   1.143 -0.6249 -0.3697  0.0469
 5680TIP3   OH238674   1.134   0.921   8.103 -0.9584 -0.5031  0.2155
 5680TIP3    H138675   1.076   0.912   8.028 -0.4613 -0.5810 -0.1659
 5680TIP3    H238676   1.169   0.832   8.117 -0.2145 -0.2762 -0.1507
 5681TIP3   OH238677   5.516   5.090   0.935 -0.3914 -0.5902 -0.2293
 5681TIP3    H138678   5.471   5.168   0.967 -0.7881 -1.0872  0.4623
 5681TIP3    H238679   5.476   5.018   0.984 -0.7676 -1.3531 -1.6192
 5682TIP3   OH238680   5.971   6.495   1.737  0.0828  0.8481  0.5009
 5682TIP3    H138681   5.965   6.579   1.690  0.7136  0.5417 -0.1425
 5682TIP3    H238682   5.953   6.429   1.670  0.1269  0.4428  0.8879
 5683TIP3   OH238683   2.124   3.323   1.339 -0.3101  0.3063 -0.2365
 5683TIP3    H138684   2.063   3.373   1.285 -0.4693  0.3463 -0.0243
 5683TIP3    H238685   2.132   3.239   1.294  0.4822  0.7594 -0.9482
 5684TIP3   OH238686   3.852   4.338   0.934  0.6961  0.2589  0.6928
 5684TIP3    H138687   3.803   4.271   0.982 -1.3659  0.8694 -0.4457
 5684TIP3    H238688   3.926   4.291   0.896 -0.6514 -1.4024 -0.0028
 5685TIP3   OH238689   2.457   4.825   0.692 -0.0299  0.0438 -0.2231
 5685TIP3    H138690   2.423   4.792   0.610 -0.8946  0.8381 -0.1941
 5685TIP3    H238691   2.534   4.771   0.709 -1.2417 -1.7829 -0.2922
 5686TIP3   OH238692   3.392   3.110   7.060  0.0027 -0.4726  0.3245
 5686TIP3    H138693   3.386   3.133   6.967  2.9317 -0.8136 -0.0272
 5686TIP3    H238694   3.332   3.170   7.103  0.1042  1.1033 -1.5835
 5687TIP3   OH238695   5.003   5.369   2.157  0.2923 -0.0264 -0.0290
 5687TIP3    H138696   4.909   5.371   2.174  0.2854 -0.8766  0.0612
 5687TIP3    H238697   5.011   5.328   2.071  0.5267  1.0590 -0.5435
 5688TIP3   OH238698   0.560   2.080   0.718  0.1550 -0.0442 -0.2434
 5688TIP3    H138699   0.483   2.124   0.683 -0.3314  0.7446  1.6592
 5688TIP3    H238700   0.556   2.097   0.812  3.6734  1.6895 -0.2404
 5689TIP3   OH238701   2.993   5.366   0.033  0.0842 -0.4056 -0.2308
 5689TIP3    H138702   2.911   5.407   0.003 -0.1437 -0.1665  0.6733
 5689TIP3    H238703   2.975   5.342   0.124  0.3029 -2.3110 -0.6661
 5690TIP3   OH238704   6.564   4.939   8.138  0.5353  0.3723  0.0326
 5690TIP3    H138705   6.578   4.904   8.226 -0.8468 -2.6061 -0.7858
 5690TIP3    H238706   6.611   4.879   8.080 -3.0305 -1.1840 -1.5784
 5691TIP3   OH238707   3.978   0.905   8.462 -0.0055  0.2121  0.0894
 5691TIP3    H138708   3.968   0.871   8.551  0.6315 -0.1986  0.0089
 5691TIP3    H238709   3.926   0.985   8.461 -0.6217 -0.1733  0.6092
 5692TIP3   OH238710   6.420   1.181   0.953 -0.4430 -0.5082 -0.3904
 5692TIP3    H138711   6.474   1.162   1.029 -0.3575 -0.0023 -0.3275
 5692TIP3    H238712   6.369   1.101   0.940  0.1634 -0.9154 -0.3240
 5693TIP3   OH238713   2.907   4.778   0.081 -0.2922  0.5528 -0.2756
 5693TIP3    H138714   2.850   4.705   0.054 -0.5462  0.0235  1.5480
 5693TIP3    H238715   2.900   4.780   0.177  2.4343  0.7243  0.0101
 5694TIP3   OH238716   5.718   6.403   0.744  0.0957 -0.2931  0.6174
 5694TIP3    H138717   5.713   6.310   0.723 -0.8041 -0.1677  0.2605
 5694TIP3    H238718   5.803   6.431   0.708 -0.1576 -0.7071 -0.3321
 5695TIP3   OH238719   2.234   0.166   1.843 -0.1564  0.0686 -0.3308
 5695TIP3    H138720   2.250   0.122   1.759 -1.7910 -1.6816  0.1954
 5695TIP3    H238721   2.288   0.117   1.906  1.9481  2.0721 -0.4408
 5696TIP3   OH238722   2.444   5.204   1.170  0.0798 -0.4425 -0.3691
 5696TIP3    H138723   2.389   5.277   1.143  0.2888 -1.4544 -3.9732
 5696TIP3    H238724   2.402   5.126   1.134  2.5526 -1.5028 -1.2270
 5697TIP3   OH238725   2.348   6.352   6.978 -0.5464  0.0540  0.4119
 5697TIP3    H138726   2.315   6.263   6.964  0.8540 -0.7318  1.8015
 5697TIP3    H238727   2.292   6.388   7.047  0.2873 -0.6082  1.4636
 5698TIP3   OH238728   3.458   4.481   7.363 -0.3234  0.2463 -0.0709
 5698TIP3    H138729   3.386   4.514   7.416 -1.3718  1.0521 -1.9093
 5698TIP3    H238730   3.515   4.556   7.349 -0.0191  0.0255 -0.0391
 5699TIP3   OH238731   1.412   3.512   6.945  0.2994 -0.6577 -0.2304
 5699TIP3    H138732   1.369   3.430   6.919 -0.1590 -0.1870 -0.9843
 5699TIP3    H238733   1.340   3.574   6.956  0.5016 -0.7313  1.8580
 5700TIP3   OH238734   5.478   6.028   7.742  0.3796  0.1529 -0.1000
 5700TIP3    H138735   5.398   6.060   7.700  1.0117  1.5929 -0.2476
 5700TIP3    H238736   5.528   5.988   7.671  0.5181  0.7332 -0.3360
 5701TIP3   OH238737   3.384   5.050   0.195  0.3816  0.2149 -0.2789
 5701TIP3    H138738   3.447   5.017   0.132  1.2184  1.8297 -0.3354
 5701TIP3    H238739   3.299   5.016   0.164  1.1103 -1.4217 -0.5709
 5702TIP3   OH238740   1.278   4.995   7.598 -0.3494 -0.1109 -0.0370
 5702TIP3    H138741   1.288   4.969   7.507  0.0147 -2.1410  0.5493
 5702TIP3    H238742   1.333   5.073   7.607  2.5351 -1.9370 -0.7147
 5703TIP3   OH238743   6.831   2.498   7.883  0.1538 -0.3932 -0.5829
 5703TIP3    H138744   6.905   2.438   7.876  0.0298 -0.5094 -0.9399
 5703TIP3    H238745   6.771   2.456   7.945  1.5988  0.9861  1.8947
 5704TIP3   OH238746   4.926   0.652   7.910 -0.0797  0.5787  0.2186
 5704TIP3    H138747   5.017   0.623   7.916  0.2611  0.7195 -2.7306
 5704TIP3    H238748   4.880   0.579   7.868 -1.3459  0.5422  1.6043
 5705TIP3   OH238749   1.214   3.042   7.863  1.3174  0.0834 -0.0576
 5705TIP3    H138750   1.266   3.122   7.856  1.6624 -0.3231 -3.9726
 5705TIP3    H238751   1.244   2.986   7.792 -1.0730 -2.2815  0.5872
 5706TIP3   OH238752   1.135   2.524   0.477  0.0801  0.3113 -0.0956
 5706TIP3    H138753   1.062   2.544   0.535  0.3251  0.9044  0.0145
 5706TIP3    H238754   1.128   2.430   0.462 -0.4562  0.2884  0.2497
 5707TIP3   OH238755   3.086   3.798   6.663  0.3937 -0.1397  0.4692
 5707TIP3    H138756   3.178   3.773   6.650  0.0363 -1.4169  0.2508
 5707TIP3    H238757   3.050   3.730   6.720 -0.3100  0.5976  0.9315
 5708TIP3   OH238758   6.474   5.154   1.081 -0.0865 -0.4187 -0.4481
 5708TIP3    H138759   6.521   5.159   0.998 -0.0365  1.3422 -0.3527
 5708TIP3    H238760   6.413   5.228   1.078  1.3221  0.9503  1.8812
 5709TIP3   OH238761   5.652   0.699   2.007 -0.0033 -0.1519 -0.3685
 5709TIP3    H138762   5.643   0.709   2.102  0.4216  0.4340 -0.3851
 5709TIP3    H238763   5.637   0.787   1.973 -1.6064 -0.6088 -0.9667
 5710TIP3   OH238764   4.506   4.240   1.528  0.9846 -0.0022 -0.2369
 5710TIP3    H138765   4.574   4.192   1.575  2.8795  1.7006 -1.0826
 5710TIP3    H238766   4.511   4.208   1.438  0.6905  0.1661 -0.3138
 5711TIP3   OH238767   2.283   0.082   7.678  0.1646 -0.2317  0.4460
 5711TIP3    H138768   2.197   0.051   7.650  0.1259 -0.1006  0.4207
 5711TIP3    H238769   2.269   0.173   7.702  0.5622  0.1685 -0.7894
 5712TIP3   OH238770   0.839   0.608   2.554  0.0492 -0.0014  0.3969
 5712TIP3    H138771   0.835   0.513   2.541 -0.8830  0.0006  0.6006
 5712TIP3    H238772   0.918   0.621   2.606 -0.1222 -0.7385  0.8742
 5713TIP3   OH238773   1.626   2.888   7.603 -0.0148 -0.2030 -0.1250
 5713TIP3    H138774   1.695   2.950   7.581  0.9369 -0.3351  2.2662
 5713TIP3    H238775   1.669   2.822   7.658 -2.4067  1.0477  3.6149
 5714TIP3   OH238776   5.637   0.992   7.580  0.7461  0.0453  0.2133
 5714TIP3    H138777   5.721   1.037   7.594  0.7912 -0.1084  0.4363
 5714TIP3    H238778   5.660   0.914   7.529  0.7954 -0.2111  0.6266
 5715TIP3   OH238779   0.556   3.722   6.416 -0.1261  0.3326  0.0574
 5715TIP3    H138780   0.597   3.640   6.444 -1.1242 -1.6217 -3.5810
 5715TIP3    H238781   0.480   3.731   6.474  0.5127 -0.7795  1.1210
 5716TIP3   OH238782   0.378   4.752   0.242 -0.5997  0.3267 -0.2999
 5716TIP3    H138783   0.322   4.680   0.212  0.6209 -1.4395  1.4313
 5716TIP3    H238784   0.330   4.791   0.315 -1.8876  2.2681 -2.0559
 5717TIP3   OH238785   5.360   6.543   1.142  0.2829  0.2463  0.5407
 5717TIP3    H138786   5.368   6.454   1.174 -1.3647 -0.3530 -0.5673
 5717TIP3    H238787   5.395   6.541   1.053 -0.3464  0.5144  0.2727
 5718TIP3   OH238788   5.989   5.485   2.560  0.3002  0.1285  0.1461
 5718TIP3    H138789   5.911   5.517   2.514 -1.8483  0.2988  3.5129
 5718TIP3    H238790   6.049   5.560   2.562 -1.0414  1.2301  0.5795
 5719TIP3   OH238791   1.880   5.534   0.262  0.3593  0.0503 -0.5785
 5719TIP3    H138792   1.818   5.512   0.331  0.8723 -2.6135 -0.8656
 5719TIP3    H238793   1.914   5.620   0.286 -1.4912  0.4044  0.9627
 5720TIP3   OH238794   0.839   0.326   7.948  0.0350  0.5099 -0.2143
 5720TIP3    H138795   0.865   0.329   8.041  0.0458  2.3594 -0.2449
 5720TIP3    H238796   0.914   0.360   7.901  0.2987 -1.0838 -1.0051
 5721TIP3   OH238797   3.006   0.767   2.750 -0.0804 -1.1403 -0.2347
 5721TIP3    H138798   3.022   0.674   2.768  1.5571 -0.7533  0.5259
 5721TIP3    H238799   3.009   0.809   2.836  0.5622 -0.2126 -0.6898
 5722TIP3   OH238800   4.395   1.485   2.157  0.2819 -0.3722 -0.0721
 5722TIP3    H138801   4.482   1.504   2.123 -0.6514  0.4941 -2.0993
 5722TIP3    H238802   4.394   1.525   2.244  1.7062  0.1007 -0.2527
 5723TIP3   OH238803   4.328   3.543   0.976  0.3209 -0.2901  0.4934
 5723TIP3    H138804   4.313   3.453   1.003  1.1908  0.0413  2.2138
 5723TIP3    H238805   4.423   3.553   0.978  0.3503  0.1668 -1.4768
 5724TIP3   OH238806   6.218   5.191   1.415  0.1352  0.1984  0.1276
 5724TIP3    H138807   6.155   5.257   1.385 -1.0892 -0.1248  1.8282
 5724TIP3    H238808   6.297   5.209   1.364 -0.4941  2.2958 -0.2373
 5725TIP3   OH238809   6.535   1.023   0.375 -0.3826 -0.3595  0.2895
 5725TIP3    H138810   6.518   1.012   0.281  0.6083  0.2577  0.0270
 5725TIP3    H238811   6.627   1.049   0.380  0.2740 -2.6177  1.5865
 5726TIP3   OH238812   0.574   5.817   6.942  0.4980  0.2409  0.0312
 5726TIP3    H138813   0.522   5.807   7.022 -0.0518 -1.1291 -0.4670
 5726TIP3    H238814   0.537   5.753   6.882  0.3451  1.8022 -1.6232
 5727TIP3   OH238815   1.694   4.167   2.415 -0.2193 -0.6266 -0.0549
 5727TIP3    H138816   1.778   4.207   2.436 -1.2105  1.5811  0.0145
 5727TIP3    H238817   1.644   4.173   2.496 -1.3882  0.7347 -0.8315
 5728TIP3   OH238818   1.363   3.954   7.831 -0.0239 -0.1339  0.1614
 5728TIP3    H138819   1.397   3.864   7.834 -0.0542 -0.1582 -0.1506
 5728TIP3    H238820   1.294   3.952   7.765  0.0207  0.1348  0.1036
 5729TIP3   OH238821   6.443   3.595   6.974  0.0896  0.1490  0.3465
 5729TIP3    H138822   6.415   3.648   6.899 -2.1296 -0.6240  0.5576
 5729TIP3    H238823   6.373   3.606   7.039  0.0545 -2.1606  0.7948
 5730TIP3   OH238824   0.964   6.391   1.792  0.0839 -0.0036  0.0313
 5730TIP3    H138825   0.910   6.408   1.869  0.7050  1.9018  0.1024
 5730TIP3    H238826   1.054   6.403   1.823  0.4319 -0.8054 -0.6300
 5731TIP3   OH238827   6.882   0.412   8.450 -0.2102 -0.4897  0.0630
 5731TIP3    H138828   6.929   0.396   8.368 -0.5426  1.1905 -0.4884
 5731TIP3    H238829   6.801   0.455   8.423 -0.7779 -0.8114  1.2096
 5732TIP3   OH238830   3.960   6.207   7.453 -0.0614 -0.3182 -0.2044
 5732TIP3    H138831   3.883   6.251   7.489 -0.7240 -2.1621  0.7835
 5732TIP3    H238832   4.006   6.172   7.529  1.4529  0.2257 -0.8300
 5733TIP3   OH238833   3.820   5.671   6.830  0.1892 -0.1603 -0.5695
 5733TIP3    H138834   3.747   5.616   6.801 -1.3101  0.4700  1.7494
 5733TIP3    H238835   3.822   5.742   6.766  0.8226 -1.7469 -2.4138
 5734TIP3   OH238836   0.720   1.424   1.154 -0.6138 -0.1244 -0.0018
 5734TIP3    H138837   0.766   1.422   1.071 -1.9661 -1.0969 -0.7704
 5734TIP3    H238838   0.637   1.380   1.137  0.2200 -3.0871  2.5120
 5735TIP3   OH238839   4.699   0.764   1.575 -0.3963 -0.2409  0.3746
 5735TIP3    H138840   4.617   0.806   1.601 -0.2723  0.3460 -0.1647
 5735TIP3    H238841   4.767   0.813   1.622 -0.4106 -1.4494  1.7327
 5736TIP3   OH238842   0.863   1.773   7.600  0.3470 -0.1834  0.4634
 5736TIP3    H138843   0.780   1.804   7.637  0.7289  0.8570  0.4485
 5736TIP3    H238844   0.893   1.706   7.662  0.1614  0.3821  1.1766
 5737TIP3   OH238845   3.745   6.439   7.799  0.2060  0.0634  0.3158
 5737TIP3    H138846   3.653   6.414   7.799 -0.0496  0.9392 -0.5734
 5737TIP3    H238847   3.791   6.362   7.832 -0.8940 -0.1479  1.4066
 5738TIP3   OH238848   6.029   6.011   8.220 -0.0028 -0.4747  0.5364
 5738TIP3    H138849   6.038   6.095   8.175 -0.9281 -0.1786  0.8786
 5738TIP3    H238850   5.939   5.983   8.201  0.4524 -1.6258  0.0271
 5739TIP3   OH238851   5.358   2.902   1.790 -0.0452  0.0774  0.7785
 5739TIP3    H138852   5.392   2.839   1.853  1.2874  1.4840  1.5472
 5739TIP3    H238853   5.263   2.897   1.799  0.0084 -1.9431  0.6486
 5740TIP3   OH238854   6.625   0.538   1.282  0.0561 -0.2642 -0.2706
 5740TIP3    H138855   6.577   0.475   1.228 -2.2626  0.4619  0.8035
 5740TIP3    H238856   6.650   0.607   1.221 -2.1735  0.3518 -0.5872
 5741TIP3   OH238857   4.573   5.555   8.004 -0.1802 -0.0531  0.2084
 5741TIP3    H138858   4.540   5.469   8.030  1.4087  0.0142  2.8969
 5741TIP3    H238859   4.500   5.614   8.019 -0.6854 -0.6774  0.2656
 5742TIP3   OH238860   3.121   1.644   0.457 -0.5188  0.3863 -0.5517
 5742TIP3    H138861   3.053   1.620   0.519 -0.0383  0.4379  0.0031
 5742TIP3    H238862   3.100   1.595   0.377 -1.2145  0.4283 -0.3982
 5743TIP3   OH238863   2.494   1.333   0.070 -0.5591  0.1292 -0.1363
 5743TIP3    H138864   2.586   1.310   0.080 -0.8877 -1.0200  0.3183
 5743TIP3    H238865   2.456   1.321   0.157 -1.5319 -1.2451 -0.7233
 5744TIP3   OH238866   5.911   2.335   6.942  0.1682 -0.3979 -0.3947
 5744TIP3    H138867   5.817   2.346   6.953  0.1266  0.1236 -1.1569
 5744TIP3    H238868   5.922   2.314   6.849  0.8308  0.0483 -0.4275
 5745TIP3   OH238869   2.437   2.512   2.153  0.2266  0.1070  0.0422
 5745TIP3    H138870   2.407   2.440   2.207  1.8890 -1.8261 -1.4534
 5745TIP3    H238871   2.530   2.495   2.139  0.2910  1.5781 -1.7968
 5746TIP3   OH238872   2.480   5.966   2.309  0.2089  0.2727 -0.0720
 5746TIP3    H138873   2.555   5.981   2.367  2.0119  1.7571 -2.5853
 5746TIP3    H238874   2.469   5.871   2.308  3.0080 -0.1191 -0.6773
 5747TIP3   OH238875   6.331   5.760   8.404 -0.7176 -0.3357  1.1296
 5747TIP3    H138876   6.400   5.817   8.370 -1.0685 -0.9057 -0.6408
 5747TIP3    H238877   6.316   5.792   8.493  1.9315 -0.2899  1.6592
 5748TIP3   OH238878   6.584   2.774   0.889 -0.6555 -0.2792 -0.8470
 5748TIP3    H138879   6.669   2.756   0.930 -2.1052  0.1435  2.6769
 5748TIP3    H238880   6.606   2.799   0.799  2.9243 -0.2958 -0.1317
 5749TIP3   OH238881   0.347   3.951   1.341 -0.0709  0.1781  0.0034
 5749TIP3    H138882   0.364   3.887   1.409 -1.1404  0.4096  0.5105
 5749TIP3    H238883   0.276   4.005   1.376  0.6277  1.4795 -0.5091
 5750TIP3   OH238884   3.286   4.052   0.417  0.5642 -0.4936  0.4716
 5750TIP3    H138885   3.202   4.008   0.405  0.9075 -0.5189 -2.3909
 5750TIP3    H238886   3.264   4.134   0.461 -0.6566 -1.4064  1.6321
 5751TIP3   OH238887   0.886   4.111   0.952 -0.3807  0.9457  0.1684
 5751TIP3    H138888   0.804   4.158   0.935 -1.1213 -0.5044 -0.4806
 5751TIP3    H238889   0.859   4.032   0.998  0.5007 -0.0964 -1.0148
 5752TIP3   OH238890   0.797   1.882   1.566 -0.2551  0.6673  0.2006
 5752TIP3    H138891   0.820   1.956   1.621 -0.7608  0.0624  1.2714
 5752TIP3    H238892   0.706   1.861   1.590 -0.3971  0.2214 -0.6738
 5753TIP3   OH238893   6.376   1.064   2.937  0.0521 -0.3375  0.2875
 5753TIP3    H138894   6.400   1.084   2.847  1.2418 -0.7747  0.4885
 5753TIP3    H238895   6.323   0.985   2.931  0.4197 -0.5630 -0.0009
 5754TIP3   OH238896   1.370   4.076   1.811 -0.2422 -0.0814  0.1949
 5754TIP3    H138897   1.401   4.115   1.729  1.5935  2.1720  1.8226
 5754TIP3    H238898   1.282   4.045   1.791  0.6954 -1.0127 -3.0019
 5755TIP3   OH238899   0.656   3.365   2.335 -0.2393 -0.0442  0.7219
 5755TIP3    H138900   0.597   3.333   2.403  0.2477 -0.4667  0.9457
 5755TIP3    H238901   0.743   3.364   2.375 -0.2298  1.8250  0.8342
 5756TIP3   OH238902   4.655   3.809   1.181 -0.1804  0.1349  0.4451
 5756TIP3    H138903   4.701   3.740   1.228  0.8285  0.4061 -0.1134
 5756TIP3    H238904   4.590   3.842   1.243  2.6626  2.1375  2.5742
 5757TIP3   OH238905   6.236   6.756   1.696  0.0498  0.0197 -0.0673
 5757TIP3    H138906   6.263   6.736   1.785 -0.1649  0.3539  0.0730
 5757TIP3    H238907   6.289   6.697   1.641  1.0817  0.6743  0.2002
 5758TIP3   OH238908   1.672   5.296   1.267 -0.4437  0.0729  0.0845
 5758TIP3    H138909   1.637   5.361   1.206  2.5698 -0.8966 -2.9847
 5758TIP3    H238910   1.745   5.340   1.310 -0.0086 -0.4785 -0.0771
 5759TIP3   OH238911   0.004   5.801   1.357 -0.1846 -0.9944  0.2708
 5759TIP3    H138912  -0.037   5.827   1.275  0.6410 -4.0619 -1.2797
 5759TIP3    H238913  -0.058   5.829   1.425 -0.9674  1.4783 -1.3349
 5760TIP3   OH238914   4.505   5.984   7.790  0.0632 -0.3699 -0.3074
 5760TIP3    H138915   4.543   6.040   7.857 -0.4940 -1.4831  1.0046
 5760TIP3    H238916   4.459   5.916   7.839 -2.4766  0.1262 -1.7920
 5761TIP3   OH238917   3.822   6.412   1.428  0.4665 -0.2456 -0.0029
 5761TIP3    H138918   3.908   6.382   1.402 -0.4529 -2.8231 -0.3118
 5761TIP3    H238919   3.807   6.491   1.375  3.2225  1.2819  1.2848
 5762TIP3   OH238920   1.704   3.842   1.779  0.2307 -0.4446  0.3041
 5762TIP3    H138921   1.629   3.839   1.838 -0.6269  0.7792 -0.6694
 5762TIP3    H238922   1.767   3.781   1.817 -0.5733 -0.2290  2.0754
 5763TIP3   OH238923   1.069   1.761   1.641 -0.2966 -0.5599  0.2865
 5763TIP3    H138924   1.016   1.802   1.572 -1.7339 -1.6924  0.6521
 5763TIP3    H238925   1.039   1.804   1.722  0.1305 -0.4571  0.3921
 5764TIP3   OH238926   0.095   1.655   0.729  0.1986  0.2030  0.3247
 5764TIP3    H138927   0.032   1.610   0.785  0.2150 -0.0638  0.1295
 5764TIP3    H238928   0.169   1.675   0.786 -0.1640  0.7430  0.6179
 5765TIP3   OH238929   4.202   2.724   0.663 -0.2344 -0.1866  0.1321
 5765TIP3    H138930   4.202   2.632   0.690  0.1659  0.1490  1.3396
 5765TIP3    H238931   4.171   2.771   0.741  3.0219  1.0374  0.8491
 5766TIP3   OH238932   4.407   3.867   6.990 -0.3931 -0.5616 -0.3936
 5766TIP3    H138933   4.366   3.894   6.908 -0.0898  0.6640 -0.1505
 5766TIP3    H238934   4.452   3.785   6.968  0.9708  0.5281 -1.8422
 5767TIP3   OH238935   1.578   5.923   2.286 -0.6574  0.0014 -1.2163
 5767TIP3    H138936   1.504   5.869   2.258 -0.0553 -0.7340 -1.4150
 5767TIP3    H238937   1.655   5.871   2.265 -0.1459 -1.1242  2.6850
 5768TIP3   OH238938   5.742   1.334   0.262 -0.1519 -0.0988 -0.0908
 5768TIP3    H138939   5.746   1.262   0.199  0.5923 -1.3983  1.3712
 5768TIP3    H238940   5.828   1.377   0.254 -0.4488  0.4128 -0.6765
 5769TIP3   OH238941   3.816   0.103   8.460 -0.2750 -0.0109 -0.2826
 5769TIP3    H138942   3.898   0.127   8.503  0.0353 -2.8022  0.8978
 5769TIP3    H238943   3.844   0.052   8.383 -0.9108  1.3147 -1.4371
 5770TIP3   OH238944   5.077   4.653   0.952 -0.3309 -0.4151  0.4460
 5770TIP3    H138945   5.038   4.719   0.895 -0.5607 -0.8629  0.0779
 5770TIP3    H238946   5.017   4.578   0.946  0.2114 -0.8517  0.4422
 5771TIP3   OH238947   4.334   0.239   2.456 -0.0303 -0.4527 -0.4224
 5771TIP3    H138948   4.312   0.323   2.416 -0.3260 -0.6420 -0.6648
 5771TIP3    H238949   4.281   0.235   2.536  2.6648  1.2009  1.5934
 5772TIP3   OH238950   0.967   0.954   1.899  0.0766  0.8462 -0.2519
 5772TIP3    H138951   0.892   0.968   1.841 -0.5641 -0.9695  0.0706
 5772TIP3    H238952   0.989   0.862   1.887  0.5939  0.6922  1.6165
 5773TIP3   OH238953   3.182   6.395   8.189 -0.2992 -0.0422 -0.3420
 5773TIP3    H138954   3.209   6.359   8.274 -0.1353 -0.1659 -0.4453
 5773TIP3    H238955   3.167   6.318   8.134  0.4846  0.0464 -0.6959
 5774TIP3   OH238956   3.551   6.918   7.689 -0.5152  0.3005  0.3315
 5774TIP3    H138957   3.622   6.973   7.657  2.6457 -2.9318  1.0539
 5774TIP3    H238958   3.506   6.888   7.610 -1.0243  2.2431 -0.1609
 5775TIP3   OH238959   5.416   3.174   6.716 -1.0632  0.0176  0.7516
 5775TIP3    H138960   5.354   3.104   6.698 -1.0333  0.0337  0.5833
 5775TIP3    H238961   5.498   3.130   6.739 -0.1647 -0.0677 -2.1958
 5776TIP3   OH238962   0.847   3.136   1.228  0.0316  0.0401 -0.1359
 5776TIP3    H138963   0.760   3.150   1.265 -1.3653 -1.7996 -2.5013
 5776TIP3    H238964   0.874   3.051   1.263  0.5750  0.2576 -0.0135
 5777TIP3   OH238965   6.645   2.324   0.661 -0.2753 -0.0331  0.0432
 5777TIP3    H138966   6.728   2.369   0.646 -0.2445  0.2887  1.1115
 5777TIP3    H238967   6.668   2.232   0.668 -0.3876 -0.3490 -2.5808
 5778TIP3   OH238968   3.784   5.106   2.755  0.0170  0.8038  0.0621
 5778TIP3    H138969   3.812   5.172   2.692 -0.2990  0.5226 -0.3797
 5778TIP3    H238970   3.790   5.023   2.707  0.3458  0.5153  0.5900
 5779TIP3   OH238971   6.279   2.943   1.247 -0.6862  0.3660 -0.6422
 5779TIP3    H138972   6.288   3.038   1.253 -1.8758  0.3982  1.5411
 5779TIP3    H238973   6.203   2.930   1.189 -1.1115  0.7957 -0.1880
 5780TIP3   OH238974   4.270   3.507   2.362 -0.1158 -1.0489 -0.5103
 5780TIP3    H138975   4.177   3.525   2.346 -0.2052 -0.3013  0.6774
 5780TIP3    H238976   4.285   3.539   2.451  1.3970 -0.6984 -0.8656
 5781TIP3   OH238977   2.613   6.124   7.936 -0.1611  0.3182 -0.2258
 5781TIP3    H138978   2.696   6.107   7.980 -0.4416 -0.5900 -0.0123
 5781TIP3    H238979   2.579   6.204   7.977 -0.2827 -0.3467  1.0399
 5782TIP3   OH238980   0.587   0.609   1.106 -0.3144  0.5335 -0.3024
 5782TIP3    H138981   0.506   0.638   1.149 -0.5227  0.3601 -0.5744
 5782TIP3    H238982   0.558   0.573   1.022  0.1976  2.0923 -1.1934
 5783TIP3   OH238983   4.612   0.389   2.326  0.3292  0.1481  0.1805
 5783TIP3    H138984   4.705   0.413   2.326  0.1548  0.9328  1.2753
 5783TIP3    H238985   4.577   0.433   2.404 -0.9101 -0.3329 -0.0923
 5784TIP3   OH238986   3.885   3.837   7.102  0.1068 -0.5287  0.1580
 5784TIP3    H138987   3.830   3.914   7.114 -2.0097 -1.4167 -2.6514
 5784TIP3    H238988   3.834   3.765   7.139  0.8361 -0.9531  0.3578
 5785TIP3   OH238989   4.203   4.809   2.215 -0.0761  0.3922  0.0411
 5785TIP3    H138990   4.246   4.877   2.267  2.1437  1.0877 -2.4685
 5785TIP3    H238991   4.266   4.737   2.212  0.2504  0.6785 -2.1832
 5786TIP3   OH238992   1.406   5.073   1.811  0.6485 -0.3073 -0.3054
 5786TIP3    H138993   1.426   5.162   1.841  2.0485 -0.4910 -0.6323
 5786TIP3    H238994   1.409   5.019   1.890  1.2290 -0.2872 -0.3108
 5787TIP3   OH238995   2.853   2.265   8.358  0.2830 -0.2292 -0.4754
 5787TIP3    H138996   2.767   2.273   8.319  0.1625  0.8764 -0.0167
 5787TIP3    H238997   2.839   2.210   8.435 -0.2777  0.9631  0.3078
 5788TIP3   OH238998   2.059   3.500   2.158 -0.5595  0.3697 -0.4894
 5788TIP3    H138999   2.014   3.519   2.240  1.0193  0.8273  0.3044
 5788TIP3    H239000   2.093   3.584   2.129  1.5923 -0.2447  0.0722
 5789TIP3   OH239001   6.681   6.292   8.044  0.2474  0.3391  0.0156
 5789TIP3    H139002   6.663   6.201   8.021 -0.6510  0.5035  0.0432
 5789TIP3    H239003   6.765   6.289   8.090  0.6291 -0.3674 -0.7044
 5790TIP3   OH239004   4.633   0.026   0.207 -0.4762 -0.2403 -0.2748
 5790TIP3    H139005   4.694   0.091   0.171 -0.8679 -0.1014 -0.6854
 5790TIP3    H239006   4.655  -0.055   0.161  1.2358 -0.8688  1.4972
 5791TIP3   OH239007   4.511   4.318   0.880  0.1333 -0.0377 -0.4733
 5791TIP3    H139008   4.557   4.245   0.921 -0.5276  0.5264  1.3674
 5791TIP3    H239009   4.534   4.394   0.934 -0.8829  0.7177 -1.0629
 5792TIP3   OH239010   1.603   4.733   8.530  0.1218  0.0198 -0.2849
 5792TIP3    H139011   1.534   4.794   8.558  0.3508  0.7307 -1.1934
 5792TIP3    H239012   1.664   4.731   8.603  0.0802  0.8529 -0.2084
 5793TIP3   OH239013   0.988   1.354   8.158 -0.0648 -0.0228 -0.4370
 5793TIP3    H139014   0.929   1.279   8.147  1.0670 -0.7585 -1.7775
 5793TIP3    H239015   1.062   1.319   8.208  0.2873  0.2987 -0.7263
 5794TIP3   OH239016   2.450   5.962   8.268 -0.2972  0.5573  0.0675
 5794TIP3    H139017   2.456   6.006   8.353  1.9823  1.6153 -0.5421
 5794TIP3    H239018   2.501   5.882   8.279 -1.8437 -0.4359  0.2794
 5795TIP3   OH239019   1.165   5.569   1.335  0.1282 -0.7158 -0.1401
 5795TIP3    H139020   1.200   5.481   1.322  2.1884 -0.1483  1.0974
 5795TIP3    H239021   1.188   5.617   1.255 -0.1795 -1.0326 -0.4235
 5796TIP3   OH239022   1.503   2.829   7.121 -0.6235 -0.0989  0.3297
 5796TIP3    H139023   1.581   2.826   7.066 -0.3221  0.3648  0.7304
 5796TIP3    H239024   1.451   2.901   7.085 -0.7117 -0.1872  0.2776
 5797TIP3   OH239025   1.658   3.652   8.188 -0.0361  0.4567  0.2517
 5797TIP3    H139026   1.721   3.596   8.231 -1.6736 -0.9200  0.9802
 5797TIP3    H239027   1.660   3.734   8.238 -0.4554 -0.4054  1.7410
 5798TIP3   OH239028   2.422   3.873   0.714 -0.6128  0.3583  0.1128
 5798TIP3    H139029   2.430   3.831   0.800 -0.7106  0.6029  0.2425
 5798TIP3    H239030   2.398   3.964   0.734 -0.3756  0.4830 -0.1651
 5799TIP3   OH239031   5.683   1.392   8.070  0.0556 -0.0736  0.0398
 5799TIP3    H139032   5.593   1.391   8.101  0.3748  1.2957  1.0953
 5799TIP3    H239033   5.728   1.326   8.123 -0.5101 -1.5166 -1.2060
 5800TIP3   OH239034   0.212   5.045   1.279 -0.0630  0.1493  0.1913
 5800TIP3    H139035   0.288   5.047   1.222  0.3345  0.5205  0.7195
 5800TIP3    H239036   0.246   5.069   1.366 -0.8277  0.6352  0.3736
 5801TIP3   OH239037   5.982   0.165   0.832  0.3838 -0.7767  0.7551
 5801TIP3    H139038   6.009   0.074   0.831 -0.2717 -0.9827 -0.5038
 5801TIP3    H239039   5.973   0.187   0.925  2.0905 -1.5045  1.1254
 5802TIP3   OH239040   1.207   0.411   6.787 -0.1718  0.3107 -0.3220
 5802TIP3    H139041   1.261   0.464   6.728  1.7220  0.2274  1.2294
 5802TIP3    H239042   1.250   0.325   6.789 -0.7802  0.0089  0.4289
 5803TIP3   OH239043   4.141   3.817   8.243 -0.3199 -0.0431  0.5593
 5803TIP3    H139044   4.068   3.756   8.258 -0.0982 -0.2446  0.8237
 5803TIP3    H239045   4.207   3.791   8.307  0.3140 -0.3781 -0.2183
 5804TIP3   OH239046   4.039   5.626   2.332 -0.1491  0.4142 -1.3428
 5804TIP3    H139047   4.043   5.680   2.253  1.0682  0.1900 -1.4542
 5804TIP3    H239048   4.000   5.682   2.398  2.0176  1.8226 -1.1656
 5805TIP3   OH239049   5.891   4.160   8.268  0.3253  0.0894 -0.2502
 5805TIP3    H139050   5.886   4.160   8.363 -0.6237 -1.2693 -0.2674
 5805TIP3    H239051   5.854   4.244   8.242  0.3651  0.3678  0.5680
 5806TIP3   OH239052   4.689   3.296   0.522 -0.0977 -0.0997  0.2806
 5806TIP3    H139053   4.752   3.368   0.517  0.6526 -0.8004 -1.1641
 5806TIP3    H239054   4.647   3.306   0.607  0.9071  1.2750  0.6470
 5807TIP3   OH239055   2.484   3.492   7.618 -0.1177  0.0257  0.6272
 5807TIP3    H139056   2.462   3.399   7.625  1.4734 -0.4405 -0.1400
 5807TIP3    H239057   2.510   3.518   7.706 -1.9697  0.1607  1.1784
 5808TIP3   OH239058   5.948   4.119   2.667  0.9830 -0.4360  0.2836
 5808TIP3    H139059   6.042   4.100   2.670  1.3756  0.3446 -2.9672
 5808TIP3    H239060   5.941   4.195   2.609 -1.5973  0.4398  1.5669
 5809TIP3   OH239061   4.269   6.224   7.921 -0.3534 -0.2950  0.4325
 5809TIP3    H139062   4.249   6.205   8.013  0.8412 -1.1386  0.5470
 5809TIP3    H239063   4.346   6.281   7.925 -0.9093  0.4931 -0.0314
 5810TIP3   OH239064   5.026   0.833   7.449 -0.3585  0.5096  0.1316
 5810TIP3    H139065   5.093   0.890   7.488 -0.3801  0.1670  0.6727
 5810TIP3    H239066   4.986   0.887   7.381 -0.1670  1.0395  0.4330
 5811TIP3   OH239067   1.710   3.421   1.761 -0.0714 -0.4934  0.2346
 5811TIP3    H139068   1.617   3.417   1.738 -0.9321 -0.6351  3.2665
 5811TIP3    H239069   1.723   3.509   1.795  0.0748 -1.3201  2.5481
 5812TIP3   OH239070   3.445   5.388   2.601  0.2090  0.6971  0.3655
 5812TIP3    H139071   3.386   5.318   2.629 -0.2154  1.0614  0.3953
 5812TIP3    H239072   3.469   5.366   2.511  0.0968  0.5018  0.3849
 5813TIP3   OH239073   3.804   2.915   1.475 -0.4834  0.1251 -0.2245
 5813TIP3    H139074   3.799   2.830   1.431  0.6750  0.7467 -1.6547
 5813TIP3    H239075   3.786   2.979   1.406 -0.8223  1.0747  0.7149
 5814TIP3   OH239076   2.036   5.959   7.483 -0.3368  0.3205 -0.2852
 5814TIP3    H139077   2.062   5.948   7.392 -0.0503  2.2694 -0.4805
 5814TIP3    H239078   1.958   6.015   7.479 -0.9617 -0.4534  0.6296
 5815TIP3   OH239079   2.837   3.820   7.094  0.0687  0.5849 -0.1274
 5815TIP3    H139080   2.873   3.895   7.046  1.0507  0.6473  0.6636
 5815TIP3    H239081   2.817   3.755   7.027  2.5542  0.1933 -0.5798
 5816TIP3   OH239082   6.503   3.653   2.106 -0.4114 -0.2930  0.6815
 5816TIP3    H139083   6.589   3.673   2.069 -0.8230 -0.7394 -0.5835
 5816TIP3    H239084   6.510   3.563   2.138 -0.6289 -0.6103 -0.1465
 5817TIP3   OH239085   2.292   3.467   7.211 -0.6134  0.8548  0.0699
 5817TIP3    H139086   2.252   3.409   7.275  0.7541  1.0485  1.1428
 5817TIP3    H239087   2.222   3.485   7.148 -1.2378 -1.5013 -0.0055
 5818TIP3   OH239088   6.310   4.272   2.028  0.0030  0.3279  0.1900
 5818TIP3    H139089   6.293   4.208   1.959 -1.5005 -0.7250  1.4660
 5818TIP3    H239090   6.361   4.223   2.093 -0.7895  0.5382  0.9829
 5819TIP3   OH239091   2.099   4.787   0.152 -0.0241  0.3888  0.1603
 5819TIP3    H139092   2.150   4.865   0.135  1.0630 -0.5054 -0.8812
 5819TIP3    H239093   2.144   4.718   0.103 -1.8321 -0.5800 -0.2261
 5820TIP3   OH239094   6.132   3.205   7.334 -0.1775 -0.5746 -0.8608
 5820TIP3    H139095   6.163   3.137   7.393  0.2437 -0.3245 -0.7829
 5820TIP3    H239096   6.091   3.158   7.262  0.0117 -0.9063 -0.7550
 5821TIP3   OH239097   2.725   5.926   0.122 -0.2328 -0.1246  0.4003
 5821TIP3    H139098   2.644   5.927   0.172  0.4599  0.5057  1.5500
 5821TIP3    H239099   2.766   6.011   0.140  0.8459 -0.5595  0.1134
 5822TIP3   OH239100   6.093   5.802   0.271 -0.2157  0.5301 -0.1626
 5822TIP3    H139101   6.024   5.854   0.311  1.1172  0.6017  2.2156
 5822TIP3    H239102   6.146   5.770   0.345  2.5646  0.8624 -1.8517
 5823TIP3   OH239103   2.325   0.561   7.551  0.0668 -1.1065  0.0866
 5823TIP3    H139104   2.388   0.577   7.481 -0.7116 -1.1527 -0.6374
 5823TIP3    H239105   2.323   0.643   7.600 -0.4040 -0.5808 -0.7848
 5824TIP3   OH239106   5.869   4.452   2.015  0.8942  0.1710  0.4436
 5824TIP3    H139107   5.929   4.518   1.980  2.0500 -0.3533  1.3611
 5824TIP3    H239108   5.834   4.409   1.937  1.3046  0.8403 -0.1324
 5825TIP3   OH239109   6.043   5.763   1.620  0.5262 -0.7053  0.4818
 5825TIP3    H139110   6.033   5.791   1.711 -3.0143  1.3206 -0.3460
 5825TIP3    H239111   6.061   5.844   1.572  1.5591 -1.6312 -0.7559
 5826TIP3   OH239112   2.989   2.085   1.212 -0.1506  0.4592  0.0645
 5826TIP3    H139113   2.957   2.113   1.297 -0.3162 -0.0848  0.1882
 5826TIP3    H239114   2.943   2.140   1.149 -2.8398 -1.5146  0.1191
 5827TIP3   OH239115   1.976   5.342   1.801 -0.1677 -0.0885  0.8436
 5827TIP3    H139116   2.033   5.299   1.864 -0.1994 -1.7495 -0.2102
 5827TIP3    H239117   1.947   5.272   1.742  0.5941  1.5038 -1.5853
 5828TIP3   OH239118   2.309   2.756   2.181  0.0012  0.0112 -0.0765
 5828TIP3    H139119   2.379   2.820   2.199  0.1754  0.0346 -0.7928
 5828TIP3    H239120   2.356   2.677   2.153 -0.2364 -0.2431  0.2359
 5829TIP3   OH239121   3.461   1.706   0.934  0.0017 -0.3725 -0.2591
 5829TIP3    H139122   3.433   1.710   1.025  0.4384  0.4462 -0.1551
 5829TIP3    H239123   3.379   1.700   0.884 -0.2478 -0.4847  0.1589
 5830TIP3   OH239124   3.804   0.555   8.376  0.4847 -0.0749  0.4334
 5830TIP3    H139125   3.792   0.650   8.376  0.8332 -0.0284  1.3360
 5830TIP3    H239126   3.888   0.541   8.419  0.6751 -0.7713 -0.1479
 5831TIP3   OH239127   6.867   6.768   0.916  0.0699  0.4098 -0.4213
 5831TIP3    H139128   6.833   6.713   0.988 -2.9662  0.4242 -1.6820
 5831TIP3    H239129   6.934   6.822   0.957 -0.8514 -0.2684  2.1854
 5832TIP3   OH239130   6.727   3.853   8.445  0.1618 -0.4192 -0.7447
 5832TIP3    H139131   6.782   3.782   8.476 -0.0509  0.2753  1.3575
 5832TIP3    H239132   6.775   3.890   8.371  1.1468 -1.5505 -0.7066
 5833TIP3   OH239133   1.030   1.729   0.073 -0.5934  0.3577  0.5005
 5833TIP3    H139134   0.980   1.649   0.093 -1.2750  0.3078 -1.1978
 5833TIP3    H239135   1.022   1.738  -0.022 -0.1244  2.1981  0.6083
 5834TIP3   OH239136   3.191   5.845   2.036 -0.2494  0.3666 -0.4460
 5834TIP3    H139137   3.240   5.830   2.116 -0.5017  1.5003 -0.0684
 5834TIP3    H239138   3.226   5.926   2.000 -1.2065  0.7122 -0.6445
 5835TIP3   OH239139   4.353   4.036   0.787 -0.1010  0.1093 -0.5006
 5835TIP3    H139140   4.314   3.997   0.865 -2.0283  0.0647 -1.4302
 5835TIP3    H239141   4.348   3.968   0.720  1.8448  0.0285 -0.6441
 5836TIP3   OH239142   4.347   5.364   2.204 -0.5267  0.5252 -0.0766
 5836TIP3    H139143   4.368   5.448   2.245 -0.8107  0.5361  0.0484
 5836TIP3    H239144   4.251   5.361   2.202 -0.5626  1.2872 -2.3263
 5837TIP3   OH239145   1.198   6.733   2.928  0.5784  0.1047  0.5570
 5837TIP3    H139146   1.152   6.671   2.985  1.7405 -0.2836  1.0968
 5837TIP3    H239147   1.155   6.817   2.946 -0.5294 -0.3959  0.3533
 5838TIP3   OH239148   4.284   6.681   0.571  0.1574  0.1976 -0.0596
 5838TIP3    H139149   4.298   6.771   0.541  1.1602  0.9223  2.4054
 5838TIP3    H239150   4.312   6.627   0.497  1.3444  1.8817 -0.9078
 5839TIP3   OH239151   2.469   1.777   0.822  0.1181  0.4106 -0.4436
 5839TIP3    H139152   2.435   1.804   0.908  0.3938 -2.2859  0.6143
 5839TIP3    H239153   2.524   1.849   0.794  1.3946  0.7263  2.4906
 5840TIP3   OH239154   4.419   4.640   0.939  0.0593  0.0595  0.1562
 5840TIP3    H139155   4.474   4.618   1.013 -1.2936  1.1044  1.5277
 5840TIP3    H239156   4.407   4.735   0.945 -0.1590  0.1537 -1.3487
 5841TIP3   OH239157   0.922   3.247   2.329  0.3898  0.5447  0.0219
 5841TIP3    H139158   0.916   3.227   2.422  0.6712  3.3029  0.7065
 5841TIP3    H239159   1.015   3.233   2.307  0.1589 -0.9607 -0.1178
 5842TIP3   OH239160   4.930   1.766   1.561  0.1526 -0.3225  0.3564
 5842TIP3    H139161   4.860   1.828   1.583  1.7923  1.8064 -0.1716
 5842TIP3    H239162   4.967   1.741   1.646  0.5660  0.7753  0.5169
 5843TIP3   OH239163   6.466   4.899   7.293  0.1715  0.0473 -0.1361
 5843TIP3    H139164   6.558   4.877   7.306  0.4618  1.1160 -0.2500
 5843TIP3    H239165   6.458   4.912   7.199  0.0559  0.5679 -0.0569
 5844TIP3   OH239166   3.995   5.095   7.372  0.5149  0.2108  0.4068
 5844TIP3    H139167   4.088   5.082   7.352  0.6594  0.6823  0.7430
 5844TIP3    H239168   3.995   5.161   7.442 -0.0673  0.1237  0.4921
 5845TIP3   OH239169   2.836   2.470   2.393  0.2922  0.2298 -0.0318
 5845TIP3    H139170   2.867   2.560   2.404 -0.2703  0.3782  0.3803
 5845TIP3    H239171   2.811   2.443   2.482 -1.6135  0.4319 -0.4561
 5846TIP3   OH239172   1.302   0.033   7.459  0.5281  0.2508  0.1671
 5846TIP3    H139173   1.263   0.114   7.492 -1.4545 -0.5920  0.0605
 5846TIP3    H239174   1.301  -0.026   7.534  0.3291 -0.2098 -0.1942
 5847TIP3   OH239175   2.270   5.028   8.220  0.1824  0.1818 -0.1858
 5847TIP3    H139176   2.323   4.948   8.217  0.8529  0.5873  0.5376
 5847TIP3    H239177   2.317   5.090   8.165  0.8891  0.7784  1.0512
 5848TIP3   OH239178   4.110   2.437   7.206 -0.3066 -0.5945 -0.2444
 5848TIP3    H139179   4.196   2.476   7.223  0.3133 -1.5481 -1.0899
 5848TIP3    H239180   4.129   2.350   7.173 -1.6146 -0.8899 -0.2787
 5849TIP3   OH239181   4.703   4.448   1.732  0.2181 -0.0064 -0.1660
 5849TIP3    H139182   4.612   4.434   1.706  0.0899 -2.9357  1.5030
 5849TIP3    H239183   4.699   4.471   1.825  1.1638  0.8213 -0.3071
 5850TIP3   OH239184   1.787   1.482   2.011 -0.4796 -0.0936 -0.0759
 5850TIP3    H139185   1.747   1.566   2.035 -1.0633 -0.5427  0.5716
 5850TIP3    H239186   1.813   1.443   2.095  0.1052 -0.4047 -0.3993
 5851TIP3   OH239187   5.919   1.086   1.987 -0.0305  0.6471 -0.0865
 5851TIP3    H139188   5.984   1.082   2.057 -1.0984  0.4807  0.9291
 5851TIP3    H239189   5.970   1.081   1.907  1.2053  0.4940  0.6793
 5852TIP3   OH239190   4.484   0.482   2.541  0.2391  0.1802  0.4314
 5852TIP3    H139191   4.442   0.564   2.516  0.7838 -0.3337 -2.4875
 5852TIP3    H239192   4.499   0.491   2.635 -3.6191  1.5957  1.1145
 5853TIP3   OH239193   6.513   4.152   7.966 -0.4670 -0.2322 -0.1136
 5853TIP3    H139194   6.509   4.061   7.994  0.4340  0.1911  1.5112
 5853TIP3    H239195   6.441   4.161   7.904 -0.1855 -2.1924 -0.7801
 5854TIP3   OH239196   2.727   6.446   2.965  0.0325 -0.0464 -0.6011
 5854TIP3    H139197   2.712   6.521   3.023  0.3209  0.2870 -0.9440
 5854TIP3    H239198   2.814   6.461   2.929  0.2457 -0.7472 -0.3928
 5855TIP3   OH239199   3.943   0.084   1.851 -0.6601 -0.0786 -0.1021
 5855TIP3    H139200   3.933   0.098   1.945 -1.1372 -1.5350  0.0835
 5855TIP3    H239201   3.926  -0.009   1.838  0.2506 -0.0781 -1.5241
 5856TIP3   OH239202   5.299   2.587   1.122 -0.0107  0.2741 -0.4272
 5856TIP3    H139203   5.248   2.579   1.203  0.5173  0.0996 -0.1044
 5856TIP3    H239204   5.234   2.602   1.054 -0.4242  0.9118  0.0985
 5857TIP3   OH239205   4.184   0.076   0.796  0.4126  0.0138 -0.1074
 5857TIP3    H139206   4.170   0.141   0.865 -1.3727 -0.3116 -0.1259
 5857TIP3    H239207   4.187   0.128   0.715 -0.8088  0.1082 -0.1029
 5858TIP3   OH239208   5.769   5.218   7.492  0.3373  0.7592  0.1884
 5858TIP3    H139209   5.739   5.135   7.528 -1.7374  1.4180  0.1523
 5858TIP3    H239210   5.832   5.251   7.555  0.7485 -0.5675  0.4901
 5859TIP3   OH239211   5.970   3.635   7.091  0.7010 -0.1811  0.0277
 5859TIP3    H139212   6.024   3.613   7.015  0.6020  0.7008 -0.3064
 5859TIP3    H239213   5.883   3.652   7.055  0.4211 -0.6817  0.4533
 5860TIP3   OH239214   3.843   3.193   7.977  0.3794  0.0320 -0.0439
 5860TIP3    H139215   3.844   3.120   8.040  0.0083  1.0005  1.1277
 5860TIP3    H239216   3.932   3.197   7.944  0.8309  0.0803  1.1328
 5861TIP3   OH239217   0.068   5.000   0.644 -0.4509  0.1550 -0.2040
 5861TIP3    H139218   0.089   4.943   0.570 -2.7088 -1.3041  0.1560
 5861TIP3    H239219   0.149   5.005   0.694  0.0088 -2.3440 -0.5620
 5862TIP3   OH239220   3.416   6.116   1.173 -0.1291  0.5469 -0.8311
 5862TIP3    H139221   3.359   6.059   1.123  0.5923 -0.9018 -0.0562
 5862TIP3    H239222   3.371   6.129   1.257  0.7102 -0.7196 -0.1618
 5863TIP3   OH239223   4.912   0.828   2.855  0.2004 -0.1136 -0.1502
 5863TIP3    H139224   4.923   0.743   2.896  0.2576  0.6771  1.5652
 5863TIP3    H239225   4.961   0.822   2.773  2.3669 -0.9081  1.1290
 5864TIP3   OH239226   4.990   0.318   7.087  0.2798  0.0460 -0.2488
 5864TIP3    H139227   4.964   0.405   7.116 -0.9442 -0.3664 -0.0417
 5864TIP3    H239228   4.953   0.259   7.152  2.1323 -0.5748  0.2791
 5865TIP3   OH239229   1.570   0.400   7.181  0.2544 -0.1947  0.1711
 5865TIP3    H139230   1.551   0.322   7.128  1.5375  0.0016 -0.6171
 5865TIP3    H239231   1.640   0.445   7.133 -1.0203  1.9024  0.1473
 5866TIP3   OH239232   0.230   0.911   1.246  0.6203 -0.1498  0.1819
 5866TIP3    H139233   0.212   1.003   1.260 -0.5489 -0.4816  0.9356
 5866TIP3    H239234   0.144   0.870   1.235  1.1113 -1.1700 -0.0519
 5867TIP3   OH239235   3.054   4.768   7.410  0.0626  0.0836  0.0694
 5867TIP3    H139236   3.010   4.711   7.347 -1.5882 -1.1369  2.1877
 5867TIP3    H239237   2.994   4.842   7.422  1.2298  1.2677 -1.1084
 5868TIP3   OH239238   4.855   0.416   7.419  0.3592 -0.3281 -0.4944
 5868TIP3    H139239   4.949   0.415   7.434  0.3016  1.6251  0.3798
 5868TIP3    H239240   4.827   0.503   7.448 -1.5200 -0.3566 -1.9739
 5869TIP3   OH239241   5.367   0.144   7.549  0.0578 -0.6204  0.3980
 5869TIP3    H139242   5.280   0.110   7.569 -0.9997  0.8994 -1.2692
 5869TIP3    H239243   5.350   0.220   7.493  2.4374  0.2583  0.7700
 5870TIP3   OH239244   6.388   0.330   7.366 -1.1523  0.6266  0.0823
 5870TIP3    H139245   6.329   0.392   7.324 -0.3550  1.0627 -0.4351
 5870TIP3    H239246   6.433   0.381   7.433  0.2052  0.9009 -0.9803
 5871TIP3   OH239247   2.819   6.241   1.458  0.0972 -0.5275  0.4187
 5871TIP3    H139248   2.848   6.158   1.496  1.6602 -0.8646 -1.3965
 5871TIP3    H239249   2.734   6.221   1.418  1.0550 -1.6624 -1.1685
 5872TIP3   OH239250   0.923   2.482   6.977 -0.4238  0.3094  0.2357
 5872TIP3    H139251   0.986   2.426   6.931 -0.4051  0.4480  0.0942
 5872TIP3    H239252   0.844   2.479   6.923 -0.2058  0.9582 -0.1275
 5873TIP3   OH239253   3.772   0.911   1.232 -0.0419  0.1675  0.0153
 5873TIP3    H139254   3.811   0.866   1.307 -1.9385 -0.1655  0.8708
 5873TIP3    H239255   3.724   0.985   1.270  0.2013  0.8856 -1.0351
 5874TIP3   OH239256   3.261   6.719   2.905  0.0346  0.2213  1.2097
 5874TIP3    H139257   3.273   6.804   2.947 -1.0497 -0.6520  3.4617
 5874TIP3    H239258   3.173   6.692   2.930 -1.1361 -0.0037 -2.5468
 5875TIP3   OH239259   4.803   2.368   7.264  0.3089  0.1645  0.3908
 5875TIP3    H139260   4.736   2.316   7.221  0.1384  0.1561  0.6625
 5875TIP3    H239261   4.866   2.304   7.297 -0.8441 -0.0350  2.3553
 5876TIP3   OH239262   2.882   5.316   1.461 -0.0839 -0.7146 -0.6212
 5876TIP3    H139263   2.797   5.331   1.503  1.0372  1.2527  1.1297
 5876TIP3    H239264   2.907   5.228   1.488 -0.3789 -0.3005  1.1085
 5877TIP3   OH239265   1.745   1.627   7.017  0.0751 -0.1495  0.0012
 5877TIP3    H139266   1.664   1.639   6.968 -1.0904  0.8480  2.0616
 5877TIP3    H239267   1.746   1.535   7.041 -0.2756 -0.2342 -0.3071
 5878TIP3   OH239268   4.709   6.563   7.938  0.4435 -0.4274  0.3327
 5878TIP3    H139269   4.771   6.517   7.995 -0.0419 -0.9200  0.4750
 5878TIP3    H239270   4.684   6.641   7.987  0.7887 -0.3335  0.3629
 5879TIP3   OH239271   1.943   2.713   0.051 -0.3377 -0.6062  0.4130
 5879TIP3    H139272   1.914   2.730  -0.039  0.0767 -0.6860  0.2605
 5879TIP3    H239273   1.876   2.655   0.087 -0.3243 -0.8634  0.0383
 5880TIP3   OH239274   5.871   5.060   0.333 -0.0618 -0.8457  0.5186
 5880TIP3    H139275   5.949   5.053   0.388  1.2967  2.0202 -0.8594
 5880TIP3    H239276   5.835   5.146   0.353 -1.9898 -1.4508 -0.0937
 5881TIP3   OH239277   0.576   1.323   1.748  0.2705 -0.2587  0.5678
 5881TIP3    H139278   0.615   1.383   1.685 -1.8796  0.6613  0.0334
 5881TIP3    H239279   0.637   1.249   1.751  0.6468 -0.1753 -2.3114
 5882TIP3   OH239280   6.415   6.459   2.984  0.6160  0.1127 -0.0930
 5882TIP3    H139281   6.379   6.544   3.010 -0.1683 -0.1188 -0.3810
 5882TIP3    H239282   6.496   6.451   3.034  0.2473  0.6420  0.6076
 5883TIP3   OH239283   5.298   4.798   7.474 -0.1627  0.7972 -0.2556
 5883TIP3    H139284   5.207   4.819   7.495 -0.2156 -0.3588  0.7489
 5883TIP3    H239285   5.320   4.857   7.402 -1.6033  1.3074 -0.3040
 5884TIP3   OH239286   4.100   5.678   7.553  0.3790 -0.0776  0.4197
 5884TIP3    H139287   4.020   5.635   7.585 -0.7389  1.2922 -0.4013
 5884TIP3    H239288   4.113   5.642   7.466  1.6879 -1.5656  1.1803
 5885TIP3   OH239289   3.590   0.294   2.595  0.3725 -0.4783  0.4494
 5885TIP3    H139290   3.529   0.318   2.525  0.5510  0.0021  0.4496
 5885TIP3    H239291   3.646   0.227   2.556 -0.2191 -0.9980  0.4833
 5886TIP3   OH239292   5.586   0.803   1.052  0.3323 -0.2718  0.2241
 5886TIP3    H139293   5.630   0.819   0.968  0.1293  0.8290  0.3184
 5886TIP3    H239294   5.652   0.759   1.105  0.6842 -0.3747 -0.2854
 5887TIP3   OH239295   2.381   0.151   1.009 -0.0033  0.4743 -0.0600
 5887TIP3    H139296   2.419   0.076   1.054 -1.1114  0.2096  0.4601
 5887TIP3    H239297   2.289   0.152   1.036 -0.0044  2.0460 -0.0311
 5888TIP3   OH239298   4.292   5.926   8.332  0.2971 -0.2632  0.0281
 5888TIP3    H139299   4.249   5.972   8.260 -0.0802  0.6323  0.8178
 5888TIP3    H239300   4.240   5.947   8.409 -0.3204 -2.5709  0.3272
 5889TIP3   OH239301   6.128   0.859   2.270  0.1831 -0.0781 -0.1309
 5889TIP3    H139302   6.069   0.802   2.221 -1.8527 -0.0331  2.0555
 5889TIP3    H239303   6.129   0.941   2.221  0.2590 -0.8308 -1.4115
 5890TIP3   OH239304   3.807   6.293   0.257 -0.1063 -0.0839  0.5795
 5890TIP3    H139305   3.877   6.333   0.205 -0.0874 -0.0047  0.6676
 5890TIP3    H239306   3.748   6.255   0.191  0.4891 -0.9461  0.5240
 5891TIP3   OH239307   0.126   4.813   7.356 -0.3702  0.1021  1.2099
 5891TIP3    H139308   0.038   4.836   7.386 -1.2387  0.3589 -1.2672
 5891TIP3    H239309   0.119   4.720   7.333 -1.0858  0.8132 -2.0460
 5892TIP3   OH239310   1.984   4.605   1.287 -0.1742  0.4409  0.1996
 5892TIP3    H139311   1.892   4.596   1.312 -0.0845 -0.9629  0.1148
 5892TIP3    H239312   2.032   4.555   1.354  0.4190  0.1336 -0.4426
 5893TIP3   OH239313   6.510   0.427   6.798 -0.0518 -0.0364  0.1575
 5893TIP3    H139314   6.531   0.338   6.772  1.0897  0.0019  0.8760
 5893TIP3    H239315   6.595   0.470   6.808 -0.5056  0.5132  1.9520
 5894TIP3   OH239316   3.681   4.776   7.489  0.1645  0.0026  0.1049
 5894TIP3    H139317   3.631   4.762   7.409 -1.2464  0.4286  0.8815
 5894TIP3    H239318   3.685   4.690   7.531 -0.5721  0.0945  0.3866
 5895TIP3   OH239319   4.919   5.132   7.055 -0.2949  0.9391 -0.1418
 5895TIP3    H139320   4.905   5.179   7.137  0.4746  0.7829  0.0810
 5895TIP3    H239321   4.908   5.199   6.987 -2.0877  0.8404 -0.0060
 5896TIP3   OH239322   5.511   4.147   7.295  0.2294 -0.1242 -0.0138
 5896TIP3    H139323   5.457   4.069   7.290 -0.3481  0.1908  1.0202
 5896TIP3    H239324   5.532   4.168   7.204 -1.7216 -0.0287 -0.4899
 5897TIP3   OH239325   6.274   6.633   1.942  0.4265  0.1931 -0.0731
 5897TIP3    H139326   6.216   6.692   1.989  0.2606 -0.3138  0.3656
 5897TIP3    H239327   6.360   6.647   1.982  0.7738  1.4867 -1.2236
 5898TIP3   OH239328   0.077   0.943   2.870 -0.2024  0.0761  0.1398
 5898TIP3    H139329  -0.005   0.992   2.882 -0.3957 -0.3695  0.6564
 5898TIP3    H239330   0.127   0.959   2.950  0.1305  0.1758 -0.0860
 5899TIP3   OH239331   5.725   4.983   1.177  0.2607  0.4280 -0.0833
 5899TIP3    H139332   5.752   5.073   1.163  0.9929  0.2901  0.3593
 5899TIP3    H239333   5.632   4.981   1.154  0.4801  1.0558 -1.0627
 5900TIP3   OH239334   2.564   0.182   7.515 -0.0966 -0.8069 -0.0411
 5900TIP3    H139335   2.499   0.247   7.486 -1.1425 -2.2301 -1.0264
 5900TIP3    H239336   2.556   0.110   7.452  1.9933 -1.3320  0.2086
 5901TIP3   OH239337   2.705   3.618   1.009 -0.3694  0.0343  0.4709
 5901TIP3    H139338   2.641   3.548   0.993 -0.2789 -0.3746  1.8007
 5901TIP3    H239339   2.789   3.579   0.985 -0.6149  0.6644 -1.5476
 5902TIP3   OH239340   2.640   5.435   0.839  0.4652  0.6810 -0.4604
 5902TIP3    H139341   2.584   5.377   0.890  0.4327  1.2926  0.2104
 5902TIP3    H239342   2.709   5.377   0.804  1.4797  0.4951  1.6623
 5903TIP3   OH239343   4.843   6.656   8.209 -0.1400  0.5304 -0.5077
 5903TIP3    H139344   4.923   6.645   8.157 -0.6955 -1.6873 -1.0065
 5903TIP3    H239345   4.856   6.598   8.285 -0.7573  1.1233  0.0683
 5904TIP3   OH239346   2.893   5.827   5.953  0.6417 -0.3999  0.1274
 5904TIP3    H139347   2.964   5.887   5.975  1.0815 -0.7163 -0.4111
 5904TIP3    H239348   2.813   5.880   5.959  0.6482 -0.5273  2.9015
 5905TIP3   OH239349   0.816   3.830   0.994 -0.0828  0.5234 -0.1464
 5905TIP3    H139350   0.911   3.828   0.987 -0.0342  0.2118  0.5422
 5905TIP3    H239351   0.795   3.767   1.063 -0.7027  1.4776  0.5590
 5906TIP3   OH239352   1.313   1.271   6.835  0.0455  0.0797  0.2171
 5906TIP3    H139353   1.242   1.272   6.770 -1.1467 -1.5645  1.4228
 5906TIP3    H239354   1.315   1.360   6.870 -0.3368  0.5683 -0.9564
 5907TIP3   OH239355   2.746   3.153   0.441 -0.4138 -0.2750 -0.1637
 5907TIP3    H139356   2.767   3.191   0.527  0.5185 -2.7395  0.7738
 5907TIP3    H239357   2.658   3.117   0.453  0.9484 -3.6028  0.9858
 5908TIP3   OH239358   1.441   6.595   8.226  0.1570  0.0034  0.3178
 5908TIP3    H139359   1.498   6.664   8.260 -0.0538  1.7272 -2.4413
 5908TIP3    H239360   1.381   6.641   8.167 -2.5492 -2.0757  1.2444
 5909TIP3   OH239361   3.698   1.100   3.068 -0.6360 -0.2457  0.0727
 5909TIP3    H139362   3.706   1.070   3.158 -0.5361  2.8072  1.2127
 5909TIP3    H239363   3.764   1.051   3.020 -0.2198 -1.4652  1.7854
 5910TIP3   OH239364   6.219   6.547   7.813 -0.4893 -0.1778 -0.7498
 5910TIP3    H139365   6.231   6.557   7.719 -0.1899 -0.4108 -0.7367
 5910TIP3    H239366   6.289   6.488   7.840  0.2096  0.8967 -0.1704
 5911TIP3   OH239367   6.565   1.937   8.389  0.4345  0.2622 -0.3897
 5911TIP3    H139368   6.603   2.023   8.376 -1.7972  1.2660 -0.7603
 5911TIP3    H239369   6.621   1.896   8.455  1.2851  2.1685  0.1533
 5912TIP3   OH239370   3.392   3.836   7.992 -0.7761 -0.0766 -0.2944
 5912TIP3    H139371   3.401   3.924   7.955  0.2144 -0.1408 -0.2274
 5912TIP3    H239372   3.311   3.802   7.955 -1.5904  1.1579  0.2900
 5913TIP3   OH239373   2.662   4.604   0.396  0.6750 -0.3855 -0.0592
 5913TIP3    H139374   2.652   4.544   0.322 -1.1128 -1.8337  1.2523
 5913TIP3    H239375   2.752   4.589   0.427  1.4577  0.2792 -1.8977
 5914TIP3   OH239376   0.698   0.750   7.844  0.6555  0.1541 -0.2646
 5914TIP3    H139377   0.728   0.727   7.756  0.1947 -0.1037 -0.3539
 5914TIP3    H239378   0.615   0.703   7.855 -0.1106  1.4381 -0.3069
 5915TIP3   OH239379   5.731   3.851   1.095 -0.6983 -0.2888 -0.6299
 5915TIP3    H139380   5.680   3.807   1.027 -0.5335  0.5241 -1.2902
 5915TIP3    H239381   5.765   3.930   1.053  0.5914 -0.4909 -0.0174
 5916TIP3   OH239382   6.855   2.013   1.193 -0.2027 -0.3881 -0.1776
 5916TIP3    H139383   6.847   1.983   1.102 -1.0326 -0.8075  0.0191
 5916TIP3    H239384   6.832   2.106   1.189 -0.5241 -0.4726 -0.3558
 5917TIP3   OH239385   3.415   4.061   6.626  0.4949 -0.2181 -0.5872
 5917TIP3    H139386   3.449   4.136   6.577  2.0023 -0.3257  0.2320
 5917TIP3    H239387   3.481   3.993   6.614 -0.4790 -1.1797 -0.6727
 5918TIP3   OH239388   3.972   1.794   2.397 -0.7710 -0.4660 -0.6382
 5918TIP3    H139389   4.002   1.713   2.437 -0.7272 -0.9742 -1.6553
 5918TIP3    H239390   4.052   1.846   2.383 -0.8836  0.1083  0.7333
 5919TIP3   OH239391   1.014   4.730   0.224  0.7684 -0.0317  0.2495
 5919TIP3    H139392   1.054   4.651   0.187 -0.9280 -0.4775 -0.7156
 5919TIP3    H239393   0.945   4.698   0.282  0.3306  0.7305  0.1655
 5920TIP3   OH239394   0.574   6.038   0.461 -0.0444  0.2920  0.1366
 5920TIP3    H139395   0.546   6.020   0.550  0.8738  0.7063  0.5192
 5920TIP3    H239396   0.589   6.132   0.459 -0.1295  0.2979 -0.4799
 5921TIP3   OH239397   1.964   1.399   2.401 -0.3533  0.0803 -0.8982
 5921TIP3    H139398   2.056   1.372   2.398  0.5552  2.7771 -0.2888
 5921TIP3    H239399   1.920   1.328   2.448  1.5354 -0.9596 -0.6002
 5922TIP3   OH239400   4.400   4.891   0.324  0.2532 -0.1578 -0.0799
 5922TIP3    H139401   4.350   4.889   0.406  1.3372  0.6120  0.6180
 5922TIP3    H239402   4.489   4.914   0.350  0.3918  1.2072 -1.5758
 5923TIP3   OH239403   1.033   2.434   2.058 -0.2180  0.1305  0.4847
 5923TIP3    H139404   0.956   2.430   2.113 -0.1333  3.1618  0.9711
 5923TIP3    H239405   1.100   2.476   2.112  0.3152  1.8603 -1.3855
 5924TIP3   OH239406   2.245   2.891   1.839  1.1087  0.1928  0.3985
 5924TIP3    H139407   2.279   2.832   1.906  1.0420  0.8791  1.0542
 5924TIP3    H239408   2.316   2.953   1.823  1.3728 -0.3720 -0.6713
 5925TIP3   OH239409   4.015   6.498   2.729  0.0453  0.1967  0.3364
 5925TIP3    H139410   4.024   6.406   2.702 -0.7656 -0.5463  2.4204
 5925TIP3    H239411   4.098   6.519   2.771 -0.4537 -0.2133  1.5563
 5926TIP3   OH239412   4.028   3.565   7.508  0.2271 -0.0710  0.2888
 5926TIP3    H139413   4.110   3.586   7.464  0.9340 -1.0813  1.0859
 5926TIP3    H239414   4.041   3.477   7.544 -0.3664  0.6340  2.3843
 5927TIP3   OH239415   2.526   6.179   0.033 -0.6249 -0.1785  0.4215
 5927TIP3    H139416   2.560   6.181  -0.056  1.9739 -2.9650  1.1649
 5927TIP3    H239417   2.502   6.087   0.048 -1.5922  0.3248  2.3906
 5928TIP3   OH239418   3.566   0.979   2.173 -0.1312 -0.9666 -0.2494
 5928TIP3    H139419   3.492   0.972   2.114 -0.6945  0.8603  0.1737
 5928TIP3    H239420   3.641   0.997   2.116 -0.5193 -0.0615 -0.4860
 5929TIP3   OH239421   3.266   6.780   2.358  0.0027 -0.0243 -0.0239
 5929TIP3    H139422   3.250   6.713   2.292  1.1769  0.9291 -1.3469
 5929TIP3    H239423   3.341   6.747   2.407  0.0754 -0.0500 -0.1510
 5930TIP3   OH239424   6.775   3.751   7.468 -0.3838  0.0671 -0.4557
 5930TIP3    H139425   6.686   3.739   7.500  0.2635  0.4951  1.6435
 5930TIP3    H239426   6.831   3.716   7.537  1.1030  0.9108 -1.1815
 5931TIP3   OH239427   2.378   3.915   8.377 -0.0038  0.8511 -0.4609
 5931TIP3    H139428   2.413   3.974   8.444  0.0742  1.8846 -1.3834
 5931TIP3    H239429   2.456   3.888   8.327 -0.1057  0.3813 -0.3677
 5932TIP3   OH239430   2.176   0.852   3.376 -0.0388 -0.3997 -0.1558
 5932TIP3    H139431   2.261   0.814   3.351  0.2285  0.9889 -1.5158
 5932TIP3    H239432   2.199   0.935   3.418 -0.7226  0.1753 -0.8998
 5933TIP3   OH239433   4.690   3.494   1.251 -0.0912 -0.8390 -0.6111
 5933TIP3    H139434   4.732   3.573   1.284  1.2191 -0.6219 -2.6255
 5933TIP3    H239435   4.700   3.430   1.321  2.1848 -0.2963 -0.3696
 5934TIP3   OH239436   2.908   0.776   0.880 -0.1134  0.2345  0.0555
 5934TIP3    H139437   2.937   0.689   0.907 -0.4255  0.2130  0.3162
 5934TIP3    H239438   2.938   0.834   0.949 -1.1738  0.1385  0.6082
 5935TIP3   OH239439   4.357   2.369   0.403  0.5069 -0.6716 -0.2480
 5935TIP3    H139440   4.296   2.443   0.402  0.9797 -0.1097  2.6931
 5935TIP3    H239441   4.341   2.323   0.321 -1.3281  1.4694 -1.1892
 5936TIP3   OH239442   3.868   5.116   8.015 -0.4132 -0.1553 -0.0770
 5936TIP3    H139443   3.903   5.060   8.084 -0.6752  1.0493  1.0602
 5936TIP3    H239444   3.793   5.067   7.980  0.1292 -1.0734 -0.0010
 5937TIP3   OH239445   5.529   2.953   8.089 -0.0826  0.5017  0.1722
 5937TIP3    H139446   5.575   2.935   8.171 -0.3191 -0.9614  0.0075
 5937TIP3    H239447   5.588   3.009   8.040  1.5270 -1.2561 -0.0078
 5938TIP3   OH239448   0.900   3.635   1.539 -0.1940 -0.6635 -0.1285
 5938TIP3    H139449   0.911   3.540   1.538 -0.4403 -0.6897 -0.3014
 5938TIP3    H239450   0.876   3.658   1.450  0.3209 -0.3819 -0.2025
 5939TIP3   OH239451   2.153   2.172   1.927  0.0121 -0.1893 -0.7315
 5939TIP3    H139452   2.147   2.255   1.974  1.6393 -0.2562 -0.3393
 5939TIP3    H239453   2.104   2.186   1.846  0.6878  1.3262 -0.8991
 5940TIP3   OH239454   6.753   5.369   1.404 -0.0752 -0.1404 -0.8122
 5940TIP3    H139455   6.830   5.380   1.347  1.8423  0.2959  1.7067
 5940TIP3    H239456   6.788   5.330   1.484 -2.2942  1.1235  0.8744
 5941TIP3   OH239457   0.593   4.952   7.572 -0.4273  0.0821  1.3029
 5941TIP3    H139458   0.581   4.882   7.636 -0.7878 -0.6218  0.4930
 5941TIP3    H239459   0.514   4.949   7.518  0.6168 -0.4949 -0.2507
 5942TIP3   OH239460   2.896   2.209   7.540 -0.2261 -0.1956  0.2933
 5942TIP3    H139461   2.873   2.218   7.448  0.3825 -2.1966 -0.1015
 5942TIP3    H239462   2.912   2.116   7.552 -0.5537 -0.0330  2.4992
 5943TIP3   OH239463   6.476   4.645   1.249 -0.5457 -0.1322 -0.3140
 5943TIP3    H139464   6.466   4.717   1.187  0.0156 -0.8934 -1.3313
 5943TIP3    H239465   6.455   4.683   1.334 -0.8667  1.0650 -0.9030
 5944TIP3   OH239466   4.908   0.165   7.877 -0.8036  0.0182  0.4432
 5944TIP3    H139467   4.888   0.114   7.956  1.1561 -1.1955  0.2205
 5944TIP3    H239468   4.930   0.252   7.910 -0.7276 -0.2674  1.1654
 5945TIP3   OH239469   1.844   1.115   1.658  0.2817 -0.4452  0.7029
 5945TIP3    H139470   1.793   1.161   1.591 -0.0458 -1.4773  0.2338
 5945TIP3    H239471   1.892   1.185   1.703  0.2357  0.3006 -0.3700
 5946TIP3   OH239472   5.755   2.262   1.984  0.1468  0.2412  0.0585
 5946TIP3    H139473   5.801   2.233   1.906 -0.1083  1.4051 -0.5480
 5946TIP3    H239474   5.760   2.188   2.044  2.5557  0.2198 -0.0867
 5947TIP3   OH239475   4.723   1.635   8.014  0.4306  0.0849  0.0339
 5947TIP3    H139476   4.675   1.553   8.005  1.2718 -0.5630  1.1804
 5947TIP3    H239477   4.714   1.657   8.107 -0.8165  1.9657 -0.4696
 5948TIP3   OH239478   3.329   6.144   1.725 -0.4496  0.3240 -0.2873
 5948TIP3    H139479   3.361   6.232   1.708 -0.1072  0.2690  0.0461
 5948TIP3    H239480   3.253   6.157   1.782 -0.3589  0.4037 -0.1834
 5949TIP3   OH239481   4.067   0.725   1.871 -0.2869  0.0548  0.2215
 5949TIP3    H139482   4.022   0.800   1.831  0.1887  0.5438  0.5731
 5949TIP3    H239483   4.159   0.752   1.874 -0.1381 -0.4717  0.5170
 5950TIP3   OH239484   4.351   2.247   1.539  0.0915  0.9257  0.4220
 5950TIP3    H139485   4.343   2.189   1.615  1.1079 -2.6601 -1.9495
 5950TIP3    H239486   4.407   2.318   1.569  1.3864 -0.9321  2.7520
 5951TIP3   OH239487   1.422   0.146   7.234  0.4533  0.7357 -0.1337
 5951TIP3    H139488   1.347   0.161   7.177 -0.8980  2.0575  1.8939
 5951TIP3    H239489   1.387   0.102   7.310  1.9732  0.2265  0.3142
 5952TIP3   OH239490   1.005   0.111   2.500 -0.8199  0.1173 -0.8625
 5952TIP3    H139491   1.011   0.041   2.566 -2.4361  2.7642  2.4127
 5952TIP3    H239492   1.084   0.164   2.516 -1.7681  1.3767 -0.2082
 5953TIP3   OH239493   1.643   5.574   2.420 -0.1895 -0.1420  0.6299
 5953TIP3    H139494   1.725   5.552   2.463  0.5330 -0.5162 -0.8845
 5953TIP3    H239495   1.599   5.634   2.480  2.1885  1.8560  0.5034
 5954TIP3   OH239496   4.412   5.623   2.489  0.0654 -0.7970 -0.7269
 5954TIP3    H139497   4.416   5.630   2.584 -1.6055  1.0507 -0.7241
 5954TIP3    H239498   4.504   5.619   2.461  0.6371  0.4062  0.8552
 5955TIP3   OH239499   2.935   6.372   8.342  0.3294 -0.2385  0.5209
 5955TIP3    H139500   3.002   6.387   8.408  0.7194  0.0820  0.0661
 5955TIP3    H239501   2.975   6.403   8.260 -0.9464  1.4957  0.4764
 5956TIP3   OH239502   4.700   1.976   8.455  0.0913  0.2541 -0.0106
 5956TIP3    H139503   4.714   1.894   8.409 -2.3519 -0.6333  0.7041
 5956TIP3    H239504   4.663   1.951   8.539 -0.0975  2.0742  0.4987
 5957TIP3   OH239505   6.546   0.249   1.648 -1.1511 -0.8735  0.7527
 5957TIP3    H139506   6.599   0.321   1.615 -1.2774 -1.6700 -1.3039
 5957TIP3    H239507   6.501   0.286   1.724  0.4371  0.5366  1.0882
 5958TIP3   OH239508   2.064   0.908   7.135 -0.1873 -0.2554  0.0549
 5958TIP3    H139509   2.039   1.000   7.130  3.7150  0.9970  0.4418
 5958TIP3    H239510   2.068   0.880   7.044  0.2128  0.4993 -0.1724
 5959TIP3   OH239511   1.378   2.092   1.205 -0.0461  0.5625 -0.0406
 5959TIP3    H139512   1.375   2.051   1.119  0.4779  0.2412  0.0918
 5959TIP3    H239513   1.403   2.022   1.265 -0.9798  0.6454  0.4671
 5960TIP3   OH239514   5.494   1.863   2.418  0.5579 -0.2764 -0.4924
 5960TIP3    H139515   5.474   1.769   2.423  1.8578 -0.5646 -0.5507
 5960TIP3    H239516   5.589   1.868   2.417  0.5160  1.0824  0.0298
 5961TIP3   OH239517   5.203   6.743   1.026 -0.3748 -0.2614  0.0154
 5961TIP3    H139518   5.239   6.659   1.054  2.3559  0.5237 -0.7750
 5961TIP3    H239519   5.113   6.724   0.999  0.5882 -3.2435 -1.5371
 5962TIP3   OH239520   1.355   3.369   7.558 -0.1473  0.4006 -0.1251
 5962TIP3    H139521   1.423   3.416   7.510 -0.8462 -0.0545 -1.6414
 5962TIP3    H239522   1.396   3.287   7.586  0.1751  0.5111 -0.2706
 5963TIP3   OH239523   3.045   4.829   0.681  0.2314 -0.1732 -0.4361
 5963TIP3    H139524   3.075   4.776   0.608  0.7539 -0.0947 -0.2782
 5963TIP3    H239525   3.105   4.808   0.753 -0.5913 -0.6590  0.1389
 5964TIP3   OH239526   2.236   5.126   7.485 -0.0395  0.1154 -0.2769
 5964TIP3    H139527   2.223   5.144   7.392  2.4829 -0.5803 -0.8536
 5964TIP3    H239528   2.326   5.095   7.491  0.0069  0.5013  2.4752
 5965TIP3   OH239529   6.625   2.658   0.404 -0.0266  0.0488  0.6679
 5965TIP3    H139530   6.709   2.639   0.361 -0.4126  1.3934 -0.7668
 5965TIP3    H239531   6.562   2.663   0.332 -1.1552  0.0652  1.6290
 5966TIP3   OH239532   5.768   2.582   6.741  0.0805  0.1715 -0.6264
 5966TIP3    H139533   5.820   2.504   6.722  1.1455  0.8236 -0.4968
 5966TIP3    H239534   5.677   2.552   6.739  0.5101 -1.4911  1.2377
 5967TIP3   OH239535   5.055   2.745   1.670 -0.0670 -0.0100 -0.0096
 5967TIP3    H139536   5.057   2.789   1.755  0.0215 -0.2848  0.1307
 5967TIP3    H239537   5.067   2.816   1.607  0.2855  0.1427  0.2235
 5968TIP3   OH239538   3.964   6.174   8.429 -0.2560 -0.5100 -0.3846
 5968TIP3    H139539   3.970   6.154   8.335  1.7399  0.3248 -0.4801
 5968TIP3    H239540   3.991   6.093   8.472  0.3062 -0.4436 -0.5934
 5969TIP3   OH239541   5.896   0.269   6.686  0.3040 -0.5961  0.3415
 5969TIP3    H139542   5.959   0.308   6.747  0.8891 -2.2364  0.8443
 5969TIP3    H239543   5.829   0.230   6.743  1.0728 -2.5051  0.0057
 5970TIP3   OH239544   5.801   0.773   8.532 -0.2716  0.2637  0.2279
 5970TIP3    H139545   5.733   0.800   8.470 -0.8288  0.8758  1.0914
 5970TIP3    H239546   5.868   0.841   8.524 -1.6313  1.9874  2.3323
 5971TIP3   OH239547   2.574   5.286   8.225  0.1408  0.3032 -0.1519
 5971TIP3    H139548   2.510   5.357   8.232  2.2265  2.2807  0.0086
 5971TIP3    H239549   2.543   5.234   8.151 -0.9466  1.9456 -0.9181
 5972TIP3   OH239550   2.668   6.820   0.939 -0.2571  0.1862 -0.3481
 5972TIP3    H139551   2.691   6.874   0.863 -2.2080  0.5081 -0.7564
 5972TIP3    H239552   2.689   6.731   0.913 -2.1444  0.1194 -1.8456
 5973TIP3   OH239553   5.627   2.623   1.224 -0.5210 -0.1708  0.0738
 5973TIP3    H139554   5.649   2.669   1.305  0.2002  1.6015 -1.0660
 5973TIP3    H239555   5.608   2.693   1.162 -3.7162 -1.5029 -0.6345
 5974TIP3   OH239556   5.078   6.835   7.458  0.2499 -0.8633 -0.1515
 5974TIP3    H139557   5.088   6.767   7.392  0.5803 -0.5309 -0.4545
 5974TIP3    H239558   5.107   6.794   7.540  0.2872 -1.1339 -0.3007
 5975TIP3   OH239559   3.006   4.882   8.208  0.3830  0.0952  0.0080
 5975TIP3    H139560   3.069   4.927   8.152  0.1729 -0.0611 -0.3600
 5975TIP3    H239561   3.024   4.789   8.195 -0.5115  0.0208 -0.8009
 5976TIP3   OH239562   0.451   3.151   8.240  0.1661 -0.1255  0.4989
 5976TIP3    H139563   0.500   3.080   8.197  2.3346  1.3827  0.3068
 5976TIP3    H239564   0.397   3.188   8.170  0.1066 -0.6758  0.2480
 5977TIP3   OH239565   4.693   6.794   7.164  0.6747 -0.0318  0.0597
 5977TIP3    H139566   4.744   6.720   7.132 -1.7890 -0.9365 -2.1436
 5977TIP3    H239567   4.723   6.868   7.111  0.7102 -0.2425 -0.2183
 5978TIP3   OH239568   6.024   4.790   2.842  0.6611  0.2814  0.2793
 5978TIP3    H139569   6.015   4.848   2.918 -0.7308 -1.0797  1.1917
 5978TIP3    H239570   6.051   4.849   2.771 -1.1364  2.1647  1.0517
 5979TIP3   OH239571   2.850   2.562   7.389 -0.4755  0.3329 -0.1110
 5979TIP3    H139572   2.906   2.493   7.424 -0.7275  0.3031  0.2362
 5979TIP3    H239573   2.794   2.517   7.326 -0.4831  0.2645 -0.0553
 5980TIP3   OH239574   1.149   6.671   8.195 -0.2100  0.5202  0.0275
 5980TIP3    H139575   1.191   6.586   8.183 -0.7838  0.0647  1.0858
 5980TIP3    H239576   1.056   6.654   8.180 -0.0715  1.5952 -2.7047
 5981TIP3   OH239577   5.268   0.266   0.005 -0.1296  0.5622  0.3072
 5981TIP3    H139578   5.233   0.277   0.093 -0.1854 -0.3220  0.4086
 5981TIP3    H239579   5.361   0.246   0.018  0.2410  2.0246  0.0800
 5982TIP3   OH239580   3.540   3.592   0.543 -0.0934 -0.1572  0.0154
 5982TIP3    H139581   3.474   3.632   0.600  0.5691  1.4204 -0.2722
 5982TIP3    H239582   3.516   3.621   0.455  0.6227 -0.0824 -0.1594
 5983TIP3   OH239583   5.784   1.161   8.275  0.2620 -0.2211 -0.1362
 5983TIP3    H139584   5.875   1.165   8.307  0.1063  0.1594  0.2786
 5983TIP3    H239585   5.788   1.107   8.197  0.9155  0.1232 -0.3509
 5984TIP3   OH239586   2.731   4.180   1.787  0.2806  0.1800 -0.1105
 5984TIP3    H139587   2.760   4.267   1.812 -1.6190  1.0565 -0.7678
 5984TIP3    H239588   2.766   4.167   1.699 -1.1109  1.1792 -0.8532
 5985TIP3   OH239589   6.278   0.385   8.447  0.0125  0.2648 -0.2650
 5985TIP3    H139590   6.205   0.433   8.486 -0.9949 -1.8428  0.6182
 5985TIP3    H239591   6.356   0.421   8.489 -0.6263  1.5976 -0.1858
 5986TIP3   OH239592   3.892   1.244   1.843 -0.1013  0.0684 -0.2039
 5986TIP3    H139593   3.908   1.202   1.759  2.0548 -0.5306  0.4335
 5986TIP3    H239594   3.813   1.297   1.830 -1.2275 -1.9046 -1.8577
 5987TIP3   OH239595   1.492   6.002   0.312  0.3750 -0.7132 -0.6115
 5987TIP3    H139596   1.529   5.914   0.307  1.4588 -0.2757 -0.4858
 5987TIP3    H239597   1.567   6.060   0.318 -0.3360  0.1838  0.0059
 5988TIP3   OH239598   2.166   5.654   1.592 -0.0161  0.0194  0.1944
 5988TIP3    H139599   2.071   5.645   1.599 -0.2346 -0.6278 -2.3441
 5988TIP3    H239600   2.192   5.584   1.531  1.9462  0.8117  0.0430
 5989TIP3   OH239601   3.804   1.667   8.278  0.0639  0.6927  0.0750
 5989TIP3    H139602   3.764   1.580   8.269 -0.7099  1.0548 -0.0469
 5989TIP3    H239603   3.874   1.668   8.213  1.1541 -0.4283  1.1810
 5990TIP3   OH239604   2.289   6.259   1.261 -0.2993 -0.2421 -0.3687
 5990TIP3    H139605   2.323   6.184   1.310  1.4982  0.4802 -0.4584
 5990TIP3    H239606   2.216   6.291   1.315  0.2243 -0.8160  0.7179
 5991TIP3   OH239607   3.550   3.421   0.740  0.0122  0.1370 -0.4619
 5991TIP3    H139608   3.557   3.479   0.665 -3.3976 -0.3661 -1.3436
 5991TIP3    H239609   3.625   3.362   0.732  0.2624  0.6902 -2.9562
 5992TIP3   OH239610   6.410   6.406   1.808 -0.5362 -0.3000  0.5208
 5992TIP3    H139611   6.426   6.341   1.877 -1.8117 -1.4628 -0.2205
 5992TIP3    H239612   6.355   6.472   1.850  0.2719  0.0197  1.1166
 5993TIP3   OH239613   0.204   4.232   0.261 -0.1176  0.2622 -0.1738
 5993TIP3    H139614   0.109   4.241   0.255 -0.1430 -0.7186 -1.8859
 5993TIP3    H239615   0.229   4.288   0.334 -2.1216 -0.2607  0.9989
 5994TIP3   OH239616   5.473   0.972   0.713 -0.4906  0.3976 -0.0472
 5994TIP3    H139617   5.381   0.996   0.704 -1.0752 -1.3776  0.7165
 5994TIP3    H239618   5.486   0.899   0.652  0.7622  1.3983 -1.0497
 5995TIP3   OH239619   2.938   6.280   3.277 -0.1353  0.2889 -0.0105
 5995TIP3    H139620   2.937   6.376   3.268 -1.7322  0.1611 -1.9787
 5995TIP3    H239621   2.887   6.263   3.356 -0.4437  1.0553 -0.0321
 5996TIP3   OH239622   2.295   2.840   2.835 -0.3109 -0.6713  0.2347
 5996TIP3    H139623   2.267   2.931   2.844 -3.6560 -1.3740 -1.2061
 5996TIP3    H239624   2.246   2.794   2.903  0.6896 -1.5246  0.3938
 5997TIP3   OH239625   6.668   3.922   7.821  0.4344  0.1664 -0.1405
 5997TIP3    H139626   6.659   3.987   7.751  2.3935  0.2511 -0.3685
 5997TIP3    H239627   6.731   3.960   7.882 -0.2280 -0.4889  1.0043
 5998TIP3   OH239628   6.047   2.918   0.413 -0.0548  0.4310  0.8110
 5998TIP3    H139629   5.976   2.856   0.398 -0.2557  0.1717  2.6394
 5998TIP3    H239630   6.042   2.939   0.506  2.3173  0.3247  1.0253
 5999TIP3   OH239631   5.826   0.673   8.053 -0.6244  0.1635 -0.2607
 5999TIP3    H139632   5.737   0.707   8.044 -1.0429 -1.0551 -0.9586
 5999TIP3    H239633   5.829   0.597   7.995  1.3902  1.1453 -1.5776
 6000TIP3   OH239634   2.001   0.540   7.659 -0.2306 -0.0119 -0.7817
 6000TIP3    H139635   2.095   0.556   7.650 -0.3503 -0.3689 -3.4143
 6000TIP3    H239636   1.962   0.626   7.673  0.4829  0.1012  0.6403
 6001TIP3   OH239637   6.164   2.064   7.331  0.0930 -0.2649  0.0991
 6001TIP3    H139638   6.072   2.037   7.336 -0.0552  0.2177  0.0447
 6001TIP3    H239639   6.213   1.987   7.359 -0.3242 -0.5557  0.0458
 6002TIP3   OH239640   2.292   1.266   6.956 -0.1102 -0.2597  0.0991
 6002TIP3    H139641   2.263   1.357   6.958  0.0279 -0.1959  2.5927
 6002TIP3    H239642   2.218   1.218   6.918 -0.4634  0.7975 -0.5937
 6003TIP3   OH239643   1.773   4.581   0.506 -0.8546 -0.7652  0.2654
 6003TIP3    H139644   1.805   4.561   0.593 -1.2290  1.6312  1.0305
 6003TIP3    H239645   1.767   4.676   0.504 -2.8451 -0.8481 -1.6640
 6004TIP3   OH239646   0.427   2.291   1.988  0.3707 -0.3315 -0.1171
 6004TIP3    H139647   0.419   2.373   1.939  0.8241 -0.2676 -0.0854
 6004TIP3    H239648   0.383   2.226   1.933  1.7178 -0.4589 -1.0902
 6005TIP3   OH239649   4.327   6.497   0.787  0.1002 -0.3020 -0.6971
 6005TIP3    H139650   4.414   6.461   0.802  0.3810 -0.2059 -1.9356
 6005TIP3    H239651   4.334   6.539   0.701 -1.0869 -0.0468 -0.6784
 6006TIP3   OH239652   5.126   6.518   7.378 -0.8952 -0.4553 -0.5296
 6006TIP3    H139653   5.124   6.431   7.419 -1.5240  0.0685  0.5755
 6006TIP3    H239654   5.140   6.499   7.285  1.2217 -1.6403 -0.0422
 6007TIP3   OH239655   3.272   0.580   8.009  0.5317  0.5990  0.3442
 6007TIP3    H139656   3.188   0.561   7.967  0.1211 -2.1748  2.1792
 6007TIP3    H239657   3.336   0.528   7.960  0.3823 -0.9663  1.7417
 6008TIP3   OH239658   4.984   1.060   8.359 -0.5907 -0.3976  0.9343
 6008TIP3    H139659   4.924   1.037   8.429  0.0632  0.4809  1.8123
 6008TIP3    H239660   5.034   1.134   8.394 -0.4484  0.2457 -0.5594
 6009TIP3   OH239661   1.095   6.527   1.542 -0.1151  0.1353  0.3790
 6009TIP3    H139662   1.135   6.602   1.587 -2.5613  1.4388  0.5296
 6009TIP3    H239663   1.061   6.563   1.460 -1.4927 -0.7311  0.5373
 6010TIP3   OH239664   3.136   2.355   1.181 -0.3306  0.7776  0.1381
 6010TIP3    H139665   3.122   2.264   1.154 -1.4055  0.6983  0.9156
 6010TIP3    H239666   3.106   2.407   1.106 -0.3743  0.5068 -0.0338
 6011TIP3   OH239667   4.400   0.990   7.772  0.2712  0.3587  0.3683
 6011TIP3    H139668   4.404   1.026   7.683  1.7340 -0.6495  0.0032
 6011TIP3    H239669   4.310   0.957   7.780  0.4385 -0.5430 -1.1543
 6012TIP3   OH239670   6.240   2.709   7.107  0.4208 -0.0868 -0.2958
 6012TIP3    H139671   6.178   2.641   7.081 -1.5016  1.9953 -1.4819
 6012TIP3    H239672   6.213   2.787   7.059  4.6918  0.7423 -1.7780
 6013TIP3   OH239673   5.558   0.085   0.026 -0.1983 -0.1986 -0.1509
 6013TIP3    H139674   5.629   0.039  -0.018  0.4220  0.9325 -0.3620
 6013TIP3    H239675   5.601   0.151   0.080 -0.9828 -0.9691  1.5050
 6014TIP3   OH239676   1.693   3.900   7.384  0.1680  0.2098  0.3802
 6014TIP3    H139677   1.658   3.988   7.397 -0.1920  0.3222 -1.1429
 6014TIP3    H239678   1.615   3.845   7.373  0.3788  0.1937 -1.4335
 6015TIP3   OH239679   2.075   4.475   0.201 -0.4372 -0.5846 -0.2231
 6015TIP3    H139680   1.984   4.504   0.190  0.1103  1.1486 -0.5178
 6015TIP3    H239681   2.123   4.520   0.132  0.6399 -1.5822 -0.1553
 6016TIP3   OH239682   5.020   5.534   6.747 -0.0990 -0.2833 -0.5418
 6016TIP3    H139683   5.024   5.612   6.691  0.1632 -0.6700 -1.0650
 6016TIP3    H239684   4.929   5.530   6.776 -0.3409 -0.3340 -1.3023
 6017TIP3   OH239685   0.830   4.904   7.114 -0.3757  0.7173 -0.2324
 6017TIP3    H139686   0.910   4.950   7.089  0.3981 -0.4134  0.0785
 6017TIP3    H239687   0.851   4.864   7.198 -0.8567 -0.5728 -0.7015
 6018TIP3   OH239688   6.543   2.135   8.185  0.2533  0.1135 -0.2582
 6018TIP3    H139689   6.508   2.060   8.137 -1.1588 -0.1472  1.1028
 6018TIP3    H239690   6.473   2.200   8.182  0.3309  0.2769  1.0041
 6019TIP3   OH239691   5.985   4.577   7.089 -0.4441 -0.5124  0.0010
 6019TIP3    H139692   5.946   4.490   7.085 -0.1702 -0.6334 -0.0315
 6019TIP3    H239693   6.061   4.566   7.146  0.1612 -0.5110 -0.7891
 6020TIP3   OH239694   5.124   2.252   0.572 -0.2774  0.6895 -0.3944
 6020TIP3    H139695   5.100   2.292   0.488 -2.9004 -0.1764 -0.1412
 6020TIP3    H239696   5.167   2.170   0.548 -0.7238  0.6019 -0.9083
 6021TIP3   OH239697   1.063   0.170   1.232 -0.4889 -0.3747  0.6217
 6021TIP3    H139698   1.143   0.188   1.281  0.1735  0.2755 -0.6534
 6021TIP3    H239699   1.015   0.107   1.286  1.7900 -2.3035  0.5310
 6022TIP3   OH239700   0.614   5.732   1.289  0.8887 -0.3262  0.3490
 6022TIP3    H139701   0.651   5.701   1.372 -0.7279  1.1056  1.6861
 6022TIP3    H239702   0.540   5.673   1.273 -0.4278  0.9669  1.3871
 6023TIP3   OH239703   3.757   6.064   0.487  0.4490 -0.3026  0.2781
 6023TIP3    H139704   3.779   6.114   0.408  0.6614 -1.7859 -0.6384
 6023TIP3    H239705   3.708   6.126   0.541 -3.1869 -0.2493 -2.6568
 6024TIP3   OH239706   6.787   6.419   2.849  0.0856 -0.7716 -0.4645
 6024TIP3    H139707   6.882   6.409   2.851 -0.0418 -2.6221  2.5128
 6024TIP3    H239708   6.769   6.495   2.904 -0.1941 -1.2274  0.0838
 6025TIP3   OH239709   5.015   6.883   8.251 -0.2034 -0.3682  0.2040
 6025TIP3    H139710   4.978   6.808   8.298  0.9044  1.3168  4.1782
 6025TIP3    H239711   4.942   6.944   8.242 -0.0884 -0.0390  1.3374
 6026TIP3   OH239712   2.528   6.290   2.885  0.1786  0.0255  0.1042
 6026TIP3    H139713   2.612   6.320   2.922  0.1062  0.6424 -0.2147
 6026TIP3    H239714   2.462   6.333   2.939  0.0698  1.3313 -1.0217
 6027TIP3   OH239715   6.639   1.091   2.491  0.2470 -0.2072  0.0592
 6027TIP3    H139716   6.613   1.123   2.404 -1.0193 -1.6178 -0.1143
 6027TIP3    H239717   6.561   1.100   2.545  0.1825 -1.9362  0.2908
 6028TIP3   OH239718   3.274   4.853   0.882 -0.4397 -0.3376 -0.1661
 6028TIP3    H139719   3.268   4.759   0.867 -0.2896 -0.3543 -0.1287
 6028TIP3    H239720   3.224   4.868   0.961 -0.5825 -0.3654 -0.2508
 6029TIP3   OH239721   1.275   4.191   0.485  0.3564  0.2580  0.4125
 6029TIP3    H139722   1.344   4.145   0.533  0.9111  0.3653 -0.2713
 6029TIP3    H239723   1.321   4.256   0.433 -0.2438  0.1612 -0.2531
 6030TIP3   OH239724   3.063   0.888   2.145  0.4178  0.6880  0.0523
 6030TIP3    H139725   3.067   0.869   2.052 -2.3389  0.2525 -0.0628
 6030TIP3    H239726   3.034   0.980   2.150  0.6718  0.7508  0.4856
 6031TIP3   OH239727   1.047   3.305   1.561 -0.5145 -0.2066  0.1751
 6031TIP3    H139728   1.061   3.254   1.641  0.2917 -0.2381  0.0293
 6031TIP3    H239729   1.079   3.248   1.491  1.5488  0.9106  0.1188
 6032TIP3   OH239730   3.738   0.580   7.393  0.0541 -0.2395 -0.3024
 6032TIP3    H139731   3.781   0.613   7.472 -0.7154 -0.2514  0.1301
 6032TIP3    H239732   3.741   0.653   7.332  0.2462 -0.0756 -0.0982
 6033TIP3   OH239733   3.104   4.519   1.479 -0.1758  0.4394  0.0609
 6033TIP3    H139734   3.016   4.520   1.441  0.4842 -1.1859 -1.6491
 6033TIP3    H239735   3.102   4.448   1.543  0.3702 -0.9291 -1.3716
 6034TIP3   OH239736   2.968   0.765   8.446 -0.4118 -0.1138  0.3958
 6034TIP3    H139737   2.917   0.752   8.526 -0.8978 -0.3528  0.0575
 6034TIP3    H239738   3.049   0.717   8.461  0.1691  1.1239  1.3463
 6035TIP3   OH239739   0.397   5.347   8.286  0.5452 -0.2253  0.1037
 6035TIP3    H139740   0.417   5.264   8.329 -0.5587 -0.2945  0.5267
 6035TIP3    H239741   0.425   5.413   8.349 -0.6357 -0.3220  0.7653
 6036TIP3   OH239742   3.260   6.412   0.187 -0.4275 -0.4241 -0.1591
 6036TIP3    H139743   3.256   6.365   0.270  0.5741  0.0638  0.1726
 6036TIP3    H239744   3.349   6.448   0.183 -0.6213 -0.0186 -1.2070
 6037TIP3   OH239745   0.104   4.441   8.024  0.0690  0.3145  0.1459
 6037TIP3    H139746   0.106   4.533   8.052 -1.4017  0.4428 -0.0971
 6037TIP3    H239747   0.079   4.393   8.103  1.9933 -0.0533  0.5884
 6038TIP3   OH239748   5.415   5.019   2.806 -0.1471 -0.1648  0.1836
 6038TIP3    H139749   5.508   5.031   2.820  0.2041 -1.9314 -0.3280
 6038TIP3    H239750   5.407   4.928   2.775 -2.0138 -0.0182  0.1097
 6039TIP3   OH239751   0.244   6.842   0.585 -0.5714 -0.2365 -0.6207
 6039TIP3    H139752   0.269   6.750   0.591 -1.4708 -0.4359  0.6620
 6039TIP3    H239753   0.151   6.841   0.564  0.0808  0.4752 -4.2196
 6040TIP3   OH239754   5.918   4.003   0.591  0.0309  0.4054 -0.1559
 6040TIP3    H139755   6.013   4.014   0.592 -0.1176  1.8944  0.3883
 6040TIP3    H239756   5.884   4.089   0.563 -1.1122 -0.5465 -1.9082
 6041TIP3   OH239757   3.699   5.569   1.970 -0.2029 -0.6736 -0.2729
 6041TIP3    H139758   3.737   5.565   2.058 -1.8257  2.4717  0.7398
 6041TIP3    H239759   3.622   5.513   1.975 -1.3937  0.9874  1.0352
 6042TIP3   OH239760   2.003   3.076   0.508  0.0043 -0.8054 -0.6362
 6042TIP3    H139761   1.994   3.047   0.417  0.8856 -0.7951 -0.7356
 6042TIP3    H239762   1.936   3.027   0.556 -0.0069 -1.3265 -1.1816
 6043TIP3   OH239763   3.573   5.368   7.106 -0.1094  0.3434  0.1663
 6043TIP3    H139764   3.491   5.417   7.109 -0.1727  0.2222  0.6158
 6043TIP3    H239765   3.552   5.285   7.149  0.5356  0.7537  1.3372
 6044TIP3   OH239766   4.985   0.191   6.832 -0.5110  0.1277  0.3422
 6044TIP3    H139767   4.982   0.242   6.913  0.4648  0.0263  0.4601
 6044TIP3    H239768   4.950   0.250   6.765 -2.1345 -0.0861  0.9641
 6045TIP3   OH239769   6.654   2.918   7.962 -0.5950  0.3165  0.6009
 6045TIP3    H139770   6.656   2.840   8.017  0.1740  0.4117  0.7232
 6045TIP3    H239771   6.679   2.989   8.020  2.1582  0.1538 -0.2301
 6046TIP3   OH239772   3.880   0.620   0.987  0.2035  0.2581 -0.2097
 6046TIP3    H139773   3.857   0.711   0.966  1.3099  1.4026  2.8308
 6046TIP3    H239774   3.798   0.583   1.021  0.1729  0.7507  0.2788
 6047TIP3   OH239775   2.708   0.775   0.653  0.4041  0.1054 -0.2077
 6047TIP3    H139776   2.687   0.687   0.683 -0.5780  0.0958 -0.8540
 6047TIP3    H239777   2.760   0.813   0.724  0.0812 -0.6879  0.4772
 6048TIP3   OH239778   0.232   5.412   1.441 -0.1793 -0.2703  0.1064
 6048TIP3    H139779   0.237   5.460   1.523 -0.5095  0.2823 -0.1950
 6048TIP3    H239780   0.250   5.321   1.465  1.0698  0.0825  0.5954
 6049TIP3   OH239781   2.861   4.336   0.340 -0.0321 -0.5228 -0.2584
 6049TIP3    H139782   2.842   4.274   0.411  0.1625 -2.5568 -1.8628
 6049TIP3    H239783   2.952   4.318   0.317  0.5485  1.5406  0.2598
 6050TIP3   OH239784   5.424   2.693   0.309 -0.0931  0.0578 -0.3753
 6050TIP3    H139785   5.339   2.649   0.307  0.7727 -1.7093 -2.3220
 6050TIP3    H239786   5.488   2.622   0.306  1.4191  1.3874 -2.1287
 6051TIP3   OH239787   5.107   0.613   1.993  0.0153  0.6098 -0.7029
 6051TIP3    H139788   5.097   0.524   2.028  0.4741 -0.3611 -2.8719
 6051TIP3    H239789   5.039   0.620   1.926 -0.0025  1.9076 -0.5691
 6052TIP3   OH239790   4.772   2.338   1.627 -0.0324  0.0003  0.3233
 6052TIP3    H139791   4.830   2.272   1.588  0.2496 -0.4320  1.4435
 6052TIP3    H239792   4.820   2.369   1.704 -1.6629 -0.9922  1.7801
 6053TIP3   OH239793   5.639   5.154   2.474  0.0613 -0.2857  0.4709
 6053TIP3    H139794   5.703   5.201   2.529  0.8241 -0.3010 -0.3781
 6053TIP3    H239795   5.564   5.214   2.469  0.8487  0.6764 -0.2399
 6054TIP3   OH239796   5.068   1.685   1.773 -0.0392 -0.2451  0.8081
 6054TIP3    H139797   5.082   1.597   1.737  0.6964 -1.2064  3.2561
 6054TIP3    H239798   5.145   1.700   1.828 -1.1182  1.0809  2.0136
 6055TIP3   OH239799   6.656   0.479   2.395  0.2086  0.1776  0.0399
 6055TIP3    H139800   6.674   0.547   2.330  1.4160  0.0822  0.2664
 6055TIP3    H239801   6.707   0.505   2.471 -0.7835  0.0008  0.7819
 6056TIP3   OH239802   1.452   1.020   7.684 -0.9457 -1.0934  0.0486
 6056TIP3    H139803   1.409   1.013   7.769 -2.4897  0.8794 -0.5024
 6056TIP3    H239804   1.484   1.111   7.681 -0.5328 -1.2707 -1.3103
 6057TIP3   OH239805   2.429   3.267   0.744 -0.5958 -0.1542  0.0478
 6057TIP3    H139806   2.376   3.279   0.664  0.9648  1.4979 -0.8096
 6057TIP3    H239807   2.418   3.175   0.766 -1.6716 -0.4866 -1.6550
 6058TIP3   OH239808   5.752   0.544   0.658  0.3859  0.4388  0.1029
 6058TIP3    H139809   5.787   0.604   0.592 -0.5893  1.8133  0.7800
 6058TIP3    H239810   5.787   0.578   0.741  0.7765 -0.6591  0.4124
 6059TIP3   OH239811   2.329   1.041   7.114 -0.6108 -0.6653  0.3201
 6059TIP3    H139812   2.275   0.976   7.070  1.0648 -1.3608 -0.8594
 6059TIP3    H239813   2.325   1.118   7.057 -0.3723 -0.7202  0.2262
 6060TIP3   OH239814   4.157   1.030   1.454 -0.5204  0.5506  0.1958
 6060TIP3    H139815   4.125   0.954   1.406 -3.9526  2.6273 -1.1229
 6060TIP3    H239816   4.246   1.043   1.420 -0.0555 -2.3521 -0.0192
 6061TIP3   OH239817   2.431   5.897   8.524  0.7595  0.9220 -0.7503
 6061TIP3    H139818   2.487   5.844   8.580  0.6535  1.5496 -0.0397
 6061TIP3    H239819   2.382   5.833   8.471 -1.6835  0.0815  2.2281
 6062TIP3   OH239820   0.215   0.705   2.079  0.1613  0.3293 -0.0509
 6062TIP3    H139821   0.196   0.742   1.993  1.9218 -0.0220 -0.6381
 6062TIP3    H239822   0.234   0.782   2.134  1.2095  0.4647 -0.5779
 6063TIP3   OH239823   3.923   1.026   2.935 -0.4746  0.8113  0.3697
 6063TIP3    H139824   3.921   0.961   2.865 -2.7215  0.0374  1.0722
 6063TIP3    H239825   4.013   1.059   2.934  1.0463 -2.8087  0.4330
 6064TIP3   OH239826   1.553   0.720   2.935  0.0924 -0.1129 -0.1851
 6064TIP3    H139827   1.643   0.698   2.961  0.9428 -0.4219 -3.0266
 6064TIP3    H239828   1.519   0.640   2.897 -0.5716  0.6305 -1.1950
 6065TIP3   OH239829   0.786   2.503   1.566  0.2655  0.6941 -0.1091
 6065TIP3    H139830   0.703   2.534   1.602  0.4769  0.2994  0.7511
 6065TIP3    H239831   0.804   2.422   1.614  1.5377  1.1826  0.2633
 6066TIP3   OH239832   1.348   5.591   1.771 -0.3430  0.2295  0.1229
 6066TIP3    H139833   1.431   5.565   1.809 -1.1486 -1.2094  0.9914
 6066TIP3    H239834   1.317   5.662   1.826 -0.2807 -0.1097  0.6055
 6067TIP3   OH239835   5.855   3.466   7.577 -0.5691 -0.2272  0.0457
 6067TIP3    H139836   5.856   3.543   7.521 -0.5894  1.5763  2.3728
 6067TIP3    H239837   5.771   3.424   7.560 -1.7381  1.7732  0.5733
 6068TIP3   OH239838   4.742   5.641   7.801  0.0334 -0.0940 -0.1337
 6068TIP3    H139839   4.676   5.616   7.736  0.4960  1.5801 -1.3364
 6068TIP3    H239840   4.706   5.613   7.885 -0.8971 -1.7185 -1.0402
 6069TIP3   OH239841   3.066   4.361   8.112  0.4024  0.3334 -0.0089
 6069TIP3    H139842   3.075   4.320   8.198  1.1016  1.9153  0.7082
 6069TIP3    H239843   3.067   4.288   8.050  1.7197 -0.7194  1.2071
 6070TIP3   OH239844   5.562   3.470   1.009 -0.3001  0.2529 -0.4272
 6070TIP3    H139845   5.648   3.503   0.984 -0.1134 -0.0587 -0.2036
 6070TIP3    H239846   5.548   3.395   0.951 -0.3332  0.1815 -0.3262
 6071TIP3   OH239847   2.818   5.682   7.847  0.1072 -0.3078 -0.1407
 6071TIP3    H139848   2.789   5.726   7.766 -0.5946 -2.8421 -1.3545
 6071TIP3    H239849   2.739   5.639   7.881  0.4159  0.6208  1.9075
 6072TIP3   OH239850   0.958   6.335   8.409 -0.0806 -0.6979  0.1459
 6072TIP3    H139851   0.924   6.424   8.403 -1.8149 -1.1962  1.5661
 6072TIP3    H239852   0.922   6.290   8.333  2.1996  0.1449 -1.5619
 6073TIP3   OH239853   4.447   3.240   0.734 -0.7263  0.2171  0.2259
 6073TIP3    H139854   4.519   3.181   0.711  0.9041  1.1587  2.5279
 6073TIP3    H239855   4.368   3.187   0.725  0.2047 -0.9077 -2.2172
 6074TIP3   OH239856   1.371   0.350   8.137 -0.3811 -0.5169 -0.5460
 6074TIP3    H139857   1.315   0.395   8.075  0.3783  1.8286  0.3331
 6074TIP3    H239858   1.312   0.320   8.206 -0.7667  0.5339 -0.4002
 6075TIP3   OH239859   6.743   4.436   1.937 -0.1507  0.1460 -0.0366
 6075TIP3    H139860   6.743   4.408   1.845 -0.7115 -1.7993  0.4999
 6075TIP3    H239861   6.654   4.465   1.954  0.1308  1.1780 -0.2757
 6076TIP3   OH239862   2.086   3.312   2.742 -0.4466 -0.4959 -0.3562
 6076TIP3    H139863   2.124   3.394   2.710  3.0281 -2.1345 -0.7878
 6076TIP3    H239864   2.043   3.274   2.665  1.7450 -1.0775 -1.3562
 6077TIP3   OH239865   4.400   3.491   0.664  0.3765 -0.4093  0.4290
 6077TIP3    H139866   4.437   3.417   0.712  0.9948  0.4335  1.2928
 6077TIP3    H239867   4.476   3.538   0.630 -0.0194 -0.3253 -0.3666
 6078TIP3   OH239868   5.492   3.730   8.432 -0.6620 -0.0006  0.0662
 6078TIP3    H139869   5.522   3.811   8.472  1.5073 -0.7729  0.1489
 6078TIP3    H239870   5.442   3.759   8.355  0.0349  1.4211  0.1061
 6079TIP3   OH239871   1.164   5.336   0.301  0.2410 -0.1468 -0.1031
 6079TIP3    H139872   1.232   5.395   0.266 -0.4366  0.3246 -0.6612
 6079TIP3    H239873   1.142   5.373   0.386  1.4574 -0.9378  0.5772
 6080TIP3   OH239874   6.434   0.301   8.244 -0.6974 -0.8160  0.1135
 6080TIP3    H139875   6.422   0.360   8.169 -0.5296 -0.1080  0.6293
 6080TIP3    H239876   6.377   0.337   8.312  0.6487 -0.2610  0.9859
 6081TIP3   OH239877   3.583   2.458   0.233 -0.7033  0.2439 -0.0405
 6081TIP3    H139878   3.618   2.540   0.268 -0.6144  0.0894  0.2362
 6081TIP3    H239879   3.661   2.404   0.215 -0.7863 -0.0389  0.4252
 6082TIP3   OH239880   2.765   6.683   7.241 -0.6024 -0.6390  0.1324
 6082TIP3    H139881   2.695   6.715   7.297 -0.4282  4.6174 -2.0602
 6082TIP3    H239882   2.720   6.645   7.166 -1.0274 -0.6420  0.3859
 6083TIP3   OH239883   6.308   6.813   8.060 -0.9997 -0.5020 -0.4416
 6083TIP3    H139884   6.261   6.894   8.078 -0.7550 -0.2324 -0.9899
 6083TIP3    H239885   6.391   6.841   8.023 -0.9849 -1.0083 -0.8049
 6084TIP3   OH239886   5.257   4.954   0.761  0.1926 -0.2061  0.6053
 6084TIP3    H139887   5.209   5.037   0.750  0.6359  0.1153  1.0495
 6084TIP3    H239888   5.190   4.887   0.750 -0.0170  0.1812 -0.6362
 6085TIP3   OH239889   6.856   3.766   7.215  0.2143  0.3838 -0.1237
 6085TIP3    H139890   6.860   3.861   7.223 -0.3884  0.4102 -0.1274
 6085TIP3    H239891   6.808   3.737   7.293  0.3371  0.0866 -0.1562
 6086TIP3   OH239892   0.428   1.162   7.610 -0.1462 -0.0995 -0.9058
 6086TIP3    H139893   0.432   1.145   7.516 -1.9738 -0.1918 -0.9943
 6086TIP3    H239894   0.467   1.084   7.650  1.4240  0.3026 -1.5706
 6087TIP3   OH239895   6.912   4.168   8.430  0.1031 -0.2433 -0.4211
 6087TIP3    H139896   6.821   4.199   8.439  0.3379  0.3675 -0.1020
 6087TIP3    H239897   6.961   4.220   8.494  0.1298 -2.9895  2.0090
 6088TIP3   OH239898   2.095   3.504   7.044  0.3776 -0.2811 -0.7507
 6088TIP3    H139899   2.083   3.476   6.953  0.3028  1.3151 -1.2514
 6088TIP3    H239900   2.081   3.598   7.043  1.5348 -0.0469  0.7202
 6089TIP3   OH239901   2.199   0.495   0.938  0.0681 -0.2193  0.5911
 6089TIP3    H139902   2.140   0.422   0.919 -0.3748 -0.2650  2.0424
 6089TIP3    H239903   2.147   0.574   0.921 -0.3307 -0.2601  1.5562
 6090TIP3   OH239904   3.786   4.411   6.165  0.6901 -0.8024 -0.0521
 6090TIP3    H139905   3.862   4.459   6.131  0.4556 -1.3134 -1.3664
 6090TIP3    H239906   3.720   4.479   6.180  1.5466 -0.2771  1.6382
 6091TIP3   OH239907   2.222   1.230   0.459 -0.6801  0.6230 -0.2535
 6091TIP3    H139908   2.266   1.298   0.510 -0.8889  1.1797 -0.8145
 6091TIP3    H239909   2.130   1.239   0.480 -0.6581  0.1748  0.0630
 6092TIP3   OH239910   3.408   0.562   0.514  0.6197 -0.2255 -0.0035
 6092TIP3    H139911   3.372   0.648   0.536  0.9076 -0.5474  1.9621
 6092TIP3    H239912   3.502   0.571   0.532  0.9227 -0.5096 -1.3531
 6093TIP3   OH239913   5.274   5.687   6.532 -0.0253 -0.1486  0.5447
 6093TIP3    H139914   5.316   5.625   6.473 -1.7847  0.3975 -1.3976
 6093TIP3    H239915   5.343   5.714   6.593  1.7411 -1.1285 -0.9423
 6094TIP3   OH239916   0.332   1.655   7.107  0.7520  0.5477  0.2087
 6094TIP3    H139917   0.248   1.643   7.061 -0.4989  2.4636  1.8288
 6094TIP3    H239918   0.379   1.573   7.091 -1.0854 -0.2913 -1.4183
 6095TIP3   OH239919   5.948   2.350   7.982  0.4080 -0.2345 -0.2860
 6095TIP3    H139920   5.867   2.375   7.936  0.2413  1.7197  0.9480
 6095TIP3    H239921   5.919   2.287   8.048 -0.1269  0.4953  0.1835
 6096TIP3   OH239922   3.774   4.268   1.287  0.0079 -0.4547 -0.0423
 6096TIP3    H139923   3.740   4.358   1.292 -1.4441 -0.8861 -1.4507
 6096TIP3    H239924   3.867   4.277   1.310  0.4146  1.7553 -2.0879
 6097TIP3   OH239925   2.604   5.932   7.747  0.0453  0.5906  0.2264
 6097TIP3    H139926   2.627   6.003   7.808  0.6885 -0.2061  0.9282
 6097TIP3    H239927   2.613   5.972   7.660  0.2739  1.4065  0.6159
 6098TIP3   OH239928   4.173   3.139   0.702 -0.2641 -0.3736  0.1155
 6098TIP3    H139929   4.137   3.098   0.781 -1.6406  0.4620 -0.0509
 6098TIP3    H239930   4.147   3.231   0.708  1.6425  0.2338 -0.1690
 6099TIP3   OH239931   6.144   6.675   7.353 -0.0733  0.0082  0.0216
 6099TIP3    H139932   6.125   6.762   7.317  0.6020  0.8059  1.4771
 6099TIP3    H239933   6.058   6.637   7.371 -0.4168 -0.3227 -2.1382
 6100TIP3   OH239934   0.618   0.258   2.040  0.7950  0.5574  0.0740
 6100TIP3    H139935   0.692   0.201   2.058  0.0505 -0.2684  0.6160
 6100TIP3    H239936   0.657   0.342   2.015  1.9007 -0.0209 -0.1863
 6101TIP3   OH239937   3.659   0.542   0.639  0.7787 -0.4981  0.3323
 6101TIP3    H139938   3.671   0.456   0.680 -0.9317 -0.4796  0.9565
 6101TIP3    H239939   3.737   0.592   0.664  0.1470 -0.7189  3.0626
 6102TIP3   OH239940   1.592   2.256   1.308  0.6352  0.3602 -1.0890
 6102TIP3    H139941   1.504   2.219   1.308  1.4664 -1.9081  1.1634
 6102TIP3    H239942   1.626   2.236   1.220 -0.1271 -1.3250 -1.0370
 6103TIP3   OH239943   6.125   0.839   0.243 -0.4953 -0.1931  0.8867
 6103TIP3    H139944   6.076   0.917   0.270  0.5724  0.4811  0.9344
 6103TIP3    H239945   6.096   0.771   0.304 -1.0563  0.2997  1.1867
 6104TIP3   OH239946   4.158   6.178   7.274  0.0144  0.4502  0.2944
 6104TIP3    H139947   4.141   6.101   7.219  1.4648  0.1178  0.2674
 6104TIP3    H239948   4.084   6.181   7.334  0.6092 -1.8691  1.2798
 6105TIP3   OH239949   0.065   4.112   1.027 -0.3182  0.0722 -0.5156
 6105TIP3    H139950   0.128   4.043   1.049 -0.7586 -0.0590  0.3579
 6105TIP3    H239951  -0.019   4.079   1.059 -0.8491  0.2392 -1.6882
 6106TIP3   OH239952   2.969   6.513   1.951 -0.4164  0.6543 -0.0217
 6106TIP3    H139953   3.005   6.602   1.952 -1.6951  1.2157  1.5245
 6106TIP3    H239954   2.974   6.485   1.860  1.9587  1.4762 -0.2036
 6107TIP3   OH239955   5.874   1.118   7.545  0.6601 -0.0301 -0.2628
 6107TIP3    H139956   5.944   1.097   7.484  0.9387 -0.4238  0.1837
 6107TIP3    H239957   5.914   1.180   7.607  0.6391 -0.3042  0.0297
 6108TIP3   OH239958   0.894   3.826   1.728 -0.3196  0.3263 -0.0806
 6108TIP3    H139959   0.904   3.747   1.674 -0.9101 -1.7960  2.6721
 6108TIP3    H239960   0.816   3.869   1.694  0.4074  0.1728 -2.0849
 6109TIP3   OH239961   3.081   4.220   1.007 -0.3265  0.0655  0.1216
 6109TIP3    H139962   2.995   4.195   1.043 -0.1003 -0.4795  0.2943
 6109TIP3    H239963   3.098   4.155   0.939 -0.2804  0.4832 -0.2704
 6110TIP3   OH239964   1.937   5.632   7.164  0.0439 -0.1567 -0.0164
 6110TIP3    H139965   1.936   5.559   7.227 -0.3530 -0.0749  0.0759
 6110TIP3    H239966   1.902   5.593   7.083 -2.0618  0.3899  0.5688
 6111TIP3   OH239967   3.830   4.556   2.402  0.3823  0.1304 -0.4760
 6111TIP3    H139968   3.761   4.596   2.455  0.7524  0.4321 -0.2181
 6111TIP3    H239969   3.869   4.629   2.355 -1.9408 -0.4269 -3.6099
 6112TIP3   OH239970   4.078   4.522   7.247  0.7942 -0.2125  0.4051
 6112TIP3    H139971   4.121   4.440   7.223 -0.1878 -0.6034 -0.0754
 6112TIP3    H239972   3.985   4.507   7.230  0.7372  1.5220 -1.2389
 6113TIP3   OH239973   0.150   6.513   2.188  0.2069 -0.2463 -0.3242
 6113TIP3    H139974   0.218   6.557   2.240  1.5808 -3.1232  0.5218
 6113TIP3    H239975   0.189   6.504   2.101  0.5251 -1.0359 -0.1038
 6114TIP3   OH239976   6.891   1.553   8.429  0.2362  0.3289 -0.3889
 6114TIP3    H139977   6.915   1.541   8.521 -2.0123  0.1415  0.2245
 6114TIP3    H239978   6.797   1.537   8.426  0.2736  0.1805 -2.7697
 6115TIP3   OH239979   4.819   1.016   3.422  0.6243 -0.2821 -0.0765
 6115TIP3    H139980   4.811   0.921   3.413 -0.8251 -0.1154 -0.8342
 6115TIP3    H239981   4.729   1.049   3.411  0.4902  0.9511  3.4508
 6116TIP3   OH239982   1.004   1.077   0.837 -0.1963 -0.0525 -0.3433
 6116TIP3    H139983   1.041   1.084   0.926 -0.0716  1.3631 -0.4712
 6116TIP3    H239984   0.926   1.023   0.848  0.6238 -1.1592  0.3500
 6117TIP3   OH239985   3.785   0.867   0.905  0.1063  0.3241  0.0293
 6117TIP3    H139986   3.859   0.890   0.849 -0.1724 -0.6942 -0.7858
 6117TIP3    H239987   3.757   0.950   0.943  1.5048  0.7547  0.1648
 6118TIP3   OH239988   1.475   3.824   1.914 -0.4865  0.4795 -0.3169
 6118TIP3    H139989   1.426   3.794   1.991 -0.5639  1.0630 -0.1382
 6118TIP3    H239990   1.453   3.917   1.906 -0.3007  0.4754 -0.9123
 6119TIP3   OH239991   3.253   2.629   2.901  0.4026 -0.1491 -0.3164
 6119TIP3    H139992   3.191   2.562   2.931 -0.5416  0.2487 -1.2773
 6119TIP3    H239993   3.197   2.696   2.861  1.4799 -0.0049 -1.6493
 6120TIP3   OH239994   0.975   5.618   7.938 -0.0117  0.3586 -0.0847
 6120TIP3    H139995   0.891   5.652   7.969 -1.2483 -1.2480 -1.4391
 6120TIP3    H239996   1.019   5.588   8.018 -2.0206 -1.4098  0.4863
 6121TIP3   OH239997   2.250   2.853   7.534  0.4792 -0.3843  0.0102
 6121TIP3    H139998   2.210   2.892   7.456 -1.7119  3.5647  2.7454
 6121TIP3    H239999   2.229   2.760   7.527 -1.6923  0.1721 -2.9444
 6122TIP3   OH240000   3.066   1.681   8.455 -0.0793 -0.1786  0.1345
 6122TIP3    H140001   2.976   1.651   8.472 -0.5105  0.7700 -0.3664
 6122TIP3    H240002   3.090   1.729   8.534 -0.0084 -0.4459  0.2752
 6123TIP3   OH240003   0.753   5.354   8.186 -0.6442  0.0609  0.2876
 6123TIP3    H140004   0.706   5.346   8.269 -0.8738 -0.5025  0.1075
 6123TIP3    H240005   0.756   5.264   8.152 -0.1113  0.2134 -0.0714
 6124TIP3   OH240006   0.154   2.253   1.319  0.3493  0.0064  1.0751
 6124TIP3    H140007   0.060   2.257   1.339  0.1173 -0.9859  0.2350
 6124TIP3    H240008   0.179   2.163   1.339  0.8104 -0.1158 -0.0045
 6125TIP3   OH240009   6.290   3.771   0.223  0.4116 -0.3549 -0.0153
 6125TIP3    H140010   6.316   3.810   0.306  2.7826 -0.3856 -0.6742
 6125TIP3    H240011   6.247   3.842   0.175  1.3610  0.4189  0.2473
 6126TIP3   OH240012   0.407   4.728   1.495  0.0715 -0.0032  0.4834
 6126TIP3    H140013   0.358   4.672   1.434  2.4261 -0.7024 -0.8959
 6126TIP3    H240014   0.352   4.805   1.506 -1.7211 -1.1071 -0.2673
 6127TIP3   OH240015   5.262   6.532   1.554  0.2445 -0.1193 -0.4800
 6127TIP3    H140016   5.205   6.493   1.488 -0.6139 -1.3507  0.9232
 6127TIP3    H240017   5.202   6.557   1.626  1.1316  1.2556 -0.1773
 6128TIP3   OH240018   3.147   5.828   2.622 -0.4747 -0.5168  0.4375
 6128TIP3    H140019   3.072   5.789   2.667 -1.7201 -0.2190 -1.2740
 6128TIP3    H240020   3.212   5.758   2.620 -1.1243 -1.1587  0.9927
 6129TIP3   OH240021   6.123   6.230   1.643  0.4068 -0.4805 -0.3810
 6129TIP3    H140022   6.109   6.187   1.728 -0.3857  0.1872 -0.1576
 6129TIP3    H240023   6.216   6.252   1.642 -0.1022  2.3565  1.7341
 6130TIP3   OH240024   4.176   2.629   2.232 -0.0279  0.4082  0.0669
 6130TIP3    H140025   4.270   2.613   2.223 -0.2910 -1.0382 -0.4868
 6130TIP3    H240026   4.152   2.583   2.312 -0.5077 -0.5133 -0.5896
 6131TIP3   OH240027   5.747   3.220   1.654  0.5091 -0.0668  0.7258
 6131TIP3    H140028   5.767   3.248   1.564  0.1584  0.5519  0.8318
 6131TIP3    H240029   5.683   3.150   1.643  1.8776 -1.3237  0.4287
 6132TIP3   OH240030   6.488   4.721   6.757  0.4943 -0.6995  0.3843
 6132TIP3    H140031   6.458   4.632   6.771 -0.1055 -0.4641  0.6416
 6132TIP3    H240032   6.408   4.772   6.747  0.8095 -0.0827  0.9368
 6133TIP3   OH240033   6.934   5.282   1.646  0.5985  0.6820 -0.2296
 6133TIP3    H140034   6.993   5.244   1.712  2.1687  1.3778 -1.1690
 6133TIP3    H240035   6.921   5.213   1.582 -0.9875 -0.0201  0.7985
 6134TIP3   OH240036   1.772   5.549   7.511 -0.0444  0.1312 -0.3427
 6134TIP3    H140037   1.704   5.481   7.518 -0.6147  0.5972 -1.2637
 6134TIP3    H240038   1.840   5.509   7.458  2.2289 -1.7430  3.5080
 6135TIP3   OH240039   5.092   0.913   1.176 -0.3589  0.2889 -0.2131
 6135TIP3    H140040   5.147   0.985   1.209 -2.5750  0.3209  4.2390
 6135TIP3    H240041   5.004   0.951   1.172 -1.0207 -1.2754 -1.3947
 6136TIP3   OH240042   5.923   1.424   1.225  0.0710  0.3200 -0.0091
 6136TIP3    H140043   5.941   1.382   1.141  0.8765  1.3857 -0.4019
 6136TIP3    H240044   5.902   1.352   1.285 -0.4458 -0.4608 -1.0954
 6137TIP3   OH240045   1.062   0.730   6.914  0.1779  0.1069  0.5602
 6137TIP3    H140046   1.102   0.813   6.939  0.3962 -0.1434  1.0674
 6137TIP3    H240047   1.066   0.729   6.818 -2.2426  1.8732  0.3450
 6138TIP3   OH240048   6.042   5.260   1.651 -0.5742 -0.5148 -0.4664
 6138TIP3    H140049   6.116   5.207   1.622  0.1815 -1.7229  3.0985
 6138TIP3    H240050   6.065   5.349   1.628  1.3903 -1.0308 -0.6444
 6139TIP3   OH240051   5.540   4.929   1.458  0.6345  0.1665  0.1631
 6139TIP3    H140052   5.498   4.851   1.420  0.6563  1.4589 -2.7915
 6139TIP3    H240053   5.475   4.963   1.519 -0.6256 -0.5313 -0.7379
 6140TIP3   OH240054   5.313   6.704   6.905 -0.2228  0.1839  0.2030
 6140TIP3    H140055   5.346   6.615   6.896  0.4529  0.4893 -0.4853
 6140TIP3    H240056   5.359   6.753   6.837  0.4485  1.3576  1.4490
 6141TIP3   OH240057   4.966   0.858   2.080  0.2524 -0.5638  0.2732
 6141TIP3    H140058   4.882   0.847   2.037 -0.3292  0.6430  1.0360
 6141TIP3    H240059   5.023   0.793   2.040 -0.5611 -0.2355 -1.4989
 6142TIP3   OH240060   2.514   4.794   0.218  0.3596  0.0344 -0.1934
 6142TIP3    H140061   2.568   4.735   0.271  0.4601  1.5726  1.5288
 6142TIP3    H240062   2.563   4.876   0.217 -1.0889  0.9350 -0.1108
 6143TIP3   OH240063   5.365   1.810   0.544  0.3848 -0.3800 -0.8273
 6143TIP3    H140064   5.410   1.792   0.627  0.0079 -2.6688 -1.0401
 6143TIP3    H240065   5.294   1.869   0.567  0.7340 -0.3921  0.3519
 6144TIP3   OH240066   0.927   3.476   7.466  0.0002  0.3297  0.6656
 6144TIP3    H140067   0.895   3.561   7.436  1.5979  0.7795  0.1303
 6144TIP3    H240068   1.002   3.457   7.409  0.6921 -0.6611  1.8493
 6145TIP3   OH240069   3.406   6.349   2.005  0.6271  0.1414  0.0782
 6145TIP3    H140070   3.491   6.305   2.015  0.2997 -0.3810  0.6687
 6145TIP3    H240071   3.347   6.297   2.060  0.1654  1.1515  0.5560
 6146TIP3   OH240072   3.889   0.668   2.656  0.2433  0.1068 -0.1159
 6146TIP3    H140073   3.859   0.754   2.625 -0.3875  1.3365  3.4245
 6146TIP3    H240074   3.969   0.687   2.705  1.5765 -1.7946 -1.4074
 6147TIP3   OH240075   5.402   6.185   2.380  0.2647 -0.4574 -0.0298
 6147TIP3    H140076   5.381   6.225   2.465 -0.6417 -1.0768  0.0423
 6147TIP3    H240077   5.324   6.136   2.356 -0.1036  0.9593 -1.9804
 6148TIP3   OH240078   4.682   1.250   2.014  0.3904  0.3525 -0.1389
 6148TIP3    H140079   4.668   1.169   2.063  2.3526  0.7100  1.1188
 6148TIP3    H240080   4.642   1.233   1.929 -0.6562 -1.3358  0.6283
 6149TIP3   OH240081   5.925   6.460   0.219 -0.8149  0.4972  0.3784
 6149TIP3    H140082   5.884   6.398   0.278 -1.0624  0.8838  0.6131
 6149TIP3    H240083   5.984   6.511   0.274  1.1551 -1.0273 -0.1844
 6150TIP3   OH240084   5.163   0.052   7.717 -0.6087 -0.1376  0.1552
 6150TIP3    H140085   5.114  -0.029   7.704 -0.2379 -0.5815  1.4285
 6150TIP3    H240086   5.113   0.101   7.782 -0.8977  0.7333 -0.6972
 6151TIP3   OH240087   4.606   6.755   0.883  0.4075  0.4423 -0.9282
 6151TIP3    H140088   4.516   6.787   0.879  0.4562  0.5873 -0.8678
 6151TIP3    H240089   4.614   6.696   0.808  0.2144  0.3051 -0.8416
 6152TIP3   OH240090   2.963   0.941   1.108 -0.3901 -0.2579  0.2182
 6152TIP3    H140091   2.903   0.908   1.175  0.8090 -0.7705  1.0856
 6152TIP3    H240092   2.955   1.036   1.112 -1.0249 -0.3167  0.4175
 6153TIP3   OH240093   2.865   6.553   0.475 -0.5384 -0.1979 -0.2867
 6153TIP3    H140094   2.840   6.468   0.438 -1.2844  0.2520 -0.8415
 6153TIP3    H240095   2.932   6.586   0.414  0.1297 -0.6010  0.2102
 6154TIP3   OH240096   1.456   0.759   0.242 -0.1383  0.3987  0.4506
 6154TIP3    H140097   1.417   0.781   0.327  0.1136  0.6153  0.5113
 6154TIP3    H240098   1.543   0.726   0.264  0.8015  2.5149  0.1631
 6155TIP3   OH240099   0.340   3.272   7.723 -0.0295  0.4381  0.1053
 6155TIP3    H140100   0.410   3.256   7.659 -2.0947  0.2384 -2.2878
 6155TIP3    H240101   0.323   3.186   7.762  1.0379  0.4918  0.7024
 6156TIP3   OH240102   2.025   2.400   2.906  0.5179  0.1014  0.0283
 6156TIP3    H140103   1.972   2.479   2.918 -0.2922 -0.1845 -1.4724
 6156TIP3    H240104   2.115   2.429   2.919  0.2208  1.2478 -0.4024
 6157TIP3   OH240105   2.725   4.229   0.575 -0.0233  0.3069  0.8808
 6157TIP3    H140106   2.648   4.274   0.542  0.0752  1.2595  1.8717
 6157TIP3    H240107   2.714   4.138   0.548 -0.6201  0.7625 -0.4888
 6158TIP3   OH240108   2.796   0.169   8.209 -0.1402  0.4958 -0.4994
 6158TIP3    H140109   2.706   0.156   8.238  0.7587 -3.0410  1.2192
 6158TIP3    H240110   2.806   0.110   8.134  0.8168  0.7274 -0.5704
 6159TIP3   OH240111   6.129   0.272   7.530  0.1787  0.1763  0.6626
 6159TIP3    H140112   6.099   0.316   7.450 -0.5454 -0.3111  0.6539
 6159TIP3    H240113   6.225   0.278   7.526  0.2280 -0.9461 -0.9034
 6160TIP3   OH240114   6.179   4.577   7.290 -0.0605  0.3431 -0.1442
 6160TIP3    H140115   6.230   4.646   7.333  2.5769 -0.9942 -0.9254
 6160TIP3    H240116   6.155   4.517   7.361  1.0725  0.0487  0.0035
 6161TIP3   OH240117   5.098   6.044   0.668  0.3686  0.4696 -0.3684
 6161TIP3    H140118   5.067   6.063   0.756 -2.3263  0.8931 -1.3381
 6161TIP3    H240119   5.148   6.122   0.643  2.6889 -0.3561  1.3395
 6162TIP3   OH240120   3.284   2.241   0.169 -0.6454 -0.0442 -0.1452
 6162TIP3    H140121   3.298   2.194   0.251 -0.4541  0.7017  0.2520
 6162TIP3    H240122   3.346   2.202   0.108  2.4272  2.3086  1.2184
 6163TIP3   OH240123   5.021   1.198   0.469  0.6784 -0.1858  0.2521
 6163TIP3    H140124   5.104   1.151   0.465  1.1201  0.5721  0.3476
 6163TIP3    H240125   5.018   1.235   0.557  0.0315 -0.5652  0.3982
 6164TIP3   OH240126   1.331   1.564   0.260 -0.0693 -0.6760  0.6285
 6164TIP3    H140127   1.404   1.519   0.217 -0.6833 -1.3943  0.3222
 6164TIP3    H240128   1.253   1.521   0.226 -0.6106 -0.5153  1.6265
 6165TIP3   OH240129   4.351   2.684   1.248  0.4363  0.0231 -0.0165
 6165TIP3    H140130   4.390   2.622   1.309  0.6593 -0.7668 -0.9367
 6165TIP3    H240131   4.339   2.764   1.299  2.1586 -0.0810  0.6184
 6166TIP3   OH240132   5.214   1.661   7.554 -0.0684 -0.9059  0.4657
 6166TIP3    H140133   5.306   1.649   7.533 -0.0044 -0.2785  0.3825
 6166TIP3    H240134   5.167   1.616   7.484  0.1708 -1.0411  0.3925
 6167TIP3   OH240135   2.668   6.508   1.187  0.1324  0.1287 -0.1236
 6167TIP3    H140136   2.619   6.584   1.218 -0.7884 -0.4708 -0.0517
 6167TIP3    H240137   2.759   6.527   1.208 -0.0996  1.1740 -0.0461
 6168TIP3   OH240138   4.271   5.159   7.428  0.1023  0.6259 -0.0237
 6168TIP3    H140139   4.293   5.251   7.439 -0.5474  0.8974 -0.8455
 6168TIP3    H240140   4.311   5.115   7.502  0.5794  1.5468  0.2734
 6169TIP3   OH240141   0.377   5.341   8.010  0.0161  0.1205  0.0368
 6169TIP3    H140142   0.429   5.397   7.953  0.4278  0.4790  0.7553
 6169TIP3    H240143   0.420   5.346   8.095 -1.8828  1.4040  0.9866
 6170TIP3   OH240144   1.319   5.854   7.461 -0.4349  0.4067 -0.0596
 6170TIP3    H140145   1.282   5.821   7.380 -2.4315 -0.9220  1.3062
 6170TIP3    H240146   1.382   5.787   7.488  0.1825  0.8181 -0.4356
 6171TIP3   OH240147   6.785   6.514   7.494  0.5857 -0.5735 -0.0586
 6171TIP3    H140148   6.817   6.503   7.404  1.7369 -1.6843  0.4479
 6171TIP3    H240149   6.865   6.519   7.547 -0.0767 -1.1935  1.0261
 6172TIP3   OH240150   6.813   3.775   0.338 -0.3966  0.2558 -0.6421
 6172TIP3    H140151   6.828   3.725   0.258 -0.6004  0.1121 -0.5914
 6172TIP3    H240152   6.844   3.864   0.317  0.6799 -0.0621 -0.4801
 6173TIP3   OH240153   2.577   4.196   6.706 -0.8548 -0.4345 -0.0297
 6173TIP3    H140154   2.596   4.254   6.778 -1.8278 -0.3808  0.2042
 6173TIP3    H240155   2.580   4.108   6.744 -0.2576 -0.4792 -0.1809
 6174TIP3   OH240156   5.017   5.784   6.590 -0.7282 -0.0260  0.3337
 6174TIP3    H140157   5.101   5.746   6.565 -0.3357  0.1895  1.2906
 6174TIP3    H240158   5.002   5.854   6.527  0.8681  1.3625  1.4005
 6175TIP3   OH240159   5.262   5.527   0.076 -0.0956  0.7708 -0.0806
 6175TIP3    H140160   5.203   5.507   0.003 -1.2182 -0.1499  1.0397
 6175TIP3    H240161   5.315   5.601   0.045 -2.0555  1.8406 -1.0175
 6176TIP3   OH240162   4.478   3.348   7.699 -0.2536 -0.4216 -0.0270
 6176TIP3    H140163   4.513   3.410   7.763  2.6065 -1.4428 -0.4559
 6176TIP3    H240164   4.488   3.393   7.615 -0.8336 -0.3780 -0.0723
 6177TIP3   OH240165   6.442   5.355   1.345  0.4415  0.1565 -0.5989
 6177TIP3    H140166   6.474   5.344   1.434  0.7841  0.8041 -0.6389
 6177TIP3    H240167   6.473   5.441   1.318  1.0793 -0.3739 -1.6437
 6178TIP3   OH240168   5.734   0.267   0.511 -0.4289 -0.1214 -0.7373
 6178TIP3    H140169   5.677   0.319   0.568  1.6723  0.3991  1.0324
 6178TIP3    H240170   5.795   0.331   0.474  0.8346 -1.0004 -0.2500
 6179TIP3   OH240171   4.513   5.115   1.026  0.3216  0.8541 -0.0585
 6179TIP3    H140172   4.595   5.078   1.060 -0.7745 -1.7061  0.0854
 6179TIP3    H240173   4.488   5.055   0.955 -1.9410  0.8928  0.6245
 6180TIP3   OH240174   4.398   0.086   3.148  0.5460  0.0222  0.5036
 6180TIP3    H140175   4.461   0.014   3.149  0.2073 -0.2757  1.3181
 6180TIP3    H240176   4.317   0.047   3.182  0.5266  0.9412  1.5550
 6181TIP3   OH240177   6.954   0.058   2.083 -0.1697 -0.0201  0.8223
 6181TIP3    H140178   6.878   0.004   2.060  0.0791  0.6680 -1.8759
 6181TIP3    H240179   7.029  -0.001   2.075 -0.1867 -0.0891  1.1418
 6182TIP3   OH240180   6.240   5.386   7.821  0.3358  0.6108 -0.0570
 6182TIP3    H140181   6.324   5.370   7.864  0.4144 -0.9776 -0.7255
 6182TIP3    H240182   6.176   5.384   7.892  0.7750  1.0151  0.3542
 6183TIP3   OH240183   4.779   5.529   6.887  0.0454 -0.0269 -0.0178
 6183TIP3    H140184   4.763   5.617   6.854 -2.5188 -1.3179 -2.7720
 6183TIP3    H240185   4.705   5.511   6.945 -1.1418 -1.2867 -1.8153
 6184TIP3   OH240186   3.591   2.741   1.648 -0.0644  0.1121  0.7911
 6184TIP3    H140187   3.564   2.658   1.607  0.6602  1.0127 -1.6949
 6184TIP3    H240188   3.524   2.757   1.715 -2.8669 -0.3003 -1.6641
 6185TIP3   OH240189   2.504   5.426   0.028  1.0573 -0.9692  0.3922
 6185TIP3    H140190   2.504   5.331   0.038  1.1784 -1.6002 -3.8817
 6185TIP3    H240191   2.424   5.446  -0.021  2.6255  0.6215 -1.7237
 6186TIP3   OH240192   2.946   1.928   2.642  0.2763  0.6294 -0.5654
 6186TIP3    H140193   2.959   1.833   2.651 -0.1347  0.7646  2.1534
 6186TIP3    H240194   3.031   1.966   2.661  0.1628  0.8626 -0.5272
 6187TIP3   OH240195   4.640   6.900   8.409 -0.1926 -0.1093  0.3878
 6187TIP3    H140196   4.671   6.947   8.332  0.3074 -1.8205 -0.5000
 6187TIP3    H240197   4.719   6.877   8.457 -0.1800 -2.2969 -0.5778
 6188TIP3   OH240198   1.315   3.485   0.874 -0.3662  0.6691  0.0809
 6188TIP3    H140199   1.253   3.413   0.874  1.5742 -1.5101  4.9852
 6188TIP3    H240200   1.278   3.548   0.936  0.7129  0.9288  0.4862
 6189TIP3   OH240201   0.967   5.897   7.445 -0.0331 -0.1382  0.0519
 6189TIP3    H140202   0.925   5.938   7.369  1.1696  0.6948 -0.1909
 6189TIP3    H240203   0.968   5.804   7.423 -0.2178  0.0252 -0.7049
 6190TIP3   OH240204   5.073   2.886   2.195  0.0918 -0.0335  0.3853
 6190TIP3    H140205   5.163   2.915   2.204 -0.5426  2.3016 -0.1590
 6190TIP3    H240206   5.022   2.966   2.192 -1.7534 -1.1586 -2.3533
 6191TIP3   OH240207   0.507   4.711   1.102  0.1087  0.4027 -0.7655
 6191TIP3    H140208   0.527   4.618   1.102 -1.9595 -0.0733 -1.2038
 6191TIP3    H240209   0.585   4.752   1.141  0.5218 -1.5932  0.6426
 6192TIP3   OH240210   0.699   4.471   0.978  0.7517  0.0745 -0.0991
 6192TIP3    H140211   0.721   4.415   0.903  2.2406 -0.6237  0.8071
 6192TIP3    H240212   0.769   4.536   0.980  1.1111 -0.3280  1.0566
 6193TIP3   OH240213   1.058   6.864   2.704  0.4244  0.3783 -0.1982
 6193TIP3    H140214   1.015   6.807   2.641 -1.2335 -0.6759  1.7446
 6193TIP3    H240215   0.988   6.889   2.765  2.1195  0.4432  1.8263
 6194TIP3   OH240216   6.032   1.868   8.399 -0.5581 -0.3514  0.3596
 6194TIP3    H140217   6.013   1.778   8.424  0.0101 -0.2965  1.0264
 6194TIP3    H240218   6.124   1.881   8.424 -0.8742  0.6722  1.0542
 6195TIP3   OH240219   3.748   3.162   1.381  0.3679  0.6351 -0.5135
 6195TIP3    H140220   3.707   3.249   1.386 -0.6778  0.1013  0.6055
 6195TIP3    H240221   3.736   3.125   1.468  0.7799 -0.6560 -0.9877
 6196TIP3   OH240222   1.266   2.224   8.091 -0.1035 -0.4373  0.0628
 6196TIP3    H140223   1.268   2.302   8.146  0.6179 -0.0781 -0.4539
 6196TIP3    H240224   1.223   2.252   8.010 -1.3618 -1.0184  0.4933
 6197TIP3   OH240225   4.315   5.017   7.949  0.6972  0.3158  0.0538
 6197TIP3    H140226   4.260   5.049   7.878  0.4009 -0.1609  0.0643
 6197TIP3    H240227   4.272   4.937   7.979 -0.0676  1.3261  1.8373
 6198TIP3   OH240228   4.910   6.333   0.138 -0.4305 -0.0725 -0.0706
 6198TIP3    H140229   4.999   6.353   0.167 -0.6653 -0.1372  0.7083
 6198TIP3    H240230   4.915   6.338   0.042  0.6483 -1.0955 -0.0907
 6199TIP3   OH240231   0.366   0.095   7.521 -0.6404  0.3731  0.7378
 6199TIP3    H140232   0.352   0.008   7.558 -2.5991 -0.2833 -1.3365
 6199TIP3    H240233   0.431   0.082   7.452  0.9486  1.0825  2.0344
 6200TIP3   OH240234   2.722   5.835   2.683  0.4950 -0.1534  0.1387
 6200TIP3    H140235   2.671   5.893   2.739 -0.7746  0.0048 -1.1175
 6200TIP3    H240236   2.799   5.811   2.736  0.9696  2.4782  0.7606
 6201TIP3   OH240237   6.447   4.118   1.860  0.1590 -0.2155  0.2496
 6201TIP3    H140238   6.464   4.172   1.784  2.1156  0.1099  0.8720
 6201TIP3    H240239   6.454   4.028   1.828 -0.6661 -0.1034 -0.2733
 6202TIP3   OH240240   1.041   3.259   6.818 -0.3902  0.2846  0.5812
 6202TIP3    H140241   1.112   3.288   6.876  0.2681 -0.5161  0.2057
 6202TIP3    H240242   1.079   3.185   6.770 -1.4998 -0.1877  0.4053
 6203TIP3   OH240243   4.287   0.419   1.383  0.6912 -0.6542 -0.3526
 6203TIP3    H140244   4.334   0.452   1.307 -1.0577  0.9372 -0.8274
 6203TIP3    H240245   4.238   0.494   1.415 -0.7002 -1.9542  0.7152
 6204TIP3   OH240246   2.566   1.854   0.432 -0.0482 -0.1770 -1.0157
 6204TIP3    H140247   2.481   1.824   0.463  0.0572  0.3463 -0.1670
 6204TIP3    H240248   2.554   1.870   0.339 -0.3940 -1.7885 -1.2860
 6205TIP3   OH240249   6.640   4.613   0.963  0.3956 -0.0299 -0.4271
 6205TIP3    H140250   6.576   4.646   0.900  1.1678 -2.1140 -2.4419
 6205TIP3    H240251   6.588   4.562   1.025 -0.2002  0.7017 -0.3076
 6206TIP3   OH240252   4.509   6.140   7.304 -0.1278 -0.6792  0.1906
 6206TIP3    H140253   4.509   6.050   7.338 -1.6051 -0.0314  2.0992
 6206TIP3    H240254   4.442   6.185   7.356 -1.1773  0.9310 -2.3837
 6207TIP3   OH240255   6.821   3.534   0.148 -0.2144 -0.0936 -0.0317
 6207TIP3    H140256   6.797   3.606   0.091  0.7174  0.8876  0.7743
 6207TIP3    H240257   6.917   3.538   0.153 -0.2530 -0.4009  1.2553
 6208TIP3   OH240258   2.844   0.642   3.103 -0.5963 -0.2624 -0.3368
 6208TIP3    H140259   2.813   0.600   3.184 -0.0939  0.6170  0.3365
 6208TIP3    H240260   2.936   0.615   3.096 -0.3965  0.3493 -0.1398
 6209TIP3   OH240261   4.856   3.083   1.433 -0.0615  0.1740 -0.2564
 6209TIP3    H140262   4.871   3.152   1.369  1.6327  0.2095  0.1281
 6209TIP3    H240263   4.899   3.114   1.513  1.8365 -1.7906 -0.4152
 6210TIP3   OH240264   0.933   6.141   0.060  0.2026 -0.0002 -0.2785
 6210TIP3    H140265   0.931   6.223   0.011  0.9711 -1.0780 -2.2201
 6210TIP3    H240266   1.026   6.123   0.072  0.0294  0.0047  1.2290
 6211TIP3   OH240267   3.898   2.264   1.352 -0.1983 -0.8723  0.0640
 6211TIP3    H140268   3.817   2.312   1.367 -0.8820 -1.6574 -1.0129
 6211TIP3    H240269   3.964   2.311   1.404 -0.9986  0.7329 -0.3146
 6212TIP3   OH240270   4.721   2.485   7.025 -0.2732  0.3422 -0.3905
 6212TIP3    H140271   4.777   2.463   7.101  1.3714 -0.0071 -1.6358
 6212TIP3    H240272   4.638   2.441   7.044  0.4502 -0.6342  0.7252
 6213TIP3   OH240273   4.693   5.877   0.586 -0.3692  0.1913 -0.1145
 6213TIP3    H140274   4.628   5.808   0.595  0.4854 -0.5100  0.8007
 6213TIP3    H240275   4.768   5.834   0.545  0.9713  0.0217  2.3821
 6214TIP3   OH240276   6.822   4.100   0.744  0.0958 -0.5194  0.4672
 6214TIP3    H140277   6.877   4.044   0.798  2.4625  0.7585 -0.4705
 6214TIP3    H240278   6.828   4.187   0.785  0.9198  0.1984 -1.0881
 6215TIP3   OH240279   1.993   2.756   2.638 -0.2209 -0.2939  0.6713
 6215TIP3    H140280   2.055   2.785   2.572  0.2706 -0.4507  1.0540
 6215TIP3    H240281   1.908   2.758   2.595  0.3286 -2.3971 -0.6078
 6216TIP3   OH240282   0.162   0.144   1.452  0.0854 -0.2793  0.6479
 6216TIP3    H140283   0.088   0.193   1.418 -0.2987 -0.1473  1.6446
 6216TIP3    H240284   0.191   0.194   1.528  1.6846  0.0907 -0.1475
 6217TIP3   OH240285   6.325   0.756   1.905 -0.5002 -0.4125 -0.0651
 6217TIP3    H140286   6.341   0.839   1.950  0.3664  0.1805 -1.4147
 6217TIP3    H240287   6.293   0.698   1.974 -0.0147  0.6956  1.1447
 6218TIP3   OH240288   2.626   6.689   0.503 -0.0098 -0.2184  0.9394
 6218TIP3    H140289   2.566   6.622   0.534 -0.8926 -0.0410 -0.3276
 6218TIP3    H240290   2.709   6.642   0.489  0.1687 -0.4775  2.5875
 6219TIP3   OH240291   1.424   6.628   7.798  0.2615 -0.3100 -0.2416
 6219TIP3    H140292   1.451   6.543   7.832  0.9746  0.0380  0.0961
 6219TIP3    H240293   1.383   6.672   7.872 -0.7843 -0.6262 -0.6113
 6220TIP3   OH240294   1.881   3.134   0.123  0.4722  0.3233  0.0381
 6220TIP3    H140295   1.815   3.065   0.131  0.2208  0.5066 -0.4420
 6220TIP3    H240296   1.846   3.206   0.175  0.1228  0.5448 -0.4933
 6221TIP3   OH240297   6.307   0.515   7.725 -0.3838  0.2104  0.3568
 6221TIP3    H140298   6.389   0.506   7.676 -0.1446  0.2402  0.7511
 6221TIP3    H240299   6.250   0.563   7.666 -0.4029 -0.5493 -0.2617
 6222TIP3   OH240300   1.456   3.769   7.394 -0.2249 -0.6370 -0.1520
 6222TIP3    H140301   1.408   3.839   7.440 -1.9967 -2.6336  1.2370
 6222TIP3    H240302   1.388   3.720   7.348  1.3217  0.3592 -3.8767
 6223TIP3   OH240303   2.810   5.611   2.137  0.2511  0.1829  0.2749
 6223TIP3    H140304   2.801   5.516   2.140  1.7849 -0.0267 -0.5821
 6223TIP3    H240305   2.722   5.644   2.153 -0.1020 -1.3343  1.7403
 6224TIP3   OH240306   1.374   1.693   2.059  0.0243  0.7606  0.3832
 6224TIP3    H140307   1.337   1.646   1.983 -0.3312  1.5717  0.0402
 6224TIP3    H240308   1.306   1.756   2.083  1.0790  2.1574 -0.1351
 6225TIP3   OH240309   3.794   1.342   0.963  0.6128 -0.6517  0.4496
 6225TIP3    H140310   3.699   1.353   0.959  0.8556  1.4749 -0.3576
 6225TIP3    H240311   3.825   1.419   1.011  2.1056 -0.0342 -1.4181
 6226TIP3   OH240312   4.617   2.446   2.865  1.1221 -0.2786  0.8646
 6226TIP3    H140313   4.612   2.485   2.778 -3.3136 -3.6703 -0.7221
 6226TIP3    H240314   4.542   2.483   2.912 -0.2873 -3.0151  0.9403
 6227TIP3   OH240315   3.792   3.935   0.593 -0.0830  0.0025 -0.3926
 6227TIP3    H140316   3.722   3.978   0.544  1.0151  2.0928 -0.2233
 6227TIP3    H240317   3.770   3.950   0.685 -0.2764 -0.8319 -0.2919
 6228TIP3   OH240318   0.983   0.206   3.247 -0.3475  0.4173 -0.1616
 6228TIP3    H140319   0.971   0.289   3.292 -0.2743  0.8099 -0.8584
 6228TIP3    H240320   0.988   0.229   3.154 -1.5712 -0.4901 -0.4751
 6229TIP3   OH240321   0.752   1.549   7.756 -1.0781 -0.3097  0.2833
 6229TIP3    H140322   0.802   1.485   7.808  0.0827  0.0313 -0.3873
 6229TIP3    H240323   0.664   1.511   7.751 -1.1537 -0.4903  2.2451
 6230TIP3   OH240324   4.969   1.801   8.210  0.0552 -0.3528 -0.6531
 6230TIP3    H140325   4.889   1.765   8.247 -0.8014  0.1104 -1.9720
 6230TIP3    H240326   4.990   1.744   8.136  0.1951  0.2738 -1.1146
 6231TIP3   OH240327   0.364   2.494   8.442  0.6317  0.1707  0.0224
 6231TIP3    H140328   0.328   2.532   8.522 -2.3762 -0.3204 -0.9855
 6231TIP3    H240329   0.432   2.557   8.414 -1.4239  2.7920  0.5248
 6232TIP3   OH240330   0.287   6.275   0.709  0.4003 -0.5559 -0.5553
 6232TIP3    H140331   0.193   6.258   0.714 -0.7146  4.2150  0.1529
 6232TIP3    H240332   0.320   6.255   0.797 -1.2790  2.6659  0.9967
 6233TIP3   OH240333   5.494   5.650   1.302 -0.5815  0.6040  0.2531
 6233TIP3    H140334   5.479   5.687   1.215  1.1530 -2.4169 -1.5116
 6233TIP3    H240335   5.415   5.599   1.320 -1.1260  1.5745  0.7098
 6234TIP3   OH240336   1.604   5.206   6.345  0.0883  0.3153 -0.4540
 6234TIP3    H140337   1.586   5.240   6.433  0.6735  0.7542 -0.5035
 6234TIP3    H240338   1.671   5.139   6.358  0.0309  0.2400 -0.5422
 6235TIP3   OH240339   2.465   3.438   2.254 -1.0592  0.3962  0.5875
 6235TIP3    H140340   2.370   3.435   2.258 -1.0549 -0.7351  0.1981
 6235TIP3    H240341   2.494   3.426   2.344 -1.2679 -2.2888  0.3777
 6236TIP3   OH240342   1.409   5.158   2.160  0.5340 -0.2975  0.1218
 6236TIP3    H140343   1.428   5.213   2.236 -1.9793 -0.6785  1.1315
 6236TIP3    H240344   1.485   5.168   2.102  1.1190  2.4856  1.2504
 6237TIP3   OH240345   2.482   3.132   1.395  0.1004 -0.5932  0.2152
 6237TIP3    H140346   2.500   3.038   1.391  0.0788 -0.7236  2.2003
 6237TIP3    H240347   2.556   3.173   1.349  0.6931 -1.5465  0.2934
 6238TIP3   OH240348   4.828   6.501   0.363  0.0925  0.4975  0.4815
 6238TIP3    H140349   4.827   6.430   0.298 -0.1064 -0.2747  1.3121
 6238TIP3    H240350   4.791   6.576   0.317  0.1985  0.0345 -0.3783
 6239TIP3   OH240351   0.459   4.987   7.073 -0.0162 -0.2387 -0.4867
 6239TIP3    H140352   0.499   4.946   7.150  1.8258  1.8827 -0.1945
 6239TIP3    H240353   0.366   4.967   7.081  0.4511 -2.1219  0.9610
 6240TIP3   OH240354   4.561   3.248   1.009 -0.0336  0.7695 -0.6107
 6240TIP3    H140355   4.512   3.274   0.930  0.0142  2.1404 -0.2209
 6240TIP3    H240356   4.496   3.251   1.079  0.1721  0.6821 -0.4160
 6241TIP3   OH240357   1.520   0.051   0.324 -0.1249 -0.6077 -0.4553
 6241TIP3    H140358   1.581   0.124   0.333  0.9215 -1.2381 -2.0287
 6241TIP3    H240359   1.544  -0.009   0.394  0.8574 -0.6989 -0.8573
 6242TIP3   OH240360   1.771   4.367   8.426 -0.1729 -0.3559  0.1077
 6242TIP3    H140361   1.842   4.303   8.423  0.6473  0.5129  0.5370
 6242TIP3    H240362   1.710   4.338   8.359  0.7060 -0.9728 -0.4505
 6243TIP3   OH240363   1.705   4.188   8.246 -0.1416  0.2776 -0.1788
 6243TIP3    H140364   1.791   4.174   8.208  0.1121  0.0894  0.4374
 6243TIP3    H240365   1.646   4.131   8.196  0.0857  0.4375 -0.6250
 6244TIP3   OH240366   5.128   1.423   1.777 -0.0746  0.0869 -0.0291
 6244TIP3    H140367   5.166   1.357   1.719 -1.2345 -0.0342 -0.6616
 6244TIP3    H240368   5.175   1.411   1.860  0.9449 -0.3590 -0.6484
 6245TIP3   OH240369   4.009   3.589   2.288 -0.3483 -0.2352  0.3665
 6245TIP3    H140370   3.923   3.577   2.248 -0.8235  2.4723  0.3437
 6245TIP3    H240371   4.000   3.552   2.376 -1.7400  0.4257  0.5358
 6246TIP3   OH240372   4.806   5.837   1.177 -0.3421  0.4474 -0.0540
 6246TIP3    H140373   4.802   5.933   1.171  0.4968  0.4098 -2.0699
 6246TIP3    H240374   4.760   5.806   1.099  0.3758 -0.7519 -0.0300
 6247TIP3   OH240375   4.338   0.718   1.452  0.0348 -0.2010 -0.5712
 6247TIP3    H140376   4.293   0.663   1.517  0.2548 -0.0026 -0.2447
 6247TIP3    H240377   4.382   0.785   1.505 -1.8796  1.5397 -1.0625
 6248TIP3   OH240378   5.885   1.766   7.709 -0.2892 -0.4501  0.7080
 6248TIP3    H140379   5.923   1.777   7.622 -0.8643 -2.0190  0.2416
 6248TIP3    H240380   5.943   1.817   7.766  0.9947 -0.6573 -0.3541
 6249TIP3   OH240381   4.732   0.026   0.805  0.0622 -0.3046  0.6867
 6249TIP3    H140382   4.681  -0.040   0.851  0.0120 -0.3934  0.5004
 6249TIP3    H240383   4.670   0.071   0.748 -0.2200  0.8748  1.8653
 6250TIP3   OH240384   5.998   3.096   7.677 -0.5226 -0.0914  0.1073
 6250TIP3    H140385   5.935   3.086   7.606 -0.1156  1.9134 -0.6094
 6250TIP3    H240386   6.081   3.065   7.641 -0.4759  0.1995 -0.0409
 6251TIP3   OH240387   6.558   5.900   8.284  0.4020  0.2749  0.2611
 6251TIP3    H140388   6.611   5.902   8.364  1.5758 -0.0872 -0.4790
 6251TIP3    H240389   6.608   5.846   8.223  0.0034  1.2936 -1.0388
 6252TIP3   OH240390   2.135   3.999   0.942  0.8983  0.1623  0.3560
 6252TIP3    H140391   2.052   4.047   0.946 -0.3212 -1.6762 -1.1057
 6252TIP3    H240392   2.199   4.065   0.917 -0.1261  1.5937  1.3282
 6253TIP3   OH240393   0.073   5.661   0.269 -0.2076  0.8593 -0.5710
 6253TIP3    H140394   0.168   5.658   0.257  0.1858  2.9263  1.2253
 6253TIP3    H240395   0.053   5.581   0.318  0.5873  0.3730 -1.0123
 6254TIP3   OH240396   3.260   1.916   1.194  0.0682  0.9359 -0.4232
 6254TIP3    H140397   3.197   1.988   1.190 -0.4231  0.4636 -1.4834
 6254TIP3    H240398   3.322   1.935   1.124 -0.6040 -0.1482 -1.3372
 6255TIP3   OH240399   1.009   1.309   0.691 -0.3838 -0.0548 -0.3033
 6255TIP3    H140400   1.050   1.235   0.736  1.1846  0.7505 -0.3284
 6255TIP3    H240401   0.917   1.305   0.717  0.1542 -0.5367  1.7451
 6256TIP3   OH240402   4.498   2.177   0.574  0.0732 -0.0580 -0.1055
 6256TIP3    H140403   4.465   2.248   0.519  2.6648  0.3042 -1.3519
 6256TIP3    H240404   4.442   2.179   0.652  0.1887  3.5905  0.0775
 6257TIP3   OH240405   2.646   1.516   1.921  0.0326 -0.3049 -0.9281
 6257TIP3    H140406   2.640   1.583   1.990  0.7073  0.0199 -1.1754
 6257TIP3    H240407   2.589   1.549   1.851 -2.6882 -1.8438  0.4030
 6258TIP3   OH240408   5.410   2.974   1.344 -0.1801 -0.0832  0.0540
 6258TIP3    H140409   5.329   2.992   1.391 -0.4093  1.1693 -0.7625
 6258TIP3    H240410   5.383   2.964   1.252  0.4405 -0.9205 -0.0501
 6259TIP3   OH240411   5.490   1.136   1.540 -0.5080 -0.1831  0.7407
 6259TIP3    H140412   5.527   1.168   1.458 -1.8147  2.1134  0.9522
 6259TIP3    H240413   5.561   1.146   1.604  0.0366 -0.5378  0.2012
 6260TIP3   OH240414   1.054   2.539   0.141 -0.1578  0.4316  0.1178
 6260TIP3    H140415   1.100   2.569   0.219 -0.8198  0.4834  0.4898
 6260TIP3    H240416   0.980   2.488   0.174 -0.7351  0.8765 -0.4651
 6261TIP3   OH240417   1.967   6.538   0.237 -0.0192  0.8733 -0.0601
 6261TIP3    H140418   1.908   6.613   0.240 -1.2489 -0.0860  0.4481
 6261TIP3    H240419   1.970   6.514   0.144  1.1568  2.1240 -0.3684
 6262TIP3   OH240420   5.084   2.313   8.503 -0.2131 -0.2760 -0.1322
 6262TIP3    H140421   5.155   2.273   8.554  0.2020 -0.8716 -1.1497
 6262TIP3    H240422   5.091   2.406   8.523  0.2473 -0.4381  0.5190
 6263TIP3   OH240423   1.947   4.253   2.462  0.6440  0.4455  0.3991
 6263TIP3    H140424   1.979   4.219   2.378 -0.9686 -0.3369  0.0497
 6263TIP3    H240425   2.021   4.300   2.499  1.1970  1.4867 -1.8294
 6264TIP3   OH240426   2.831   0.730   2.291  0.0189  0.3471 -0.3510
 6264TIP3    H140427   2.904   0.782   2.258  0.7700 -0.1159  0.5472
 6264TIP3    H240428   2.786   0.788   2.352  1.6542 -0.4232  1.7025
 6265TIP3   OH240429   1.061   2.247   7.181 -0.7674  0.1645  0.5398
 6265TIP3    H140430   1.008   2.209   7.111  0.1212 -2.3282  1.1116
 6265TIP3    H240431   1.133   2.292   7.135 -0.8717 -0.3696 -0.1652
 6266TIP3   OH240432   2.211   1.497   1.797 -0.1630  0.2599 -0.0875
 6266TIP3    H140433   2.192   1.590   1.787  0.3486  0.4337  0.5259
 6266TIP3    H240434   2.302   1.488   1.767 -0.6543 -0.2972 -1.5175
 6267TIP3   OH240435   4.037   4.849   6.554 -0.1994  0.0047 -0.1965
 6267TIP3    H140436   4.104   4.810   6.498  0.0662 -0.4219  0.4121
 6267TIP3    H240437   3.979   4.894   6.493  0.2257 -0.2371 -0.7944
 6268TIP3   OH240438   1.749   2.498   2.080  0.1696  0.5830 -0.2677
 6268TIP3    H140439   1.772   2.576   2.030 -1.5843 -0.1761 -2.3823
 6268TIP3    H240440   1.658   2.511   2.105 -0.0839 -0.6992 -0.4723
 6269TIP3   OH240441   6.829   5.979   2.374  0.2332 -0.3982  0.0656
 6269TIP3    H140442   6.801   5.897   2.415  0.1007  0.4323  1.7215
 6269TIP3    H240443   6.921   5.988   2.399  0.1518  0.1215  0.1859
 6270TIP3   OH240444   1.667   2.172   8.531 -0.1077 -0.2376  0.8803
 6270TIP3    H140445   1.585   2.158   8.485  0.9234  0.3967 -1.2977
 6270TIP3    H240446   1.697   2.258   8.502  1.4542 -0.5660  1.3844
 6271TIP3   OH240447   0.326   2.234   7.494 -0.4728  0.0732  0.0976
 6271TIP3    H140448   0.328   2.254   7.400 -0.8931 -2.2206 -0.4696
 6271TIP3    H240449   0.262   2.294   7.530 -1.5236 -0.0779 -1.4096
 6272TIP3   OH240450   5.880   0.866   2.816 -0.1052 -0.3424 -0.5184
 6272TIP3    H140451   5.974   0.862   2.797 -0.0957 -0.4611 -0.4470
 6272TIP3    H240452   5.852   0.774   2.820 -0.6015 -0.3201 -2.3946
 6273TIP3   OH240453   4.581   2.676   8.383  0.5514  0.0363  0.0992
 6273TIP3    H140454   4.601   2.589   8.419 -0.5303 -0.5648 -0.6958
 6273TIP3    H240455   4.487   2.688   8.399  1.0094  1.8390  1.7748
 6274TIP3   OH240456   0.779   5.149   1.693 -0.2796 -0.1639  0.6987
 6274TIP3    H140457   0.757   5.242   1.703 -0.1007  0.1579 -1.3069
 6274TIP3    H240458   0.867   5.142   1.728  0.1496  0.7014 -0.1377
 6275TIP3   OH240459   0.305   6.094   7.791  0.2841 -0.1713 -0.6187
 6275TIP3    H140460   0.388   6.070   7.833 -0.0990 -2.3233 -0.9617
 6275TIP3    H240461   0.239   6.080   7.860  0.1667  1.4934 -0.3566
 6276TIP3   OH240462   2.553   5.692   2.229  0.0045 -0.5976  0.1713
 6276TIP3    H140463   2.575   5.666   2.318  3.3329  0.0603 -0.3286
 6276TIP3    H240464   2.484   5.632   2.202 -1.3037 -0.6504  3.2120
 6277TIP3   OH240465   3.578   2.035   2.546 -0.0975  0.0675  0.1282
 6277TIP3    H140466   3.665   1.998   2.562  0.4131  1.4480  0.6742
 6277TIP3    H240467   3.535   2.034   2.631  0.3482  1.7326  0.4084
 6278TIP3   OH240468   3.524   6.071   2.033  0.0205 -0.5687  0.6518
 6278TIP3    H140469   3.445   6.033   2.073 -0.0114 -1.2166 -0.0184
 6278TIP3    H240470   3.574   5.995   2.002 -0.7319 -0.0413 -2.0222
 6279TIP3   OH240471   5.328   2.954   2.142  0.1254  0.5529 -0.2773
 6279TIP3    H140472   5.405   2.905   2.173  0.0474  0.8528  0.4062
 6279TIP3    H240473   5.364   3.038   2.113  0.1485  0.4165 -0.6475
 6280TIP3   OH240474   4.354   0.314   6.565 -0.0259 -0.3917  0.3592
 6280TIP3    H140475   4.347   0.363   6.647  0.1701 -0.9926  0.7387
 6280TIP3    H240476   4.275   0.339   6.517 -0.0784  0.0670  0.6688
 6281TIP3   OH240477   5.675   2.317   0.465  0.1779 -0.1440 -0.0408
 6281TIP3    H140478   5.586   2.311   0.431  0.9469  0.5498 -2.3670
 6281TIP3    H240479   5.685   2.240   0.521 -1.6049 -0.6603 -0.3865
 6282TIP3   OH240480   0.052   6.381   7.871 -0.4018  0.0331  0.0249
 6282TIP3    H140481  -0.014   6.328   7.826 -0.9545  2.3455 -2.1065
 6282TIP3    H240482   0.129   6.376   7.814  0.1694  0.0199  0.7925
 6283TIP3   OH240483   4.184   1.858   2.077  1.0000  0.0234 -0.2720
 6283TIP3    H140484   4.235   1.779   2.090  1.2175  0.1715 -0.2148
 6283TIP3    H240485   4.197   1.908   2.158  1.0590  0.2257 -0.4067
 6284TIP3   OH240486   0.554   5.649   1.749  0.9537 -0.3201  0.1940
 6284TIP3    H140487   0.517   5.736   1.762  0.5324 -0.4502 -0.1386
 6284TIP3    H240488   0.615   5.659   1.676  0.9970 -0.2755  0.2366
 6285TIP3   OH240489   3.737   2.120   8.431 -0.1283  0.2942  0.1882
 6285TIP3    H140490   3.827   2.149   8.417 -0.1634  0.9165  1.2046
 6285TIP3    H240491   3.736   2.029   8.402  0.7591  0.3706 -0.0821
 6286TIP3   OH240492   1.679   5.387   8.125  0.5822 -0.0208  0.0660
 6286TIP3    H140493   1.710   5.414   8.039  0.0041  0.2242 -0.0726
 6286TIP3    H240494   1.690   5.292   8.126  1.2672  0.0504  0.0010
 6287TIP3   OH240495   5.645   5.856   1.383  0.6649 -0.9810 -0.0774
 6287TIP3    H140496   5.591   5.782   1.352 -0.1229 -0.2804 -0.4389
 6287TIP3    H240497   5.700   5.819   1.452  0.4571 -1.9586 -0.4173
 6288TIP3   OH240498   2.000   3.245   8.123  0.2651  0.2280  0.1880
 6288TIP3    H140499   1.983   3.218   8.033 -0.4686 -0.6896  0.5823
 6288TIP3    H240500   2.058   3.321   8.115  3.0429 -1.8582 -0.9652
 6289TIP3   OH240501   4.872   2.375   1.167  0.1935 -0.4838  0.7338
 6289TIP3    H140502   4.797   2.342   1.118  0.2100  1.6022 -0.8542
 6289TIP3    H240503   4.926   2.298   1.184 -0.6355 -1.5456 -1.1195
 6290TIP3   OH240504   1.059   1.357   0.434  0.4115  0.0804 -0.0305
 6290TIP3    H140505   1.035   1.363   0.526 -1.3908 -1.2916 -0.3335
 6290TIP3    H240506   1.076   1.447   0.407 -2.1905  0.9631  0.9054
 6291TIP3   OH240507   6.388   1.757   2.360  0.4671 -0.5809 -0.3278
 6291TIP3    H140508   6.481   1.781   2.362  0.1428  0.6922  1.3817
 6291TIP3    H240509   6.343   1.832   2.399 -1.0532 -2.0802  0.9349
 6292TIP3   OH240510   3.726   5.487   1.312 -0.3125  0.1911 -0.0702
 6292TIP3    H140511   3.651   5.503   1.256  0.0185 -1.4432 -1.0524
 6292TIP3    H240512   3.801   5.491   1.253  0.0543 -1.4462  0.2322
 6293TIP3   OH240513   2.522   5.160   0.022  0.4197  0.4800  0.0492
 6293TIP3    H140514   2.471   5.099  -0.030 -0.2859  1.0640  0.0443
 6293TIP3    H240515   2.571   5.104   0.084 -0.5836 -0.0603  0.3731
 6294TIP3   OH240516   0.890   2.313   6.486  0.2625 -0.1283  0.5239
 6294TIP3    H140517   0.913   2.227   6.519 -0.3414 -0.6203 -0.3013
 6294TIP3    H240518   0.800   2.304   6.455 -0.2040  1.1053  1.4571
 6295TIP3   OH240519   2.932   5.775   8.097 -0.1594  0.3614 -0.1302
 6295TIP3    H140520   2.925   5.776   8.002 -0.0527  0.3563 -0.1378
 6295TIP3    H240521   2.863   5.714   8.126  1.7033 -2.0076 -0.3693
 6296TIP3   OH240522   2.172   2.479   1.223 -1.0095 -0.2564 -0.2569
 6296TIP3    H140523   2.203   2.460   1.134  0.6747  2.1167 -0.2612
 6296TIP3    H240524   2.098   2.538   1.210  0.0980  1.2177 -0.1248
 6297TIP3   OH240525   2.991   1.624   8.026 -0.2866  0.2357  0.2087
 6297TIP3    H140526   3.016   1.715   8.006 -1.7950  0.9178  1.2850
 6297TIP3    H240527   2.996   1.579   7.941 -0.4224  1.5359 -0.5141
 6298TIP3   OH240528   3.489   5.038   0.780  0.2476  0.1516 -0.4353
 6298TIP3    H140529   3.418   4.982   0.811  0.5360  0.2780  0.4911
 6298TIP3    H240530   3.495   5.107   0.847  0.2968  0.9420 -1.2439
 6299TIP3   OH240531   2.775   5.150   7.804 -0.1948  0.2974  0.4393
 6299TIP3    H140532   2.865   5.174   7.786 -1.2953  2.5438 -2.8394
 6299TIP3    H240533   2.727   5.232   7.805 -2.1002 -0.6403  3.8473
 6300TIP3   OH240534   3.542   4.290   6.509 -0.0736 -0.2413 -0.1094
 6300TIP3    H140535   3.617   4.273   6.452  0.8765 -0.3178  1.1181
 6300TIP3    H240536   3.524   4.383   6.498  0.9400  0.0370  0.4151
 6301TIP3   OH240537   4.647   2.267   8.209  0.1382  0.1647 -0.3263
 6301TIP3    H140538   4.716   2.205   8.184 -0.2749 -1.1682  1.6232
 6301TIP3    H240539   4.693   2.341   8.246  0.5581 -0.2580  0.0046
 6302TIP3   OH240540   0.459   1.343   1.303  0.2952 -0.2127 -0.6342
 6302TIP3    H140541   0.512   1.372   1.377  2.1795  0.0036 -1.9895
 6302TIP3    H240542   0.412   1.422   1.275 -1.6561 -0.6290  1.1993
 6303TIP3   OH240543   2.514   5.899   0.289 -0.4258 -0.2497  0.1231
 6303TIP3    H140544   2.481   5.927   0.374 -2.0846 -0.5856 -0.3724
 6303TIP3    H240545   2.451   5.833   0.259 -0.5727  0.7273 -1.8819
 6304TIP3   OH240546   3.411   1.483   2.662 -0.2321  0.0446 -0.0108
 6304TIP3    H140547   3.387   1.472   2.754  0.3131 -1.4886 -0.0233
 6304TIP3    H240548   3.453   1.401   2.638  0.2697  0.6824 -1.4459
 6305TIP3   OH240549   2.753   6.552   8.513  0.3046  0.4368  0.2629
 6305TIP3    H140550   2.805   6.473   8.497 -2.1206 -1.1757 -0.1524
 6305TIP3    H240551   2.816   6.624   8.503  2.4940 -1.3654  0.1045
 6306TIP3   OH240552   2.677   6.662   3.126  0.8538  0.5809  0.3364
 6306TIP3    H140553   2.671   6.757   3.133 -0.0373  0.5208  0.5899
 6306TIP3    H240554   2.591   6.631   3.157  0.4748 -0.2238 -1.4061
 6307TIP3   OH240555   3.174   6.506   2.617 -0.7126 -0.4019  0.5901
 6307TIP3    H140556   3.260   6.499   2.659  0.7281  0.6463 -1.9331
 6307TIP3    H240557   3.143   6.416   2.611  0.6277 -0.8997  0.7668
 6308TIP3   OH240558   1.613   4.828   1.538  0.0273  0.0066  0.4483
 6308TIP3    H140559   1.619   4.760   1.606  2.9703 -2.8319 -2.3112
 6308TIP3    H240560   1.703   4.858   1.526 -1.0619  4.3233  1.1779
 6309TIP3   OH240561   3.949   1.145   7.991  0.3459  0.7555  0.5677
 6309TIP3    H140562   3.876   1.114   8.045  0.8308  0.3713  1.0190
 6309TIP3    H240563   4.027   1.126   8.044  0.7951  0.8146 -0.0683
 6310TIP3   OH240564   1.607   1.843   7.341 -0.1512  0.1022 -0.7034
 6310TIP3    H140565   1.552   1.886   7.275  1.2974  0.5533 -1.6575
 6310TIP3    H240566   1.686   1.896   7.344  0.0341 -0.2184  1.0440
 6311TIP3   OH240567   4.142   6.010   6.364  0.0308  0.0664 -0.0694
 6311TIP3    H140568   4.166   5.961   6.285 -0.4790 -1.6205  0.7916
 6311TIP3    H240569   4.220   6.006   6.420 -0.7340 -1.7301  0.9317
 6312TIP3   OH240570   6.016   2.347   7.239 -0.1413  0.2520 -0.3373
 6312TIP3    H140571   5.944   2.363   7.301  0.8379  0.2822  0.8218
 6312TIP3    H240572   5.975   2.357   7.153 -2.3430 -2.9434  0.1364
 6313TIP3   OH240573   2.976   1.858   7.896 -0.7517  0.1485  0.0127
 6313TIP3    H140574   2.899   1.822   7.851 -0.3433  0.5291 -1.0164
 6313TIP3    H240575   3.046   1.854   7.831  0.8064 -2.5133  1.6764
 6314TIP3   OH240576   6.960   6.290   0.665 -0.2519  0.2701 -0.4798
 6314TIP3    H140577   6.905   6.216   0.692  2.0878 -1.8881 -1.2589
 6314TIP3    H240578   6.918   6.324   0.586  0.7767 -3.0897 -2.6953
 6315TIP3   OH240579   5.079   5.169   0.156  0.1650  0.1305  0.2206
 6315TIP3    H140580   5.049   5.186   0.067  0.0717 -2.1637 -0.2391
 6315TIP3    H240581   5.171   5.147   0.147  0.8144  2.2584  1.0419
 6316TIP3   OH240582   6.172   0.469   7.964 -0.1473  0.5566  0.1791
 6316TIP3    H140583   6.255   0.459   7.916 -0.9934  0.7110 -1.3745
 6316TIP3    H240584   6.119   0.526   7.908 -0.9806  1.2283  1.6020
 6317TIP3   OH240585   2.100   2.781   1.644 -0.3503  0.4006  0.6630
 6317TIP3    H140586   2.141   2.848   1.700  0.2258 -1.0121  2.0266
 6317TIP3    H240587   2.053   2.724   1.706 -0.2749 -0.8247 -0.3644
 6318TIP3   OH240588   5.653   0.694   2.285  0.4405  0.0555 -0.5822
 6318TIP3    H140589   5.674   0.737   2.368 -1.2854  0.1380 -0.1637
 6318TIP3    H240590   5.714   0.620   2.281  0.7419  0.2142  0.6070
 6319TIP3   OH240591   4.166   1.861   0.997 -0.2055 -0.1291 -0.1004
 6319TIP3    H140592   4.140   1.950   1.019 -3.0465 -0.4850 -1.5664
 6319TIP3    H240593   4.229   1.872   0.925 -1.2831  0.7240 -0.9499
 6320TIP3   OH240594   2.939   4.615   8.117 -0.1601  0.1616  0.0534
 6320TIP3    H140595   2.882   4.586   8.188  0.2784  2.1199  1.2842
 6320TIP3    H240596   2.989   4.537   8.093 -0.2660 -0.5356  1.9566
 6321TIP3   OH240597   1.752   5.055   7.157 -0.4322  0.3820 -0.8668
 6321TIP3    H140598   1.765   4.980   7.100 -0.2772 -1.8067  1.8221
 6321TIP3    H240599   1.799   5.126   7.115  1.7610 -1.7207 -2.2111
 6322TIP3   OH240600   0.401   5.187   6.550 -0.6471 -0.1802  0.5773
 6322TIP3    H140601   0.483   5.138   6.556  0.0366  0.1248 -3.6584
 6322TIP3    H240602   0.408   5.253   6.619  1.6961 -1.4337  1.6688
 6323TIP3   OH240603   6.811   5.680   0.106  0.4935 -0.2573  0.1710
 6323TIP3    H140604   6.903   5.681   0.131  0.9118 -1.6710 -1.1585
 6323TIP3    H240605   6.812   5.671   0.010 -1.0295  2.3681 -0.2030
 6324TIP3   OH240606   5.069   3.425   1.474 -0.2251 -0.5697  0.0344
 6324TIP3    H140607   5.005   3.491   1.499 -1.3924 -1.9562  0.8215
 6324TIP3    H240608   5.060   3.417   1.379 -1.5899 -1.1016  0.1974
 6325TIP3   OH240609   6.200   6.845   2.183 -0.3999  0.2634 -0.0450
 6325TIP3    H140610   6.274   6.865   2.241 -0.2746  0.6465 -0.3321
 6325TIP3    H240611   6.133   6.809   2.240  0.3446 -0.9481  0.0930
 6326TIP3   OH240612   5.451   5.155   2.171 -0.2560  0.4014  0.5995
 6326TIP3    H140613   5.417   5.115   2.091 -0.3323  0.4049  0.6307
 6326TIP3    H240614   5.535   5.194   2.144  0.7677 -1.4044  0.9823
 6327TIP3   OH240615   5.310   4.360   0.604 -0.3083  0.7451  0.4085
 6327TIP3    H140616   5.318   4.269   0.635  1.6617  0.5956 -0.3995
 6327TIP3    H240617   5.265   4.352   0.520 -0.5172  0.5688  0.5333
 6328TIP3   OH240618   1.523   1.430   0.845 -0.5626  0.2921  0.3176
 6328TIP3    H140619   1.569   1.510   0.822  2.7680 -1.9710 -1.7179
 6328TIP3    H240620   1.432   1.445   0.818  0.3589  2.6995 -1.7887
 6329TIP3   OH240621   4.537   1.193   1.794  0.4967 -0.1138 -0.1059
 6329TIP3    H140622   4.479   1.256   1.751  1.6822  1.1670  0.0911
 6329TIP3    H240623   4.592   1.159   1.724  0.9319  0.3077  0.0174
 6330TIP3   OH240624   3.540   2.114   1.406  0.9427  0.1518 -0.3532
 6330TIP3    H140625   3.520   2.091   1.315 -1.1251  0.2504  0.0240
 6330TIP3    H240626   3.510   2.039   1.457 -2.5244  1.9425  0.5912
 6331TIP3   OH240627   5.415   4.571   7.562  0.1980  0.7111 -1.0092
 6331TIP3    H140628   5.408   4.518   7.483 -1.3056 -1.1723  0.2892
 6331TIP3    H240629   5.371   4.653   7.540 -2.1491 -0.5970 -1.5334
 6332TIP3   OH240630   5.525   6.762   0.964  0.3903  0.5891 -0.1351
 6332TIP3    H140631   5.492   6.806   0.885  0.3982 -0.1944 -0.5967
 6332TIP3    H240632   5.446   6.730   1.008  0.4530 -1.5007 -1.3672
 6333TIP3   OH240633   3.162   5.869   0.067  0.4546  0.5329  0.6131
 6333TIP3    H140634   3.115   5.809   0.009 -0.8858  0.5301  1.6620
 6333TIP3    H240635   3.133   5.956   0.040 -0.9888  0.4945  1.8951
 6334TIP3   OH240636   5.880   4.220   1.476 -0.2994 -0.6342  0.2539
 6334TIP3    H140637   5.887   4.133   1.517  0.6176 -0.9629 -0.5391
 6334TIP3    H240638   5.902   4.204   1.384 -0.8397  0.3286 -0.0524
 6335TIP3   OH240639   0.668   6.548   0.749 -0.2154 -0.1858  0.1146
 6335TIP3    H140640   0.689   6.463   0.787 -0.5781 -0.1953  0.2994
 6335TIP3    H240641   0.728   6.609   0.790  0.0587 -0.3558 -0.0322
 6336TIP3   OH240642   2.897   5.465   6.544  0.3123  0.0197 -0.1208
 6336TIP3    H140643   2.986   5.433   6.526  0.1188 -1.8060  1.7950
 6336TIP3    H240644   2.899   5.490   6.636 -1.1595 -0.0801 -0.0374
 6337TIP3   OH240645   4.397   2.221   0.831  0.1286  0.0006  0.1097
 6337TIP3    H140646   4.322   2.277   0.846  0.5153  0.4903  0.2273
 6337TIP3    H240647   4.473   2.273   0.858  0.5195 -0.4512 -0.0881
 6338TIP3   OH240648   3.835   1.855   1.508 -0.4215  0.2502  0.2059
 6338TIP3    H140649   3.864   1.882   1.420 -0.6328  1.2125  0.4164
 6338TIP3    H240650   3.794   1.770   1.494  0.8986 -0.3335 -0.3805
 6339TIP3   OH240651   0.189   5.107   1.760 -0.4334  0.0186  0.2561
 6339TIP3    H140652   0.152   5.043   1.821  0.6261 -0.8608 -0.0039
 6339TIP3    H240653   0.237   5.168   1.815  0.5773 -0.8120  0.3298
 6340TIP3   OH240654   4.803   5.582   8.177  0.3815  0.0636  0.2414
 6340TIP3    H140655   4.726   5.601   8.124 -0.1030  0.5387  1.1044
 6340TIP3    H240656   4.778   5.606   8.266  1.8324  1.1337  0.3980
 6341TIP3   OH240657   6.498   3.836   7.462 -0.2746 -0.1860 -0.3119
 6341TIP3    H140658   6.500   3.836   7.367 -0.1871  0.8831 -0.3216
 6341TIP3    H240659   6.499   3.929   7.486 -3.4407 -0.2633  0.6548
 6342TIP3   OH240660   6.582   6.443   7.757  0.2090  0.3906  0.5395
 6342TIP3    H140661   6.663   6.391   7.755  0.2869  0.5118  0.5302
 6342TIP3    H240662   6.573   6.476   7.668  0.9261  1.5659  0.8742
 6343TIP3   OH240663   0.283   2.134   1.810 -0.1979  0.5201  0.0806
 6343TIP3    H140664   0.207   2.192   1.812 -2.2093 -1.9899  1.2463
 6343TIP3    H240665   0.327   2.155   1.727 -3.4367  0.5398 -1.7939
 6344TIP3   OH240666   4.562   0.247   0.003  0.0729 -0.2284  0.2008
 6344TIP3    H140667   4.627   0.178   0.005  1.5096  1.0493 -0.3278
 6344TIP3    H240668   4.585   0.299  -0.075 -1.1817  0.6206  0.3678
 6345TIP3   OH240669   2.736   5.191   6.636 -0.2857  0.0063 -0.5208
 6345TIP3    H140670   2.674   5.119   6.620  1.0232 -1.0153 -1.1424
 6345TIP3    H240671   2.690   5.269   6.604 -1.6903 -0.5374  0.0614
 6346TIP3   OH240672   0.167   0.259   7.685  0.2616 -0.0993  0.5557
 6346TIP3    H140673   0.115   0.322   7.634  0.4886 -0.7676 -0.5271
 6346TIP3    H240674   0.236   0.230   7.625 -0.9311 -2.8017  0.3341
 6347TIP3   OH240675   6.359   1.118   1.459 -0.4358 -0.6140 -0.1167
 6347TIP3    H140676   6.440   1.163   1.483 -2.0431  1.9576  0.9430
 6347TIP3    H240677   6.337   1.153   1.373 -0.4881 -1.2513 -0.3686
 6348TIP3   OH240678   2.337   0.566   8.325 -0.7650  0.3604  0.8944
 6348TIP3    H140679   2.288   0.485   8.311  0.3642 -0.3629  1.0764
 6348TIP3    H240680   2.270   0.635   8.321 -1.5171 -0.4168 -0.8530
 6349TIP3   OH240681   1.927   4.474   2.248  0.4201  0.4967 -0.1701
 6349TIP3    H140682   1.995   4.483   2.315  0.7578 -1.7238 -0.1597
 6349TIP3    H240683   1.847   4.501   2.292  0.9638  1.2107  0.4215
 6350TIP3   OH240684   1.079   2.617   8.180 -0.0922  0.1875 -0.0513
 6350TIP3    H140685   1.135   2.540   8.177  0.1270  0.2135  2.0371
 6350TIP3    H240686   1.112   2.674   8.111  2.3060  0.0995  0.9586
 6351TIP3   OH240687   1.136   0.907   2.207  0.0466 -0.1786 -0.0088
 6351TIP3    H140688   1.180   0.949   2.280 -1.5971  1.0184  0.3357
 6351TIP3    H240689   1.051   0.950   2.201 -1.5568 -3.0565  0.0275
 6352TIP3   OH240690   3.694   3.821   7.925 -0.0205  0.4249  0.6450
 6352TIP3    H140691   3.749   3.785   7.995  0.7333  0.8995  0.3135
 6352TIP3    H240692   3.605   3.800   7.951  0.3943 -2.3606  0.0860
 6353TIP3   OH240693   1.474   3.066   8.075  0.0116 -0.0411  0.7359
 6353TIP3    H140694   1.424   3.141   8.042 -1.7092 -1.6284 -0.4758
 6353TIP3    H240695   1.417   3.025   8.139  1.7370  0.7192  2.8775
 6354TIP3   OH240696   3.145   6.815   7.111  0.6365  0.2639  0.2787
 6354TIP3    H140697   3.153   6.720   7.101 -1.4729 -0.0466  1.0388
 6354TIP3    H240698   3.182   6.851   7.030  0.7226 -1.2475 -0.3753
 6355TIP3   OH240699   5.469   6.505   0.584 -0.0471  0.5996  0.6842
 6355TIP3    H140700   5.391   6.535   0.537 -1.6330 -3.8184 -0.0149
 6355TIP3    H240701   5.543   6.540   0.534 -1.6375  1.4459 -1.2000
 6356TIP3   OH240702   2.145   2.866   0.726  0.0687 -0.0883  0.3513
 6356TIP3    H140703   2.066   2.905   0.765  0.4309  3.0373 -1.6529
 6356TIP3    H240704   2.217   2.917   0.764  0.7511 -0.0472 -0.9608
 6357TIP3   OH240705   1.693   5.673   1.803 -0.5437  0.0415 -0.5173
 6357TIP3    H140706   1.634   5.747   1.786 -1.2587 -0.0913  1.1904
 6357TIP3    H240707   1.657   5.632   1.882  0.6574 -1.2930 -0.6370
 6358TIP3   OH240708   6.269   3.809   7.628 -0.1204 -0.0459  0.0272
 6358TIP3    H140709   6.345   3.807   7.570 -0.5199 -0.1334 -0.5069
 6358TIP3    H240710   6.229   3.895   7.612 -0.3032 -0.1223  0.0693
 6359TIP3   OH240711   2.800   4.151   1.046 -0.5197 -0.3236  0.4952
 6359TIP3    H140712   2.746   4.074   1.062  0.2541 -1.2242 -1.0750
 6359TIP3    H240713   2.760   4.193   0.970  0.5863 -0.6355 -0.2763
 6360TIP3   OH240714   1.388   5.521   2.246  0.4517 -0.5896 -0.0668
 6360TIP3    H140715   1.315   5.521   2.307 -0.6354  0.9586 -1.2613
 6360TIP3    H240716   1.466   5.515   2.301 -0.4724  0.9534  1.5124
 6361TIP3   OH240717   6.353   4.409   0.506  0.1410 -0.5312 -0.0339
 6361TIP3    H140718   6.377   4.422   0.597 -0.6485 -0.5643  0.1862
 6361TIP3    H240719   6.364   4.314   0.492  2.4645 -0.2320 -0.6385
 6362TIP3   OH240720   2.482   5.835   8.022 -0.4311  0.3825 -0.4676
 6362TIP3    H140721   2.457   5.906   8.081 -0.1397  0.7184 -0.7444
 6362TIP3    H240722   2.514   5.879   7.943  0.2184 -0.0517 -0.4538
 6363TIP3   OH240723   1.172   5.563   2.394 -0.1606 -0.1652  0.5296
 6363TIP3    H140724   1.089   5.587   2.353  0.6147  1.2854 -0.2594
 6363TIP3    H240725   1.171   5.607   2.479  0.0002  0.2401  0.3222
 6364TIP3   OH240726   2.979   1.926   7.546  0.6340 -0.3373 -0.1175
 6364TIP3    H140727   2.910   1.860   7.543  0.6028 -0.3803  1.2077
 6364TIP3    H240728   3.050   1.884   7.593  1.1104  0.1411 -0.4010
 6365TIP3   OH240729   1.273   0.575   7.038  0.5421 -0.3532 -0.1816
 6365TIP3    H140730   1.332   0.561   6.964  0.6041 -0.0986 -0.1788
 6365TIP3    H240731   1.216   0.647   7.012  0.7829 -0.0392  0.1513
 6366TIP3   OH240732   4.525   4.505   0.000 -0.2532 -0.2703 -0.2906
 6366TIP3    H140733   4.532   4.537  -0.090 -0.3916  2.2674  0.5336
 6366TIP3    H240734   4.535   4.410  -0.008  1.4402  0.0194 -2.7836
 6367TIP3   OH240735   4.970   1.907   1.316 -0.1574  0.5235 -0.3829
 6367TIP3    H140736   4.952   1.867   1.401 -1.3894  0.0753 -0.8286
 6367TIP3    H240737   5.049   1.862   1.285 -1.0372 -1.0347 -0.5047
 6368TIP3   OH240738   1.443   5.511   0.778  0.0619  0.8607 -0.2420
 6368TIP3    H140739   1.485   5.568   0.713 -0.7249  0.1238 -1.4525
 6368TIP3    H240740   1.515   5.466   0.821  0.6173  1.5784 -0.3857
 6369TIP3   OH240741   0.960   3.613   0.747  0.3536  0.1454  0.0231
 6369TIP3    H140742   0.979   3.705   0.766  0.8251  0.3336 -1.2827
 6369TIP3    H240743   1.001   3.565   0.819 -0.4988  0.9774  1.0969
 6370TIP3   OH240744   3.941   0.213   6.728  0.0224 -0.0281  0.1547
 6370TIP3    H140745   3.991   0.131   6.723  0.9150  0.5592 -1.2097
 6370TIP3    H240746   3.879   0.208   6.656  1.6764  1.4594 -1.4654
 6371TIP3   OH240747   6.681   6.610   1.702 -0.3015 -0.0708 -0.3753
 6371TIP3    H140748   6.623   6.672   1.659  0.5622  1.2381  0.2833
 6371TIP3    H240749   6.731   6.570   1.630 -0.1409  0.7713 -0.7455
 6372TIP3   OH240750   0.482   4.499   0.015  0.0594  0.3998  0.1313
 6372TIP3    H140751   0.418   4.534   0.077 -0.0325 -1.0339  0.9132
 6372TIP3    H240752   0.562   4.548   0.032 -0.9285  2.6529 -1.2860
 6373TIP3   OH240753   5.328   3.081   0.652  0.0140 -0.7803 -0.2679
 6373TIP3    H140754   5.314   3.136   0.574 -1.4730 -0.6274  0.0724
 6373TIP3    H240755   5.244   3.083   0.698  1.4378  0.9287  2.5229
 6374TIP3   OH240756   1.901   5.566   1.648 -0.1974 -1.2103 -0.0608
 6374TIP3    H140757   1.930   5.486   1.692 -0.4516  0.9178  4.4940
 6374TIP3    H240758   1.843   5.609   1.711  0.6597  3.0629 -1.8204
 6375TIP3   OH240759   6.202   0.090   1.171  0.0232 -0.4559 -0.4789
 6375TIP3    H140760   6.115   0.078   1.133 -0.4011 -0.3582  0.4515
 6375TIP3    H240761   6.187   0.136   1.253  1.0971  1.0128 -1.0525
 6376TIP3   OH240762   5.686   5.623   2.800  0.3918  0.2380 -0.0965
 6376TIP3    H140763   5.705   5.538   2.839 -2.4796 -0.1997  0.5780
 6376TIP3    H240764   5.655   5.602   2.712 -1.2590  0.4444  0.4066
 6377TIP3   OH240765   6.008   6.317   7.823  0.2840 -0.6706  0.3088
 6377TIP3    H140766   6.067   6.389   7.801 -0.0677 -0.6836 -0.7440
 6377TIP3    H240767   6.029   6.249   7.759  0.0533 -1.1935  0.7800
 6378TIP3   OH240768   2.840   3.212   0.732 -0.6990  0.7553  0.1482
 6378TIP3    H140769   2.831   3.177   0.820  1.0959 -0.0284  0.0623
 6378TIP3    H240770   2.934   3.227   0.721 -0.8087  0.3191 -1.8105
 6379TIP3   OH240771   1.628   4.440   1.703 -0.3285  0.0072 -0.0984
 6379TIP3    H140772   1.681   4.383   1.759  0.1459 -0.7273 -1.2573
 6379TIP3    H240773   1.644   4.528   1.737  0.3097 -0.3677  0.6161
 6380TIP3   OH240774   0.988   6.416   7.973  0.2863 -0.3668  0.6201
 6380TIP3    H140775   1.044   6.392   8.046  1.0858  0.1372  0.1870
 6380TIP3    H240776   0.943   6.495   8.002 -0.6106 -1.0549  1.1639
 6381TIP3   OH240777   0.863   4.847   8.290  0.3030  0.4953 -0.4988
 6381TIP3    H140778   0.945   4.810   8.324 -1.4300 -0.7978  2.7922
 6381TIP3    H240779   0.852   4.807   8.204  1.4420 -2.1656  0.4896
 6382TIP3   OH240780   5.342   1.380   7.563  0.0086 -0.5055  0.9069
 6382TIP3    H140781   5.247   1.369   7.557 -0.1357  1.1799 -1.1129
 6382TIP3    H240782   5.377   1.306   7.512 -0.4307  0.8865 -1.5587
 6383TIP3   OH240783   0.323   6.383   7.784 -0.1978 -0.7387 -0.1621
 6383TIP3    H140784   0.332   6.290   7.760  2.5543 -0.6870  0.3776
 6383TIP3    H240785   0.357   6.430   7.708 -0.1068 -0.2104  0.2073
 6384TIP3   OH240786   3.663   1.826   8.494  0.6684 -0.0320 -0.1022
 6384TIP3    H140787   3.713   1.759   8.448  2.7038  2.0456 -1.0695
 6384TIP3    H240788   3.671   1.803   8.587  0.9483 -1.3538 -0.4397
 6385TIP3   OH240789   1.380   5.649   1.497 -0.1938  0.1795 -0.1639
 6385TIP3    H140790   1.376   5.637   1.592  0.7711  0.7564 -0.0385
 6385TIP3    H240791   1.296   5.615   1.465 -0.2007 -0.7483  0.8041
 6386TIP3   OH240792   3.932   5.861   7.402 -0.4269  0.6097  0.1595
 6386TIP3    H140793   3.885   5.903   7.475 -1.7414  0.1479 -0.3805
 6386TIP3    H240794   4.012   5.827   7.441 -1.8021 -0.9842  1.7840
 6387TIP3   OH240795   2.572   2.015   0.767  0.2070 -0.7108 -0.2447
 6387TIP3    H140796   2.505   2.083   0.779  0.4162 -0.7163  1.0711
 6387TIP3    H240797   2.622   2.015   0.849 -0.1511 -2.8364  0.0355
 6388TIP3   OH240798   1.738   1.114   0.163  0.6366  0.1548  0.1969
 6388TIP3    H140799   1.664   1.115   0.223 -0.3556 -0.0540 -0.9895
 6388TIP3    H240800   1.765   1.022   0.159 -0.3127 -0.0947 -0.8630
 6389TIP3   OH240801   2.911   2.737   0.407 -0.1586  0.0523 -0.2716
 6389TIP3    H140802   2.977   2.759   0.341  0.5122 -4.3907 -1.4099
 6389TIP3    H240803   2.829   2.732   0.358 -0.4882  0.9476  0.1728
 6390TIP3   OH240804   3.969   0.725   3.084 -0.2499 -0.3406 -0.0654
 6390TIP3    H140805   3.988   0.766   3.168 -0.0326  0.5940 -0.5587
 6390TIP3    H240806   4.020   0.775   3.020 -2.6163  0.8698 -1.1573
 6391TIP3   OH240807   2.587   4.298   7.372  0.5219  0.4529  0.3531
 6391TIP3    H140808   2.653   4.306   7.440  0.4670  0.1453  0.4466
 6391TIP3    H240809   2.541   4.216   7.393  0.4302  0.4149  0.0130
 6392TIP3   OH240810   6.343   5.404   8.249  0.2576  0.5559  0.3418
 6392TIP3    H140811   6.329   5.389   8.156  1.1507  1.4854  0.0367
 6392TIP3    H240812   6.268   5.456   8.277  0.2606  0.7297  0.0215
 6393TIP3   OH240813   1.039   2.623   2.570 -0.9074  0.4023  0.2703
 6393TIP3    H140814   1.121   2.655   2.533  1.3592 -3.7293  1.0339
 6393TIP3    H240815   1.029   2.668   2.654  0.3666  1.2772 -0.0428
 6394TIP3   OH240816   0.318   0.285   0.141  0.0381  0.2104  0.7495
 6394TIP3    H140817   0.228   0.281   0.108  0.6033  0.4072 -0.9228
 6394TIP3    H240818   0.336   0.197   0.173 -0.6779  0.1190  0.9232
 6395TIP3   OH240819   2.828   3.659   1.447 -0.3136  0.0816 -0.4394
 6395TIP3    H140820   2.867   3.706   1.373  1.1747 -0.4483 -0.0299
 6395TIP3    H240821   2.734   3.668   1.434 -0.0879  2.1296 -1.0197
 6396TIP3   OH240822   3.247   2.580   2.604  0.4229  0.0702  1.2599
 6396TIP3    H140823   3.171   2.636   2.586  1.0698  0.6457  0.1773
 6396TIP3    H240824   3.255   2.581   2.699 -1.8775 -1.3259  1.5480
 6397TIP3   OH240825   4.879   2.317   0.733  0.1881  0.1128  0.0555
 6397TIP3    H140826   4.963   2.309   0.687  0.0438  0.0071 -0.1948
 6397TIP3    H240827   4.836   2.232   0.720 -0.8940  0.8613 -1.6831
 6398TIP3   OH240828   6.712   5.536   0.899  0.0052 -0.8108  0.7410
 6398TIP3    H140829   6.755   5.451   0.888  2.1497  0.2356  0.3716
 6398TIP3    H240830   6.674   5.554   0.813  0.1732 -1.0857  0.6041
 6399TIP3   OH240831   1.470   3.149   7.712 -0.5774  0.2113  0.0039
 6399TIP3    H140832   1.484   3.064   7.671  0.0807  0.4103 -0.2129
 6399TIP3    H240833   1.505   3.140   7.800 -1.3179 -0.0004  0.2775
 6400TIP3   OH240834   6.208   5.064   8.506  0.2748  0.1111 -0.3409
 6400TIP3    H140835   6.143   5.120   8.465 -0.0903  0.1216  0.2264
 6400TIP3    H240836   6.156   4.999   8.554  0.6103  1.5345  2.0959
 6401TIP3   OH240837   2.227   2.843   0.146 -0.2357  0.1661 -0.0064
 6401TIP3    H140838   2.155   2.814   0.090  0.2588  0.1788 -0.6702
 6401TIP3    H240839   2.305   2.805   0.105  0.0858 -0.3571  1.0344
 6402TIP3   OH240840   5.337   1.984   0.339  0.0124 -0.0134 -0.1979
 6402TIP3    H140841   5.418   2.029   0.314  0.0314 -0.0606 -0.2212
 6402TIP3    H240842   5.363   1.926   0.411 -0.4954  1.8322  1.5571
 6403TIP3   OH240843   0.642   4.063   7.743  0.4715 -0.3544 -0.6219
 6403TIP3    H140844   0.626   4.121   7.669 -0.5384  1.0341  0.6290
 6403TIP3    H240845   0.712   4.107   7.793  1.0517 -1.2091 -0.6638
 6404TIP3   OH240846   5.055   2.255   1.569  0.0392  0.9416  0.1521
 6404TIP3    H140847   5.090   2.344   1.576  1.7463  0.3960 -0.9533
 6404TIP3    H240848   5.042   2.228   1.660 -0.0602  2.1445  0.5135
 6405TIP3   OH240849   3.039   0.298   2.580 -0.5949  0.2753  0.3166
 6405TIP3    H140850   3.108   0.237   2.553 -1.6204 -0.9121  0.3105
 6405TIP3    H240851   2.995   0.254   2.653  1.0431  2.6627  2.9753
 6406TIP3   OH240852   1.508   3.425   0.136  0.1486 -0.2170 -0.1956
 6406TIP3    H140853   1.540   3.409   0.047 -0.3063  2.4661 -0.9143
 6406TIP3    H240854   1.414   3.413   0.131  0.2867 -1.7794  0.3922
 6407TIP3   OH240855   2.692   4.394   6.410 -0.2014 -0.1589 -0.3374
 6407TIP3    H140856   2.648   4.470   6.372  0.7992 -0.5070 -2.3289
 6407TIP3    H240857   2.771   4.430   6.450 -0.0167 -0.0756 -0.7727
 6408TIP3   OH240858   5.234   1.910   0.994  0.0476 -0.4025 -0.4081
 6408TIP3    H140859   5.298   1.857   0.946  2.5166  0.3672  1.8000
 6408TIP3    H240860   5.272   1.998   0.995 -0.6008 -0.0882  1.6737
 6409TIP3   OH240861   3.707   0.342   2.891 -0.0760 -0.3242  0.0589
 6409TIP3    H140862   3.766   0.268   2.876 -0.3476 -0.2150 -1.8478
 6409TIP3    H240863   3.765   0.416   2.909  0.5312  0.0268 -2.8587
 6410TIP3   OH240864   2.252   1.820   2.175  0.3300 -0.0241  0.4301
 6410TIP3    H140865   2.290   1.847   2.259  1.1581 -1.0525  0.4130
 6410TIP3    H240866   2.210   1.736   2.194  2.1990 -1.2455 -0.5705
 6411TIP3   OH240867   6.176   0.994   0.956 -0.5473 -0.1942 -0.4969
 6411TIP3    H140868   6.147   1.025   1.042 -0.5855  1.6099 -1.1153
 6411TIP3    H240869   6.102   0.944   0.922 -1.3967  0.9448 -0.3744
 6412TIP3   OH240870   3.408   6.106   0.216 -0.3945 -0.3549  0.1437
 6412TIP3    H140871   3.481   6.152   0.176  1.5080 -2.0797  1.4045
 6412TIP3    H240872   3.404   6.022   0.170  0.1601 -1.3153  1.7723
 6413TIP3   OH240873   4.397   4.438   7.499  0.5157 -0.2830 -0.2488
 6413TIP3    H140874   4.471   4.437   7.439  2.1888  0.1803  1.6866
 6413TIP3    H240875   4.406   4.358   7.550 -0.6878 -0.5208 -0.3827
 6414TIP3   OH240876   6.363   6.425   2.399 -0.3121  0.4709  0.1392
 6414TIP3    H140877   6.386   6.364   2.329 -1.2787  0.9387 -0.6152
 6414TIP3    H240878   6.420   6.500   2.386 -0.0341  0.2794  0.2567
 6415TIP3   OH240879   2.451   1.242   0.314 -0.0250 -0.3973  0.2226
 6415TIP3    H140880   2.523   1.242   0.377 -0.5266 -0.2551  0.8024
 6415TIP3    H240881   2.375   1.212   0.364 -0.6311  0.5858 -0.0737
 6416TIP3   OH240882   3.475   6.832   1.416 -0.2400 -0.2549 -0.3551
 6416TIP3    H140883   3.496   6.920   1.448  1.7224  0.4212 -3.0902
 6416TIP3    H240884   3.534   6.775   1.465  0.3485  0.2979 -0.4035
 6417TIP3   OH240885   0.779   0.270   1.242  0.5337 -0.3022  0.5596
 6417TIP3    H140886   0.697   0.266   1.194 -0.0677 -0.9885  1.5986
 6417TIP3    H240887   0.800   0.178   1.261  1.0142 -0.0730  1.1610
 6418TIP3   OH240888   5.962   3.861   6.688 -0.2738 -0.2872  0.0166
 6418TIP3    H140889   5.934   3.850   6.597  0.0508 -1.4946  0.0384
 6418TIP3    H240890   6.007   3.945   6.690 -2.1383  0.7805 -0.4465
 6419TIP3   OH240891   3.034   2.215   0.320 -0.5420 -0.2437 -0.2893
 6419TIP3    H140892   2.986   2.135   0.298  0.4032 -0.8524 -0.1955
 6419TIP3    H240893   3.119   2.184   0.353 -0.8835  0.7091  1.6406
 6420TIP3   OH240894   3.437   6.482   2.763 -0.4093 -0.1021  0.1150
 6420TIP3    H140895   3.444   6.405   2.819 -0.5669 -0.7487 -0.7384
 6420TIP3    H240896   3.492   6.547   2.806 -0.4623 -0.6072  0.9755
 6421TIP3   OH240897   4.887   0.470   0.682 -0.0797  0.3795 -0.2287
 6421TIP3    H140898   4.949   0.543   0.673  0.2711  0.5238  2.5635
 6421TIP3    H240899   4.819   0.488   0.617  0.4857  2.6972 -0.2623
 6422TIP3   OH240900   2.702   3.100   8.093 -0.3117  0.0982  0.2750
 6422TIP3    H140901   2.747   3.080   8.010 -1.7946 -0.7320 -0.3698
 6422TIP3    H240902   2.773   3.122   8.153  0.9420 -0.7846 -0.7934
 6423TIP3   OH240903   4.758   1.541   1.225  0.3579  0.0770 -0.1743
 6423TIP3    H140904   4.849   1.523   1.202  0.3044 -2.3386  1.1744
 6423TIP3    H240905   4.752   1.523   1.319 -1.2507  1.4810  0.0562
 6424TIP3   OH240906   1.073   4.282   2.308  0.2520  0.0252  0.7343
 6424TIP3    H140907   1.115   4.356   2.265 -0.1871  0.0290  0.3021
 6424TIP3    H240908   1.131   4.260   2.381  1.0781 -0.0516  0.0715
 6425TIP3   OH240909   0.384   5.226   0.003  0.1030  0.7602 -0.8528
 6425TIP3    H140910   0.340   5.142   0.018  0.6393  0.6110 -0.0713
 6425TIP3    H240911   0.313   5.287  -0.017 -0.4822  0.5257  0.4012
 6426TIP3   OH240912   5.624   1.654   8.163  0.6556  0.1968 -0.2866
 6426TIP3    H140913   5.579   1.571   8.177 -0.7153  0.6237 -1.8598
 6426TIP3    H240914   5.641   1.687   8.251  1.2509 -1.7325  0.3654
 6427TIP3   OH240915   4.950   2.060   0.040  0.2360  0.4338  0.0505
 6427TIP3    H140916   5.003   2.125  -0.007 -0.4173  0.3416 -0.8523
 6427TIP3    H240917   4.884   2.033  -0.024 -0.2651 -0.2077  0.8212
 6428TIP3   OH240918   0.779   3.736   2.452 -0.1716  0.1496  0.2690
 6428TIP3    H140919   0.684   3.745   2.439 -0.2812 -1.0880  0.0279
 6428TIP3    H240920   0.818   3.806   2.401 -0.9659  0.7656  0.4938
 6429TIP3   OH240921   2.802   5.995   0.484  0.1410  0.0684 -0.5172
 6429TIP3    H140922   2.729   5.993   0.545  0.4148  1.5279 -0.0942
 6429TIP3    H240923   2.832   5.905   0.479 -0.4982 -0.2369  0.7674
 6430TIP3   OH240924   0.651   2.717   7.262 -0.6716 -0.3690  0.2871
 6430TIP3    H140925   0.627   2.763   7.182  1.0579 -0.1695 -0.1601
 6430TIP3    H240926   0.707   2.645   7.233  0.3024 -0.0620  1.3058
 6431TIP3   OH240927   2.437   4.175   7.823 -0.3761  0.4631  0.6262
 6431TIP3    H140928   2.457   4.093   7.778 -1.9302  0.5972 -0.3887
 6431TIP3    H240929   2.347   4.165   7.853 -0.7806  1.9977  0.0125
 6432TIP3   OH240930   3.409   3.867   2.401 -0.2104  0.4879 -0.0271
 6432TIP3    H140931   3.382   3.864   2.493  0.7434  1.1151  0.2922
 6432TIP3    H240932   3.419   3.775   2.376  2.1871  0.3048  1.3394
 6433TIP3   OH240933   6.803   2.671   7.060 -0.4406  0.3954  0.0771
 6433TIP3    H140934   6.708   2.668   7.052 -0.3876 -0.2637 -0.4232
 6433TIP3    H240935   6.833   2.714   6.980 -0.4135  2.5814  1.1898
 6434TIP3   OH240936   4.820   2.833   8.180  0.6773  1.1943  0.0381
 6434TIP3    H140937   4.834   2.906   8.120  0.0458  1.7208  0.5146
 6434TIP3    H240938   4.767   2.771   8.131  1.0086  1.1681 -0.2862
 6435TIP3   OH240939   5.376   5.952   8.027 -0.3872  0.4832  0.0089
 6435TIP3    H140940   5.437   5.887   7.992 -0.1513 -0.6930  2.4048
 6435TIP3    H240941   5.428   6.004   8.089 -1.2542  1.0373  0.3038
 6436TIP3   OH240942   3.476   2.690   1.272  0.3371  0.5130 -0.2794
 6436TIP3    H140943   3.410   2.622   1.288  2.4779 -1.1299  2.3675
 6436TIP3    H240944   3.444   2.766   1.319 -0.0176 -0.0284  0.3699
 6437TIP3   OH240945   3.006   5.440   7.871 -0.1119  0.1353 -0.4554
 6437TIP3    H140946   2.953   5.516   7.848 -0.2257  1.2020  2.8214
 6437TIP3    H240947   3.062   5.426   7.794 -1.1237  2.5818 -1.7641
 6438TIP3   OH240948   5.692   3.855   7.173 -0.3833  0.0288  0.0757
 6438TIP3    H140949   5.692   3.942   7.132 -1.3639 -0.5993 -1.3381
 6438TIP3    H240950   5.723   3.796   7.105  1.8350 -0.5904  1.5160
 6439TIP3   OH240951   2.436   4.811   8.348 -0.1361 -0.1913  0.3226
 6439TIP3    H140952   2.459   4.729   8.392 -0.2202  0.3598  1.4508
 6439TIP3    H240953   2.519   4.854   8.331 -0.1321 -0.1035  0.5598
 6440TIP3   OH240954   6.952   3.660   7.651  0.3952 -0.1137 -0.2510
 6440TIP3    H140955   6.936   3.649   7.745 -0.8953  1.9043 -0.1808
 6440TIP3    H240956   6.973   3.572   7.620 -2.4774 -1.5033  1.3240
 6441TIP3   OH240957   2.629   3.069   2.607 -0.4309 -0.3753 -0.2754
 6441TIP3    H140958   2.676   3.136   2.656 -1.9459  0.1791  0.4917
 6441TIP3    H240959   2.696   3.028   2.551  0.8149  0.7354  0.3485
 6442TIP3   OH240960   1.496   1.702   2.682 -0.6527 -0.1702  0.1264
 6442TIP3    H140961   1.559   1.630   2.676 -1.4036 -0.8347  0.0602
 6442TIP3    H240962   1.438   1.677   2.753 -1.8675 -0.4071 -0.9094
 6443TIP3   OH240963   0.900   2.238   8.337  0.7726  0.5893  0.2420
 6443TIP3    H140964   0.807   2.259   8.348  0.6691  0.1763  0.1771
 6443TIP3    H240965   0.919   2.260   8.246  0.3910 -0.6010 -0.1426
 6444TIP3   OH240966   5.654   4.210   7.527 -0.0068  0.1720 -0.4886
 6444TIP3    H140967   5.607   4.159   7.593  0.3226  0.8835  0.3168
 6444TIP3    H240968   5.597   4.208   7.450 -0.0319 -1.3479 -0.4704
 6445TIP3   OH240969   2.107   0.202   0.816 -0.2712 -0.0122  0.7129
 6445TIP3    H140970   2.156   0.120   0.825 -1.2490 -0.4875  2.0447
 6445TIP3    H240971   2.040   0.197   0.884 -1.2965  1.2363 -0.1685
 6446TIP3   OH240972   5.500   2.904   8.407  0.3538 -0.0758 -0.2744
 6446TIP3    H140973   5.585   2.942   8.386 -0.8248  3.1403  0.3307
 6446TIP3    H240974   5.436   2.969   8.379 -1.8549 -1.4932  1.1241
 6447TIP3   OH240975   4.053   4.187   1.165 -0.3656 -0.1938  0.8096
 6447TIP3    H140976   4.082   4.144   1.246 -1.4384  1.0410  1.8927
 6447TIP3    H240977   4.133   4.194   1.112 -0.0237 -2.8119  0.8736
 6448TIP3   OH240978   3.292   2.181   7.739  0.2953  0.0232 -0.0282
 6448TIP3    H140979   3.222   2.191   7.804  0.9119 -2.9771  1.2591
 6448TIP3    H240980   3.247   2.157   7.658 -0.2619 -1.5593  0.7039
 6449TIP3   OH240981   4.978   3.159   2.257 -0.0638 -0.1692  0.1026
 6449TIP3    H140982   4.981   3.208   2.174 -1.3399 -0.3155 -0.0416
 6449TIP3    H240983   5.051   3.195   2.308  0.0540  0.7016 -0.6482
 6450TIP3   OH240984   6.614   0.599   7.322  0.5469 -0.4667  0.0200
 6450TIP3    H140985   6.680   0.667   7.336  0.9146 -0.8717  0.3151
 6450TIP3    H240986   6.550   0.639   7.263  0.1774  0.5068  1.0460
 6451TIP3   OH240987   5.417   0.343   2.091  0.0905  0.7827  0.0139
 6451TIP3    H140988   5.496   0.375   2.136  0.4675 -1.4584  1.1043
 6451TIP3    H240989   5.353   0.330   2.161 -0.8196  1.3166 -0.6973
 6452TIP3   OH240990   2.949   4.175   7.434 -1.4622  0.5486  0.6684
 6452TIP3    H140991   2.987   4.250   7.480  0.0399 -0.5058  1.2491
 6452TIP3    H240992   2.978   4.186   7.344 -1.8019  0.9999  0.6104
 6453TIP3   OH240993   2.611   0.359   1.154 -0.1192  0.0554  0.2027
 6453TIP3    H140994   2.656   0.415   1.091  2.7109 -0.8352  1.2813
 6453TIP3    H240995   2.563   0.419   1.210 -0.8366  1.0103 -1.3782
 6454TIP3   OH240996   1.479   5.087   1.545  0.0610 -0.6844  0.1138
 6454TIP3    H140997   1.444   5.098   1.634  0.4953 -0.3604  0.2521
 6454TIP3    H240998   1.524   5.002   1.548 -0.2677 -0.8592  0.0874
 6455TIP3   OH240999   6.775   4.345   7.473  0.0399  0.0783 -0.2541
 6455TIP3    H141000   6.733   4.286   7.410 -0.4538  1.5032 -1.3057
 6455TIP3    H241001   6.856   4.372   7.430  1.4255 -1.5560  1.1796
 6456TIP3   OH241002   4.571   6.679   1.143  0.1158  0.1962 -0.5663
 6456TIP3    H141003   4.580   6.584   1.148  1.1499  0.3285  0.5780
 6456TIP3    H241004   4.613   6.703   1.061 -0.3552 -0.3491 -0.9721
 6457TIP3   OH241005   5.255   3.404   6.742  0.0297 -0.6145  0.0895
 6457TIP3    H141006   5.308   3.334   6.704 -0.8696 -1.4684  0.3683
 6457TIP3    H241007   5.170   3.397   6.698  0.4164  1.4200 -1.1340
 6458TIP3   OH241008   5.492   3.259   7.765 -0.1441 -0.1916 -0.2154
 6458TIP3    H141009   5.452   3.301   7.689 -0.5326 -2.5378 -1.4152
 6458TIP3    H241010   5.586   3.269   7.751 -0.2281  0.8471 -0.0999
 6459TIP3   OH241011   0.936   2.530   1.824  0.1072 -0.3912 -0.3828
 6459TIP3    H141012   0.970   2.506   1.910  0.3354  1.5354  0.0981
 6459TIP3    H241013   0.956   2.454   1.769  1.8647 -0.8183  0.7563
 6460TIP3   OH241014   5.587   0.612   1.285 -0.0019 -0.2615 -0.2668
 6460TIP3    H141015   5.534   0.690   1.301  1.0796 -0.0322  3.0057
 6460TIP3    H241016   5.535   0.540   1.318  1.1247 -0.1605  1.9408
 6461TIP3   OH241017   3.792   5.841   0.626 -0.4913  0.0867 -0.1519
 6461TIP3    H141018   3.775   5.933   0.606  0.9839  0.6606  0.9691
 6461TIP3    H241019   3.787   5.836   0.721  0.5408 -0.7219 -0.1153
 6462TIP3   OH241020   3.906   5.194   8.362 -0.4373 -0.1818  0.0557
 6462TIP3    H141021   3.831   5.148   8.323 -0.4186  0.6952 -1.0596
 6462TIP3    H241022   3.942   5.132   8.425 -1.0237 -1.3057 -0.6803
 6463TIP3   OH241023   5.318   5.948   2.025  0.2568  0.1658 -0.2959
 6463TIP3    H141024   5.359   5.948   1.939 -0.3929  0.2988 -0.6096
 6463TIP3    H241025   5.270   6.031   2.029  0.8531  0.4859  0.4695
 6464TIP3   OH241026   3.446   5.590   0.475 -0.5964 -0.0484  0.1187
 6464TIP3    H141027   3.448   5.685   0.483  0.8048  0.0405 -0.8622
 6464TIP3    H241028   3.519   5.570   0.416  1.2247 -1.9864  2.8259
 6465TIP3   OH241029   6.706   2.948   1.195  0.8361  0.5161  0.1754
 6465TIP3    H141030   6.779   2.915   1.247  0.0693 -1.2301  0.2236
 6465TIP3    H241031   6.721   2.913   1.108 -0.3179 -0.5229  0.3667
 6466TIP3   OH241032   2.185   2.091   8.406 -0.1265  0.7744  0.5806
 6466TIP3    H141033   2.248   2.159   8.381 -0.4527  0.8866  0.0464
 6466TIP3    H241034   2.112   2.103   8.346  0.0896 -0.4763  0.0370
 6467TIP3   OH241035   0.647   0.783   0.072 -0.3670  0.0198  0.0598
 6467TIP3    H141036   0.699   0.731   0.011 -0.7058 -0.5693  0.2628
 6467TIP3    H241037   0.699   0.862   0.087  1.0288 -1.0772  1.1863
 6468TIP3   OH241038   4.397   4.834   7.270 -0.4650 -0.5354  0.2240
 6468TIP3    H141039   4.367   4.833   7.361  1.2230  2.0491  0.9106
 6468TIP3    H241040   4.477   4.782   7.270  1.6860  2.4967  1.2142
 6469TIP3   OH241041   4.140   4.414   7.846 -0.9408 -0.0317 -0.6363
 6469TIP3    H141042   4.233   4.423   7.869 -0.3117 -0.7249 -2.6821
 6469TIP3    H241043   4.140   4.403   7.751 -3.0894 -0.6958 -0.6105
 6470TIP3   OH241044   0.080   0.521   7.618  1.1193  0.2826  0.1234
 6470TIP3    H141045   0.004   0.558   7.663  0.4712 -0.3058 -0.4419
 6470TIP3    H241046   0.107   0.589   7.557  2.1984  1.2067  1.5724
 6471TIP3   OH241047   1.602   5.760   7.545  0.0186  0.2762  0.9351
 6471TIP3    H141048   1.670   5.693   7.537  0.3117  0.4249  1.9901
 6471TIP3    H241049   1.610   5.812   7.464  0.2127 -0.5577  0.4094
 6472TIP3   OH241050   4.123   3.783   7.945 -0.2453 -0.3080 -0.1600
 6472TIP3    H141051   4.080   3.811   7.864  0.9970 -0.4465 -0.9013
 6472TIP3    H241052   4.209   3.824   7.941 -0.3030 -0.0091  1.3014
 6473TIP3   OH241053   0.862   1.256   2.361  0.2173 -0.0478 -0.0391
 6473TIP3    H141054   0.889   1.213   2.442  0.0171  0.2808  0.2011
 6473TIP3    H241055   0.887   1.194   2.292 -0.0786 -0.5544  0.3044
 6474TIP3   OH241056   4.846   4.311   1.390 -0.0644 -0.2108 -0.5350
 6474TIP3    H141057   4.880   4.308   1.479 -0.4339  1.3670 -0.3235
 6474TIP3    H241058   4.860   4.222   1.357  1.4056 -0.4430  0.5892
 6475TIP3   OH241059   5.112   2.912   8.087 -0.3449  0.4114  0.1337
 6475TIP3    H141060   5.046   2.870   8.031 -1.6414  0.9552  1.1960
 6475TIP3    H241061   5.165   2.963   8.027  1.5766 -2.9523 -1.3125
 6476TIP3   OH241062   0.657   1.440   0.872  0.0500 -0.0998 -0.3544
 6476TIP3    H141063   0.662   1.375   0.802  0.4839 -1.5246  0.9500
 6476TIP3    H241064   0.592   1.503   0.841  1.6112  0.4190 -2.8791
 6477TIP3   OH241065   5.034   2.112   7.070  0.2816 -0.2955  0.0496
 6477TIP3    H141066   5.106   2.106   7.133 -0.6355  0.5936  1.2417
 6477TIP3    H241067   5.073   2.090   6.986  1.9338  0.1604  0.6707
 6478TIP3   OH241068   6.954   3.772   0.053  0.1194 -0.2158  0.3964
 6478TIP3    H141069   6.929   3.858   0.086 -0.4576 -0.2455  0.0486
 6478TIP3    H241070   7.050   3.774   0.050  0.1285  0.1916  0.9709
 6479TIP3   OH241071   1.561   0.750   1.616 -0.3979 -0.0307  0.2949
 6479TIP3    H141072   1.604   0.819   1.668  0.8046 -0.9425  0.5667
 6479TIP3    H241073   1.631   0.715   1.561 -0.6376 -1.9212  1.1064
 6480TIP3   OH241074   3.596   4.048   8.382  0.3988  0.2325 -0.4821
 6480TIP3    H141075   3.507   4.017   8.368  1.1852 -2.2754 -0.3259
 6480TIP3    H241076   3.650   3.996   8.322  1.9083  0.7611  0.3599
 6481TIP3   OH241077   6.657   3.289   0.639 -0.1594 -0.5611  0.5027
 6481TIP3    H141078   6.660   3.382   0.618  1.2444 -0.8718 -0.8150
 6481TIP3    H241079   6.567   3.263   0.621 -0.4274  0.4252  0.3717
 6482TIP3   OH241080   0.179   4.334   8.290 -0.3802 -0.0525 -0.0146
 6482TIP3    H141081   0.157   4.417   8.333  1.4511  0.9205 -0.8417
 6482TIP3    H241082   0.250   4.298   8.343 -0.9959 -0.9866  0.1935
 6483TIP3   OH241083   5.089   3.789   1.442  0.0059  0.3123  0.4592
 6483TIP3    H141084   5.132   3.874   1.446  0.6650  0.0875 -0.9621
 6483TIP3    H241085   5.110   3.747   1.525 -1.3966  1.9919  1.7272
 6484TIP3   OH241086   3.068   5.428   1.231 -0.0748 -0.0406  0.2012
 6484TIP3    H141087   3.052   5.403   1.322  0.2078 -0.3055  0.1799
 6484TIP3    H241088   3.064   5.524   1.231 -0.8863 -0.0664  0.3347
 6485TIP3   OH241089   6.071   5.956   1.428 -0.8194  0.0047 -0.2725
 6485TIP3    H141090   6.088   6.049   1.444 -0.8383  0.4026 -2.3485
 6485TIP3    H241091   6.156   5.920   1.401 -0.2212 -1.1908  2.6791
 6486TIP3   OH241092   2.031   3.875   1.750  0.5569 -0.4105  0.4663
 6486TIP3    H141093   2.113   3.922   1.735 -0.2583  1.2781  1.0467
 6486TIP3    H241094   1.963   3.941   1.736 -0.6556 -1.4651  1.2051
 6487TIP3   OH241095   0.332   5.298   1.853  0.2905  0.5048 -0.1525
 6487TIP3    H141096   0.378   5.344   1.923 -0.1698  0.9145 -0.1160
 6487TIP3    H241097   0.329   5.360   1.780  1.0387 -0.0310 -0.6517
 6488TIP3   OH241098   1.976   6.394   8.299 -0.0004 -0.7254  0.5543
 6488TIP3    H141099   1.995   6.484   8.325 -5.3480  1.2827 -1.2405
 6488TIP3    H241100   1.996   6.390   8.205 -1.8399 -0.6379  0.1345
 6489TIP3   OH241101   5.714   1.607   1.273  0.7666  0.3597 -0.1729
 6489TIP3    H141102   5.776   1.534   1.278  1.1516  0.6279 -0.9642
 6489TIP3    H241103   5.751   1.673   1.333  1.0572  0.3768 -0.3681
 6490TIP3   OH241104   5.170   3.325   7.888 -0.3439 -0.3210 -0.7307
 6490TIP3    H141105   5.152   3.415   7.859  1.3979  1.2994  2.6792
 6490TIP3    H241106   5.265   3.320   7.894 -0.4868 -1.7251  1.0141
 6491TIP3   OH241107   4.284   3.786   1.111  0.7046 -0.1505  0.3572
 6491TIP3    H141108   4.274   3.701   1.068  1.3258  0.8533 -1.8935
 6491TIP3    H241109   4.199   3.829   1.098  1.5140  0.9165 -1.6842
 6492TIP3   OH241110   0.345   5.620   0.237 -0.1033  0.0874 -0.0278
 6492TIP3    H141111   0.362   5.699   0.290 -2.0727 -0.7197  1.9771
 6492TIP3    H241112   0.386   5.549   0.287  1.1076 -0.2972 -1.5006
 6493TIP3   OH241113   5.616   4.708   8.471  0.7467  0.1220  0.1482
 6493TIP3    H141114   5.526   4.676   8.481 -0.7982  3.7630 -0.6678
 6493TIP3    H241115   5.643   4.732   8.559  0.5624 -0.1586  0.2805
 6494TIP3   OH241116   5.422   6.942   1.486  0.1980 -0.2688 -0.1789
 6494TIP3    H141117   5.456   7.005   1.423 -0.0488  0.7029  0.6281
 6494TIP3    H241118   5.370   6.880   1.434  1.7678 -0.7773 -1.1986
 6495TIP3   OH241119   0.315   4.299   1.873 -0.1003  0.1217 -0.2614
 6495TIP3    H141120   0.327   4.259   1.959 -0.6491 -1.2015 -0.7712
 6495TIP3    H241121   0.378   4.372   1.871  0.6078 -0.4327  0.8794
 6496TIP3   OH241122   3.755   3.471   7.948  0.1310 -0.0496 -0.8368
 6496TIP3    H141123   3.732   3.467   8.040  1.2172 -1.7097 -0.5913
 6496TIP3    H241124   3.789   3.384   7.928  1.0392  0.6358 -2.4965
 6497TIP3   OH241125   5.949   2.367   1.440  0.4527  0.4905 -0.0102
 6497TIP3    H141126   5.921   2.436   1.381  1.5540 -0.3261 -1.5753
 6497TIP3    H241127   6.037   2.393   1.467  0.3408  0.3651  0.4805
 6498TIP3   OH241128   6.624   5.428   1.803  0.1388 -0.7179  0.1707
 6498TIP3    H141129   6.706   5.436   1.852  0.9793 -2.1840 -0.9367
 6498TIP3    H241130   6.590   5.341   1.825 -0.9169 -0.3029  0.2783
 6499TIP3   OH241131   2.435   3.911   1.614  0.6497  0.7993 -0.1943
 6499TIP3    H141132   2.367   3.957   1.663 -0.0957 -0.5057  0.0345
 6499TIP3    H241133   2.416   3.818   1.627  2.3648  0.4024 -0.2997
 6500TIP3   OH241134   5.029   1.576   8.047 -0.2620 -0.2379 -0.2534
 6500TIP3    H141135   4.970   1.573   7.971  0.4270 -1.6743 -0.7643
 6500TIP3    H241136   5.116   1.586   8.009 -0.0876  1.0378  0.4600
 6501TIP3   OH241137   2.770   2.001   2.425  0.1547  0.1116  0.5648
 6501TIP3    H141138   2.822   1.980   2.503  0.7900 -0.5009 -0.0056
 6501TIP3    H241139   2.733   2.087   2.443 -0.3971 -0.3851  1.8883
 6502TIP3   OH241140   3.449   0.734   3.427 -0.4849 -0.2310  0.3027
 6502TIP3    H141141   3.446   0.826   3.453 -0.7493 -0.1748  0.0856
 6502TIP3    H241142   3.357   0.709   3.416 -0.3895  0.1793 -2.0699
 6503TIP3   OH241143   6.851   6.893   8.358  0.0213  0.3491  0.2092
 6503TIP3    H141144   6.786   6.961   8.343 -0.9928 -0.6628 -0.1336
 6503TIP3    H241145   6.841   6.834   8.283 -0.3114 -1.0849  1.3476
 6504TIP3   OH241146   5.430   6.886   0.413  0.2587 -0.2271 -0.1852
 6504TIP3    H141147   5.419   6.976   0.446  1.3421 -0.7948  1.9119
 6504TIP3    H241148   5.368   6.835   0.464 -0.9578 -0.5982 -1.9623
 6505TIP3   OH241149   4.326   5.689   5.752  0.2387  0.3218 -0.2947
 6505TIP3    H141150   4.372   5.669   5.833 -0.9458  1.8213  0.8018
 6505TIP3    H241151   4.303   5.603   5.715  0.9579 -0.3772  0.8426
 6506TIP3   OH241152   0.740   3.274   7.859  0.3635 -0.4351 -0.0177
 6506TIP3    H141153   0.810   3.221   7.898  0.2835 -0.7873 -0.3399
 6506TIP3    H241154   0.688   3.211   7.809  0.8461  0.1075 -1.2265
 6507TIP3   OH241155   5.303   6.095   0.252  0.0638 -0.1744  0.3959
 6507TIP3    H141156   5.263   6.034   0.190 -0.5455  0.2679  0.3412
 6507TIP3    H241157   5.229   6.126   0.305  0.5619 -0.4779  1.2840
 6508TIP3   OH241158   2.856   3.604   6.696  0.1010  0.3544 -0.1181
 6508TIP3    H141159   2.933   3.556   6.728  0.8831  1.5250 -0.1698
 6508TIP3    H241160   2.810   3.631   6.776  0.5920  0.9649 -0.0311
 6509TIP3   OH241161   5.267   4.129   1.160  0.1957 -0.4406 -1.5072
 6509TIP3    H141162   5.326   4.190   1.117 -1.6952  1.6804 -1.2974
 6509TIP3    H241163   5.290   4.133   1.253  0.8347 -0.9723 -1.6374
 6510TIP3   OH241164   6.675   4.283   6.915 -0.1372 -0.1360  0.3938
 6510TIP3    H141165   6.652   4.246   6.829 -1.2856 -0.1845  0.7040
 6510TIP3    H241166   6.771   4.284   6.916 -0.1039 -1.0708 -0.4858
 6511TIP3   OH241167   4.102   4.846   1.962 -0.1070 -0.1463 -0.2573
 6511TIP3    H141168   4.172   4.809   2.017  1.3260 -0.0856 -1.9324
 6511TIP3    H241169   4.082   4.931   2.001 -0.5352 -0.9084  1.2700
 6512TIP3   OH241170   4.796   6.092   0.723  0.5456  0.4782  0.1037
 6512TIP3    H141171   4.774   6.166   0.667  0.3441  0.6528  0.4075
 6512TIP3    H241172   4.750   6.017   0.684  1.2014  0.3982 -0.5199
 6513TIP3   OH241173   0.496   3.584   0.956  0.4194 -0.2894  0.1718
 6513TIP3    H141174   0.523   3.673   0.934  2.4612 -1.5645 -3.3170
 6513TIP3    H241175   0.574   3.543   0.993 -0.3458 -0.8449  1.2417
 6514TIP3   OH241176   0.964   2.650   1.430 -0.3239 -0.2921 -0.5370
 6514TIP3    H141177   0.926   2.579   1.482 -1.1240  0.9299  0.6183
 6514TIP3    H241178   1.040   2.610   1.387 -1.2286 -2.0475 -0.6007
 6515TIP3   OH241179   6.884   5.357   7.050 -0.2287  0.4153  0.0862
 6515TIP3    H141180   6.844   5.341   6.965  2.4844 -1.6460 -0.9607
 6515TIP3    H241181   6.811   5.355   7.112 -2.0258 -0.2779 -1.9487
 6516TIP3   OH241182   5.275   4.963   0.248 -0.3835  0.5516  0.1112
 6516TIP3    H141183   5.241   4.875   0.266 -0.3903  0.8010  1.4200
 6516TIP3    H241184   5.293   5.000   0.335  0.4908  1.5051 -0.4511
 6517TIP3   OH241185   0.607   5.834   8.201 -0.3537  0.0474  0.5552
 6517TIP3    H141186   0.568   5.920   8.218  0.4458  1.2527 -2.8930
 6517TIP3    H241187   0.546   5.792   8.140  1.4746  0.1642 -1.4517
 6518TIP3   OH241188   4.345   0.146   2.098  0.0355 -0.5212 -0.5414
 6518TIP3    H141189   4.277   0.211   2.109  0.9949  0.1923  1.6048
 6518TIP3    H241190   4.299   0.068   2.065 -1.4756  0.4884 -0.9209
 6519TIP3   OH241191   4.881   0.650   1.822  0.3522  0.0623  0.1778
 6519TIP3    H141192   4.943   0.693   1.763  1.8852 -0.0590  1.6140
 6519TIP3    H241193   4.822   0.720   1.850 -0.2415  0.1716 -1.2493
 6520TIP3   OH241194   5.277   1.303   2.205  0.1863  0.1262 -0.2395
 6520TIP3    H141195   5.256   1.215   2.238  1.7297 -0.4529 -0.7164
 6520TIP3    H241196   5.241   1.362   2.271 -0.1924 -0.8871  0.4959
 6521TIP3   OH241197   0.617   0.134   0.310 -0.7479 -0.2238  0.1725
 6521TIP3    H141198   0.665   0.101   0.386 -1.5508 -0.5563  0.5567
 6521TIP3    H241199   0.533   0.087   0.314 -1.6316  1.3185  0.2895
 6522TIP3   OH241200   3.674   6.356   1.988 -0.4059  0.0980 -0.3509
 6522TIP3    H141201   3.746   6.418   1.980 -0.4992  0.2848  0.2391
 6522TIP3    H241202   3.652   6.334   1.898  1.0945 -0.7972 -0.5314
 6523TIP3   OH241203   1.064   4.460   8.119  0.3282  0.3082  0.3297
 6523TIP3    H141204   0.990   4.407   8.151 -0.0810  1.1836  0.8728
 6523TIP3    H241205   1.130   4.396   8.094 -0.4426 -0.4842  0.2630
 6524TIP3   OH241206   2.278   2.114   0.294 -0.1790  0.0554 -0.4281
 6524TIP3    H141207   2.261   2.056   0.368 -0.3415 -0.8200 -1.1321
 6524TIP3    H241208   2.292   2.055   0.220  0.3871  0.8989 -1.0154
 6525TIP3   OH241209   1.777   5.555   1.392 -0.2550 -0.2267  0.0083
 6525TIP3    H141210   1.721   5.632   1.387 -0.9969 -0.7267  0.3790
 6525TIP3    H241211   1.783   5.535   1.485  1.5003  0.4833  0.0788
 6526TIP3   OH241212   2.617   0.308   1.518 -0.5236 -0.8091 -0.1268
 6526TIP3    H141213   2.637   0.259   1.438  0.1715 -2.8374  1.2186
 6526TIP3    H241214   2.701   0.316   1.563 -1.0477 -0.5267  0.8381
 6527TIP3   OH241215   5.634   4.826   2.155  0.5994 -0.3522 -0.0524
 6527TIP3    H141216   5.717   4.780   2.144  1.8512  1.3325  1.6873
 6527TIP3    H241217   5.654   4.898   2.215 -1.6085  1.4905 -1.3680
 6528TIP3   OH241218   0.868   4.331   0.474  0.6258  0.2277 -0.1528
 6528TIP3    H141219   0.954   4.342   0.514  0.4816  0.0557  0.2106
 6528TIP3    H241220   0.826   4.417   0.483 -0.9812 -0.7568  3.8166
 6529TIP3   OH241221   0.796   1.942   8.320  0.2324 -0.3367  0.1238
 6529TIP3    H141222   0.808   2.014   8.259 -1.4417 -1.3430 -1.4859
 6529TIP3    H241223   0.881   1.898   8.322  0.9032  0.9182  0.1732
 6530TIP3   OH241224   3.797   3.448   1.086  0.1659  0.5327 -0.7182
 6530TIP3    H141225   3.829   3.537   1.078 -0.2345  0.5833 -1.9606
 6530TIP3    H241226   3.706   3.458   1.113  0.1960  0.4886 -0.5994
 6531TIP3   OH241227   4.623   6.498   7.112 -0.3483  0.3363  0.0221
 6531TIP3    H141228   4.616   6.456   7.027 -0.5404  0.9911 -0.2873
 6531TIP3    H241229   4.717   6.502   7.129 -0.3471 -1.3223  0.6210
 6532TIP3   OH241230   3.496   3.188   2.031  0.4456 -1.0157 -0.1779
 6532TIP3    H141231   3.506   3.115   2.093  0.9623  0.3012  1.3471
 6532TIP3    H241232   3.549   3.258   2.068 -2.0867  1.0342 -0.1898
 6533TIP3   OH241233   4.418   4.914   6.964  0.2110 -0.0213 -0.4592
 6533TIP3    H141234   4.514   4.908   6.959  0.3212  1.9483 -2.3518
 6533TIP3    H241235   4.396   4.875   7.048  2.5709 -1.5061 -0.4250
 6534TIP3   OH241236   0.604   4.171   0.944  0.5007 -0.1433  0.2002
 6534TIP3    H141237   0.612   4.162   1.039  0.3602  2.7314  0.5725
 6534TIP3    H241238   0.512   4.191   0.928  0.5879 -0.2569 -0.5047
 6535TIP3   OH241239   0.759   0.714   7.583  0.1334 -0.5006  0.8542
 6535TIP3    H141240   0.751   0.665   7.502  0.2333 -0.5757  0.8906
 6535TIP3    H241241   0.853   0.718   7.600  0.2028  0.5688  0.3151
 6536TIP3   OH241242   6.428   4.426   7.526  0.3992  0.3691 -0.2044
 6536TIP3    H141243   6.463   4.514   7.514 -1.7587  1.2877 -0.3366
 6536TIP3    H241244   6.334   4.439   7.538 -0.0984 -1.9786 -0.9504
 6537TIP3   OH241245   0.055   2.722   6.826 -0.4181  0.0574 -0.2205
 6537TIP3    H141246   0.008   2.718   6.743 -0.7887 -0.9298  0.0248
 6537TIP3    H241247   0.081   2.632   6.844  0.2732  0.3675  0.3928
 6538TIP3   OH241248   0.911   1.484   2.205  0.5922  0.2086 -0.3087
 6538TIP3    H141249   0.968   1.532   2.265  0.8961 -1.6584  0.9927
 6538TIP3    H241250   0.898   1.399   2.247  0.6465 -1.1301 -2.8091
 6539TIP3   OH241251   2.116   2.181   6.926 -0.2495  0.3026  0.4194
 6539TIP3    H141252   2.140   2.121   6.997  1.6898  0.4865 -0.0469
 6539TIP3    H241253   2.123   2.268   6.964 -0.0869  0.3671  0.2408
 6540TIP3   OH241254   2.600   1.661   2.156 -0.0066 -0.3627 -0.2657
 6540TIP3    H141255   2.582   1.726   2.224  0.5570  0.6102 -1.0331
 6540TIP3    H241256   2.558   1.581   2.189 -1.0817  0.4763  0.4994
 6541TIP3   OH241257   6.756   0.558   0.758 -0.3304 -0.2304 -0.1087
 6541TIP3    H141258   6.784   0.469   0.740 -1.0903 -0.4931 -0.0007
 6541TIP3    H241259   6.663   0.560   0.737 -0.4983  0.3256  0.6239
 6542TIP3   OH241260   4.654   3.980   6.105  0.2680 -0.2261  0.0880
 6542TIP3    H141261   4.560   3.995   6.115  0.6338  2.0291  0.8095
 6542TIP3    H241262   4.692   4.068   6.103  2.3545 -1.0786 -0.3459
 6543TIP3   OH241263   6.497   4.672   0.707 -0.0066  0.1310 -0.5228
 6543TIP3    H141264   6.436   4.601   0.728 -1.5048  0.8975 -2.0237
 6543TIP3    H241265   6.441   4.742   0.673  1.4862  1.8183  0.3331
 6544TIP3   OH241266   6.449   3.113   7.432  0.3929 -0.2544 -0.0005
 6544TIP3    H141267   6.398   3.191   7.453 -0.4524 -0.3011 -1.6583
 6544TIP3    H241268   6.394   3.040   7.459 -0.0416 -0.2883 -0.9197
 6545TIP3   OH241269   4.002   5.169   1.924  0.1721 -0.7171  0.5476
 6545TIP3    H141270   4.029   5.106   1.857  0.0793 -0.4103  0.2199
 6545TIP3    H241271   3.973   5.246   1.874  0.8998 -0.1667  0.9591
 6546TIP3   OH241272   2.042   4.870   0.423 -0.7117  0.2074  0.5069
 6546TIP3    H141273   2.078   4.817   0.352  0.4561 -0.3510  1.4799
 6546TIP3    H241274   1.957   4.899   0.390  0.4947  1.3782 -1.7888
 6547TIP3   OH241275   4.059   5.182   6.661  0.3257 -0.3943 -0.3265
 6547TIP3    H141276   4.038   5.274   6.678  0.7929 -0.3215 -0.1157
 6547TIP3    H241277   4.022   5.164   6.575 -1.7728 -0.6610  0.5709
 6548TIP3   OH241278   6.742   6.865   0.698  0.0045  0.1828 -0.0604
 6548TIP3    H141279   6.748   6.798   0.630  1.2000  0.9258 -0.7292
 6548TIP3    H241280   6.771   6.820   0.778  0.4501 -0.2080 -0.4308
 6549TIP3   OH241281   3.547   3.238   7.721 -0.0566  0.1814 -0.3246
 6549TIP3    H141282   3.592   3.156   7.698 -1.6857 -0.7646 -0.2357
 6549TIP3    H241283   3.587   3.304   7.663  2.8469 -0.1569  1.0985
 6550TIP3   OH241284   0.811   2.316   7.652  0.0558 -0.6259  0.2023
 6550TIP3    H141285   0.717   2.327   7.638  0.1891  0.9434  0.3890
 6550TIP3    H241286   0.836   2.389   7.708  1.1942 -1.6646  1.1024
 6551TIP3   OH241287   5.040   6.919   0.695  0.1380 -0.2530  0.3999
 6551TIP3    H141288   5.080   6.865   0.628 -1.4123 -0.8298 -0.1234
 6551TIP3    H241289   4.961   6.954   0.654  0.0279  0.7505  1.3917
 6552TIP3   OH241290   4.151   3.986   7.695 -0.1878 -0.3734 -0.2534
 6552TIP3    H141291   4.076   3.934   7.664  0.8121 -1.3973 -1.0882
 6552TIP3    H241292   4.205   3.997   7.617 -0.0987  1.5122  0.0351
 6553TIP3   OH241293   0.538   4.151   1.214  0.4002 -0.1734  0.6294
 6553TIP3    H141294   0.575   4.066   1.238  0.4222 -0.3221  0.0687
 6553TIP3    H241295   0.449   4.150   1.249  0.8329  0.0957  1.7863
 6554TIP3   OH241296   0.179   6.377   1.196 -0.6977 -0.4592 -0.0233
 6554TIP3    H141297   0.192   6.428   1.116 -0.5257  2.8641  1.9612
 6554TIP3    H241298   0.086   6.356   1.196 -0.5034 -1.5263 -1.5690
 6555TIP3   OH241299   2.761   4.956   0.581  0.0322 -0.2333 -0.2251
 6555TIP3    H141300   2.693   5.021   0.564 -0.7198 -0.8581  0.3238
 6555TIP3    H241301   2.843   5.005   0.576 -0.4569  0.5355 -0.8839
 6556TIP3   OH241302   5.705   1.820   2.142  0.2647 -0.9801  0.2164
 6556TIP3    H141303   5.729   1.909   2.168 -1.0407  0.1306 -2.0419
 6556TIP3    H241304   5.772   1.765   2.182  2.3877  1.2230 -0.0486
 6557TIP3   OH241305   4.346   1.010   0.041 -0.5544 -0.1680 -0.2957
 6557TIP3    H141306   4.333   0.921   0.074  0.3224 -0.6722 -1.2475
 6557TIP3    H241307   4.434   1.009   0.004 -1.0724  0.6835 -1.6277
 6558TIP3   OH241308   5.004   3.745   7.327  0.1256  0.2535  0.6489
 6558TIP3    H141309   5.062   3.820   7.331  0.3231  0.0781  1.0481
 6558TIP3    H241310   4.999   3.724   7.233 -0.6831  1.3412  0.4370
 6559TIP3   OH241311   0.723   5.605   7.231  0.7196 -0.1364 -0.1268
 6559TIP3    H141312   0.670   5.550   7.289  1.6734 -2.1146 -1.0369
 6559TIP3    H241313   0.809   5.607   7.273  0.4451  1.5730  0.4222
 6560TIP3   OH241314   6.528   2.089   0.994 -0.4672 -0.0283  0.3401
 6560TIP3    H141315   6.563   2.033   0.925 -3.1862 -0.4323 -0.8324
 6560TIP3    H241316   6.532   2.034   1.073 -0.2711 -0.7450 -0.1537
 6561TIP3   OH241317   4.671   3.155   1.706 -0.2097  0.0360  0.6877
 6561TIP3    H141318   4.648   3.220   1.773  0.8046  1.9654 -0.7384
 6561TIP3    H241319   4.766   3.158   1.701 -0.2829  0.1380 -1.0371
 6562TIP3   OH241320   0.760   1.378   2.854  0.4344  0.3286  0.4091
 6562TIP3    H141321   0.665   1.364   2.852  0.2569  1.3454  0.8464
 6562TIP3    H241322   0.793   1.309   2.911 -0.0243 -0.1157  0.1482
 6563TIP3   OH241323   2.921   0.818   7.530  0.2664 -0.0154 -0.1939
 6563TIP3    H141324   2.876   0.787   7.452 -1.0439  0.0854  0.4862
 6563TIP3    H241325   2.896   0.911   7.537 -0.2931 -0.2218  0.7697
 6564TIP3   OH241326   3.823   2.019   2.648 -0.2862 -0.2000 -0.6703
 6564TIP3    H141327   3.886   2.004   2.719 -0.8293 -0.8148 -0.3065
 6564TIP3    H241328   3.858   2.094   2.601  0.3336 -0.0752 -0.0336
 6565TIP3   OH241329   3.150   6.728   7.734 -0.3835  0.0552 -0.3185
 6565TIP3    H141330   3.137   6.658   7.798 -0.8526  0.7637  0.3642
 6565TIP3    H241331   3.219   6.783   7.771  0.0288 -0.0674 -0.8823
 6566TIP3   OH241332   5.954   0.069   7.557 -0.1197  0.3358 -0.4439
 6566TIP3    H141333   5.995   0.152   7.536 -0.2552  0.4446 -0.2868
 6566TIP3    H241334   6.023   0.004   7.547  0.5278  0.6899  1.3176
 6567TIP3   OH241335   4.747   3.804   6.714 -0.6367 -0.5088 -0.3821
 6567TIP3    H141336   4.812   3.870   6.738 -0.0836 -0.7585 -1.1390
 6567TIP3    H241337   4.668   3.855   6.695  0.3108  0.1895 -2.8851
 6568TIP3   OH241338   0.380   6.244   1.304  0.1479 -0.0255 -0.4249
 6568TIP3    H141339   0.312   6.179   1.321  0.7377 -1.0072 -1.7325
 6568TIP3    H241340   0.338   6.310   1.249 -0.3518  0.5506  0.6178
 6569TIP3   OH241341   1.211   5.455   0.642 -0.2743  0.1849 -0.3646
 6569TIP3    H141342   1.298   5.440   0.679 -1.5943 -2.1557  2.1758
 6569TIP3    H241343   1.203   5.550   0.635  1.2469  0.6312  2.6676
 6570TIP3   OH241344   0.459   2.024   8.341 -0.0074  0.3297  0.6720
 6570TIP3    H141345   0.395   1.975   8.289 -1.2126  3.4336 -1.0821
 6570TIP3    H241346   0.544   1.991   8.312 -0.7152 -2.0520  1.0994
 6571TIP3   OH241347   2.520   4.562   7.663  0.5975  0.0238 -0.1372
 6571TIP3    H141348   2.525   4.518   7.748  1.3833  0.8543  0.2743
 6571TIP3    H241349   2.439   4.531   7.624 -0.4742  0.6287  1.5038
 6572TIP3   OH241350   3.562   1.669   1.227  0.4997 -0.1596 -0.2540
 6572TIP3    H141351   3.474   1.648   1.260  0.4693  2.3428  1.4814
 6572TIP3    H241352   3.616   1.678   1.305  2.7160 -2.8030 -1.3043
 6573TIP3   OH241353   4.625   6.508   0.776 -0.3077  0.1949 -0.8171
 6573TIP3    H141354   4.681   6.457   0.717 -1.8537 -2.4204 -0.2102
 6573TIP3    H241355   4.668   6.502   0.861 -0.0913  0.5698 -0.9006
 6574TIP3   OH241356   3.134   1.089   8.523 -0.3117 -0.2186 -0.5151
 6574TIP3    H141357   3.131   1.091   8.427 -1.4318 -1.4172 -0.5381
 6574TIP3    H241358   3.169   1.002   8.544 -2.0656 -0.8183  0.1371
 6575TIP3   OH241359   6.211   1.812   0.846 -0.4352  0.6057  0.0554
 6575TIP3    H141360   6.306   1.821   0.844 -0.3896  0.1282 -0.9379
 6575TIP3    H241361   6.186   1.827   0.937  0.7689 -0.9919  0.6958
 6576TIP3   OH241362   4.315   6.261   8.485 -0.2259 -0.6311  0.3884
 6576TIP3    H141363   4.245   6.246   8.549 -0.3507  0.3836  0.5039
 6576TIP3    H241364   4.390   6.286   8.538 -0.6396  1.3613  0.1125
 6577TIP3   OH241365   5.776   4.770   0.471  0.0508  0.1207 -0.1474
 6577TIP3    H141366   5.841   4.837   0.491  0.5587 -0.1054 -1.0171
 6577TIP3    H241367   5.758   4.728   0.555  1.1493  0.0695  0.0665
 6578TIP3   OH241368   2.705   4.573   1.467 -0.3144 -0.2165  0.0985
 6578TIP3    H141369   2.724   4.491   1.422  0.4612 -0.6365  1.1582
 6578TIP3    H241370   2.709   4.551   1.560 -3.4441  0.2599  0.4727
 6579TIP3   OH241371   6.007   4.888   0.139  0.4162  0.5553  0.0010
 6579TIP3    H141372   5.989   4.893   0.233 -0.9249 -0.2705 -0.1825
 6579TIP3    H241373   5.926   4.854   0.101  1.2197  0.0888 -1.3634
 6580TIP3   OH241374   5.254   6.087   8.467 -0.1819 -0.3166 -0.6391
 6580TIP3    H141375   5.226   6.007   8.510  1.9125 -0.9758 -0.4099
 6580TIP3    H241376   5.174   6.139   8.459 -1.3757 -1.9395  0.2182
 6581TIP3   OH241377   0.314   5.543   8.505  0.0131 -0.3682  0.2152
 6581TIP3    H141378   0.324   5.558   8.599 -1.1650  0.1676  0.2720
 6581TIP3    H241379   0.243   5.479   8.498 -0.9666  0.7188 -0.3301
 6582TIP3   OH241380   5.363   4.543   8.518 -0.0051  0.3242  0.1233
 6582TIP3    H141381   5.287   4.569   8.466  1.3801  0.7828 -1.7579
 6582TIP3    H241382   5.367   4.608   8.588 -0.9502  0.6762 -0.1342
 6583TIP3   OH241383   3.542   6.659   3.167 -0.0804  0.5349 -0.0804
 6583TIP3    H141384   3.559   6.566   3.183 -0.6768  0.7463  2.2451
 6583TIP3    H241385   3.448   6.669   3.179  0.0085  1.4614 -0.0664
 6584TIP3   OH241386   2.505   6.447   0.560  0.0617 -0.5480  0.3276
 6584TIP3    H141387   2.468   6.425   0.646 -0.3678 -1.7297 -0.1403
 6584TIP3    H241388   2.513   6.363   0.515 -1.5730  0.1989 -1.5267
 6585TIP3   OH241389   2.802   4.885   7.438 -0.3712 -0.2432  0.0045
 6585TIP3    H141390   2.756   4.802   7.428 -2.8490  0.6984  2.2346
 6585TIP3    H241391   2.737   4.951   7.414  0.1888  1.1196  1.9654
 6586TIP3   OH241392   2.239   2.493   1.689  0.3789  0.0121 -0.1251
 6586TIP3    H141393   2.164   2.549   1.707 -0.3829 -0.8391 -0.5369
 6586TIP3    H241394   2.212   2.440   1.614  0.8612 -1.2544  0.5617
 6587TIP3   OH241395   2.236   3.439   1.596  0.0362 -0.1359 -0.1363
 6587TIP3    H141396   2.202   3.427   1.507  0.1737 -0.0829 -0.1960
 6587TIP3    H241397   2.172   3.497   1.638 -0.4728 -0.8360  0.0635
 6588TIP3   OH241398   0.828   5.435   7.723 -1.0517  0.1072  0.9150
 6588TIP3    H141399   0.872   5.356   7.755 -0.9354 -0.8201 -1.3082
 6588TIP3    H241400   0.869   5.507   7.770  0.5466 -0.9883  1.2689
 6589TIP3   OH241401   6.626   1.301   7.554  0.4954 -0.1851 -0.6284
 6589TIP3    H141402   6.669   1.329   7.474  0.8010 -0.4893 -0.5717
 6589TIP3    H241403   6.696   1.294   7.618  0.1446  0.8307 -0.1110
 6590TIP3   OH241404   3.718   6.699   8.416  0.1769  0.5505  0.4589
 6590TIP3    H141405   3.772   6.741   8.349 -0.5627  0.6187 -0.1080
 6590TIP3    H241406   3.649   6.762   8.435  0.6775  0.7641  1.7009
 6591TIP3   OH241407   0.148   1.273   0.566  0.4153  0.2348  0.1801
 6591TIP3    H141408   0.073   1.329   0.544  1.5495  1.3672 -0.9131
 6591TIP3    H241409   0.136   1.195   0.512 -0.2604  0.1537  0.4351
 6592TIP3   OH241410   6.188   6.572   8.305 -0.3910 -0.1124  0.1957
 6592TIP3    H141411   6.141   6.534   8.379  1.9963  0.5378  2.1842
 6592TIP3    H241412   6.177   6.667   8.316  1.0456  0.0350  0.5212
 6593TIP3   OH241413   5.699   2.478   2.345  0.0784 -0.6176 -0.0600
 6593TIP3    H141414   5.621   2.517   2.384  1.1998  3.2162 -1.2649
 6593TIP3    H241415   5.735   2.423   2.415 -2.1600 -0.2541  1.4811
 6594TIP3   OH241416   1.254   2.313   2.326  0.2502  0.1996 -0.3658
 6594TIP3    H141417   1.291   2.296   2.412 -0.3165 -1.9955 -0.5083
 6594TIP3    H241418   1.325   2.295   2.265  0.1797  0.1773 -0.4410
 6595TIP3   OH241419   3.457   4.226   7.649 -0.3276 -0.5992 -0.4994
 6595TIP3    H141420   3.436   4.202   7.558  0.6435 -0.8767 -0.6681
 6595TIP3    H241421   3.517   4.157   7.678  1.2770  0.7542 -0.4533
 6596TIP3   OH241422   4.759   3.811   0.933  0.4700 -0.4441 -0.2840
 6596TIP3    H141423   4.720   3.831   1.019  1.2144  0.3841 -0.1230
 6596TIP3    H241424   4.739   3.888   0.880 -0.5723 -1.2413 -1.0758
 6597TIP3   OH241425   6.929   5.511   1.791 -0.1689  0.4284  0.1615
 6597TIP3    H141426   6.896   5.457   1.720 -2.3494 -0.9069  2.0409
 6597TIP3    H241427   6.958   5.449   1.858  0.9467  1.6222  0.8475
 6598TIP3   OH241428   0.428   0.862   7.764 -0.8334  0.1888 -0.4450
 6598TIP3    H141429   0.442   0.776   7.803  0.5392  0.3468 -0.5392
 6598TIP3    H241430   0.495   0.918   7.803 -1.4948  1.1455 -0.6324
 6599TIP3   OH241431   6.211   3.765   1.159 -0.0679 -0.0121  0.1736
 6599TIP3    H141432   6.212   3.852   1.120  0.1642 -0.1989 -0.2506
 6599TIP3    H241433   6.178   3.708   1.089  0.3365 -0.3535  0.2570
 6600TIP3   OH241434   2.178   6.279   7.378 -0.1251  0.3347 -0.4196
 6600TIP3    H141435   2.153   6.196   7.338  1.8839 -0.3679 -0.2955
 6600TIP3    H241436   2.209   6.255   7.466 -0.6022  1.3768  0.0587
 6601TIP3   OH241437   6.747   4.710   7.702 -0.6311  0.7441  0.2737
 6601TIP3    H141438   6.820   4.720   7.764 -1.8511 -0.6983  2.0513
 6601TIP3    H241439   6.730   4.616   7.700 -1.8758  0.9608 -0.8022
 6602TIP3   OH241440   2.267   3.866   6.375  0.2896  0.1578  0.0202
 6602TIP3    H141441   2.342   3.842   6.321  0.3130 -0.9783  0.5242
 6602TIP3    H241442   2.216   3.785   6.382 -0.8278  0.8473 -0.0735
 6603TIP3   OH241443   3.303   0.405   2.672  0.3272  0.1853  0.3432
 6603TIP3    H141444   3.210   0.388   2.687  0.3327  0.3998  0.6125
 6603TIP3    H241445   3.308   0.424   2.578  0.3890 -1.7769 -0.0954
 6604TIP3   OH241446   6.358   2.867   2.216  0.3955  0.2053  0.3663
 6604TIP3    H141447   6.423   2.805   2.249 -1.3635 -1.8373  0.2449
 6604TIP3    H241448   6.331   2.917   2.293  1.0700  0.0685  0.6971
 6605TIP3   OH241449   4.904   5.095   0.356  0.1372 -0.0125 -0.2955
 6605TIP3    H141450   4.961   5.109   0.280  0.7938 -0.0489  0.1810
 6605TIP3    H241451   4.862   5.179   0.370 -0.1310 -0.0591 -0.8176
 6606TIP3   OH241452   0.808   0.934   8.207 -0.4453  1.0588 -0.6199
 6606TIP3    H141453   0.729   0.958   8.256  0.1234  0.2071  0.7647
 6606TIP3    H241454   0.791   0.845   8.176  0.1320  0.6923  0.0830
 6607TIP3   OH241455   4.147   5.877   7.747  0.3042 -0.5874  0.4252
 6607TIP3    H141456   4.193   5.845   7.825  1.9702 -0.4545 -0.4519
 6607TIP3    H241457   4.126   5.797   7.698 -0.5523 -0.6571  0.8886
 6608TIP3   OH241458   1.151   5.426   1.855  0.0903 -0.3250  0.0392
 6608TIP3    H141459   1.149   5.468   1.941  0.6424 -0.0431 -0.0802
 6608TIP3    H241460   1.214   5.477   1.804  2.1016 -2.2587  0.4120
 6609TIP3   OH241461   5.184   0.165   0.779  0.1726  0.3254  0.0487
 6609TIP3    H141462   5.139   0.084   0.757 -1.0420  1.4882 -2.1003
 6609TIP3    H241463   5.168   0.177   0.873 -1.8562 -0.5967 -0.1331
 6610TIP3   OH241464   0.167   1.364   7.839  0.2702  0.1997 -0.5500
 6610TIP3    H141465   0.165   1.268   7.842  0.1808  0.2219  0.4749
 6610TIP3    H241466   0.181   1.385   7.746  0.9466 -0.8084 -0.6934
 6611TIP3   OH241467   6.962   5.641   0.918  0.2153  0.5376 -0.0330
 6611TIP3    H141468   7.005   5.557   0.936 -0.4894 -0.2584 -1.7950
 6611TIP3    H241469   6.868   5.621   0.919 -0.0692  1.7225  1.2776
 6612TIP3   OH241470   0.160   6.528   2.569 -0.2616  0.3788  0.0896
 6612TIP3    H141471   0.198   6.614   2.551 -1.7035  1.3688  1.5646
 6612TIP3    H241472   0.138   6.530   2.662  0.5804 -1.9883  0.4138
 6613TIP3   OH241473   5.000   3.134   1.177 -0.5513  0.0557 -0.5397
 6613TIP3    H141474   4.963   3.051   1.149 -0.6257 -0.2499  0.4264
 6613TIP3    H241475   5.078   3.145   1.122 -0.4525 -0.7249 -0.5696
 6614TIP3   OH241476   5.712   3.473   1.742 -1.0390 -0.5616  0.1381
 6614TIP3    H141477   5.723   3.380   1.724 -1.1153 -0.5549  0.0532
 6614TIP3    H241478   5.781   3.516   1.690 -0.4973 -0.6257  0.7947
 6615TIP3   OH241479   2.201   6.613   0.652  0.7985 -0.3813  0.1586
 6615TIP3    H141480   2.263   6.662   0.706  1.8979 -1.2887 -0.2568
 6615TIP3    H241481   2.221   6.640   0.562  1.0363 -1.1666 -0.0285
 6616TIP3   OH241482   3.127   4.279   1.599 -0.0038  0.1692 -0.0186
 6616TIP3    H141483   3.217   4.304   1.620  0.5864  0.2490 -2.3120
 6616TIP3    H241484   3.122   4.186   1.619  0.9669 -0.0891 -0.8781
 6617TIP3   OH241485   2.224   5.354   0.427  0.7365  0.0994 -0.1175
 6617TIP3    H141486   2.157   5.355   0.495  1.6223 -1.3318  0.8409
 6617TIP3    H241487   2.218   5.267   0.389  0.0836  0.9615 -2.1090
 6618TIP3   OH241488   3.901   6.012   2.921 -0.1590  0.3000 -0.3576
 6618TIP3    H141489   3.993   5.983   2.922  0.0243  0.8420  0.9876
 6618TIP3    H241490   3.872   5.995   2.831  0.9824 -0.7235 -0.5705
 6619TIP3   OH241491   2.895   4.198   6.571 -0.3999  0.5336 -0.0503
 6619TIP3    H141492   2.917   4.291   6.560  0.4261  0.2446 -0.9408
 6619TIP3    H241493   2.978   4.157   6.598 -0.8256  0.0927  0.6155
 6620TIP3   OH241494   2.040   3.134   2.480 -0.4945 -0.0830  0.3765
 6620TIP3    H141495   2.129   3.118   2.512 -0.8172  0.7311  1.7734
 6620TIP3    H241496   2.041   3.101   2.390  1.1751 -0.1983  0.3964
 6621TIP3   OH241497   0.939   0.377   2.205  0.6084 -0.4580  0.1081
 6621TIP3    H141498   0.900   0.377   2.292  2.4073 -1.2327  0.9561
 6621TIP3    H241499   0.969   0.466   2.191 -2.8727  0.6508 -1.3032
 6622TIP3   OH241500   1.634   5.967   1.680  0.2869  0.2180 -0.1937
 6622TIP3    H141501   1.546   5.983   1.713 -0.0794 -0.9664 -0.5603
 6622TIP3    H241502   1.665   6.053   1.653 -0.5472  0.7332  0.4435
 6623TIP3   OH241503   1.323   0.802   1.781 -0.0209  0.3154 -0.5084
 6623TIP3    H141504   1.333   0.797   1.876  0.3434  1.4758 -0.4698
 6623TIP3    H241505   1.397   0.751   1.747  2.1341  2.9228 -0.1461
 6624TIP3   OH241506   3.672   6.353   0.831  0.2755  0.4760  0.3406
 6624TIP3    H141507   3.750   6.298   0.818 -0.0176  0.5152 -2.1723
 6624TIP3    H241508   3.625   6.347   0.748 -1.5473  1.8189  1.2078
 6625TIP3   OH241509   1.623   5.300   7.622  0.0288  0.3077  0.2063
 6625TIP3    H141510   1.531   5.326   7.623  0.5023  2.4911 -2.1953
 6625TIP3    H241511   1.657   5.328   7.707 -1.1639  0.9828  0.4819
 6626TIP3   OH241512   3.131   4.017   1.727 -0.0817 -0.5214  0.4134
 6626TIP3    H141513   3.115   3.941   1.784 -1.1654 -1.7793 -1.4605
 6626TIP3    H241514   3.213   3.997   1.682  0.8893  0.5731  1.6325
 6627TIP3   OH241515   5.364   0.411   8.260 -0.4365 -0.2629  0.3471
 6627TIP3    H141516   5.378   0.326   8.302  0.2850 -0.1313  0.3756
 6627TIP3    H241517   5.287   0.447   8.305  0.0742 -0.3061  1.2859
 6628TIP3   OH241518   5.088   6.876   0.302  0.2080 -0.1533  0.0055
 6628TIP3    H141519   5.163   6.878   0.243 -0.7234 -1.5058 -1.2855
 6628TIP3    H241520   5.110   6.810   0.368 -0.1795 -1.1914 -0.8802
 6629TIP3   OH241521   3.767   1.590   0.144  0.1670  0.0979  0.1341
 6629TIP3    H141522   3.823   1.537   0.088 -1.1916 -1.8712  0.5448
 6629TIP3    H241523   3.679   1.556   0.128 -0.4670  0.6525  2.1760
 6630TIP3   OH241524   3.376   1.382   8.216 -0.7441  0.0899 -0.0104
 6630TIP3    H141525   3.354   1.301   8.263 -2.1181  0.7291  0.4896
 6630TIP3    H241526   3.300   1.438   8.227 -0.5047  0.8312 -1.7857
 6631TIP3   OH241527   5.465   2.085   1.780 -0.5472  0.2285 -0.3782
 6631TIP3    H141528   5.475   2.173   1.815  0.1523  0.3298 -0.8226
 6631TIP3    H241529   5.535   2.076   1.716  1.6485 -1.8566  2.0683
 6632TIP3   OH241530   1.769   1.467   8.250  0.4852 -0.0273 -0.2419
 6632TIP3    H141531   1.692   1.429   8.207 -0.5242  1.9602 -0.3092
 6632TIP3    H241532   1.809   1.522   8.184  0.6992  0.6596  0.4527
 6633TIP3   OH241533   4.858   5.108   1.714 -0.2131  0.2783 -0.1871
 6633TIP3    H141534   4.831   5.071   1.799  2.6333 -1.5023  0.0767
 6633TIP3    H241535   4.820   5.049   1.649 -1.0950  0.7413 -0.1083
 6634TIP3   OH241536   5.010   3.862   8.225 -0.2245 -0.0927 -0.3364
 6634TIP3    H141537   4.945   3.929   8.203 -0.9477 -0.6926 -0.0861
 6634TIP3    H241538   4.961   3.797   8.276  1.0385  0.5154  1.8012
 6635TIP3   OH241539   5.125   4.251   8.209  0.0696  0.2415 -0.2075
 6635TIP3    H141540   5.156   4.176   8.159 -1.1246 -1.2191  1.1297
 6635TIP3    H241541   5.105   4.317   8.143 -0.8194 -1.3594 -1.6193
 6636TIP3   OH241542   5.911   5.951   7.050 -0.0338  0.6587 -0.1184
 6636TIP3    H141543   5.941   5.893   7.120  0.9165 -0.4308 -1.3801
 6636TIP3    H241544   5.817   5.958   7.064  0.0498 -0.0032  0.9275
 6637TIP3   OH241545   4.842   2.693   1.134  0.1624 -0.2016  0.4819
 6637TIP3    H141546   4.752   2.686   1.104  0.2459  2.2084 -0.5207
 6637TIP3    H241547   4.890   2.628   1.083 -1.0046 -1.7060  1.2281
 6638TIP3   OH241548   2.414   3.931   6.990 -0.0588 -0.1745 -0.0267
 6638TIP3    H141549   2.444   3.841   7.002 -0.5356 -0.1026  2.0597
 6638TIP3    H241550   2.492   3.980   6.965  0.2802 -1.0856 -0.7925
 6639TIP3   OH241551   4.160   5.824   6.143  0.1093  0.2000  0.4462
 6639TIP3    H141552   4.195   5.849   6.057  2.7615  0.3397  1.4670
 6639TIP3    H241553   4.129   5.735   6.132  0.0498  0.3534 -0.7420
 6640TIP3   OH241554   3.024   5.449   7.312 -0.2727  0.6312  0.3244
 6640TIP3    H141555   3.096   5.438   7.374 -0.5852 -1.0131  0.4412
 6640TIP3    H241556   2.976   5.366   7.315 -2.9798  2.0877  1.2189
 6641TIP3   OH241557   0.385   4.751   0.858  0.0914  0.6224 -0.4047
 6641TIP3    H141558   0.408   4.717   0.944 -1.2994  1.0405  0.1574
 6641TIP3    H241559   0.469   4.763   0.813  0.8686  0.9572  1.0942
 6642TIP3   OH241560   2.310   2.614   7.786  0.6266  0.1096  0.0722
 6642TIP3    H141561   2.245   2.547   7.804 -0.7056  1.7587  1.7790
 6642TIP3    H241562   2.284   2.651   7.701 -0.8085  0.8430  0.8007
 6643TIP3   OH241563   3.333   3.932   0.963 -0.2698 -0.9860 -0.3993
 6643TIP3    H141564   3.367   4.011   1.004 -0.7831 -0.7731 -0.3735
 6643TIP3    H241565   3.313   3.958   0.873  1.4557 -1.6167 -1.0031
 6644TIP3   OH241566   3.425   2.247   1.987 -0.0348  0.5535 -0.7105
 6644TIP3    H141567   3.378   2.170   2.021  1.2593 -0.0134 -0.1197
 6644TIP3    H241568   3.501   2.210   1.941  0.9234  1.4770  0.0726
 6645TIP3   OH241569   3.385   4.706   7.046 -0.1045 -0.3932  0.2336
 6645TIP3    H141570   3.428   4.774   6.994  0.3752 -0.1691  0.9119
 6645TIP3    H241571   3.393   4.626   6.994 -2.8818  0.4818 -1.7860
 6646TIP3   OH241572   0.455   1.461   8.445  0.5928  0.0213 -0.1315
 6646TIP3    H141573   0.363   1.458   8.420 -0.0528  0.4142  1.9401
 6646TIP3    H241574   0.488   1.542   8.407 -0.3981  0.7456  0.5142
 6647TIP3   OH241575   1.875   3.447   0.059 -0.6062 -0.1016 -0.0784
 6647TIP3    H141576   1.883   3.539   0.083  1.8466 -0.4164  0.6640
 6647TIP3    H241577   1.825   3.408   0.131  1.2694  0.1079  1.4286
 6648TIP3   OH241578   3.889   6.544   2.246  0.7953  0.0877 -0.2691
 6648TIP3    H141579   3.880   6.570   2.155  0.8838  1.4929  0.0935
 6648TIP3    H241580   3.929   6.620   2.289  1.4402 -0.8141  0.8034
 6649TIP3   OH241581   2.549   3.844   8.162  0.1296  0.5994 -0.3252
 6649TIP3    H141582   2.616   3.796   8.113 -1.9589 -0.8434 -1.9429
 6649TIP3    H241583   2.493   3.883   8.095 -1.3925  0.6623  0.9378
 6650TIP3   OH241584   1.666   1.691   0.826 -0.5372 -0.0148 -0.2314
 6650TIP3    H141585   1.603   1.744   0.777 -1.2759 -0.8003 -0.1603
 6650TIP3    H241586   1.739   1.678   0.766 -1.0139 -0.1712 -0.7951
 6651TIP3   OH241587   2.328   3.700   7.475  0.3544  0.1555  0.8790
 6651TIP3    H141588   2.252   3.743   7.515  0.4112 -0.0875  1.2548
 6651TIP3    H241589   2.366   3.649   7.546  0.5393 -0.1758  0.5415
 6652TIP3   OH241590   5.623   2.823   1.481 -0.3729  0.0289 -0.1220
 6652TIP3    H141591   5.632   2.816   1.576 -2.5735 -1.4382  0.0471
 6652TIP3    H241592   5.547   2.880   1.468 -0.4133 -0.2130 -0.9876
 6653TIP3   OH241593   1.029   5.304   8.122  0.0549 -0.1248 -0.8468
 6653TIP3    H141594   0.958   5.309   8.186 -1.9038  0.6132 -2.9573
 6653TIP3    H241595   1.053   5.212   8.119  2.2436  0.1136  2.9281
 6654TIP3   OH241596   3.800   6.865   1.290  0.1370  0.7845 -0.6316
 6654TIP3    H141597   3.768   6.950   1.320  0.5692  0.7456 -0.0506
 6654TIP3    H241598   3.778   6.864   1.197 -1.1207  0.9527 -0.3631
 6655TIP3   OH241599   5.476   3.930   7.969  0.4977  0.0786  0.1267
 6655TIP3    H141600   5.564   3.962   7.985  0.0335  0.7587  1.4333
 6655TIP3    H241601   5.488   3.844   7.930  1.7326  0.0043  0.6490
 6656TIP3   OH241602   3.108   6.275   1.827 -0.2122  0.0587  0.2321
 6656TIP3    H141603   3.026   6.274   1.778  0.3732 -0.6375 -0.7676
 6656TIP3    H241604   3.129   6.367   1.837  0.7736  0.2596 -2.7913
 6657TIP3   OH241605   3.291   1.686   1.326 -0.7282  0.0319  0.2894
 6657TIP3    H141606   3.198   1.664   1.333 -1.1090  1.4308 -0.1476
 6657TIP3    H241607   3.295   1.754   1.259  0.6668 -0.2935  0.0060
 6658TIP3   OH241608   5.144   6.506   0.253  0.2938  0.3582 -0.5895
 6658TIP3    H141609   5.116   6.560   0.328  0.7739 -0.3149  0.0929
 6658TIP3    H241610   5.194   6.567   0.198 -2.0650  1.4672 -1.6173
 6659TIP3   OH241611   6.570   6.951   8.049  0.1554 -0.1321  0.0661
 6659TIP3    H141612   6.589   6.940   8.142  0.2812 -2.0562 -0.1523
 6659TIP3    H241613   6.653   6.928   8.006 -0.4991 -1.3135 -0.5921
 6660TIP3   OH241614   5.028   5.269   6.815 -0.3395 -0.1518  0.3738
 6660TIP3    H141615   5.030   5.363   6.798 -0.2920 -0.2219 -0.0128
 6660TIP3    H241616   4.989   5.231   6.736 -0.1304 -0.4793  0.4278
 6661TIP3   OH241617   2.382   2.635   8.044  0.0611  0.1525 -0.4335
 6661TIP3    H141618   2.352   2.630   7.954  0.6230 -1.1322 -0.5721
 6661TIP3    H241619   2.429   2.718   8.048 -0.6783  0.6186 -1.0866
 6662TIP3   OH241620   4.972   1.689   0.965  0.0621 -0.5881  0.0796
 6662TIP3    H141621   5.008   1.660   0.881  0.2378  1.6016 -0.6891
 6662TIP3    H241622   5.025   1.645   1.031  3.7207  1.7583 -0.9890
 6663TIP3   OH241623   0.585   4.747   7.774 -0.1169  0.9531 -0.2504
 6663TIP3    H141624   0.640   4.689   7.827 -0.0140  1.1797 -0.1073
 6663TIP3    H241625   0.497   4.738   7.811 -0.1876  0.5623 -0.5026
 6664TIP3   OH241626   1.353   2.900   1.613  0.2256 -0.0229  0.1942
 6664TIP3    H141627   1.312   2.817   1.639 -1.4106 -0.1758 -2.4798
 6664TIP3    H241628   1.446   2.879   1.604  0.0326 -1.2217  0.7564
 6665TIP3   OH241629   5.050   4.835   1.913 -0.3589 -0.7081  0.1755
 6665TIP3    H141630   5.033   4.768   1.979 -1.9044 -1.9141 -1.3425
 6665TIP3    H241631   4.994   4.810   1.839  0.9384  0.8411 -1.4134
 6666TIP3   OH241632   0.068   4.779   1.284 -0.2619  0.2956 -0.0833
 6666TIP3    H141633   0.099   4.860   1.243 -0.2009  0.6553  0.6590
 6666TIP3    H241634   0.139   4.716   1.269  1.7175  1.5418  3.0218
 6667TIP3   OH241635   2.966   5.338   1.017  0.3220 -1.0664  0.6077
 6667TIP3    H141636   2.881   5.295   1.024 -1.6962  2.3757 -0.5702
 6667TIP3    H241637   2.995   5.348   1.108 -1.6377 -0.3952  1.2194
 6668TIP3   OH241638   4.507   2.504   7.889 -0.2110  0.4504 -0.4357
 6668TIP3    H141639   4.560   2.553   7.951  0.5268 -0.0642 -0.6547
 6668TIP3    H241640   4.418   2.511   7.923  0.1762  0.2257  0.6422
 6669TIP3   OH241641   4.143   2.474   0.822  0.3022 -0.3894 -0.0402
 6669TIP3    H141642   4.066   2.530   0.815 -0.8142 -1.8253  0.1343
 6669TIP3    H241643   4.107   2.385   0.825  1.9392 -1.0642  0.6752
 6670TIP3   OH241644   3.425   2.615   8.114 -0.1882 -0.0345 -0.0028
 6670TIP3    H141645   3.475   2.571   8.044  0.2279  0.2009  0.1406
 6670TIP3    H241646   3.353   2.658   8.068  0.7306  1.0939 -0.4686
 6671TIP3   OH241647   3.441   0.918   0.295 -0.0313 -0.7201 -0.4430
 6671TIP3    H141648   3.492   0.948   0.219 -1.4275  0.9012 -0.8052
 6671TIP3    H241649   3.497   0.937   0.370 -0.8464  3.3008 -0.6109
 6672TIP3   OH241650   3.544   5.891   7.186  0.0884 -0.1712  0.4773
 6672TIP3    H141651   3.598   5.902   7.108  1.4979  2.1039  1.6569
 6672TIP3    H241652   3.465   5.941   7.167  0.0131 -0.4170  0.1430
 6673TIP3   OH241653   3.596   0.207   0.685  0.0407 -0.7427 -0.1528
 6673TIP3    H141654   3.691   0.204   0.692  0.1547 -0.0264 -1.1573
 6673TIP3    H241655   3.569   0.116   0.675  0.5984 -0.9612  0.3171
 6674TIP3   OH241656   3.939   5.244   7.587 -0.7748  0.1383  0.2621
 6674TIP3    H141657   3.954   5.313   7.522 -0.1015  0.8844  1.1918
 6674TIP3    H241658   3.848   5.257   7.614 -1.4413 -0.9110 -1.3544
 6675TIP3   OH241659   1.041   0.761   7.661  0.2290  0.1664 -0.2520
 6675TIP3    H141660   1.108   0.806   7.713  0.1382  0.1198 -0.0935
 6675TIP3    H241661   1.091   0.716   7.593  0.5136 -1.0894  0.7443
 6676TIP3   OH241662   1.004   6.865   8.448  0.4503 -0.1401  0.2284
 6676TIP3    H141663   1.034   6.775   8.461  1.2300  0.2800  1.5155
 6676TIP3    H241664   1.068   6.904   8.390  0.9995  0.0251  0.9343
 6677TIP3   OH241665   6.956   1.305   2.397 -0.6359 -0.0181 -0.3721
 6677TIP3    H141666   6.927   1.373   2.337 -0.4176  1.6558  1.3256
 6677TIP3    H241667   6.986   1.234   2.341 -0.1513  1.5861 -2.2276
 6678TIP3   OH241668   2.877   6.156   0.214 -0.2834 -0.6739  0.1174
 6678TIP3    H141669   2.905   6.083   0.268  1.0500 -1.9736 -2.1641
 6678TIP3    H241670   2.941   6.160   0.143 -1.7771  1.0656 -1.2638
 6679TIP3   OH241671   1.088   5.876   0.745 -0.1272  0.4109 -0.4246
 6679TIP3    H141672   1.000   5.893   0.710  0.0303 -0.8673 -1.4965
 6679TIP3    H241673   1.141   5.856   0.668  0.8543  0.0700  0.3261
 6680TIP3   OH241674   4.174   2.480   1.772  0.3293 -0.1318  0.1152
 6680TIP3    H141675   4.269   2.473   1.773  0.6336  2.5866  1.1722
 6680TIP3    H241676   4.156   2.555   1.830 -2.2257  1.2927 -2.3132
 6681TIP3   OH241677   5.232   6.235   1.951 -0.1793  0.0204  0.4204
 6681TIP3    H141678   5.317   6.279   1.960 -0.7684  1.4137 -0.4523
 6681TIP3    H241679   5.199   6.264   1.866 -0.5787 -2.2391 -0.2706
 6682TIP3   OH241680   0.017   0.223   2.619 -0.0092  0.4892 -0.3719
 6682TIP3    H141681  -0.040   0.205   2.544  0.8252 -1.0048 -0.6860
 6682TIP3    H241682   0.046   0.313   2.606  0.0970  0.2653 -1.8466
 6683TIP3   OH241683   6.372   3.478   8.100 -0.0089 -0.5088  0.2744
 6683TIP3    H141684   6.345   3.413   8.165 -1.3314  0.5190  0.7978
 6683TIP3    H241685   6.332   3.559   8.130  0.5885  0.2935 -1.0379
 6684TIP3   OH241686   5.313   4.574   7.940 -0.2644  0.2237 -0.0147
 6684TIP3    H141687   5.307   4.665   7.912 -0.3185 -0.0496 -0.9160
 6684TIP3    H241688   5.384   4.573   8.004  1.6056  0.4240 -1.9939
 6685TIP3   OH241689   3.733   5.633   0.892  0.4693 -0.1812  0.0704
 6685TIP3    H141690   3.783   5.704   0.933  1.4409 -0.6433 -0.2775
 6685TIP3    H241691   3.772   5.623   0.805 -0.5076 -0.2925 -0.3598
 6686TIP3   OH241692   5.866   0.455   0.343 -0.3322  0.0798  0.1392
 6686TIP3    H141693   5.945   0.506   0.363 -0.3226  0.8814 -1.7333
 6686TIP3    H241694   5.803   0.520   0.313 -1.3665 -0.6852  0.6106
 6687TIP3   OH241695   6.437   4.619   8.005  0.2869 -0.1485  0.2649
 6687TIP3    H141696   6.385   4.645   8.081 -0.3899  1.0126 -0.5662
 6687TIP3    H241697   6.372   4.584   7.944  0.5557  0.7019 -0.5193
 6688TIP3   OH241698   4.787   0.897   7.156  0.4284  1.1626  0.2042
 6688TIP3    H141699   4.712   0.839   7.173  1.5084 -0.1578  0.6326
 6688TIP3    H241700   4.766   0.938   7.072 -0.6706  0.6404  0.1987
 6689TIP3   OH241701   1.853   4.872   0.199 -0.5061 -0.0920 -0.1617
 6689TIP3    H141702   1.913   4.801   0.175 -0.9425 -0.2064 -0.9596
 6689TIP3    H241703   1.891   4.950   0.157 -0.8735 -0.1534 -0.6145
 6690TIP3   OH241704   1.574   2.482   0.029 -0.1480  0.1390 -0.1488
 6690TIP3    H141705   1.557   2.556  -0.030 -1.8822  0.5058  0.7544
 6690TIP3    H241706   1.496   2.428   0.023  0.0221 -0.2728  1.1424
 6691TIP3   OH241707   4.738   3.754   1.926 -0.0887  0.2958  0.1963
 6691TIP3    H141708   4.733   3.670   1.882 -0.6508 -0.2729  1.3156
 6691TIP3    H241709   4.651   3.767   1.964 -0.1870  1.6473 -0.4076
 6692TIP3   OH241710   3.968   0.898   3.307  0.6183  0.1258 -0.3650
 6692TIP3    H141711   3.873   0.904   3.309  0.4571 -1.0130 -2.1031
 6692TIP3    H241712   3.996   0.974   3.257  0.4306 -0.5814 -1.5934
 6693TIP3   OH241713   3.208   0.086   1.595 -0.1504  0.4995  0.9056
 6693TIP3    H141714   3.210   0.100   1.501 -0.3780  2.2647  1.1353
 6693TIP3    H241715   3.299   0.089   1.622 -0.0245 -0.7096  0.6742
 6694TIP3   OH241716   6.924   5.067   1.484  0.7565 -0.5396  0.0143
 6694TIP3    H141717   7.000   5.011   1.502  0.5894 -0.7616  0.0441
 6694TIP3    H241718   6.849   5.013   1.509  0.6588  1.0144  3.6690
 6695TIP3   OH241719   6.646   6.500   0.939 -0.5275 -0.0117 -0.5227
 6695TIP3    H141720   6.624   6.438   1.008  0.7853  1.0802  0.9474
 6695TIP3    H241721   6.606   6.582   0.967 -0.1376  0.4074 -1.1714
 6696TIP3   OH241722   2.995   1.101   7.040  0.0785 -0.1655 -0.0801
 6696TIP3    H141723   2.982   1.021   7.092 -0.6536  0.1305  0.2078
 6696TIP3    H241724   3.069   1.081   6.983  0.8931 -0.5050  1.0728
 6697TIP3   OH241725   2.206   6.750   1.024 -0.1965  0.3406 -0.0884
 6697TIP3    H141726   2.263   6.716   0.955 -1.1651 -1.3586 -0.1011
 6697TIP3    H241727   2.259   6.816   1.069  0.9681  0.4131 -1.5093
 6698TIP3   OH241728   2.409   6.736   0.808 -0.2661 -0.2634  0.5386
 6698TIP3    H141729   2.470   6.809   0.804  0.2079 -0.6595  0.3916
 6698TIP3    H241730   2.459   6.665   0.848 -1.2017 -0.0474  2.1930
 6699TIP3   OH241731   4.869   2.704   2.044 -0.9719 -0.0314 -0.4527
 6699TIP3    H141732   4.802   2.745   2.099 -0.0452 -0.8902  1.3884
 6699TIP3    H241733   4.949   2.750   2.066 -0.5666 -0.4601 -1.0153
 6700TIP3   OH241734   4.652   1.517   2.069 -0.2051  0.1789 -0.1621
 6700TIP3    H141735   4.746   1.519   2.088 -0.2633  1.3660  0.1232
 6700TIP3    H241736   4.636   1.431   2.030  0.7391 -0.5934  1.0827
 6701TIP3   OH241737   1.229   4.985   1.050 -0.3109 -0.2913  0.5108
 6701TIP3    H141738   1.232   4.959   1.142  0.7646 -0.7578  0.3596
 6701TIP3    H241739   1.314   4.958   1.015 -0.5669  0.2142 -0.5302
 6702TIP3   OH241740   0.871   3.931   6.704  0.4281 -0.5479 -0.3909
 6702TIP3    H141741   0.842   4.021   6.693 -1.4915 -0.9855  0.6677
 6702TIP3    H241742   0.878   3.919   6.799  2.5483 -0.9894 -0.5476
 6703TIP3   OH241743   1.921   0.811   7.711 -0.5279 -0.5120  0.0867
 6703TIP3    H141744   1.915   0.789   7.804 -0.5757  1.4391  0.5868
 6703TIP3    H241745   1.877   0.896   7.704 -1.2744 -1.0127 -1.8814
 6704TIP3   OH241746   2.774   4.377   8.042  0.5771  0.5016 -0.8524
 6704TIP3    H141747   2.862   4.350   8.015 -0.0128 -2.0078 -0.5172
 6704TIP3    H241748   2.787   4.415   8.129  1.4137  0.7089 -1.0564
 6705TIP3   OH241749   4.782   3.398   2.101 -0.4438 -0.1072 -0.8031
 6705TIP3    H141750   4.854   3.339   2.075  1.3986  2.4078 -1.8030
 6705TIP3    H241751   4.724   3.399   2.025 -0.8151 -1.0574 -0.5444
 6706TIP3   OH241752   6.361   3.029   7.880 -0.0385  0.1081 -0.0970
 6706TIP3    H141753   6.298   3.083   7.927  0.3900 -0.4578  1.1614
 6706TIP3    H241754   6.446   3.054   7.915  0.2000 -1.0387  0.1820
 6707TIP3   OH241755   5.653   1.613   0.133  0.2302 -0.1667 -0.1510
 6707TIP3    H141756   5.630   1.634   0.224  0.6684 -0.8349  0.1262
 6707TIP3    H241757   5.569   1.590   0.092  0.1678 -0.9654  0.3989
 6708TIP3   OH241758   1.720   6.630   1.326  0.0129 -0.0628  0.4373
 6708TIP3    H141759   1.647   6.665   1.377 -1.0423 -0.5022 -0.7224
 6708TIP3    H241760   1.732   6.692   1.254 -0.7067 -1.0912 -0.6279
 6709TIP3   OH241761   3.412   4.613   1.153  0.0943  0.2914  0.3242
 6709TIP3    H141762   3.346   4.552   1.187  0.1967 -1.1195 -1.8721
 6709TIP3    H241763   3.495   4.567   1.164  0.3623  0.7280  0.1538
 6710TIP3   OH241764   5.238   3.133   0.255  0.2649  0.0945  0.0293
 6710TIP3    H141765   5.308   3.162   0.312  2.0905 -1.4484 -1.3095
 6710TIP3    H241766   5.273   3.056   0.209 -2.2506 -0.6930 -0.7968
 6711TIP3   OH241767   1.787   6.345   7.283 -0.6811  0.5582 -0.5668
 6711TIP3    H141768   1.815   6.332   7.193  0.0791  0.6586 -0.3520
 6711TIP3    H241769   1.695   6.320   7.284 -0.0318 -2.1707 -0.7900
 6712TIP3   OH241770   4.925   3.232   7.460 -0.2429 -0.4217  0.0883
 6712TIP3    H141771   4.939   3.313   7.509 -0.0227 -0.4159  0.0141
 6712TIP3    H241772   4.950   3.253   7.370 -1.1574 -0.2727 -0.1478
 6713TIP3   OH241773   5.625   3.662   7.380  0.4801 -0.0732  0.8488
 6713TIP3    H141774   5.534   3.639   7.363  0.7145 -1.3671  1.2242
 6713TIP3    H241775   5.642   3.736   7.323 -0.6117 -0.2479  0.2666
 6714TIP3   OH241776   0.641   1.125   2.406 -0.6187 -0.3129 -0.1067
 6714TIP3    H141777   0.659   1.170   2.324  0.0396  0.1437  0.2711
 6714TIP3    H241778   0.708   1.159   2.466 -0.7790 -1.0127  0.4752
 6715TIP3   OH241779   0.827   3.906   6.427 -0.0641  0.2709  0.2435
 6715TIP3    H141780   0.853   3.883   6.516  1.2195  0.6972  0.0088
 6715TIP3    H241781   0.765   3.838   6.401 -0.4446  0.1407  1.4550
 6716TIP3   OH241782   0.325   3.800   1.570  0.0995  0.3647  0.1753
 6716TIP3    H141783   0.262   3.773   1.637  1.9935  0.1108  1.9246
 6716TIP3    H241784   0.390   3.730   1.568  1.5208  1.6347  0.0081
 6717TIP3   OH241785   3.853   5.356   6.390 -0.0634 -0.7576  0.1240
 6717TIP3    H141786   3.886   5.355   6.300 -0.8791  0.1459 -0.2042
 6717TIP3    H241787   3.786   5.424   6.390 -1.3783 -2.0031  0.9712
 6718TIP3   OH241788   0.253   2.815   8.086 -0.1488  0.0427  0.3500
 6718TIP3    H141789   0.169   2.771   8.075 -0.3962  0.4774  0.4692
 6718TIP3    H241790   0.250   2.851   8.175  0.3962 -0.4238  0.5680
 6719TIP3   OH241791   6.716   3.820   2.241 -0.0150  0.0427 -0.0627
 6719TIP3    H141792   6.797   3.872   2.232  0.4971 -0.1833  2.4844
 6719TIP3    H241793   6.746   3.729   2.237 -0.6505 -0.1419 -2.4181
 6720TIP3   OH241794   6.965   3.039   1.475  0.0758 -0.2778  0.0194
 6720TIP3    H141795   7.003   3.052   1.388 -0.6820  0.3083 -0.2410
 6720TIP3    H241796   6.994   3.115   1.525  2.0945 -1.5483  0.8914
 6721TIP3   OH241797   1.783   2.032   0.855 -0.0009 -0.2252 -0.2864
 6721TIP3    H141798   1.766   2.043   0.761  2.2770  1.1247 -0.6161
 6721TIP3    H241799   1.814   1.941   0.862 -1.2117 -0.6885 -0.6283
 6722TIP3   OH241800   0.457   3.214   1.529  0.1019 -0.2763  0.4827
 6722TIP3    H141801   0.502   3.173   1.603  1.0005 -1.0324 -0.4658
 6722TIP3    H241802   0.512   3.288   1.505  0.3898 -0.6746 -0.1102
 6723TIP3   OH241803   1.557   1.906   0.513 -0.5412 -0.0404 -0.3740
 6723TIP3    H141804   1.500   1.829   0.516 -0.6639  0.0754  0.2947
 6723TIP3    H241805   1.548   1.938   0.423 -0.6632 -0.6728 -0.5904
 6724TIP3   OH241806   3.284   0.215   0.229  0.0350 -0.2969  0.0799
 6724TIP3    H141807   3.244   0.262   0.302  2.5018 -2.8218  3.3541
 6724TIP3    H241808   3.354   0.273   0.197 -0.2948  0.3400  0.4947
 6725TIP3   OH241809   5.345   0.657   1.085 -0.2571  0.3924 -0.2428
 6725TIP3    H141810   5.318   0.662   1.176 -2.7579  1.9113 -0.9772
 6725TIP3    H241811   5.406   0.731   1.074  1.1114 -0.5852  0.4450
 6726TIP3   OH241812   6.582   3.810   8.161  0.3974  0.4630  0.3607
 6726TIP3    H141813   6.583   3.793   8.256  0.0389 -0.8755  0.1444
 6726TIP3    H241814   6.626   3.735   8.123  0.6455  1.0557 -0.5490
 6727TIP3   OH241815   0.278   1.068   1.488 -0.4895 -0.2620  0.0027
 6727TIP3    H141816   0.336   0.991   1.488 -1.1512 -0.7737 -0.4102
 6727TIP3    H241817   0.192   1.033   1.513 -0.9883  0.1886 -1.0451
 6728TIP3   OH241818   4.836   5.630   1.376 -0.1210 -0.4755  0.3963
 6728TIP3    H141819   4.901   5.579   1.328 -0.2124  1.8961 -2.5746
 6728TIP3    H241820   4.803   5.693   1.312  0.6549  3.9411  3.7929
 6729TIP3   OH241821   4.664   2.876   0.114  0.5858 -1.0220 -0.1245
 6729TIP3    H141822   4.587   2.886   0.057  0.9835 -1.3529 -0.7392
 6729TIP3    H241823   4.734   2.850   0.054  2.6562  4.4708 -0.6216
 6730TIP3   OH241824   0.840   6.765   0.834 -0.2818  0.2390 -0.4639
 6730TIP3    H141825   0.917   6.717   0.804 -0.7501 -1.7187  1.2321
 6730TIP3    H241826   0.868   6.808   0.915 -0.3005  1.6434 -1.1731
 6731TIP3   OH241827   6.736   6.925   1.948 -0.3498 -0.4349  0.4791
 6731TIP3    H141828   6.690   7.008   1.960  0.4561  0.1821 -0.4895
 6731TIP3    H241829   6.793   6.941   1.873  1.5381 -1.1082  1.6995
 6732TIP3   OH241830   6.035   1.534   1.826  0.1722  0.3332  0.0658
 6732TIP3    H141831   6.034   1.440   1.809  1.5415  0.4298 -0.7173
 6732TIP3    H241832   6.039   1.542   1.921 -2.1039 -0.3324  0.2805
 6733TIP3   OH241833   1.723   6.590   8.119 -0.0172  0.4388  0.7382
 6733TIP3    H141834   1.740   6.527   8.049 -0.8385  0.0233  0.8886
 6733TIP3    H241835   1.641   6.559   8.159 -0.7313  1.8955  0.4846
 6734TIP3   OH241836   2.659   5.773   1.761 -0.3125  0.3860  0.0465
 6734TIP3    H141837   2.631   5.751   1.850 -1.2333  0.2747 -0.2540
 6734TIP3    H241838   2.588   5.741   1.706  0.3072  0.3439 -0.7418
 6735TIP3   OH241839   3.122   5.444   8.337 -0.4178 -0.1883  0.1471
 6735TIP3    H141840   3.081   5.380   8.397 -0.5138 -0.5488 -0.2946
 6735TIP3    H241841   3.120   5.400   8.252 -1.2298  0.7320 -0.3229
 6736TIP3   OH241842   5.317   3.864   8.269  0.3098  0.5076  0.2009
 6736TIP3    H141843   5.279   3.920   8.201  1.9395 -0.0964 -1.3153
 6736TIP3    H241844   5.261   3.876   8.345 -1.7805  1.0406 -1.3224
 6737TIP3   OH241845   2.932   1.945   8.171  0.3383  0.6230 -0.5759
 6737TIP3    H141846   3.019   1.943   8.210 -0.2068  0.8760  0.7150
 6737TIP3    H241847   2.944   1.907   8.084  1.4427 -0.8875  0.1855
 6738TIP3   OH241848   0.477   0.577   7.525 -0.4887  0.8407 -0.0019
 6738TIP3    H141849   0.435   0.660   7.503 -2.9973  0.4197  2.6102
 6738TIP3    H241850   0.457   0.564   7.617  3.3791 -0.7442  0.7938
 6739TIP3   OH241851   5.863   3.771   0.732  0.0305 -0.4736  0.4280
 6739TIP3    H141852   5.884   3.818   0.812 -0.9162 -0.9947  1.0072
 6739TIP3    H241853   5.875   3.835   0.662  1.9633 -0.3159  0.8437
 6740TIP3   OH241854   1.388   6.554   1.692  0.1687 -0.2461  0.2912
 6740TIP3    H141855   1.352   6.586   1.609 -1.5722 -0.1192  1.0489
 6740TIP3    H241856   1.425   6.632   1.733 -1.9780  0.4424  1.0835
 6741TIP3   OH241857   0.339   6.189   2.262  0.0190  0.2868  0.2754
 6741TIP3    H141858   0.275   6.258   2.278  0.9080  1.5979 -1.5528
 6741TIP3    H241859   0.287   6.117   2.224 -0.4953  1.0715 -0.5502
 6742TIP3   OH241860   1.865   0.778   0.591 -0.0788 -0.4655  0.2221
 6742TIP3    H141861   1.847   0.728   0.670  1.0316 -0.6487  0.3790
 6742TIP3    H241862   1.933   0.840   0.618 -1.0141  0.7471 -0.1130
 6743TIP3   OH241863   4.345   5.378   2.581  0.0423 -0.8190  0.7033
 6743TIP3    H141864   4.396   5.428   2.518 -0.1855  0.7187  1.7084
 6743TIP3    H241865   4.402   5.305   2.605  0.7034 -0.6090 -0.1681
 6744TIP3   OH241866   2.115   0.515   0.490  0.1537  0.3705  0.1819
 6744TIP3    H141867   2.197   0.553   0.521  0.2826 -0.1283  0.4542
 6744TIP3    H241868   2.078   0.582   0.433  0.6648  0.6669  0.1937
 6745TIP3   OH241869   4.063   5.123   2.316 -0.4603 -0.1016  0.1666
 6745TIP3    H141870   4.146   5.089   2.349  0.6250  0.4274 -1.8128
 6745TIP3    H241871   4.048   5.203   2.366  0.4984  0.0651  0.2118
 6746TIP3   OH241872   1.689   1.354   1.200  0.4110 -0.2661 -0.0880
 6746TIP3    H141873   1.596   1.376   1.204  0.3345 -0.7121  1.4879
 6746TIP3    H241874   1.701   1.313   1.115 -0.4009  1.5719 -1.1366
 6747TIP3   OH241875   5.161   5.234   2.364 -0.3190  0.1422 -0.3729
 6747TIP3    H141876   5.095   5.296   2.336  0.7664  1.2620 -0.5451
 6747TIP3    H241877   5.203   5.276   2.439  1.2755  0.2264 -1.2686
 6748TIP3   OH241878   1.472   5.202   7.383 -0.2383 -0.2278  0.1138
 6748TIP3    H141879   1.476   5.107   7.393  0.4502 -0.1721  0.3751
 6748TIP3    H241880   1.484   5.236   7.472 -3.5872  0.0628  0.6123
 6749TIP3   OH241881   5.890   5.823   0.528 -0.1062 -0.3256  0.3965
 6749TIP3    H141882   5.872   5.730   0.536 -0.4170 -0.1615  2.0475
 6749TIP3    H241883   5.986   5.830   0.535  0.1161 -0.6473 -1.7101
 6750TIP3   OH241884   3.468   4.010   1.869  0.3821 -0.2071 -0.5404
 6750TIP3    H141885   3.448   3.916   1.873  0.9898 -0.3300 -0.0398
 6750TIP3    H241886   3.559   4.013   1.837  0.1288  0.2460 -1.2302
 6751TIP3   OH241887   3.884   2.831   7.934 -0.2017 -0.2126  0.2214
 6751TIP3    H141888   3.883   2.753   7.990 -1.7908  0.6367  1.4853
 6751TIP3    H241889   3.946   2.891   7.977  1.7918 -1.0935 -1.3007
 6752TIP3   OH241890   3.827   0.013   0.653  0.4587  0.3043  0.4432
 6752TIP3    H141891   3.792  -0.061   0.603  0.4171  1.1091 -0.7527
 6752TIP3    H241892   3.850  -0.025   0.738  0.7197 -1.1549 -0.2376
 6753TIP3   OH241893   4.866   4.244   0.685  0.0181  0.2257 -0.3320
 6753TIP3    H141894   4.816   4.182   0.737 -0.4679  0.8381 -0.0669
 6753TIP3    H241895   4.894   4.193   0.608 -2.0867  0.1789 -1.1422
 6754TIP3   OH241896   2.106   0.496   6.641 -0.0928 -0.0788 -0.0978
 6754TIP3    H141897   2.106   0.428   6.574  0.0247  0.4529 -0.6455
 6754TIP3    H241898   2.196   0.528   6.644 -0.1759  0.1464  0.0557
 6755TIP3   OH241899   6.868   5.159   0.789 -0.4530  0.4565 -0.8516
 6755TIP3    H141900   6.903   5.090   0.732 -1.2061 -0.3263 -0.3838
 6755TIP3    H241901   6.795   5.118   0.834 -0.5818  1.4157 -0.1643
 6756TIP3   OH241902   3.720   3.646   7.669 -0.2429  0.0979 -0.5519
 6756TIP3    H141903   3.637   3.659   7.715  0.5489 -0.2575  1.0650
 6756TIP3    H241904   3.750   3.559   7.697  0.9254  0.4364 -0.6936
 6757TIP3   OH241905   5.680   6.335   7.776  0.3032  0.4329 -0.2509
 6757TIP3    H141906   5.704   6.417   7.819  2.6810 -0.9190  1.1997
 6757TIP3    H241907   5.620   6.292   7.837  4.1883 -1.7916  2.3969
 6758TIP3   OH241908   5.190   3.327   0.044  0.7336 -0.3167  0.8397
 6758TIP3    H141909   5.259   3.390   0.025  0.6588 -0.3127  0.5674
 6758TIP3    H241910   5.229   3.266   0.106  1.8993 -1.8639 -1.2674
 6759TIP3   OH241911   5.147   4.363   8.452 -0.4308 -0.8543 -0.3225
 6759TIP3    H141912   5.138   4.322   8.366  0.6309 -0.5093 -0.6207
 6759TIP3    H241913   5.153   4.290   8.513 -0.2629 -1.1146 -0.6498
 6760TIP3   OH241914   3.209   3.243   2.183 -0.4738 -0.7867  0.6053
 6760TIP3    H141915   3.226   3.337   2.193 -0.6675 -0.3703 -2.1783
 6760TIP3    H241916   3.131   3.227   2.236 -0.7131  0.7242  0.7562
 6761TIP3   OH241917   3.650   3.730   1.014 -0.0163  0.2221  0.3832
 6761TIP3    H141918   3.696   3.697   0.937  0.9231  2.2359  0.0388
 6761TIP3    H241919   3.712   3.720   1.086 -0.6764 -1.0934  0.8060
 6762TIP3   OH241920   5.326   4.099   0.663  0.3000 -0.3045  0.5532
 6762TIP3    H141921   5.417   4.076   0.682  0.1306 -0.3407  1.3527
 6762TIP3    H241922   5.275   4.038   0.716 -0.3194 -3.2322 -2.9823
 6763TIP3   OH241923   2.914   4.558   0.526 -0.2478  0.2238  0.0984
 6763TIP3    H141924   3.001   4.576   0.490 -0.3398  0.9920  0.2417
 6763TIP3    H241925   2.928   4.488   0.589  0.0100 -0.7422 -1.0109
 6764TIP3   OH241926   5.981   0.143   2.640  0.5498  0.5085 -0.0945
 6764TIP3    H141927   5.893   0.152   2.603  0.6430 -0.0958 -0.4802
 6764TIP3    H241928   5.978   0.193   2.722 -0.6119 -0.7658  0.6731
 6765TIP3   OH241929   5.992   3.400   1.295 -0.9475  0.6666 -0.0701
 6765TIP3    H141930   5.991   3.305   1.305 -0.0215  0.5936 -0.5175
 6765TIP3    H241931   5.951   3.433   1.375 -0.7745 -0.0916  0.3476
 6766TIP3   OH241932   0.522   3.382   8.041  0.2401  0.9424  0.1651
 6766TIP3    H141933   0.599   3.358   7.990 -0.1006  0.4467 -0.1307
 6766TIP3    H241934   0.449   3.368   7.982 -0.0275  2.2612  0.1424
 6767TIP3   OH241935   3.031   5.086   8.385 -0.0379  0.6303  0.1623
 6767TIP3    H141936   3.014   4.998   8.352 -0.4332  0.4451  0.8558
 6767TIP3    H241937   2.945   5.127   8.391  0.2563  1.6120 -1.6214
 6768TIP3   OH241938   4.095   0.275   8.045 -0.1274 -0.3491  0.6492
 6768TIP3    H141939   4.073   0.252   7.955  0.7518  0.8926  0.0843
 6768TIP3    H241940   4.013   0.307   8.082 -0.4083 -0.4812  0.1546
 6769TIP3   OH241941   4.200   4.649   0.740 -0.1032  0.2717  0.6503
 6769TIP3    H141942   4.273   4.595   0.772 -1.8234 -0.6779  3.3625
 6769TIP3    H241943   4.125   4.620   0.792 -2.6729  0.6000 -2.5536
 6770TIP3   OH241944   3.463   5.865   0.455 -0.5088  0.5978 -0.5190
 6770TIP3    H141945   3.460   5.879   0.360 -0.4003  0.1703 -0.5893
 6770TIP3    H241946   3.454   5.953   0.493  1.4280  1.0448 -0.9526
 6771TIP3   OH241947   3.950   4.001   8.479  0.3114  1.0242 -0.3505
 6771TIP3    H141948   3.916   3.992   8.568  0.0943  1.6376 -0.3636
 6771TIP3    H241949   3.878   3.971   8.423  1.0793 -1.0833 -0.2875
 6772TIP3   OH241950   2.584   0.439   8.386  0.4143 -0.7349 -0.1982
 6772TIP3    H141951   2.492   0.463   8.398  0.8058 -0.0540  1.8785
 6772TIP3    H241952   2.592   0.419   8.293 -0.9426  2.9426 -1.2521
 6773TIP3   OH241953   1.841   0.858   1.327 -0.1816 -0.4882 -0.1803
 6773TIP3    H141954   1.783   0.794   1.368 -1.8037  1.5419  0.8544
 6773TIP3    H241955   1.783   0.922   1.286  1.3812  0.1761 -1.4749
 6774TIP3   OH241956   4.310   3.434   0.413  0.2455  0.1124 -0.0117
 6774TIP3    H141957   4.368   3.509   0.403 -0.8418  0.9573 -0.1446
 6774TIP3    H241958   4.324   3.405   0.503  1.2951 -0.0717 -0.2221
 6775TIP3   OH241959   4.754   6.783   1.959 -0.4427  0.7366  0.2773
 6775TIP3    H141960   4.801   6.784   1.875 -2.6913 -0.1604 -1.0936
 6775TIP3    H241961   4.817   6.816   2.022  1.8084  0.1711 -1.5229
 6776TIP3   OH241962   1.411   6.151   7.776  0.4616 -0.7410 -0.1946
 6776TIP3    H141963   1.395   6.110   7.692  0.9875  1.5668 -1.5263
 6776TIP3    H241964   1.350   6.225   7.779  1.6950  0.3004  0.5937
 6777TIP3   OH241965   4.123   5.478   7.095  0.3930  0.4394  0.1678
 6777TIP3    H141966   4.134   5.541   7.166  0.6148  1.1152 -0.4604
 6777TIP3    H241967   4.034   5.444   7.107  0.1339  1.1511  0.2751
 6778TIP3   OH241968   4.365   1.829   1.592  0.3767  0.0166 -0.8384
 6778TIP3    H141969   4.302   1.792   1.655  0.4759  1.5098  0.1756
 6778TIP3    H241970   4.447   1.783   1.611  0.8248  1.5541  1.2881
 6779TIP3   OH241971   0.604   4.847   0.387 -0.4018  0.1204 -0.2709
 6779TIP3    H141972   0.553   4.924   0.363 -3.3273 -1.4910  0.3175
 6779TIP3    H241973   0.575   4.779   0.326  0.9145 -0.9456  0.2336
 6780TIP3   OH241974   3.663   3.400   1.517 -0.1154 -0.0123 -0.4996
 6780TIP3    H141975   3.658   3.495   1.526 -2.9209 -0.0466 -0.7087
 6780TIP3    H241976   3.713   3.371   1.593 -0.5307  1.5350  0.3979
 6781TIP3   OH241977   3.711   5.011   0.214  0.0458  0.3591 -0.1371
 6781TIP3    H141978   3.764   4.931   0.218  0.3418  0.5001 -1.1325
 6781TIP3    H241979   3.676   5.013   0.126 -1.0480  0.6501  0.2924
 6782TIP3   OH241980   3.574   2.514   0.920  0.5655 -0.4959  0.0139
 6782TIP3    H141981   3.540   2.461   0.991 -0.6108  2.7246  2.0378
 6782TIP3    H241982   3.502   2.520   0.857  0.2530 -0.2743  0.3908
 6783TIP3   OH241983   2.539   3.522   7.882  0.1681 -0.3868  0.2210
 6783TIP3    H141984   2.624   3.552   7.913  0.7824 -1.5823 -0.2299
 6783TIP3    H241985   2.532   3.433   7.917 -0.5277 -0.5962 -0.4408
 6784TIP3   OH241986   3.354   5.649   2.668  0.2327 -0.4434  0.2877
 6784TIP3    H141987   3.408   5.662   2.746  0.7404  1.6937 -0.3387
 6784TIP3    H241988   3.386   5.567   2.630  1.3994 -0.4528  1.2265
 6785TIP3   OH241989   1.807   3.065   1.419 -0.5215  0.3981  0.5625
 6785TIP3    H141990   1.805   3.138   1.481  1.2746 -1.1301  2.5643
 6785TIP3    H241991   1.839   3.103   1.337 -0.1558  1.9507  1.3990
 6786TIP3   OH241992   2.858   2.532   0.657 -0.0389 -0.1668  0.1682
 6786TIP3    H141993   2.779   2.577   0.626 -0.1003  0.3443  1.0314
 6786TIP3    H241994   2.906   2.511   0.577 -0.8786 -0.1802 -0.3535
 6787TIP3   OH241995   2.331   4.434   1.236 -0.1192  0.1019 -0.0441
 6787TIP3    H141996   2.406   4.436   1.176  0.7962 -0.3892  1.0426
 6787TIP3    H241997   2.339   4.350   1.281 -0.6151  0.5850  0.9763
 6788TIP3   OH241998   4.602   0.991   2.147  0.5387  0.7595 -0.7057
 6788TIP3    H141999   4.508   0.974   2.157  0.5927  0.6560 -0.3489
 6788TIP3    H242000   4.644   0.924   2.201  0.8021  1.1122 -0.4649
 6789TIP3   OH242001   0.313   5.826   1.719 -0.1390 -0.3156 -0.3211
 6789TIP3    H142002   0.353   5.888   1.659  0.2537  0.2889  0.5318
 6789TIP3    H242003   0.291   5.878   1.796  0.5055 -1.2715  0.5596
 6790TIP3   OH242004   6.396   1.066   0.634  0.5065  0.1358  0.7382
 6790TIP3    H142005   6.432   1.036   0.551 -3.3603 -2.0099 -0.4424
 6790TIP3    H242006   6.454   1.029   0.701  2.4279 -0.0414 -0.9561
 6791TIP3   OH242007   2.695   6.894   0.649 -0.0274 -0.7895  0.0640
 6791TIP3    H142008   2.677   6.827   0.583 -0.9637 -1.6368  1.1317
 6791TIP3    H242009   2.636   6.966   0.627  1.5288  0.0741 -1.5542
 6792TIP3   OH242010   3.030   6.691   0.282  0.3641  0.2239 -0.5690
 6792TIP3    H142011   3.123   6.672   0.289  0.1400 -0.6683  0.3170
 6792TIP3    H242012   3.019   6.775   0.327  0.8514  0.7447 -1.4047
 6793TIP3   OH242013   4.425   1.440   1.799 -0.1122  0.2493  0.3793
 6793TIP3    H142014   4.339   1.431   1.839 -0.1337 -0.3587  0.2149
 6793TIP3    H242015   4.408   1.448   1.706 -0.0439  1.3119  0.4464
 6794TIP3   OH242016   1.016   3.143   8.296 -0.5833 -0.4333 -0.3192
 6794TIP3    H142017   0.977   3.174   8.214  0.7704 -1.1731 -1.2888
 6794TIP3    H242018   0.988   3.207   8.361 -0.2966  1.1647 -1.6876
 6795TIP3   OH242019   1.150   5.536   2.106  0.2582 -0.5479 -0.3336
 6795TIP3    H142020   1.223   5.494   2.151  0.0728  0.0617  0.5678
 6795TIP3    H242021   1.153   5.627   2.135  1.6949  0.5617 -3.5587
 6796TIP3   OH242022   4.157   6.224   2.648  0.2042  0.6124 -0.4095
 6796TIP3    H142023   4.216   6.225   2.723 -0.3174 -0.5945  0.0511
 6796TIP3    H242024   4.135   6.131   2.636  0.2752  0.7745 -2.0585
 6797TIP3   OH242025   5.693   1.517   1.573  0.0738  0.0170  0.4851
 6797TIP3    H142026   5.606   1.489   1.602 -0.6064 -0.0033 -1.3829
 6797TIP3    H242027   5.687   1.612   1.567 -0.0213 -0.0197 -0.1424
 6798TIP3   OH242028   4.904   0.431   2.334  0.2474 -0.4058  0.1475
 6798TIP3    H142029   4.902   0.367   2.405  0.2281  0.4971  0.9805
 6798TIP3    H242030   4.957   0.503   2.368  0.4339 -0.0575 -0.8446
 6799TIP3   OH242031   5.387   5.330   0.226 -0.1334 -0.7041  0.5836
 6799TIP3    H142032   5.330   5.361   0.156  1.1094 -0.7851 -0.5007
 6799TIP3    H242033   5.447   5.403   0.242  0.0928 -0.9812  1.0164
 6800TIP3   OH242034   1.852   2.048   1.630  0.1112 -0.4069 -0.0552
 6800TIP3    H142035   1.828   2.010   1.715 -0.2556  0.9248  0.4592
 6800TIP3    H242036   1.899   1.978   1.586 -2.8027 -2.4704 -0.2447
 6801TIP3   OH242037   2.030   2.409   2.629  0.5452 -0.2825 -0.1517
 6801TIP3    H142038   2.117   2.381   2.599  0.7610  1.7495 -1.5985
 6801TIP3    H242039   2.038   2.415   2.724  1.6264 -1.2551 -0.1662
 6802TIP3   OH242040   2.121   2.170   7.310 -0.1867  0.2858 -0.3764
 6802TIP3    H142041   2.043   2.191   7.259 -0.6008  0.6862  0.4024
 6802TIP3    H242042   2.129   2.242   7.373  0.6687  0.1213 -0.2849
 6803TIP3   OH242043   4.673   1.270   0.242  0.1561 -0.1132  0.0485
 6803TIP3    H142044   4.690   1.269   0.148  1.2803 -0.8487  0.2340
 6803TIP3    H242045   4.584   1.302   0.250  0.7606  2.0856 -1.1424
 6804TIP3   OH242046   0.035   6.379   7.038 -0.1985  0.2745 -0.1380
 6804TIP3    H142047   0.009   6.429   6.961  0.8550 -1.2396 -1.5503
 6804TIP3    H242048   0.130   6.390   7.044 -0.2585  0.3655  0.9607
 6805TIP3   OH242049   2.229   1.996   7.504  0.2686 -0.1001 -0.2509
 6805TIP3    H142050   2.321   1.982   7.479  0.0206 -0.7601 -0.8298
 6805TIP3    H242051   2.196   2.058   7.439  1.3097  3.2970  2.1926
 6806TIP3   OH242052   3.762   4.147   0.304 -0.3250  0.5201  0.2201
 6806TIP3    H142053   3.771   4.232   0.347 -1.2678  1.3835 -1.1986
 6806TIP3    H242054   3.695   4.101   0.355 -0.8786  1.2117  0.1163
 6807TIP3   OH242055   3.410   3.605   2.342  0.4225  0.0199 -0.4394
 6807TIP3    H142056   3.357   3.564   2.274  0.8466 -0.3034 -0.5859
 6807TIP3    H242057   3.471   3.536   2.369 -0.6976 -0.3373  1.3321
 6808TIP3   OH242058   5.326   6.340   0.069  0.1627  0.2052  0.2302
 6808TIP3    H142059   5.255   6.316   0.010 -0.0733  1.9759 -0.2567
 6808TIP3    H242060   5.283   6.365   0.151 -0.0019  2.9049 -0.5873
 6809TIP3   OH242061   1.315   5.572   1.084  0.3752 -0.3145  0.0362
 6809TIP3    H142062   1.226   5.545   1.061  0.7029 -1.0344 -0.4167
 6809TIP3    H242063   1.329   5.653   1.035 -1.7356  2.6117  3.7628
 6810TIP3   OH242064   3.657   0.213   0.360 -0.1442  0.0776  0.0582
 6810TIP3    H142065   3.715   0.251   0.425 -0.4220 -0.0606  0.3902
 6810TIP3    H242066   3.609   0.145   0.407  0.6073 -0.9468 -0.6231
 6811TIP3   OH242067   3.789   4.518   0.232  0.6240  0.1195  0.1798
 6811TIP3    H142068   3.847   4.463   0.179  0.8526 -2.2899  2.7369
 6811TIP3    H242069   3.844   4.551   0.302 -0.2812  0.9535  0.5213
 6812TIP3   OH242070   3.721   0.211   8.060  0.1983  0.5074  0.0603
 6812TIP3    H142071   3.753   0.137   8.007  2.2290  1.8992 -0.8235
 6812TIP3    H242072   3.654   0.173   8.116 -0.6411 -1.4905 -2.0955
 6813TIP3   OH242073   4.796   0.187   1.909 -0.7473  0.1340  0.4407
 6813TIP3    H142074   4.854   0.111   1.910 -0.8910 -0.0630 -1.5276
 6813TIP3    H242075   4.734   0.171   1.979 -0.5954 -1.4245  0.2541
 6814TIP3   OH242076   0.687   3.476   7.677 -0.1912 -0.4604  0.1587
 6814TIP3    H142077   0.710   3.409   7.742  0.5583 -1.8684 -1.4906
 6814TIP3    H242078   0.769   3.496   7.632 -0.9782 -0.8750 -1.5541
 6815TIP3   OH242079   4.974   3.925   6.732  0.4866 -0.0553  0.3611
 6815TIP3    H142080   4.978   3.951   6.640 -0.4903  1.7888  0.7932
 6815TIP3    H242081   5.044   3.860   6.741  0.0352 -0.9360 -1.8586
 6816TIP3   OH242082   6.445   3.308   0.098  0.3006  0.0480  0.2747
 6816TIP3    H142083   6.409   3.358   0.171 -1.6928 -1.3589  0.3495
 6816TIP3    H242084   6.536   3.292   0.122  0.3023  1.5112  1.3676
 6817TIP3   OH242085   6.465   4.506   1.985 -0.2399 -0.6767 -0.4951
 6817TIP3    H142086   6.406   4.580   2.002 -1.4955 -2.0322  1.5066
 6817TIP3    H242087   6.406   4.432   1.967  0.9645 -1.4097 -1.5463
 6818TIP3   OH242088   6.239   6.539   6.713  0.5220 -0.3709  0.3983
 6818TIP3    H142089   6.313   6.522   6.655  1.1234  0.1160  1.0060
 6818TIP3    H242090   6.278   6.562   6.797 -0.3316 -0.7443  0.9194
 6819TIP3   OH242091   6.517   1.374   6.875  0.2087  0.4689 -0.0429
 6819TIP3    H142092   6.486   1.288   6.848  1.1509  0.6512 -1.8577
 6819TIP3    H242093   6.558   1.358   6.960 -0.1300 -0.7573 -0.0860
 6820TIP3   OH242094   5.565   0.923   2.871 -0.0239  0.3772  0.0910
 6820TIP3    H142095   5.610   0.847   2.835 -0.1872 -0.0652  0.7868
 6820TIP3    H242096   5.591   0.925   2.963 -1.5264  0.0086  0.5618
 6821TIP3   OH242097   1.952   5.800   7.900 -0.0610  0.3783 -0.3271
 6821TIP3    H142098   2.045   5.823   7.899 -0.3598  1.6834  0.4149
 6821TIP3    H242099   1.906   5.883   7.906 -1.3180 -0.2134 -1.2954
 6822TIP3   OH242100   6.859   1.310   7.708 -0.0722 -0.0984 -0.0738
 6822TIP3    H142101   6.942   1.265   7.694  1.2707  1.9615  0.7546
 6822TIP3    H242102   6.837   1.294   7.799 -1.4623 -1.9215 -0.6772
 6823TIP3   OH242103   0.072   1.593   7.044 -0.2658 -0.2382 -0.2204
 6823TIP3    H142104   0.042   1.662   7.103  0.7010  1.3127 -1.4418
 6823TIP3    H242105   0.018   1.517   7.065 -2.1954  1.2410  0.3815
 6824TIP3   OH242106   4.597   3.382   1.871  0.2787 -0.4892 -0.1068
 6824TIP3    H142107   4.578   3.467   1.831  1.3956 -1.8164 -3.8938
 6824TIP3    H242108   4.514   3.353   1.907 -0.6230  1.2986 -0.6279
 6825TIP3   OH242109   3.317   3.845   2.638 -0.0905  0.5667 -0.0996
 6825TIP3    H142110   3.311   3.840   2.733  0.6932 -2.3051 -0.1336
 6825TIP3    H242111   3.226   3.847   2.608 -0.3418  1.1815  0.6809
 6826TIP3   OH242112   0.097   1.232   3.036 -0.0427  0.4326 -0.3219
 6826TIP3    H142113   0.166   1.266   2.979  1.6188  0.5462  1.6266
 6826TIP3    H242114   0.143   1.205   3.115 -2.1558 -0.3379  0.7158
 6827TIP3   OH242115   5.869   3.915   8.474 -0.2418  0.2856 -0.3393
 6827TIP3    H142116   5.863   3.878   8.386  0.7473  0.3785 -0.4568
 6827TIP3    H242117   5.956   3.890   8.504 -0.7152 -0.0896  0.7818
 6828TIP3   OH242118   0.227   6.765   6.640 -0.1930  0.1084  0.1113
 6828TIP3    H142119   0.322   6.755   6.646 -0.0428  0.5653 -1.0719
 6828TIP3    H242120   0.205   6.829   6.708  0.6227  1.3416 -0.7235
 6829TIP3   OH242121   0.450   1.878   2.407 -0.1386 -0.3701 -0.3095
 6829TIP3    H142122   0.400   1.845   2.481 -1.2476  0.5210 -0.6259
 6829TIP3    H242123   0.406   1.960   2.383  1.4563  0.4372 -0.6292
 6830TIP3   OH242124   3.984   1.254   1.546  0.1202  0.8258  0.9180
 6830TIP3    H142125   3.935   1.260   1.463 -0.7131 -1.7684  1.1387
 6830TIP3    H242126   4.060   1.201   1.525 -0.6619 -0.7970  2.0073
 6831TIP3   OH242127   3.869   4.344   0.491 -0.4236  0.7638 -0.4202
 6831TIP3    H142128   3.959   4.322   0.515 -0.6930 -1.3733 -1.1746
 6831TIP3    H242129   3.838   4.398   0.564  0.9740  0.2368  0.6190
 6832TIP3   OH242130   1.964   0.252   7.204 -0.0015 -0.6372  0.3288
 6832TIP3    H142131   1.971   0.342   7.171  0.6575 -0.2671  1.4026
 6832TIP3    H242132   2.011   0.254   7.288  0.1559 -2.0272  0.2951
 6833TIP3   OH242133   3.834   6.536   7.538 -0.5546  0.0414 -0.1076
 6833TIP3    H142134   3.781   6.512   7.614  0.6328 -0.2216  0.6632
 6833TIP3    H242135   3.910   6.581   7.575  0.4621 -0.8253 -1.0543
 6834TIP3   OH242136   0.570   1.104   7.842 -0.2162  0.0312  0.7982
 6834TIP3    H142137   0.645   1.076   7.895 -1.2640  1.3210  3.1490
 6834TIP3    H242138   0.604   1.176   7.789  0.3466  0.3487  1.5648
 6835TIP3   OH242139   2.729   6.200   1.978  0.2682  0.3430  0.8894
 6835TIP3    H142140   2.683   6.187   1.895 -0.5695  1.2291  1.2037
 6835TIP3    H242141   2.747   6.111   2.009 -1.3125 -0.0440  0.7918
 6836TIP3   OH242142   6.617   0.858   1.587 -0.5250 -0.4814  0.0673
 6836TIP3    H142143   6.659   0.915   1.652 -1.4214  0.6315 -0.2968
 6836TIP3    H242144   6.571   0.792   1.640  0.1901 -0.6298  0.5116
 6837TIP3   OH242145   5.672   3.165   1.356  0.2504  0.2178  0.5654
 6837TIP3    H142146   5.630   3.230   1.299 -0.4230 -0.5965  0.1112
 6837TIP3    H242147   5.602   3.104   1.379  0.7171  0.0456  1.5714
 6838TIP3   OH242148   4.067   0.503   7.777  0.2645  0.2115 -0.3339
 6838TIP3    H142149   4.147   0.510   7.829 -0.3782 -0.7781  0.8330
 6838TIP3    H242150   4.093   0.452   7.700  1.0252  0.9242 -0.5544
 6839TIP3   OH242151   3.536   0.182   7.515  0.0794  0.1062 -0.2585
 6839TIP3    H142152   3.609   0.243   7.530 -0.1392  0.8567 -1.9954
 6839TIP3    H242153   3.518   0.189   7.421  0.6575 -3.3431 -0.7660
 6840TIP3   OH242154   3.415   0.270   2.325  0.5432  0.0175 -0.6562
 6840TIP3    H142155   3.501   0.268   2.283  1.4077  0.0538  1.0288
 6840TIP3    H242156   3.404   0.181   2.359  0.2778  0.2443 -0.1524
 6841TIP3   OH242157   1.946   5.748   1.275  0.0498  0.0348  0.7313
 6841TIP3    H142158   1.858   5.711   1.279 -0.3814  0.8833 -0.3306
 6841TIP3    H242159   1.993   5.692   1.213  0.2565 -0.3838  1.2551
 6842TIP3   OH242160   0.343   3.435   2.967 -0.4100 -0.4305  0.2179
 6842TIP3    H142161   0.323   3.367   2.903 -0.3005  0.6328 -0.9871
 6842TIP3    H242162   0.311   3.516   2.927  3.0994  0.8782 -0.2951
 6843TIP3   OH242163   2.870   1.063   0.823  0.5144  0.7778 -0.2741
 6843TIP3    H142164   2.868   1.053   0.728 -0.1292  0.7472 -0.2620
 6843TIP3    H242165   2.960   1.089   0.843  0.9361 -0.2463 -0.7816
 6844TIP3   OH242166   4.192   0.608   0.220  0.0747  0.2471  0.0658
 6844TIP3    H142167   4.192   0.518   0.186  1.4344  0.8899 -1.8079
 6844TIP3    H242168   4.258   0.653   0.167  1.4415  1.6882  2.7850
 6845TIP3   OH242169   2.224   5.774   7.172  0.0697 -0.5333 -0.4911
 6845TIP3    H142170   2.294   5.751   7.111 -1.0218 -2.0195 -1.2213
 6845TIP3    H242171   2.166   5.698   7.172 -0.9116  0.1748  1.0355
 6846TIP3   OH242172   1.098   6.258   7.261 -0.3444 -0.1920 -0.6374
 6846TIP3    H142173   1.170   6.196   7.254  0.2677  0.6538 -2.5529
 6846TIP3    H242174   1.022   6.211   7.226 -0.0740 -0.1460 -1.2930
 6847TIP3   OH242175   1.080   0.273   0.981 -0.4865  0.4756 -0.2957
 6847TIP3    H142176   1.160   0.325   0.979 -0.8104  0.9763 -0.5734
 6847TIP3    H242177   1.068   0.251   1.073 -0.2812  0.7949 -0.1883
 6848TIP3   OH242178   4.074   1.387   7.731  0.1651  0.0927 -0.4891
 6848TIP3    H142179   4.059   1.294   7.717 -0.5591 -0.0078  0.7450
 6848TIP3    H242180   4.120   1.392   7.815  0.9416  0.8122 -0.9374
 6849TIP3   OH242181   6.723   4.841   6.969 -0.0765 -0.1251  0.3421
 6849TIP3    H142182   6.707   4.934   6.952 -0.0802 -0.3373 -0.8772
 6849TIP3    H242183   6.676   4.823   7.050  2.6378  1.7119  2.5411
 6850TIP3   OH242184   2.033   6.867   7.814 -0.3184 -0.0429 -0.2708
 6850TIP3    H142185   2.052   6.957   7.840  0.8814 -0.4464  0.3212
 6850TIP3    H242186   2.113   6.818   7.835 -0.6165 -1.0846 -1.4193
 6851TIP3   OH242187   2.583   3.654   2.538 -0.1788  0.1895 -0.2257
 6851TIP3    H142188   2.646   3.663   2.610 -2.9324 -0.6596  2.5020
 6851TIP3    H242189   2.549   3.565   2.546 -3.2236  1.2612 -0.1810
 6852TIP3   OH242190   4.617   0.508   7.984 -0.3892 -0.2551  0.3488
 6852TIP3    H142191   4.654   0.508   7.896 -0.7770 -1.1027  0.1721
 6852TIP3    H242192   4.614   0.600   8.010 -1.2230  0.0974 -0.9271
 6853TIP3   OH242193   3.064   0.206   3.509 -0.0909  0.1645 -0.1309
 6853TIP3    H142194   3.083   0.119   3.547  0.0617  0.6228  0.8813
 6853TIP3    H242195   3.143   0.227   3.459  0.1121 -0.0339  0.0965
 6854TIP3   OH242196   4.531   6.568   1.887 -0.3575  0.0304 -0.5782
 6854TIP3    H142197   4.582   6.610   1.818 -0.8200  0.3702 -0.7168
 6854TIP3    H242198   4.467   6.514   1.841 -1.2264  0.9208 -0.4464
 6855TIP3   OH242199   0.586   0.953   8.344  0.0114  0.0925  0.0680
 6855TIP3    H142200   0.577   0.883   8.409 -1.5680 -1.2262 -1.4638
 6855TIP3    H242201   0.525   1.021   8.373 -0.4160 -0.3272  0.1724
 6856TIP3   OH242202   6.347   2.366   2.237  0.4372  0.2527  0.0920
 6856TIP3    H142203   6.415   2.370   2.170 -0.0909  1.2392 -0.4034
 6856TIP3    H242204   6.393   2.380   2.319  0.9420  0.1272 -0.1672
 6857TIP3   OH242205   2.915   6.315   2.569 -0.3015  0.6181  0.5189
 6857TIP3    H142206   2.915   6.233   2.520  1.7732 -0.1860  1.6817
 6857TIP3    H242207   2.899   6.383   2.504  1.0061 -0.4957 -1.0587
 6858TIP3   OH242208   2.981   1.347   8.483  0.3577 -0.1356  0.1749
 6858TIP3    H142209   2.908   1.404   8.458  1.4539  1.6001  0.7586
 6858TIP3    H242210   2.940   1.264   8.507 -1.5315  1.0965  1.4240
 6859TIP3   OH242211   2.554   0.369   7.219 -1.0132  0.3350  0.1968
 6859TIP3    H142212   2.465   0.333   7.207 -1.6944  0.5573  3.6591
 6859TIP3    H242213   2.542   0.444   7.277  1.1951  2.1752 -1.5436
 6860TIP3   OH242214   2.445   1.700   8.010  0.1743 -0.2324  0.2468
 6860TIP3    H142215   2.476   1.689   7.920  1.0339 -1.1235  0.6233
 6860TIP3    H242216   2.520   1.674   8.064 -0.9609 -1.7153  1.2126
 6861TIP3   OH242217   0.710   1.339   8.524  0.4121  0.0742  0.3780
 6861TIP3    H142218   0.671   1.292   8.597 -0.3419  0.7153  0.3968
 6861TIP3    H242219   0.637   1.386   8.484  0.8394 -0.1425 -0.6936
 6862TIP3   OH242220   2.504   2.556   8.301  0.4577  0.6964  0.4288
 6862TIP3    H142221   2.582   2.610   8.298 -0.9170  2.8290  1.0304
 6862TIP3    H242222   2.463   2.568   8.215  0.4536  0.0564  0.3313
 6863TIP3   OH242223   3.367   6.740   2.633 -0.0808  0.2695 -0.2714
 6863TIP3    H142224   3.365   6.651   2.596 -0.6196  0.3615 -0.4734
 6863TIP3    H242225   3.325   6.731   2.719  1.5860 -0.0362  0.5494
 6864TIP3   OH242226   5.446   5.915   2.620  0.0081 -0.7233  0.1894
 6864TIP3    H142227   5.515   5.946   2.678  0.9838 -2.3658 -0.0423
 6864TIP3    H242228   5.365   5.949   2.659  0.9144  1.3686  0.3709
 6865TIP3   OH242229   0.532   4.169   0.348 -0.0474  0.2544 -0.3725
 6865TIP3    H142230   0.541   4.262   0.327 -0.2542  0.3491 -0.0388
 6865TIP3    H242231   0.483   4.133   0.274  1.2844  0.1196 -1.2351
 6866TIP3   OH242232   3.752   5.550   2.566 -0.8989  0.2792 -0.5292
 6866TIP3    H142233   3.798   5.630   2.540  0.9677 -0.5009  0.2099
 6866TIP3    H242234   3.734   5.561   2.659  0.1777 -0.4870 -0.2050
 6867TIP3   OH242235   6.701   0.099   2.514 -0.1306  0.4617  0.2490
 6867TIP3    H142236   6.700   0.158   2.439  0.2977 -0.8514 -0.8352
 6867TIP3    H242237   6.774   0.040   2.496 -0.4895 -0.3393  1.3470
 6868TIP3   OH242238   3.216   0.361   0.926  0.4338 -0.6094  0.3292
 6868TIP3    H142239   3.298   0.360   0.877  0.0211  2.0403 -0.5819
 6868TIP3    H242240   3.159   0.300   0.879 -0.1129  2.1832 -3.0098
 6869TIP3   OH242241   1.385   1.080   1.630  0.2002  0.7144  0.4642
 6869TIP3    H142242   1.334   1.015   1.679  0.8571 -0.1606  0.0164
 6869TIP3    H242243   1.344   1.164   1.652 -1.0364  0.1050  0.6111
 6870TIP3   OH242244   0.561   5.873   8.499 -0.2915 -0.0853 -0.1114
 6870TIP3    H142245   0.530   5.789   8.532  1.6233 -0.6125  0.5290
 6870TIP3    H242246   0.592   5.854   8.410 -0.5427  0.1143 -0.2421
 6871TIP3   OH242247   0.139   6.909   3.130 -0.3624  0.6207 -0.2411
 6871TIP3    H142248   0.198   6.904   3.204 -0.8192  0.9361  0.1514
 6871TIP3    H242249   0.179   6.853   3.063 -0.3838 -0.3655  0.5439
 6872TIP3   OH242250   2.831   2.335   1.298  0.0602  0.0557 -0.4986
 6872TIP3    H142251   2.920   2.326   1.330 -0.2842 -0.2847  0.4097
 6872TIP3    H242252   2.817   2.430   1.293  0.3434  0.1123 -0.2528
 6873TIP3   OH242253   5.378   4.491   0.857 -0.0198 -0.4545  0.5883
 6873TIP3    H142254   5.397   4.449   0.773  0.4847 -1.0635  0.9912
 6873TIP3    H242255   5.387   4.584   0.840 -1.6832 -0.4480 -0.4607
 6874TIP3   OH242256   1.282   1.971   8.187  0.5385 -0.3939  0.3943
 6874TIP3    H142257   1.278   2.064   8.169 -0.1163 -0.5007 -0.0368
 6874TIP3    H242258   1.298   1.930   8.102  0.4888 -0.6985  0.5278
 6875TIP3   OH242259   0.483   2.890   1.090 -0.1677  0.0778  0.0580
 6875TIP3    H142260   0.486   2.968   1.035 -0.9116 -1.1512 -1.8470
 6875TIP3    H242261   0.568   2.847   1.077 -0.7416 -0.7746 -1.0691
 6876TIP3   OH242262   0.913   3.793   7.213 -0.1022 -0.0273  0.2385
 6876TIP3    H142263   0.860   3.761   7.286  0.9032  0.3331  1.1554
 6876TIP3    H242264   0.948   3.714   7.172 -1.0037 -0.2483 -0.1189
 6877TIP3   OH242265   4.966   5.429   1.248 -0.5362  0.3339 -0.5180
 6877TIP3    H142266   5.005   5.348   1.282 -1.9568  0.1800  0.8757
 6877TIP3    H242267   5.006   5.441   1.162  1.0745 -0.8449  0.0230
 6878TIP3   OH242268   0.257   0.047   2.337 -0.0809  0.6196  0.0590
 6878TIP3    H142269   0.275   0.078   2.248  0.9523  0.5321  0.2266
 6878TIP3    H242270   0.310   0.104   2.393 -0.9994  0.9032  0.6502
 6879TIP3   OH242271   3.336   5.910   2.823  0.1138 -0.0917 -0.1184
 6879TIP3    H142272   3.368   5.876   2.907 -0.0188  0.9074  0.3491
 6879TIP3    H242273   3.251   5.868   2.811 -0.3765  0.6003  0.8021
 6880TIP3   OH242274   3.785   1.955   0.856 -0.0390  0.4650 -0.2412
 6880TIP3    H142275   3.714   1.991   0.803 -0.5588  0.0372  0.1509
 6880TIP3    H242276   3.767   1.861   0.858  1.1812  0.1906 -1.0914
 6881TIP3   OH242277   5.541   5.736   8.289  0.5272  0.1521 -0.1938
 6881TIP3    H142278   5.561   5.694   8.205  0.1094  3.8109 -2.3247
 6881TIP3    H242279   5.625   5.770   8.320  0.3321  0.7644 -0.3249
 6882TIP3   OH242280   4.272   4.013   8.479  0.2470 -0.2601 -0.0991
 6882TIP3    H142281   4.182   4.025   8.448 -0.3809 -0.9817  1.3391
 6882TIP3    H242282   4.274   3.924   8.513  0.8191  0.5090  2.0391
 6883TIP3   OH242283   6.557   3.314   7.975  0.3560 -0.5995  0.4247
 6883TIP3    H142284   6.547   3.303   7.880  2.2602 -3.0124  0.4029
 6883TIP3    H242285   6.481   3.367   8.001 -0.9419 -0.9718 -2.2433
 6884TIP3   OH242286   1.340   1.458   1.557  0.5475  0.4192 -0.3102
 6884TIP3    H142287   1.361   1.498   1.472  0.2332  0.0563 -0.5650
 6884TIP3    H242288   1.273   1.392   1.536 -0.7142  1.4094  0.4398
 6885TIP3   OH242289   0.823   0.943   1.514  0.2264 -0.2087 -0.0764
 6885TIP3    H142290   0.810   0.954   1.420 -0.9636 -0.8318 -0.0012
 6885TIP3    H242291   0.904   0.892   1.522  0.0690 -0.5723 -0.7789
 6886TIP3   OH242292   6.476   3.569   1.731 -0.8704 -0.4390 -0.0849
 6886TIP3    H142293   6.497   3.477   1.716 -0.2205 -0.3677  0.3342
 6886TIP3    H242294   6.500   3.614   1.650 -1.2391 -0.6461 -0.3084
 6887TIP3   OH242295   5.179   4.719   0.286  0.3479 -0.5142 -0.3810
 6887TIP3    H142296   5.154   4.631   0.259 -0.3003 -1.1579  2.0337
 6887TIP3    H242297   5.101   4.754   0.329  1.2734  0.3370  0.6809
 6888TIP3   OH242298   1.399   1.291   2.730 -0.1648 -0.0235  0.5020
 6888TIP3    H142299   1.459   1.217   2.742  0.1251 -0.2246 -1.8745
 6888TIP3    H242300   1.316   1.261   2.769 -0.3381 -2.0367 -1.2777
 6889TIP3   OH242301   5.315   2.525   0.628 -0.1399  0.4824 -0.2985
 6889TIP3    H142302   5.229   2.567   0.625 -0.6818 -0.6481 -1.3813
 6889TIP3    H242303   5.304   2.451   0.687  0.0401  0.2418 -0.5627
 6890TIP3   OH242304   3.764   1.045   1.980  0.6579  0.0311  0.9768
 6890TIP3    H142305   3.837   0.998   2.020  0.8000 -1.3423 -0.7780
 6890TIP3    H242306   3.806   1.114   1.929  0.6916 -0.3436  0.4962
 6891TIP3   OH242307   6.810   3.630   0.583 -0.2710 -0.1584 -0.5240
 6891TIP3    H142308   6.876   3.665   0.643 -0.8598 -0.5904  0.3893
 6891TIP3    H242309   6.832   3.668   0.498  1.3577 -0.5508 -0.3107
 6892TIP3   OH242310   3.307   4.497   0.017  0.6891  0.6473 -0.2244
 6892TIP3    H142311   3.274   4.528  -0.067 -1.4203  1.3817  0.8012
 6892TIP3    H242312   3.377   4.436  -0.006  1.5805  2.3669 -2.4350
 6893TIP3   OH242313   6.567   6.504   0.313 -0.5825  0.9762 -0.0171
 6893TIP3    H142314   6.604   6.520   0.226 -0.1923  2.0568  0.3316
 6893TIP3    H242315   6.479   6.468   0.296  0.9243 -2.7434 -0.8734
 6894TIP3   OH242316   3.818   2.778   7.051 -1.0099  0.2740 -0.1365
 6894TIP3    H142317   3.740   2.788   6.997 -0.4558  1.9051 -0.7110
 6894TIP3    H242318   3.876   2.849   7.023  1.0431 -1.3632 -0.3132
 6895TIP3   OH242319   4.058   1.695   1.223 -0.2174 -0.0232  0.1202
 6895TIP3    H142320   4.098   1.763   1.167 -1.6919  0.9456  0.1955
 6895TIP3    H242321   4.074   1.725   1.312 -0.9016  0.2498  0.1538
 6896TIP3   OH242322   3.750   2.899   7.329  0.2399 -0.6156  0.8016
 6896TIP3    H142323   3.715   2.983   7.299  2.4341  0.2049  0.3292
 6896TIP3    H242324   3.788   2.859   7.250  3.2761  0.1151  1.7641
 6897TIP3   OH242325   6.101   2.008   1.081  0.1794  0.2391  0.8497
 6897TIP3    H142326   6.184   2.055   1.074 -0.0236  0.3651 -1.4910
 6897TIP3    H242327   6.045   2.049   1.015  0.1445 -3.4431 -1.6956
 6898TIP3   OH242328   3.571   6.593   1.579 -0.2694  0.3758 -0.3877
 6898TIP3    H142329   3.629   6.517   1.578 -0.3401  0.3201 -0.3165
 6898TIP3    H242330   3.483   6.556   1.582 -0.2918  0.4049  2.7859
 6899TIP3   OH242331   3.874   3.311   7.449 -0.3090 -0.1423 -0.3393
 6899TIP3    H142332   3.780   3.306   7.465 -0.2075  1.0227  0.7545
 6899TIP3    H242333   3.884   3.375   7.379 -0.3747 -0.9209 -1.0724
 6900TIP3   OH242334   5.030   3.301   0.722 -0.2280 -0.1409  0.1743
 6900TIP3    H142335   5.029   3.207   0.742  1.6938 -0.0254  1.0581
 6900TIP3    H242336   4.944   3.332   0.750 -1.1868 -1.7410 -0.8341
 6901TIP3   OH242337   0.121   3.100   8.495  0.6492 -0.0191  0.2297
 6901TIP3    H142338   0.213   3.079   8.481  0.5748 -0.5599  0.5162
 6901TIP3    H242339   0.073   3.033   8.446  0.4013  0.8890 -0.8054
 6902TIP3   OH242340   3.701   0.333   3.203 -0.4428  0.2831  0.0013
 6902TIP3    H142341   3.651   0.313   3.123  0.6049 -0.7063 -0.4429
 6902TIP3    H242342   3.669   0.419   3.230 -1.5581  0.1868 -0.9017
 6903TIP3   OH242343   5.815   0.112   6.983 -0.4679  0.3086 -0.2301
 6903TIP3    H142344   5.720   0.111   6.996 -0.2753 -1.6785  1.6137
 6903TIP3    H242345   5.834   0.029   6.939  0.5043  0.2380  0.2975
 6904TIP3   OH242346   2.887   6.444   1.699  0.1988  0.2889 -0.6124
 6904TIP3    H142347   2.842   6.365   1.666 -0.1546  0.3505 -0.2839
 6904TIP3    H242348   2.870   6.510   1.632 -1.5103  0.7448  0.2082
 6905TIP3   OH242349   6.477   4.322   7.269  0.3014 -0.3551 -0.8386
 6905TIP3    H142350   6.467   4.349   7.360 -1.5708  0.7783 -1.3413
 6905TIP3    H242351   6.546   4.255   7.272  2.9020  2.1732  0.8938
 6906TIP3   OH242352   6.414   4.362   0.230  0.5403  0.3259 -0.6824
 6906TIP3    H142353   6.324   4.374   0.198  0.1802  0.9054  0.4863
 6906TIP3    H242354   6.411   4.393   0.320  1.7441 -0.3673 -0.3876
 6907TIP3   OH242355   2.747   3.752   0.195 -0.2541 -0.6325  0.7139
 6907TIP3    H142356   2.840   3.771   0.194 -0.1103 -1.3141  0.5348
 6907TIP3    H242357   2.721   3.764   0.287  0.4306 -2.3409  1.1653
 6908TIP3   OH242358   5.166   4.501   7.224 -0.3479  0.8829 -0.1349
 6908TIP3    H142359   5.140   4.550   7.146 -2.1445  2.1768  1.2169
 6908TIP3    H242360   5.101   4.431   7.232  1.2893 -0.8678 -1.1480
 6909TIP3   OH242361   2.117   3.037   1.378 -0.8952  0.6449 -0.4616
 6909TIP3    H142362   2.177   2.970   1.410  0.3458  1.0151 -1.8526
 6909TIP3    H242363   2.097   3.090   1.455  1.2277  0.9807 -0.0709
 6910TIP3   OH242364   3.359   2.702   0.452 -0.3849  0.8587 -0.3380
 6910TIP3    H142365   3.347   2.610   0.428  0.7377  0.2268  1.3660
 6910TIP3    H242366   3.442   2.726   0.413  0.7311  0.2550  1.5300
 6911TIP3   OH242367   4.554   0.813   8.027 -0.1128 -0.4456  0.0025
 6911TIP3    H142368   4.464   0.842   8.036  0.1577  0.4285 -0.0447
 6911TIP3    H242369   4.589   0.864   7.954  0.8902  0.4562  1.0598
 6912TIP3   OH242370   5.938   5.904   1.850 -0.2744 -0.3024 -0.4004
 6912TIP3    H142371   5.960   5.996   1.866 -2.3473  0.0164  0.9280
 6912TIP3    H242372   5.970   5.858   1.928  1.7314 -0.9445 -1.5275
 6913TIP3   OH242373   5.705   6.836   2.231 -0.2233 -0.5251 -0.2377
 6913TIP3    H142374   5.787   6.880   2.211  0.1299 -1.2148 -0.3112
 6913TIP3    H242375   5.730   6.763   2.287 -0.8008 -0.6763 -0.1707
 6914TIP3   OH242376   6.882   6.819   1.424 -0.1215  0.1180  0.2113
 6914TIP3    H142377   6.884   6.857   1.512  1.5031 -0.7148  0.5706
 6914TIP3    H242378   6.885   6.895   1.366  1.1057  0.6306  0.9049
 6915TIP3   OH242379   0.392   5.730   7.977 -0.1795 -0.0306 -0.2804
 6915TIP3    H142380   0.456   5.785   7.932 -0.6265  0.4959 -0.2840
 6915TIP3    H242381   0.371   5.662   7.913  1.3592 -1.0042  0.1999
 6916TIP3   OH242382   6.643   5.893   7.216  0.1148 -0.1339 -0.0897
 6916TIP3    H142383   6.738   5.900   7.226 -0.0449 -0.4286  2.2296
 6916TIP3    H242384   6.628   5.801   7.195  0.2331 -0.8799  2.6546
 6917TIP3   OH242385   6.304   1.991   1.391 -0.2538 -0.8848  0.4632
 6917TIP3    H142386   6.221   1.953   1.416  0.3720 -1.2560  2.0677
 6917TIP3    H242387   6.286   2.037   1.309 -2.4383  0.4897  1.6396
 6918TIP3   OH242388   1.700   2.783   1.735  0.3813  0.3221 -0.1728
 6918TIP3    H142389   1.795   2.788   1.720  0.5685  0.6487  1.0527
 6918TIP3    H242390   1.663   2.772   1.647  1.5192  0.6768 -0.7180
 6919TIP3   OH242391   1.651   1.129   2.476  0.2284  0.4639  0.0221
 6919TIP3    H142392   1.731   1.180   2.492 -0.3524  1.2067  0.6063
 6919TIP3    H242393   1.615   1.112   2.563 -1.3596  1.9481 -0.2950
 6920TIP3   OH242394   2.330   1.549   2.405 -0.8175 -1.0748 -0.1035
 6920TIP3    H142395   2.248   1.509   2.375 -1.1205  1.0370 -2.4343
 6920TIP3    H242396   2.395   1.523   2.340 -0.6300  0.6299 -0.6472
 6921TIP3   OH242397   3.669   1.647   1.483  0.5337 -0.1405 -0.6544
 6921TIP3    H142398   3.617   1.680   1.556 -0.3791 -1.0406 -0.8645
 6921TIP3    H242399   3.640   1.556   1.471  2.9482 -1.0761 -0.0818
 6922TIP3   OH242400   3.697   1.772   2.587 -0.0426  0.4888  0.3169
 6922TIP3    H142401   3.768   1.830   2.614  0.1157 -0.0318  1.0782
 6922TIP3    H242402   3.723   1.741   2.500  0.1387  1.1278  0.1435
 6923TIP3   OH242403   4.522   3.969   7.652 -0.1275 -0.3466 -0.3049
 6923TIP3    H142404   4.578   4.023   7.596 -0.1890  0.1238  0.0812
 6923TIP3    H242405   4.447   4.024   7.672  0.0887 -0.3529  0.5740
 6924TIP3   OH242406   6.356   4.449   0.782  0.3426 -0.2114 -0.0574
 6924TIP3    H142407   6.383   4.368   0.826 -0.8640 -0.6776 -0.1459
 6924TIP3    H242408   6.273   4.473   0.824 -0.8641 -0.6637 -2.0245
 6925TIP3   OH242409   3.677   2.735   8.423  0.2315 -0.0616 -0.2272
 6925TIP3    H142410   3.650   2.779   8.342 -0.7070 -2.7413 -1.4929
 6925TIP3    H242411   3.668   2.641   8.404  1.7077 -0.8630  2.4167
 6926TIP3   OH242412   5.472   3.458   1.593  1.0787  0.2676  0.5560
 6926TIP3    H142413   5.540   3.492   1.650  2.5351  1.9087 -1.9642
 6926TIP3    H242414   5.492   3.494   1.507 -1.3781 -1.4929 -0.9011
 6927TIP3   OH242415   0.939   0.914   7.907  0.2479 -0.1173 -0.6110
 6927TIP3    H142416   0.990   0.882   7.832  0.2682 -1.3802 -0.0888
 6927TIP3    H242417   0.852   0.876   7.894  0.0371  0.2880 -0.3870
 6928TIP3   OH242418   2.776   2.205   0.661 -1.1172  0.0201  0.3638
 6928TIP3    H142419   2.706   2.267   0.639  0.2204  1.6295  0.4526
 6928TIP3    H242420   2.851   2.260   0.681  0.0577 -1.6526  0.7507
 6929TIP3   OH242421   4.126   3.726   0.828  0.0461  0.2397  0.0549
 6929TIP3    H142422   4.183   3.657   0.864  0.8751  1.8367  2.0027
 6929TIP3    H242423   4.161   3.807   0.865 -0.9146  1.7442 -2.1401
 6930TIP3   OH242424   6.233   6.149   0.082  0.6761  0.9122  1.0119
 6930TIP3    H142425   6.322   6.173   0.059  0.6557 -0.8691 -1.3153
 6930TIP3    H242426   6.178   6.219   0.047  1.0420  1.2570  1.1242
 6931TIP3   OH242427   0.870   5.898   0.576 -0.0966 -0.3002 -0.1294
 6931TIP3    H142428   0.927   5.911   0.500  0.8584  0.8532  0.7444
 6931TIP3    H242429   0.799   5.842   0.544 -0.1131  0.7471 -2.0415
 6932TIP3   OH242430   5.802   2.097   7.568 -0.1441 -1.2167 -0.0249
 6932TIP3    H142431   5.801   2.043   7.647 -0.6797 -0.3981  0.5492
 6932TIP3    H242432   5.824   2.036   7.497  0.6810 -1.8982  0.7964
 6933TIP3   OH242433   6.098   5.654   7.898 -0.4889  0.2624  0.4584
 6933TIP3    H142434   6.190   5.647   7.922 -0.2618  1.3880 -0.0284
 6933TIP3    H242435   6.058   5.575   7.935  0.8723 -0.8407 -0.3277
 6934TIP3   OH242436   0.478   3.289   2.521 -0.3428 -0.4587  0.1401
 6934TIP3    H142437   0.431   3.292   2.605 -3.7130 -2.4365 -1.4306
 6934TIP3    H242438   0.441   3.212   2.477  1.4095  0.4005 -3.0955
 6935TIP3   OH242439   2.334   0.632   1.426  0.0047  0.4670 -0.1804
 6935TIP3    H142440   2.275   0.692   1.381 -0.6660  0.9865  1.3372
 6935TIP3    H242441   2.419   0.647   1.384 -0.0588  2.7401  0.3279
 6936TIP3   OH242442   4.783   1.213   8.245  0.1808 -0.1675  0.1957
 6936TIP3    H142443   4.841   1.142   8.273  1.3295  0.9034  0.6434
 6936TIP3    H242444   4.733   1.176   8.173  2.2191 -0.8386 -0.9555
 6937TIP3   OH242445   2.960   5.566   2.569  0.2482 -0.5884  0.6054
 6937TIP3    H142446   3.007   5.485   2.588 -0.5213 -1.1447  0.1976
 6937TIP3    H242447   2.953   5.610   2.653  1.0431 -0.7390  0.7575
 6938TIP3   OH242448   0.724   3.508   6.940  0.1436 -0.4023 -0.2384
 6938TIP3    H142449   0.654   3.519   6.876 -0.1553 -0.0369  0.1427
 6938TIP3    H242450   0.793   3.567   6.912  0.5495 -1.1964 -0.9479
 6939TIP3   OH242451   0.433   5.096   0.379  0.5578 -0.1175  0.8225
 6939TIP3    H142452   0.497   5.113   0.448  2.4664 -1.3576 -0.5298
 6939TIP3    H242453   0.470   5.139   0.301 -2.7724  3.4716  0.9309
 6940TIP3   OH242454   2.235   2.095   2.511 -0.1695  0.2844  0.2122
 6940TIP3    H142455   2.280   2.155   2.570  0.6110  0.6128 -0.6844
 6940TIP3    H242456   2.276   2.010   2.527  0.1677  0.4091  0.0105
 6941TIP3   OH242457   3.660   4.530   7.627 -0.3646 -0.2158 -0.3924
 6941TIP3    H142458   3.725   4.491   7.685  1.5773 -0.1520 -2.3699
 6941TIP3    H242459   3.671   4.483   7.544 -1.4664  1.1612 -1.3709
 6942TIP3   OH242460   6.288   3.515   1.343 -0.1938 -0.2282  0.1691
 6942TIP3    H142461   6.299   3.430   1.300  0.4024 -0.5809  0.9810
 6942TIP3    H242462   6.361   3.568   1.312 -1.3500  0.4874 -1.4357
 6943TIP3   OH242463   3.569   1.563   7.596  0.2368  0.1840  0.3780
 6943TIP3    H142464   3.599   1.603   7.515 -1.4768  0.8005  0.0053
 6943TIP3    H242465   3.506   1.626   7.632 -0.7827 -1.1246  0.9712
 6944TIP3   OH242466   3.740   5.968   2.247 -0.0996  0.2863 -0.6473
 6944TIP3    H142467   3.830   5.949   2.221  0.0338  1.0562 -0.7732
 6944TIP3    H242468   3.690   5.894   2.213  0.5693 -0.4864  0.0013
 6945TIP3   OH242469   2.479   5.733   2.496 -0.4385  0.1014  0.1681
 6945TIP3    H142470   2.561   5.760   2.537 -0.9025  0.9215  0.5691
 6945TIP3    H242471   2.462   5.646   2.532  0.1022  0.0549  0.3171
 6946TIP3   OH242472   6.763   1.609   7.821  0.0080 -0.0777  0.3404
 6946TIP3    H142473   6.727   1.520   7.817  0.1485 -0.1482  0.6106
 6946TIP3    H242474   6.802   1.615   7.908  1.8070 -0.4684 -0.3770
 6947TIP3   OH242475   6.930   0.818   1.222  0.2548 -0.5698  0.2333
 6947TIP3    H142476   6.864   0.873   1.178  1.2690  0.6345  0.1611
 6947TIP3    H242477   6.889   0.792   1.304 -0.8860 -1.1364 -0.4837
 6948TIP3   OH242478   0.912   6.522   0.135 -0.2022 -0.0053  0.2322
 6948TIP3    H142479   0.842   6.465   0.166  0.5389 -0.0402  1.9728
 6948TIP3    H242480   0.882   6.611   0.157  0.4200 -0.0451  1.3207
 6949TIP3   OH242481   0.939   4.237   6.951 -0.7884 -0.2552 -0.1893
 6949TIP3    H142482   0.879   4.217   6.879 -1.3831 -1.0651  0.5046
 6949TIP3    H242483   0.981   4.319   6.926  0.3130 -1.3636 -2.2822
 6950TIP3   OH242484   2.624   2.875   1.356  0.4736 -0.2286 -0.5645
 6950TIP3    H142485   2.585   2.876   1.443 -0.8996 -0.0374 -1.1504
 6950TIP3    H242486   2.699   2.816   1.363  1.3200  0.9755  1.1164
 6951TIP3   OH242487   1.885   0.203   2.870 -0.7987 -0.1821  0.0046
 6951TIP3    H142488   1.832   0.283   2.873 -2.8940 -1.4797 -0.5947
 6951TIP3    H242489   1.880   0.168   2.958  1.1841  0.9307  0.6220
 6952TIP3   OH242490   1.353   5.407   0.107 -0.0100  0.6057 -0.4752
 6952TIP3    H142491   1.371   5.482   0.050 -1.6893  0.1226 -1.7724
 6952TIP3    H242492   1.418   5.341   0.081 -0.7261  0.4032 -1.8968
 6953TIP3   OH242493   6.759   5.057   2.126  0.5980 -0.4655 -0.4468
 6953TIP3    H142494   6.769   4.962   2.128 -0.6356 -0.6105 -0.6325
 6953TIP3    H242495   6.665   5.072   2.121  0.7414  0.7808  0.0614
 6954TIP3   OH242496   0.243   5.079   6.329 -0.2976  0.3026  0.4775
 6954TIP3    H142497   0.318   5.101   6.384 -0.8015  0.5126  1.0966
 6954TIP3    H242498   0.249   4.984   6.316  1.8035  0.6694 -2.0695
 6955TIP3   OH242499   1.047   6.762   7.717  0.0073 -0.4440  0.2263
 6955TIP3    H142500   1.022   6.670   7.712 -0.3087 -0.3446 -0.0257
 6955TIP3    H242501   0.992   6.798   7.787 -0.9936 -0.0934 -0.7066
 6956TIP3   OH242502   3.487   0.009   1.647  1.2299  0.7458 -0.2117
 6956TIP3    H142503   3.439  -0.060   1.693  0.3322  0.3924 -1.6269
 6956TIP3    H242504   3.558   0.032   1.707 -0.3355  0.8706  1.6877
 6957TIP3   OH242505   1.405   2.695   6.648 -0.1894 -1.0709 -0.0423
 6957TIP3    H142506   1.466   2.663   6.715  0.8085  0.8218  0.0194
 6957TIP3    H242507   1.427   2.644   6.570  2.3858  0.3448 -0.3632
 6958TIP3   OH242508   2.302   4.591   8.232 -0.1094  0.4948  0.2875
 6958TIP3    H142509   2.337   4.679   8.246  0.4036  0.4011 -0.3668
 6958TIP3    H242510   2.379   4.535   8.225 -0.4038  0.1588 -0.3649
 6959TIP3   OH242511   1.573   5.597   2.045 -0.0096 -0.0113 -0.1544
 6959TIP3    H142512   1.505   5.560   2.101 -0.2009  1.2303  0.4889
 6959TIP3    H242513   1.650   5.544   2.063 -0.1556  0.1368  1.0480
 6960TIP3   OH242514   4.333   6.150   1.398 -0.2304  0.5609  0.0892
 6960TIP3    H142515   4.424   6.128   1.383 -0.9905 -2.8332 -0.2607
 6960TIP3    H242516   4.330   6.182   1.488  1.3317  1.4040 -0.1171
 6961TIP3   OH242517   1.894   1.527   1.526  0.7318 -0.7067  0.3783
 6961TIP3    H142518   1.917   1.467   1.597  0.9944 -0.9808  0.0683
 6961TIP3    H242519   1.828   1.584   1.563 -1.8199 -3.0951 -0.1609
 6962TIP3   OH242520   2.566   2.935   0.224 -0.0304  0.2905  0.3972
 6962TIP3    H142521   2.525   2.931   0.311  0.5285  1.4035  0.7278
 6962TIP3    H242522   2.528   2.862   0.176 -0.6474 -0.0992  1.4556
 6963TIP3   OH242523   3.394   4.967   6.964  0.0865  0.1568  0.4860
 6963TIP3    H142524   3.445   5.040   6.930 -0.6372  0.1692 -0.6178
 6963TIP3    H242525   3.309   5.004   6.984  0.0991 -0.1308  1.1020
 6964TIP3   OH242526   1.780   5.988   2.498  0.2126  0.1654 -0.4412
 6964TIP3    H142527   1.763   6.075   2.533  2.3601  1.2120 -1.7471
 6964TIP3    H242528   1.713   5.975   2.431  0.1679  1.0155 -0.5635
 6965TIP3   OH242529   6.536   1.739   0.178 -0.2737 -0.2916  0.0467
 6965TIP3    H142530   6.607   1.730   0.114 -0.5436  1.1914 -0.5150
 6965TIP3    H242531   6.570   1.799   0.244 -1.2434  1.1300 -0.6776
 6966TIP3   OH242532   4.286   5.122   1.568  0.1178 -0.5584  0.2168
 6966TIP3    H142533   4.365   5.176   1.571  0.6731 -1.2146 -1.6078
 6966TIP3    H242534   4.313   5.038   1.604  0.3664 -0.8974 -0.7406
 6967TIP3   OH242535   4.115   6.142   7.690  0.2418 -0.5063  0.0582
 6967TIP3    H142536   4.090   6.054   7.717 -0.3017 -0.2680  0.3537
 6967TIP3    H242537   4.191   6.163   7.745  0.4002 -0.8046 -0.0464
 6968TIP3   OH242538   2.582   4.815   7.696 -0.6131 -0.6869  0.2357
 6968TIP3    H142539   2.540   4.860   7.623  0.1863 -0.7146 -0.2544
 6968TIP3    H242540   2.564   4.723   7.681  1.6595 -0.9710 -1.3890
 6969TIP3   OH242541   4.014   1.366   8.363 -0.6245  0.8593  0.1053
 6969TIP3    H142542   4.075   1.298   8.391 -1.1953  1.3639  2.8925
 6969TIP3    H242543   4.044   1.445   8.408 -1.8883  1.6957 -0.4712
 6970TIP3   OH242544   3.009   6.721   0.004  0.3652 -0.1795 -0.4849
 6970TIP3    H142545   2.994   6.723   0.099  1.8171 -1.3320 -0.2034
 6970TIP3    H242546   3.029   6.812  -0.018 -0.7484  0.2520  0.1563
 6971TIP3   OH242547   1.547   5.985   7.924  0.0048 -0.1835 -0.0412
 6971TIP3    H142548   1.639   6.014   7.925  0.6044 -1.8804 -1.0335
 6971TIP3    H242549   1.500   6.057   7.883  1.1196  0.1789 -0.7499
 6972TIP3   OH242550   4.357   0.537   8.333 -0.1837  0.4424  0.3005
 6972TIP3    H142551   4.312   0.603   8.280 -0.2702  0.7959  0.8044
 6972TIP3    H242552   4.309   0.456   8.318  0.5984  0.2169 -1.2161
 6973TIP3   OH242553   6.936   6.632   6.508  0.0546  0.2336  0.4629
 6973TIP3    H142554   7.013   6.659   6.557  1.3192  0.1688 -1.4255
 6973TIP3    H242555   6.964   6.554   6.459 -1.0469  0.5055 -0.6442
 6974TIP3   OH242556   5.020   4.097   8.514  0.0550 -0.2646 -0.0729
 6974TIP3    H142557   5.096   4.039   8.517  0.9397  0.6967 -2.1391
 6974TIP3    H242558   4.949   4.041   8.482 -0.1214 -1.1147  1.6732
 6975TIP3   OH242559   3.979   0.491   6.606 -0.4480  0.0271  0.2114
 6975TIP3    H142560   4.046   0.483   6.538  1.1168  1.5301  1.4934
 6975TIP3    H242561   3.984   0.409   6.655  0.6932  0.2436  0.4729
 6976TIP3   OH242562   6.626   4.539   0.267 -0.1143 -0.2731 -0.0361
 6976TIP3    H142563   6.701   4.500   0.312  0.0118  1.7222  1.6109
 6976TIP3    H242564   6.582   4.465   0.225  1.3953 -1.8301  0.9974
 6977TIP3   OH242565   6.067   3.666   6.838  0.1533  0.1674 -0.4031
 6977TIP3    H142566   6.033   3.741   6.788  0.8577  0.5502 -0.3261
 6977TIP3    H242567   6.162   3.675   6.831  0.2480 -0.1929  0.3996
 6978TIP3   OH242568   5.886   6.721   2.639  0.4384  0.2308  0.0423
 6978TIP3    H142569   5.791   6.723   2.626  0.3357 -0.4070  0.6535
 6978TIP3    H242570   5.902   6.640   2.688  1.4951 -0.6082 -1.5810
 6979TIP3   OH242571   6.284   3.271   8.269  0.6893 -0.5458  0.6809
 6979TIP3    H142572   6.224   3.296   8.339 -0.6017 -2.0384  0.1815
 6979TIP3    H242573   6.254   3.184   8.242  1.9140 -0.5302 -0.8893
 6980TIP3   OH242574   2.270   3.093   8.220 -0.5039  0.1637 -0.0984
 6980TIP3    H142575   2.254   3.166   8.161 -0.1064 -0.0855 -0.5184
 6980TIP3    H242576   2.317   3.131   8.294 -0.9100  0.4552  0.0168
 6981TIP3   OH242577   1.479   2.396   0.718 -0.1720  0.2139  0.4354
 6981TIP3    H142578   1.517   2.320   0.673 -0.9876 -0.3779  0.7165
 6981TIP3    H242579   1.461   2.365   0.806  0.9957  1.2397  1.0545
 6982TIP3   OH242580   4.450   4.630   7.861 -0.2737  0.2342  0.3824
 6982TIP3    H142581   4.526   4.572   7.867  1.0678  2.0705  2.4122
 6982TIP3    H242582   4.461   4.674   7.776  0.6323  0.0935  0.4122
 6983TIP3   OH242583   0.765   5.927   0.259  0.2037 -0.4546  0.5804
 6983TIP3    H142584   0.710   5.972   0.324  1.5107  1.1192  0.6664
 6983TIP3    H242585   0.853   5.962   0.275  1.0711 -2.2275 -0.1493
 6984TIP3   OH242586   1.104   2.012   1.798  0.5870 -0.1964 -0.4375
 6984TIP3    H142587   1.167   1.943   1.820 -0.6416 -0.7168  1.8474
 6984TIP3    H242588   1.117   2.079   1.865 -0.4520  0.2438 -0.6443
 6985TIP3   OH242589   4.862   2.112   3.104 -0.2841 -0.3497 -0.1835
 6985TIP3    H142590   4.779   2.148   3.072  0.5908  1.5897 -0.4440
 6985TIP3    H242591   4.929   2.157   3.053  0.9493 -2.0026 -0.1049
 6986TIP3   OH242592   5.571   6.107   7.315 -0.2664  0.2980  0.2894
 6986TIP3    H142593   5.577   6.124   7.221  1.5120  1.2421  0.5268
 6986TIP3    H242594   5.527   6.185   7.350 -0.1560  0.3367  0.3416
 6987TIP3   OH242595   4.858   2.140   1.428 -0.1249 -0.0543 -0.0507
 6987TIP3    H142596   4.937   2.179   1.467  0.0943  0.6497 -1.1674
 6987TIP3    H242597   4.889   2.099   1.347 -1.0627  1.1826 -1.0669
 6988TIP3   OH242598   0.148   0.408   3.387  0.0712  0.4807 -0.4830
 6988TIP3    H142599   0.179   0.331   3.340 -1.4364 -0.2982 -0.2645
 6988TIP3    H242600   0.178   0.482   3.334  0.2412 -0.2988 -1.5107
 6989TIP3   OH242601   2.370   0.382   1.472 -0.4950 -0.1406 -0.8443
 6989TIP3    H142602   2.461   0.366   1.497 -0.6750 -2.2133 -1.3403
 6989TIP3    H242603   2.365   0.477   1.460  1.3324  0.1309  0.1540
 6990TIP3   OH242604   0.910   4.104   7.967  0.9635 -0.1645  0.2249
 6990TIP3    H142605   0.891   4.184   8.016  0.9372  0.4084 -0.7106
 6990TIP3    H242606   0.948   4.134   7.885  0.3728 -1.0814 -0.4045
 6991TIP3   OH242607   0.704   2.553   8.523 -0.7255  0.2026 -0.0351
 6991TIP3    H142608   0.789   2.598   8.521 -1.0924  0.8770 -2.0040
 6991TIP3    H242609   0.664   2.584   8.605 -0.2575  2.1704 -0.4849
 6992TIP3   OH242610   3.502   6.913   0.692 -0.4192  0.3844  0.1367
 6992TIP3    H142611   3.575   6.854   0.711  0.2459  0.5651 -1.6920
 6992TIP3    H242612   3.444   6.861   0.635 -0.8352  0.8373  0.1422
 6993TIP3   OH242613   3.266   0.142   7.633 -0.2771  0.3543  0.0725
 6993TIP3    H142614   3.345   0.167   7.586 -0.4758  1.5136  0.3305
 6993TIP3    H242615   3.252   0.212   7.697 -1.2921 -0.0232  0.2916
 6994TIP3   OH242616   3.294   5.972   7.126  0.2602  0.5878 -0.1001
 6994TIP3    H142617   3.301   5.923   7.044  1.1120  1.3931 -0.5236
 6994TIP3    H242618   3.200   5.973   7.145  0.3078 -2.9332  1.0194
 6995TIP3   OH242619   3.281   2.526   1.367  0.4216  0.0623 -0.2011
 6995TIP3    H142620   3.235   2.460   1.315  0.0624  1.8859 -2.3432
 6995TIP3    H242621   3.214   2.560   1.427 -0.6436  1.4066 -2.0445
 6996TIP3   OH242622   6.843   5.371   0.149  0.3268 -0.2724  0.1944
 6996TIP3    H142623   6.754   5.405   0.152  1.0033  1.5926  0.3164
 6996TIP3    H242624   6.886   5.410   0.225  1.8942  0.8742 -1.1864
 6997TIP3   OH242625   4.528   3.697   8.178  0.1872  0.1449 -0.4033
 6997TIP3    H142626   4.456   3.643   8.208  0.8292 -1.2382 -1.2412
 6997TIP3    H242627   4.489   3.782   8.160 -1.5142 -0.8923 -1.9739
 6998TIP3   OH242628   2.749   0.525   3.332  0.1347  0.0681  0.1678
 6998TIP3    H142629   2.673   0.470   3.315 -0.1383  0.0394  1.3701
 6998TIP3    H242630   2.750   0.536   3.427  1.6927 -0.0179  0.1896
 6999TIP3   OH242631   5.916   2.056   0.093  0.2707  0.3452 -0.0750
 6999TIP3    H142632   6.006   2.074   0.067  0.9894 -0.8111  1.4752
 6999TIP3    H242633   5.873   2.027   0.013  1.6532 -0.4406 -0.5589
 7000TIP3   OH242634   6.494   4.909   7.631 -0.4044 -0.0868 -0.0169
 7000TIP3    H142635   6.427   4.963   7.674 -2.0219  0.0950 -2.5199
 7000TIP3    H242636   6.452   4.824   7.619  0.8740 -0.8675  0.8349
 7001TIP3   OH242637   4.981   5.384   0.622 -0.4517 -0.0543  0.5159
 7001TIP3    H142638   5.047   5.349   0.562  0.7400 -0.1410  1.8410
 7001TIP3    H242639   4.901   5.390   0.568  0.0465 -2.0220 -0.5515
 7002TIP3   OH242640   6.150   4.894   1.283 -0.1667 -0.7556  0.6661
 7002TIP3    H142641   6.232   4.866   1.324  0.6776 -0.5908 -0.8311
 7002TIP3    H242642   6.153   4.989   1.284  0.3943 -0.7462 -0.7592
 7003TIP3   OH242643   5.723   6.150   8.156  0.0858 -0.0700 -1.2126
 7003TIP3    H142644   5.688   6.161   8.068 -1.6088  1.5713 -0.3941
 7003TIP3    H242645   5.816   6.172   8.148 -0.4604  2.1274 -2.2385
 7004TIP3   OH242646   0.077   5.489   7.547  0.4045  0.0755  0.0133
 7004TIP3    H142647   0.010   5.479   7.479  0.8858  0.8772 -0.5886
 7004TIP3    H242648   0.127   5.566   7.520  0.9174  0.0998  1.0137
 7005TIP3   OH242649   5.251   4.637   8.265  0.0671 -0.3967 -0.1552
 7005TIP3    H142650   5.201   4.558   8.242  0.0390 -0.0065 -1.4639
 7005TIP3    H242651   5.341   4.614   8.245 -0.0092  0.0979 -1.0678
 7006TIP3   OH242652   0.708   0.471   1.900  0.6056 -0.3818 -0.2364
 7006TIP3    H142653   0.709   0.432   1.813  1.1286 -1.5669  0.2746
 7006TIP3    H242654   0.800   0.483   1.922  0.8180 -4.0333  1.7780
 7007TIP3   OH242655   4.161   3.075   1.727 -0.1589  0.0626  0.4670
 7007TIP3    H142656   4.251   3.071   1.694 -0.1863  1.2452  0.1926
 7007TIP3    H242657   4.165   3.032   1.812  0.4593 -0.7446  0.0471
 7008TIP3   OH242658   0.470   4.243   7.388 -0.4772 -0.1794  0.7301
 7008TIP3    H142659   0.480   4.324   7.338  0.0660  0.1830  1.4170
 7008TIP3    H242660   0.531   4.252   7.461  1.1434 -2.0785 -0.2747
 7009TIP3   OH242661   1.388   5.783   2.178  0.0476 -0.0265  0.3273
 7009TIP3    H142662   1.299   5.806   2.153  0.2275  0.2973 -0.0439
 7009TIP3    H242663   1.386   5.689   2.193 -0.4588  0.0548  0.7763
 7010TIP3   OH242664   1.444   4.530   8.419  0.1087  0.2902  0.5285
 7010TIP3    H142665   1.496   4.491   8.348  0.3590 -0.1302  0.9402
 7010TIP3    H242666   1.498   4.602   8.452 -0.0802  0.5921  0.1855
 7011TIP3   OH242667   1.278   3.805   1.121 -0.1563 -0.1194  0.0900
 7011TIP3    H142668   1.255   3.729   1.174 -0.5122 -0.2962 -0.3118
 7011TIP3    H242669   1.316   3.867   1.183  1.5869 -1.2230  0.1798
 7012TIP3   OH242670   0.503   4.490   7.280  0.6062 -0.3752 -0.5482
 7012TIP3    H142671   0.495   4.569   7.226  2.4433  0.9854  0.9922
 7012TIP3    H242672   0.590   4.498   7.320 -0.7113 -1.1388  2.7791
 7013TIP3   OH242673   3.725   3.567   0.125  0.4489  0.3103 -0.9345
 7013TIP3    H142674   3.729   3.482   0.170 -1.5618  1.1776  1.0324
 7013TIP3    H242675   3.803   3.613   0.155 -0.2120  0.3925  0.7536
 7014TIP3   OH242676   1.486   0.978   2.992  0.2695  0.0521 -0.3557
 7014TIP3    H142677   1.551   1.020   3.048 -2.1639 -0.2580  3.0133
 7014TIP3    H242678   1.504   0.885   3.000  0.0492  0.0188 -0.2358
 7015TIP3   OH242679   6.368   2.163   6.852 -0.1480  0.0243  0.2116
 7015TIP3    H142680   6.300   2.194   6.912  0.2960  0.2514  0.6098
 7015TIP3    H242681   6.380   2.071   6.875 -1.7612 -0.6001 -1.2521
 7016TIP3   OH242682   3.278   2.143   8.407 -0.0177  0.3085  0.6172
 7016TIP3    H142683   3.217   2.195   8.460 -0.3767  0.1060  0.4098
 7016TIP3    H242684   3.260   2.169   8.317  0.6665  0.7302  0.5979
 7017TIP3   OH242685   3.442   5.853   0.124  0.4511 -0.2424 -0.1656
 7017TIP3    H142686   3.375   5.824   0.062 -0.2700 -0.9562  0.9027
 7017TIP3    H242687   3.523   5.854   0.074 -0.4030  1.0668 -1.6196
 7018TIP3   OH242688   3.465   6.085   7.559  0.0837 -0.1581  0.5027
 7018TIP3    H142689   3.416   6.006   7.583  0.3558 -0.3408  0.4571
 7018TIP3    H242690   3.557   6.061   7.570  0.1828  0.0106  0.0418
 7019TIP3   OH242691   0.568   2.621   2.548  0.2285  0.1407  0.3527
 7019TIP3    H142692   0.500   2.557   2.525 -0.2012  1.3797 -2.2688
 7019TIP3    H242693   0.520   2.704   2.557  0.8601  0.3069  3.0250
 7020TIP3   OH242694   4.954   0.098   0.965 -0.1076 -0.0848 -0.1900
 7020TIP3    H142695   4.883   0.084   0.903  0.2767  0.6370 -0.7965
 7020TIP3    H242696   4.947   0.190   0.990  0.0401 -0.2468  0.4765
 7021TIP3   OH242697   2.400   3.405   1.349 -0.0665 -0.2452  0.3771
 7021TIP3    H142698   2.320   3.397   1.297  0.0100 -0.0613  0.2328
 7021TIP3    H242699   2.426   3.314   1.367  1.0526 -0.3769 -1.6410
 7022TIP3   OH242700   0.217   3.964   0.409  0.2873  0.3323 -0.3825
 7022TIP3    H142701   0.223   3.938   0.501 -0.2736  0.6480 -0.2570
 7022TIP3    H242702   0.256   4.051   0.406  1.5047 -0.1990 -0.6787
 7023TIP3   OH242703   2.536   5.732   1.410 -0.0639 -0.7660 -0.2242
 7023TIP3    H142704   2.498   5.770   1.331 -1.4330 -0.9906  0.3088
 7023TIP3    H242705   2.490   5.776   1.482  1.0063 -0.7253  0.4563
 7024TIP3   OH242706   3.372   5.572   6.027 -0.2181  0.3888  0.3243
 7024TIP3    H142707   3.370   5.655   6.075 -0.8736 -0.1062  1.1914
 7024TIP3    H242708   3.456   5.573   5.982  0.4785  0.8476  1.5770
 7025TIP3   OH242709   0.407   2.975   0.468 -0.0379  0.4455  0.2928
 7025TIP3    H142710   0.490   2.927   0.461  0.3645  1.2884 -1.3019
 7025TIP3    H242711   0.434   3.064   0.493 -0.6899  0.1587  2.1739
 7026TIP3   OH242712   2.156   0.952   7.810  0.0968  0.4215  0.0089
 7026TIP3    H142713   2.149   0.923   7.901 -1.2661 -0.0956 -0.2304
 7026TIP3    H242714   2.190   0.877   7.762 -0.5030  0.2217 -0.1164
 7027TIP3   OH242715   4.609   5.533   7.509 -0.2440 -0.0426 -0.2031
 7027TIP3    H142716   4.607   5.458   7.569 -2.8014 -0.4747 -0.7412
 7027TIP3    H242717   4.520   5.568   7.511 -0.7295 -0.6116 -4.3685
 7028TIP3   OH242718   0.049   6.726   7.690  0.5997 -0.2051 -0.1280
 7028TIP3    H142719   0.141   6.741   7.711  1.1949 -1.4353 -1.6080
 7028TIP3    H242720   0.045   6.634   7.665 -1.2519 -0.4360  0.8657
 7029TIP3   OH242721   1.027   4.220   0.148 -0.1837  0.6417 -0.2044
 7029TIP3    H142722   1.056   4.167   0.222  2.1594  1.9719 -0.0716
 7029TIP3    H242723   0.932   4.206   0.144 -0.0474 -1.2706  1.5605
 7030TIP3   OH242724   0.150   4.317   2.253  0.4581  0.2285  0.4727
 7030TIP3    H142725   0.142   4.227   2.220 -2.2722  0.2468  0.9194
 7030TIP3    H242726   0.242   4.324   2.278  0.6537 -2.6418  0.9571
 7031TIP3   OH242727   6.281   6.669   0.196 -0.3245  0.3519 -0.4238
 7031TIP3    H142728   6.351   6.688   0.133  1.1611  0.0211  1.0258
 7031TIP3    H242729   6.274   6.574   0.196 -0.7700  0.3847 -0.5487
 7032TIP3   OH242730   2.444   5.310   1.423  0.1711  0.3495 -0.0111
 7032TIP3    H142731   2.468   5.259   1.346  0.5663  0.0609  0.2918
 7032TIP3    H242732   2.506   5.383   1.424  1.1817 -0.4677  0.8437
 7033TIP3   OH242733   3.278   0.583   1.575 -0.8166  0.4191  0.1526
 7033TIP3    H142734   3.264   0.634   1.495 -2.3635 -1.6778 -1.0030
 7033TIP3    H242735   3.193   0.582   1.618 -1.0718 -1.8484 -0.3106
 7034TIP3   OH242736   2.255   5.854   2.560  0.0402  0.0287  0.7823
 7034TIP3    H142737   2.338   5.822   2.526 -0.3925 -0.0043 -0.2890
 7034TIP3    H242738   2.274   5.882   2.649  1.0519 -0.5689  0.7636
 7035TIP3   OH242739   6.148   2.489   8.082 -0.4559  1.2602 -0.3597
 7035TIP3    H142740   6.139   2.472   8.175  0.2803  1.7960 -0.1797
 7035TIP3    H242741   6.083   2.432   8.040  1.1103 -1.1620  0.2770
 7036TIP3   OH242742   4.681   4.584   1.986 -0.0714 -0.1373 -0.3906
 7036TIP3    H142743   4.664   4.515   2.050 -0.0240  0.1728 -0.0356
 7036TIP3    H242744   4.648   4.664   2.028  0.4254  0.1515 -0.5378
 7037TIP3   OH242745   6.580   1.478   1.994 -0.0868  0.0268 -0.1611
 7037TIP3    H142746   6.528   1.473   2.075 -1.6911 -0.6565 -1.1878
 7037TIP3    H242747   6.642   1.549   2.011 -0.3185 -0.1480  1.6975
 7038TIP3   OH242748   6.123   1.020   7.487 -0.0385 -0.4841  0.4923
 7038TIP3    H142749   6.195   1.083   7.479  0.5250 -0.8003  2.6550
 7038TIP3    H242750   6.132   0.964   7.410  0.9750  0.5102 -0.1548
 7039TIP3   OH242751   5.774   6.531   1.937 -0.5037 -0.6074 -0.2181
 7039TIP3    H142752   5.811   6.575   1.860 -0.0861  0.7881  0.7337
 7039TIP3    H242753   5.757   6.441   1.908  0.9741 -0.5036 -1.5105
 7040TIP3   OH242754   2.444   0.690   2.333 -0.0965  0.3426 -0.2652
 7040TIP3    H142755   2.493   0.664   2.255  0.9844  1.8951 -0.1446
 7040TIP3    H242756   2.358   0.717   2.300  0.5623  1.5792 -1.0305
 7041TIP3   OH242757   2.733   3.956   0.817  0.4565 -0.2051 -0.2531
 7041TIP3    H142758   2.695   3.996   0.739 -0.8584  0.7534  0.8279
 7041TIP3    H242759   2.761   3.869   0.789 -2.8481 -1.1152 -1.0868
 7042TIP3   OH242760   4.911   1.106   0.875 -0.0599 -0.1542  0.4845
 7042TIP3    H142761   4.891   1.108   0.969  1.8577 -0.2669  0.9513
 7042TIP3    H242762   4.859   1.034   0.841 -0.3545 -0.4799  1.5820
 7043TIP3   OH242763   4.110   1.453   0.660 -0.4977  0.1806  0.3021
 7043TIP3    H142764   4.167   1.527   0.638 -1.6400  0.6427 -1.2676
 7043TIP3    H242765   4.129   1.387   0.594 -0.1112 -0.6004  1.1790
 7044TIP3   OH242766   2.216   3.202   0.982 -0.7751  0.5634  0.4259
 7044TIP3    H142767   2.225   3.288   0.941 -1.4888 -0.1800 -1.3958
 7044TIP3    H242768   2.123   3.196   1.004 -1.0957 -0.4048 -1.0860
 7045TIP3   OH242769   6.142   0.682   8.370  0.2016 -0.1079 -0.6353
 7045TIP3    H142770   6.085   0.734   8.313  2.8837  2.9890 -0.7795
 7045TIP3    H242771   6.199   0.634   8.310 -0.2772 -0.8502 -0.5062
 7046TIP3   OH242772   6.531   3.982   0.941 -0.0866  0.1974 -0.4260
 7046TIP3    H142773   6.521   3.949   1.031 -0.3098 -2.5114 -1.3457
 7046TIP3    H242774   6.616   3.949   0.914 -0.7046 -0.4195 -1.7051
 7047TIP3   OH242775   2.656   0.220   0.424 -0.5137  0.1143 -0.1443
 7047TIP3    H142776   2.625   0.301   0.384 -0.1565  0.5504  0.4413
 7047TIP3    H242777   2.740   0.244   0.464 -0.8576 -0.3022  0.8551
 7048TIP3   OH242778   0.774   5.956   6.810 -0.0340  0.3657  0.0537
 7048TIP3    H142779   0.745   5.920   6.727 -0.2805 -1.1077  0.7409
 7048TIP3    H242780   0.728   5.904   6.876 -1.1327  2.5564  1.1363
 7049TIP3   OH242781   4.437   3.251   8.249 -0.6268  0.2095  0.3839
 7049TIP3    H142782   4.520   3.289   8.221 -1.5890  1.9597 -0.2622
 7049TIP3    H242783   4.391   3.323   8.292 -1.9670 -0.5916  0.3572
 7050TIP3   OH242784   2.240   6.111   0.688 -0.0523 -0.2641 -0.0806
 7050TIP3    H142785   2.309   6.173   0.661 -1.3244  0.1639 -2.6571
 7050TIP3    H242786   2.188   6.159   0.753  0.5275  0.3719 -0.0732
 7051TIP3   OH242787   6.940   0.951   0.707  0.4126  0.3813 -0.3751
 7051TIP3    H142788   6.867   1.005   0.677 -0.0496 -0.1375 -0.1918
 7051TIP3    H242789   7.006   1.014   0.735 -0.3395  0.8625  0.3709
 7052TIP3   OH242790   5.528   2.075   8.519  0.0334 -0.4928  0.1600
 7052TIP3    H142791   5.541   2.135   8.447  1.1940 -0.5056  0.3455
 7052TIP3    H242792   5.501   1.993   8.478  2.2050 -0.9777 -0.4301
 7053TIP3   OH242793   0.305   2.643   0.918  0.4029 -0.1571 -0.1291
 7053TIP3    H142794   0.274   2.575   0.978 -0.0199  0.7928  0.7687
 7053TIP3    H242795   0.232   2.705   0.914  0.4882 -0.1193 -1.5168
 7054TIP3   OH242796   4.368   6.737   2.519 -0.1680 -0.0233 -0.6940
 7054TIP3    H142797   4.450   6.739   2.568 -1.1962 -1.6317  1.2345
 7054TIP3    H242798   4.365   6.822   2.474  0.7996  1.6616  2.1309
 7055TIP3   OH242799   2.299   4.768   1.736  0.1493  0.1262  0.2551
 7055TIP3    H142800   2.326   4.745   1.825  0.2771 -0.1816  0.1384
 7055TIP3    H242801   2.380   4.766   1.686  0.3251  1.7331  0.4149
 7056TIP3   OH242802   1.548   0.248   1.957 -0.1680 -0.4795  0.3272
 7056TIP3    H142803   1.575   0.339   1.966 -1.5061  0.4153 -3.0431
 7056TIP3    H242804   1.630   0.199   1.956  0.5766  0.5998  2.2536
 7057TIP3   OH242805   6.907   4.635   1.498  0.1733  0.3522  0.1516
 7057TIP3    H142806   6.958   4.675   1.569  0.4047 -0.4902  0.4721
 7057TIP3    H242807   6.959   4.653   1.419  0.1422  0.9028  0.2523
 7058TIP3   OH242808   3.646   4.685   0.083  0.7823 -0.1707  0.7311
 7058TIP3    H142809   3.702   4.640   0.146  2.1935  0.7988  0.2397
 7058TIP3    H242810   3.668   4.645  -0.002  2.2455  1.4873  0.2481
 7059TIP3   OH242811   0.768   2.310   2.274 -0.4536  0.0574 -0.7643
 7059TIP3    H142812   0.792   2.374   2.341 -3.7802 -0.3099  0.9501
 7059TIP3    H242813   0.687   2.344   2.236 -0.4348 -1.4397 -2.2845
 7060TIP3   OH242814   5.410   3.292   0.399  0.1050 -0.6297 -0.2144
 7060TIP3    H142815   5.404   3.369   0.455 -1.7043 -1.3824  0.7315
 7060TIP3    H242816   5.503   3.279   0.385  0.4990  0.9321  0.7041
 7061TIP3   OH242817   3.113   3.323   0.726  0.3179  0.6355  0.5222
 7061TIP3    H142818   3.132   3.321   0.632 -0.9080 -0.7312  0.2745
 7061TIP3    H242819   3.163   3.251   0.763 -1.0113 -0.3276  0.5180
 7062TIP3   OH242820   3.152   1.203   7.342  0.2284 -0.1104  0.1493
 7062TIP3    H142821   3.172   1.264   7.414 -1.2648  1.1913 -0.4903
 7062TIP3    H242822   3.188   1.246   7.264  0.0614 -0.5456 -0.1693
 7063TIP3   OH242823   6.280   4.537   1.540 -0.3490 -0.2392  0.6480
 7063TIP3    H142824   6.196   4.541   1.494  0.5503  0.5191 -1.0231
 7063TIP3    H242825   6.259   4.499   1.625 -2.1549 -1.4256 -0.2620
 7064TIP3   OH242826   2.272   4.970   0.487 -0.3047 -0.5026 -0.1071
 7064TIP3    H142827   2.190   4.960   0.439  0.0056 -0.3716 -0.6730
 7064TIP3    H242828   2.299   4.881   0.508  0.1060 -0.6272 -1.1196
 7065TIP3   OH242829   3.294   4.690   7.482  0.4015 -0.0988  0.4504
 7065TIP3    H142830   3.303   4.677   7.576  0.0713 -2.1797  0.2439
 7065TIP3    H242831   3.205   4.722   7.470 -1.2382 -4.0160  0.6261
 7066TIP3   OH242832   0.863   3.206   2.589 -0.0131  0.1324  0.0094
 7066TIP3    H142833   0.794   3.198   2.654 -0.2825  0.9298 -0.1695
 7066TIP3    H242834   0.927   3.265   2.629  0.6238 -0.6834  0.2186
 7067TIP3   OH242835   2.466   0.937   1.246 -0.3737  0.2510  0.0745
 7067TIP3    H142836   2.407   1.009   1.268 -0.2544  0.2384  0.4376
 7067TIP3    H242837   2.433   0.904   1.163  0.4627  1.7155 -0.8860
 7068TIP3   OH242838   1.240   5.972   8.057  0.1422  0.2669 -0.0036
 7068TIP3    H142839   1.189   5.984   8.137 -0.2098  0.1112 -0.2020
 7068TIP3    H242840   1.202   6.033   7.994  0.2234  0.1771 -0.1422
 7069TIP3   OH242841   5.799   0.955   1.313 -0.4357  0.2371 -0.3063
 7069TIP3    H142842   5.862   0.888   1.338 -0.2495  0.8201  0.8338
 7069TIP3    H242843   5.716   0.925   1.351 -0.2622  0.8577  0.5814
 7070TIP3   OH242844   6.952   3.771   2.704  0.0512 -0.0122 -0.7013
 7070TIP3    H142845   6.900   3.845   2.674  0.9210  0.7706 -0.3146
 7070TIP3    H242846   6.889   3.699   2.713 -1.4182  1.4407  1.8562
 7071TIP3   OH242847   2.908   3.405   7.924  0.7841 -0.8140  0.0000
 7071TIP3    H142848   2.967   3.456   7.867 -0.8071  1.5991  0.3490
 7071TIP3    H242849   2.852   3.471   7.964 -1.8809 -2.9371  0.0262
 7072TIP3   OH242850   5.285   4.150   6.499  0.3329  0.4522 -0.2691
 7072TIP3    H142851   5.345   4.114   6.434 -1.7234  2.2721 -3.4408
 7072TIP3    H242852   5.342   4.194   6.562  2.4570 -1.6698 -0.5684
 7073TIP3   OH242853   5.524   1.888   1.509  1.0695  0.2675 -0.4171
 7073TIP3    H142854   5.547   1.974   1.543  2.2485 -0.4825  0.7907
 7073TIP3    H242855   5.428   1.888   1.505  1.0602  1.5897 -0.3449
 7074TIP3   OH242856   4.095   1.168   2.658  0.3895 -0.0243  0.3113
 7074TIP3    H142857   4.147   1.234   2.613 -1.2346  0.6640 -0.6259
 7074TIP3    H242858   4.052   1.119   2.588 -0.0898 -0.6673  1.0430
 7075TIP3   OH242859   6.423   4.047   2.193 -0.3880  0.0782  0.7852
 7075TIP3    H142860   6.466   4.086   2.269  0.9606 -1.0545  0.6470
 7075TIP3    H242861   6.401   3.958   2.221  0.3358 -0.4295 -0.2128
 7076TIP3   OH242862   4.438   5.622   0.354 -0.0683 -0.0697  0.8554
 7076TIP3    H142863   4.453   5.639   0.447  0.1552 -0.2593  0.8561
 7076TIP3    H242864   4.506   5.673   0.309  0.3805 -0.6699  0.8403
 7077TIP3   OH242865   1.916   2.664   0.682  0.4084 -0.2301 -0.7516
 7077TIP3    H142866   1.990   2.722   0.701  0.2199 -0.0938 -0.4278
 7077TIP3    H242867   1.890   2.630   0.767 -1.3889  1.5228 -0.5255
 7078TIP3   OH242868   6.644   1.428   1.086  0.5422  0.0621 -0.2521
 7078TIP3    H142869   6.629   1.355   1.146  0.4487  1.1989  1.1873
 7078TIP3    H242870   6.645   1.505   1.143 -0.6730  1.3320 -1.8443
 7079TIP3   OH242871   0.738   3.368   1.825  0.0390  0.0781 -0.3788
 7079TIP3    H142872   0.690   3.319   1.892 -0.3077 -1.0955 -1.4446
 7079TIP3    H242873   0.718   3.460   1.844  0.9483 -0.1337  1.8453
 7080TIP3   OH242874   1.920   2.977   7.460 -0.1957 -0.6429 -0.2226
 7080TIP3    H142875   1.940   2.905   7.520  0.4334  0.8404  1.4445
 7080TIP3    H242876   2.003   2.999   7.420  0.2940  1.1328  1.6326
 7081TIP3   OH242877   3.571   1.157   7.681  0.4408 -0.4838  0.4735
 7081TIP3    H142878   3.575   1.226   7.615 -1.0622  0.6213  1.4775
 7081TIP3    H242879   3.618   1.192   7.756 -1.5622  0.1123  1.5086
 7082TIP3   OH242880   2.529   4.585   8.444  0.1849  0.1920 -0.5378
 7082TIP3    H142881   2.510   4.501   8.401  1.4400 -0.4649  0.1630
 7082TIP3    H242882   2.520   4.567   8.537  1.9505  0.4223 -0.2934
 7083TIP3   OH242883   6.637   6.406   0.038 -0.4093 -0.4197  0.1741
 7083TIP3    H142884   6.727   6.378   0.026 -0.1739  0.5564 -0.5001
 7083TIP3    H242885   6.587   6.325   0.049  0.3604 -1.0377 -0.7584
 7084TIP3   OH242886   6.249   4.581   6.596  0.4508 -0.0830 -0.1411
 7084TIP3    H142887   6.201   4.625   6.526  0.3506 -0.7770 -0.5205
 7084TIP3    H242888   6.328   4.547   6.554 -1.2142 -3.5795 -0.8445
 7085TIP3   OH242889   4.049   5.741   6.976  0.4416 -0.1345 -0.8449
 7085TIP3    H142890   4.097   5.658   6.979  1.6388  0.5607  0.3088
 7085TIP3    H242891   3.969   5.720   6.927  1.7891 -1.3902 -2.6541
 7086TIP3   OH242892   3.178   4.378   7.252  0.0290  0.2458 -0.1705
 7086TIP3    H142893   3.270   4.396   7.275  0.3389 -0.3698 -0.8908
 7086TIP3    H242894   3.134   4.372   7.336  1.1468 -2.0041  0.3345
 7087TIP3   OH242895   4.172   6.568   2.386  0.4125 -0.0224  0.4517
 7087TIP3    H142896   4.209   6.480   2.396 -0.7445 -0.5468  0.2979
 7087TIP3    H242897   4.139   6.590   2.473  0.4677  0.1635  0.4272
 7088TIP3   OH242898   5.871   3.558   1.534  0.0050 -0.0368 -0.4807
 7088TIP3    H142899   5.876   3.639   1.585  0.2192  0.1823 -0.8435
 7088TIP3    H242900   5.838   3.586   1.448 -0.9867 -0.4910 -0.2685
 7089TIP3   OH242901   0.247   1.596   8.299  0.1935 -0.2839 -0.0669
 7089TIP3    H142902   0.300   1.542   8.240  1.9059  1.6368 -0.4105
 7089TIP3    H242903   0.158   1.562   8.288  0.8674 -1.7144 -1.7426
 7090TIP3   OH242904   0.440   0.988   1.088 -0.0408 -0.6122 -0.0651
 7090TIP3    H142905   0.390   0.995   1.169  0.8831 -0.8470  0.5303
 7090TIP3    H242906   0.530   0.971   1.115  0.7166  1.3610 -1.0465
 7091TIP3   OH242907   5.427   1.506   1.661 -0.3128 -0.6975  0.2222
 7091TIP3    H142908   5.391   1.580   1.709  1.1868 -0.2857  0.7760
 7091TIP3    H242909   5.396   1.429   1.709  0.7617 -0.3016  1.6206
 7092TIP3   OH242910   6.399   6.683   0.609 -0.4787 -0.1835 -0.0856
 7092TIP3    H142911   6.445   6.740   0.547 -1.8482 -1.0458 -2.0114
 7092TIP3    H242912   6.398   6.733   0.691  2.0087  0.7229 -0.5167
 7093TIP3   OH242913   3.084   1.618   1.033  0.4362 -0.1597  0.1753
 7093TIP3    H142914   3.025   1.647   1.102 -0.6639 -0.3076 -0.6897
 7093TIP3    H242915   3.097   1.695   0.978 -0.3754 -0.5848 -0.6314
 7094TIP3   OH242916   0.173   6.479   7.544 -0.2435 -0.1541 -0.0056
 7094TIP3    H142917   0.187   6.503   7.452 -0.8923  0.9973  0.1856
 7094TIP3    H242918   0.234   6.535   7.593  0.9835 -1.6071  0.2200
 7095TIP3   OH242919   5.423   6.916   2.240  0.1231  0.1775 -0.0382
 7095TIP3    H142920   5.435   7.008   2.215  0.7299 -0.1881 -1.1457
 7095TIP3    H242921   5.512   6.880   2.243 -0.1166 -0.4041  0.3009
 7096TIP3   OH242922   1.230   4.276   1.957  0.1399  0.0451  0.5674
 7096TIP3    H142923   1.289   4.222   1.904  0.4151  0.7194  0.1663
 7096TIP3    H242924   1.260   4.366   1.941 -0.4506  0.3323  1.0458
 7097TIP3   OH242925   4.629   1.515   0.435  0.3958  0.1045 -0.0311
 7097TIP3    H142926   4.708   1.569   0.424  0.0005  0.6972 -0.0239
 7097TIP3    H242927   4.659   1.438   0.483  0.7437  0.8973  1.0658
 7098TIP3   OH242928   0.771   2.452   0.855 -0.3315 -0.2965  0.3509
 7098TIP3    H142929   0.705   2.516   0.829 -0.8391 -1.0135 -0.1718
 7098TIP3    H242930   0.720   2.377   0.887  0.2585 -0.2805  1.3586
 7099TIP3   OH242931   0.749   1.216   0.692  0.0060 -0.3805  0.1701
 7099TIP3    H142932   0.761   1.128   0.728 -0.8762 -0.3175  0.6455
 7099TIP3    H242933   0.704   1.202   0.609 -0.6969 -0.3567  0.5355
 7100TIP3   OH242934   3.675   5.468   8.284 -0.1012 -0.1291  0.4391
 7100TIP3    H142935   3.643   5.481   8.194  0.1965  0.0460  0.3548
 7100TIP3    H242936   3.597   5.471   8.338 -0.0237  3.0172  0.5401
 7101TIP3   OH242937   3.735   1.139   2.352 -0.0056 -0.0541 -0.3062
 7101TIP3    H142938   3.699   1.175   2.433 -0.8096 -2.7113  0.6053
 7101TIP3    H242939   3.663   1.090   2.313  1.3103 -1.6611 -0.8289
 7102TIP3   OH242940   4.028   6.761   1.836 -0.1463 -0.0778  0.7645
 7102TIP3    H142941   4.102   6.748   1.897 -0.4703  1.3671  1.5170
 7102TIP3    H242942   4.064   6.739   1.750  0.7136 -0.8778  1.3021
 7103TIP3   OH242943   2.812   4.935   7.055  0.6898 -0.0723  0.3651
 7103TIP3    H142944   2.859   4.927   7.137 -1.5873 -2.1556  1.5950
 7103TIP3    H242945   2.723   4.962   7.081 -0.2451 -1.3459 -1.3312
 7104TIP3   OH242946   0.888   4.695   8.061  0.7697 -0.1984  0.4308
 7104TIP3    H142947   0.951   4.744   8.008  2.0477  0.0812  2.1142
 7104TIP3    H242948   0.937   4.618   8.091 -0.6370 -1.5796 -0.6398
 7105TIP3   OH242949   1.924   5.168   7.886 -0.1309 -0.1506 -0.5171
 7105TIP3    H142950   1.966   5.136   7.806  0.1400 -1.0727 -0.0209
 7105TIP3    H242951   1.995   5.212   7.934 -0.0772 -0.3814 -0.3805
 7106TIP3   OH242952   3.153   5.414   7.613 -0.3802 -0.4577 -0.2375
 7106TIP3    H142953   3.242   5.440   7.592  0.4234 -1.7079  1.4314
 7106TIP3    H242954   3.161   5.326   7.650 -2.4193 -1.0204 -0.9630
 7107TIP3   OH242955   5.531   6.060   1.239  0.8051  0.1611 -0.2349
 7107TIP3    H142956   5.514   6.035   1.148 -0.0715  0.7289 -0.2300
 7107TIP3    H242957   5.562   5.979   1.280  0.4226 -0.3012 -0.8334
 7108TIP3   OH242958   6.562   0.853   2.106  0.0210 -0.1091 -0.1104
 7108TIP3    H142959   6.516   0.936   2.092 -1.3403 -0.9357 -0.8026
 7108TIP3    H242960   6.516   0.813   2.180  1.2548  0.1337  0.8186
 7109TIP3   OH242961   1.233   5.301   1.401 -0.1633 -0.2543  1.0227
 7109TIP3    H142962   1.190   5.264   1.324  0.6735  0.5871  0.1103
 7109TIP3    H242963   1.162   5.321   1.462 -0.8645 -0.7321  0.3735
 7110TIP3   OH242964   6.421   6.793   7.710 -0.1875 -0.4730  0.0017
 7110TIP3    H142965   6.434   6.749   7.794 -0.1908  0.9869  0.7949
 7110TIP3    H242966   6.500   6.772   7.659 -1.1673 -3.2214 -0.5380
 7111TIP3   OH242967   0.656   2.341   8.385  0.3689 -0.4420 -0.5371
 7111TIP3    H142968   0.682   2.386   8.304 -1.0748  0.9177 -0.2940
 7111TIP3    H242969   0.671   2.406   8.454 -2.5749  0.1276 -0.2757
 7112TIP3   OH242970   3.457   2.466   2.147 -0.3126  0.3003 -0.5297
 7112TIP3    H142971   3.467   2.385   2.097 -0.0853 -0.2837  0.4261
 7112TIP3    H242972   3.386   2.448   2.209  0.1792  0.5837  0.1352
 7113TIP3   OH242973   2.006   2.715   7.844  0.0368  0.7493 -0.1408
 7113TIP3    H142974   2.064   2.779   7.885  0.4832  1.3743 -1.6727
 7113TIP3    H242975   1.921   2.729   7.886  0.9953 -0.3806  2.3528
 7114TIP3   OH242976   4.199   4.569   1.604 -0.1967  0.2111 -0.8644
 7114TIP3    H142977   4.238   4.641   1.555  2.3011 -0.4367  0.0601
 7114TIP3    H242978   4.137   4.529   1.542 -1.3199  2.7774 -1.5583
 7115TIP3   OH242979   4.290   4.457   2.461  0.3009  0.1657  0.2315
 7115TIP3    H142980   4.313   4.376   2.506  2.3499  0.2223 -0.6067
 7115TIP3    H242981   4.199   4.445   2.434  0.1449 -1.2813  1.3110
 7116TIP3   OH242982   3.261   5.834   1.339 -0.9793 -0.2125 -0.3416
 7116TIP3    H142983   3.266   5.924   1.371 -1.1490 -0.1250 -0.5567
 7116TIP3    H242984   3.242   5.843   1.246  0.5650 -0.4343 -0.7007
 7117TIP3   OH242985   4.778   0.037   6.958  0.2500  0.2451 -0.4646
 7117TIP3    H142986   4.851   0.074   6.908 -0.1032 -0.2954 -1.3985
 7117TIP3    H242987   4.788   0.074   7.046  1.9633 -0.2525 -0.4195
 7118TIP3   OH242988   4.406   0.112   7.630 -0.2262 -0.4662  0.1864
 7118TIP3    H142989   4.465   0.187   7.625 -0.1785 -0.3839  1.5056
 7118TIP3    H242990   4.399   0.094   7.724 -0.7139 -1.7376 -0.0766
 7119TIP3   OH242991   5.020   6.487   7.716  0.7048 -0.4444 -0.1617
 7119TIP3    H142992   5.001   6.426   7.787 -1.1711  0.6415  0.3343
 7119TIP3    H242993   4.996   6.439   7.636  0.9934 -0.9858  0.0707
 7120TIP3   OH242994   2.268   6.950   3.066 -0.6964  0.6601 -0.2036
 7120TIP3    H142995   2.187   6.949   3.015 -1.1266  1.8601  0.4187
 7120TIP3    H242996   2.324   7.013   3.020 -0.7577  1.0961  0.3190
 7121TIP3   OH242997   3.895   5.154   3.003  0.3186 -0.4007  0.3735
 7121TIP3    H142998   3.864   5.154   2.912  1.0155 -0.3864  0.1287
 7121TIP3    H242999   3.918   5.063   3.020  2.0727 -0.0890 -0.1400
 7122TIP3   OH243000   3.542   4.929   0.013 -0.0811  0.0581 -0.3142
 7122TIP3    H143001   3.497   4.914  -0.071 -1.5083 -0.1679  0.4509
 7122TIP3    H243002   3.575   4.843   0.038  0.2799  0.1111 -0.6036
 7123TIP3   OH243003   1.196   1.791   0.286  0.0561 -0.1724 -0.7602
 7123TIP3    H143004   1.127   1.795   0.220 -0.5807  0.6595 -0.0653
 7123TIP3    H243005   1.242   1.709   0.268  0.8898  0.7437 -3.2209
 7124TIP3   OH243006   4.530   1.039   1.159  0.0384 -0.5775  0.1338
 7124TIP3    H143007   4.442   1.075   1.174  0.5954  1.7345 -1.6605
 7124TIP3    H243008   4.585   1.116   1.144  2.0732 -2.0609 -0.3466
 7125TIP3   OH243009   4.110   1.828   1.451  0.5229  0.1844 -0.2971
 7125TIP3    H143010   4.056   1.794   1.522 -0.0507 -0.1053 -0.8542
 7125TIP3    H243011   4.199   1.827   1.485  0.4303 -1.2181 -0.0373
 7126TIP3   OH243012   6.157   6.253   7.572  0.3778  0.1125 -0.0574
 7126TIP3    H143013   6.206   6.333   7.555  0.4104 -0.0453 -0.7146
 7126TIP3    H243014   6.221   6.192   7.608  0.7428 -0.2009 -1.2125
 7127TIP3   OH243015   2.509   4.347   1.555 -0.7154 -0.2821  0.0518
 7127TIP3    H143016   2.571   4.279   1.533  1.9446  1.3897  1.8194
 7127TIP3    H243017   2.476   4.378   1.470  0.8045 -1.2681 -0.9423
 7128TIP3   OH243018   1.009   2.493   1.009 -0.8225  0.3090  0.3839
 7128TIP3    H143019   0.915   2.498   0.994 -0.5073  1.6626 -1.5898
 7128TIP3    H243020   1.040   2.583   0.999  0.9316 -0.4064 -1.2958
 7129TIP3   OH243021   2.950   2.023   1.703  0.1415  0.3915  0.1519
 7129TIP3    H143022   2.997   1.958   1.651  0.7667  0.2025  0.9437
 7129TIP3    H243023   3.018   2.073   1.748 -0.3934 -0.4818  2.0366
 7130TIP3   OH243024   2.321   0.320   2.311  0.2870 -0.1707  0.2780
 7130TIP3    H143025   2.234   0.344   2.342 -0.3514 -1.1560 -0.6811
 7130TIP3    H243026   2.331   0.370   2.229  1.4520  1.4578  1.3517
 7131TIP3   OH243027   5.977   1.272   0.621  0.4563  0.3709 -0.2634
 7131TIP3    H143028   6.051   1.211   0.623  0.2399  0.0783 -0.9510
 7131TIP3    H243029   6.002   1.339   0.558 -0.1099 -0.0605 -0.9662
 7132TIP3   OH243030   2.179   3.755   7.230 -0.5561 -0.5121  0.6276
 7132TIP3    H143031   2.166   3.773   7.137  0.0813  0.0145  0.6312
 7132TIP3    H243032   2.113   3.808   7.274  0.2971  0.6440  0.5551
 7133TIP3   OH243033   6.959   5.405   0.695 -0.2745  0.0578 -0.8034
 7133TIP3    H143034   7.052   5.409   0.718 -0.7074  3.0736  0.9497
 7133TIP3    H243035   6.929   5.322   0.732  1.5175 -0.6000 -0.7107
 7134TIP3   OH243036   5.780   2.328   7.365  0.1326 -0.7526 -0.1298
 7134TIP3    H143037   5.729   2.374   7.298  0.1646  1.5696  1.3306
 7134TIP3    H243038   5.714   2.289   7.423  0.0310  0.0685  0.3211
 7135TIP3   OH243039   2.718   5.197   1.080  0.6059  0.2784  0.1295
 7135TIP3    H143040   2.635   5.232   1.113  0.5016 -1.2177  1.6092
 7135TIP3    H243041   2.692   5.136   1.010  0.6743  1.7716 -1.2419
 7136TIP3   OH243042   5.308   3.270   1.120 -0.6221  0.2366  0.3363
 7136TIP3    H143043   5.368   3.328   1.167 -1.0505 -0.1484  1.3875
 7136TIP3    H243044   5.271   3.324   1.051  0.0927  0.7905  0.3778
 7137TIP3   OH243045   2.899   2.220   0.995  0.4364 -0.2732 -0.2984
 7137TIP3    H143046   2.924   2.299   0.946  0.5773 -0.2588 -0.2032
 7137TIP3    H243047   2.804   2.217   0.988  0.3925  0.1443  0.0667
 7138TIP3   OH243048   1.726   3.513   2.396 -0.4913  0.1506  0.3976
 7138TIP3    H143049   1.647   3.565   2.379 -0.6850  0.2062  1.3930
 7138TIP3    H243050   1.695   3.438   2.446  0.0642  0.1088  0.6895
 7139TIP3   OH243051   3.649   0.327   8.432 -0.0658  0.3759 -0.2183
 7139TIP3    H143052   3.695   0.402   8.394 -0.1829  0.3398 -0.4302
 7139TIP3    H243053   3.703   0.252   8.409  1.5393  0.6427  2.3023
 7140TIP3   OH243054   3.377   1.487   2.045  0.1863 -0.3704  0.1536
 7140TIP3    H143055   3.441   1.518   2.109  0.3436  0.3389 -0.3342
 7140TIP3    H243056   3.396   1.394   2.035 -1.4223 -1.1155  2.9648
 7141TIP3   OH243057   6.817   4.774   6.664 -0.9583  0.4235  0.0705
 7141TIP3    H143058   6.829   4.868   6.671  0.5315  0.2132  0.9321
 7141TIP3    H243059   6.836   4.754   6.573  0.4551  0.7740  0.2628
 7142TIP3   OH243060   2.801   0.366   0.032 -0.0357  0.6772  0.4519
 7142TIP3    H143061   2.740   0.423  -0.016 -2.0958 -0.3616  1.7489
 7142TIP3    H243062   2.751   0.288   0.052  1.8784 -0.4104  1.2429
 7143TIP3   OH243063   6.537   3.815   7.188 -0.9537 -0.1632  0.3334
 7143TIP3    H143064   6.590   3.871   7.131  0.1233 -2.5775 -1.2327
 7143TIP3    H243065   6.451   3.813   7.146 -0.1435 -1.9930 -1.4174
 7144TIP3   OH243066   5.766   1.807   2.526  0.2774 -0.5977  0.2554
 7144TIP3    H143067   5.701   1.795   2.595  0.6604 -1.8334  0.4264
 7144TIP3    H243068   5.821   1.729   2.530  0.6651 -0.4339 -1.0717
 7145TIP3   OH243069   4.494   1.956   1.928 -0.4574 -0.2593  0.5083
 7145TIP3    H143070   4.482   1.863   1.910  0.7403 -0.6293  1.5287
 7145TIP3    H243071   4.581   1.962   1.967 -0.2291  1.3799 -0.1748
 7146TIP3   OH243072   4.343   6.595   7.637  0.1381  0.0631  0.5586
 7146TIP3    H143073   4.384   6.510   7.653  0.2871  0.3619  1.8589
 7146TIP3    H243074   4.353   6.642   7.720 -2.0380  0.4729  0.6402
 7147TIP3   OH243075   2.589   0.488   0.326  0.0444  0.3858 -0.0627
 7147TIP3    H143076   2.560   0.524   0.242  0.1080  0.4771 -0.0460
 7147TIP3    H243077   2.510   0.485   0.379  0.2808  1.8664  0.4312
 7148TIP3   OH243078   0.573   6.375   8.452 -0.0123 -0.0064  0.5936
 7148TIP3    H143079   0.597   6.325   8.530  0.3018 -1.6291 -0.5127
 7148TIP3    H243080   0.481   6.399   8.466 -0.3902 -1.5296  0.8146
 7149LIG     O143081   5.147   5.637   3.083  0.0675  0.7224  0.3844
 7149LIG     O243082   5.243   5.557   2.886 -0.4488  0.3094 -0.3686
 7149LIG     O343083   5.355   5.422   3.047 -0.0551 -0.6127  0.1921
 7149LIG     O443084   5.077   5.869   2.894 -0.4893 -0.0239 -0.4004
 7149LIG     O543085   5.309   5.956   3.028 -0.1711  0.2485 -0.3785
 7149LIG     O643086   5.157   5.314   2.748  0.3138 -0.6041  0.0166
 7149LIG     O743087   5.418   5.455   2.697  0.0514 -0.2385  0.1527
 7149LIG     O843088   5.654   5.336   2.825  0.4959  0.6045 -0.2087
 7149LIG     O943089   4.971   5.635   2.751  0.3138  0.2491 -0.2496
 7149LIG    O1043090   5.356   5.611   3.251  0.1920  0.4121 -0.4570
 7149LIG    O1143091   5.611   5.574   3.159 -0.3114  0.2683 -0.2408
 7149LIG     C143092   5.140   5.636   2.935  0.5307 -0.2866 -0.1595
 7149LIG     C243093   5.189   5.779   2.896  0.1907  0.5339 -0.3691
 7149LIG     C343094   5.277   5.812   3.019  0.7262 -0.8779 -0.6653
 7149LIG     C443095   5.201   5.753   3.138 -0.4244 -0.5762 -0.4791
 7149LIG     C543096   5.253   5.425   2.945  0.3438  0.3934  0.0892
 7149LIG     C643097   5.270   5.319   2.839  0.3892  0.5424  0.0783
 7149LIG     C743098   5.409   5.331   2.775 -0.3108 -0.8925  1.0046
 7149LIG     C843099   5.519   5.332   2.887 -0.0239 -0.0501  0.6808
 7149LIG     C943100   5.488   5.446   2.988  0.8592  0.1705  0.2889
 7149LIG    C1043101   5.006   5.593   2.885 -0.0726 -0.2387  0.9097
 7149LIG    C1143102   5.294   5.734   3.261  0.4979 -0.3546 -0.1094
 7149LIG    C1243103   5.602   5.451   3.094  0.3445  1.0274  0.3530
 7149LIG     H143104   5.241   5.788   2.800  1.5372  0.1707  0.3098
 7149LIG     H243105   5.371   5.759   2.999  1.2539  0.0820 -0.7650
 7149LIG     H343106   5.114   5.818   3.153 -0.8346 -0.8088 -1.7749
 7149LIG     H443107   5.162   5.409   3.008 -1.3870  0.8947 -2.1620
 7149LIG     H543108   5.263   5.226   2.898 -2.3506  2.4826  3.1848
 7149LIG     H643109   5.441   5.252   2.704  3.5896  1.3556 -0.0351
 7149LIG     H743110   5.509   5.233   2.934  1.8909 -0.6110  0.0194
 7149LIG     H843111   5.485   5.538   2.927  0.5151 -0.3816 -0.5450
 7149LIG     H943112   4.988   5.484   2.884  0.1594 -0.2754  0.2344
 7149LIG    H1043113   4.929   5.651   2.941 -2.9822 -2.3202 -0.6237
 7149LIG    H1143114   5.353   5.826   3.284  0.0837 -0.4177  1.2777
 7149LIG    H1243115   5.221   5.724   3.344 -1.0313 -3.1077 -1.6207
 7149LIG    H1343116   5.576   5.390   3.183 -3.3174  1.6659 -0.1388
 7149LIG    H1443117   5.704   5.425   3.057  1.4762  1.2638  3.0740
 7149LIG    H1543118   5.117   5.945   2.853  0.2033  0.1747  0.5970
 7149LIG    H1643119   5.230   6.010   3.042 -1.3972 -2.1857  3.9382
 7149LIG    H1743120   5.138   5.221   2.732  0.6273 -0.5061 -1.0117
 7149LIG    H1843121   5.342   5.443   2.639 -1.1449  2.1726  1.0640
 7149LIG    H1943122   5.676   5.243   2.810  1.3790  0.4728  1.6630
 7149LIG    H2043123   4.876   5.625   2.745  0.1893 -0.4629  2.0785
 7149LIG    H2143124   5.293   5.565   3.196 -0.0776  0.7141 -0.3979
 7149LIG    H2243125   5.530   5.584   3.209 -0.4180 -0.7828 -0.1952
   6.96594   6.96594   8.53232
