Title
43125
    1CHL1    C3    1   1.456   0.861   6.381 -0.5693 -0.1361 -0.2356
    1CHL1    H3    2   1.538   0.919   6.332  0.4442  1.1379  2.7582
    1CHL1    O3    3   1.461   0.892   6.521  0.6147  0.7433  0.1167
    1CHL1   H3'    4   1.384   0.848   6.559 -0.8702  2.0966 -1.1693
    1CHL1    C4    5   1.326   0.897   6.315 -0.4945 -0.0342  0.2818
    1CHL1   H4A    6   1.242   0.850   6.369 -0.3279 -1.6159 -0.7837
    1CHL1   H4B    7   1.315   1.007   6.332  0.6358  0.4761 -1.7988
    1CHL1    C5    8   1.340   0.862   6.166  0.7111 -0.9128 -0.3958
    1CHL1    C6    9   1.334   0.959   6.072 -0.5164 -0.5399 -0.2742
    1CHL1    H6   10   1.311   1.062   6.103 -0.3778 -0.4861 -0.3495
    1CHL1    C7   11   1.359   0.945   5.925 -0.2910  0.3868 -0.3375
    1CHL1   H7A   12   1.291   1.007   5.863 -0.7045 -0.1225 -0.4009
    1CHL1   H7B   13   1.466   0.965   5.900  1.0507 -0.7207  3.7341
    1CHL1    C8   14   1.348   0.796   5.891 -0.3625  0.2780  0.1775
    1CHL1    H8   15   1.238   0.783   5.895 -0.4365  0.5627 -0.6662
    1CHL1   C14   16   1.401   0.774   5.751 -0.4154 -0.4807  0.7696
    1CHL1   H14   17   1.510   0.790   5.762 -0.5599 -0.2501  1.9462
    1CHL1   C15   18   1.365   0.881   5.648 -0.0980  0.3113  0.0385
    1CHL1  H15A   19   1.254   0.880   5.653 -0.1285  1.5556 -0.2155
    1CHL1  H15B   20   1.415   0.974   5.682 -1.6021  0.8467  0.8886
    1CHL1   C16   21   1.425   0.817   5.517 -0.1780 -0.4299  0.2451
    1CHL1  H16A   22   1.359   0.839   5.431 -3.0440  1.9733  2.8488
    1CHL1  H16B   23   1.523   0.869   5.508 -0.9327  1.3391  1.7999
    1CHL1   C17   24   1.453   0.672   5.542  0.1371  0.2550 -0.1518
    1CHL1   H17   25   1.562   0.654   5.547  0.0458 -0.1094  0.9164
    1CHL1   C13   26   1.393   0.635   5.681 -0.2687 -0.0768 -0.1745
    1CHL1   C18   27   1.247   0.609   5.659 -0.0147 -0.4020  0.0835
    1CHL1  H18A   28   1.237   0.509   5.612 -0.6920  0.5719 -1.9262
    1CHL1  H18B   29   1.188   0.609   5.753  0.9825 -1.4272  0.7418
    1CHL1  H18C   30   1.198   0.684   5.595  1.5029 -1.5730 -2.6104
    1CHL1   C12   31   1.463   0.534   5.777  1.2127 -0.1401 -0.0215
    1CHL1  H12A   32   1.427   0.432   5.749 -1.6844  0.6467  0.5283
    1CHL1  H12B   33   1.571   0.553   5.763  1.3428 -0.1229  0.9710
    1CHL1   C11   34   1.413   0.551   5.927 -0.3309 -0.0169  0.2919
    1CHL1  H11A   35   1.304   0.528   5.925 -0.4086  0.3356  0.5266
    1CHL1  H11B   36   1.472   0.486   5.995  1.0659  0.1893 -0.6784
    1CHL1    C9   37   1.421   0.697   5.986 -0.6388  0.3446  0.3232
    1CHL1    H9   38   1.528   0.728   5.976 -0.8360  0.2760 -3.5706
    1CHL1   C10   39   1.377   0.710   6.130  0.2817 -0.0153 -0.2900
    1CHL1   C19   40   1.254   0.630   6.172 -0.1903 -0.2509 -0.1323
    1CHL1  H19A   41   1.212   0.650   6.273 -0.7008  0.2689 -0.4411
    1CHL1  H19B   42   1.172   0.658   6.102 -0.3888 -0.2549  0.0963
    1CHL1  H19C   43   1.261   0.520   6.156 -0.4755 -0.2298 -0.4305
    1CHL1    C1   44   1.483   0.660   6.222  0.0537 -0.5962 -1.0464
    1CHL1   H1A   45   1.499   0.552   6.202  2.3521 -0.5084  0.0180
    1CHL1   H1B   46   1.578   0.710   6.192  1.0400 -1.1334  1.0571
    1CHL1    C2   47   1.479   0.709   6.365 -0.2296 -0.1754 -0.5728
    1CHL1   H2A   48   1.572   0.667   6.410 -0.8264  1.4345  2.4372
    1CHL1   H2B   49   1.404   0.646   6.418  1.4005 -3.2273 -1.6278
    1CHL1   C20   50   1.420   0.567   5.429  0.3969 -0.4744  0.4559
    1CHL1   H20   51   1.311   0.566   5.406  0.6146  1.6162 -0.8863
    1CHL1   C21   52   1.460   0.417   5.465 -0.5007 -0.0700  0.2472
    1CHL1  H21A   53   1.440   0.363   5.370  1.0613 -0.0438 -0.1211
    1CHL1  H21B   54   1.394   0.377   5.545  1.8291 -0.4506  2.0853
    1CHL1  H21C   55   1.566   0.391   5.487 -0.3026  0.4440 -0.0932
    1CHL1   C22   56   1.473   0.603   5.286  0.1713 -0.7728 -0.1708
    1CHL1  H22A   57   1.478   0.712   5.268 -0.2999 -0.7505 -0.1870
    1CHL1  H22B   58   1.579   0.571   5.279  1.5475  3.2801 -0.2213
    1CHL1   C23   59   1.391   0.548   5.166 -0.1850  0.1849  0.0490
    1CHL1  H23A   60   1.376   0.439   5.182  1.2159 -0.0391 -0.0843
    1CHL1  H23B   61   1.290   0.596   5.159 -0.1519  0.0589 -1.9667
    1CHL1   C24   62   1.468   0.566   5.033  0.2321  0.0537  0.0510
    1CHL1  H24A   63   1.504   0.670   5.023  0.9311 -0.4132 -3.1466
    1CHL1  H24B   64   1.556   0.503   5.059 -1.2986 -1.9137  0.7199
    1CHL1   C25   65   1.408   0.516   4.902  0.0688  0.0295 -0.8105
    1CHL1   H25   66   1.312   0.568   4.880  1.4889  1.9335 -2.9463
    1CHL1   C26   67   1.497   0.544   4.786 -0.5210  0.4149  1.3250
    1CHL1  H26A   68   1.462   0.496   4.692  1.0588  0.7621  0.5161
    1CHL1  H26B   69   1.504   0.650   4.753 -2.2555 -0.0723 -0.8843
    1CHL1  H26C   70   1.603   0.513   4.803 -0.5499 -0.8245 -0.4914
    1CHL1   C27   71   1.375   0.364   4.906 -0.5640  0.2675  0.1660
    1CHL1  H27A   72   1.312   0.346   4.996  2.8093 -0.4708  2.5947
    1CHL1  H27B   73   1.321   0.333   4.814 -1.0000  2.0072 -0.1822
    1CHL1  H27C   74   1.461   0.295   4.921  1.2147  2.3350 -0.1435
    2CHL1    C3   75   3.816   2.374   6.395  0.5887 -0.5771 -0.8886
    2CHL1    H3   76   3.828   2.266   6.373 -1.0624 -0.4533 -2.6563
    2CHL1    O3   77   3.794   2.393   6.533 -0.3248  0.6246 -0.4792
    2CHL1   H3'   78   3.861   2.455   6.562  1.5512 -1.5905  0.1840
    2CHL1    C4   79   3.929   2.463   6.340  0.1964 -0.0691 -0.1237
    2CHL1   H4A   80   3.907   2.567   6.373 -1.8400  0.0407 -1.6066
    2CHL1   H4B   81   4.023   2.439   6.394 -0.1705 -0.4385  0.3538
    2CHL1    C5   82   3.953   2.466   6.190  0.0713 -0.8795  0.9174
    2CHL1    C6   83   4.076   2.446   6.135  0.2015 -0.5844  1.0503
    2CHL1    H6   84   4.167   2.437   6.197  0.7343  0.3991  0.4574
    2CHL1    C7   85   4.092   2.453   5.986  0.7641 -0.2254 -0.7227
    2CHL1   H7A   86   4.178   2.518   5.959 -0.4023  0.6160 -2.6237
    2CHL1   H7B   87   4.126   2.349   5.965  0.9801 -0.2754 -0.1446
    2CHL1    C8   88   3.974   2.494   5.909  0.0085  0.0047  0.7097
    2CHL1    H8   89   3.967   2.604   5.923 -2.6601 -0.0450  0.2570
    2CHL1   C14   90   3.997   2.458   5.765 -0.3851 -0.3742  0.0517
    2CHL1   H14   91   4.014   2.348   5.758  0.0834 -0.2499 -0.8624
    2CHL1   C15   92   4.118   2.518   5.691 -0.0486  0.1754 -0.0219
    2CHL1  H15A   93   4.109   2.628   5.703  0.4941  0.0780  1.4763
    2CHL1  H15B   94   4.222   2.493   5.724 -0.0667  0.1374  0.0071
    2CHL1   C16   95   4.091   2.469   5.552  0.9090 -0.1067 -0.1611
    2CHL1  H16A   96   4.135   2.549   5.488 -0.1337 -2.1451 -3.6979
    2CHL1  H16B   97   4.151   2.378   5.530 -0.9540 -1.0843 -1.4521
    2CHL1   C17   98   3.937   2.449   5.532 -0.1304 -0.0488  0.7090
    2CHL1   H17   99   3.907   2.342   5.522  1.6042 -0.5957  1.1156
    2CHL1   C13  100   3.883   2.487   5.665  0.5842 -0.1550  0.2160
    2CHL1   C18  101   3.844   2.640   5.679 -0.6072 -0.6954  0.2703
    2CHL1  H18A  102   3.743   2.659   5.638 -1.3078 -1.4465  1.5777
    2CHL1  H18B  103   3.839   2.668   5.786  1.7081 -1.1202  0.5340
    2CHL1  H18C  104   3.915   2.708   5.627 -0.3536 -0.7347  0.5650
    2CHL1   C12  105   3.769   2.400   5.720 -0.0054  0.5556  0.0214
    2CHL1  H12A  106   3.678   2.425   5.661 -2.0340 -1.8300  1.8732
    2CHL1  H12B  107   3.802   2.294   5.715 -0.5068  0.3940  0.0304
    2CHL1   C11  108   3.732   2.430   5.866  0.2572 -0.3684 -0.1463
    2CHL1  H11A  109   3.669   2.522   5.862 -0.0365 -0.6191 -1.4935
    2CHL1  H11B  110   3.670   2.342   5.893  0.4868 -0.3734  0.3921
    2CHL1    C9  111   3.851   2.420   5.967 -1.1092  0.4198 -0.1400
    2CHL1    H9  112   3.872   2.311   5.961  0.3400  0.6174  0.9235
    2CHL1   C10  113   3.821   2.464   6.106  0.1941  0.4081 -0.7351
    2CHL1   C19  114   3.766   2.611   6.106 -0.3966 -0.0164  0.3707
    2CHL1  H19A  115   3.681   2.611   6.033  1.4762  0.5060 -1.9301
    2CHL1  H19B  116   3.731   2.656   6.201 -1.2119  3.3612 -1.3661
    2CHL1  H19C  117   3.849   2.671   6.063 -0.8156 -1.1007 -2.1155
    2CHL1    C1  118   3.711   2.370   6.169  0.0989 -0.2136 -0.0462
    2CHL1   H1A  119   3.620   2.380   6.106 -0.0338 -0.8530  0.0451
    2CHL1   H1B  120   3.745   2.265   6.157  1.0357  0.3395 -2.8620
    2CHL1    C2  121   3.684   2.399   6.319 -0.0387 -0.3201  0.5354
    2CHL1   H2A  122   3.606   2.330   6.358 -0.4194 -1.3208 -1.8196
    2CHL1   H2B  123   3.635   2.497   6.337 -0.7572  0.2938 -3.6685
    2CHL1   C20  124   3.880   2.517   5.402  0.2395 -0.5546 -0.4639
    2CHL1   H20  125   3.873   2.627   5.417 -1.6359 -0.8164  0.9511
    2CHL1   C21  126   3.733   2.471   5.395 -0.1609 -0.5747 -0.2028
    2CHL1  H21A  127   3.714   2.362   5.395 -2.9494 -0.1629  1.3337
    2CHL1  H21B  128   3.681   2.503   5.302 -2.3763  2.4084  1.8781
    2CHL1  H21C  129   3.669   2.521   5.470 -1.0702  0.5944 -1.6887
    2CHL1   C22  130   3.945   2.492   5.267 -0.9321 -0.3187 -0.2378
    2CHL1  H22A  131   4.048   2.533   5.265 -0.1791 -2.1045  0.2414
    2CHL1  H22B  132   3.961   2.383   5.259 -0.3749 -0.3526  1.0624
    2CHL1   C23  133   3.866   2.542   5.143 -0.1799  0.3685 -0.0543
    2CHL1  H23A  134   3.936   2.518   5.061 -1.5004 -3.8114 -0.1595
    2CHL1  H23B  135   3.776   2.478   5.131  0.0942 -0.1944  0.7947
    2CHL1   C24  136   3.817   2.686   5.151  0.1671 -0.7108 -0.2910
    2CHL1  H24A  137   3.778   2.719   5.052 -2.2731  0.6007  1.0187
    2CHL1  H24B  138   3.737   2.706   5.224  0.6640 -0.2317  0.1320
    2CHL1   C25  139   3.926   2.790   5.183 -0.6483  0.0438 -0.3374
    2CHL1   H25  140   3.987   2.756   5.270  0.0785  0.4687 -0.6711
    2CHL1   C26  141   4.031   2.799   5.072  0.0295 -0.7091 -0.1383
    2CHL1  H26A  142   4.096   2.884   5.103 -3.2634  1.5734  1.1666
    2CHL1  H26B  143   4.091   2.707   5.063  0.4872 -0.4860  0.5580
    2CHL1  H26C  144   3.989   2.821   4.972  1.4803  1.1804 -0.3890
    2CHL1   C27  145   3.860   2.929   5.215  0.4171  0.2463 -0.2025
    2CHL1  H27A  146   3.946   2.997   5.231  0.6859 -0.4301  1.3862
    2CHL1  H27B  147   3.795   2.964   5.131  0.1276 -1.4071 -0.7023
    2CHL1  H27C  148   3.806   2.926   5.312 -0.0160 -3.1028 -0.4385
    3CHL1    C3  149   4.201   0.863   6.412 -0.0868 -0.6412 -0.2265
    3CHL1    H3  150   4.090   0.861   6.422 -0.1218  0.0333 -0.4678
    3CHL1    O3  151   4.250   0.860   6.548 -0.2172 -0.2285  0.2978
    3CHL1   H3'  152   4.340   0.828   6.546  0.3681  1.3187 -0.5038
    3CHL1    C4  153   4.240   0.750   6.316 -0.2918 -0.5564  0.1461
    3CHL1   H4A  154   4.350   0.749   6.301 -0.0299  1.7489  1.5237
    3CHL1   H4B  155   4.213   0.659   6.375 -0.4418 -1.0216 -0.6306
    3CHL1    C5  156   4.169   0.770   6.182 -0.2072  0.2456  0.2818
    3CHL1    C6  157   4.095   0.666   6.135 -0.0503  0.0945 -0.2501
    3CHL1    H6  158   4.110   0.573   6.191  0.9630  0.2243 -0.2873
    3CHL1    C7  159   4.035   0.662   5.999 -0.0020  0.0455 -0.3336
    3CHL1   H7A  160   4.044   0.559   5.958 -2.9301 -1.2191  1.8383
    3CHL1   H7B  161   3.924   0.658   6.008 -0.0188  0.0761 -0.5146
    3CHL1    C8  162   4.076   0.776   5.914 -0.4584 -0.3301  0.1541
    3CHL1    H8  163   4.171   0.741   5.867 -1.2835  0.5373 -2.3131
    3CHL1   C14  164   3.977   0.794   5.798  0.3566 -0.2090 -0.1348
    3CHL1   H14  165   3.881   0.818   5.850 -0.2476 -1.7891 -0.4461
    3CHL1   C15  166   3.948   0.669   5.702  0.3495  0.2552 -0.1428
    3CHL1  H15A  167   4.045   0.619   5.680  0.4576  1.6206 -3.2572
    3CHL1  H15B  168   3.877   0.594   5.743 -1.9481  1.2699 -2.0428
    3CHL1   C16  169   3.901   0.735   5.579  0.6489  0.0933 -0.8153
    3CHL1  H16A  170   3.955   0.691   5.492 -2.0194 -1.3435 -1.8684
    3CHL1  H16B  171   3.793   0.706   5.573  0.4774  0.5103  0.1660
    3CHL1   C17  172   3.912   0.892   5.595  0.7779  0.1417 -0.0858
    3CHL1   H17  173   3.811   0.927   5.628  0.1787 -1.1299 -0.5217
    3CHL1   C13  174   4.022   0.910   5.707  0.6346  0.0540  0.3044
    3CHL1   C18  175   4.168   0.880   5.647 -0.3111  0.6362  0.1109
    3CHL1  H18A  176   4.193   0.966   5.580  2.1731  0.4754  0.7347
    3CHL1  H18B  177   4.245   0.881   5.727 -1.1445  3.2092  0.9857
    3CHL1  H18C  178   4.169   0.787   5.587  1.6221  0.9188 -0.3804
    3CHL1   C12  179   4.006   1.046   5.790  0.1200 -0.0863 -0.0283
    3CHL1  H12A  180   4.032   1.134   5.727 -1.2931  0.2866 -0.1299
    3CHL1  H12B  181   3.899   1.060   5.816  0.0403 -1.4463  0.4383
    3CHL1   C11  182   4.112   1.040   5.905  0.5883 -0.2190 -0.6625
    3CHL1  H11A  183   4.217   1.053   5.872  0.8669 -1.1875 -0.2105
    3CHL1  H11B  184   4.093   1.129   5.968 -0.9987  0.2008 -1.6903
    3CHL1    C9  185   4.092   0.908   5.988 -0.3286 -0.7883 -0.5326
    3CHL1    H9  186   3.998   0.905   6.048  0.9933 -2.2923  1.5950
    3CHL1   C10  187   4.194   0.902   6.105 -0.5095 -0.1691 -0.0171
    3CHL1   C19  188   4.337   0.910   6.045  0.7518 -0.2890  0.3303
    3CHL1  H19A  189   4.363   1.016   6.020  2.0385 -0.8823 -1.0276
    3CHL1  H19B  190   4.414   0.867   6.112  2.5067 -0.1429 -1.4933
    3CHL1  H19C  191   4.326   0.845   5.956 -0.8826 -0.0880  0.3612
    3CHL1    C1  192   4.164   1.020   6.205 -0.2545 -1.0750  0.1377
    3CHL1   H1A  193   4.218   1.105   6.158  1.2695 -1.7285  0.6251
    3CHL1   H1B  194   4.058   1.044   6.227  0.0933  1.5503 -0.7571
    3CHL1    C2  195   4.230   0.997   6.342 -0.5077  0.1537 -0.7703
    3CHL1   H2A  196   4.207   1.080   6.412 -1.3718 -1.4404  0.9338
    3CHL1   H2B  197   4.338   0.996   6.319  0.0575  2.5609  1.3827
    3CHL1   C20  198   3.930   0.948   5.453 -0.4321 -0.1561  0.5763
    3CHL1   H20  199   4.033   0.923   5.418  0.0191  1.2728  0.8085
    3CHL1   C21  200   3.917   1.105   5.460 -0.3676 -0.1585 -0.2827
    3CHL1  H21A  201   3.986   1.140   5.540 -1.5640  0.5016  0.4841
    3CHL1  H21B  202   3.821   1.144   5.499  0.2535  1.9846 -0.7347
    3CHL1  H21C  203   3.945   1.162   5.368  1.6696 -0.0039  0.3869
    3CHL1   C22  204   3.829   0.889   5.354  1.0324  0.2062 -0.0670
    3CHL1  H22A  205   3.855   0.781   5.344  0.8037  0.0330  1.0618
    3CHL1  H22B  206   3.723   0.910   5.379  1.3291  2.5752 -0.5969
    3CHL1   C23  207   3.854   0.947   5.211 -0.4067  0.4617  0.0020
    3CHL1  H23A  208   3.839   1.057   5.215  0.7712  0.6488 -0.4242
    3CHL1  H23B  209   3.957   0.918   5.181 -1.3502 -1.4546 -1.6583
    3CHL1   C24  210   3.750   0.886   5.124  0.1874 -0.6019 -0.1156
    3CHL1  H24A  211   3.711   0.787   5.157 -1.4909  0.2413  0.5972
    3CHL1  H24B  212   3.656   0.945   5.131 -0.0445 -1.0234  0.4261
    3CHL1   C25  213   3.786   0.860   4.977  0.7273 -0.2157  0.3554
    3CHL1   H25  214   3.697   0.816   4.926  0.7217  1.9088 -1.6273
    3CHL1   C26  215   3.815   0.995   4.903  0.5642  0.4354  0.3588
    3CHL1  H26A  216   3.856   0.974   4.801 -1.0727 -2.6526  0.1871
    3CHL1  H26B  217   3.727   1.061   4.887  0.8634  0.9480  0.8250
    3CHL1  H26C  218   3.892   1.050   4.960  1.0934 -0.7144  0.7976
    3CHL1   C27  219   3.901   0.753   4.968 -0.0288 -0.1269  0.5221
    3CHL1  H27A  220   3.862   0.662   5.019  2.4178 -1.3565  0.3570
    3CHL1  H27B  221   3.936   0.722   4.867  1.2496  0.7707  0.6682
    3CHL1  H27C  222   3.992   0.775   5.028 -0.8521  0.6980  1.5036
    4CHL1    C3  223   0.510   0.096   6.591 -1.5967  0.6189  0.2497
    4CHL1    H3  224   0.405   0.066   6.612 -0.7346 -0.5788  3.5319
    4CHL1    O3  225   0.585   0.084   6.711  0.0271 -0.0167  0.0856
    4CHL1   H3'  226   0.624   0.170   6.729  1.3208 -0.3182 -1.0974
    4CHL1    C4  227   0.560  -0.012   6.497  0.1046  0.2166 -0.1384
    4CHL1   H4A  228   0.670   0.006   6.495  0.6538 -2.7096 -0.8357
    4CHL1   H4B  229   0.550  -0.110   6.550 -1.1503  0.6348  0.4238
    4CHL1    C5  230   0.502  -0.005   6.358 -0.7343  0.1167  0.5151
    4CHL1    C6  231   0.444  -0.110   6.302 -0.4760 -0.2811  0.2395
    4CHL1    H6  232   0.449  -0.202   6.362 -1.1482 -0.8518 -0.5687
    4CHL1    C7  233   0.379  -0.118   6.167 -0.6495 -0.2775  0.4771
    4CHL1   H7A  234   0.407  -0.208   6.108  0.8476  2.3975 -3.2265
    4CHL1   H7B  235   0.272  -0.130   6.196 -0.1141 -2.2502  1.9337
    4CHL1    C8  236   0.418   0.008   6.084 -0.0842  0.6590 -1.2827
    4CHL1    H8  237   0.520  -0.003   6.042 -0.2976  0.8656 -1.8687
    4CHL1   C14  238   0.326   0.031   5.965 -0.2704  0.0794 -0.1077
    4CHL1   H14  239   0.227   0.048   6.013  0.5870  0.4311  1.5813
    4CHL1   C15  240   0.317  -0.090   5.873  0.1142 -0.8189 -0.3879
    4CHL1  H15A  241   0.417  -0.127   5.841  2.1178  1.4384  2.6488
    4CHL1  H15B  242   0.265  -0.176   5.922  1.8172 -2.2300 -0.9382
    4CHL1   C16  243   0.256  -0.033   5.741  1.0266  0.2641  0.1260
    4CHL1  H16A  244   0.320  -0.070   5.658  1.0324  0.6498 -0.0449
    4CHL1  H16B  245   0.149  -0.060   5.735  1.1622 -0.7085  1.5341
    4CHL1   C17  246   0.266   0.120   5.762 -0.0351  0.1316 -0.4495
    4CHL1   H17  247   0.169   0.157   5.802 -0.9475 -1.6397 -0.9511
    4CHL1   C13  248   0.368   0.147   5.880  0.3713  0.0694 -0.1562
    4CHL1   C18  249   0.508   0.129   5.813 -0.3624 -0.0429 -0.2012
    4CHL1  H18A  250   0.586   0.105   5.887 -0.3965  0.4757  0.0078
    4CHL1  H18B  251   0.506   0.055   5.730  0.6687  1.0192 -1.2150
    4CHL1  H18C  252   0.530   0.223   5.758  0.9375  0.5443  1.2448
    4CHL1   C12  253   0.350   0.267   5.965  0.1707  0.3908 -0.2679
    4CHL1  H12A  254   0.350   0.365   5.912 -2.1112  0.8180  0.4031
    4CHL1  H12B  255   0.253   0.274   6.018  0.6041  1.0163  0.4546
    4CHL1   C11  256   0.444   0.261   6.081  0.2502 -0.5585  0.3155
    4CHL1  H11A  257   0.551   0.270   6.054  0.4462  0.4617  1.3704
    4CHL1  H11B  258   0.415   0.344   6.148 -0.4802  1.0937 -1.9451
    4CHL1    C9  259   0.412   0.133   6.170 -0.5798  0.3631  0.6866
    4CHL1    H9  260   0.307   0.152   6.199 -0.4144  1.7833  0.4528
    4CHL1   C10  261   0.502   0.124   6.297 -0.5324 -0.8780  0.5967
    4CHL1   C19  262   0.642   0.170   6.258  0.5754 -0.0690  0.3144
    4CHL1  H19A  263   0.717   0.157   6.339 -0.0516 -2.8636  0.5445
    4CHL1  H19B  264   0.679   0.105   6.176 -1.3110  0.2444 -0.8396
    4CHL1  H19C  265   0.645   0.279   6.237  1.0970  0.1350  1.3611
    4CHL1    C1  266   0.450   0.230   6.401  0.2234 -0.1074  0.1249
    4CHL1   H1A  267   0.448   0.335   6.366  1.5304  0.5075  1.7536
    4CHL1   H1B  268   0.347   0.191   6.417  0.2410  0.1592  0.9546
    4CHL1    C2  269   0.519   0.232   6.535  0.2991 -0.6206  0.7915
    4CHL1   H2A  270   0.467   0.307   6.599  0.8061  1.2857 -0.9167
    4CHL1   H2B  271   0.627   0.258   6.531 -0.2924  2.0171 -0.2461
    4CHL1   C20  272   0.273   0.195   5.630  0.4952 -0.3972  0.9155
    4CHL1   H20  273   0.374   0.173   5.588  0.7202  1.6965  0.2054
    4CHL1   C21  274   0.267   0.346   5.652  0.1361  0.5247  0.5707
    4CHL1  H21A  275   0.196   0.367   5.735 -0.0180 -0.5749  0.7310
    4CHL1  H21B  276   0.252   0.398   5.555 -0.0349  0.9069  0.7981
    4CHL1  H21C  277   0.364   0.384   5.691 -0.1138  1.3428  0.4134
    4CHL1   C22  278   0.161   0.163   5.531  0.2005 -0.4119  0.0859
    4CHL1  H22A  279   0.164   0.052   5.518 -0.1964 -0.3730 -0.3385
    4CHL1  H22B  280   0.064   0.177   5.582 -0.8145 -3.0756 -0.9436
    4CHL1   C23  281   0.166   0.231   5.389  0.3815  0.0240  0.1476
    4CHL1  H23A  282   0.153   0.341   5.399  1.8543  0.2854 -0.4926
    4CHL1  H23B  283   0.271   0.224   5.351  0.0865  0.9420 -0.8910
    4CHL1   C24  284   0.068   0.168   5.287 -0.0238 -0.2576  0.8276
    4CHL1  H24A  285   0.063   0.058   5.293  1.3536 -0.4950 -1.3698
    4CHL1  H24B  286  -0.035   0.204   5.311 -0.3253  0.7227 -1.6083
    4CHL1   C25  287   0.110   0.199   5.143 -0.0071  0.1910 -0.3758
    4CHL1   H25  288   0.205   0.150   5.113  0.2290  1.3732 -1.6962
    4CHL1   C26  289   0.005   0.147   5.041 -0.0064 -0.1475  0.2131
    4CHL1  H26A  290  -0.092   0.189   5.077 -1.3305 -1.1145 -1.9918
    4CHL1  H26B  291   0.028   0.203   4.948  0.9123  0.9001  1.0483
    4CHL1  H26C  292   0.012   0.037   5.033 -0.8433 -0.1061 -1.6338
    4CHL1   C27  293   0.124   0.350   5.120  0.1160 -0.7898 -0.8124
    4CHL1  H27A  294   0.031   0.391   5.165  0.2161 -2.3584  0.9392
    4CHL1  H27B  295   0.213   0.391   5.172 -0.6959  0.9297 -0.6977
    4CHL1  H27C  296   0.119   0.378   5.013 -1.8621  1.2400 -0.2615
    5CHL1    C3  297   4.291   3.522   6.673  0.3868 -0.3498  0.2848
    5CHL1    H3  298   4.283   3.415   6.644 -0.5728 -0.0965 -0.4356
    5CHL1    O3  299   4.271   3.517   6.809 -0.7743  0.0656  0.1403
    5CHL1   H3'  300   4.275   3.610   6.834 -0.5823  0.6678 -1.9598
    5CHL1    C4  301   4.426   3.577   6.633 -0.6619  0.2170 -0.0217
    5CHL1   H4A  302   4.445   3.678   6.674 -2.3817  0.0166  1.3688
    5CHL1   H4B  303   4.508   3.515   6.673 -1.2606 -0.0142  0.8624
    5CHL1    C5  304   4.436   3.582   6.484 -1.1951  0.4850 -0.1256
    5CHL1    C6  305   4.539   3.518   6.416  0.1271  0.1377 -0.2656
    5CHL1    H6  306   4.611   3.462   6.477  1.0058  1.0426 -0.4425
    5CHL1    C7  307   4.560   3.534   6.271 -0.5706  0.3746  1.1904
    5CHL1   H7A  308   4.665   3.569   6.261  0.4240 -2.9535 -2.7010
    5CHL1   H7B  309   4.552   3.442   6.208 -2.6510  0.6858  0.9547
    5CHL1    C8  310   4.471   3.645   6.209  0.1653 -0.1063  0.1456
    5CHL1    H8  311   4.507   3.746   6.237 -0.1322  0.1223 -0.2845
    5CHL1   C14  312   4.468   3.629   6.059 -0.7579  0.0213  0.5760
    5CHL1   H14  313   4.425   3.529   6.037  0.7942 -0.6441  0.4366
    5CHL1   C15  314   4.605   3.633   5.993  0.7439  0.4265  1.0626
    5CHL1  H15A  315   4.661   3.722   6.028  0.3677  0.6419  1.1269
    5CHL1  H15B  316   4.663   3.542   6.017  2.2400  0.2810 -2.4767
    5CHL1   C16  317   4.574   3.655   5.842  0.3374 -0.2850 -0.1797
    5CHL1  H16A  318   4.632   3.740   5.800 -0.6417  1.1316  1.2098
    5CHL1  H16B  319   4.598   3.565   5.782  2.2069  0.4265 -0.5862
    5CHL1   C17  320   4.417   3.672   5.835  0.2506 -0.3435  0.3151
    5CHL1   H17  321   4.361   3.575   5.832 -2.3144  1.0489 -3.5985
    5CHL1   C13  322   4.380   3.725   5.975 -0.0775  0.8804 -0.8978
    5CHL1   C18  323   4.428   3.875   5.990 -0.2620  0.8820 -0.1026
    5CHL1  H18A  324   4.529   3.891   5.948 -0.5531 -0.3440 -1.3808
    5CHL1  H18B  325   4.355   3.949   5.951  0.4223  1.8029  0.3450
    5CHL1  H18C  326   4.441   3.893   6.099 -0.0788  2.2570 -0.3400
    5CHL1   C12  327   4.237   3.704   6.026  0.8123  0.8168 -0.6309
    5CHL1  H12A  328   4.166   3.774   5.978 -1.1496  0.1516  1.1283
    5CHL1  H12B  329   4.212   3.598   6.000  1.4632  0.4445  0.2200
    5CHL1   C11  330   4.234   3.723   6.180 -0.4300  0.0409 -0.3796
    5CHL1  H11A  331   4.263   3.829   6.194  0.8561 -0.2721 -0.6145
    5CHL1  H11B  332   4.134   3.707   6.227  0.4764  1.4270  2.2390
    5CHL1    C9  333   4.331   3.638   6.264 -0.1938 -0.4070  0.2006
    5CHL1    H9  334   4.299   3.532   6.250  0.3878 -0.7984  1.6240
    5CHL1   C10  335   4.326   3.661   6.409 -0.0905  0.0816  0.3410
    5CHL1   C19  336   4.331   3.814   6.444  0.5517 -0.0548  0.4392
    5CHL1  H19A  337   4.242   3.865   6.401  0.1047  0.0232  1.4244
    5CHL1  H19B  338   4.327   3.845   6.551  1.5453  4.8008 -0.6924
    5CHL1  H19C  339   4.422   3.856   6.397 -0.9957  0.6369 -2.1217
    5CHL1    C1  340   4.184   3.605   6.462  0.4468 -0.2465  0.3516
    5CHL1   H1A  341   4.105   3.675   6.428  1.0597 -0.7467 -2.3907
    5CHL1   H1B  342   4.153   3.510   6.413 -1.5709  0.6240 -0.1660
    5CHL1    C2  343   4.177   3.593   6.610  0.4943 -0.6864 -0.1783
    5CHL1   H2A  344   4.076   3.547   6.622  0.5216 -0.8671 -0.6436
    5CHL1   H2B  345   4.173   3.692   6.659  1.3581 -0.4382 -0.6022
    5CHL1   C20  346   4.369   3.752   5.705 -0.9270 -0.5187  0.9103
    5CHL1   H20  347   4.417   3.852   5.708  0.2319 -0.9178 -1.6484
    5CHL1   C21  348   4.216   3.770   5.701  0.3639  0.6355 -0.6104
    5CHL1  H21A  349   4.177   3.808   5.604 -3.7950 -0.3502  0.5094
    5CHL1  H21B  350   4.191   3.857   5.765 -4.0321  0.3090 -1.5713
    5CHL1  H21C  351   4.162   3.677   5.729 -2.2288  2.1082 -0.4493
    5CHL1   C22  352   4.417   3.675   5.579  0.2178 -0.5217 -0.4495
    5CHL1  H22A  353   4.518   3.632   5.596  0.2718  0.2888  1.5074
    5CHL1  H22B  354   4.336   3.601   5.559 -0.2874  0.3022 -1.5304
    5CHL1   C23  355   4.422   3.759   5.444 -0.3816 -0.6395 -0.1594
    5CHL1  H23A  356   4.326   3.811   5.426 -0.0414 -1.0724 -4.3103
    5CHL1  H23B  357   4.503   3.831   5.471 -0.4737 -0.5301 -0.1769
    5CHL1   C24  358   4.446   3.666   5.323 -0.3292  0.5095  0.4394
    5CHL1  H24A  359   4.554   3.643   5.323 -0.5585 -0.6259  1.4176
    5CHL1  H24B  360   4.379   3.578   5.325  0.8757 -0.6744 -3.1724
    5CHL1   C25  361   4.437   3.736   5.189 -0.2173  0.6648 -0.1229
    5CHL1   H25  362   4.336   3.782   5.185 -1.8839 -2.3224  2.5643
    5CHL1   C26  363   4.540   3.846   5.180 -0.0282  0.2380  0.8398
    5CHL1  H26A  364   4.642   3.805   5.195  0.2896  0.2810 -0.9854
    5CHL1  H26B  365   4.544   3.879   5.074 -0.0713  0.2102  0.8296
    5CHL1  H26C  366   4.515   3.931   5.248 -2.8620  0.6827 -0.6027
    5CHL1   C27  367   4.453   3.641   5.066  0.4466 -0.8941 -0.1525
    5CHL1  H27A  368   4.443   3.706   4.976 -0.2105  0.6840  1.0223
    5CHL1  H27B  369   4.552   3.590   5.067  0.7447 -0.3333  1.7211
    5CHL1  H27C  370   4.371   3.567   5.074  0.7121 -1.2719 -0.8077
    6CHL1    C3  371   2.011   0.136   6.671 -0.0768  0.3657 -0.8071
    6CHL1    H3  372   2.070   0.228   6.651  0.3547  0.7671  1.9577
    6CHL1    O3  373   2.019   0.100   6.809 -0.3370  0.7233  0.8735
    6CHL1   H3'  374   1.931   0.064   6.823 -0.1150 -1.2833 -1.8922
    6CHL1    C4  375   1.864   0.155   6.634  0.6082  0.3285  0.6332
    6CHL1   H4A  376   1.805   0.076   6.685  1.7642  1.0270  3.2778
    6CHL1   H4B  377   1.851   0.247   6.695  0.5300  0.8478 -0.1490
    6CHL1    C5  378   1.838   0.156   6.489 -0.2769 -0.1318  0.2365
    6CHL1    C6  379   1.767   0.250   6.429 -0.7064 -0.0343 -0.3798
    6CHL1    H6  380   1.731   0.335   6.488 -0.4543  0.3424 -0.7603
    6CHL1    C7  381   1.725   0.263   6.281 -0.2733  0.3058  0.1164
    6CHL1   H7A  382   1.618   0.288   6.271 -1.7279 -5.0061 -0.3542
    6CHL1   H7B  383   1.776   0.345   6.225 -0.6226  1.0844  0.9058
    6CHL1    C8  384   1.764   0.133   6.203 -0.1211  0.4810 -0.0312
    6CHL1    H8  385   1.685   0.057   6.223  0.5668 -1.4307 -3.8469
    6CHL1   C14  386   1.764   0.159   6.054 -0.8797  0.3046 -0.1489
    6CHL1   H14  387   1.849   0.230   6.040 -0.8072  0.7284  1.9717
    6CHL1   C15  388   1.639   0.222   5.982  0.1658 -0.5744  0.6745
    6CHL1  H15A  389   1.541   0.184   6.018 -1.0303 -0.6865 -2.3977
    6CHL1  H15B  390   1.641   0.333   5.987  3.3385 -0.4819 -0.4139
    6CHL1   C16  391   1.650   0.179   5.838 -0.1423  0.4025 -0.2262
    6CHL1  H16A  392   1.559   0.120   5.813 -0.8949 -0.4206  3.8368
    6CHL1  H16B  393   1.647   0.271   5.774  3.6275  0.7575 -0.0795
    6CHL1   C17  394   1.774   0.081   5.829  0.1447 -1.0042  0.0692
    6CHL1   H17  395   1.861   0.148   5.811 -0.9664  0.4143 -0.2076
    6CHL1   C13  396   1.790   0.030   5.976  0.2979  0.1871 -0.3908
    6CHL1   C18  397   1.684  -0.079   6.002  0.0324  0.1739  0.2557
    6CHL1  H18A  398   1.584  -0.044   5.970 -0.6948 -1.1070  1.0145
    6CHL1  H18B  399   1.715  -0.171   5.948 -1.5139 -0.9231  1.1519
    6CHL1  H18C  400   1.669  -0.111   6.108 -1.1343 -0.4414 -0.0820
    6CHL1   C12  401   1.929  -0.023   6.009 -0.1109  0.0502 -0.5238
    6CHL1  H12A  402   1.949  -0.122   5.964 -0.4494 -2.2932  3.8919
    6CHL1  H12B  403   2.002   0.057   5.986  0.3969  0.0923  1.0951
    6CHL1   C11  404   1.943  -0.048   6.163  0.9888 -0.1802  0.1961
    6CHL1  H11A  405   1.884  -0.137   6.191  1.1876 -0.0294  1.1264
    6CHL1  H11B  406   2.052  -0.059   6.182  1.3789  2.5460  0.0165
    6CHL1    C9  407   1.897   0.076   6.257 -0.3893 -0.4923  0.5855
    6CHL1    H9  408   1.972   0.157   6.240 -2.3823  1.3446  0.1976
    6CHL1   C10  409   1.901   0.042   6.407 -0.1255  0.3657 -0.1697
    6CHL1   C19  410   1.821  -0.091   6.432 -0.0039  0.0393  0.2076
    6CHL1  H19A  411   1.864  -0.184   6.389 -0.2636  0.2629 -0.5599
    6CHL1  H19B  412   1.825  -0.097   6.543 -0.5535 -0.4548  0.2006
    6CHL1  H19C  413   1.716  -0.060   6.415  0.2299  0.6359 -0.2080
    6CHL1    C1  414   2.049   0.024   6.445 -0.1871 -0.0435 -0.7207
    6CHL1   H1A  415   2.085  -0.073   6.403  2.4062 -0.1587  1.5201
    6CHL1   H1B  416   2.114   0.107   6.412 -0.4427 -0.2563 -1.8178
    6CHL1    C2  417   2.074   0.015   6.600  0.4682 -0.1600 -0.4603
    6CHL1   H2A  418   2.183   0.026   6.619  0.0068  1.1265  1.7015
    6CHL1   H2B  419   2.027  -0.076   6.642 -0.5356  0.2199 -0.7170
    6CHL1   C20  420   1.758  -0.023   5.720 -0.4719 -0.3227  0.7399
    6CHL1   H20  421   1.673  -0.093   5.734  0.1092 -1.0329  0.8049
    6CHL1   C21  422   1.882  -0.112   5.710  0.2455 -0.2641 -0.0670
    6CHL1  H21A  423   1.886  -0.202   5.775  2.3509 -1.5607 -1.8369
    6CHL1  H21B  424   1.982  -0.067   5.727  1.1462 -2.5025  0.8457
    6CHL1  H21C  425   1.895  -0.161   5.611 -0.2528 -0.5141 -0.0105
    6CHL1   C22  426   1.746   0.060   5.583 -0.1655 -0.3884 -0.4731
    6CHL1  H22A  427   1.644   0.104   5.587 -0.0219  0.0881 -1.6051
    6CHL1  H22B  428   1.836   0.122   5.566 -1.6193  1.7584 -0.7324
    6CHL1   C23  429   1.733  -0.009   5.449  0.4466  0.2635  0.3045
    6CHL1  H23A  430   1.816  -0.082   5.440  1.0576  0.7227  1.8933
    6CHL1  H23B  431   1.634  -0.059   5.438  0.4049  0.7971 -2.9495
    6CHL1   C24  432   1.749   0.093   5.338  0.0326 -0.0354  0.3593
    6CHL1  H24A  433   1.695   0.189   5.354 -1.0327 -0.5461 -0.1051
    6CHL1  H24B  434   1.857   0.121   5.344  0.3486 -1.0883 -0.2081
    6CHL1   C25  435   1.722   0.045   5.194 -0.4629  0.5496  0.4688
    6CHL1   H25  436   1.764   0.126   5.130  0.8685 -0.9828 -0.7017
    6CHL1   C26  437   1.804  -0.083   5.183  0.4455 -0.7168  0.8807
    6CHL1  H26A  438   1.757  -0.171   5.233  0.3251 -0.9423  0.3829
    6CHL1  H26B  439   1.813  -0.108   5.075 -2.6951 -0.0326  0.3414
    6CHL1  H26C  440   1.903  -0.063   5.229  0.1345  2.1894  0.4911
    6CHL1   C27  441   1.580   0.019   5.162  1.0221  0.7600 -0.0025
    6CHL1  H27A  442   1.524   0.115   5.168 -1.8422 -0.7060 -1.1847
    6CHL1  H27B  443   1.566  -0.014   5.057 -1.0135  1.0958  0.1140
    6CHL1  H27C  444   1.534  -0.052   5.235 -0.5808  1.6259 -0.1181
    7CHL1    C3  445   4.103   1.820   6.398 -0.1684  0.4073  0.8197
    7CHL1    H3  446   4.109   1.716   6.359  1.4633  1.0312 -0.7731
    7CHL1    O3  447   4.116   1.827   6.545 -0.2997  0.1981  0.1779
    7CHL1   H3'  448   4.141   1.918   6.559  2.5236 -0.6560  1.2860
    7CHL1    C4  449   4.228   1.894   6.339  0.6189  0.1224  0.5205
    7CHL1   H4A  450   4.232   1.996   6.382  0.1321  0.1047  0.6053
    7CHL1   H4B  451   4.315   1.841   6.384  0.7670  1.7570  2.2532
    7CHL1    C5  452   4.225   1.902   6.192 -0.1339  0.3073 -0.6205
    7CHL1    C6  453   4.328   1.853   6.114  0.4480  0.3419 -0.5225
    7CHL1    H6  454   4.415   1.808   6.163  0.0240 -0.4546 -0.4920
    7CHL1    C7  455   4.327   1.840   5.967  0.0204  0.2339 -0.7930
    7CHL1   H7A  456   4.425   1.852   5.918  0.9969 -0.8983  0.7900
    7CHL1   H7B  457   4.305   1.732   5.950  0.2976  0.0692 -0.1480
    7CHL1    C8  458   4.220   1.929   5.908 -0.0257  0.0580 -0.2880
    7CHL1    H8  459   4.265   2.030   5.919  1.7664 -0.7193 -0.0714
    7CHL1   C14  460   4.195   1.894   5.756  0.1917 -0.1837 -0.2101
    7CHL1   H14  461   4.163   1.788   5.755 -0.3769 -0.0219 -0.1559
    7CHL1   C15  462   4.314   1.901   5.654  0.1474  0.2660 -0.1542
    7CHL1  H15A  463   4.375   1.992   5.672 -1.2168  1.2797 -0.5407
    7CHL1  H15B  464   4.384   1.815   5.656  0.1879  0.1876 -2.6185
    7CHL1   C16  465   4.247   1.904   5.519 -0.6764 -0.2461  0.4387
    7CHL1  H16A  466   4.288   1.987   5.457 -0.1072  1.0042  2.3937
    7CHL1  H16B  467   4.244   1.814   5.454 -2.6980  0.0484  0.0321
    7CHL1   C17  468   4.096   1.934   5.548 -0.4533  0.2297 -0.0082
    7CHL1   H17  469   4.048   1.833   5.550 -2.8943  1.3126  1.6018
    7CHL1   C13  470   4.088   1.977   5.696 -0.2148 -0.3244  0.7295
    7CHL1   C18  471   4.136   2.127   5.695  0.5229  0.2933  0.3188
    7CHL1  H18A  472   4.222   2.154   5.630 -0.6781  3.3939 -0.1410
    7CHL1  H18B  473   4.051   2.182   5.650  1.1811  0.4637 -0.7360
    7CHL1  H18C  474   4.156   2.170   5.796 -1.4720 -1.3589  1.4884
    7CHL1   C12  475   3.953   1.951   5.764  0.6326  0.5385 -0.1603
    7CHL1  H12A  476   3.886   2.029   5.723  1.8516  1.0029 -1.3446
    7CHL1  H12B  477   3.919   1.846   5.758  0.4265  0.5920  0.0528
    7CHL1   C11  478   3.966   1.974   5.913  0.8338 -0.7417  0.6979
    7CHL1  H11A  479   3.962   2.085   5.922  0.9927 -0.4893 -1.8205
    7CHL1  H11B  480   3.869   1.941   5.956 -1.6275  1.9347 -2.3451
    7CHL1    C9  481   4.085   1.906   5.982 -0.0376 -0.3051  0.3874
    7CHL1    H9  482   4.072   1.796   5.975  0.6645 -0.3488 -0.4469
    7CHL1   C10  483   4.091   1.953   6.130 -0.9660  0.7320 -0.8344
    7CHL1   C19  484   4.081   2.111   6.141 -0.4022  0.3877 -0.5339
    7CHL1  H19A  485   4.168   2.162   6.096 -0.8066  2.9486  1.2962
    7CHL1  H19B  486   3.985   2.156   6.106 -1.1550  1.9408  3.0398
    7CHL1  H19C  487   4.077   2.134   6.250 -3.4519 -1.5833 -0.1132
    7CHL1    C1  488   3.968   1.889   6.203  0.3348  0.0535 -0.8160
    7CHL1   H1A  489   3.876   1.944   6.173 -0.7663 -0.1436  1.9419
    7CHL1   H1B  490   3.961   1.780   6.182  0.8434 -0.3343  0.8846
    7CHL1    C2  491   3.973   1.899   6.357 -0.3811 -0.1448  0.5157
    7CHL1   H2A  492   3.881   1.858   6.404  0.4294 -1.0283  1.3746
    7CHL1   H2B  493   3.984   2.006   6.384 -0.3512 -0.4752  1.9242
    7CHL1   C20  494   4.039   2.025   5.432  0.2704  0.0443  0.4074
    7CHL1   H20  495   4.078   2.127   5.450  1.6257 -0.5504  0.9927
    7CHL1   C21  496   3.887   2.027   5.453  0.0244  1.3075  0.7159
    7CHL1  H21A  497   3.851   1.923   5.470  2.0281  0.3128 -0.6384
    7CHL1  H21B  498   3.842   2.063   5.358  0.1049  0.3496  0.3006
    7CHL1  H21C  499   3.859   2.094   5.536 -1.0185  0.6073  0.9406
    7CHL1   C22  500   4.071   1.994   5.285  1.3915 -0.1761  0.0570
    7CHL1  H22A  501   4.178   1.976   5.262  0.8616 -0.8217 -2.1698
    7CHL1  H22B  502   4.026   1.895   5.262 -1.0386  0.1295  2.8204
    7CHL1   C23  503   4.023   2.096   5.171 -0.6378  0.3349 -0.7929
    7CHL1  H23A  504   3.912   2.107   5.173 -0.5532  1.1433  0.8825
    7CHL1  H23B  505   4.071   2.195   5.187  0.2177 -0.0669 -0.8573
    7CHL1   C24  506   4.056   2.037   5.033 -0.1243 -0.8528 -0.4060
    7CHL1  H24A  507   4.165   2.017   5.022 -0.6771 -2.8441 -3.4538
    7CHL1  H24B  508   3.991   1.948   5.028  0.9173 -1.9751  3.0744
    7CHL1   C25  509   4.035   2.136   4.915 -0.1162 -0.2831  0.2498
    7CHL1   H25  510   4.078   2.231   4.954 -0.1538 -0.3339  0.4146
    7CHL1   C26  511   4.109   2.088   4.789  0.5068  0.0194  0.4607
    7CHL1  H26A  512   4.109   2.162   4.706  0.3202  0.5126  0.8876
    7CHL1  H26B  513   4.209   2.060   4.830 -0.4872 -2.3694  1.4214
    7CHL1  H26C  514   4.070   1.992   4.751  0.7340  0.2141 -0.2808
    7CHL1   C27  515   3.884   2.175   4.892  0.2313  0.5731  0.0323
    7CHL1  H27A  516   3.872   2.228   4.794  0.5877  0.7977  0.1082
    7CHL1  H27B  517   3.822   2.084   4.889 -0.7746  1.1133  2.4493
    7CHL1  H27C  518   3.838   2.240   4.969  0.7014  1.8628 -0.7379
    8CHL1    C3  519   4.495   2.738   6.370 -0.1604  0.2005  0.5501
    8CHL1    H3  520   4.595   2.784   6.355  0.5195 -0.4119  2.8960
    8CHL1    O3  521   4.491   2.669   6.486  0.0536  0.1883 -0.0019
    8CHL1   H3'  522   4.430   2.597   6.468 -2.9785  2.4901  0.4320
    8CHL1    C4  523   4.401   2.860   6.382 -0.6529 -0.1870 -0.2761
    8CHL1   H4A  524   4.303   2.831   6.426  0.8284 -0.4746  3.1873
    8CHL1   H4B  525   4.436   2.931   6.460 -2.1136  0.7903 -0.4647
    8CHL1    C5  526   4.375   2.932   6.253  0.3899  0.0740  0.2492
    8CHL1    C6  527   4.400   3.064   6.228 -0.2045  0.1224  0.6562
    8CHL1    H6  528   4.440   3.119   6.314  0.5952 -4.0729  3.2138
    8CHL1    C7  529   4.366   3.137   6.098 -0.0316 -0.1276  0.2836
    8CHL1   H7A  530   4.310   3.231   6.118 -0.2304 -0.5262  1.6740
    8CHL1   H7B  531   4.455   3.165   6.038 -0.7241 -0.9017 -1.1714
    8CHL1    C8  532   4.274   3.050   6.007 -0.4662 -0.0355  0.2034
    8CHL1    H8  533   4.168   3.061   6.039  0.3172  1.1115  2.7090
    8CHL1   C14  534   4.291   3.109   5.861 -0.3078 -0.2084 -0.0144
    8CHL1   H14  535   4.398   3.092   5.836 -0.7532 -2.7305 -0.5032
    8CHL1   C15  536   4.269   3.264   5.835  0.0288  0.3690  0.0804
    8CHL1  H15A  537   4.192   3.305   5.903 -0.2146 -0.5007  0.3451
    8CHL1  H15B  538   4.366   3.310   5.865  0.4342 -0.4431  0.0568
    8CHL1   C16  539   4.242   3.275   5.684  0.2830  0.6241 -0.7326
    8CHL1  H16A  540   4.138   3.315   5.684  0.2227  0.4770 -0.1037
    8CHL1  H16B  541   4.314   3.346   5.638  2.0100  1.1806  2.5814
    8CHL1   C17  542   4.248   3.126   5.625  0.2977 -0.6394 -0.5798
    8CHL1   H17  543   4.357   3.117   5.605  0.6629 -1.7648  1.6370
    8CHL1   C13  544   4.208   3.041   5.745 -0.2556 -0.2098  0.1197
    8CHL1   C18  545   4.061   3.056   5.771  0.0513 -0.0680 -0.7375
    8CHL1  H18A  546   4.000   3.051   5.678 -1.7291 -0.0359  0.3960
    8CHL1  H18B  547   4.033   2.985   5.852  2.0734  3.0427  3.0316
    8CHL1  H18C  548   4.031   3.151   5.820 -1.1057  0.8717 -3.0829
    8CHL1   C12  549   4.260   2.897   5.750 -0.5418  0.2107 -0.3378
    8CHL1  H12A  550   4.171   2.865   5.692 -0.7688  2.6267 -1.4352
    8CHL1  H12B  551   4.352   2.897   5.687  3.1017 -0.2153  4.3392
    8CHL1   C11  552   4.267   2.832   5.888  0.3671  0.7429  0.4158
    8CHL1  H11A  553   4.162   2.806   5.913  1.2495 -0.3230  3.4921
    8CHL1  H11B  554   4.315   2.732   5.879 -0.0217  0.6834 -1.4302
    8CHL1    C9  555   4.325   2.911   6.005  0.1358  0.2343  0.4592
    8CHL1    H9  556   4.432   2.923   5.978  0.5306 -0.3464  1.7032
    8CHL1   C10  557   4.324   2.840   6.143 -0.3649  0.7303  0.2187
    8CHL1   C19  558   4.186   2.788   6.167  0.0340  0.2662  0.0773
    8CHL1  H19A  559   4.149   2.722   6.086 -2.4161  2.5844 -0.8305
    8CHL1  H19B  560   4.190   2.727   6.260  1.9538  2.4156  1.5253
    8CHL1  H19C  561   4.115   2.873   6.162 -0.0468  0.1286 -1.8998
    8CHL1    C1  562   4.422   2.717   6.136  0.1109  0.2276  0.1015
    8CHL1   H1A  563   4.388   2.643   6.060  0.2824  0.3936 -0.1381
    8CHL1   H1B  564   4.519   2.759   6.101  0.6453  0.2986  1.6076
    8CHL1    C2  565   4.451   2.636   6.266 -0.6291  0.3559  0.0312
    8CHL1   H2A  566   4.531   2.561   6.249 -1.5590 -0.3958 -1.1109
    8CHL1   H2B  567   4.358   2.583   6.294 -0.8355  0.0648 -1.1786
    8CHL1   C20  568   4.174   3.108   5.492 -0.2217 -0.1187  0.3980
    8CHL1   H20  569   4.067   3.134   5.507 -0.3268  0.4399 -1.1436
    8CHL1   C21  570   4.177   2.966   5.436  0.3585  0.3596  1.1459
    8CHL1  H21A  571   4.163   2.950   5.327  1.3286 -1.6464  1.2589
    8CHL1  H21B  572   4.104   2.901   5.489  0.4839 -0.2367  0.5963
    8CHL1  H21C  573   4.276   2.920   5.458  0.7883  0.4227 -0.5567
    8CHL1   C22  574   4.229   3.214   5.396 -0.2605 -0.2132  0.0360
    8CHL1  H22A  575   4.232   3.314   5.444  1.5713 -0.0152 -0.4123
    8CHL1  H22B  576   4.337   3.195   5.380  0.2029  0.6416  1.9395
    8CHL1   C23  577   4.162   3.232   5.258 -0.6706  1.2690  0.4865
    8CHL1  H23A  578   4.226   3.296   5.194 -0.5417  1.0247  0.3699
    8CHL1  H23B  579   4.153   3.127   5.222 -0.7398  1.6932 -0.8023
    8CHL1   C24  580   4.020   3.282   5.267  0.6316 -1.0337  0.5918
    8CHL1  H24A  581   3.953   3.193   5.258  0.2456 -0.7056  0.0884
    8CHL1  H24B  582   4.016   3.310   5.374 -1.0533  2.3931 -0.2062
    8CHL1   C25  583   3.979   3.410   5.185 -0.1462 -0.1237 -0.4238
    8CHL1   H25  584   4.017   3.390   5.082  1.5744  2.9134 -0.5074
    8CHL1   C26  585   3.827   3.419   5.181  0.0310 -0.3730 -0.0083
    8CHL1  H26A  586   3.789   3.426   5.286 -0.4734  1.3356 -0.2674
    8CHL1  H26B  587   3.789   3.512   5.134  1.6835  0.2191 -0.2221
    8CHL1  H26C  588   3.777   3.336   5.126  0.6193 -0.1132 -0.9542
    8CHL1   C27  589   4.029   3.552   5.231  0.2521  0.3467 -0.0537
    8CHL1  H27A  590   3.983   3.631   5.169  0.4044  0.4160 -0.0784
    8CHL1  H27B  591   3.993   3.574   5.334 -1.7415 -0.3634 -0.5439
    8CHL1  H27C  592   4.138   3.565   5.217  0.3260  0.7391  0.8097
    9CHL1    C3  593   3.756   1.349   6.777 -0.0636 -0.0629 -0.1353
    9CHL1    H3  594   3.759   1.454   6.813 -0.0203  0.0334 -0.4201
    9CHL1    O3  595   3.743   1.279   6.899 -0.3564  0.0126 -0.0486
    9CHL1   H3'  596   3.756   1.187   6.876  1.2201  0.1238  0.2938
    9CHL1    C4  597   3.634   1.317   6.684 -0.3485  0.8262 -0.2847
    9CHL1   H4A  598   3.622   1.206   6.682  0.2085  0.7691 -0.6757
    9CHL1   H4B  599   3.539   1.353   6.729 -0.7974 -1.2646  0.6014
    9CHL1    C5  600   3.663   1.372   6.544  0.6805 -0.0919 -0.1054
    9CHL1    C6  601   3.578   1.454   6.488 -0.0876  0.5425  0.3799
    9CHL1    H6  602   3.479   1.479   6.530  0.6581  1.4228  1.6706
    9CHL1    C7  603   3.585   1.493   6.342  0.0105 -0.0577  0.1985
    9CHL1   H7A  604   3.490   1.455   6.300  0.5822 -2.2666  0.7314
    9CHL1   H7B  605   3.589   1.603   6.330  0.8433  0.2798  2.8301
    9CHL1    C8  606   3.705   1.425   6.262 -0.0180  0.0486  0.2195
    9CHL1    H8  607   3.663   1.326   6.234  1.5838 -0.3880 -0.7554
    9CHL1   C14  608   3.751   1.501   6.137 -0.0636  0.0863 -0.7463
    9CHL1   H14  609   3.787   1.599   6.174 -3.1557  1.9828 -2.3374
    9CHL1   C15  610   3.642   1.548   6.040  0.0708  0.5607  0.5023
    9CHL1  H15A  611   3.561   1.475   6.021 -0.4636  0.8892  1.4624
    9CHL1  H15B  612   3.589   1.635   6.084 -1.5830 -0.2379  0.1753
    9CHL1   C16  613   3.725   1.587   5.911  0.4291  0.1293  0.2095
    9CHL1  H16A  614   3.676   1.541   5.823  1.0276 -0.8442  0.3629
    9CHL1  H16B  615   3.733   1.697   5.898  3.2878  0.0002  0.2809
    9CHL1   C17  616   3.867   1.525   5.928 -0.0000  0.0170 -0.3850
    9CHL1   H17  617   3.943   1.597   5.964  0.9532 -0.4154 -1.4564
    9CHL1   C13  618   3.863   1.435   6.051  0.2831 -0.1976 -0.2560
    9CHL1   C18  619   3.816   1.296   5.998 -0.1504  0.6371 -0.1516
    9CHL1  H18A  620   3.730   1.307   5.929 -0.2235 -1.0939 -0.3741
    9CHL1  H18B  621   3.906   1.248   5.953  0.2403  0.0691  1.1858
    9CHL1  H18C  622   3.789   1.230   6.083 -4.4520 -0.1077 -1.8540
    9CHL1   C12  623   3.985   1.420   6.147 -0.9358  0.4818 -0.4519
    9CHL1  H12A  624   4.067   1.364   6.098 -1.3230 -0.4344 -0.0758
    9CHL1  H12B  625   4.025   1.520   6.176 -1.2576 -0.1473  2.5220
    9CHL1   C11  626   3.952   1.344   6.276  0.5616 -0.0111 -0.4000
    9CHL1  H11A  627   3.933   1.238   6.249  0.2310 -0.2369  0.6552
    9CHL1  H11B  628   4.029   1.342   6.357 -2.2394  0.8708  2.5056
    9CHL1    C9  629   3.828   1.396   6.353 -0.7760  1.1154  0.4923
    9CHL1    H9  630   3.843   1.502   6.382 -0.3231  1.3473 -0.5590
    9CHL1   C10  631   3.796   1.325   6.486 -0.7147  0.3388  0.2707
    9CHL1   C19  632   3.790   1.173   6.460 -0.2948  0.2935 -0.5755
    9CHL1  H19A  633   3.702   1.158   6.393 -1.7089 -0.4902  1.3566
    9CHL1  H19B  634   3.883   1.138   6.411 -0.2336  1.5675 -1.4056
    9CHL1  H19C  635   3.781   1.109   6.551  1.0534 -0.1619 -0.7462
    9CHL1    C1  636   3.917   1.358   6.587  0.8573 -0.1823 -0.2303
    9CHL1   H1A  637   4.010   1.308   6.551  1.6447 -0.6551  2.2637
    9CHL1   H1B  638   3.932   1.468   6.585  0.6780 -0.1428 -2.7267
    9CHL1    C2  639   3.893   1.294   6.727 -0.1742 -0.7740 -0.3342
    9CHL1   H2A  640   3.973   1.326   6.797 -0.5308  2.7365 -1.3603
    9CHL1   H2B  641   3.881   1.185   6.707  2.1685 -0.7305 -2.4742
    9CHL1   C20  642   3.923   1.463   5.793 -0.2370 -0.1317 -0.2823
    9CHL1   H20  643   3.855   1.380   5.764 -0.6378  0.2848 -0.5535
    9CHL1   C21  644   4.068   1.419   5.798  0.2697  0.4759  0.2230
    9CHL1  H21A  645   4.079   1.364   5.894 -1.8217  1.8649  1.3504
    9CHL1  H21B  646   4.141   1.501   5.782 -0.5836  1.3717  0.7266
    9CHL1  H21C  647   4.086   1.336   5.727 -0.0998 -0.2648  0.9670
    9CHL1   C22  648   3.901   1.563   5.677  0.0636  0.3614 -0.1288
    9CHL1  H22A  649   3.796   1.591   5.653 -0.1419  0.6823  1.0816
    9CHL1  H22B  650   3.959   1.655   5.701  0.5476 -0.6576  3.0176
    9CHL1   C23  651   3.936   1.501   5.536  0.4231 -0.4148 -0.3711
    9CHL1  H23A  652   4.034   1.451   5.554  0.8088  0.5530  0.2872
    9CHL1  H23B  653   3.866   1.420   5.507  0.5434 -0.0484 -1.7982
    9CHL1   C24  654   3.953   1.594   5.411  0.3681 -0.2327  0.5756
    9CHL1  H24A  655   3.866   1.663   5.405 -1.4952 -2.5534 -3.3630
    9CHL1  H24B  656   4.048   1.649   5.421  0.0405  1.3421 -3.3893
    9CHL1   C25  657   3.958   1.517   5.281 -0.0274 -0.1583  0.3637
    9CHL1   H25  658   4.032   1.436   5.296  0.1401 -0.0960 -0.1336
    9CHL1   C26  659   3.825   1.453   5.253  0.3328 -0.0994 -0.4280
    9CHL1  H26A  660   3.801   1.386   5.338  0.6290 -1.0355 -1.0694
    9CHL1  H26B  661   3.741   1.525   5.254 -1.4795 -2.1425 -0.3111
    9CHL1  H26C  662   3.836   1.395   5.159 -1.6283 -1.9598  0.4209
    9CHL1   C27  663   4.003   1.593   5.154  0.0795 -0.2214  0.5612
    9CHL1  H27A  664   4.013   1.516   5.075  1.3582 -0.2623  0.7535
    9CHL1  H27B  665   3.937   1.675   5.118 -0.0749 -1.1373 -1.3892
    9CHL1  H27C  666   4.102   1.642   5.161  0.0489 -0.3806  2.6077
   10CHL1    C3  667   5.011   2.304   6.286  0.1630 -0.0073 -0.7209
   10CHL1    H3  668   5.073   2.395   6.295  0.5421  0.0898 -3.5314
   10CHL1    O3  669   4.939   2.296   6.411  0.0639 -0.1229  0.0350
   10CHL1   H3'  670   4.975   2.219   6.455 -1.1919 -0.8602 -0.1556
   10CHL1    C4  671   4.909   2.305   6.177 -0.2089  0.5610 -0.1023
   10CHL1   H4A  672   4.845   2.215   6.188  0.8557 -0.0060  2.1261
   10CHL1   H4B  673   4.843   2.392   6.196 -0.0218  0.6470  0.1626
   10CHL1    C5  674   4.978   2.313   6.043 -0.5503  0.8121 -0.5989
   10CHL1    C6  675   4.965   2.418   5.966 -0.7007 -0.1582  0.2614
   10CHL1    H6  676   4.887   2.492   5.988 -0.0937  0.3294  0.7868
   10CHL1    C7  677   5.019   2.429   5.827 -0.5637  0.3502  0.2677
   10CHL1   H7A  678   4.937   2.452   5.755  0.0777 -1.9962 -1.3551
   10CHL1   H7B  679   5.094   2.511   5.823  0.2801 -0.4356 -0.4535
   10CHL1    C8  680   5.099   2.302   5.781  0.9670  0.5047  0.0277
   10CHL1    H8  681   5.013   2.238   5.750  0.5992  0.8461  0.3289
   10CHL1   C14  682   5.191   2.324   5.660 -0.6733  0.2576 -0.3790
   10CHL1   H14  683   5.278   2.382   5.699  0.0482 -0.7746 -0.3958
   10CHL1   C15  684   5.150   2.412   5.545  0.1527  0.1470  0.3690
   10CHL1  H15A  685   5.045   2.405   5.510  0.8230 -0.1514 -1.7397
   10CHL1  H15B  686   5.168   2.520   5.565  1.9569 -0.5226  2.8988
   10CHL1   C16  687   5.243   2.362   5.426  0.3709  0.4149 -0.2067
   10CHL1  H16A  688   5.176   2.308   5.355  3.0800 -1.5397 -1.4324
   10CHL1  H16B  689   5.293   2.444   5.370  0.5673  0.9784  0.7714
   10CHL1   C17  690   5.344   2.261   5.490 -0.2105 -0.5185 -0.9950
   10CHL1   H17  691   5.416   2.317   5.553 -1.9315  1.5487 -0.7674
   10CHL1   C13  692   5.267   2.195   5.607 -0.1529  0.1779 -0.1661
   10CHL1   C18  693   5.166   2.096   5.547 -0.4856  0.6613 -0.1907
   10CHL1  H18A  694   5.101   2.059   5.629  1.4140  1.6196  1.8593
   10CHL1  H18B  695   5.091   2.136   5.476 -1.8065  0.4909  1.0671
   10CHL1  H18C  696   5.216   2.016   5.489 -2.8008 -1.1189  0.1139
   10CHL1   C12  697   5.352   2.139   5.726  0.5901  0.4062 -0.1620
   10CHL1  H12A  698   5.399   2.051   5.677 -0.6962 -0.7099  0.5313
   10CHL1  H12B  699   5.427   2.214   5.758  1.1071 -0.4297  0.6166
   10CHL1   C11  700   5.253   2.100   5.840  0.5261  0.7433 -0.6470
   10CHL1  H11A  701   5.194   2.014   5.801  0.1589  1.5102 -1.8481
   10CHL1  H11B  702   5.307   2.056   5.926 -0.1354  0.0731 -0.5624
   10CHL1    C9  703   5.170   2.227   5.890 -0.0010  1.0188 -0.5352
   10CHL1    H9  704   5.243   2.303   5.927 -0.3928  0.5627  1.2268
   10CHL1   C10  705   5.078   2.198   6.009  0.0368  0.9084  0.3371
   10CHL1   C19  706   4.994   2.068   5.986 -0.5271 -0.2520  0.6200
   10CHL1  H19A  707   4.938   2.084   5.891 -1.5304  2.8091  1.5884
   10CHL1  H19B  708   5.056   1.978   5.969  1.4169  0.6348  2.6404
   10CHL1  H19C  709   4.919   2.050   6.067  0.7498 -0.7648  1.7227
   10CHL1    C1  710   5.171   2.179   6.135 -0.6161 -0.0884 -0.0005
   10CHL1   H1A  711   5.227   2.084   6.129 -1.3231 -0.4760 -0.6606
   10CHL1   H1B  712   5.230   2.273   6.141 -0.5299 -0.2139  1.6247
   10CHL1    C2  713   5.098   2.170   6.267  0.5621 -0.0522 -0.4294
   10CHL1   H2A  714   5.177   2.159   6.344  1.1839 -0.4522 -1.1131
   10CHL1   H2B  715   5.028   2.084   6.260 -1.7407  1.7486 -0.7535
   10CHL1   C20  716   5.426   2.172   5.396  0.2253  0.7976 -0.1229
   10CHL1   H20  717   5.374   2.075   5.380 -1.6823  1.8857 -0.9980
   10CHL1   C21  718   5.569   2.150   5.453  0.1698  0.1150 -0.4073
   10CHL1  H21A  719   5.628   2.245   5.449 -1.0255  0.8648 -0.7763
   10CHL1  H21B  720   5.618   2.067   5.398 -2.2087 -0.4513 -1.7855
   10CHL1  H21C  721   5.551   2.118   5.558 -0.3643  0.3606 -0.4221
   10CHL1   C22  722   5.430   2.235   5.258  0.2735  0.4005 -0.3784
   10CHL1  H22A  723   5.331   2.225   5.209  0.2587  0.9390 -0.4609
   10CHL1  H22B  724   5.464   2.340   5.255  4.5304 -0.7974 -0.1146
   10CHL1   C23  725   5.514   2.154   5.149  0.1794 -0.4397 -0.2658
   10CHL1  H23A  726   5.551   2.231   5.078 -1.9071  0.7611 -0.1305
   10CHL1  H23B  727   5.603   2.108   5.197  1.4555  0.7766 -1.3737
   10CHL1   C24  728   5.428   2.037   5.091  0.5973 -0.2270 -0.0608
   10CHL1  H24A  729   5.379   1.974   5.168 -0.0308 -0.1384 -0.3815
   10CHL1  H24B  730   5.344   2.083   5.035 -1.6574 -2.0386  1.6463
   10CHL1   C25  731   5.510   1.945   4.986  1.1520  0.1853 -0.8517
   10CHL1   H25  732   5.443   1.862   4.956 -1.6295  1.8950  0.1934
   10CHL1   C26  733   5.542   2.026   4.857  0.3481  0.3231  0.4126
   10CHL1  H26A  734   5.442   2.052   4.815 -1.1738  0.5933  3.8137
   10CHL1  H26B  735   5.578   2.125   4.892 -0.3119  0.6559  0.1734
   10CHL1  H26C  736   5.595   1.980   4.772  0.6419  0.2232  0.6490
   10CHL1   C27  737   5.628   1.872   5.048 -0.2910 -0.0534 -0.6439
   10CHL1  H27A  738   5.695   1.820   4.977  0.7082  1.0374 -0.5404
   10CHL1  H27B  739   5.698   1.943   5.098 -1.8999  0.4401  0.9904
   10CHL1  H27C  740   5.600   1.806   5.133  1.9753 -0.3978 -0.0916
   11CHL1    C3  741   1.851   0.871   6.522 -1.1511 -0.2431  0.6889
   11CHL1    H3  742   1.746   0.853   6.492 -0.6253  1.7555 -3.0743
   11CHL1    O3  743   1.871   0.884   6.661 -0.1956 -0.4470 -0.1474
   11CHL1   H3'  744   1.966   0.879   6.672 -0.3231 -0.3290  1.0617
   11CHL1    C4  745   1.943   0.763   6.468  0.8352  0.2085  0.3268
   11CHL1   H4A  746   2.047   0.791   6.498  0.8267  1.5039 -0.7123
   11CHL1   H4B  747   1.908   0.679   6.531  0.7320  0.5197  0.6867
   11CHL1    C5  748   1.911   0.737   6.317  0.2189  0.0796  0.2114
   11CHL1    C6  749   1.865   0.621   6.265 -0.0157 -0.5397  0.2454
   11CHL1    H6  750   1.847   0.540   6.338 -1.5315  1.5108  2.3192
   11CHL1    C7  751   1.841   0.595   6.121 -0.2900 -0.3111  0.0574
   11CHL1   H7A  752   1.891   0.499   6.094 -1.9432 -0.9152 -0.9909
   11CHL1   H7B  753   1.737   0.574   6.090  0.0002  0.5233 -1.6483
   11CHL1    C8  754   1.901   0.700   6.028 -0.6138  0.0943  0.0524
   11CHL1    H8  755   2.009   0.677   6.017 -1.3293 -2.9240 -2.0412
   11CHL1   C14  756   1.843   0.690   5.884  0.2014 -0.2955  0.3076
   11CHL1   H14  757   1.733   0.705   5.891 -0.1022 -1.8042 -0.7024
   11CHL1   C15  758   1.844   0.553   5.812  0.0386 -0.4276 -0.6509
   11CHL1  H15A  759   1.934   0.497   5.846 -1.4506 -2.0139  0.8973
   11CHL1  H15B  760   1.755   0.499   5.850  0.4660 -0.9674 -0.4042
   11CHL1   C16  761   1.843   0.587   5.667 -0.1062  0.6916 -0.2129
   11CHL1  H16A  762   1.940   0.551   5.628  0.0776  0.4175  0.4646
   11CHL1  H16B  763   1.767   0.524   5.616  1.2420 -0.6086 -0.7066
   11CHL1   C17  764   1.829   0.740   5.659  0.0740 -0.0080  1.0123
   11CHL1   H17  765   1.721   0.765   5.666 -0.0734  0.0727 -1.0041
   11CHL1   C13  766   1.889   0.792   5.790 -0.2207 -0.2897 -0.2603
   11CHL1   C18  767   2.048   0.774   5.775  0.4677 -0.3325  0.2534
   11CHL1  H18A  768   2.096   0.825   5.861 -1.3559  2.9901 -0.5369
   11CHL1  H18B  769   2.088   0.672   5.756 -0.7106 -0.1647 -4.5325
   11CHL1  H18C  770   2.084   0.824   5.682 -0.9970  0.0144 -0.1583
   11CHL1   C12  771   1.841   0.934   5.845 -0.8748  0.4392  0.6744
   11CHL1  H12A  772   1.872   1.019   5.781  1.4821  0.7634  2.1076
   11CHL1  H12B  773   1.731   0.946   5.855 -0.6629  1.2956  2.3962
   11CHL1   C11  774   1.903   0.953   5.981 -0.0786 -0.6459  0.0732
   11CHL1  H11A  775   2.013   0.953   5.964 -0.3049  0.1640 -1.5369
   11CHL1  H11B  776   1.866   1.048   6.024  1.9239 -0.9931  2.8410
   11CHL1    C9  777   1.870   0.841   6.082  0.2204  0.5683  0.3130
   11CHL1    H9  778   1.761   0.851   6.096 -0.3586 -0.6319 -2.6652
   11CHL1   C10  779   1.925   0.855   6.226 -0.5383 -0.2562 -0.5710
   11CHL1   C19  780   2.081   0.871   6.217 -0.9526 -0.7704  0.0777
   11CHL1  H19A  781   2.129   0.789   6.159 -0.0464  0.3331 -0.7860
   11CHL1  H19B  782   2.113   0.965   6.167  1.7841 -1.4835  0.3528
   11CHL1  H19C  783   2.141   0.876   6.310 -2.9156 -0.5165  1.3897
   11CHL1    C1  784   1.868   0.984   6.299 -0.2553  0.5567  0.8470
   11CHL1   H1A  785   1.910   1.075   6.251  0.0725 -0.0486 -0.0304
   11CHL1   H1B  786   1.762   0.964   6.273  0.0214  1.3937 -1.1538
   11CHL1    C2  787   1.890   0.999   6.448 -0.3086  0.3100 -0.2817
   11CHL1   H2A  788   1.824   1.079   6.489  2.1752  0.9365  2.9134
   11CHL1   H2B  789   2.000   1.015   6.462 -0.3888  0.6767 -0.0388
   11CHL1   C20  790   1.869   0.801   5.521  0.0819 -0.8332 -0.7241
   11CHL1   H20  791   1.973   0.775   5.495  1.2580  1.1634  1.6090
   11CHL1   C21  792   1.871   0.962   5.520 -0.3614  0.6550 -0.4690
   11CHL1  H21A  793   1.777   0.991   5.573 -1.8891 -1.6955 -1.7124
   11CHL1  H21B  794   1.867   1.002   5.417 -1.2733 -0.9293 -1.0962
   11CHL1  H21C  795   1.961   0.986   5.581  0.0583 -2.0402  0.1092
   11CHL1   C22  796   1.791   0.746   5.399 -0.4388 -0.1016  0.2591
   11CHL1  H22A  797   1.749   0.643   5.414 -2.9872  1.0968  2.3259
   11CHL1  H22B  798   1.693   0.799   5.400  0.2858  1.3512 -1.3607
   11CHL1   C23  799   1.864   0.767   5.267  0.2353  0.2619  0.2093
   11CHL1  H23A  800   1.864   0.876   5.246 -1.1312  0.6806  2.1679
   11CHL1  H23B  801   1.966   0.723   5.270 -0.9995 -2.8522  0.4758
   11CHL1   C24  802   1.796   0.710   5.137 -0.3775 -0.2051 -1.4508
   11CHL1  H24A  803   1.782   0.603   5.164  1.1188 -0.0980 -0.1164
   11CHL1  H24B  804   1.695   0.756   5.125 -0.4419 -0.0387 -0.3642
   11CHL1   C25  805   1.878   0.733   5.009 -0.1657  0.8664 -0.0493
   11CHL1   H25  806   1.897   0.843   5.006 -0.5980  0.9249 -0.7006
   11CHL1   C26  807   2.010   0.654   5.001  0.5452  0.2752  0.0471
   11CHL1  H26A  808   2.074   0.695   4.919 -0.9002 -1.2863 -1.9548
   11CHL1  H26B  809   2.071   0.658   5.094 -0.8435  0.5548  0.9718
   11CHL1  H26C  810   1.987   0.546   4.989 -2.0453  0.4621  2.2121
   11CHL1   C27  811   1.783   0.703   4.887 -0.2283 -0.4379  0.0687
   11CHL1  H27A  812   1.787   0.598   4.851  0.1589 -0.4777  0.2215
   11CHL1  H27B  813   1.674   0.720   4.902  0.1304  1.8255  0.4729
   11CHL1  H27C  814   1.807   0.773   4.805 -2.7086  1.0469  0.5035
   12CHL1    C3  815   3.023   0.776   6.156  0.2638  0.3664  0.8026
   12CHL1    H3  816   2.960   0.867   6.150 -1.4718 -0.8043  0.5593
   12CHL1    O3  817   3.047   0.759   6.294  0.1012  0.0518  0.2428
   12CHL1   H3'  818   3.071   0.666   6.303  1.5139  0.4562  0.9782
   12CHL1    C4  819   2.942   0.654   6.118 -0.1231  0.4399 -0.0404
   12CHL1   H4A  820   2.992   0.555   6.129  0.4361  0.5160 -1.5885
   12CHL1   H4B  821   2.849   0.653   6.178  1.2993  2.9997  2.4789
   12CHL1    C5  822   2.904   0.655   5.967 -0.2112  0.1124  0.5857
   12CHL1    C6  823   2.775   0.639   5.924 -0.5326 -0.8268  0.1198
   12CHL1    H6  824   2.691   0.633   5.994 -1.9939  0.4264 -1.4399
   12CHL1    C7  825   2.740   0.629   5.778 -0.6614  0.8005  0.2682
   12CHL1   H7A  826   2.647   0.569   5.764  0.1821 -0.5550  0.3416
   12CHL1   H7B  827   2.716   0.732   5.743  0.6425  0.8439 -0.5718
   12CHL1    C8  828   2.854   0.595   5.685 -0.3901 -0.0397 -0.1903
   12CHL1    H8  829   2.883   0.490   5.708  1.1290  0.7188  1.5790
   12CHL1   C14  830   2.806   0.605   5.538  0.0145  0.1800 -0.6353
   12CHL1   H14  831   2.778   0.712   5.528 -2.1669 -0.2554  0.2082
   12CHL1   C15  832   2.681   0.521   5.495  0.7657 -0.0102  0.1233
   12CHL1  H15A  833   2.693   0.426   5.553 -0.1601  0.0066  0.3520
   12CHL1  H15B  834   2.585   0.572   5.519 -0.8684 -1.9942 -1.7635
   12CHL1   C16  835   2.707   0.502   5.344 -0.0582  0.2311  0.8339
   12CHL1  H16A  836   2.731   0.393   5.340  1.9596  0.5971  1.4073
   12CHL1  H16B  837   2.615   0.528   5.289 -0.7856 -2.9600  0.3545
   12CHL1   C17  838   2.839   0.573   5.305  0.6784  0.0690 -0.4474
   12CHL1   H17  839   2.802   0.676   5.289 -1.2382 -0.4201  0.6201
   12CHL1   C13  840   2.915   0.560   5.440 -0.4496  0.7986 -0.3279
   12CHL1   C18  841   2.968   0.419   5.461 -0.4708  0.4997 -0.1427
   12CHL1  H18A  842   2.897   0.349   5.413 -0.3991  0.5513 -0.3256
   12CHL1  H18B  843   3.067   0.405   5.413  0.3329  0.7065  1.4093
   12CHL1  H18C  844   2.993   0.389   5.565  1.8241  2.0913 -0.1484
   12CHL1   C12  845   3.031   0.665   5.463  0.6077  0.9855  0.4343
   12CHL1  H12A  846   3.114   0.641   5.393  0.3570  0.4372  0.3244
   12CHL1  H12B  847   2.985   0.759   5.426 -0.6130 -0.2916 -1.4350
   12CHL1   C11  848   3.079   0.676   5.609  0.1245  0.4853 -0.3380
   12CHL1  H11A  849   3.139   0.584   5.626 -2.0866 -0.9578  0.0084
   12CHL1  H11B  850   3.154   0.758   5.609 -1.1964  1.7805 -2.2399
   12CHL1    C9  851   2.979   0.685   5.723  0.1882  1.2100  0.8399
   12CHL1    H9  852   2.939   0.788   5.710  1.4104  1.6323  0.2877
   12CHL1   C10  853   3.024   0.664   5.876  0.3519 -0.6304  0.7529
   12CHL1   C19  854   3.116   0.535   5.880 -0.0391  0.1302  0.0744
   12CHL1  H19A  855   3.072   0.447   5.827  0.1134  0.3457 -0.4150
   12CHL1  H19B  856   3.220   0.559   5.849  1.0423 -0.5479  2.8251
   12CHL1  H19C  857   3.141   0.503   5.984  0.1592 -0.5555 -0.1726
   12CHL1    C1  858   3.116   0.787   5.919  0.3814  0.1354 -0.4998
   12CHL1   H1A  859   3.210   0.780   5.860  0.1261  2.8595 -1.3744
   12CHL1   H1B  860   3.051   0.872   5.886 -1.1023 -1.2559 -1.3038
   12CHL1    C2  861   3.151   0.784   6.073 -0.5923 -0.0177 -1.0661
   12CHL1   H2A  862   3.192   0.880   6.111 -0.5739 -0.1429 -0.7712
   12CHL1   H2B  863   3.210   0.696   6.105 -1.6913  0.0926  1.4127
   12CHL1   C20  864   2.896   0.511   5.173  0.8366  0.1969  0.4700
   12CHL1   H20  865   2.950   0.417   5.197  0.7247  0.5848  2.4205
   12CHL1   C21  866   3.010   0.595   5.116  1.2760  0.6750 -0.4670
   12CHL1  H21A  867   3.032   0.562   5.013 -2.1411 -0.2074 -1.0387
   12CHL1  H21B  868   3.102   0.602   5.178 -0.2022 -0.3941  2.0176
   12CHL1  H21C  869   2.963   0.696   5.116 -4.1031 -1.4444  0.5934
   12CHL1   C22  870   2.781   0.474   5.072  0.4617 -0.2728 -0.3486
   12CHL1  H22A  871   2.837   0.442   4.981  0.7455 -2.2402  0.4582
   12CHL1  H22B  872   2.734   0.382   5.114  1.0955 -1.5099 -2.1697
   12CHL1   C23  873   2.689   0.590   5.019  0.4834  0.0138 -0.0210
   12CHL1  H23A  874   2.625   0.636   5.097 -0.3033 -2.4575  0.8989
   12CHL1  H23B  875   2.760   0.667   4.982 -0.3916  1.2100  0.7364
   12CHL1   C24  876   2.596   0.545   4.908 -0.7559 -0.2607  0.4124
   12CHL1  H24A  877   2.659   0.500   4.828 -0.4389 -0.3768  0.7212
   12CHL1  H24B  878   2.512   0.476   4.930 -1.3063  0.4222  0.4849
   12CHL1   C25  879   2.525   0.663   4.829 -0.2346  0.3118 -0.2716
   12CHL1   H25  880   2.467   0.618   4.745 -1.8628 -0.5627  1.2567
   12CHL1   C26  881   2.434   0.752   4.914  0.2581  0.0679 -0.0023
   12CHL1  H26A  882   2.358   0.683   4.956 -2.1373  1.5201 -1.7778
   12CHL1  H26B  883   2.491   0.805   4.994  1.2746 -1.4520  0.3395
   12CHL1  H26C  884   2.377   0.821   4.849  0.2484 -0.0608 -0.1308
   12CHL1   C27  885   2.631   0.764   4.763 -0.4369  0.2967  0.5685
   12CHL1  H27A  886   2.710   0.702   4.715 -0.0138 -0.0344  1.6607
   12CHL1  H27B  887   2.594   0.835   4.686  1.1079  0.8696  0.3196
   12CHL1  H27C  888   2.687   0.820   4.841 -0.7033 -0.9842  1.7245
   13CHL1    C3  889   2.916   2.020   6.212  0.8398 -0.3068 -0.1375
   13CHL1    H3  890   3.018   1.979   6.196  1.1201  0.4509 -0.3180
   13CHL1    O3  891   2.907   2.050   6.350 -0.3079 -0.0769  0.5378
   13CHL1   H3'  892   2.996   2.066   6.383  0.1394  2.1227 -1.4316
   13CHL1    C4  893   2.900   2.151   6.136  0.1266  0.0627 -0.0990
   13CHL1   H4A  894   2.813   2.202   6.182 -1.6479  0.3300 -3.4354
   13CHL1   H4B  895   2.992   2.210   6.161  0.5458 -1.3956  2.0408
   13CHL1    C5  896   2.896   2.134   5.986 -1.1662 -0.0293  0.3956
   13CHL1    C6  897   2.974   2.199   5.902  0.4809  0.0489 -0.4962
   13CHL1    H6  898   3.054   2.264   5.941  1.1380  0.8311 -2.9761
   13CHL1    C7  899   2.964   2.189   5.755  0.0570 -0.4728  0.4095
   13CHL1   H7A  900   2.964   2.286   5.701  1.8096 -0.4486  0.4011
   13CHL1   H7B  901   3.058   2.141   5.722  1.6326  2.2937  0.6161
   13CHL1    C8  902   2.834   2.112   5.710  0.1795  0.1893 -0.0923
   13CHL1    H8  903   2.748   2.181   5.720  1.2867  1.8368 -1.3633
   13CHL1   C14  904   2.842   2.079   5.561 -0.8932 -0.0567 -0.6748
   13CHL1   H14  905   2.932   2.015   5.544  0.4165  0.9152  2.0176
   13CHL1   C15  906   2.867   2.201   5.469 -0.0243  0.2187 -0.2755
   13CHL1  H15A  907   2.806   2.273   5.528 -0.2676 -0.6028  0.5183
   13CHL1  H15B  908   2.976   2.223   5.467 -0.7695  4.9864  0.0814
   13CHL1   C16  909   2.809   2.142   5.337 -0.0326 -0.6727 -0.8111
   13CHL1  H16A  910   2.730   2.211   5.302 -0.0322 -0.1065  0.2717
   13CHL1  H16B  911   2.893   2.149   5.265  1.2000  1.4434  0.7215
   13CHL1   C17  912   2.766   1.993   5.358  0.3150 -0.0829  0.6047
   13CHL1   H17  913   2.861   1.935   5.366  0.6649  0.5691  1.4021
   13CHL1   C13  914   2.718   1.998   5.508  0.3754  0.2311 -0.6518
   13CHL1   C18  915   2.583   2.076   5.515 -0.0638  0.2573 -0.3930
   13CHL1  H18A  916   2.595   2.171   5.460 -0.2990  1.3184  1.3159
   13CHL1  H18B  917   2.509   2.018   5.456  1.3742 -1.2812 -0.7396
   13CHL1  H18C  918   2.558   2.098   5.621 -0.3320  1.3791 -0.6803
   13CHL1   C12  919   2.700   1.860   5.581  0.2376  0.9435  0.6471
   13CHL1  H12A  920   2.602   1.812   5.560  0.9987 -0.4824  0.2054
   13CHL1  H12B  921   2.788   1.797   5.554  0.2442  1.3929 -0.4155
   13CHL1   C11  922   2.703   1.880   5.737 -0.2363 -0.6628 -0.9210
   13CHL1  H11A  923   2.612   1.938   5.763  1.6381  1.8900  0.4183
   13CHL1  H11B  924   2.703   1.780   5.785  2.2256  0.2561  1.2377
   13CHL1    C9  925   2.810   1.986   5.793 -0.0567  0.6373 -0.2469
   13CHL1    H9  926   2.909   1.936   5.785 -0.5540 -0.3413 -0.5239
   13CHL1   C10  927   2.797   2.022   5.941 -0.3160  0.5144  0.5988
   13CHL1   C19  928   2.648   2.070   5.963 -0.1654  0.7328  0.0932
   13CHL1  H19A  929   2.601   2.131   5.883  0.5952 -1.8389 -2.5027
   13CHL1  H19B  930   2.575   1.987   5.978 -1.4441  1.5833 -1.1711
   13CHL1  H19C  931   2.646   2.140   6.050  0.8531  1.2870 -0.3123
   13CHL1    C1  932   2.831   1.894   6.020  0.0931 -0.2963 -0.1001
   13CHL1   H1A  933   2.768   1.810   5.983 -0.7250  0.4373 -0.4002
   13CHL1   H1B  934   2.933   1.856   5.994  0.9300  1.8872 -0.2531
   13CHL1    C2  935   2.812   1.914   6.167 -0.1944 -0.0516  0.1603
   13CHL1   H2A  936   2.824   1.820   6.225  0.3213  0.4154  0.8184
   13CHL1   H2B  937   2.711   1.952   6.195  0.5463  0.7769  1.8524
   13CHL1   C20  938   2.688   1.935   5.245 -0.1683 -0.1092 -0.2369
   13CHL1   H20  939   2.586   1.979   5.248 -0.4818 -0.6584 -1.8168
   13CHL1   C21  940   2.658   1.784   5.258  0.3843 -0.5518  0.1428
   13CHL1  H21A  941   2.747   1.722   5.235  0.9729  0.3528 -0.0820
   13CHL1  H21B  942   2.575   1.752   5.192 -0.5266 -0.3950  1.1920
   13CHL1  H21C  943   2.630   1.746   5.358  1.4816  0.7411  0.9807
   13CHL1   C22  944   2.754   1.967   5.107  0.2680  0.9967  0.0075
   13CHL1  H22A  945   2.680   1.921   5.039  1.3788  1.2903 -1.4486
   13CHL1  H22B  946   2.746   2.075   5.083 -1.7351  0.6686 -1.0367
   13CHL1   C23  947   2.893   1.917   5.085 -0.2321  0.1675 -0.2635
   13CHL1  H23A  948   2.957   1.942   5.173  1.2490  1.0870 -1.5454
   13CHL1  H23B  949   2.896   1.807   5.070  1.8560 -0.2171  2.2544
   13CHL1   C24  950   2.944   1.989   4.953  0.9108  0.2070 -0.2405
   13CHL1  H24A  951   2.867   1.976   4.874 -1.8311  1.1270  2.1103
   13CHL1  H24B  952   2.953   2.097   4.973 -0.9426  0.7435 -1.9661
   13CHL1   C25  953   3.082   1.941   4.900  0.8904 -0.3071 -0.9384
   13CHL1   H25  954   3.132   1.928   4.998  0.0857 -0.4067 -0.5363
   13CHL1   C26  955   3.061   1.820   4.811  0.8017 -0.8271  0.0396
   13CHL1  H26A  956   2.991   1.748   4.858  0.6731 -1.2662 -0.8110
   13CHL1  H26B  957   3.006   1.859   4.722 -1.9594 -0.4355  1.7879
   13CHL1  H26C  958   3.163   1.783   4.790  2.1771  1.0767  2.7982
   13CHL1   C27  959   3.159   2.051   4.824  0.5392 -0.0162 -0.3675
   13CHL1  H27A  960   3.177   2.133   4.896 -2.1666  0.0917  0.2701
   13CHL1  H27B  961   3.255   2.001   4.797  0.1791 -1.8865  1.5057
   13CHL1  H27C  962   3.104   2.071   4.729  0.6904  0.6067 -0.3290
   14CHL1    C3  963   1.975   3.240   6.596 -0.1875 -0.3876  0.1722
   14CHL1    H3  964   1.904   3.159   6.570  0.5677 -1.7625  2.1851
   14CHL1    O3  965   1.979   3.259   6.739  0.0274 -0.3635  0.0551
   14CHL1   H3'  966   1.888   3.271   6.766 -0.1864  0.0538 -0.8195
   14CHL1    C4  967   2.115   3.205   6.547  0.1306  0.2752  0.6691
   14CHL1   H4A  968   2.187   3.286   6.571  0.4504  0.0702  0.3949
   14CHL1   H4B  969   2.136   3.108   6.597 -0.2356 -0.6813 -0.9552
   14CHL1    C5  970   2.122   3.199   6.398 -0.6515  0.2992  0.4553
   14CHL1    C6  971   2.182   3.095   6.336 -0.0200 -0.5706  1.1091
   14CHL1    H6  972   2.229   3.017   6.397 -1.1987 -1.6070  0.7249
   14CHL1    C7  973   2.212   3.071   6.190  0.4556 -0.6505  0.2829
   14CHL1   H7A  974   2.322   3.068   6.180  0.7347  3.5451  0.2808
   14CHL1   H7B  975   2.167   2.974   6.163 -2.1068 -0.2855  2.7055
   14CHL1    C8  976   2.174   3.198   6.107  0.7193 -0.5723 -0.1599
   14CHL1    H8  977   2.261   3.266   6.117  1.0511 -1.2275  1.9236
   14CHL1   C14  978   2.141   3.162   5.964  0.4160  0.3028 -0.0241
   14CHL1   H14  979   2.054   3.092   5.962 -1.3288  2.3700 -0.6328
   14CHL1   C15  980   2.254   3.100   5.884  0.6486  0.4433  0.0733
   14CHL1  H15A  981   2.340   3.170   5.893  2.5548 -1.6676 -0.7709
   14CHL1  H15B  982   2.283   2.996   5.909  1.9081  0.7416 -0.0712
   14CHL1   C16  983   2.196   3.104   5.742 -0.6669  0.2963 -0.0535
   14CHL1  H16A  984   2.292   3.122   5.688 -1.2020  0.9314 -0.8219
   14CHL1  H16B  985   2.156   3.009   5.701 -0.3765  1.4456 -3.3796
   14CHL1   C17  986   2.083   3.201   5.734 -0.5980  0.2468  0.7897
   14CHL1   H17  987   1.990   3.141   5.747 -1.1263  1.0332  0.7218
   14CHL1   C13  988   2.094   3.277   5.872  0.1184  0.3836 -0.2838
   14CHL1   C18  989   2.190   3.394   5.861  0.5176  0.2213 -0.3233
   14CHL1  H18A  990   2.146   3.484   5.813 -2.8895 -0.8888  0.4961
   14CHL1  H18B  991   2.225   3.424   5.963 -1.1220 -2.1530  1.0293
   14CHL1  H18C  992   2.281   3.368   5.803 -0.2531 -0.5647 -1.2088
   14CHL1   C12  993   1.956   3.328   5.938 -0.6564  0.0864 -0.6433
   14CHL1  H12A  994   1.912   3.408   5.875  0.0676  0.6240 -0.4749
   14CHL1  H12B  995   1.886   3.244   5.957 -1.7238  1.3007  1.0625
   14CHL1   C11  996   1.986   3.385   6.078 -0.1054  0.0257  0.1609
   14CHL1  H11A  997   2.061   3.467   6.071  1.9024 -1.6655  0.8343
   14CHL1  H11B  998   1.891   3.411   6.131  0.2610 -0.5354  1.1212
   14CHL1    C9  999   2.049   3.278   6.175 -0.2818 -0.3095  0.2928
   14CHL1    H9 1000   1.970   3.201   6.181 -1.4983  0.9993  2.1277
   14CHL1   C10 1001   2.067   3.322   6.322  0.2991 -0.4750  0.4437
   14CHL1   C19 1002   2.162   3.447   6.331 -0.1397 -0.1655  0.4100
   14CHL1  H19A 1003   2.169   3.487   6.434  1.0864 -0.4120  0.4451
   14CHL1  H19B 1004   2.267   3.423   6.305  0.2470  1.1122  0.7439
   14CHL1  H19C 1005   2.139   3.530   6.261  0.4822  0.6031  1.0933
   14CHL1    C1 1006   1.931   3.369   6.381  0.7691  0.3882 -0.5666
   14CHL1   H1A 1007   1.897   3.462   6.331 -1.1486  0.5738  0.9703
   14CHL1   H1B 1008   1.868   3.284   6.346  1.5073  0.1663 -1.3896
   14CHL1    C2 1009   1.921   3.374   6.532 -0.6442  0.4511 -0.5512
   14CHL1   H2A 1010   1.814   3.392   6.554 -0.5386  2.4332 -1.4502
   14CHL1   H2B 1011   1.984   3.454   6.577  0.4373  0.5988 -2.2476
   14CHL1   C20 1012   2.070   3.277   5.605 -0.5238 -0.9382 -0.7080
   14CHL1   H20 1013   2.157   3.344   5.585 -0.4392 -1.8348 -3.7833
   14CHL1   C21 1014   1.940   3.365   5.617 -0.1413 -0.2442  0.1245
   14CHL1  H21A 1015   1.960   3.438   5.699  1.0194  0.4001 -0.6967
   14CHL1  H21B 1016   1.866   3.288   5.645  1.6186 -1.6362  1.1217
   14CHL1  H21C 1017   1.915   3.415   5.521  0.7666  2.3102  1.1188
   14CHL1   C22 1018   2.078   3.181   5.482 -0.0565 -0.3178 -0.1708
   14CHL1  H22A 1019   2.176   3.129   5.474 -0.1348 -0.4098 -0.5706
   14CHL1  H22B 1020   2.002   3.100   5.492  0.2367 -0.4690  1.0020
   14CHL1   C23 1021   2.057   3.252   5.348 -0.6502 -0.3579 -0.2291
   14CHL1  H23A 1022   1.967   3.316   5.340 -1.4836 -1.5067 -0.3776
   14CHL1  H23B 1023   2.144   3.316   5.321 -1.4832 -0.4196 -3.4451
   14CHL1   C24 1024   2.046   3.158   5.227 -0.2084  0.7196  0.2834
   14CHL1  H24A 1025   2.130   3.085   5.232  0.7617  1.5383 -2.2745
   14CHL1  H24B 1026   1.956   3.093   5.220 -0.3026  0.8640  0.1493
   14CHL1   C25 1027   2.069   3.229   5.090  0.0376  0.5470 -0.6505
   14CHL1   H25 1028   2.168   3.277   5.100  1.0355 -0.7846 -3.1861
   14CHL1   C26 1029   2.076   3.127   4.976 -0.5100 -0.2225  0.7040
   14CHL1  H26A 1030   1.981   3.072   4.958 -0.6727 -0.4929  2.1879
   14CHL1  H26B 1031   2.105   3.184   4.886 -1.7650  0.4677  0.7182
   14CHL1  H26C 1032   2.149   3.045   4.992  1.7247  1.7013  0.9009
   14CHL1   C27 1033   1.967   3.340   5.066 -0.9779  0.7004  0.0175
   14CHL1  H27A 1034   2.001   3.394   4.974  1.1862 -2.2276 -1.0793
   14CHL1  H27B 1035   1.866   3.298   5.047 -0.4152 -0.9802  0.5130
   14CHL1  H27C 1036   1.965   3.410   5.151 -1.1287 -1.6000  2.0092
   15CHL1    C3 1037   1.082   2.907   6.320 -0.3369 -0.3322  0.5746
   15CHL1    H3 1038   1.020   2.858   6.242 -0.5449  0.0471  0.4988
   15CHL1    O3 1039   1.039   2.859   6.449 -0.5912  0.5401  0.2205
   15CHL1   H3' 1040   1.085   2.911   6.514  0.8761  0.8288 -0.9999
   15CHL1    C4 1041   1.236   2.872   6.289 -0.0575  0.5269  0.1886
   15CHL1   H4A 1042   1.302   2.909   6.371 -2.2095 -0.1333  2.3559
   15CHL1   H4B 1043   1.241   2.761   6.290 -2.2953  0.3818 -0.3763
   15CHL1    C5 1044   1.278   2.928   6.153  0.6395 -0.1895  0.2837
   15CHL1    C6 1045   1.325   2.854   6.053 -0.3591 -0.0006 -0.3844
   15CHL1    H6 1046   1.346   2.747   6.065 -0.4139 -0.0096 -0.3698
   15CHL1    C7 1047   1.379   2.914   5.929  0.5785 -0.1776 -0.2036
   15CHL1   H7A 1048   1.476   2.875   5.891  0.7557 -0.2287  0.2874
   15CHL1   H7B 1049   1.294   2.904   5.858  0.9067 -3.5185 -0.2637
   15CHL1    C8 1050   1.400   3.068   5.928  0.1921 -0.1311  0.0137
   15CHL1    H8 1051   1.494   3.101   5.979 -0.9028  3.6974 -0.1250
   15CHL1   C14 1052   1.401   3.122   5.787  0.3095 -0.0709 -0.2122
   15CHL1   H14 1053   1.300   3.087   5.754  0.8074 -1.4413 -0.3586
   15CHL1   C15 1054   1.498   3.049   5.702 -0.2032  0.2919  0.2902
   15CHL1  H15A 1055   1.590   3.010   5.750  0.4916  1.6804  0.1317
   15CHL1  H15B 1056   1.451   2.955   5.667 -0.0166 -0.0471  0.9264
   15CHL1   C16 1057   1.512   3.134   5.583  0.3240 -0.1143  0.4213
   15CHL1  H16A 1058   1.615   3.171   5.566 -0.3928  1.8859  0.2396
   15CHL1  H16B 1059   1.483   3.085   5.488 -2.5714 -0.0025  1.1693
   15CHL1   C17 1060   1.421   3.268   5.612  0.8576  0.7251  0.1785
   15CHL1   H17 1061   1.319   3.245   5.577  0.1660  2.0338  1.2147
   15CHL1   C13 1062   1.423   3.268   5.764  0.2211  0.0738 -0.1559
   15CHL1   C18 1063   1.555   3.313   5.821  0.8817 -0.2963 -0.0757
   15CHL1  H18A 1064   1.568   3.422   5.807 -0.2074 -0.1555 -0.1042
   15CHL1  H18B 1065   1.578   3.285   5.926 -1.1993  0.1598  0.5543
   15CHL1  H18C 1066   1.638   3.267   5.764  0.8890  0.4173 -0.6401
   15CHL1   C12 1067   1.306   3.336   5.838  1.2150 -0.4286 -0.0157
   15CHL1  H12A 1068   1.324   3.446   5.837  3.1771 -0.7132 -1.2457
   15CHL1  H12B 1069   1.216   3.318   5.775  0.6155 -2.9082  1.4427
   15CHL1   C11 1070   1.296   3.287   5.982 -0.2716 -0.1610  0.3875
   15CHL1  H11A 1071   1.388   3.326   6.031  0.2156 -1.0873  0.2372
   15CHL1  H11B 1072   1.213   3.339   6.035 -0.0022  1.8544 -1.0726
   15CHL1    C9 1073   1.282   3.127   6.001 -0.0948 -1.0211 -0.0040
   15CHL1    H9 1074   1.192   3.107   5.939 -1.3057  4.0640 -0.2791
   15CHL1   C10 1075   1.258   3.082   6.143 -0.6732 -0.0011 -0.2880
   15CHL1   C19 1076   1.351   3.156   6.238 -0.7883  0.3793 -0.0399
   15CHL1  H19A 1077   1.337   3.266   6.232 -0.6991  0.5597  2.1333
   15CHL1  H19B 1078   1.325   3.122   6.341 -0.7258 -0.2508 -0.2317
   15CHL1  H19C 1079   1.457   3.127   6.221 -1.2358 -1.3269 -0.1211
   15CHL1    C1 1080   1.115   3.118   6.168 -0.4373  0.0743 -0.5587
   15CHL1   H1A 1081   1.111   3.227   6.188 -1.4735 -0.2849  1.3846
   15CHL1   H1B 1082   1.052   3.079   6.085  0.4932 -1.1432 -0.7260
   15CHL1    C2 1083   1.057   3.062   6.301  0.3564  0.0022  0.2455
   15CHL1   H2A 1084   0.950   3.089   6.308  0.1200 -1.2869  3.6995
   15CHL1   H2B 1085   1.104   3.109   6.390  0.2366 -0.2112  0.4211
   15CHL1   C20 1086   1.472   3.389   5.533  0.6173  0.2288  0.0139
   15CHL1   H20 1087   1.568   3.415   5.582  2.1620  0.8817 -3.0516
   15CHL1   C21 1088   1.366   3.502   5.552  0.1299 -0.0352 -0.0018
   15CHL1  H21A 1089   1.409   3.594   5.506  1.1045 -0.7850 -0.6137
   15CHL1  H21B 1090   1.331   3.514   5.657 -0.3164 -0.5101 -0.0889
   15CHL1  H21C 1091   1.272   3.475   5.499 -0.5067 -0.5645  1.3385
   15CHL1   C22 1092   1.509   3.362   5.385  0.5075 -0.0581 -0.5618
   15CHL1  H22A 1093   1.584   3.281   5.371  1.1362  0.7749 -2.4995
   15CHL1  H22B 1094   1.419   3.334   5.326  0.3214  0.2313 -0.4147
   15CHL1   C23 1095   1.573   3.488   5.320  0.5266 -0.5138  0.0240
   15CHL1  H23A 1096   1.499   3.569   5.303 -0.0556 -0.9578  0.4307
   15CHL1  H23B 1097   1.653   3.513   5.393  0.1409 -3.4047  1.5730
   15CHL1   C24 1098   1.631   3.460   5.187 -0.1980  0.1958  0.3456
   15CHL1  H24A 1099   1.727   3.406   5.200  0.5042  1.5160  0.7881
   15CHL1  H24B 1100   1.565   3.394   5.127 -0.0991  1.2417 -0.9606
   15CHL1   C25 1101   1.662   3.591   5.105  0.6269  0.5541 -0.1181
   15CHL1   H25 1102   1.719   3.559   5.015  0.2331 -2.0483  0.4765
   15CHL1   C26 1103   1.544   3.684   5.058  0.1508  0.4096  0.5351
   15CHL1  H26A 1104   1.583   3.764   4.992 -0.4290 -0.8705 -1.4455
   15CHL1  H26B 1105   1.482   3.627   4.986  3.5205 -1.3993 -1.2068
   15CHL1  H26C 1106   1.477   3.707   5.143  0.3134 -1.5056  1.2434
   15CHL1   C27 1107   1.756   3.676   5.197  0.3767 -0.1749  0.1274
   15CHL1  H27A 1108   1.842   3.617   5.236  0.3787 -1.1571 -1.2776
   15CHL1  H27B 1109   1.801   3.754   5.132  1.1527  0.1285  1.0008
   15CHL1  H27C 1110   1.707   3.724   5.284 -0.8469 -0.5536 -0.3288
   16CHL1    C3 1111   1.574   1.661   6.578 -0.6626  0.1468  0.3614
   16CHL1    H3 1112   1.585   1.555   6.547 -1.5963  0.5934 -1.6859
   16CHL1    O3 1113   1.544   1.669   6.714 -0.1234  0.4276 -0.4290
   16CHL1   H3' 1114   1.568   1.759   6.734 -3.6500  1.9947 -2.4561
   16CHL1    C4 1115   1.695   1.747   6.542 -0.2554 -0.2152  0.2142
   16CHL1   H4A 1116   1.666   1.850   6.572  0.9394 -0.0556  0.8984
   16CHL1   H4B 1117   1.789   1.708   6.588 -0.3471 -1.2506 -0.4341
   16CHL1    C5 1118   1.713   1.740   6.391 -0.2126 -0.0801 -0.0603
   16CHL1    C6 1119   1.827   1.685   6.343 -0.7678  0.1638 -0.1665
   16CHL1    H6 1120   1.908   1.639   6.401 -1.5110 -2.2264 -0.9102
   16CHL1    C7 1121   1.856   1.693   6.195 -0.3355 -0.3264 -0.6409
   16CHL1   H7A 1122   1.963   1.718   6.182 -0.8114  2.8997  0.6409
   16CHL1   H7B 1123   1.845   1.592   6.150 -0.8131 -1.2332  1.3658
   16CHL1    C8 1124   1.761   1.785   6.110 -0.2001  0.4424  0.0731
   16CHL1    H8 1125   1.799   1.887   6.135  1.2356 -0.1880  0.5590
   16CHL1   C14 1126   1.764   1.754   5.965 -0.5260  0.4432  1.1153
   16CHL1   H14 1127   1.733   1.647   5.960  1.9119 -0.2624 -2.0068
   16CHL1   C15 1128   1.902   1.747   5.888 -0.3373  0.3236  0.0446
   16CHL1  H15A 1129   1.974   1.824   5.924 -0.6213  1.5133 -1.7894
   16CHL1  H15B 1130   1.936   1.643   5.907  0.3307 -0.1137 -2.9220
   16CHL1   C16 1131   1.865   1.767   5.740 -0.4272  0.0729  0.1163
   16CHL1  H16A 1132   1.917   1.861   5.709 -0.1140  0.2605  1.1908
   16CHL1  H16B 1133   1.899   1.677   5.685  1.2432 -0.4200  1.8784
   16CHL1   C17 1134   1.710   1.775   5.733  0.1465 -0.0478 -0.1618
   16CHL1   H17 1135   1.669   1.672   5.726 -0.6789  0.2020  0.7652
   16CHL1   C13 1136   1.661   1.829   5.871 -0.7881  0.4200 -0.4609
   16CHL1   C18 1137   1.702   1.980   5.898 -0.2035  0.6833  0.3921
   16CHL1  H18A 1138   1.646   2.046   5.828 -0.8262 -0.4051 -0.1734
   16CHL1  H18B 1139   1.688   2.013   6.003  1.3012 -0.4641  0.9932
   16CHL1  H18C 1140   1.810   1.997   5.878 -0.1602  1.5280  1.2704
   16CHL1   C12 1141   1.520   1.801   5.924  0.0850  0.0630  0.1260
   16CHL1  H12A 1142   1.448   1.865   5.869  0.5428  0.6481  0.1915
   16CHL1  H12B 1143   1.496   1.694   5.906  1.9837  0.0417 -2.9024
   16CHL1   C11 1144   1.509   1.839   6.071  0.6841 -0.2706 -0.0591
   16CHL1  H11A 1145   1.516   1.949   6.080  0.7413 -0.3201  0.6126
   16CHL1  H11B 1146   1.403   1.824   6.101  1.0703 -2.7914  0.2952
   16CHL1    C9 1147   1.615   1.767   6.157 -0.1446  0.0843  0.5102
   16CHL1    H9 1148   1.585   1.662   6.142  0.6265  0.2033 -2.4456
   16CHL1   C10 1149   1.598   1.795   6.304 -0.7345 -0.7833  0.5220
   16CHL1   C19 1150   1.580   1.952   6.327  0.1873  0.2510  0.6596
   16CHL1  H19A 1151   1.479   1.984   6.295 -0.0519 -2.0867 -1.2722
   16CHL1  H19B 1152   1.580   1.973   6.436  1.2353  3.9565  0.0944
   16CHL1  H19C 1153   1.653   2.018   6.275 -1.1187  0.2905 -1.2201
   16CHL1    C1 1154   1.468   1.718   6.359  0.1237  0.7913  0.5411
   16CHL1   H1A 1155   1.376   1.767   6.321  0.3686  0.1570 -0.9046
   16CHL1   H1B 1156   1.474   1.615   6.318 -0.5015  1.3459 -1.0016
   16CHL1    C2 1157   1.449   1.720   6.508 -0.2590 -0.1925  0.4388
   16CHL1   H2A 1158   1.366   1.656   6.545  0.2695  0.5010  2.9536
   16CHL1   H2B 1159   1.435   1.827   6.536 -2.8228  0.1962 -1.7784
   16CHL1   C20 1160   1.657   1.841   5.612 -0.1456  0.4796  0.0272
   16CHL1   H20 1161   1.691   1.947   5.612  1.7165 -0.0789 -0.6034
   16CHL1   C21 1162   1.499   1.843   5.610 -0.1546  0.2478 -0.0599
   16CHL1  H21A 1163   1.459   1.924   5.675 -0.9044  2.3175 -2.9376
   16CHL1  H21B 1164   1.473   1.739   5.639  2.0162  0.3319  2.6402
   16CHL1  H21C 1165   1.473   1.881   5.509 -0.2525 -0.8777 -0.4753
   16CHL1   C22 1166   1.705   1.775   5.480 -0.3878 -0.3451 -0.3737
   16CHL1  H22A 1167   1.814   1.792   5.472 -0.6258  0.5917 -2.0820
   16CHL1  H22B 1168   1.690   1.667   5.458  1.7531 -0.3937 -1.7966
   16CHL1   C23 1169   1.673   1.865   5.352  0.0772  0.3516  1.0459
   16CHL1  H23A 1170   1.565   1.850   5.331  0.1517 -0.6128  1.3135
   16CHL1  H23B 1171   1.683   1.970   5.387 -0.0841  0.1809  1.6243
   16CHL1   C24 1172   1.764   1.820   5.234  0.0904  0.5819 -0.2041
   16CHL1  H24A 1173   1.870   1.827   5.263  0.1881 -2.3416  0.4248
   16CHL1  H24B 1174   1.724   1.719   5.208 -0.8642  1.2517 -1.4924
   16CHL1   C25 1175   1.753   1.895   5.102 -0.2593 -0.1572 -0.1698
   16CHL1   H25 1176   1.806   1.841   5.021 -0.1139 -0.8984  0.4214
   16CHL1   C26 1177   1.598   1.897   5.057  0.6155 -0.1086 -0.3748
   16CHL1  H26A 1178   1.538   1.963   5.124  0.6367 -1.6763  1.2822
   16CHL1  H26B 1179   1.571   1.931   4.955  0.4027  2.2123  0.3986
   16CHL1  H26C 1180   1.555   1.797   5.081  0.0088  0.0258 -0.8689
   16CHL1   C27 1181   1.817   2.037   5.113 -0.3978  0.6509 -0.4575
   16CHL1  H27A 1182   1.774   2.090   5.201 -2.8193 -2.5785  0.5088
   16CHL1  H27B 1183   1.927   2.020   5.108 -0.5917 -0.5378 -1.1113
   16CHL1  H27C 1184   1.790   2.098   5.025  0.0129  0.5649 -0.6433
   17CHL1    C3 1185   2.753   0.319   6.638  0.1541  0.3587 -0.2735
   17CHL1    H3 1186   2.643   0.338   6.639 -0.0334 -0.6042 -1.1103
   17CHL1    O3 1187   2.799   0.359   6.762 -0.1527  0.0776  0.5100
   17CHL1   H3' 1188   2.894   0.346   6.774 -0.2735  1.1601  3.3491
   17CHL1    C4 1189   2.790   0.171   6.605 -0.0399 -0.1268 -0.0354
   17CHL1   H4A 1190   2.897   0.165   6.631  0.4118  1.6405 -1.3053
   17CHL1   H4B 1191   2.741   0.112   6.686  0.7971 -0.3734  0.2973
   17CHL1    C5 1192   2.769   0.125   6.466 -0.0115  0.0011 -0.2619
   17CHL1    C6 1193   2.697   0.013   6.435 -0.5235 -0.2760  0.1428
   17CHL1    H6 1194   2.660  -0.039   6.524  0.4534  0.9797  1.3151
   17CHL1    C7 1195   2.673  -0.033   6.291 -0.4618  0.2139 -0.2864
   17CHL1   H7A 1196   2.687  -0.144   6.286 -0.1167  0.3095 -1.9072
   17CHL1   H7B 1197   2.566  -0.009   6.273 -0.6483 -1.2659 -1.3667
   17CHL1    C8 1198   2.751   0.040   6.182  0.2855 -0.2685  0.1562
   17CHL1    H8 1199   2.852  -0.007   6.182  0.3275 -0.1844 -0.0648
   17CHL1   C14 1200   2.701   0.022   6.040  0.0320 -0.6942 -0.0715
   17CHL1   H14 1201   2.607   0.081   6.037  1.0508  1.0202  0.4088
   17CHL1   C15 1202   2.678  -0.122   5.987 -0.1386  0.2435 -0.5202
   17CHL1  H15A 1203   2.769  -0.180   6.013  0.4609  1.1334 -0.5914
   17CHL1  H15B 1204   2.598  -0.163   6.052  0.6726 -0.3160  0.1475
   17CHL1   C16 1205   2.644  -0.112   5.843 -0.1769 -0.5407 -0.7012
   17CHL1  H16A 1206   2.708  -0.183   5.787  1.1982  0.2979 -0.2443
   17CHL1  H16B 1207   2.537  -0.109   5.811  0.3134  1.6135 -2.3919
   17CHL1   C17 1208   2.699   0.036   5.810 -0.2858 -0.1053 -0.0704
   17CHL1   H17 1209   2.608   0.096   5.790 -0.0270 -0.6053 -3.2970
   17CHL1   C13 1210   2.789   0.081   5.926  0.2578 -0.2611 -1.3120
   17CHL1   C18 1211   2.930   0.019   5.928  0.3936  0.3025 -0.1627
   17CHL1  H18A 1212   2.968   0.016   6.032 -0.0074  0.5581 -0.0044
   17CHL1  H18B 1213   2.926  -0.079   5.877 -0.7931  0.2665 -0.0458
   17CHL1  H18C 1214   2.984   0.087   5.858 -0.1493  1.0595  0.1288
   17CHL1   C12 1215   2.797   0.234   5.957 -0.2460 -0.9020 -0.1052
   17CHL1  H12A 1216   2.862   0.268   5.873 -0.9709 -0.0592 -0.3459
   17CHL1  H12B 1217   2.702   0.291   5.946  1.1122  2.3193  2.9252
   17CHL1   C11 1218   2.853   0.267   6.096  0.0782 -0.4331 -0.7735
   17CHL1  H11A 1219   2.959   0.235   6.105  0.4793  0.9318 -0.3870
   17CHL1  H11B 1220   2.858   0.375   6.121  0.0541 -0.9889  1.9889
   17CHL1    C9 1221   2.772   0.190   6.213  0.1471  0.4994 -0.2440
   17CHL1    H9 1222   2.675   0.245   6.215  0.7428  1.5614  1.3866
   17CHL1   C10 1223   2.828   0.213   6.353  1.1841  0.2952  0.0802
   17CHL1   C19 1224   2.982   0.185   6.361  0.3247  0.0214  0.0840
   17CHL1  H19A 1225   3.012   0.079   6.347  1.5542  0.6106 -2.1397
   17CHL1  H19B 1226   3.040   0.241   6.285 -1.8754  1.9596 -0.2961
   17CHL1  H19C 1227   3.024   0.215   6.459  1.0334 -3.1979  0.8800
   17CHL1    C1 1228   2.800   0.367   6.391  0.0232 -0.0002  0.0796
   17CHL1   H1A 1229   2.854   0.442   6.329 -0.9038  0.8713  0.2887
   17CHL1   H1B 1230   2.690   0.371   6.378 -0.1199 -1.7801  0.4990
   17CHL1    C2 1231   2.830   0.403   6.540 -0.2158  0.0952  0.5616
   17CHL1   H2A 1232   2.804   0.509   6.562 -2.0055  0.2719 -2.0181
   17CHL1   H2B 1233   2.939   0.386   6.557 -0.0300 -0.0158 -0.6701
   17CHL1   C20 1234   2.765   0.040   5.669 -0.4592  0.1334 -0.6111
   17CHL1   H20 1235   2.847  -0.035   5.665 -1.8769 -1.4461 -4.0596
   17CHL1   C21 1236   2.813   0.185   5.643 -0.1061 -0.3112 -0.0704
   17CHL1  H21A 1237   2.732   0.258   5.667  0.0910  0.1811 -0.8780
   17CHL1  H21B 1238   2.828   0.187   5.534 -2.0065 -1.0189 -0.4018
   17CHL1  H21C 1239   2.908   0.209   5.695  0.5166 -0.5336 -1.0862
   17CHL1   C22 1240   2.668  -0.001   5.559  0.4263 -0.7939  0.3285
   17CHL1  H22A 1241   2.631  -0.101   5.591  0.5264 -0.4530  1.5627
   17CHL1  H22B 1242   2.575   0.059   5.548  1.0441  0.7400  2.6625
   17CHL1   C23 1243   2.732  -0.016   5.418 -0.6688  0.5340  0.5786
   17CHL1  H23A 1244   2.706   0.079   5.367 -0.8550  1.0494  1.6068
   17CHL1  H23B 1245   2.842  -0.009   5.431 -0.6258  2.0467 -0.3412
   17CHL1   C24 1246   2.687  -0.141   5.337  0.1482  0.2427  0.0810
   17CHL1  H24A 1247   2.722  -0.223   5.403  0.2115  1.0113  1.0195
   17CHL1  H24B 1248   2.577  -0.145   5.321 -0.0338 -1.9430  1.4636
   17CHL1   C25 1249   2.746  -0.183   5.195  0.6663  0.0119 -1.2078
   17CHL1   H25 1250   2.706  -0.286   5.187 -1.6649  0.6699  0.7967
   17CHL1   C26 1251   2.678  -0.108   5.080 -0.9431 -0.2660 -0.1091
   17CHL1  H26A 1252   2.728  -0.148   4.989  0.1015 -1.5184  0.9689
   17CHL1  H26B 1253   2.569  -0.127   5.076 -0.8639 -0.7538  0.0325
   17CHL1  H26C 1254   2.702   0.000   5.090  0.9056 -0.7214  0.8110
   17CHL1   C27 1255   2.897  -0.177   5.192  0.2170  0.2964  1.1103
   17CHL1  H27A 1256   2.938  -0.229   5.282 -1.3118 -2.0359  0.5351
   17CHL1  H27B 1257   2.925  -0.227   5.097 -0.0384  1.8556  0.1787
   17CHL1  H27C 1258   2.953  -0.081   5.183  1.6649 -0.5682  0.4109
   18CHL1    C3 1259   1.317   6.250   3.235 -0.0461 -0.0228 -0.5028
   18CHL1    H3 1260   1.377   6.344   3.243 -0.3246  0.1240 -0.0985
   18CHL1    O3 1261   1.256   6.255   3.108  0.5826 -0.0639  0.5802
   18CHL1   H3' 1262   1.225   6.165   3.093  0.0361  0.3715 -1.1969
   18CHL1    C4 1263   1.409   6.126   3.244 -0.9166 -0.4733  0.1128
   18CHL1   H4A 1264   1.350   6.041   3.204  0.7531 -1.2623 -0.7765
   18CHL1   H4B 1265   1.480   6.150   3.162 -3.0798  3.3542 -0.8959
   18CHL1    C5 1266   1.462   6.095   3.383  0.5614 -0.3543  0.1753
   18CHL1    C6 1267   1.585   6.073   3.407 -0.9704  0.2414  0.0123
   18CHL1    H6 1268   1.658   6.077   3.324 -0.0735  1.1233  0.8174
   18CHL1    C7 1269   1.642   6.036   3.543 -0.3570 -0.4969  0.3886
   18CHL1   H7A 1270   1.718   5.956   3.538 -0.9494 -0.9870 -3.3734
   18CHL1   H7B 1271   1.681   6.132   3.583 -0.9122  0.3323 -0.9876
   18CHL1    C8 1272   1.531   6.007   3.651  0.0212 -0.1065 -0.0329
   18CHL1    H8 1273   1.490   5.905   3.642  0.2306 -0.1331 -0.7098
   18CHL1   C14 1274   1.585   6.027   3.799 -0.3088 -0.3145  0.2116
   18CHL1   H14 1275   1.605   6.134   3.817  0.3695 -0.3351 -0.3728
   18CHL1   C15 1276   1.712   5.946   3.835  0.1908 -0.4244  0.1022
   18CHL1  H15A 1277   1.699   5.839   3.808  1.7005 -0.2318 -1.5060
   18CHL1  H15B 1278   1.803   5.987   3.786  0.4000  0.2097  0.9837
   18CHL1   C16 1279   1.711   5.943   3.989 -0.4299  0.4243 -0.7332
   18CHL1  H16A 1280   1.741   5.841   4.021 -0.8231  0.5743  0.1547
   18CHL1  H16B 1281   1.791   6.008   4.030 -2.1507  2.8675 -1.0064
   18CHL1   C17 1282   1.570   5.993   4.034 -0.2364  0.0291 -0.2187
   18CHL1   H17 1283   1.584   6.103   4.046  1.1055 -0.0834 -0.6596
   18CHL1   C13 1284   1.476   5.980   3.905 -0.1755  0.4788 -0.8126
   18CHL1   C18 1285   1.429   5.829   3.906 -1.4753 -0.8799  0.1741
   18CHL1  H18A 1286   1.330   5.822   3.956 -1.2639 -2.7808  0.4136
   18CHL1  H18B 1287   1.418   5.797   3.800  1.6721 -0.3285 -0.3970
   18CHL1  H18C 1288   1.491   5.752   3.956  0.1337 -1.2420 -2.2075
   18CHL1   C12 1289   1.363   6.075   3.884  0.2962 -0.2227  0.3866
   18CHL1  H12A 1290   1.277   6.055   3.951  0.4352 -0.2102  0.5696
   18CHL1  H12B 1291   1.399   6.178   3.902 -0.0197  0.5757 -2.9038
   18CHL1   C11 1292   1.300   6.066   3.741 -0.2635 -0.0979 -0.4201
   18CHL1  H11A 1293   1.260   5.962   3.733 -0.5135 -0.0114 -0.3187
   18CHL1  H11B 1294   1.214   6.136   3.743 -1.4666 -1.5393  1.1613
   18CHL1    C9 1295   1.401   6.095   3.633  0.3215 -0.1238  0.2638
   18CHL1    H9 1296   1.439   6.196   3.659  1.6619 -0.6021  0.2354
   18CHL1   C10 1297   1.352   6.101   3.489  0.2726  0.3226 -0.9658
   18CHL1   C19 1298   1.257   5.980   3.459  0.4118 -0.0427 -0.1277
   18CHL1  H19A 1299   1.168   5.991   3.524  1.0640  2.2003  0.4930
   18CHL1  H19B 1300   1.223   5.985   3.353 -1.3199  2.6036  0.4644
   18CHL1  H19C 1301   1.298   5.881   3.487  1.0053  0.5753  1.2784
   18CHL1    C1 1302   1.268   6.240   3.473 -0.0120 -0.2726  0.1127
   18CHL1   H1A 1303   1.196   6.244   3.557 -0.0792 -0.8116  0.0870
   18CHL1   H1B 1304   1.339   6.324   3.490 -0.9443  1.4005 -3.3207
   18CHL1    C2 1305   1.203   6.258   3.337 -0.1367 -0.1568  0.5021
   18CHL1   H2A 1306   1.149   6.352   3.314  1.5214  0.4655 -1.0652
   18CHL1   H2B 1307   1.133   6.175   3.311  1.0060 -0.8079 -0.6430
   18CHL1   C20 1308   1.518   5.926   4.169 -0.0335 -0.3766  0.2212
   18CHL1   H20 1309   1.482   5.823   4.144 -0.2817 -0.5405  1.2283
   18CHL1   C21 1310   1.397   6.007   4.225 -0.3975 -0.2249 -0.2857
   18CHL1  H21A 1311   1.308   6.013   4.159 -0.6333  0.3569  0.0769
   18CHL1  H21B 1312   1.436   6.111   4.235 -1.4308  0.5410 -3.1719
   18CHL1  H21C 1313   1.357   5.970   4.322 -1.5428 -0.6945 -0.9172
   18CHL1   C22 1314   1.630   5.912   4.282 -0.0289  0.4516 -0.4072
   18CHL1  H22A 1315   1.730   5.886   4.241  0.1352 -1.1926  0.9297
   18CHL1  H22B 1316   1.639   6.017   4.316 -0.9133  0.5854 -0.5838
   18CHL1   C23 1317   1.590   5.816   4.394  0.3790 -1.6951  0.2140
   18CHL1  H23A 1318   1.496   5.859   4.436  0.5495 -0.2023 -0.8342
   18CHL1  H23B 1319   1.569   5.712   4.363 -1.7212 -1.3204  0.2189
   18CHL1   C24 1320   1.689   5.820   4.508  0.2560 -0.2442  0.7760
   18CHL1  H24A 1321   1.787   5.781   4.472 -1.2666 -2.3536 -1.4071
   18CHL1  H24B 1322   1.702   5.925   4.541  0.8825  0.0227 -0.2603
   18CHL1   C25 1323   1.639   5.730   4.621 -0.8618 -0.0684  0.3908
   18CHL1   H25 1324   1.593   5.640   4.575  0.0932 -0.1983 -0.3384
   18CHL1   C26 1325   1.759   5.685   4.700  0.2465 -0.1357  0.0912
   18CHL1  H26A 1326   1.722   5.624   4.785 -1.3828  1.1385  0.3394
   18CHL1  H26B 1327   1.820   5.621   4.632  0.3580 -1.6348  1.5415
   18CHL1  H26C 1328   1.826   5.762   4.744  2.2713 -1.0851 -1.1511
   18CHL1   C27 1329   1.555   5.812   4.717  0.7489  0.4039  0.2454
   18CHL1  H27A 1330   1.488   5.744   4.775  1.4088 -1.1640 -0.7676
   18CHL1  H27B 1331   1.602   5.886   4.785 -0.2252  0.7945  0.5226
   18CHL1  H27C 1332   1.493   5.865   4.641  0.3749 -2.1938 -1.3888
   19CHL1    C3 1333   2.535   5.350   6.528 -0.2604  0.9080 -0.1582
   19CHL1    H3 1334   2.531   5.241   6.506 -1.4381  0.9841 -0.3983
   19CHL1    O3 1335   2.579   5.371   6.657 -0.6250  0.4844 -0.2619
   19CHL1   H3' 1336   2.572   5.463   6.684 -1.1736  0.3970 -0.0978
   19CHL1    C4 1337   2.622   5.438   6.444 -0.8189  0.3695 -0.7090
   19CHL1   H4A 1338   2.620   5.544   6.477  4.2065  1.0802 -1.8207
   19CHL1   H4B 1339   2.722   5.394   6.463 -2.0890 -3.9434 -2.6136
   19CHL1    C5 1340   2.576   5.444   6.297 -1.0001 -0.3652 -0.4116
   19CHL1    C6 1341   2.660   5.401   6.200 -0.1380 -0.5788 -0.2683
   19CHL1    H6 1342   2.762   5.371   6.225 -0.1447  0.6569  1.4296
   19CHL1    C7 1343   2.621   5.391   6.057 -0.1641  0.4547 -0.1771
   19CHL1   H7A 1344   2.698   5.449   6.001  1.6583  0.2428  1.9475
   19CHL1   H7B 1345   2.624   5.284   6.029 -1.9690  0.3088  0.0807
   19CHL1    C8 1346   2.485   5.469   6.026 -0.7674  0.2344  0.8351
   19CHL1    H8 1347   2.509   5.574   6.002 -1.6805  0.3103  0.2237
   19CHL1   C14 1348   2.430   5.407   5.899 -0.2550 -0.2356  0.1383
   19CHL1   H14 1349   2.413   5.301   5.928  0.7444 -0.5944 -0.5315
   19CHL1   C15 1350   2.526   5.404   5.774  0.6290  0.3784 -0.2216
   19CHL1  H15A 1351   2.561   5.509   5.783  2.1292 -0.1244  0.1537
   19CHL1  H15B 1352   2.610   5.332   5.776  1.5827  1.4835  0.8863
   19CHL1   C16 1353   2.431   5.375   5.659  0.1412  0.3206 -0.1899
   19CHL1  H16A 1354   2.450   5.441   5.571  1.0245 -0.1778 -0.3855
   19CHL1  H16B 1355   2.450   5.269   5.630  0.9759  0.4002  0.0463
   19CHL1   C17 1356   2.284   5.389   5.709  0.0894 -0.2713 -0.8598
   19CHL1   H17 1357   2.250   5.287   5.740  0.8897 -0.0142  0.9669
   19CHL1   C13 1358   2.300   5.460   5.845  0.1299  0.1223 -0.2779
   19CHL1   C18 1359   2.318   5.619   5.823  0.5725  0.4823  0.0342
   19CHL1  H18A 1360   2.221   5.653   5.782  0.2097  0.5996  0.9796
   19CHL1  H18B 1361   2.336   5.671   5.919 -1.0984  1.4658 -0.1473
   19CHL1  H18C 1362   2.401   5.649   5.755  1.3770  1.6128  1.4508
   19CHL1   C12 1363   2.192   5.437   5.953  0.3483  0.0230 -0.1351
   19CHL1  H12A 1364   2.104   5.501   5.933 -2.0015 -3.4937 -2.1697
   19CHL1  H12B 1365   2.156   5.332   5.950 -1.0944  0.4109  1.6094
   19CHL1   C11 1366   2.231   5.484   6.095 -1.0576  0.3141 -0.5407
   19CHL1  H11A 1367   2.216   5.594   6.094 -2.6700  0.1154 -1.6464
   19CHL1  H11B 1368   2.165   5.440   6.173  0.2324  0.4036  0.6494
   19CHL1    C9 1369   2.376   5.441   6.127  0.4825  0.3210 -0.4435
   19CHL1    H9 1370   2.375   5.330   6.132 -0.0823  0.3267 -0.2617
   19CHL1   C10 1371   2.428   5.472   6.277 -0.6583 -0.0071 -0.2126
   19CHL1   C19 1372   2.395   5.625   6.307  0.3257  0.1089 -0.9473
   19CHL1  H19A 1373   2.438   5.645   6.408  1.3685 -0.8402 -1.1770
   19CHL1  H19B 1374   2.446   5.692   6.235  1.5142  0.2917  0.0362
   19CHL1  H19C 1375   2.290   5.659   6.322  0.7513  0.6332  1.1722
   19CHL1    C1 1376   2.340   5.388   6.375  0.0300  0.0528 -0.3218
   19CHL1   H1A 1377   2.236   5.427   6.372 -0.2606 -0.7055 -0.5850
   19CHL1   H1B 1378   2.339   5.283   6.338  0.6199  0.5844 -1.9619
   19CHL1    C2 1379   2.386   5.384   6.519  0.5704  0.6166 -0.7521
   19CHL1   H2A 1380   2.338   5.302   6.576  0.4036  1.1811 -0.0717
   19CHL1   H2B 1381   2.366   5.479   6.574 -1.0207 -0.9731  1.6092
   19CHL1   C20 1382   2.185   5.437   5.601 -0.0176 -0.3343  0.3358
   19CHL1   H20 1383   2.213   5.539   5.566  1.2398 -0.6794  0.3184
   19CHL1   C21 1384   2.043   5.449   5.647 -0.6638  0.0845  0.0031
   19CHL1  H21A 1385   1.994   5.355   5.679  1.7417 -2.3228 -2.7953
   19CHL1  H21B 1386   1.977   5.498   5.572 -2.2389 -0.9062  0.6785
   19CHL1  H21C 1387   2.051   5.520   5.732  0.6319 -1.0171  0.8278
   19CHL1   C22 1388   2.190   5.345   5.475  0.8899  0.1907  0.1630
   19CHL1  H22A 1389   2.292   5.338   5.432  0.7070 -1.2212 -0.0894
   19CHL1  H22B 1390   2.148   5.246   5.505  4.4535 -1.2926  0.7351
   19CHL1   C23 1391   2.106   5.389   5.352 -0.1712 -0.1280  0.4955
   19CHL1  H23A 1392   1.998   5.399   5.376 -0.3734 -0.4632 -0.2431
   19CHL1  H23B 1393   2.160   5.481   5.321  0.6042 -0.7290  0.0251
   19CHL1   C24 1394   2.126   5.283   5.242  0.4515  0.2797 -0.1057
   19CHL1  H24A 1395   2.232   5.248   5.241  0.0475 -1.0177 -0.4197
   19CHL1  H24B 1396   2.068   5.196   5.280  0.9874  0.0066  0.1035
   19CHL1   C25 1397   2.068   5.326   5.105  0.6964  0.2878 -0.2948
   19CHL1   H25 1398   2.117   5.418   5.066  0.4671  0.6134  0.1746
   19CHL1   C26 1399   2.074   5.223   4.992  0.1069  1.5606  0.1844
   19CHL1  H26A 1400   2.175   5.184   4.965 -0.4292 -0.7552  1.2703
   19CHL1  H26B 1401   2.008   5.136   5.011  0.6038  0.3939 -2.8166
   19CHL1  H26C 1402   2.041   5.263   4.894 -0.2735 -2.6455 -1.6590
   19CHL1   C27 1403   1.921   5.354   5.121 -0.1619  0.4087  0.2585
   19CHL1  H27A 1404   1.877   5.368   5.020  1.0221  1.9069 -0.0948
   19CHL1  H27B 1405   1.871   5.269   5.172  1.0738 -1.5274 -1.5936
   19CHL1  H27C 1406   1.912   5.436   5.196  0.5848  0.6994  0.0397
   20CHL1    C3 1407   6.664   1.548   6.859  0.3904 -0.4243 -0.1787
   20CHL1    H3 1408   6.675   1.658   6.858 -0.8872 -0.2109  1.7540
   20CHL1    O3 1409   6.621   1.516   6.993 -0.5549  0.1069  0.0724
   20CHL1   H3' 1410   6.547   1.455   6.992 -0.3729 -0.1375 -2.0892
   20CHL1    C4 1411   6.552   1.515   6.764 -0.3733 -0.1970  0.4484
   20CHL1   H4A 1412   6.524   1.409   6.782 -0.1412 -0.0904  1.4948
   20CHL1   H4B 1413   6.468   1.584   6.787 -0.0450 -0.6312  3.3020
   20CHL1    C5 1414   6.598   1.526   6.617  0.3393  0.6777 -0.2971
   20CHL1    C6 1415   6.525   1.605   6.529 -0.1877  0.9670 -0.2263
   20CHL1    H6 1416   6.432   1.656   6.561  0.9167  1.3956  2.5434
   20CHL1    C7 1417   6.564   1.628   6.387  0.0876 -0.0904  0.0908
   20CHL1   H7A 1418   6.476   1.601   6.324 -0.3992  2.4428 -0.4045
   20CHL1   H7B 1419   6.590   1.735   6.372 -3.1746  0.8418  0.2737
   20CHL1    C8 1420   6.681   1.553   6.337 -0.0315  0.5712 -0.3015
   20CHL1    H8 1421   6.643   1.454   6.303  1.8182 -0.0950 -0.5615
   20CHL1   C14 1422   6.747   1.629   6.224  0.1725 -0.3987  0.8159
   20CHL1   H14 1423   6.799   1.720   6.261  0.2643  0.1579 -0.6405
   20CHL1   C15 1424   6.659   1.674   6.110 -0.0236 -0.0425 -0.1523
   20CHL1  H15A 1425   6.583   1.602   6.073  0.9293 -0.1331 -2.0703
   20CHL1  H15B 1426   6.608   1.768   6.137  1.1477  0.9131 -1.1100
   20CHL1   C16 1427   6.756   1.698   5.994  0.3790 -0.2590  0.8128
   20CHL1  H16A 1428   6.731   1.640   5.903 -2.4569  0.0950  1.2715
   20CHL1  H16B 1429   6.755   1.806   5.966 -0.5724  0.8715  4.5637
   20CHL1   C17 1430   6.899   1.656   6.046  0.3174  0.5164 -0.2484
   20CHL1   H17 1431   6.941   1.745   6.097 -4.0666  2.2025  0.9647
   20CHL1   C13 1432   6.866   1.552   6.159 -0.8645 -0.4064  0.1656
   20CHL1   C18 1433   6.825   1.418   6.096  0.2250  0.1020 -0.7044
   20CHL1  H18A 1434   6.793   1.420   5.990  0.6235 -1.9431 -0.8939
   20CHL1  H18B 1435   6.915   1.353   6.097  1.5352  1.8423 -0.8484
   20CHL1  H18C 1436   6.751   1.362   6.158  0.0294  0.5245 -0.5503
   20CHL1   C12 1437   6.978   1.539   6.267  0.3082 -0.6918  0.3436
   20CHL1  H12A 1438   7.065   1.476   6.238  0.4974 -0.9075  1.3290
   20CHL1  H12B 1439   7.009   1.638   6.308  0.8084 -1.0065  0.7433
   20CHL1   C11 1440   6.922   1.466   6.393 -0.9509  0.1735  0.8128
   20CHL1  H11A 1441   6.897   1.363   6.359  0.0234 -0.0892  0.8574
   20CHL1  H11B 1442   6.994   1.457   6.477  1.2446 -0.6415 -1.0713
   20CHL1    C9 1443   6.791   1.531   6.450  0.2039 -0.3265 -0.5346
   20CHL1    H9 1444   6.821   1.633   6.484  3.5751 -1.9006  1.8105
   20CHL1   C10 1445   6.740   1.464   6.580  0.5472 -0.0346  0.1689
   20CHL1   C19 1446   6.728   1.311   6.550 -0.0101 -0.6548 -0.3631
   20CHL1  H19A 1447   6.669   1.295   6.457  1.2602 -0.0215 -1.3117
   20CHL1  H19B 1448   6.822   1.252   6.542  1.9060  2.2833 -1.0261
   20CHL1  H19C 1449   6.673   1.263   6.633 -1.2350  0.2648 -0.6203
   20CHL1    C1 1450   6.839   1.483   6.692 -0.1523 -0.8265  0.0147
   20CHL1   H1A 1451   6.929   1.418   6.695  1.0366  0.8008  2.3833
   20CHL1   H1B 1452   6.882   1.585   6.682 -0.7729 -0.5944 -0.3803
   20CHL1    C2 1453   6.792   1.469   6.843  0.0859 -0.4363 -0.0991
   20CHL1   H2A 1454   6.864   1.516   6.913 -2.1289  2.4888  0.4468
   20CHL1   H2B 1455   6.767   1.363   6.861  0.3303 -0.2285  1.6024
   20CHL1   C20 1456   6.996   1.625   5.930  0.6033 -0.0153  0.0396
   20CHL1   H20 1457   6.955   1.534   5.882 -1.6395  1.9510 -2.0499
   20CHL1   C21 1458   7.125   1.586   5.997  0.2303 -0.0618 -0.2113
   20CHL1  H21A 1459   7.121   1.489   6.051 -1.6039 -1.5252 -2.7649
   20CHL1  H21B 1460   7.158   1.656   6.076  1.1788 -0.2547 -0.4273
   20CHL1  H21C 1461   7.209   1.578   5.926  0.1841 -0.0413 -0.2683
   20CHL1   C22 1462   7.021   1.736   5.825  0.2681 -0.3592 -0.6781
   20CHL1  H22A 1463   6.927   1.789   5.800  0.1741 -0.6660 -1.0004
   20CHL1  H22B 1464   7.080   1.808   5.884 -1.5330 -0.0507  0.8112
   20CHL1   C23 1465   7.099   1.698   5.702 -0.3945  0.6176 -0.0761
   20CHL1  H23A 1466   7.195   1.651   5.734 -0.3805  1.1449  0.6796
   20CHL1  H23B 1467   7.043   1.630   5.634 -0.1005  0.5591 -0.2608
   20CHL1   C24 1468   7.143   1.828   5.634 -0.9208  0.0896  0.4405
   20CHL1  H24A 1469   7.051   1.875   5.591 -1.1936  0.6301  1.5628
   20CHL1  H24B 1470   7.182   1.878   5.725  0.3572 -1.3297  0.7176
   20CHL1   C25 1471   7.258   1.822   5.522  0.3918 -0.5076 -0.4718
   20CHL1   H25 1472   7.339   1.758   5.563  0.1588 -1.5013 -1.5296
   20CHL1   C26 1473   7.193   1.742   5.404  0.0065 -0.3933 -0.2018
   20CHL1  H26A 1474   7.253   1.756   5.311  0.6263  1.6417  0.4621
   20CHL1  H26B 1475   7.179   1.634   5.426  0.4891 -0.3762  0.2080
   20CHL1  H26C 1476   7.097   1.788   5.374  0.4837 -0.8644 -2.7775
   20CHL1   C27 1477   7.316   1.958   5.479  0.4725 -0.4170  0.2407
   20CHL1  H27A 1478   7.243   2.011   5.414  0.9781 -0.7035 -0.5755
   20CHL1  H27B 1479   7.343   2.019   5.567  1.5511 -3.2222  2.0011
   20CHL1  H27C 1480   7.408   1.942   5.418  1.5321 -1.2384  1.9817
   21CHL1    C3 1481   5.924   5.921   6.853  0.8211  0.5726  0.0090
   21CHL1    H3 1482   6.028   5.880   6.846 -0.2481 -2.1982 -1.0422
   21CHL1    O3 1483   5.877   5.924   6.982  0.1051  0.4856 -0.9375
   21CHL1   H3' 1484   5.781   5.932   6.980 -0.2067 -0.5679  2.6133
   21CHL1    C4 1485   5.915   6.057   6.788  0.0840 -0.3019 -0.3858
   21CHL1   H4A 1486   5.807   6.082   6.803 -0.3949 -1.3831 -1.7262
   21CHL1   H4B 1487   5.975   6.131   6.843 -1.7177  2.2760 -1.6787
   21CHL1    C5 1488   5.950   6.050   6.636  0.4017 -0.1465 -0.4776
   21CHL1    C6 1489   6.043   6.126   6.579 -0.0623  0.8491  1.0645
   21CHL1    H6 1490   6.094   6.199   6.643 -0.0774  1.4051  0.4489
   21CHL1    C7 1491   6.086   6.126   6.431 -0.1598 -0.2058  0.2353
   21CHL1   H7A 1492   6.090   6.227   6.385  1.1902 -0.0960  0.5702
   21CHL1   H7B 1493   6.184   6.076   6.420 -0.3579 -0.3481 -1.0297
   21CHL1    C8 1494   5.986   6.048   6.345  0.5867 -0.0057 -0.2213
   21CHL1    H8 1495   5.897   6.114   6.343  0.0160 -0.7644 -0.2290
   21CHL1   C14 1496   6.036   6.026   6.202 -0.6002 -0.7537 -0.5578
   21CHL1   H14 1497   6.121   5.954   6.205  0.3146  0.3486  0.6325
   21CHL1   C15 1498   6.089   6.151   6.125 -1.4330  0.8801 -0.4333
   21CHL1  H15A 1499   6.022   6.239   6.137 -0.9407  1.4792 -1.9221
   21CHL1  H15B 1500   6.193   6.168   6.159 -1.4211  0.6692 -0.3633
   21CHL1   C16 1501   6.095   6.096   5.979  0.2422  0.3563 -0.2786
   21CHL1  H16A 1502   6.045   6.163   5.906 -2.3849 -1.5414 -0.3744
   21CHL1  H16B 1503   6.201   6.082   5.952  0.3090  0.1971  0.0605
   21CHL1   C17 1504   6.019   5.954   5.981 -0.1102 -0.1618 -0.1795
   21CHL1   H17 1505   6.100   5.880   5.996  0.2632  0.4035  0.6046
   21CHL1   C13 1506   5.935   5.959   6.108 -0.4548  0.0058  0.1172
   21CHL1   C18 1507   5.803   6.040   6.089  0.0001  0.2670  0.4037
   21CHL1  H18A 1508   5.830   6.133   6.034  0.7605  1.0103  1.9610
   21CHL1  H18B 1509   5.723   5.976   6.046  1.0329 -0.4728 -0.4837
   21CHL1  H18C 1510   5.759   6.069   6.186 -1.3890 -0.8803  0.1430
   21CHL1   C12 1511   5.907   5.826   6.176 -0.2849  0.8280 -0.3323
   21CHL1  H12A 1512   5.826   5.777   6.117  0.0882 -0.4424  0.1726
   21CHL1  H12B 1513   5.996   5.761   6.164  1.3082  3.1221 -1.5394
   21CHL1   C11 1514   5.843   5.839   6.319 -0.1748  0.2588  0.1052
   21CHL1  H11A 1515   5.745   5.886   6.295 -1.7013 -3.2294 -1.1572
   21CHL1  H11B 1516   5.815   5.739   6.359 -2.6157  0.1839 -1.5963
   21CHL1    C9 1517   5.932   5.924   6.415 -0.7124 -0.2029 -0.1946
   21CHL1    H9 1518   6.019   5.858   6.435 -0.2628  0.8680  1.6073
   21CHL1   C10 1519   5.867   5.950   6.554  0.4959 -0.1759 -0.3379
   21CHL1   C19 1520   5.724   6.010   6.542  0.4045 -0.0733  0.1986
   21CHL1  H19A 1521   5.724   6.105   6.485 -1.8236 -0.1948 -0.1137
   21CHL1  H19B 1522   5.653   5.951   6.480  1.2137 -1.4413  0.5495
   21CHL1  H19C 1523   5.675   6.012   6.642 -0.1860 -0.8337 -0.0653
   21CHL1    C1 1524   5.854   5.812   6.633  0.4285 -0.2093  0.2149
   21CHL1   H1A 1525   5.779   5.745   6.586 -0.4379  0.4868  0.5867
   21CHL1   H1B 1526   5.956   5.768   6.627  0.4986  0.0275 -0.4689
   21CHL1    C2 1527   5.831   5.816   6.789  0.0197  0.1150  0.4393
   21CHL1   H2A 1528   5.857   5.716   6.831  2.2026  0.7121  0.6720
   21CHL1   H2B 1529   5.726   5.848   6.802 -0.5297 -0.9176 -1.1883
   21CHL1   C20 1530   5.963   5.918   5.841  0.7694  0.0184 -0.0323
   21CHL1   H20 1531   5.906   6.003   5.799 -2.1007  0.2535  3.7836
   21CHL1   C21 1532   5.887   5.781   5.855  0.1762  0.0515  0.4786
   21CHL1  H21A 1533   5.799   5.776   5.921 -0.1524  0.6341  0.0900
   21CHL1  H21B 1534   5.965   5.704   5.878 -0.5293 -0.7420  0.2871
   21CHL1  H21C 1535   5.843   5.747   5.759 -1.6242  0.4435  1.1247
   21CHL1   C22 1536   6.068   5.900   5.733 -0.0181  0.5354  0.1971
   21CHL1  H22A 1537   6.139   5.984   5.746  0.6476  0.3099 -1.6005
   21CHL1  H22B 1538   6.121   5.803   5.752  0.1791 -0.3132 -3.7546
   21CHL1   C23 1539   6.031   5.887   5.588  0.6553 -0.5283  0.1443
   21CHL1  H23A 1540   5.962   5.801   5.577 -1.1892  0.9221 -0.1565
   21CHL1  H23B 1541   5.979   5.984   5.573  1.0739 -0.4898 -1.1512
   21CHL1   C24 1542   6.152   5.888   5.491  0.6984 -0.3699 -0.4705
   21CHL1  H24A 1543   6.186   5.993   5.480  0.5418 -0.1694  0.7786
   21CHL1  H24B 1544   6.224   5.823   5.545  1.3948  1.5901  1.1043
   21CHL1   C25 1545   6.116   5.835   5.350 -0.0566 -0.1969  0.5807
   21CHL1   H25 1546   6.088   5.729   5.364  1.1267 -0.3711  1.8373
   21CHL1   C26 1547   6.000   5.927   5.291  0.7598  0.3859 -0.3620
   21CHL1  H26A 1548   6.020   6.036   5.292  3.1208  0.0068 -0.5773
   21CHL1  H26B 1549   5.967   5.889   5.193  0.0146 -0.6129  0.2545
   21CHL1  H26C 1550   5.915   5.898   5.357  2.2643  0.6023  1.8048
   21CHL1   C27 1551   6.247   5.843   5.263 -0.2860 -0.1580 -0.7043
   21CHL1  H27A 1552   6.337   5.810   5.318  0.3788  1.2398 -0.9030
   21CHL1  H27B 1553   6.250   5.783   5.170  2.0940 -0.6728 -0.3661
   21CHL1  H27C 1554   6.275   5.950   5.250 -1.2207  0.1189 -0.5111
   22CHL1    C3 1555   0.016   3.181   6.557 -0.7611  0.1437  1.3069
   22CHL1    H3 1556   0.091   3.099   6.561 -0.8401 -0.1074 -1.2613
   22CHL1    O3 1557  -0.006   3.215   6.690  0.5928  0.3993 -0.2775
   22CHL1   H3' 1558  -0.101   3.206   6.704  0.4807 -0.3435 -1.3917
   22CHL1    C4 1559   0.067   3.316   6.502  0.3344  0.7532 -0.4179
   22CHL1   H4A 1560   0.004   3.400   6.541 -1.2358 -1.2760  1.6780
   22CHL1   H4B 1561   0.168   3.338   6.542  1.0900  0.1486 -1.9175
   22CHL1    C5 1562   0.081   3.316   6.347 -0.7537  0.3760  0.1312
   22CHL1    C6 1563   0.206   3.353   6.292  0.1892  0.4028  0.6771
   22CHL1    H6 1564   0.282   3.393   6.361 -1.7300  0.1470  3.0842
   22CHL1    C7 1565   0.228   3.359   6.149  0.0116  0.2760  0.4747
   22CHL1   H7A 1566   0.277   3.457   6.126 -0.5014  0.4569  0.1452
   22CHL1   H7B 1567   0.284   3.268   6.120 -0.0829  1.0605 -2.4929
   22CHL1    C8 1568   0.096   3.357   6.071  0.2986 -0.1531 -0.2770
   22CHL1    H8 1569   0.049   3.457   6.090  0.3711 -0.0358 -0.7073
   22CHL1   C14 1570   0.126   3.334   5.923  0.4734 -0.6545 -0.1537
   22CHL1   H14 1571   0.172   3.233   5.914 -0.0369 -0.9091  0.0011
   22CHL1   C15 1572   0.212   3.437   5.851  0.1145 -0.2468 -0.5679
   22CHL1  H15A 1573   0.164   3.534   5.878 -2.3400 -1.1901 -1.2247
   22CHL1  H15B 1574   0.319   3.447   5.879 -0.2928  1.7036  0.4758
   22CHL1   C16 1575   0.197   3.402   5.704  0.2795  0.0926 -0.1696
   22CHL1  H16A 1576   0.185   3.501   5.655  1.0514 -0.2831 -1.1734
   22CHL1  H16B 1577   0.288   3.346   5.671  1.1493 -1.6976  4.4939
   22CHL1   C17 1578   0.078   3.301   5.690  1.0594  0.8163 -0.2072
   22CHL1   H17 1579   0.114   3.196   5.694  0.7852  0.7229 -0.1537
   22CHL1   C13 1580   0.003   3.314   5.827  0.2863  0.2454 -0.0434
   22CHL1   C18 1581  -0.080   3.446   5.835  0.0350  0.2283 -0.6660
   22CHL1  H18A 1582  -0.025   3.530   5.788  2.6217 -1.2170 -0.4353
   22CHL1  H18B 1583  -0.179   3.433   5.786 -0.7231 -2.5806  1.3475
   22CHL1  H18C 1584  -0.091   3.462   5.944  0.8206  0.2016 -0.5781
   22CHL1   C12 1585  -0.073   3.191   5.878  0.0991 -0.8724  0.2391
   22CHL1  H12A 1586  -0.162   3.165   5.817 -1.0759 -0.4322  1.7233
   22CHL1  H12B 1587  -0.002   3.106   5.869  0.6128 -0.4752  0.4490
   22CHL1   C11 1588  -0.109   3.203   6.021 -0.2275  0.0265 -0.6255
   22CHL1  H11A 1589  -0.180   3.288   6.027  0.4173  0.4909  0.4378
   22CHL1  H11B 1590  -0.164   3.119   6.069 -0.1223  0.5076  0.3393
   22CHL1    C9 1591   0.003   3.245   6.117  0.4848 -0.0182 -0.0705
   22CHL1    H9 1592   0.068   3.155   6.129  1.7628  0.8317 -0.3605
   22CHL1   C10 1593  -0.042   3.268   6.266  0.3243  0.3753 -0.4055
   22CHL1   C19 1594  -0.162   3.366   6.270 -0.5064  0.0639  0.1429
   22CHL1  H19A 1595  -0.250   3.316   6.224 -0.1409 -0.8417  0.4153
   22CHL1  H19B 1596  -0.180   3.389   6.377  0.1232  0.1190  0.2381
   22CHL1  H19C 1597  -0.136   3.458   6.213  0.1762 -0.3601 -0.2442
   22CHL1    C1 1598  -0.097   3.132   6.333 -0.0020 -0.2280  0.5528
   22CHL1   H1A 1599  -0.191   3.109   6.280 -0.4834  0.8525  0.9267
   22CHL1   H1B 1600  -0.026   3.049   6.311 -0.4123 -0.6302  0.7327
   22CHL1    C2 1601  -0.121   3.146   6.485 -0.4828  0.5632  0.2012
   22CHL1   H2A 1602  -0.154   3.047   6.523 -1.2758 -0.0201 -1.9062
   22CHL1   H2B 1603  -0.184   3.232   6.516  0.4099  1.5705 -0.7231
   22CHL1   C20 1604   0.005   3.328   5.551 -0.1213  0.5053 -0.3360
   22CHL1   H20 1605  -0.045   3.427   5.544 -0.5417  0.2592 -0.8738
   22CHL1   C21 1606  -0.099   3.213   5.543 -0.1795 -0.7307  0.5496
   22CHL1  H21A 1607  -0.171   3.205   5.627 -0.2233  0.5160  0.6464
   22CHL1  H21B 1608  -0.044   3.116   5.541  0.7948 -0.1870  0.2782
   22CHL1  H21C 1609  -0.154   3.220   5.447  0.2497  1.5343  0.4021
   22CHL1   C22 1610   0.104   3.321   5.430 -0.1493  1.0361 -0.5594
   22CHL1  H22A 1611   0.191   3.389   5.439 -0.6967  1.9681 -1.9774
   22CHL1  H22B 1612   0.146   3.220   5.446  0.9486  1.4439 -0.7860
   22CHL1   C23 1613   0.041   3.357   5.294  0.0083  0.6153 -0.8694
   22CHL1  H23A 1614  -0.026   3.272   5.268  1.0665 -0.4218 -0.3480
   22CHL1  H23B 1615  -0.024   3.445   5.308 -1.5194 -0.8847  2.6237
   22CHL1   C24 1616   0.155   3.382   5.197  0.7018  0.1439 -0.5895
   22CHL1  H24A 1617   0.111   3.413   5.100 -1.1484  2.2785  0.8439
   22CHL1  H24B 1618   0.218   3.464   5.237  0.9730  0.1669 -1.0481
   22CHL1   C25 1619   0.247   3.266   5.163 -0.3193 -0.2929  0.2264
   22CHL1   H25 1620   0.289   3.227   5.259  0.8763 -3.3635 -1.4094
   22CHL1   C26 1621   0.178   3.149   5.087  0.2185 -0.2277 -0.3575
   22CHL1  H26A 1622   0.149   3.191   4.988  0.0966  0.4689 -0.0382
   22CHL1  H26B 1623   0.250   3.067   5.070  1.1847  0.7515 -1.1601
   22CHL1  H26C 1624   0.085   3.123   5.142  0.4247  0.5319  0.3801
   22CHL1   C27 1625   0.376   3.313   5.082  0.4838  0.3697 -0.1310
   22CHL1  H27A 1626   0.434   3.230   5.037 -0.6825  0.4202 -1.8205
   22CHL1  H27B 1627   0.345   3.378   4.997  0.3299  0.3733 -0.0724
   22CHL1  H27C 1628   0.448   3.374   5.141  1.9006  0.5788 -2.0102
   23CHL1    C3 1629   1.198   5.809   6.479  0.1220  0.7006  0.6002
   23CHL1    H3 1630   1.269   5.736   6.433  0.5049  1.2689  0.2782
   23CHL1    O3 1631   1.207   5.783   6.611 -0.3107 -0.2538  0.0384
   23CHL1   H3' 1632   1.138   5.837   6.651 -1.7423 -1.0346 -1.2768
   23CHL1    C4 1633   1.238   5.951   6.454  0.1082 -0.4923 -0.5876
   23CHL1   H4A 1634   1.172   6.017   6.515 -1.9863 -1.5590 -1.5909
   23CHL1   H4B 1635   1.343   5.953   6.490 -0.1781 -2.6196  0.5337
   23CHL1    C5 1636   1.230   5.976   6.307 -0.8433  0.6272  0.0182
   23CHL1    C6 1637   1.335   6.011   6.234  0.0718 -0.0706 -0.7589
   23CHL1    H6 1638   1.434   6.031   6.277 -0.5541  2.4886 -0.3182
   23CHL1    C7 1639   1.338   6.036   6.086 -0.5391  0.8374 -0.7372
   23CHL1   H7A 1640   1.387   6.135   6.074 -0.0226  0.9273  1.5799
   23CHL1   H7B 1641   1.398   5.957   6.036 -0.9101 -1.0798  1.6357
   23CHL1    C8 1642   1.193   6.055   6.031 -0.6905 -0.3923 -0.3090
   23CHL1    H8 1643   1.154   6.148   6.076 -0.3502 -0.5067  0.2239
   23CHL1   C14 1644   1.196   6.040   5.884  0.4021  0.1760  0.1359
   23CHL1   H14 1645   1.233   5.940   5.851  1.6901  1.3928 -2.3707
   23CHL1   C15 1646   1.283   6.137   5.814 -0.2514  0.3526  0.2303
   23CHL1  H15A 1647   1.272   6.239   5.857  0.5799  1.2862 -1.6340
   23CHL1  H15B 1648   1.390   6.110   5.804  0.1909  0.6669  3.2651
   23CHL1   C16 1649   1.232   6.138   5.665  0.2506  0.4762 -0.2873
   23CHL1  H16A 1650   1.251   6.237   5.619 -0.1876  0.4519 -0.5293
   23CHL1  H16B 1651   1.301   6.078   5.602 -1.0301 -0.3730 -0.9209
   23CHL1   C17 1652   1.094   6.064   5.667  0.0202  0.1672  0.4236
   23CHL1   H17 1653   1.116   5.963   5.627  1.0913  0.7968 -0.6702
   23CHL1   C13 1654   1.056   6.056   5.815 -0.0129 -0.2931 -0.6671
   23CHL1   C18 1655   0.986   6.183   5.864 -0.2487 -0.0226  0.4425
   23CHL1  H18A 1656   0.882   6.183   5.824 -0.0821  0.9874 -0.0344
   23CHL1  H18B 1657   0.978   6.173   5.974 -1.2768 -3.2616  0.1663
   23CHL1  H18C 1658   1.037   6.275   5.828  0.9426 -1.3341 -1.3160
   23CHL1   C12 1659   0.978   5.938   5.856 -0.1197 -0.3725 -0.1618
   23CHL1  H12A 1660   0.878   5.934   5.807 -1.5276 -1.1762  2.5684
   23CHL1  H12B 1661   1.033   5.851   5.817  1.9719  0.9173 -0.2487
   23CHL1   C11 1662   0.959   5.928   6.010 -0.6597  0.3703 -0.0167
   23CHL1  H11A 1663   0.899   6.014   6.048  0.6109  1.7279 -0.9408
   23CHL1  H11B 1664   0.905   5.834   6.032  0.6630 -0.8533 -1.7860
   23CHL1    C9 1665   1.100   5.936   6.080 -0.1551  0.5165 -0.4005
   23CHL1    H9 1666   1.155   5.846   6.045 -0.6232 -0.4391  1.2438
   23CHL1   C10 1667   1.094   5.933   6.237  0.1741 -0.3533  0.4882
   23CHL1   C19 1668   0.990   6.035   6.286 -0.0144 -0.5262 -0.0361
   23CHL1  H19A 1669   1.008   6.138   6.249  3.3061  0.0018  2.5454
   23CHL1  H19B 1670   0.891   5.991   6.264  0.6608 -1.4800 -1.3261
   23CHL1  H19C 1671   0.993   6.042   6.397 -0.3577  0.5078 -0.0821
   23CHL1    C1 1672   1.053   5.787   6.281 -0.7791 -0.6086  1.2552
   23CHL1   H1A 1673   0.956   5.765   6.232 -0.6526  2.4268 -0.5831
   23CHL1   H1B 1674   1.121   5.714   6.233 -0.4983 -0.3383  1.2369
   23CHL1    C2 1675   1.055   5.769   6.427  0.2131 -0.1442 -0.2914
   23CHL1   H2A 1676   1.039   5.662   6.451  1.0608 -0.0426  0.8051
   23CHL1   H2B 1677   0.978   5.829   6.480 -1.7596 -2.4264 -0.4306
   23CHL1   C20 1678   0.999   6.127   5.560  0.4576 -0.1441  1.0611
   23CHL1   H20 1679   0.981   6.234   5.584 -0.4407 -0.0047 -0.1573
   23CHL1   C21 1680   0.862   6.049   5.564  0.0842  0.3031  0.1759
   23CHL1  H21A 1681   0.897   5.943   5.557  1.2070  0.6859 -0.1708
   23CHL1  H21B 1682   0.808   6.065   5.467  0.0789 -1.2917 -0.1207
   23CHL1  H21C 1683   0.804   6.071   5.656  2.9384  1.9636  1.6746
   23CHL1   C22 1684   1.057   6.118   5.418 -0.1832 -0.2936  0.2267
   23CHL1  H22A 1685   1.168   6.127   5.420 -0.1833 -0.1556 -0.3092
   23CHL1  H22B 1686   1.038   6.022   5.366 -1.2586  0.9638 -1.8173
   23CHL1   C23 1687   0.989   6.215   5.316 -0.1410  0.4063 -1.0729
   23CHL1  H23A 1688   1.016   6.184   5.213  0.5699 -1.5282 -0.3545
   23CHL1  H23B 1689   0.878   6.207   5.328  0.0284  0.2711  0.5974
   23CHL1   C24 1690   1.020   6.365   5.333  0.7493  0.3304 -0.6126
   23CHL1  H24A 1691   1.015   6.373   5.443 -3.0460  0.1906 -0.6359
   23CHL1  H24B 1692   1.118   6.401   5.294  0.7321  1.4820  0.3520
   23CHL1   C25 1693   0.932   6.476   5.267 -0.6073  0.0071 -0.4578
   23CHL1   H25 1694   0.828   6.444   5.287 -0.9547  2.0907  1.4590
   23CHL1   C26 1695   0.960   6.610   5.330  0.0040 -0.7616 -0.8793
   23CHL1  H26A 1696   0.902   6.693   5.284 -0.6145  0.3950  1.7884
   23CHL1  H26B 1697   0.922   6.599   5.434 -2.2584 -3.9844 -1.9023
   23CHL1  H26C 1698   1.067   6.641   5.326  0.2420 -0.8471  2.2742
   23CHL1   C27 1699   0.957   6.476   5.116  0.2835 -0.6212  0.6309
   23CHL1  H27A 1700   1.059   6.512   5.090  0.4302  0.4343  2.5114
   23CHL1  H27B 1701   0.942   6.370   5.087 -0.7102 -0.4688  0.5582
   23CHL1  H27C 1702   0.881   6.525   5.052  0.7249 -1.2687 -0.4218
   24CHL1    C3 1703   0.776   4.026   6.603 -0.2135 -1.0601  0.6461
   24CHL1    H3 1704   0.848   3.957   6.554  0.4040  0.1615 -0.2242
   24CHL1    O3 1705   0.784   4.011   6.742  0.1333  0.2321 -0.0392
   24CHL1   H3' 1706   0.823   3.927   6.768  1.0181  0.9622  1.1343
   24CHL1    C4 1707   0.799   4.173   6.568 -0.2320 -0.3167  0.7040
   24CHL1   H4A 1708   0.729   4.247   6.614  0.9815  1.8841 -0.7852
   24CHL1   H4B 1709   0.897   4.216   6.599  0.0774 -0.1471 -0.4536
   24CHL1    C5 1710   0.777   4.193   6.417  0.2823  0.0487  0.9706
   24CHL1    C6 1711   0.875   4.253   6.337 -0.1267 -0.2196 -0.0107
   24CHL1    H6 1712   0.968   4.286   6.387 -0.1740 -0.6945  0.3922
   24CHL1    C7 1713   0.857   4.284   6.191 -0.2838  0.2469 -0.6346
   24CHL1   H7A 1714   0.885   4.389   6.168  0.7283 -0.3747 -2.4837
   24CHL1   H7B 1715   0.925   4.219   6.132 -1.6220 -1.8573  0.0365
   24CHL1    C8 1716   0.719   4.261   6.126  0.0553  0.7786  0.0685
   24CHL1    H8 1717   0.664   4.358   6.121 -0.9030  0.2885  0.8004
   24CHL1   C14 1718   0.732   4.205   5.982 -0.0111  1.1259 -0.2773
   24CHL1   H14 1719   0.765   4.100   5.995 -1.7939  0.5431 -0.1841
   24CHL1   C15 1720   0.836   4.269   5.883 -0.1129 -0.1659 -0.4646
   24CHL1  H15A 1721   0.838   4.378   5.863 -0.4180 -0.4184 -1.9824
   24CHL1  H15B 1722   0.933   4.229   5.920 -0.7174 -1.1946  0.0459
   24CHL1   C16 1723   0.794   4.206   5.747 -0.3829  0.7786  0.4037
   24CHL1  H16A 1724   0.771   4.285   5.673 -0.1057  1.8133  1.4070
   24CHL1  H16B 1725   0.879   4.148   5.703  0.4825  3.1119 -1.2190
   24CHL1   C17 1726   0.661   4.126   5.772 -0.0703  0.5285 -0.0757
   24CHL1   H17 1727   0.697   4.024   5.797 -0.4645  0.5826  0.7239
   24CHL1   C13 1728   0.601   4.187   5.897  0.2816 -0.3407  0.0505
   24CHL1   C18 1729   0.533   4.322   5.876  0.9589  0.1839  0.4548
   24CHL1  H18A 1730   0.439   4.307   5.818  1.2424 -0.4485  0.1448
   24CHL1  H18B 1731   0.494   4.366   5.970  0.1168 -1.1703  0.7663
   24CHL1  H18C 1732   0.597   4.391   5.817  2.2388 -1.0568  0.3209
   24CHL1   C12 1733   0.512   4.088   5.978  0.1341  0.9897 -1.0901
   24CHL1  H12A 1734   0.413   4.080   5.930  0.6912 -0.4625 -2.0531
   24CHL1  H12B 1735   0.550   3.984   5.967  1.6437  1.5751 -1.8087
   24CHL1   C11 1736   0.495   4.129   6.127 -1.0952 -0.5501  0.4709
   24CHL1  H11A 1737   0.444   4.226   6.139 -0.8339 -0.3199 -0.2697
   24CHL1  H11B 1738   0.449   4.049   6.190 -0.1818  0.4126  2.4743
   24CHL1    C9 1739   0.635   4.153   6.204 -0.4063 -0.4210  0.0319
   24CHL1    H9 1740   0.685   4.056   6.183 -0.0557 -0.0868 -0.7209
   24CHL1   C10 1741   0.638   4.154   6.358  0.2574  0.2235 -0.4740
   24CHL1   C19 1742   0.536   4.254   6.405 -0.7916 -0.6853 -0.3097
   24CHL1  H19A 1743   0.432   4.220   6.387 -1.3497 -0.4374  2.0471
   24CHL1  H19B 1744   0.534   4.285   6.512 -1.0422 -1.3352 -0.1234
   24CHL1  H19C 1745   0.548   4.346   6.344 -0.4318 -0.2037  0.4594
   24CHL1    C1 1746   0.603   4.012   6.412 -0.5082 -0.3062 -0.3619
   24CHL1   H1A 1747   0.499   3.995   6.378  0.1470 -0.8670 -2.2261
   24CHL1   H1B 1748   0.662   3.946   6.345 -1.3498  0.1956 -1.6337
   24CHL1    C2 1749   0.634   3.994   6.557  0.5038 -0.2196  0.3170
   24CHL1   H2A 1750   0.605   3.892   6.590  0.4875 -1.0175 -1.9586
   24CHL1   H2B 1751   0.562   4.057   6.614  0.1654 -0.6652  0.3918
   24CHL1   C20 1752   0.576   4.115   5.640 -0.1780 -0.7873 -0.0571
   24CHL1   H20 1753   0.526   4.211   5.612  1.2516  0.1781  0.5667
   24CHL1   C21 1754   0.464   4.015   5.659 -0.1414 -0.2178 -0.1714
   24CHL1  H21A 1755   0.500   3.920   5.705 -0.9344  0.2267  1.4519
   24CHL1  H21B 1756   0.413   4.003   5.561  1.8981 -1.1266 -1.1964
   24CHL1  H21C 1757   0.390   4.061   5.728 -0.5852  1.7738 -1.8883
   24CHL1   C22 1758   0.667   4.081   5.516  0.0684  0.0713  0.5630
   24CHL1  H22A 1759   0.745   4.159   5.508 -1.4017  1.5773  0.2955
   24CHL1  H22B 1760   0.719   3.986   5.540  1.7621  0.7979 -0.0802
   24CHL1   C23 1761   0.589   4.071   5.382  0.2204 -0.8929 -0.3395
   24CHL1  H23A 1762   0.534   3.975   5.388  1.7820 -1.7710  0.5912
   24CHL1  H23B 1763   0.511   4.150   5.381  1.1488  0.0725  0.9255
   24CHL1   C24 1764   0.682   4.049   5.261  0.3786 -0.0961 -0.1388
   24CHL1  H24A 1765   0.730   3.949   5.252  1.9136  0.6727 -0.9111
   24CHL1  H24B 1766   0.606   4.032   5.183 -0.0759 -3.1407  0.8361
   24CHL1   C25 1767   0.766   4.170   5.213  0.6253 -1.0033 -0.6180
   24CHL1   H25 1768   0.827   4.196   5.302 -0.1150  0.1881 -0.4418
   24CHL1   C26 1769   0.845   4.116   5.093 -0.6936 -0.7008 -0.1648
   24CHL1  H26A 1770   0.926   4.045   5.123 -1.0420 -1.0004  0.0774
   24CHL1  H26B 1771   0.778   4.053   5.031  0.2348  0.1775 -2.1383
   24CHL1  H26C 1772   0.899   4.188   5.029  1.6627 -1.7888  0.4594
   24CHL1   C27 1773   0.678   4.291   5.176  0.2220  0.4620 -0.2157
   24CHL1  H27A 1774   0.609   4.324   5.256 -0.4029 -1.0653 -0.0722
   24CHL1  H27B 1775   0.742   4.372   5.135 -1.1543 -0.1273 -3.9452
   24CHL1  H27C 1776   0.621   4.241   5.094  1.4184  0.5267 -1.1244
   25CHL1    C3 1777   3.897   4.132   6.864 -0.0441 -0.7107 -0.1538
   25CHL1    H3 1778   3.795   4.098   6.893 -0.3100  0.3247  0.1566
   25CHL1    O3 1779   3.967   4.140   6.988 -0.0697 -1.0065 -0.0834
   25CHL1   H3' 1780   4.058   4.165   6.970 -0.2414  0.3931  0.7834
   25CHL1    C4 1781   3.971   4.030   6.782  0.7517 -0.7025  0.2789
   25CHL1   H4A 1782   4.082   4.046   6.780  0.7413 -0.6653 -0.1553
   25CHL1   H4B 1783   3.963   3.935   6.838  1.3692 -0.7003  0.3812
   25CHL1    C5 1784   3.929   4.018   6.639  0.4619  0.2779  0.2048
   25CHL1    C6 1785   3.888   3.897   6.582 -0.2288  0.4280  0.2892
   25CHL1    H6 1786   3.881   3.811   6.649 -3.2288  0.9703  0.7837
   25CHL1    C7 1787   3.851   3.871   6.437  0.0570  0.5821 -0.6128
   25CHL1   H7A 1788   3.894   3.773   6.406  1.0055  0.6161  0.5305
   25CHL1   H7B 1789   3.741   3.857   6.429 -0.3756  2.5203  1.3631
   25CHL1    C8 1790   3.901   3.994   6.360 -0.4467 -0.5343  0.7761
   25CHL1    H8 1791   4.010   3.993   6.340 -0.7664  1.0139 -1.5829
   25CHL1   C14 1792   3.844   3.977   6.216 -0.2771 -0.7050  1.2483
   25CHL1   H14 1793   3.737   3.976   6.244  0.2364 -2.2604  3.3937
   25CHL1   C15 1794   3.864   3.852   6.136 -0.3333  0.8492  0.4385
   25CHL1  H15A 1795   3.966   3.809   6.128 -0.2244  1.4639 -2.4274
   25CHL1  H15B 1796   3.797   3.773   6.176 -2.0261  1.8022 -0.3994
   25CHL1   C16 1797   3.819   3.890   5.994 -0.2727 -0.0037 -0.2914
   25CHL1  H16A 1798   3.899   3.855   5.925  0.8497 -2.1158  1.9124
   25CHL1  H16B 1799   3.734   3.830   5.955  0.1399 -1.5523  1.0964
   25CHL1   C17 1800   3.815   4.043   5.993 -0.3797  0.1701  0.2824
   25CHL1   H17 1801   3.708   4.071   6.004 -0.6458 -0.5153 -0.4908
   25CHL1   C13 1802   3.878   4.094   6.122 -0.1541 -0.0508  0.4907
   25CHL1   C18 1803   4.032   4.108   6.099  0.2157 -0.1930 -0.0490
   25CHL1  H18A 1804   4.074   4.012   6.060  0.1589  0.0730 -0.7754
   25CHL1  H18B 1805   4.049   4.188   6.024 -0.7861  0.9376  0.8964
   25CHL1  H18C 1806   4.082   4.127   6.196  1.4976 -0.1093 -0.7066
   25CHL1   C12 1807   3.827   4.227   6.195  0.3408 -0.0195  0.8588
   25CHL1  H12A 1808   3.839   4.322   6.138  1.7640 -0.1305  0.9432
   25CHL1  H12B 1809   3.717   4.214   6.208  0.2695  0.5249  0.8095
   25CHL1   C11 1810   3.887   4.249   6.334 -0.3613 -0.1655  0.3283
   25CHL1  H11A 1811   3.992   4.281   6.315 -0.0920 -0.6401  0.9707
   25CHL1  H11B 1812   3.845   4.348   6.362  2.1376  1.6084 -1.7449
   25CHL1    C9 1813   3.871   4.129   6.426 -0.1462  0.2043 -0.0685
   25CHL1    H9 1814   3.762   4.125   6.447 -0.0856  1.0164  0.4308
   25CHL1   C10 1815   3.937   4.149   6.562  0.3726  0.5526  0.1147
   25CHL1   C19 1816   4.087   4.195   6.561 -0.6346  0.1856 -0.0003
   25CHL1  H19A 1817   4.131   4.134   6.480  3.2837  0.9441  1.3687
   25CHL1  H19B 1818   4.089   4.303   6.534 -0.3949  0.0254 -0.6510
   25CHL1  H19C 1819   4.152   4.177   6.649  1.2139 -1.5524 -1.6192
   25CHL1    C1 1820   3.852   4.249   6.639 -0.1895 -0.2520  0.2002
   25CHL1   H1A 1821   3.854   4.350   6.593  0.4585 -1.4052 -2.4792
   25CHL1   H1B 1822   3.742   4.230   6.636 -0.8669  2.9818  0.9152
   25CHL1    C2 1823   3.886   4.264   6.789  0.2628  0.3721  0.3016
   25CHL1   H2A 1824   3.816   4.333   6.841  2.3352  0.6728  2.9057
   25CHL1   H2B 1825   3.982   4.320   6.788  0.9767 -0.8248 -0.7266
   25CHL1   C20 1826   3.859   4.099   5.849 -0.0965 -0.2017 -0.5711
   25CHL1   H20 1827   3.969   4.088   5.842  0.0213  0.0727  0.6973
   25CHL1   C21 1828   3.845   4.257   5.834 -0.1212  0.3022  0.3325
   25CHL1  H21A 1829   3.887   4.312   5.921  1.0938 -2.3311  1.5235
   25CHL1  H21B 1830   3.738   4.283   5.824 -0.5991 -1.4591  0.6185
   25CHL1  H21C 1831   3.890   4.296   5.740  1.2698 -0.0306  0.8414
   25CHL1   C22 1832   3.799   4.029   5.724 -0.4952  0.1770 -0.3002
   25CHL1  H22A 1833   3.797   3.919   5.732 -0.9577 -0.0341 -2.6885
   25CHL1  H22B 1834   3.690   4.054   5.722 -0.0260  2.4301 -0.5550
   25CHL1   C23 1835   3.877   4.050   5.593 -0.4533  0.0044 -0.7222
   25CHL1  H23A 1836   3.865   4.157   5.568 -0.5722  0.0357 -0.5380
   25CHL1  H23B 1837   3.983   4.024   5.612 -0.3772  0.7373 -0.0667
   25CHL1   C24 1838   3.818   3.955   5.487  0.0123  0.3635  0.0444
   25CHL1  H24A 1839   3.819   3.848   5.516 -2.5437  0.0635 -0.7417
   25CHL1  H24B 1840   3.713   3.990   5.486  0.2290  1.1199  1.0662
   25CHL1   C25 1841   3.894   3.968   5.358  1.1870  0.3333  0.6036
   25CHL1   H25 1842   3.884   4.073   5.324  0.2524 -0.5342 -2.1368
   25CHL1   C26 1843   4.038   3.922   5.365 -0.1060  0.1970  0.0201
   25CHL1  H26A 1844   4.054   3.821   5.409 -0.5985  0.5678  1.0855
   25CHL1  H26B 1845   4.075   3.916   5.261 -0.2313 -0.1903 -0.0018
   25CHL1  H26C 1846   4.099   4.002   5.414 -0.6374 -0.8278  2.5151
   25CHL1   C27 1847   3.831   3.870   5.259  0.0162 -0.4112 -0.2475
   25CHL1  H27A 1848   3.850   3.766   5.291 -1.2481 -0.1059  1.6435
   25CHL1  H27B 1849   3.724   3.900   5.255 -0.3181 -1.6808 -3.5816
   25CHL1  H27C 1850   3.868   3.894   5.157  0.9793  0.3217  0.2578
   26CHL1    C3 1851   3.938   5.957   6.623 -0.1017  0.0091  0.8744
   26CHL1    H3 1852   3.841   5.934   6.672  0.7379 -1.1309  2.0756
   26CHL1    O3 1853   4.037   5.958   6.729 -0.4004 -0.4040 -0.3932
   26CHL1   H3' 1854   4.116   5.951   6.676 -0.6227 -0.3503 -0.7377
   26CHL1    C4 1855   3.974   5.854   6.515 -0.0394 -0.2443  0.5631
   26CHL1   H4A 1856   4.082   5.877   6.499 -0.1660  0.5365  0.7934
   26CHL1   H4B 1857   3.956   5.753   6.558  1.5917 -0.7079  0.2391
   26CHL1    C5 1858   3.909   5.871   6.380  0.3190  0.0798 -0.2732
   26CHL1    C6 1859   3.854   5.762   6.317  0.2258 -0.1569 -0.0461
   26CHL1    H6 1860   3.878   5.663   6.358  3.8085 -0.2370 -1.8858
   26CHL1    C7 1861   3.788   5.761   6.189  0.5014  0.2454 -0.5078
   26CHL1   H7A 1862   3.808   5.671   6.127 -0.4453  0.3179 -0.9437
   26CHL1   H7B 1863   3.680   5.753   6.213  0.6891  0.4250  0.4551
   26CHL1    C8 1864   3.826   5.890   6.108 -0.3541 -0.0380 -0.1226
   26CHL1    H8 1865   3.932   5.883   6.072 -0.3024  1.4647 -0.3456
   26CHL1   C14 1866   3.746   5.902   5.984  0.1275 -0.1532  0.1331
   26CHL1   H14 1867   3.640   5.906   6.018  0.0411 -0.4594 -0.1004
   26CHL1   C15 1868   3.754   5.784   5.891 -0.0107 -0.1727 -0.0383
   26CHL1  H15A 1869   3.861   5.756   5.885 -0.1570 -0.6100 -0.6159
   26CHL1  H15B 1870   3.695   5.698   5.929 -0.7674  1.1273  1.8800
   26CHL1   C16 1871   3.705   5.841   5.756  0.9877 -0.2833  0.3700
   26CHL1  H16A 1872   3.787   5.812   5.687  2.3498 -1.7223  2.4974
   26CHL1  H16B 1873   3.611   5.787   5.730  1.9474 -1.7573 -0.1672
   26CHL1   C17 1874   3.692   5.994   5.769 -0.0445  0.0362  0.3920
   26CHL1   H17 1875   3.592   6.028   5.803 -0.9664 -1.2934 -0.8749
   26CHL1   C13 1876   3.773   6.026   5.893  0.4578 -0.7034 -0.0636
   26CHL1   C18 1877   3.925   6.030   5.849  0.4063  0.4037  0.0198
   26CHL1  H18A 1878   3.996   6.015   5.932 -0.3152 -0.1381  0.5520
   26CHL1  H18B 1879   3.955   5.957   5.771 -0.4137  0.0726  0.0059
   26CHL1  H18C 1880   3.940   6.135   5.817 -1.0349  0.9876  1.1593
   26CHL1   C12 1881   3.740   6.154   5.976 -0.3145  0.1963  0.0630
   26CHL1  H12A 1882   3.784   6.247   5.934 -1.0546  0.3767 -0.3220
   26CHL1  H12B 1883   3.634   6.174   6.001 -0.6097 -1.2162  0.0431
   26CHL1   C11 1884   3.819   6.150   6.112  0.3549  0.3800  0.5939
   26CHL1  H11A 1885   3.922   6.176   6.080  1.0781 -2.2661  0.6053
   26CHL1  H11B 1886   3.776   6.232   6.175 -0.0586  0.7296 -0.1285
   26CHL1    C9 1887   3.816   6.018   6.192  0.6298  0.3113 -0.0605
   26CHL1    H9 1888   3.711   6.000   6.225  0.9165 -2.9124 -0.5213
   26CHL1   C10 1889   3.906   6.014   6.318  0.1519 -0.2814 -0.0224
   26CHL1   C19 1890   4.049   6.064   6.294  0.4427  0.1233  0.6090
   26CHL1  H19A 1891   4.104   6.014   6.212  0.8416 -0.0658  0.9903
   26CHL1  H19B 1892   4.046   6.173   6.269  1.6079 -0.4306 -2.3316
   26CHL1  H19C 1893   4.108   6.049   6.387  2.0001  0.0506 -0.3572
   26CHL1    C1 1894   3.853   6.119   6.427  0.0538  0.4124 -0.5752
   26CHL1   H1A 1895   3.875   6.217   6.379 -1.4864 -0.4074 -3.1563
   26CHL1   H1B 1896   3.742   6.116   6.436  0.1067 -0.6296 -0.0911
   26CHL1    C2 1897   3.924   6.105   6.561  0.1649 -0.5012  0.4298
   26CHL1   H2A 1898   3.862   6.152   6.640  0.9990 -1.0820  1.4415
   26CHL1   H2B 1899   4.024   6.153   6.557 -1.1506  2.4658 -2.8538
   26CHL1   C20 1900   3.710   6.061   5.632  0.1599  0.2183  0.9901
   26CHL1   H20 1901   3.818   6.051   5.607  0.3012  0.8599  1.3177
   26CHL1   C21 1902   3.662   6.207   5.633 -0.4928  0.0496 -0.0310
   26CHL1  H21A 1903   3.720   6.269   5.704  1.1402  0.4414 -1.6383
   26CHL1  H21B 1904   3.557   6.221   5.667 -0.5538 -1.8878  0.7073
   26CHL1  H21C 1905   3.671   6.256   5.534  0.5993  0.0618  0.0533
   26CHL1   C22 1906   3.638   5.999   5.506  1.1347 -0.3555 -0.4899
   26CHL1  H22A 1907   3.614   5.891   5.511 -1.4524  0.0661 -2.0618
   26CHL1  H22B 1908   3.536   6.034   5.480  0.2952 -2.1347  0.2355
   26CHL1   C23 1909   3.735   6.018   5.389 -0.1941  0.4314  0.4353
   26CHL1  H23A 1910   3.738   6.129   5.377 -1.0984  0.2887 -1.5564
   26CHL1  H23B 1911   3.833   5.966   5.397  0.0429  0.6505 -0.8585
   26CHL1   C24 1912   3.674   5.964   5.257  0.1693 -0.0166  0.0247
   26CHL1  H24A 1913   3.661   5.854   5.268  1.1403  0.0272  2.1079
   26CHL1  H24B 1914   3.568   5.994   5.246  0.1187  0.1996  1.0206
   26CHL1   C25 1915   3.773   5.985   5.136 -0.3266  0.3913  0.0795
   26CHL1   H25 1916   3.754   6.089   5.103 -0.0834  0.4417  0.0988
   26CHL1   C26 1917   3.926   5.966   5.161 -1.2213 -0.8961  0.2520
   26CHL1  H26A 1918   3.955   6.045   5.234 -0.6869  1.3745 -2.2239
   26CHL1  H26B 1919   3.957   5.871   5.207  0.8818  0.1587  1.1423
   26CHL1  H26C 1920   3.987   5.989   5.071 -0.9973  1.2528  0.8852
   26CHL1   C27 1921   3.723   5.891   5.022  0.1457  0.6555 -0.0505
   26CHL1  H27A 1922   3.806   5.866   4.952 -0.5339 -0.1079 -0.6026
   26CHL1  H27B 1923   3.691   5.794   5.066  4.1540 -1.6422 -1.6109
   26CHL1  H27C 1924   3.635   5.936   4.971 -0.5865 -1.7449 -1.0477
   27CHL1    C3 1925   2.154   5.019   6.523 -0.4168  0.2557  0.3149
   27CHL1    H3 1926   2.122   5.125   6.521 -2.8031 -0.3730  1.0877
   27CHL1    O3 1927   2.195   4.996   6.652  0.1971  0.2607  0.2954
   27CHL1   H3' 1928   2.207   5.078   6.701  0.9164  0.1883  0.2441
   27CHL1    C4 1929   2.039   4.919   6.481 -0.0853  0.1165  0.3989
   27CHL1   H4A 1930   2.084   4.827   6.524 -0.3765 -1.2402 -2.0074
   27CHL1   H4B 1931   1.954   4.948   6.546  0.3853  1.4021  0.4574
   27CHL1    C5 1932   2.006   4.919   6.330 -0.1164  0.0634 -0.2609
   27CHL1    C6 1933   1.878   4.926   6.292 -0.5527  0.4125 -0.7646
   27CHL1    H6 1934   1.801   4.922   6.370 -0.4160 -0.2501 -0.6557
   27CHL1    C7 1935   1.830   4.930   6.152 -0.4148  0.4640  0.6270
   27CHL1   H7A 1936   1.747   4.857   6.141  0.5324 -0.5104 -0.3045
   27CHL1   H7B 1937   1.783   5.028   6.132 -0.6523  0.4830  1.2404
   27CHL1    C8 1938   1.944   4.899   6.055 -0.3380 -0.0431  0.1131
   27CHL1    H8 1939   1.957   4.789   6.062 -0.1994 -0.0646 -0.5150
   27CHL1   C14 1940   1.897   4.943   5.920  0.5661  0.4358 -0.1036
   27CHL1   H14 1941   1.897   5.054   5.918 -1.2159  0.5461  1.9232
   27CHL1   C15 1942   1.757   4.904   5.864 -0.4506 -0.6524 -0.2484
   27CHL1  H15A 1943   1.737   4.801   5.901 -0.3443 -0.3650  0.6254
   27CHL1  H15B 1944   1.682   4.970   5.911  0.5763  0.2826  0.1282
   27CHL1   C16 1945   1.780   4.923   5.720 -0.4430 -1.3939 -0.5458
   27CHL1  H16A 1946   1.739   4.838   5.661  0.7818 -0.8135 -2.3347
   27CHL1  H16B 1947   1.731   5.015   5.682  0.8408  0.1805  1.4157
   27CHL1   C17 1948   1.931   4.947   5.683 -0.1925  0.4650 -0.2176
   27CHL1   H17 1949   1.939   5.057   5.679  0.3290  0.4692  0.8250
   27CHL1   C13 1950   2.002   4.899   5.812 -0.3845 -0.5035 -0.4169
   27CHL1   C18 1951   2.020   4.743   5.814  0.1620  0.3614  1.0810
   27CHL1  H18A 1952   2.088   4.716   5.731 -0.5700  0.6845  0.3663
   27CHL1  H18B 1953   2.070   4.718   5.911  0.6331  0.0441  0.7623
   27CHL1  H18C 1954   1.925   4.691   5.789  1.6867 -2.1539  0.0839
   27CHL1   C12 1955   2.129   4.976   5.829 -0.1526  0.0059  0.0167
   27CHL1  H12A 1956   2.212   4.950   5.760  0.3568 -1.5456  1.1565
   27CHL1  H12B 1957   2.111   5.086   5.819 -0.8455  0.0441  1.4125
   27CHL1   C11 1958   2.181   4.956   5.979  0.3767 -0.3888  0.2042
   27CHL1  H11A 1959   2.223   4.853   5.982  0.9656 -0.1348  0.7358
   27CHL1  H11B 1960   2.261   5.031   5.995 -0.2165  0.5290 -0.9336
   27CHL1    C9 1961   2.074   4.976   6.094  0.0862  0.4205  0.3681
   27CHL1    H9 1962   2.045   5.083   6.096  0.0661  0.4242  2.3151
   27CHL1   C10 1963   2.124   4.922   6.237  0.0726 -0.4902  0.3828
   27CHL1   C19 1964   2.171   4.785   6.233  0.6212 -0.4394  0.1825
   27CHL1  H19A 1965   2.261   4.773   6.170  1.0882  2.1849  0.2376
   27CHL1  H19B 1966   2.218   4.743   6.325  1.3233 -2.8524 -1.1825
   27CHL1  H19C 1967   2.096   4.712   6.196  2.0409 -1.2247 -1.2348
   27CHL1    C1 1968   2.234   5.021   6.282  0.1769  0.8717 -0.1586
   27CHL1   H1A 1969   2.316   5.006   6.208 -1.3504 -1.1472 -1.5435
   27CHL1   H1B 1970   2.191   5.123   6.271 -1.6100 -0.0335 -2.2752
   27CHL1    C2 1971   2.277   4.998   6.435  1.1243  0.4008  0.4630
   27CHL1   H2A 1972   2.366   5.056   6.466  2.3259 -0.7139 -0.7730
   27CHL1   H2B 1973   2.301   4.890   6.444  1.8808  0.3642 -1.5891
   27CHL1   C20 1974   1.965   4.873   5.550  0.9263 -0.0442 -0.5566
   27CHL1   H20 1975   1.940   4.765   5.560  0.9536 -0.2855 -2.7109
   27CHL1   C21 1976   2.114   4.886   5.512  0.6095  0.6780  0.2210
   27CHL1  H21A 1977   2.157   4.988   5.517  0.1049  0.8974  0.0782
   27CHL1  H21B 1978   2.134   4.851   5.409  2.9222  0.4969  0.6742
   27CHL1  H21C 1979   2.178   4.826   5.581 -1.5246 -1.0280  0.8290
   27CHL1   C22 1980   1.875   4.931   5.443 -0.1491 -0.6478  0.0722
   27CHL1  H22A 1981   1.770   4.897   5.451 -0.8690  0.3675 -3.4716
   27CHL1  H22B 1982   1.859   5.041   5.447 -4.1564 -1.0320 -1.4129
   27CHL1   C23 1983   1.923   4.904   5.298 -0.1614  0.0261 -1.1123
   27CHL1  H23A 1984   1.843   4.958   5.243 -0.7320  2.3292  1.7388
   27CHL1  H23B 1985   2.013   4.966   5.280  0.9659 -0.8429  1.1458
   27CHL1   C24 1986   1.924   4.757   5.255 -0.5370 -0.5103 -0.8630
   27CHL1  H24A 1987   2.008   4.706   5.308 -1.3391 -0.0204  0.9461
   27CHL1  H24B 1988   1.826   4.709   5.275 -1.0235  0.0626 -1.7919
   27CHL1   C25 1989   1.932   4.736   5.100 -0.7118  0.0698  0.3734
   27CHL1   H25 1990   1.959   4.630   5.086 -1.9727 -0.4452  1.5981
   27CHL1   C26 1991   1.795   4.780   5.034 -0.6372  0.1283 -0.3229
   27CHL1  H26A 1992   1.712   4.709   5.055 -0.9778  0.8095  0.6914
   27CHL1  H26B 1993   1.768   4.881   5.072 -0.2987 -0.4029  1.4057
   27CHL1  H26C 1994   1.800   4.778   4.923 -2.2976 -1.2955 -0.4188
   27CHL1   C27 1995   2.049   4.810   5.038  0.0735  0.0951 -0.3785
   27CHL1  H27A 1996   2.059   4.800   4.928 -0.5792 -0.8706 -0.3593
   27CHL1  H27B 1997   2.031   4.919   5.048  3.8462  0.7406  1.2596
   27CHL1  H27C 1998   2.142   4.792   5.097 -1.2385 -1.5387  1.3305
   28CHL1    C3 1999   2.248   0.360   6.426 -0.1966  0.2917  0.8708
   28CHL1    H3 2000   2.145   0.319   6.431 -0.3345  0.7715  2.3582
   28CHL1    O3 2001   2.286   0.384   6.560 -0.0637 -0.1988 -0.1019
   28CHL1   H3' 2002   2.362   0.443   6.568 -0.2293 -0.1219  1.1804
   28CHL1    C4 2003   2.361   0.271   6.365  1.1994 -0.0101  0.2008
   28CHL1   H4A 2004   2.453   0.332   6.380  2.6189 -2.3987  1.7853
   28CHL1   H4B 2005   2.366   0.179   6.427  0.3502 -1.0519 -1.2041
   28CHL1    C5 2006   2.327   0.235   6.223  0.9489  1.1849  0.1570
   28CHL1    C6 2007   2.325   0.111   6.184 -0.7816  0.6918  0.6611
   28CHL1    H6 2008   2.347   0.027   6.251  1.0809  0.0665 -0.6442
   28CHL1    C7 2009   2.300   0.082   6.034  0.2872 -0.3002  0.5727
   28CHL1   H7A 2010   2.372   0.006   5.995 -0.5764 -1.0864  0.4696
   28CHL1   H7B 2011   2.199   0.038   6.017 -0.1846  0.7753  0.5379
   28CHL1    C8 2012   2.311   0.203   5.938  0.6265  1.0859  0.6801
   28CHL1    H8 2013   2.420   0.221   5.933  1.2724 -2.3947 -3.0532
   28CHL1   C14 2014   2.247   0.163   5.804  0.4779  0.4279  0.2560
   28CHL1   H14 2015   2.138   0.161   5.826  0.9584 -0.9704  2.9471
   28CHL1   C15 2016   2.279   0.033   5.733  0.6510 -0.2186  0.3563
   28CHL1  H15A 2017   2.386   0.002   5.738 -0.1875 -4.1018 -1.5208
   28CHL1  H15B 2018   2.213  -0.046   5.775  0.0577  0.5398  0.8524
   28CHL1   C16 2019   2.239   0.054   5.585  0.4113 -0.3364 -0.4652
   28CHL1  H16A 2020   2.326   0.047   5.516 -0.7055  0.7001 -2.0684
   28CHL1  H16B 2021   2.169  -0.027   5.555 -1.1853  0.6098  0.5738
   28CHL1   C17 2022   2.177   0.195   5.576 -0.0757 -0.5791 -0.3633
   28CHL1   H17 2023   2.067   0.182   5.583 -0.3848  0.8658 -1.8726
   28CHL1   C13 2024   2.250   0.272   5.692 -0.1759  0.3746 -0.2543
   28CHL1   C18 2025   2.406   0.311   5.666  0.0602 -0.0238 -0.4823
   28CHL1  H18A 2026   2.447   0.344   5.764 -1.1369 -1.6548  0.6170
   28CHL1  H18B 2027   2.448   0.212   5.640 -1.4822 -1.5530  2.2590
   28CHL1  H18C 2028   2.411   0.386   5.584  0.8148  1.2735  0.6977
   28CHL1   C12 2029   2.179   0.389   5.753 -0.1581  0.0787  0.8256
   28CHL1  H12A 2030   2.175   0.475   5.683 -1.3525 -1.1755 -0.6979
   28CHL1  H12B 2031   2.072   0.363   5.768 -0.1155 -0.1344  0.7593
   28CHL1   C11 2032   2.229   0.432   5.888 -0.2187 -0.4462 -0.7534
   28CHL1  H11A 2033   2.331   0.474   5.881 -0.0269 -0.5695  0.7849
   28CHL1  H11B 2034   2.164   0.508   5.937  0.0514 -1.1933  0.8447
   28CHL1    C9 2035   2.239   0.319   5.995 -0.1345 -0.5710  0.0466
   28CHL1    H9 2036   2.134   0.287   6.014 -0.2031 -0.1276  0.4461
   28CHL1   C10 2037   2.298   0.359   6.136 -0.6217 -0.3572  0.2218
   28CHL1   C19 2038   2.439   0.422   6.124 -0.5683  0.2683  0.3751
   28CHL1  H19A 2039   2.495   0.439   6.218  0.7059  0.3007 -0.3663
   28CHL1  H19B 2040   2.510   0.365   6.061 -0.7527 -1.3885  1.6098
   28CHL1  H19C 2041   2.410   0.518   6.076 -0.6480  0.7034  1.2815
   28CHL1    C1 2042   2.212   0.470   6.208 -0.6624 -0.4769 -0.7794
   28CHL1   H1A 2043   2.236   0.567   6.160 -0.1777 -0.0345  0.3261
   28CHL1   H1B 2044   2.105   0.447   6.188 -1.2801  0.4333  1.2314
   28CHL1    C2 2045   2.245   0.497   6.353  0.0540  0.9170 -0.0046
   28CHL1   H2A 2046   2.172   0.557   6.411 -0.4932 -1.6138  2.0645
   28CHL1   H2B 2047   2.347   0.542   6.358  2.1479 -2.9019 -2.9239
   28CHL1   C20 2048   2.195   0.254   5.443  0.2511 -0.0268  0.1727
   28CHL1   H20 2049   2.298   0.289   5.421 -0.5825  1.4563 -1.7567
   28CHL1   C21 2050   2.104   0.378   5.427  0.3631  0.0329  0.0466
   28CHL1  H21A 2051   2.128   0.470   5.485 -0.3195 -0.6704  1.4992
   28CHL1  H21B 2052   1.998   0.359   5.453  0.5026  0.5414  1.0489
   28CHL1  H21C 2053   2.107   0.411   5.321 -0.8745 -0.0735 -0.0288
   28CHL1   C22 2054   2.169   0.145   5.329 -0.4046 -0.2486  0.0749
   28CHL1  H22A 2055   2.264   0.088   5.332  0.3463  0.9005  3.5701
   28CHL1  H22B 2056   2.086   0.073   5.345 -0.0148 -0.8677 -0.6261
   28CHL1   C23 2057   2.141   0.211   5.198  0.6858  0.7317 -0.0673
   28CHL1  H23A 2058   2.037   0.251   5.196  0.6366  0.7836  1.7417
   28CHL1  H23B 2059   2.213   0.293   5.181 -0.0151  1.2528 -0.6171
   28CHL1   C24 2060   2.160   0.114   5.077  0.0536  0.0992  0.0145
   28CHL1  H24A 2061   2.267   0.086   5.089 -0.4068 -1.3436  0.8757
   28CHL1  H24B 2062   2.096   0.025   5.090 -0.5733  0.8008  2.0629
   28CHL1   C25 2063   2.155   0.183   4.936  0.5178 -0.3022 -0.0348
   28CHL1   H25 2064   2.058   0.235   4.920 -0.8177 -2.3185  1.1136
   28CHL1   C26 2065   2.275   0.286   4.906 -0.0809  0.5767  0.7581
   28CHL1  H26A 2066   2.252   0.382   4.955  0.5404  1.1279  0.0005
   28CHL1  H26B 2067   2.380   0.266   4.937  0.1066  1.9549  1.0769
   28CHL1  H26C 2068   2.279   0.309   4.798  0.2707  0.0046  0.6400
   28CHL1   C27 2069   2.149   0.073   4.830  0.6925  0.5496 -0.1398
   28CHL1  H27A 2070   2.072  -0.004   4.857  0.5636  0.2483 -1.3103
   28CHL1  H27B 2071   2.115   0.115   4.733  1.1348  0.6526 -0.2492
   28CHL1  H27C 2072   2.241   0.016   4.807  0.0873  0.0419 -1.4092
   29CHL1    C3 2073   6.632   2.048   6.615  0.1606 -0.4973 -0.3519
   29CHL1    H3 2074   6.727   1.991   6.609  1.1450  1.1817 -1.8435
   29CHL1    O3 2075   6.556   2.038   6.733  0.1581 -0.2181 -0.6020
   29CHL1   H3' 2076   6.467   2.071   6.716  0.2347  0.0771 -0.4406
   29CHL1    C4 2077   6.670   2.193   6.587  0.3142 -0.1034 -0.1242
   29CHL1   H4A 2078   6.573   2.248   6.583  1.1176  1.3048 -1.2547
   29CHL1   H4B 2079   6.724   2.241   6.671 -2.0097 -0.4904  1.7192
   29CHL1    C5 2080   6.744   2.210   6.454  0.0769 -0.0780  0.0216
   29CHL1    C6 2081   6.863   2.271   6.445 -0.5854 -0.1442 -0.3599
   29CHL1    H6 2082   6.911   2.311   6.535 -0.6053 -2.0547  0.5651
   29CHL1    C7 2083   6.928   2.315   6.313 -0.0993 -0.2387 -0.0599
   29CHL1   H7A 2084   6.949   2.424   6.313 -1.8498  0.1299 -0.6150
   29CHL1   H7B 2085   7.022   2.257   6.305 -0.9379 -1.5627 -0.6699
   29CHL1    C8 2086   6.836   2.292   6.192  0.6154 -0.0468  0.0189
   29CHL1    H8 2087   6.776   2.385   6.185  2.0153  0.8631 -0.2092
   29CHL1   C14 2088   6.917   2.275   6.067 -0.0712  0.2676  0.0028
   29CHL1   H14 2089   6.969   2.177   6.068  0.6574  0.6421  1.3596
   29CHL1   C15 2090   7.039   2.373   6.055  0.3656  0.9136 -1.4636
   29CHL1  H15A 2091   7.017   2.466   6.111  1.7705  0.1544  0.4571
   29CHL1  H15B 2092   7.134   2.331   6.094  1.5745  4.5781 -0.0931
   29CHL1   C16 2093   7.052   2.382   5.900  0.0319 -0.4645 -0.8793
   29CHL1  H16A 2094   7.007   2.476   5.862  1.3532 -0.2404 -1.9388
   29CHL1  H16B 2095   7.154   2.362   5.861 -0.1289 -0.4966 -1.2883
   29CHL1   C17 2096   6.958   2.269   5.840  0.5200  0.6472 -0.9207
   29CHL1   H17 2097   7.015   2.175   5.856 -2.1851 -0.8146  0.9667
   29CHL1   C13 2098   6.835   2.272   5.939 -0.4917  0.2047  0.5135
   29CHL1   C18 2099   6.752   2.402   5.904  1.2699  0.3615  0.2108
   29CHL1  H18A 2100   6.675   2.406   5.984  1.2349 -0.9965  0.2792
   29CHL1  H18B 2101   6.801   2.501   5.905 -1.0717  1.6108 -0.7366
   29CHL1  H18C 2102   6.694   2.392   5.810 -0.3628 -0.5675  1.2586
   29CHL1   C12 2103   6.748   2.151   5.944  0.5207 -0.7161 -0.3872
   29CHL1  H12A 2104   6.665   2.144   5.871 -0.2469 -1.7219  0.5336
   29CHL1  H12B 2105   6.806   2.056   5.940  0.3422 -0.8161 -0.6510
   29CHL1   C11 2106   6.664   2.141   6.075 -0.9382 -0.2380 -0.4203
   29CHL1  H11A 2107   6.577   2.210   6.066 -0.7541  0.8341  4.0400
   29CHL1  H11B 2108   6.616   2.040   6.076  2.3216 -1.9586  2.3027
   29CHL1    C9 2109   6.746   2.169   6.202 -0.2117 -0.5194 -0.4186
   29CHL1    H9 2110   6.818   2.085   6.208 -1.8990 -1.9421  1.8570
   29CHL1   C10 2111   6.658   2.171   6.334 -0.1514  0.4707  0.0712
   29CHL1   C19 2112   6.545   2.265   6.311 -0.0420 -0.2797  0.6202
   29CHL1  H19A 2113   6.487   2.240   6.220  1.3825 -0.3311 -0.3030
   29CHL1  H19B 2114   6.471   2.257   6.394  1.2897 -1.6488  1.7365
   29CHL1  H19C 2115   6.577   2.370   6.298  0.5412 -0.6607 -1.2832
   29CHL1    C1 2116   6.592   2.034   6.357 -0.0409 -0.1048  0.0008
   29CHL1   H1A 2117   6.506   2.033   6.286  0.6610  1.0379 -0.8878
   29CHL1   H1B 2118   6.667   1.954   6.341  0.7601  0.5606  0.3327
   29CHL1    C2 2119   6.535   2.010   6.499  0.3376  0.9332  0.1225
   29CHL1   H2A 2120   6.504   1.904   6.504 -2.8887  1.5576 -3.0511
   29CHL1   H2B 2121   6.442   2.070   6.506 -2.3063 -2.5212 -2.1869
   29CHL1   C20 2122   6.931   2.279   5.688 -0.7159  0.6884 -0.3582
   29CHL1   H20 2123   6.844   2.343   5.661  0.4129  2.1695 -0.5711
   29CHL1   C21 2124   6.896   2.135   5.634 -0.1873 -0.1431  0.4953
   29CHL1  H21A 2125   6.977   2.068   5.670  0.0816 -0.1554 -0.1052
   29CHL1  H21B 2126   6.894   2.139   5.523 -1.6296 -0.1705  0.5042
   29CHL1  H21C 2127   6.797   2.097   5.669 -0.1504 -1.2194 -0.4811
   29CHL1   C22 2128   7.047   2.341   5.613  0.2201  0.4779 -0.8233
   29CHL1  H22A 2129   7.052   2.448   5.643 -1.1159  0.1121  0.8677
   29CHL1  H22B 2130   7.142   2.284   5.623 -0.5157 -0.5358  0.8928
   29CHL1   C23 2131   7.029   2.335   5.454 -0.6986 -0.6805  0.2110
   29CHL1  H23A 2132   7.068   2.235   5.426 -2.4122 -0.8252 -1.8523
   29CHL1  H23B 2133   6.922   2.327   5.426 -0.0295 -4.0708 -1.9366
   29CHL1   C24 2134   7.109   2.446   5.381  0.0928 -0.4205 -0.0700
   29CHL1  H24A 2135   7.098   2.548   5.423  0.0292 -0.2737 -0.4367
   29CHL1  H24B 2136   7.216   2.419   5.395 -0.2489 -0.8078  2.0440
   29CHL1   C25 2137   7.066   2.449   5.229 -0.8832  0.1154  0.5170
   29CHL1   H25 2138   6.956   2.460   5.221 -1.2470 -1.0767  2.9127
   29CHL1   C26 2139   7.143   2.564   5.153  0.3212  0.0594 -1.1524
   29CHL1  H26A 2140   7.251   2.543   5.161  0.6210 -0.2301 -4.5750
   29CHL1  H26B 2141   7.117   2.561   5.046  1.9820  1.1305 -1.6217
   29CHL1  H26C 2142   7.119   2.669   5.180 -0.4285  0.7942 -4.2637
   29CHL1   C27 2143   7.101   2.317   5.159 -0.7598  0.0309 -0.2848
   29CHL1  H27A 2144   7.197   2.267   5.187 -2.1668 -3.1366 -0.7280
   29CHL1  H27B 2145   7.022   2.243   5.181 -0.9354 -0.0755 -1.2511
   29CHL1  H27C 2146   7.105   2.329   5.049 -1.0572 -0.1117 -0.3121
   30CHL1    C3 2147   4.291   2.941   3.215 -0.0670  0.4923  0.4718
   30CHL1    H3 2148   4.185   2.910   3.206  0.8439 -3.0468  0.3805
   30CHL1    O3 2149   4.349   2.934   3.086 -0.2108  0.0287  0.1270
   30CHL1   H3' 2150   4.435   2.977   3.093 -0.6110  0.6367  1.9045
   30CHL1    C4 2151   4.297   3.089   3.265 -0.3306  0.2962  0.6787
   30CHL1   H4A 2152   4.398   3.133   3.254 -0.4533  0.3113 -0.4609
   30CHL1   H4B 2153   4.236   3.150   3.195 -3.2460 -3.9154 -0.9029
   30CHL1    C5 2154   4.248   3.106   3.406  0.5807 -0.5835  0.5989
   30CHL1    C6 2155   4.156   3.200   3.438 -0.5000  0.6893 -0.0233
   30CHL1    H6 2156   4.113   3.263   3.359 -0.7269  0.6974  0.1065
   30CHL1    C7 2157   4.132   3.238   3.582  0.1722  0.3404 -0.4473
   30CHL1   H7A 2158   4.131   3.348   3.597 -2.3914 -0.0304  3.2622
   30CHL1   H7B 2159   4.028   3.209   3.606  0.9120 -0.2291  2.4984
   30CHL1    C8 2160   4.237   3.179   3.689  0.5617 -0.0524  0.1425
   30CHL1    H8 2161   4.339   3.220   3.681  1.1431 -1.2449  0.9703
   30CHL1   C14 2162   4.185   3.206   3.830  0.4852  0.9806  0.0588
   30CHL1   H14 2163   4.081   3.167   3.821  0.0492  2.1901 -0.4007
   30CHL1   C15 2164   4.162   3.346   3.877 -0.0133 -0.3819 -1.0902
   30CHL1  H15A 2165   4.244   3.417   3.855  0.9970 -1.6170 -1.4284
   30CHL1  H15B 2166   4.070   3.394   3.837  0.2418  0.1660 -1.0151
   30CHL1   C16 2167   4.154   3.331   4.024 -0.2588 -0.3791 -0.5137
   30CHL1  H16A 2168   4.231   3.401   4.064 -1.5978  1.0729 -0.3794
   30CHL1  H16B 2169   4.056   3.357   4.068 -0.7224 -4.0952  0.9979
   30CHL1   C17 2170   4.182   3.179   4.062 -0.2859  0.4841  0.1940
   30CHL1   H17 2171   4.085   3.124   4.068  1.3649 -2.4999  2.1811
   30CHL1   C13 2172   4.255   3.126   3.937  0.2182 -0.9226  0.2678
   30CHL1   C18 2173   4.397   3.174   3.936 -0.6715 -0.9430  0.3668
   30CHL1  H18A 2174   4.406   3.285   3.940 -2.5665 -0.7104 -0.7041
   30CHL1  H18B 2175   4.455   3.127   4.019 -1.0020 -1.2156  0.4457
   30CHL1  H18C 2176   4.457   3.131   3.853 -0.9236 -3.1753  1.2828
   30CHL1   C12 2177   4.246   2.972   3.902  0.2776 -0.3069  0.5862
   30CHL1  H12A 2178   4.308   2.919   3.978  0.8230 -0.0404  0.3295
   30CHL1  H12B 2179   4.140   2.940   3.915 -1.1894  3.0751 -1.5443
   30CHL1   C11 2180   4.306   2.942   3.766  0.1884 -0.2416  0.3280
   30CHL1  H11A 2181   4.416   2.955   3.760  0.0169  0.5005 -2.4406
   30CHL1  H11B 2182   4.281   2.835   3.750  1.9595 -1.1400  2.8918
   30CHL1    C9 2183   4.245   3.031   3.654 -0.0098 -0.2464  0.5502
   30CHL1    H9 2184   4.142   2.990   3.647 -1.0607  1.5124  3.6438
   30CHL1   C10 2185   4.320   3.010   3.510 -0.4010 -0.0456 -0.1427
   30CHL1   C19 2186   4.465   3.048   3.521  0.0673  0.2739 -0.6991
   30CHL1  H19A 2187   4.512   2.971   3.586  1.8060 -0.5384 -2.8011
   30CHL1  H19B 2188   4.520   3.045   3.424  1.7226  0.7281  0.1812
   30CHL1  H19C 2189   4.496   3.147   3.563  0.2908  1.4437 -3.4155
   30CHL1    C1 2190   4.304   2.872   3.449  0.2261  1.4304 -0.1300
   30CHL1   H1A 2191   4.349   2.800   3.520  1.7120  0.5569 -1.8562
   30CHL1   H1B 2192   4.194   2.858   3.443  0.2448  0.3414  1.6515
   30CHL1    C2 2193   4.363   2.841   3.307 -0.2126 -0.1789 -0.0172
   30CHL1   H2A 2194   4.340   2.734   3.284 -0.9176 -0.5177  2.0574
   30CHL1   H2B 2195   4.472   2.860   3.298 -0.2457  0.1074  0.1752
   30CHL1   C20 2196   4.236   3.159   4.206  0.2594  0.2388  0.4334
   30CHL1   H20 2197   4.342   3.189   4.219 -0.4769  3.7016 -0.6421
   30CHL1   C21 2198   4.238   3.005   4.243  0.4004 -0.3892 -0.4055
   30CHL1  H21A 2199   4.139   2.955   4.236  0.9232 -1.3028 -1.6857
   30CHL1  H21B 2200   4.277   2.989   4.346  0.6948  1.3167 -0.2216
   30CHL1  H21C 2201   4.301   2.953   4.168 -2.6160 -1.2898 -2.5030
   30CHL1   C22 2202   4.143   3.230   4.305 -0.0882  0.1593 -0.1636
   30CHL1  H22A 2203   4.146   3.340   4.292 -1.1346  0.1712 -0.4121
   30CHL1  H22B 2204   4.040   3.194   4.285 -1.0439  1.9615  1.2759
   30CHL1   C23 2205   4.166   3.211   4.451 -0.3164 -0.5145 -0.1059
   30CHL1  H23A 2206   4.129   3.109   4.474 -0.8626 -0.6752 -1.5726
   30CHL1  H23B 2207   4.272   3.215   4.482  0.2620  0.5568 -2.0425
   30CHL1   C24 2208   4.082   3.315   4.527  0.4111 -0.6446  0.0991
   30CHL1  H24A 2209   4.095   3.419   4.490  1.6567 -0.5021  0.8931
   30CHL1  H24B 2210   3.973   3.293   4.521  0.1919 -0.5063  2.5827
   30CHL1   C25 2211   4.113   3.321   4.676 -0.1696 -0.1551  0.0704
   30CHL1   H25 2212   4.222   3.334   4.690 -0.0784 -2.0856  1.6200
   30CHL1   C26 2213   4.048   3.453   4.734  0.2193  0.5760 -0.6470
   30CHL1  H26A 2214   4.042   3.461   4.845  3.7246  2.0761 -0.4310
   30CHL1  H26B 2215   4.107   3.543   4.705 -0.4449  0.8391 -1.2030
   30CHL1  H26C 2216   3.941   3.468   4.708 -0.6861 -0.6724  1.9309
   30CHL1   C27 2217   4.067   3.194   4.746 -0.2153 -0.5732  0.2882
   30CHL1  H27A 2218   4.094   3.208   4.853 -2.8115  0.7380  0.8593
   30CHL1  H27B 2219   3.956   3.192   4.739 -0.1571 -0.2057 -0.9128
   30CHL1  H27C 2220   4.109   3.105   4.696  0.9940 -0.0199  0.2727
   31CHL1    C3 2221   4.836   2.589   3.216 -0.1069  0.4913  0.3228
   31CHL1    H3 2222   4.941   2.605   3.247  0.5826 -2.2746 -0.2992
   31CHL1    O3 2223   4.822   2.580   3.075  1.1601  0.2617 -0.0961
   31CHL1   H3' 2224   4.770   2.656   3.049 -0.0207 -0.3993  0.2443
   31CHL1    C4 2225   4.800   2.452   3.279 -0.2578  0.0810  0.6058
   31CHL1   H4A 2226   4.702   2.411   3.247  0.0059  0.2148 -0.3796
   31CHL1   H4B 2227   4.874   2.373   3.254 -1.1902 -0.3527 -0.9111
   31CHL1    C5 2228   4.783   2.454   3.431  0.3604 -0.7109 -0.5667
   31CHL1    C6 2229   4.851   2.378   3.516  0.8393  0.4099  0.2363
   31CHL1    H6 2230   4.908   2.300   3.465 -0.6600  0.7090 -2.0532
   31CHL1    C7 2231   4.839   2.370   3.664  0.1957 -0.4879  0.0587
   31CHL1   H7A 2232   4.835   2.260   3.680 -0.5988 -0.6056 -0.8565
   31CHL1   H7B 2233   4.924   2.409   3.723  2.0247 -2.1631 -1.3356
   31CHL1    C8 2234   4.717   2.450   3.717 -0.1804 -0.3411 -1.4671
   31CHL1    H8 2235   4.621   2.396   3.700 -0.9859  0.7759 -0.5943
   31CHL1   C14 2236   4.729   2.483   3.869  0.3624  0.1159  0.3557
   31CHL1   H14 2237   4.812   2.555   3.885 -1.1223  1.9195  0.3344
   31CHL1   C15 2238   4.750   2.372   3.969  0.2158  0.0152 -0.4540
   31CHL1  H15A 2239   4.668   2.299   3.952  0.0343 -0.5007  2.1855
   31CHL1  H15B 2240   4.849   2.324   3.958  0.2084 -0.2183  0.4245
   31CHL1   C16 2241   4.722   2.429   4.105  0.0211 -0.8873 -0.4811
   31CHL1  H16A 2242   4.645   2.371   4.160  0.0574  1.2704  2.0354
   31CHL1  H16B 2243   4.814   2.426   4.167  0.9055 -3.8292 -1.7595
   31CHL1   C17 2244   4.648   2.564   4.086 -0.5006  0.4322 -0.0850
   31CHL1   H17 2245   4.722   2.647   4.085 -0.9694  0.9006 -2.6163
   31CHL1   C13 2246   4.606   2.559   3.931  0.3219  0.8808  0.4528
   31CHL1   C18 2247   4.475   2.480   3.911  0.1941  0.8141  0.1486
   31CHL1  H18A 2248   4.475   2.388   3.974 -0.4682  1.6937  1.4822
   31CHL1  H18B 2249   4.396   2.539   3.963 -0.0693 -1.2552  2.2532
   31CHL1  H18C 2250   4.456   2.450   3.806  1.5792 -0.7210  0.2883
   31CHL1   C12 2251   4.603   2.688   3.854 -0.4014  0.2827  0.3262
   31CHL1  H12A 2252   4.522   2.761   3.871  0.3857  1.1984  0.2200
   31CHL1  H12B 2253   4.700   2.741   3.868 -0.1291  0.9258 -3.1064
   31CHL1   C11 2254   4.591   2.666   3.700 -0.4758 -0.6677  0.3065
   31CHL1  H11A 2255   4.495   2.620   3.668 -2.1396  1.0780  2.4844
   31CHL1  H11B 2256   4.592   2.769   3.659  0.0144 -1.2259 -1.1693
   31CHL1    C9 2257   4.703   2.583   3.642 -0.6647  0.0037 -0.8155
   31CHL1    H9 2258   4.796   2.638   3.669 -0.1058 -1.8488  1.2772
   31CHL1   C10 2259   4.698   2.568   3.490  0.1379 -0.3539 -0.1251
   31CHL1   C19 2260   4.553   2.545   3.445  0.3084 -0.1595 -0.5938
   31CHL1  H19A 2261   4.536   2.500   3.345 -2.2729  2.2544 -1.3597
   31CHL1  H19B 2262   4.504   2.469   3.510  0.8736  0.2961  0.3984
   31CHL1  H19C 2263   4.497   2.640   3.444 -0.8831 -0.8423 -1.7094
   31CHL1    C1 2264   4.747   2.701   3.435  0.8720  0.7323  0.6236
   31CHL1   H1A 2265   4.681   2.784   3.466  1.1622  0.3773  2.2627
   31CHL1   H1B 2266   4.849   2.717   3.478  0.9414  0.1408  0.6802
   31CHL1    C2 2267   4.748   2.699   3.278 -0.1436 -0.0851 -0.2970
   31CHL1   H2A 2268   4.781   2.796   3.235  0.3092 -0.6044 -1.1384
   31CHL1   H2B 2269   4.647   2.672   3.243  0.1527  0.7872 -1.8753
   31CHL1   C20 2270   4.551   2.580   4.200 -0.6724 -0.0758  0.4363
   31CHL1   H20 2271   4.479   2.496   4.185  0.7206 -1.3950  0.8611
   31CHL1   C21 2272   4.482   2.715   4.186 -0.6829  0.5154  1.2352
   31CHL1  H21A 2273   4.401   2.732   4.260 -0.9286 -1.6093  1.5162
   31CHL1  H21B 2274   4.441   2.721   4.083  2.5872 -1.4557 -0.3651
   31CHL1  H21C 2275   4.556   2.797   4.200  0.7236 -0.0890 -1.8849
   31CHL1   C22 2276   4.605   2.549   4.342  0.4371  0.0171 -0.4559
   31CHL1  H22A 2277   4.518   2.565   4.409 -0.3592  0.6826 -1.6091
   31CHL1  H22B 2278   4.625   2.440   4.347  2.5394  0.3621 -0.4582
   31CHL1   C23 2279   4.722   2.637   4.389 -0.9336  0.5705 -0.5379
   31CHL1  H23A 2280   4.814   2.600   4.338 -0.1915  1.7133 -0.0715
   31CHL1  H23B 2281   4.704   2.740   4.351 -2.6242  0.1650 -0.9012
   31CHL1   C24 2282   4.757   2.640   4.538  0.3876  0.5856 -0.3442
   31CHL1  H24A 2283   4.734   2.737   4.585  0.3559 -0.5406  2.0873
   31CHL1  H24B 2284   4.697   2.562   4.589  0.0525  1.1643  0.1505
   31CHL1   C25 2285   4.906   2.605   4.574  0.3115  0.4808 -0.9214
   31CHL1   H25 2286   4.967   2.663   4.501  1.0334 -2.4694 -2.8127
   31CHL1   C26 2287   4.934   2.640   4.717  0.4963 -0.0327 -0.5928
   31CHL1  H26A 2288   4.942   2.749   4.737 -0.4465 -0.0395 -0.1010
   31CHL1  H26B 2289   4.856   2.604   4.787  1.0151 -1.7770 -0.8589
   31CHL1  H26C 2290   5.038   2.611   4.744 -0.6238 -3.1922  0.6888
   31CHL1   C27 2291   4.946   2.460   4.551  0.4083 -0.3474 -0.7727
   31CHL1  H27A 2292   4.914   2.429   4.449 -2.6546  0.8579 -0.2902
   31CHL1  H27B 2293   5.055   2.462   4.573 -0.2582  0.3671  3.1471
   31CHL1  H27C 2294   4.895   2.391   4.621  0.4563  0.8111  0.4479
   32CHL1    C3 2295   5.300   1.245   3.348 -1.1414 -0.0451  0.2812
   32CHL1    H3 2296   5.353   1.147   3.353 -0.6763  0.1391 -0.8459
   32CHL1    O3 2297   5.342   1.318   3.230 -0.0228 -0.3416  0.4123
   32CHL1   H3' 2298   5.317   1.409   3.247  0.3431 -0.2688  0.5639
   32CHL1    C4 2299   5.147   1.215   3.353 -0.1189  0.3703 -0.0272
   32CHL1   H4A 2300   5.110   1.316   3.322 -0.1196  0.3429 -0.1176
   32CHL1   H4B 2301   5.124   1.152   3.264 -1.3967 -1.6736  1.6666
   32CHL1    C5 2302   5.091   1.156   3.474  0.2507  0.2247  0.1293
   32CHL1    C6 2303   5.034   1.038   3.471 -0.0659 -0.1643  0.4610
   32CHL1    H6 2304   5.027   0.979   3.378  1.4940 -1.3759  1.0682
   32CHL1    C7 2305   4.971   0.979   3.593  0.1156 -0.1586 -0.6645
   32CHL1   H7A 2306   4.866   0.945   3.576 -0.2081 -0.2893  1.3820
   32CHL1   H7B 2307   5.026   0.889   3.628  1.0942 -0.3158 -2.4890
   32CHL1    C8 2308   4.969   1.075   3.721  0.3354 -0.2276 -0.1874
   32CHL1    H8 2309   4.886   1.147   3.709  0.7979  1.1383  3.3592
   32CHL1   C14 2310   4.956   0.999   3.845  0.1537  0.1449 -0.4222
   32CHL1   H14 2311   5.048   0.938   3.857 -0.0305 -0.9972 -3.7147
   32CHL1   C15 2312   4.834   0.896   3.855 -0.0455 -0.0275 -0.2230
   32CHL1  H15A 2313   4.744   0.952   3.821  0.4015 -0.2252 -1.8245
   32CHL1  H15B 2314   4.841   0.802   3.796  0.6193 -0.7930  1.0337
   32CHL1   C16 2315   4.825   0.857   4.004 -0.6616  0.2313 -0.1645
   32CHL1  H16A 2316   4.722   0.890   4.032 -0.6047  2.2557 -2.0498
   32CHL1  H16B 2317   4.841   0.750   4.030  1.9132 -0.0494 -2.4944
   32CHL1   C17 2318   4.930   0.964   4.069  0.1754  0.8417  0.2037
   32CHL1   H17 2319   5.026   0.909   4.062  0.6903  1.8213 -0.5749
   32CHL1   C13 2320   4.939   1.080   3.970  0.1566 -0.4250 -0.7605
   32CHL1   C18 2321   4.812   1.158   3.969 -0.3372  0.3397 -0.1989
   32CHL1  H18A 2322   4.804   1.217   4.062  1.3940 -2.7904  2.1177
   32CHL1  H18B 2323   4.807   1.230   3.884  0.8827 -0.3517 -0.8936
   32CHL1  H18C 2324   4.720   1.096   3.971  0.0846 -0.2830  0.7885
   32CHL1   C12 2325   5.067   1.169   3.988 -0.1818 -0.2484  0.2567
   32CHL1  H12A 2326   5.049   1.241   4.070  2.0305 -0.3272  0.8568
   32CHL1  H12B 2327   5.149   1.098   4.014 -0.4689 -0.5697  0.2992
   32CHL1   C11 2328   5.099   1.246   3.861  0.0240  0.0125 -0.5173
   32CHL1  H11A 2329   5.023   1.327   3.850 -0.3000 -0.5171 -2.5759
   32CHL1  H11B 2330   5.196   1.301   3.868 -1.0106  1.7678  0.9686
   32CHL1    C9 2331   5.100   1.159   3.736  0.5953 -0.1621  0.1856
   32CHL1    H9 2332   5.181   1.083   3.740  0.0213 -0.7990  0.0892
   32CHL1   C10 2333   5.129   1.234   3.601  0.0827  0.5047 -0.5865
   32CHL1   C19 2334   5.042   1.367   3.592  0.8061  1.0017  0.4315
   32CHL1  H19A 2335   5.054   1.442   3.673  0.5847  0.7529  0.6997
   32CHL1  H19B 2336   5.068   1.411   3.494  1.3388 -2.0280 -0.8931
   32CHL1  H19C 2337   4.933   1.346   3.586  0.8967  0.6061  0.1574
   32CHL1    C1 2338   5.273   1.280   3.598 -0.0970 -0.6607  0.4302
   32CHL1   H1A 2339   5.300   1.361   3.669  0.9753 -2.5898  2.3626
   32CHL1   H1B 2340   5.341   1.198   3.629 -0.6939 -1.4221 -0.2167
   32CHL1    C2 2341   5.329   1.334   3.465  0.2687  0.5316 -0.2708
   32CHL1   H2A 2342   5.437   1.355   3.477  0.2844  0.1930  0.2488
   32CHL1   H2B 2343   5.279   1.431   3.447 -0.5267  0.2483  0.3399
   32CHL1   C20 2344   4.896   0.988   4.222  0.4854  0.0381  0.4113
   32CHL1   H20 2345   4.801   1.046   4.227  0.4110 -0.0098 -0.4006
   32CHL1   C21 2346   5.017   1.072   4.286 -0.8694  0.6480 -0.0903
   32CHL1  H21A 2347   5.034   1.180   4.267 -1.0723  0.7713  0.4057
   32CHL1  H21B 2348   5.115   1.031   4.255 -1.7481 -1.0195 -0.7955
   32CHL1  H21C 2349   5.019   1.060   4.396  2.0154  1.6233  0.0441
   32CHL1   C22 2350   4.870   0.862   4.303 -0.3680  0.3588 -0.1336
   32CHL1  H22A 2351   4.804   0.800   4.238  0.1118  1.1545 -1.4015
   32CHL1  H22B 2352   4.966   0.815   4.336 -2.0094 -1.3513  2.7155
   32CHL1   C23 2353   4.787   0.873   4.440 -0.5399  0.6946  0.8231
   32CHL1  H23A 2354   4.842   0.947   4.502 -0.6060  2.9278 -1.6260
   32CHL1  H23B 2355   4.685   0.911   4.415 -0.8058 -0.2534  0.4101
   32CHL1   C24 2356   4.771   0.733   4.511 -0.2868 -0.2085  0.3423
   32CHL1  H24A 2357   4.775   0.656   4.431 -1.8296 -1.5886  1.4993
   32CHL1  H24B 2358   4.861   0.717   4.574 -1.1171  1.0786  1.9650
   32CHL1   C25 2359   4.645   0.709   4.599  0.4892 -0.6097  0.0799
   32CHL1   H25 2360   4.549   0.716   4.545  0.0920 -1.9286  0.5693
   32CHL1   C26 2361   4.663   0.566   4.649 -0.3916 -0.2845  0.2869
   32CHL1  H26A 2362   4.582   0.554   4.724 -0.8892  1.2164  0.0271
   32CHL1  H26B 2363   4.668   0.489   4.569 -0.5397  1.0377 -1.0475
   32CHL1  H26C 2364   4.762   0.564   4.698  0.3953 -1.5618 -1.2753
   32CHL1   C27 2365   4.634   0.817   4.710  0.2108 -0.0510 -0.2954
   32CHL1  H27A 2366   4.560   0.778   4.782  0.1778 -0.4970 -0.5696
   32CHL1  H27B 2367   4.731   0.820   4.764  0.7937  0.5926 -1.3206
   32CHL1  H27C 2368   4.614   0.921   4.674 -1.6653 -0.5571 -0.8106
   33CHL1    C3 2369   0.479   4.293   7.004 -0.4047  0.1082 -0.2286
   33CHL1    H3 2370   0.549   4.251   6.929  0.3850 -2.8180  1.9633
   33CHL1    O3 2371   0.535   4.284   7.132 -0.0905  0.6157  0.0582
   33CHL1   H3' 2372   0.485   4.354   7.175 -1.8857 -0.1638 -0.6537
   33CHL1    C4 2373   0.437   4.435   6.966  0.3083 -0.2987  0.1416
   33CHL1   H4A 2374   0.353   4.475   7.026  1.8421  1.3734  1.2695
   33CHL1   H4B 2375   0.518   4.509   6.980 -0.2765 -0.0380  2.4993
   33CHL1    C5 2376   0.382   4.437   6.824 -0.9671  0.1537 -0.0130
   33CHL1    C6 2377   0.436   4.523   6.738  0.2646 -0.7324  0.2460
   33CHL1    H6 2378   0.513   4.595   6.769  1.7327 -0.9990 -2.4458
   33CHL1    C7 2379   0.378   4.539   6.605  0.2474  0.1168  0.4507
   33CHL1   H7A 2380   0.369   4.647   6.580  1.7462 -0.5385 -3.7159
   33CHL1   H7B 2381   0.452   4.509   6.528 -0.8272  0.9005 -0.9303
   33CHL1    C8 2382   0.241   4.466   6.572 -0.4546 -0.0310  0.5965
   33CHL1    H8 2383   0.163   4.540   6.600 -0.2924  1.1124 -1.7611
   33CHL1   C14 2384   0.219   4.456   6.423  0.0918  0.8865  0.2219
   33CHL1   H14 2385   0.301   4.391   6.386  0.1545  0.7889  0.5289
   33CHL1   C15 2386   0.250   4.584   6.333 -0.5256 -0.0303  0.3017
   33CHL1  H15A 2387   0.187   4.664   6.378  0.3289  0.5661  0.4606
   33CHL1  H15B 2388   0.355   4.620   6.326 -0.1671 -1.3147 -2.0946
   33CHL1   C16 2389   0.198   4.533   6.198  0.6003 -0.2125  0.1163
   33CHL1  H16A 2390   0.122   4.603   6.159 -1.9063 -1.3197  2.6456
   33CHL1  H16B 2391   0.278   4.528   6.122  1.0690  3.3464  0.2017
   33CHL1   C17 2392   0.113   4.405   6.228  0.5694 -0.5365  0.6291
   33CHL1   H17 2393   0.181   4.321   6.204 -1.4360 -1.9868 -0.2811
   33CHL1   C13 2394   0.086   4.393   6.382  0.0524  0.0171  0.1403
   33CHL1   C18 2395  -0.033   4.488   6.417 -0.0652 -0.2732 -0.4368
   33CHL1  H18A 2396  -0.132   4.453   6.381  0.0899 -0.6575 -0.4901
   33CHL1  H18B 2397  -0.036   4.500   6.527 -0.1252 -1.5998 -0.2859
   33CHL1  H18C 2398  -0.020   4.589   6.371  0.4320  0.1584  0.6122
   33CHL1   C12 2399   0.077   4.259   6.455 -0.3028  0.4888 -0.0141
   33CHL1  H12A 2400  -0.025   4.215   6.446  1.2146 -3.2213 -0.6805
   33CHL1  H12B 2401   0.155   4.192   6.414  1.6469  2.1732  0.8102
   33CHL1   C11 2402   0.095   4.265   6.606  0.4322  0.4952  0.0585
   33CHL1  H11A 2403   0.011   4.321   6.653  2.3629  2.9512  0.7914
   33CHL1  H11B 2404   0.087   4.162   6.649 -1.0795  1.3279  1.9147
   33CHL1    C9 2405   0.228   4.333   6.638  0.8547 -0.0782  0.2136
   33CHL1    H9 2406   0.304   4.269   6.590  0.6036 -0.2196  0.0038
   33CHL1   C10 2407   0.264   4.339   6.790  0.8647  0.3224  0.1953
   33CHL1   C19 2408   0.138   4.399   6.869 -0.7872 -0.8472  0.1492
   33CHL1  H19A 2409   0.170   4.406   6.976 -0.2245  0.4036 -0.0735
   33CHL1  H19B 2410   0.146   4.504   6.833  3.9957 -0.9936  0.1277
   33CHL1  H19C 2411   0.042   4.347   6.852 -0.1470 -1.7181 -0.9377
   33CHL1    C1 2412   0.302   4.200   6.849  0.4065  0.5262  0.0919
   33CHL1   H1A 2413   0.207   4.144   6.861  1.4377 -0.8911  2.3623
   33CHL1   H1B 2414   0.374   4.140   6.789 -1.9495 -0.8953 -1.4620
   33CHL1    C2 2415   0.353   4.207   6.992 -0.1901 -0.8594  0.1424
   33CHL1   H2A 2416   0.380   4.103   7.020 -0.1526 -0.6175  1.0686
   33CHL1   H2B 2417   0.274   4.239   7.064  0.5724 -0.8935  1.0095
   33CHL1   C20 2418  -0.012   4.385   6.129  0.4431 -0.0654 -0.0897
   33CHL1   H20 2419  -0.087   4.464   6.149  1.8471  0.7259  2.4189
   33CHL1   C21 2420  -0.079   4.250   6.163  0.3839  0.2276  0.1805
   33CHL1  H21A 2421  -0.164   4.242   6.092 -0.3572  1.8320  0.8246
   33CHL1  H21B 2422  -0.116   4.235   6.267 -0.4898 -1.5112 -0.3440
   33CHL1  H21C 2423  -0.023   4.156   6.146  1.6014  0.2639  3.2829
   33CHL1   C22 2424   0.025   4.390   5.974  0.5383 -0.1574 -0.6676
   33CHL1  H22A 2425   0.109   4.461   5.964  0.2783  0.0261 -1.7048
   33CHL1  H22B 2426   0.058   4.287   5.946 -0.0140 -0.7597  0.7924
   33CHL1   C23 2427  -0.086   4.427   5.879 -0.2852  0.2201 -0.4954
   33CHL1  H23A 2428  -0.172   4.365   5.910 -0.2069  1.1432  1.6975
   33CHL1  H23B 2429  -0.111   4.535   5.887  0.0400  0.2172  0.6068
   33CHL1   C24 2430  -0.056   4.387   5.733 -0.0778 -0.8402 -0.3443
   33CHL1  H24A 2431  -0.051   4.276   5.737  1.1918 -0.7633  1.6750
   33CHL1  H24B 2432  -0.146   4.418   5.676  1.5934  1.3773 -1.9243
   33CHL1   C25 2433   0.056   4.471   5.660  0.7419 -0.3918 -0.1194
   33CHL1   H25 2434   0.050   4.576   5.695 -1.5748  0.0576 -1.5783
   33CHL1   C26 2435   0.193   4.412   5.694  0.3589  0.4085  0.3860
   33CHL1  H26A 2436   0.215   4.417   5.803 -0.4782 -0.6552  0.6235
   33CHL1  H26B 2437   0.198   4.302   5.678 -0.7216 -0.0588  2.7655
   33CHL1  H26C 2438   0.275   4.465   5.640  0.9955  0.1909  1.1180
   33CHL1   C27 2439   0.032   4.469   5.509  0.6351 -0.4676 -0.1464
   33CHL1  H27A 2440   0.055   4.371   5.463  2.2386 -0.3135  0.2758
   33CHL1  H27B 2441  -0.073   4.495   5.483  0.5628  0.8477  1.3090
   33CHL1  H27C 2442   0.091   4.543   5.451 -2.2420  1.6915 -0.5467
   34CHL1    C3 2443   5.159   3.507   3.529  0.3485 -0.2789  1.2023
   34CHL1    H3 2444   5.118   3.610   3.536 -0.4401 -0.5365  0.5022
   34CHL1    O3 2445   5.180   3.473   3.391  0.1358  0.7393  0.1788
   34CHL1   H3' 2446   5.263   3.518   3.369  0.1360 -0.7185 -3.6861
   34CHL1    C4 2447   5.287   3.484   3.602 -0.2370  0.0629  0.7271
   34CHL1   H4A 2448   5.320   3.382   3.574 -0.1676  0.1720  0.4001
   34CHL1   H4B 2449   5.370   3.551   3.570  0.1647 -0.1698  1.2698
   34CHL1    C5 2450   5.275   3.498   3.753  0.5414  0.5407 -0.5609
   34CHL1    C6 2451   5.358   3.584   3.824 -0.4856  0.4163 -0.1684
   34CHL1    H6 2452   5.431   3.644   3.767 -2.7299  0.3848 -3.3177
   34CHL1    C7 2453   5.352   3.595   3.978  0.0368 -0.2624  0.4832
   34CHL1   H7A 2454   5.455   3.587   4.019  0.3381 -0.3389 -0.2807
   34CHL1   H7B 2455   5.322   3.701   3.995  0.4359 -0.4022  2.2439
   34CHL1    C8 2456   5.254   3.495   4.043 -0.2364  0.6628  0.0284
   34CHL1    H8 2457   5.308   3.399   4.052  0.0656  0.9594  1.7295
   34CHL1   C14 2458   5.223   3.547   4.180  0.1075 -0.4755 -0.2240
   34CHL1   H14 2459   5.168   3.642   4.162 -0.6534 -1.0777 -1.2352
   34CHL1   C15 2460   5.337   3.593   4.268  0.3184  0.2279  0.2190
   34CHL1  H15A 2461   5.416   3.516   4.274 -0.6111 -0.8925 -1.1738
   34CHL1  H15B 2462   5.391   3.682   4.229 -0.2749  0.2074 -0.6969
   34CHL1   C16 2463   5.268   3.599   4.408  0.3305 -0.5688  0.2910
   34CHL1  H16A 2464   5.306   3.525   4.482  1.1774 -2.0667 -1.5458
   34CHL1  H16B 2465   5.269   3.704   4.443  0.8890  0.1609 -1.7699
   34CHL1   C17 2466   5.122   3.547   4.389  0.1577 -0.3680 -0.0879
   34CHL1   H17 2467   5.065   3.636   4.356  0.7891  0.5903  1.3294
   34CHL1   C13 2468   5.132   3.461   4.265 -0.1388 -0.4780 -0.5902
   34CHL1   C18 2469   5.197   3.322   4.297 -0.2100 -0.8260 -0.0856
   34CHL1  H18A 2470   5.153   3.273   4.387 -0.2010 -1.9851 -0.6921
   34CHL1  H18B 2471   5.182   3.253   4.211 -1.2117  0.8477 -1.3073
   34CHL1  H18C 2472   5.306   3.329   4.315 -0.0287  2.0706 -1.7822
   34CHL1   C12 2473   4.999   3.439   4.181  0.2269 -0.8716 -0.4904
   34CHL1  H12A 2474   4.915   3.384   4.228 -1.1909  2.3620  1.1241
   34CHL1  H12B 2475   4.949   3.538   4.169  0.7968 -0.4614  0.4189
   34CHL1   C11 2476   5.023   3.387   4.039 -0.0337  0.1763  0.0902
   34CHL1  H11A 2477   5.046   3.278   4.041 -1.3580 -0.1358 -0.2573
   34CHL1  H11B 2478   4.923   3.392   3.989 -1.3368  0.7502  2.6109
   34CHL1    C9 2479   5.126   3.466   3.958 -0.4423  0.0883  0.2562
   34CHL1    H9 2480   5.079   3.564   3.934 -0.9623 -0.4547 -1.0174
   34CHL1   C10 2481   5.157   3.417   3.815  0.3611  0.4691 -1.2198
   34CHL1   C19 2482   5.205   3.272   3.823 -0.4620  0.2748  0.0867
   34CHL1  H19A 2483   5.125   3.204   3.859  1.0748 -0.2563  2.7840
   34CHL1  H19B 2484   5.230   3.233   3.722 -1.9373  0.4576 -0.3757
   34CHL1  H19C 2485   5.292   3.249   3.888 -0.0631 -1.8301 -1.1082
   34CHL1    C1 2486   5.025   3.443   3.730 -0.2736 -0.1537  0.2817
   34CHL1   H1A 2487   4.940   3.378   3.760 -0.4853 -0.2637 -0.5471
   34CHL1   H1B 2488   4.983   3.546   3.734 -1.5953 -0.5211 -2.1083
   34CHL1    C2 2489   5.050   3.409   3.580  0.1132 -0.4035 -0.6445
   34CHL1   H2A 2490   4.959   3.425   3.519 -0.2624 -1.0147 -0.2548
   34CHL1   H2B 2491   5.094   3.308   3.564  1.3113 -0.5290  2.6239
   34CHL1   C20 2492   5.057   3.497   4.523 -0.2461  0.5803  0.2508
   34CHL1   H20 2493   5.105   3.405   4.562 -1.9021 -0.4766 -0.1340
   34CHL1   C21 2494   4.906   3.472   4.505 -0.8364  0.0462  0.0673
   34CHL1  H21A 2495   4.873   3.572   4.469  0.3738 -0.0308 -1.3601
   34CHL1  H21B 2496   4.849   3.446   4.597 -1.2547 -1.2670 -0.5304
   34CHL1  H21C 2497   4.881   3.398   4.425  0.4889  0.4088 -0.7107
   34CHL1   C22 2498   5.068   3.603   4.637  0.2500 -0.0532 -0.4743
   34CHL1  H22A 2499   5.174   3.635   4.644  0.1678 -0.0003  0.8433
   34CHL1  H22B 2500   5.002   3.691   4.625  0.1776  0.3162  1.9782
   34CHL1   C23 2501   5.035   3.544   4.778  0.0451 -0.0826 -0.3165
   34CHL1  H23A 2502   4.928   3.514   4.788 -0.0972  0.7964  1.0380
   34CHL1  H23B 2503   5.101   3.456   4.791  1.5627  0.8941 -1.0751
   34CHL1   C24 2504   5.060   3.652   4.890 -0.0388 -0.0366  0.2137
   34CHL1  H24A 2505   5.162   3.695   4.881 -0.0257 -0.2123 -0.5416
   34CHL1  H24B 2506   4.996   3.739   4.862  0.2046  0.1204  0.1403
   34CHL1   C25 2507   5.041   3.597   5.036 -0.0535 -0.4735  0.5992
   34CHL1   H25 2508   5.038   3.692   5.094  2.4677  0.1767 -0.1906
   34CHL1   C26 2509   4.902   3.534   5.064 -0.2523 -0.3115  0.6601
   34CHL1  H26A 2510   4.895   3.436   5.012 -1.1646  0.4267 -0.6612
   34CHL1  H26B 2511   4.876   3.522   5.172 -0.4768 -0.7593  0.5590
   34CHL1  H26C 2512   4.825   3.602   5.021  1.2859  1.2685  0.3101
   34CHL1   C27 2513   5.158   3.505   5.072  0.0990  0.1707  0.2903
   34CHL1  H27A 2514   5.251   3.565   5.074 -0.8931  1.9238 -1.8924
   34CHL1  H27B 2515   5.145   3.462   5.174 -0.7903  1.9439  0.9691
   34CHL1  H27C 2516   5.177   3.415   5.009  0.2749 -0.4084  1.1484
   35CHL1    C3 2517   0.764   3.239   3.390 -0.4634  0.5809  0.1681
   35CHL1    H3 2518   0.810   3.150   3.342  0.5546  1.6811 -0.9828
   35CHL1    O3 2519   0.717   3.319   3.285  0.0612 -0.5008 -0.0215
   35CHL1   H3' 2520   0.776   3.375   3.234 -2.0545  1.3803 -0.5743
   35CHL1    C4 2521   0.656   3.209   3.487 -0.5946  0.4512 -0.8350
   35CHL1   H4A 2522   0.600   3.301   3.514 -4.7236 -1.9813 -0.2376
   35CHL1   H4B 2523   0.569   3.157   3.440 -1.0628 -0.8807  1.3785
   35CHL1    C5 2524   0.706   3.127   3.605  0.1678  0.2150  0.8186
   35CHL1    C6 2525   0.668   3.005   3.631  0.6788 -0.3920  0.6765
   35CHL1    H6 2526   0.590   2.961   3.567  2.0954 -2.7852  0.4561
   35CHL1    C7 2527   0.720   2.925   3.748  0.3117 -0.0307 -0.0241
   35CHL1   H7A 2528   0.628   2.877   3.789  0.4570  0.8833  1.4691
   35CHL1   H7B 2529   0.780   2.840   3.708  0.6319  1.3216 -2.6497
   35CHL1    C8 2530   0.769   3.019   3.867  0.4324  0.8407  0.0584
   35CHL1    H8 2531   0.686   3.079   3.910  2.2777  2.5986  1.3331
   35CHL1   C14 2532   0.841   2.934   3.968 -0.0837  0.8055  0.2585
   35CHL1   H14 2533   0.933   2.892   3.921  0.1023  1.8500 -0.3262
   35CHL1   C15 2534   0.768   2.820   4.036  0.3996 -0.1684 -0.0373
   35CHL1  H15A 2535   0.672   2.856   4.077  0.3557  2.3413 -2.0819
   35CHL1  H15B 2536   0.741   2.735   3.970 -2.2711  0.7372 -0.2188
   35CHL1   C16 2537   0.854   2.788   4.145  0.4599  0.4915 -0.1286
   35CHL1  H16A 2538   0.797   2.763   4.237 -0.6542 -2.1996 -1.4421
   35CHL1  H16B 2539   0.910   2.697   4.115 -0.1136  0.4666 -1.1552
   35CHL1   C17 2540   0.947   2.909   4.164  0.1538  0.2777 -0.7311
   35CHL1   H17 2541   1.049   2.876   4.133  0.4075 -1.3138  1.5386
   35CHL1   C13 2542   0.892   3.027   4.080 -0.0017  0.3910  0.3761
   35CHL1   C18 2543   0.773   3.105   4.152 -0.7312 -0.4577 -0.1495
   35CHL1  H18A 2544   0.692   3.039   4.190  0.0147  0.4546  3.3336
   35CHL1  H18B 2545   0.822   3.152   4.240  2.1626 -1.2026 -1.2629
   35CHL1  H18C 2546   0.730   3.179   4.082 -0.3631  0.9215  1.0410
   35CHL1   C12 2547   1.006   3.123   4.024 -0.0254 -0.7473  0.0949
   35CHL1  H12A 2548   1.053   3.185   4.103  0.7260 -0.7528 -0.3385
   35CHL1  H12B 2549   1.089   3.058   3.990 -0.3602 -0.7426 -0.7684
   35CHL1   C11 2550   0.950   3.201   3.911  0.3709 -0.4903 -0.1676
   35CHL1  H11A 2551   0.885   3.278   3.958 -0.8851  0.0094 -2.5767
   35CHL1  H11B 2552   1.023   3.266   3.858 -0.2547  0.0090 -0.4283
   35CHL1    C9 2553   0.870   3.118   3.807  0.0904 -0.1033 -0.4097
   35CHL1    H9 2554   0.942   3.051   3.756  1.0994  1.3123 -0.9336
   35CHL1   C10 2555   0.815   3.205   3.686  0.0193  0.8395  0.5563
   35CHL1   C19 2556   0.743   3.334   3.744  0.0079 -0.9415 -0.1424
   35CHL1  H19A 2557   0.692   3.391   3.663 -0.7450 -1.1459  0.1839
   35CHL1  H19B 2558   0.671   3.300   3.821  1.6990 -1.6288  1.2164
   35CHL1  H19C 2559   0.818   3.397   3.798  2.0568 -1.8231 -1.7903
   35CHL1    C1 2560   0.924   3.242   3.582  0.3595 -0.1504 -0.0945
   35CHL1   H1A 2561   1.005   3.301   3.629  0.9679  0.9682 -2.4111
   35CHL1   H1B 2562   0.983   3.156   3.545  0.5959  0.8217 -2.1091
   35CHL1    C2 2563   0.876   3.320   3.463  0.3931 -0.1246 -0.2647
   35CHL1   H2A 2564   0.953   3.357   3.391  0.7303  1.6937  0.9585
   35CHL1   H2B 2565   0.832   3.415   3.500  2.0658  0.5985 -0.0495
   35CHL1   C20 2566   0.972   2.945   4.313  0.6287  0.1690 -0.7577
   35CHL1   H20 2567   1.011   3.049   4.310 -0.9800  0.8975  1.4565
   35CHL1   C21 2568   1.081   2.858   4.376 -0.1871  0.0200  0.3954
   35CHL1  H21A 2569   1.039   2.757   4.357  0.3939  0.1284 -1.7492
   35CHL1  H21B 2570   1.099   2.891   4.480 -0.2730  3.1502 -0.4753
   35CHL1  H21C 2571   1.174   2.860   4.315  0.1340 -0.2470  0.8691
   35CHL1   C22 2572   0.852   2.937   4.409  0.4613  0.5609 -0.5493
   35CHL1  H22A 2573   0.752   2.954   4.363 -0.3383  0.3194  1.0323
   35CHL1  H22B 2574   0.849   2.837   4.457  2.0625  0.8324  0.1857
   35CHL1   C23 2575   0.854   3.053   4.520 -0.8079 -0.1576 -0.4424
   35CHL1  H23A 2576   0.960   3.069   4.548  0.1990  0.7725 -4.1958
   35CHL1  H23B 2577   0.821   3.147   4.471  1.2324  0.3792 -0.9013
   35CHL1   C24 2578   0.753   3.040   4.634  0.4828  0.1192  0.1011
   35CHL1  H24A 2579   0.659   3.007   4.585  0.3176 -1.1447  1.2113
   35CHL1  H24B 2580   0.776   2.951   4.695  0.4867 -0.4515 -0.7112
   35CHL1   C25 2581   0.731   3.158   4.725  0.0504 -0.4734  1.2988
   35CHL1   H25 2582   0.711   3.252   4.670 -0.6709 -1.8352 -0.9126
   35CHL1   C26 2583   0.605   3.153   4.811  0.2741 -0.1780  0.2198
   35CHL1  H26A 2584   0.601   3.249   4.866  2.0708  1.1004 -1.7380
   35CHL1  H26B 2585   0.520   3.121   4.747  1.8575 -1.7303 -1.2680
   35CHL1  H26C 2586   0.636   3.075   4.884  1.5813  0.5449  0.4746
   35CHL1   C27 2587   0.854   3.177   4.814 -0.9889 -0.2522 -0.6941
   35CHL1  H27A 2588   0.825   3.251   4.892 -1.7764 -0.2852 -0.9524
   35CHL1  H27B 2589   0.876   3.083   4.869 -1.8690  0.1882  0.4496
   35CHL1  H27C 2590   0.947   3.211   4.762 -0.4868 -0.7196 -0.1171
   36CHL1    C3 2591   3.548   1.792   3.408  0.3367 -0.6516  0.0692
   36CHL1    H3 2592   3.518   1.896   3.386  0.0605  0.1986  3.7598
   36CHL1    O3 2593   3.548   1.722   3.283  0.6580  0.4087  0.1241
   36CHL1   H3' 2594   3.586   1.640   3.314 -0.8250  0.4265  2.2698
   36CHL1    C4 2595   3.685   1.781   3.473 -0.3485 -1.2023  0.6044
   36CHL1   H4A 2596   3.733   1.681   3.479  0.7353 -0.7064  0.4253
   36CHL1   H4B 2597   3.751   1.838   3.405 -1.3790 -0.6864  0.0053
   36CHL1    C5 2598   3.689   1.848   3.606  0.7698  0.6576  0.2013
   36CHL1    C6 2599   3.762   1.949   3.643  0.1723 -0.5329  0.1537
   36CHL1    H6 2600   3.841   1.966   3.568 -0.3503  2.2856  0.1621
   36CHL1    C7 2601   3.766   2.020   3.777 -0.2127 -0.0057  0.1033
   36CHL1   H7A 2602   3.868   2.056   3.801  0.6494 -0.8758 -2.0926
   36CHL1   H7B 2603   3.705   2.113   3.771  0.7867  0.5944 -1.0671
   36CHL1    C8 2604   3.713   1.924   3.887  0.4330 -0.6669  0.3675
   36CHL1    H8 2605   3.793   1.848   3.901 -0.0385 -0.9769  1.5714
   36CHL1   C14 2606   3.694   1.986   4.021 -0.2275 -0.8180 -0.6797
   36CHL1   H14 2607   3.609   2.054   3.997 -0.5858 -0.7713  0.6341
   36CHL1   C15 2608   3.809   2.074   4.088 -0.1938 -0.1850 -0.0227
   36CHL1  H15A 2609   3.897   2.012   4.064  0.5659  0.7944  0.1636
   36CHL1  H15B 2610   3.823   2.175   4.042  1.8752 -0.5155 -0.2157
   36CHL1   C16 2611   3.769   2.075   4.232 -0.3491  0.2565  0.8941
   36CHL1  H16A 2612   3.850   2.027   4.290  0.1008  0.3919  0.3790
   36CHL1  H16B 2613   3.746   2.176   4.273 -0.4046 -0.3168  2.3590
   36CHL1   C17 2614   3.636   2.005   4.251 -0.3223  0.8050 -0.4184
   36CHL1   H17 2615   3.564   2.085   4.223 -0.4410  0.8233 -0.0597
   36CHL1   C13 2616   3.632   1.905   4.134  0.0122 -1.1418  0.0619
   36CHL1   C18 2617   3.714   1.776   4.160 -0.0304  0.4453  0.1374
   36CHL1  H18A 2618   3.716   1.716   4.067 -0.3785  0.2438  0.2611
   36CHL1  H18B 2619   3.820   1.797   4.186  0.0485  1.0825 -0.6362
   36CHL1  H18C 2620   3.668   1.711   4.237  1.8530  0.7207  1.5977
   36CHL1   C12 2621   3.487   1.875   4.092 -0.2310 -0.1410  0.1372
   36CHL1  H12A 2622   3.431   1.811   4.164 -1.9965 -0.0042 -1.0424
   36CHL1  H12B 2623   3.430   1.970   4.101 -0.1692  0.0110 -0.9864
   36CHL1   C11 2624   3.488   1.807   3.952  0.5115 -0.3083  0.0560
   36CHL1  H11A 2625   3.525   1.705   3.976 -0.5431 -0.5544  0.6981
   36CHL1  H11B 2626   3.385   1.801   3.911 -0.6339 -0.9128  2.7357
   36CHL1    C9 2627   3.575   1.873   3.840  0.2694  0.2023  0.5715
   36CHL1    H9 2628   3.529   1.970   3.812  0.3678 -0.2374 -1.2416
   36CHL1   C10 2629   3.587   1.793   3.705  0.0486 -0.0151 -0.6850
   36CHL1   C19 2630   3.624   1.649   3.746 -0.2519 -0.7026  0.2534
   36CHL1  H19A 2631   3.529   1.600   3.780 -0.9120 -0.0277 -0.5720
   36CHL1  H19B 2632   3.639   1.593   3.651  1.9644  0.1180  0.0706
   36CHL1  H19C 2633   3.714   1.640   3.810  0.7558  0.6156 -0.9477
   36CHL1    C1 2634   3.442   1.790   3.645 -0.4929  0.2141 -0.2110
   36CHL1   H1A 2635   3.381   1.731   3.717  0.8733  1.1678  1.8044
   36CHL1   H1B 2636   3.410   1.896   3.642 -1.2436 -0.0041 -0.4279
   36CHL1    C2 2637   3.435   1.727   3.498 -0.3365 -0.2081 -0.1629
   36CHL1   H2A 2638   3.341   1.753   3.446  0.7880  0.8108 -1.7649
   36CHL1   H2B 2639   3.439   1.616   3.491  0.8925 -0.2985  1.4697
   36CHL1   C20 2640   3.599   1.953   4.389  0.3157 -0.5499  0.4530
   36CHL1   H20 2641   3.516   1.880   4.378  1.1445 -1.6601  1.3409
   36CHL1   C21 2642   3.541   2.070   4.475  0.1898  0.1704  0.2950
   36CHL1  H21A 2643   3.487   2.028   4.563 -1.1677  0.4189 -0.3972
   36CHL1  H21B 2644   3.476   2.133   4.411  0.1674 -1.5481 -1.4385
   36CHL1  H21C 2645   3.618   2.138   4.517 -0.3533  1.6882 -1.0482
   36CHL1   C22 2646   3.699   1.874   4.476 -0.3691 -0.5837 -1.1676
   36CHL1  H22A 2647   3.756   1.799   4.415 -0.5733 -1.2030 -0.6048
   36CHL1  H22B 2648   3.775   1.942   4.521 -0.6368  0.1386 -1.7874
   36CHL1   C23 2649   3.628   1.799   4.590 -0.0417 -0.1932 -0.1931
   36CHL1  H23A 2650   3.588   1.877   4.657 -0.4545  0.2601 -0.9519
   36CHL1  H23B 2651   3.551   1.726   4.555 -0.7052 -0.4395  1.6752
   36CHL1   C24 2652   3.723   1.694   4.668  0.4839  0.4030  0.1520
   36CHL1  H24A 2653   3.740   1.601   4.610 -3.4310  0.4272 -1.3969
   36CHL1  H24B 2654   3.820   1.744   4.689  1.1327  0.2467 -2.2033
   36CHL1   C25 2655   3.653   1.641   4.800 -0.5196  0.4096  0.0297
   36CHL1   H25 2656   3.543   1.638   4.786 -0.7746 -2.3935  1.8700
   36CHL1   C26 2657   3.696   1.501   4.845 -0.3166  0.3731 -0.2616
   36CHL1  H26A 2658   3.657   1.458   4.940 -1.5022  1.1890 -0.3588
   36CHL1  H26B 2659   3.678   1.424   4.767 -0.7386 -1.7724  1.8432
   36CHL1  H26C 2660   3.806   1.508   4.859 -0.2968 -1.0625  0.4427
   36CHL1   C27 2661   3.665   1.747   4.909  0.0324 -0.5268  0.0617
   36CHL1  H27A 2662   3.600   1.836   4.892  0.6439 -0.2284 -0.7477
   36CHL1  H27B 2663   3.647   1.701   5.009 -0.3218 -0.4580  0.0298
   36CHL1  H27C 2664   3.768   1.788   4.912  0.0533  0.2282 -4.3408
   37CHL1    C3 2665   0.817   0.754   3.233  0.6541 -0.6539 -0.8651
   37CHL1    H3 2666   0.769   0.666   3.282  2.6968 -1.8256 -0.8623
   37CHL1    O3 2667   0.799   0.740   3.088  0.0175  0.2491 -0.1800
   37CHL1   H3' 2668   0.871   0.796   3.057  0.4777  0.1781  0.7370
   37CHL1    C4 2669   0.737   0.879   3.286 -0.4423  0.4348  0.4056
   37CHL1   H4A 2670   0.764   0.964   3.220 -3.3804  0.8566 -0.4381
   37CHL1   H4B 2671   0.632   0.845   3.269 -0.4499  0.9719 -0.6713
   37CHL1    C5 2672   0.759   0.924   3.419 -0.2701 -0.5899 -0.0453
   37CHL1    C6 2673   0.654   0.942   3.503  0.2242  0.3922  0.4946
   37CHL1    H6 2674   0.553   0.930   3.461  0.0470  0.2759  0.9432
   37CHL1    C7 2675   0.668   0.977   3.649  0.4405  0.3236  0.1824
   37CHL1   H7A 2676   0.590   1.050   3.678  0.0974 -0.3887  1.1021
   37CHL1   H7B 2677   0.647   0.888   3.712  2.3100  0.0204  0.4284
   37CHL1    C8 2678   0.812   1.022   3.698  0.7930  0.4485  1.1621
   37CHL1    H8 2679   0.840   1.125   3.669  2.1629 -0.0913  0.4434
   37CHL1   C14 2680   0.825   1.014   3.850  0.7273 -0.9321  0.4275
   37CHL1   H14 2681   0.805   0.908   3.879 -0.2536  0.3007  5.0939
   37CHL1   C15 2682   0.729   1.103   3.932 -0.5132 -0.4088 -0.4124
   37CHL1  H15A 2683   0.715   1.198   3.876  0.2108 -0.0280  0.0456
   37CHL1  H15B 2684   0.628   1.059   3.946 -2.0326  3.2897  1.5926
   37CHL1   C16 2685   0.798   1.119   4.070 -0.2911 -0.1360  0.1207
   37CHL1  H16A 2686   0.810   1.225   4.098  2.2434 -0.4662  0.5015
   37CHL1  H16B 2687   0.733   1.060   4.139  1.6607 -2.5879  0.0071
   37CHL1   C17 2688   0.941   1.058   4.054  0.4727 -0.2918  0.5196
   37CHL1   H17 2689   0.927   0.954   4.090  2.3079 -0.1769  1.7289
   37CHL1   C13 2690   0.967   1.058   3.900  0.0524  0.6775  0.0117
   37CHL1   C18 2691   1.003   1.206   3.854  0.1926  0.1077 -0.4461
   37CHL1  H18A 2692   1.028   1.214   3.745  0.2457 -1.0752 -0.5318
   37CHL1  H18B 2693   0.920   1.271   3.890  1.8580  0.4028  3.2509
   37CHL1  H18C 2694   1.098   1.240   3.900  1.0590 -0.8575 -1.4380
   37CHL1   C12 2695   1.057   0.951   3.845 -0.5941 -0.1272  0.5889
   37CHL1  H12A 2696   1.163   0.965   3.873 -0.8532  1.5611  0.8369
   37CHL1  H12B 2697   1.034   0.848   3.881 -0.3449 -0.8068 -1.1008
   37CHL1   C11 2698   1.050   0.945   3.694 -0.1024 -0.2270 -0.9003
   37CHL1  H11A 2699   1.086   1.036   3.642  0.1627 -2.1871 -4.4487
   37CHL1  H11B 2700   1.120   0.865   3.662  1.9714  0.2430  2.0516
   37CHL1    C9 2701   0.904   0.923   3.631 -0.1101  0.6014  0.3706
   37CHL1    H9 2702   0.874   0.820   3.661  0.0288 -0.0694 -1.6244
   37CHL1   C10 2703   0.901   0.928   3.474 -0.1340 -0.4023 -0.1037
   37CHL1   C19 2704   0.955   1.061   3.426  0.2645  0.0830  0.1945
   37CHL1  H19A 2705   0.888   1.147   3.442 -0.4198 -0.3420 -0.3252
   37CHL1  H19B 2706   1.053   1.094   3.466 -0.6329  3.3380 -0.0694
   37CHL1  H19C 2707   0.970   1.048   3.317 -2.3331 -0.0366 -0.1966
   37CHL1    C1 2708   0.993   0.819   3.416  0.2857  0.3899 -0.3022
   37CHL1   H1A 2709   1.100   0.849   3.417  0.4855 -0.0806 -2.4457
   37CHL1   H1B 2710   0.982   0.732   3.483 -0.9369  2.1159  1.8837
   37CHL1    C2 2711   0.958   0.779   3.270  0.2070  0.7610 -0.7029
   37CHL1   H2A 2712   1.017   0.687   3.251 -0.9600 -0.2409  0.3256
   37CHL1   H2B 2713   1.002   0.851   3.199  0.2333  1.4757  0.0236
   37CHL1   C20 2714   1.044   1.127   4.149  0.3508  0.0340 -0.8153
   37CHL1   H20 2715   1.043   1.229   4.106 -0.4680 -0.8505 -3.0848
   37CHL1   C21 2716   1.182   1.070   4.138  0.3704  0.0670 -0.5862
   37CHL1  H21A 2717   1.248   1.119   4.212 -0.1043 -0.5883  0.2916
   37CHL1  H21B 2718   1.223   1.076   4.035  0.4403 -0.6675 -0.6075
   37CHL1  H21C 2719   1.177   0.961   4.162 -0.9205  0.1204 -0.5489
   37CHL1   C22 2720   1.001   1.130   4.298 -0.8114  0.1069  0.8242
   37CHL1  H22A 2721   1.069   1.197   4.354 -0.5700  0.3804  0.2108
   37CHL1  H22B 2722   0.898   1.172   4.310 -2.7319 -3.8270 -0.0398
   37CHL1   C23 2723   1.010   0.995   4.365 -0.4665  0.4782 -0.2959
   37CHL1  H23A 2724   0.984   0.905   4.305 -0.3897  0.1011  0.2335
   37CHL1  H23B 2725   1.115   0.974   4.392 -0.4752 -0.0756 -0.6889
   37CHL1   C24 2726   0.943   0.988   4.506 -0.1980  0.2923 -0.0514
   37CHL1  H24A 2727   1.007   1.039   4.582  1.2808  0.4811 -1.3837
   37CHL1  H24B 2728   0.839   1.028   4.512 -0.2148  0.1180  1.2742
   37CHL1   C25 2729   0.934   0.838   4.553  0.4651  0.9346  0.0750
   37CHL1   H25 2730   1.031   0.788   4.532  1.7001  1.9888  2.8524
   37CHL1   C26 2731   0.899   0.814   4.704 -0.0201  0.6540  0.4874
   37CHL1  H26A 2732   0.977   0.866   4.762 -1.6339  4.2966 -0.3103
   37CHL1  H26B 2733   0.803   0.865   4.730 -0.2112  0.1153  0.8602
   37CHL1  H26C 2734   0.876   0.709   4.732  2.3632  0.2750  1.2423
   37CHL1   C27 2735   0.824   0.769   4.465 -0.5207 -0.4608 -0.6405
   37CHL1  H27A 2736   0.857   0.746   4.362  2.7890 -1.5929  0.5173
   37CHL1  H27B 2737   0.799   0.675   4.519 -0.6440  0.3322  0.7378
   37CHL1  H27C 2738   0.730   0.828   4.467 -0.4091 -0.2366 -1.8124
   38CHL1    C3 2739   3.372   0.597   3.018 -0.0004  0.0410  0.0301
   38CHL1    H3 2740   3.308   0.682   3.049  0.1591  0.3481 -0.4787
   38CHL1    O3 2741   3.380   0.583   2.873 -0.0528 -0.2470  0.2039
   38CHL1   H3' 2742   3.408   0.670   2.843  1.8488 -0.3475  1.5229
   38CHL1    C4 2743   3.515   0.613   3.067 -0.2301 -0.0162  0.8656
   38CHL1   H4A 2744   3.588   0.536   3.033  1.2455  1.0188  1.5664
   38CHL1   H4B 2745   3.545   0.702   3.008 -1.0203 -1.3566 -1.6813
   38CHL1    C5 2746   3.524   0.636   3.212  0.7633  0.9895 -0.4039
   38CHL1    C6 2747   3.582   0.743   3.266  0.0572  1.0045  0.6505
   38CHL1    H6 2748   3.618   0.832   3.212 -1.1166  1.1464  0.0648
   38CHL1    C7 2749   3.603   0.758   3.415  0.2833 -0.2176  0.3599
   38CHL1   H7A 2750   3.713   0.756   3.429  0.5381 -2.6774 -1.3758
   38CHL1   H7B 2751   3.565   0.855   3.453 -0.4724  0.1980 -1.3673
   38CHL1    C8 2752   3.559   0.637   3.501 -0.4858 -0.1163 -0.0166
   38CHL1    H8 2753   3.645   0.566   3.506  2.9476  3.7223  2.3814
   38CHL1   C14 2754   3.531   0.679   3.644 -0.2495  0.1428  0.2615
   38CHL1   H14 2755   3.437   0.739   3.644  0.2284  0.9107  1.3015
   38CHL1   C15 2756   3.638   0.770   3.714 -0.0545  1.0550  0.0641
   38CHL1  H15A 2757   3.746   0.744   3.709  0.2636  2.1670  0.7118
   38CHL1  H15B 2758   3.641   0.872   3.670  0.2573  0.0799 -2.2904
   38CHL1   C16 2759   3.595   0.760   3.860  0.6892 -0.8486  1.1095
   38CHL1  H16A 2760   3.687   0.726   3.913  1.2495 -0.2492  0.5482
   38CHL1  H16B 2761   3.541   0.849   3.897  0.6744 -0.5461  0.3805
   38CHL1   C17 2762   3.490   0.647   3.873  0.3815  0.2008 -0.7233
   38CHL1   H17 2763   3.390   0.694   3.868  0.1222 -0.2590  0.0752
   38CHL1   C13 2764   3.504   0.572   3.749 -0.6800  0.3362  1.0322
   38CHL1   C18 2765   3.621   0.475   3.761  0.7715 -0.7878  0.1218
   38CHL1  H18A 2766   3.582   0.390   3.822  0.2198 -1.3759 -1.0171
   38CHL1  H18B 2767   3.648   0.425   3.666 -3.2032 -1.2379 -0.9599
   38CHL1  H18C 2768   3.711   0.524   3.803  0.6703 -0.8038  0.3601
   38CHL1   C12 2769   3.380   0.486   3.691  0.0146  0.0056  0.1115
   38CHL1  H12A 2770   3.353   0.400   3.756  0.2022 -0.9948 -1.0983
   38CHL1  H12B 2771   3.297   0.559   3.681 -0.9025 -1.0137  0.1125
   38CHL1   C11 2772   3.394   0.444   3.547 -0.5558 -0.4402  0.7775
   38CHL1  H11A 2773   3.475   0.369   3.543 -1.3020 -1.2073 -0.5578
   38CHL1  H11B 2774   3.299   0.401   3.510  0.7485 -2.1554 -0.7429
   38CHL1    C9 2775   3.438   0.563   3.446  0.3706 -0.2579 -0.1447
   38CHL1    H9 2776   3.349   0.629   3.453  1.7883  1.7515 -0.4376
   38CHL1   C10 2777   3.455   0.519   3.301  0.4206 -0.1413  0.0021
   38CHL1   C19 2778   3.538   0.386   3.290  0.0026 -0.5705 -0.8348
   38CHL1  H19A 2779   3.646   0.393   3.317  0.0092 -1.8061 -0.4643
   38CHL1  H19B 2780   3.491   0.301   3.343  0.3448 -0.0514  0.3304
   38CHL1  H19C 2781   3.536   0.357   3.183  0.4785 -0.8105 -0.7836
   38CHL1    C1 2782   3.316   0.498   3.241 -0.8556  0.3958  0.6552
   38CHL1   H1A 2783   3.269   0.406   3.282 -3.8844  1.1994 -0.7169
   38CHL1   H1B 2784   3.246   0.582   3.261 -1.4108 -0.4574  2.5566
   38CHL1    C2 2785   3.310   0.475   3.084 -0.7384 -0.0249  0.5619
   38CHL1   H2A 2786   3.205   0.461   3.051 -0.9517 -0.5095  1.4025
   38CHL1   H2B 2787   3.369   0.385   3.057  0.1552  0.9677 -0.9031
   38CHL1   C20 2788   3.488   0.577   4.005 -0.2671 -0.2052  0.3088
   38CHL1   H20 2789   3.575   0.508   4.013 -1.4118 -1.6213  1.0464
   38CHL1   C21 2790   3.351   0.526   4.032  0.5488  0.7061  0.5354
   38CHL1  H21A 2791   3.273   0.605   4.022  0.3343  0.9348  3.1392
   38CHL1  H21B 2792   3.338   0.477   4.131  4.0868  0.2384  0.9083
   38CHL1  H21C 2793   3.329   0.443   3.962 -0.3442  0.9161  0.5590
   38CHL1   C22 2794   3.510   0.669   4.130 -0.5088 -0.8113 -0.3387
   38CHL1  H22A 2795   3.509   0.601   4.218 -0.9117  1.9562  1.9332
   38CHL1  H22B 2796   3.610   0.717   4.132 -0.8036 -0.1422  2.2500
   38CHL1   C23 2797   3.417   0.793   4.155  0.7840  0.1947 -0.0234
   38CHL1  H23A 2798   3.412   0.845   4.056 -0.8764 -0.1325 -0.1381
   38CHL1  H23B 2799   3.310   0.772   4.172  0.6683 -2.0656 -2.7797
   38CHL1   C24 2800   3.468   0.879   4.272  0.0258 -0.0756 -0.0822
   38CHL1  H24A 2801   3.549   0.830   4.330 -0.2136  1.5590  1.7730
   38CHL1  H24B 2802   3.507   0.974   4.228 -1.5254  2.1660  2.9545
   38CHL1   C25 2803   3.361   0.922   4.368 -0.0401 -0.7242 -0.5164
   38CHL1   H25 2804   3.267   0.959   4.321 -0.4975  1.6428  1.9903
   38CHL1   C26 2805   3.303   0.810   4.454  0.3088  0.2937  0.8566
   38CHL1  H26A 2806   3.254   0.727   4.399  0.4970  0.4144  0.5005
   38CHL1  H26B 2807   3.389   0.752   4.495  0.3256 -0.2348  0.0947
   38CHL1  H26C 2808   3.233   0.836   4.537  0.9141 -1.4929  1.9881
   38CHL1   C27 2809   3.419   1.039   4.461 -0.2776 -0.4054 -0.5024
   38CHL1  H27A 2810   3.349   1.055   4.546 -0.7604 -1.4063 -0.6936
   38CHL1  H27B 2811   3.511   0.993   4.503 -0.4839  1.6227  2.4503
   38CHL1  H27C 2812   3.442   1.126   4.396  1.4168  0.1956  0.8397
   39CHL1    C3 2813   5.764   2.094   3.643  0.5687 -0.2030 -0.7779
   39CHL1    H3 2814   5.661   2.051   3.643  0.1218  0.7124  1.3869
   39CHL1    O3 2815   5.787   2.171   3.527 -0.5764  0.2899 -0.5767
   39CHL1   H3' 2816   5.878   2.200   3.537 -0.6192  0.1270  0.4282
   39CHL1    C4 2817   5.768   2.190   3.765 -0.2510  0.0183  0.2452
   39CHL1   H4A 2818   5.841   2.273   3.756 -0.4440  0.4659  2.2849
   39CHL1   H4B 2819   5.672   2.245   3.768  0.4354  1.3782 -1.1925
   39CHL1    C5 2820   5.777   2.115   3.894  0.4599  0.7241  0.2299
   39CHL1    C6 2821   5.683   2.126   3.996  0.0482 -0.0072  0.4814
   39CHL1    H6 2822   5.591   2.183   3.977 -0.8502 -2.4256 -3.9899
   39CHL1    C7 2823   5.694   2.052   4.122  0.0705  0.5485 -0.4472
   39CHL1   H7A 2824   5.660   2.124   4.199  1.2415 -1.3311  1.9649
   39CHL1   H7B 2825   5.632   1.962   4.104 -0.7807  1.0868 -0.2322
   39CHL1    C8 2826   5.835   2.008   4.152  0.1435  0.1316 -0.3744
   39CHL1    H8 2827   5.894   2.101   4.164  1.2487 -0.7076  0.8319
   39CHL1   C14 2828   5.840   1.923   4.286 -0.0819 -0.3057  0.7960
   39CHL1   H14 2829   5.772   1.839   4.257 -0.0138  0.0652 -0.4910
   39CHL1   C15 2830   5.787   1.993   4.408 -0.6585 -0.2259  0.4275
   39CHL1  H15A 2831   5.811   2.100   4.389 -2.4518  0.2773  0.7340
   39CHL1  H15B 2832   5.677   2.010   4.413 -0.5568  0.2648  1.2104
   39CHL1   C16 2833   5.845   1.908   4.525 -0.0048 -0.1140  0.3058
   39CHL1  H16A 2834   5.896   1.972   4.600 -0.5124  0.2961  0.3060
   39CHL1  H16B 2835   5.759   1.861   4.578  0.6233  0.5934  2.0374
   39CHL1   C17 2836   5.939   1.809   4.461  0.1487 -1.2660 -0.0018
   39CHL1   H17 2837   5.877   1.719   4.441 -0.7762 -0.5752 -0.3271
   39CHL1   C13 2838   5.974   1.870   4.320 -0.4909 -0.4076  0.3852
   39CHL1   C18 2839   6.079   1.991   4.344 -0.1422  0.4961  0.1255
   39CHL1  H18A 2840   6.058   2.072   4.270  0.1022 -0.3472 -0.9014
   39CHL1  H18B 2841   6.077   2.016   4.452  1.7156  1.8690 -0.1101
   39CHL1  H18C 2842   6.175   1.946   4.311 -1.5569 -1.7311 -1.2123
   39CHL1   C12 2843   6.030   1.786   4.213  0.7703  0.0054  0.6105
   39CHL1  H12A 2844   6.138   1.762   4.217  0.7981  0.2511  1.8103
   39CHL1  H12B 2845   5.968   1.696   4.197  1.0600 -0.0664 -0.1566
   39CHL1   C11 2846   6.027   1.861   4.078 -0.4432  0.5834  0.4554
   39CHL1  H11A 2847   6.112   1.932   4.078 -0.6621  0.8994 -1.2854
   39CHL1  H11B 2848   6.058   1.791   3.997 -2.4659  0.3634 -0.1987
   39CHL1    C9 2849   5.897   1.932   4.035 -0.8017  0.1519 -0.2340
   39CHL1    H9 2850   5.824   1.849   4.034 -0.2944 -0.3465  0.9943
   39CHL1   C10 2851   5.896   2.015   3.899  0.5505  0.2222 -0.7730
   39CHL1   C19 2852   6.027   2.089   3.889 -0.3906 -0.4515 -0.8452
   39CHL1  H19A 2853   6.064   2.117   3.990  0.0027 -0.7408 -0.9054
   39CHL1  H19B 2854   6.112   2.026   3.856  0.5272 -0.0939  0.7404
   39CHL1  H19C 2855   6.025   2.176   3.821 -0.4580 -0.0563 -0.3483
   39CHL1    C1 2856   5.873   1.919   3.786  0.0656 -0.7501  1.0841
   39CHL1   H1A 2857   5.970   1.866   3.782 -0.2328 -1.3790  1.7957
   39CHL1   H1B 2858   5.789   1.848   3.806 -0.6704 -0.3822 -0.5127
   39CHL1    C2 2859   5.861   1.981   3.645 -0.1289  0.4831 -0.1301
   39CHL1   H2A 2860   5.842   1.898   3.574 -0.9386  0.0012  0.6396
   39CHL1   H2B 2861   5.961   2.026   3.625  0.0304  0.6780  1.0525
   39CHL1   C20 2862   6.055   1.766   4.549 -0.2020 -0.2927  0.1897
   39CHL1   H20 2863   6.110   1.848   4.599  0.5856 -1.4282  1.2766
   39CHL1   C21 2864   6.152   1.681   4.475 -0.2425 -0.6805 -0.0392
   39CHL1  H21A 2865   6.212   1.611   4.536 -1.8182 -2.0367  0.0261
   39CHL1  H21B 2866   6.221   1.736   4.408 -2.0646 -1.9196 -3.1951
   39CHL1  H21C 2867   6.100   1.607   4.410  0.9231 -0.4410 -1.2913
   39CHL1   C22 2868   6.019   1.682   4.680  0.0167 -0.7607 -0.5342
   39CHL1  H22A 2869   5.935   1.733   4.729 -0.9779 -2.4679 -0.3782
   39CHL1  H22B 2870   5.985   1.578   4.660  1.1413 -1.3870  0.6712
   39CHL1   C23 2871   6.141   1.666   4.781  0.7351  0.0005 -0.4129
   39CHL1  H23A 2872   6.121   1.576   4.843  0.0760  1.1112  1.0478
   39CHL1  H23B 2873   6.235   1.656   4.722  2.9313  3.3798  2.1386
   39CHL1   C24 2874   6.164   1.790   4.873  0.5405 -0.2460  0.3374
   39CHL1  H24A 2875   6.188   1.869   4.798 -4.1051  1.6928  0.5165
   39CHL1  H24B 2876   6.065   1.823   4.912  0.0247 -0.2471 -0.9042
   39CHL1   C25 2877   6.281   1.772   4.978  0.0970 -0.1665  0.2600
   39CHL1   H25 2878   6.361   1.718   4.924 -1.3019  0.2295 -2.3504
   39CHL1   C26 2879   6.314   1.913   5.018 -0.3269 -0.0597  0.4702
   39CHL1  H26A 2880   6.302   1.980   4.930 -2.7473 -0.8881  0.0786
   39CHL1  H26B 2881   6.241   1.956   5.090 -1.8121  0.3611 -1.2331
   39CHL1  H26C 2882   6.420   1.916   5.053 -0.2730  1.0716  0.2492
   39CHL1   C27 2883   6.232   1.687   5.098  0.3640  0.3340 -0.0606
   39CHL1  H27A 2884   6.310   1.676   5.176 -0.0022  0.4838  0.3300
   39CHL1  H27B 2885   6.143   1.734   5.144 -0.2307 -0.5041 -0.3317
   39CHL1  H27C 2886   6.214   1.588   5.051  1.5277  0.4428 -0.7956
   40CHL1    C3 2887   2.983   0.577   3.351 -0.3936  0.8094 -0.4677
   40CHL1    H3 2888   3.054   0.494   3.331  0.0267  0.9686  0.3066
   40CHL1    O3 2889   2.976   0.671   3.246 -0.5958  0.2864 -0.2049
   40CHL1   H3' 2890   2.956   0.622   3.166 -1.0441 -0.8362  0.5720
   40CHL1    C4 2891   2.841   0.517   3.380 -0.2232 -0.2795 -0.2829
   40CHL1   H4A 2892   2.783   0.612   3.378  0.8416  0.3911 -0.5403
   40CHL1   H4B 2893   2.809   0.466   3.287  0.8117 -0.8071 -0.3573
   40CHL1    C5 2894   2.833   0.433   3.506 -0.0971 -0.4203 -0.1757
   40CHL1    C6 2895   2.777   0.313   3.505  0.1549  0.0107 -0.7014
   40CHL1    H6 2896   2.740   0.261   3.416  2.6776  0.3289 -2.0007
   40CHL1    C7 2897   2.747   0.239   3.630 -0.5088 -0.4578  0.0356
   40CHL1   H7A 2898   2.640   0.208   3.626 -0.0614 -2.7505  2.5072
   40CHL1   H7B 2899   2.804   0.144   3.622 -2.3803 -1.7238  0.9347
   40CHL1    C8 2900   2.761   0.311   3.769 -0.6362  0.2884  0.3310
   40CHL1    H8 2901   2.668   0.370   3.778 -1.0944 -0.4988  0.8790
   40CHL1   C14 2902   2.786   0.211   3.882  0.4738 -0.3533 -0.1989
   40CHL1   H14 2903   2.874   0.149   3.853 -0.2476 -1.6057  0.2449
   40CHL1   C15 2904   2.673   0.101   3.909 -0.1930 -1.4384  0.6761
   40CHL1  H15A 2905   2.567   0.132   3.902  0.0035 -0.9189 -0.1021
   40CHL1  H15B 2906   2.684   0.013   3.842  0.4598  0.2115 -1.4895
   40CHL1   C16 2907   2.694   0.058   4.049  0.5443  0.5222 -0.8564
   40CHL1  H16A 2908   2.601   0.083   4.105  0.0881 -2.0706 -0.3294
   40CHL1  H16B 2909   2.704  -0.052   4.052 -3.5452 -0.0150 -1.5646
   40CHL1   C17 2910   2.819   0.145   4.095  0.1717 -0.1710  0.0525
   40CHL1   H17 2911   2.908   0.086   4.065 -0.7547 -1.1197 -0.9338
   40CHL1   C13 2912   2.822   0.273   4.012 -0.1379  0.2199 -0.0878
   40CHL1   C18 2913   2.705   0.368   4.052 -0.3574  0.7896  0.0824
   40CHL1  H18A 2914   2.613   0.308   4.070  0.8607 -1.1394  0.2245
   40CHL1  H18B 2915   2.732   0.416   4.148 -0.4734 -0.6385  0.8448
   40CHL1  H18C 2916   2.689   0.445   3.973 -0.1692 -0.9791 -1.7755
   40CHL1   C12 2917   2.947   0.361   3.999  0.1881 -0.0229 -0.3120
   40CHL1  H12A 2918   2.967   0.404   4.100 -2.0867  1.0935 -0.2702
   40CHL1  H12B 2919   3.038   0.307   3.966  1.6543  0.9657  1.8491
   40CHL1   C11 2920   2.925   0.465   3.891  0.0554  0.6853 -0.2850
   40CHL1  H11A 2921   2.860   0.546   3.930  0.9128  0.8434  0.9109
   40CHL1  H11B 2922   3.022   0.518   3.877 -0.3746  1.0040 -2.2186
   40CHL1    C9 2923   2.883   0.404   3.753  0.1924 -0.0527 -0.3527
   40CHL1    H9 2924   2.971   0.339   3.734 -0.9099 -1.6533 -0.1243
   40CHL1   C10 2925   2.883   0.504   3.631 -0.8177  0.6188 -0.4857
   40CHL1   C19 2926   2.776   0.614   3.664  0.4258 -0.6150 -0.1750
   40CHL1  H19A 2927   2.762   0.672   3.570  2.3573 -0.7180 -0.5590
   40CHL1  H19B 2928   2.677   0.568   3.685  1.1116 -1.3128  1.7716
   40CHL1  H19C 2929   2.807   0.681   3.748  1.4466 -0.1269 -0.9273
   40CHL1    C1 2930   3.024   0.554   3.604  0.0523  1.2866  0.3275
   40CHL1   H1A 2931   3.048   0.622   3.689  0.4034  1.7809 -0.1583
   40CHL1   H1B 2932   3.095   0.469   3.591 -1.0547  0.8260 -4.6311
   40CHL1    C2 2933   3.032   0.643   3.481  0.2356 -0.3078 -0.2230
   40CHL1   H2A 2934   3.136   0.680   3.469  0.2637 -0.4790 -0.5384
   40CHL1   H2B 2935   2.970   0.733   3.495  0.6766 -0.3106  2.2283
   40CHL1   C20 2936   2.840   0.174   4.241 -0.1944  0.0384 -0.4496
   40CHL1   H20 2937   2.878   0.277   4.258 -0.8706  0.5344 -1.8113
   40CHL1   C21 2938   2.965   0.095   4.284 -0.3960  0.2233 -0.1118
   40CHL1  H21A 2939   3.049   0.135   4.223 -0.7937  1.2636  0.0074
   40CHL1  H21B 2940   2.945  -0.014   4.277  0.0824  0.1604 -0.5990
   40CHL1  H21C 2941   2.992   0.114   4.390  1.7246  0.3523 -0.6230
   40CHL1   C22 2942   2.715   0.136   4.334 -0.4390 -0.2673  0.3534
   40CHL1  H22A 2943   2.614   0.176   4.308 -2.0707 -3.4676  1.1995
   40CHL1  H22B 2944   2.709   0.025   4.335 -0.3336 -0.3052 -1.3000
   40CHL1   C23 2945   2.744   0.182   4.480  0.8164 -0.3385 -0.7843
   40CHL1  H23A 2946   2.838   0.137   4.520  0.0575 -1.2582  0.0520
   40CHL1  H23B 2947   2.761   0.291   4.472  1.7067 -0.3790  0.3322
   40CHL1   C24 2948   2.633   0.134   4.582 -0.1733 -0.1893 -0.0058
   40CHL1  H24A 2949   2.668   0.169   4.681 -2.7458  0.6793  0.6555
   40CHL1  H24B 2950   2.533   0.175   4.558  0.2123 -0.1752 -1.7405
   40CHL1   C25 2951   2.616  -0.023   4.590  0.0739 -0.1529 -0.2706
   40CHL1   H25 2952   2.602  -0.066   4.489 -0.3608 -0.9552  0.1220
   40CHL1   C26 2953   2.737  -0.089   4.660  0.3085 -0.0592  0.5642
   40CHL1  H26A 2954   2.714  -0.197   4.665  0.5571 -0.0964  0.9464
   40CHL1  H26B 2955   2.826  -0.075   4.596  0.1153  1.6107  0.6028
   40CHL1  H26C 2956   2.752  -0.053   4.764 -0.2993  0.3638  0.5115
   40CHL1   C27 2957   2.496  -0.070   4.669  0.5763 -0.2760  0.7600
   40CHL1  H27A 2958   2.480  -0.179   4.659 -3.0036  0.2415 -0.6497
   40CHL1  H27B 2959   2.507  -0.034   4.774 -1.9697  2.5658  0.2018
   40CHL1  H27C 2960   2.409  -0.021   4.621 -1.1647 -2.6439  1.3362
   41CHL1    C3 2961   3.750   3.355   3.286 -0.2042  0.1225  0.2704
   41CHL1    H3 2962   3.857   3.355   3.316 -0.2540  0.4385  0.4421
   41CHL1    O3 2963   3.739   3.359   3.145 -0.0680  0.0287  0.3312
   41CHL1   H3' 2964   3.648   3.335   3.123 -0.3685 -0.7534  2.2064
   41CHL1    C4 2965   3.681   3.223   3.330 -0.0895 -0.0376 -0.3399
   41CHL1   H4A 2966   3.578   3.236   3.292  0.4915 -0.9528 -2.3810
   41CHL1   H4B 2967   3.717   3.132   3.277  0.2832  0.5263 -1.0696
   41CHL1    C5 2968   3.676   3.212   3.474  0.2707  0.2252 -0.5121
   41CHL1    C6 2969   3.724   3.101   3.531 -0.0079  0.6077 -1.4186
   41CHL1    H6 2970   3.775   3.022   3.473 -2.2234 -3.1571  1.2550
   41CHL1    C7 2971   3.724   3.076   3.679 -0.0924 -0.7021 -0.9736
   41CHL1   H7A 2972   3.690   2.975   3.711 -2.0804  0.0488 -0.5513
   41CHL1   H7B 2973   3.830   3.092   3.706 -0.0751  1.2053 -2.0213
   41CHL1    C8 2974   3.643   3.185   3.763  0.2856 -0.3523  0.0629
   41CHL1    H8 2975   3.538   3.149   3.752  0.2156  0.1335 -0.9719
   41CHL1   C14 2976   3.688   3.195   3.910 -0.1637 -0.0797  0.2718
   41CHL1   H14 2977   3.792   3.233   3.905  0.3540 -1.5463 -0.5618
   41CHL1   C15 2978   3.697   3.062   3.991  0.3930  0.5032  0.4595
   41CHL1  H15A 2979   3.600   3.008   3.988  1.3856 -1.2913 -0.5448
   41CHL1  H15B 2980   3.776   2.995   3.951 -0.0739  0.0651  0.2537
   41CHL1   C16 2981   3.731   3.110   4.129 -0.2927 -0.5428 -0.3139
   41CHL1  H16A 2982   3.680   3.039   4.197 -1.5017 -0.8007 -1.4493
   41CHL1  H16B 2983   3.840   3.108   4.150 -0.4160 -2.0792  0.2984
   41CHL1   C17 2984   3.674   3.255   4.147 -0.5279 -0.4999 -0.6057
   41CHL1   H17 2985   3.752   3.334   4.156 -0.8066 -0.2846 -0.0412
   41CHL1   C13 2986   3.612   3.287   4.003  0.6157 -0.2546  0.3104
   41CHL1   C18 2987   3.461   3.249   4.003  0.4857 -0.8160  0.2804
   41CHL1  H18A 2988   3.444   3.152   4.054 -0.1717 -0.2770  1.1159
   41CHL1  H18B 2989   3.400   3.325   4.055  0.4967  0.0980 -0.9769
   41CHL1  H18C 2990   3.425   3.232   3.899  2.7084  1.9510 -1.1011
   41CHL1   C12 2991   3.632   3.431   3.951 -0.3033 -0.1636 -0.1095
   41CHL1  H12A 2992   3.566   3.508   3.998  0.0814  1.1025 -1.5381
   41CHL1  H12B 2993   3.738   3.463   3.964 -0.4770  0.6931 -0.6928
   41CHL1   C11 2994   3.590   3.439   3.798 -0.1540  1.0654 -0.8126
   41CHL1  H11A 2995   3.479   3.439   3.802 -0.1209  1.5935  1.0955
   41CHL1  H11B 2996   3.623   3.534   3.751 -0.1504  1.3269 -0.2842
   41CHL1    C9 2997   3.657   3.328   3.707  0.5223 -0.3676 -0.0858
   41CHL1    H9 2998   3.765   3.353   3.703  0.6039 -0.8937 -1.7443
   41CHL1   C10 2999   3.619   3.337   3.556 -0.0811  0.4835  0.2299
   41CHL1   C19 3000   3.466   3.330   3.539  0.6428  0.5663  0.3080
   41CHL1  H19A 3001   3.423   3.420   3.586 -0.2266  0.8721 -1.0204
   41CHL1  H19B 3002   3.433   3.330   3.433 -1.6334 -1.7408  0.9134
   41CHL1  H19C 3003   3.431   3.235   3.586  0.6944  1.9655  3.4021
   41CHL1    C1 3004   3.667   3.469   3.494  0.3595 -0.2205 -0.3339
   41CHL1   H1A 3005   3.614   3.558   3.533  0.6321 -0.1364 -0.1490
   41CHL1   H1B 3006   3.772   3.480   3.529  1.1414 -1.1756 -2.2230
   41CHL1    C2 3007   3.673   3.474   3.340  0.4814 -0.2628 -0.4886
   41CHL1   H2A 3008   3.709   3.573   3.305 -0.2000 -0.4311 -1.7331
   41CHL1   H2B 3009   3.571   3.464   3.297 -1.1977 -6.6140  3.5340
   41CHL1   C20 3010   3.592   3.277   4.274 -0.8123 -0.2703  0.3273
   41CHL1   H20 3011   3.503   3.211   4.268 -1.5877  0.8427 -1.0441
   41CHL1   C21 3012   3.544   3.425   4.277 -0.0803  0.4051 -0.1875
   41CHL1  H21A 3013   3.639   3.483   4.268  0.7316 -0.9252 -0.4340
   41CHL1  H21B 3014   3.483   3.433   4.370 -0.2626  1.2253 -0.3663
   41CHL1  H21C 3015   3.471   3.440   4.195 -1.3913 -1.4458  0.5710
   41CHL1   C22 3016   3.663   3.246   4.406 -0.4293  0.7304  0.5243
   41CHL1  H22A 3017   3.738   3.164   4.396 -1.8393 -0.6537  1.0242
   41CHL1  H22B 3018   3.714   3.340   4.437  2.6622 -0.5134 -0.3899
   41CHL1   C23 3019   3.570   3.213   4.525 -0.1369  0.1798  0.8314
   41CHL1  H23A 3020   3.504   3.298   4.553  0.0260  0.4708  0.3432
   41CHL1  H23B 3021   3.502   3.132   4.491 -0.3364  0.8868 -0.5319
   41CHL1   C24 3022   3.655   3.157   4.643 -0.3602 -0.1794  0.2272
   41CHL1  H24A 3023   3.711   3.068   4.608  0.4646 -0.6308  2.5537
   41CHL1  H24B 3024   3.731   3.233   4.672  0.1540 -1.3531  2.0929
   41CHL1   C25 3025   3.571   3.100   4.755  0.2919 -0.4877  0.5452
   41CHL1   H25 3026   3.491   3.034   4.716 -0.3618  0.1759  0.7417
   41CHL1   C26 3027   3.667   3.012   4.842 -0.5177  0.1215 -0.9607
   41CHL1  H26A 3028   3.746   3.077   4.885 -0.7737  0.1246 -0.4891
   41CHL1  H26B 3029   3.607   2.967   4.924  0.2230  2.2066  0.8208
   41CHL1  H26C 3030   3.724   2.935   4.786 -1.8450 -1.5245 -0.1411
   41CHL1   C27 3031   3.490   3.211   4.835 -0.6419  0.0384 -0.0037
   41CHL1  H27A 3032   3.545   3.308   4.828 -0.7031  0.1046  0.4538
   41CHL1  H27B 3033   3.390   3.227   4.788 -1.3925 -0.7898  1.2721
   41CHL1  H27C 3034   3.487   3.176   4.940  1.4206 -1.0717 -0.2626
   42CHL1    C3 3035   2.052   1.902   3.173 -0.1848  0.1312 -1.7738
   42CHL1    H3 3036   2.163   1.907   3.167 -0.0335 -2.1317 -1.7119
   42CHL1    O3 3037   2.005   1.876   3.045 -0.0013  0.3961 -0.1429
   42CHL1   H3' 3038   1.911   1.869   3.060  0.0158  1.1770  0.3493
   42CHL1    C4 3039   2.016   1.795   3.275 -0.9509 -0.0729 -0.2638
   42CHL1   H4A 3040   1.906   1.778   3.269 -1.1009  0.9231 -0.5379
   42CHL1   H4B 3041   2.054   1.697   3.239 -1.2291  0.1186 -1.1202
   42CHL1    C5 3042   2.050   1.835   3.417  1.0932  0.3510  0.2248
   42CHL1    C6 3043   2.125   1.751   3.492 -0.1316  0.0574 -0.0248
   42CHL1    H6 3044   2.164   1.662   3.441 -1.0592  0.2520 -1.1222
   42CHL1    C7 3045   2.153   1.772   3.642 -0.4138 -0.3335 -0.1114
   42CHL1   H7A 3046   2.138   1.679   3.700  2.3626  1.9948  5.0383
   42CHL1   H7B 3047   2.258   1.808   3.651 -0.5405  0.3190 -1.0563
   42CHL1    C8 3048   2.070   1.890   3.703  0.2741  0.5894 -0.2105
   42CHL1    H8 3049   1.970   1.847   3.723  1.1194 -1.0317  0.7954
   42CHL1   C14 3050   2.117   1.935   3.837  1.0760 -0.1355 -0.6986
   42CHL1   H14 3051   2.220   1.977   3.832  1.5342 -0.9502  1.0434
   42CHL1   C15 3052   2.120   1.828   3.944 -0.3136  0.2429 -1.2004
   42CHL1  H15A 3053   2.033   1.764   3.922  1.1243 -1.9995 -0.7199
   42CHL1  H15B 3054   2.208   1.761   3.950  0.3577  1.2126  0.4659
   42CHL1   C16 3055   2.111   1.908   4.076  0.3749  1.2261  0.3126
   42CHL1  H16A 3056   2.020   1.865   4.121  0.7392 -0.3912 -0.4294
   42CHL1  H16B 3057   2.174   1.882   4.164 -1.2986 -0.6463  1.0286
   42CHL1   C17 3058   2.088   2.059   4.046  0.1172 -0.1630 -0.3497
   42CHL1   H17 3059   2.189   2.106   4.044 -0.4112  1.0046 -0.3861
   42CHL1   C13 3060   2.030   2.043   3.901  0.0878 -0.6303 -0.2434
   42CHL1   C18 3061   1.882   2.011   3.921 -0.5242  0.3243  0.2180
   42CHL1  H18A 3062   1.819   2.097   3.953 -2.0025 -0.5562 -0.2318
   42CHL1  H18B 3063   1.838   1.991   3.820 -0.0698  0.9953 -0.1225
   42CHL1  H18C 3064   1.864   1.921   3.984 -0.0644 -0.4914 -0.7834
   42CHL1   C12 3065   2.050   2.165   3.811  0.0450 -0.4384  0.5560
   42CHL1  H12A 3066   1.996   2.258   3.837  3.5192  1.4941  1.3667
   42CHL1  H12B 3067   2.158   2.191   3.807 -0.2754  0.8003 -0.5490
   42CHL1   C11 3068   2.003   2.139   3.663 -0.5347 -0.5022  0.1045
   42CHL1  H11A 3069   1.892   2.154   3.662 -0.5353 -0.4243  0.7065
   42CHL1  H11B 3070   2.040   2.222   3.600  0.4167 -1.5379 -0.7260
   42CHL1    C9 3071   2.061   2.010   3.602 -0.0785  0.2603 -0.7591
   42CHL1    H9 3072   2.170   2.025   3.588  0.4766 -2.4393  0.1274
   42CHL1   C10 3073   2.002   1.968   3.463  0.2664 -0.2751  0.2370
   42CHL1   C19 3074   1.846   1.963   3.474  0.3816 -0.2104 -0.9161
   42CHL1  H19A 3075   1.824   1.891   3.555  0.1174  0.6190 -0.2348
   42CHL1  H19B 3076   1.797   2.055   3.512 -1.3107 -1.8049  0.9927
   42CHL1  H19C 3077   1.784   1.943   3.383  1.1598  0.0381 -1.5124
   42CHL1    C1 3078   2.036   2.074   3.352  0.1540 -0.6228 -0.8783
   42CHL1   H1A 3079   2.002   2.176   3.382 -1.3742 -1.7884  1.7868
   42CHL1   H1B 3080   2.146   2.086   3.350  0.5501 -2.4244  2.4405
   42CHL1    C2 3081   2.000   2.040   3.202 -1.1393 -0.1095  0.7163
   42CHL1   H2A 3082   2.046   2.123   3.145 -1.9853  0.3594  0.7043
   42CHL1   H2B 3083   1.892   2.038   3.178 -1.1216 -0.5597  0.6701
   42CHL1   C20 3084   1.998   2.130   4.158  0.1720 -0.6302  0.2563
   42CHL1   H20 3085   1.895   2.088   4.167  0.4368 -1.2681  0.3130
   42CHL1   C21 3086   1.974   2.281   4.125  0.0164 -0.0064  0.2635
   42CHL1  H21A 3087   1.904   2.318   4.203 -0.5057 -1.1136  0.3375
   42CHL1  H21B 3088   1.923   2.305   4.029  0.0573  3.9145  1.0681
   42CHL1  H21C 3089   2.073   2.333   4.132  0.2809 -0.6885  1.9481
   42CHL1   C22 3090   2.067   2.117   4.293 -0.5004  0.2393 -0.2779
   42CHL1  H22A 3091   2.091   2.010   4.309 -0.9184  0.0206 -1.0656
   42CHL1  H22B 3092   2.161   2.177   4.291  0.1432 -0.6619 -3.0722
   42CHL1   C23 3093   1.984   2.156   4.409 -0.3792  0.4307 -0.3690
   42CHL1  H23A 3094   1.968   2.265   4.395 -0.2560  0.1667 -3.0341
   42CHL1  H23B 3095   1.886   2.105   4.406 -0.3495  0.2427  1.0660
   42CHL1   C24 3096   2.034   2.118   4.544 -0.0145 -0.2043  0.1978
   42CHL1  H24A 3097   2.033   2.008   4.556  0.0781 -0.0880  1.3843
   42CHL1  H24B 3098   2.140   2.151   4.556  0.0305  0.3174 -1.3857
   42CHL1   C25 3099   1.952   2.177   4.658  0.6194 -0.1823 -0.3079
   42CHL1   H25 3100   1.848   2.141   4.644  0.5506  0.6645 -2.2823
   42CHL1   C26 3101   2.000   2.109   4.794  1.0554  0.1761 -0.2244
   42CHL1  H26A 3102   2.102   2.128   4.833  0.6638 -3.9431  3.7081
   42CHL1  H26B 3103   1.927   2.140   4.872  1.5703  2.1087 -0.4647
   42CHL1  H26C 3104   1.980   2.001   4.775 -1.6115  0.9433 -2.4366
   42CHL1   C27 3105   1.955   2.325   4.670  0.2652  0.0242 -0.1178
   42CHL1  H27A 3106   1.909   2.370   4.579 -2.1399 -0.7065  0.6607
   42CHL1  H27B 3107   1.898   2.370   4.754 -0.4796  0.9768 -1.0914
   42CHL1  H27C 3108   2.060   2.362   4.670  0.4770 -0.5466 -0.8737
   43CHL1    C3 3109   2.148   0.277   3.020 -0.2980  0.2039  0.3650
   43CHL1    H3 3110   2.043   0.253   3.047 -0.2180 -1.2772 -0.5028
   43CHL1    O3 3111   2.178   0.264   2.886 -0.2339 -0.6434  0.1356
   43CHL1   H3' 3112   2.203   0.172   2.874 -3.1716 -1.4221 -1.0242
   43CHL1    C4 3113   2.170   0.428   3.052  0.1982  0.3560 -0.3370
   43CHL1   H4A 3114   2.263   0.457   2.999  0.6415 -1.5514 -0.6799
   43CHL1   H4B 3115   2.086   0.488   3.013  0.2046  2.1346  2.1409
   43CHL1    C5 3116   2.172   0.453   3.203 -0.3162 -0.1358 -1.0098
   43CHL1    C6 3117   2.090   0.552   3.258  0.4751  0.1870 -0.2307
   43CHL1    H6 3118   2.036   0.623   3.194  0.0731  0.3418  0.2716
   43CHL1    C7 3119   2.088   0.567   3.410  0.2418 -0.5302 -0.0405
   43CHL1   H7A 3120   2.109   0.672   3.440  2.3832 -0.4839 -1.4478
   43CHL1   H7B 3121   1.989   0.538   3.450  0.2231  0.8713  1.0059
   43CHL1    C8 3122   2.190   0.482   3.485 -0.1870  0.9584  0.6470
   43CHL1    H8 3123   2.288   0.533   3.470  0.6003 -0.9952 -1.5340
   43CHL1   C14 3124   2.156   0.480   3.635  0.1740  0.2347  1.0869
   43CHL1   H14 3125   2.066   0.414   3.631  2.4309 -3.0306  0.2004
   43CHL1   C15 3126   2.117   0.613   3.701 -0.4982  0.3044 -0.1844
   43CHL1  H15A 3127   2.207   0.675   3.679  1.1842 -1.1791  2.0244
   43CHL1  H15B 3128   2.021   0.655   3.665  0.1503  1.5801 -0.4810
   43CHL1   C16 3129   2.126   0.589   3.849 -0.1572  0.4061  0.4860
   43CHL1  H16A 3130   2.195   0.665   3.891  1.5862 -0.3011 -0.9483
   43CHL1  H16B 3131   2.023   0.593   3.891  0.1002 -0.2428  1.2084
   43CHL1   C17 3132   2.184   0.442   3.872 -0.1701 -0.2500 -0.2190
   43CHL1   H17 3133   2.098   0.372   3.868 -0.1245 -0.2592 -1.6441
   43CHL1   C13 3134   2.253   0.411   3.733  0.0067 -0.4203  0.3402
   43CHL1   C18 3135   2.395   0.484   3.730 -0.6816  0.6663  0.5865
   43CHL1  H18A 3136   2.448   0.463   3.634 -2.1876 -1.1224  0.0870
   43CHL1  H18B 3137   2.384   0.593   3.752 -1.0754  0.5120  1.1750
   43CHL1  H18C 3138   2.440   0.432   3.817 -2.8630  1.5367  2.3290
   43CHL1   C12 3139   2.266   0.259   3.683  0.9399 -0.4305  0.1447
   43CHL1  H12A 3140   2.344   0.197   3.731  1.2940  0.2586  0.4867
   43CHL1  H12B 3141   2.167   0.212   3.698  0.7815 -0.1538 -0.0331
   43CHL1   C11 3142   2.291   0.245   3.531  0.3623 -0.6695  0.3083
   43CHL1  H11A 3143   2.400   0.265   3.522  0.1374  1.0016  1.0698
   43CHL1  H11B 3144   2.273   0.136   3.515 -1.8368 -0.1776 -0.9785
   43CHL1    C9 3145   2.210   0.337   3.436 -0.9496  0.2486  0.3638
   43CHL1    H9 3146   2.106   0.297   3.434 -1.9884  2.6862 -2.2520
   43CHL1   C10 3147   2.246   0.346   3.290 -0.0926  0.1275 -0.2947
   43CHL1   C19 3148   2.403   0.375   3.269  0.5054  0.2390  0.1434
   43CHL1  H19A 3149   2.429   0.472   3.318 -0.9494  0.2546  0.9639
   43CHL1  H19B 3150   2.469   0.297   3.311  2.2009  0.6111 -1.7191
   43CHL1  H19C 3151   2.432   0.385   3.163  1.8756  0.3171  0.5153
   43CHL1    C1 3152   2.222   0.200   3.242 -0.3795 -0.7813  0.1563
   43CHL1   H1A 3153   2.288   0.124   3.289  1.2538  1.0498  0.9288
   43CHL1   H1B 3154   2.115   0.181   3.267 -0.7922 -0.7385 -1.4783
   43CHL1    C2 3155   2.239   0.180   3.090  0.4802 -0.4055 -0.6065
   43CHL1   H2A 3156   2.215   0.075   3.065  2.1390 -0.9519 -0.0165
   43CHL1   H2B 3157   2.344   0.201   3.062  0.2881 -0.6604 -1.5389
   43CHL1   C20 3158   2.244   0.412   4.009 -0.1048  0.1605  0.3804
   43CHL1   H20 3159   2.325   0.487   4.021 -0.8739  1.5259 -2.2962
   43CHL1   C21 3160   2.299   0.272   4.016  0.4362  0.5124  0.1775
   43CHL1  H21A 3161   2.336   0.251   4.119 -1.0488 -0.7193  0.4897
   43CHL1  H21B 3162   2.382   0.249   3.945  0.3870 -2.3193  0.9001
   43CHL1  H21C 3163   2.216   0.203   3.991 -0.8670  1.4124  1.8646
   43CHL1   C22 3164   2.164   0.446   4.131  0.2729 -0.0327  0.7274
   43CHL1  H22A 3165   2.124   0.549   4.135 -0.2662 -0.2539  3.1736
   43CHL1  H22B 3166   2.076   0.378   4.143  0.5590 -0.4509  0.5059
   43CHL1   C23 3167   2.250   0.439   4.261 -0.4928  0.2756 -0.4328
   43CHL1  H23A 3168   2.268   0.331   4.278  2.0862  0.5380 -1.1164
   43CHL1  H23B 3169   2.341   0.498   4.237  0.5012 -1.2070 -0.4180
   43CHL1   C24 3170   2.185   0.497   4.395  0.1625  0.4123  0.5324
   43CHL1  H24A 3171   2.190   0.606   4.372  1.5577  0.7852  2.3791
   43CHL1  H24B 3172   2.082   0.459   4.414  0.1248  0.3208  0.1615
   43CHL1   C25 3173   2.269   0.476   4.514  0.1826 -0.0208 -0.0297
   43CHL1   H25 3174   2.251   0.371   4.547  0.1775 -0.2673 -0.8120
   43CHL1   C26 3175   2.423   0.492   4.490  0.2850  0.2733  0.0487
   43CHL1  H26A 3176   2.446   0.601   4.494 -2.2439  0.8314  3.0289
   43CHL1  H26B 3177   2.477   0.455   4.580 -1.1767  0.9772  1.2644
   43CHL1  H26C 3178   2.452   0.439   4.397  1.2556 -0.0424  0.5197
   43CHL1   C27 3179   2.222   0.578   4.625 -0.3985  0.2175 -0.2370
   43CHL1  H27A 3180   2.115   0.560   4.649 -0.7882  1.4767 -0.9804
   43CHL1  H27B 3181   2.269   0.559   4.724  0.6314  0.9778 -0.5663
   43CHL1  H27C 3182   2.233   0.682   4.589 -3.4522  1.4988  2.0325
   44CHL1    C3 3183   0.631   2.388   3.398 -0.4961  0.4157  0.1013
   44CHL1    H3 3184   0.528   2.363   3.366 -0.1504 -2.7421  1.1037
   44CHL1    O3 3185   0.725   2.375   3.293 -0.2707  0.3121  0.5456
   44CHL1   H3' 3186   0.807   2.417   3.322  0.9342 -0.7092 -1.1882
   44CHL1    C4 3187   0.646   2.530   3.458 -0.3900 -0.1607  1.1136
   44CHL1   H4A 3188   0.752   2.555   3.479 -0.4509  1.6909 -0.4824
   44CHL1   H4B 3189   0.615   2.609   3.386 -2.8113 -2.2138 -0.2767
   44CHL1    C5 3190   0.557   2.550   3.575 -0.3352  0.7940  0.8497
   44CHL1    C6 3191   0.467   2.649   3.582  0.5917 -0.2286  0.1667
   44CHL1    H6 3192   0.450   2.716   3.496  0.6351 -0.0606  0.2874
   44CHL1    C7 3193   0.387   2.688   3.707  0.3275 -0.2638 -0.5055
   44CHL1   H7A 3194   0.407   2.795   3.728 -0.4570 -0.0954 -0.6164
   44CHL1   H7B 3195   0.280   2.666   3.690 -1.1380  0.3781  5.6584
   44CHL1    C8 3196   0.443   2.618   3.841  0.9340  0.4550 -0.3091
   44CHL1    H8 3197   0.540   2.664   3.871  1.3993 -0.8229  0.2071
   44CHL1   C14 3198   0.336   2.627   3.947  0.3004  0.2352 -0.4041
   44CHL1   H14 3199   0.241   2.578   3.917  0.2218 -0.4192  0.8600
   44CHL1   C15 3200   0.298   2.773   3.985  0.7300  0.7813 -0.0693
   44CHL1  H15A 3201   0.382   2.845   3.995  0.5766  0.8440  0.8944
   44CHL1  H15B 3202   0.222   2.818   3.918 -1.5460 -0.1637  1.7444
   44CHL1   C16 3203   0.215   2.747   4.111  0.2567 -0.0968  0.3112
   44CHL1  H16A 3204   0.255   2.817   4.188 -1.1508  0.2742  0.7301
   44CHL1  H16B 3205   0.107   2.764   4.095  0.1533 -0.9568  0.0502
   44CHL1   C17 3206   0.245   2.598   4.159 -0.3446  0.0857  0.2195
   44CHL1   H17 3207   0.171   2.531   4.110  1.0622 -1.3294 -0.0218
   44CHL1   C13 3208   0.377   2.557   4.082 -0.0567 -0.1464  0.7091
   44CHL1   C18 3209   0.510   2.605   4.138  0.1489 -0.1447  0.4778
   44CHL1  H18A 3210   0.502   2.713   4.163  0.2333  0.2701 -1.1575
   44CHL1  H18B 3211   0.538   2.547   4.228  1.3185 -1.1646 -0.5247
   44CHL1  H18C 3212   0.591   2.595   4.062 -1.0009  2.1877 -1.2047
   44CHL1   C12 3213   0.391   2.404   4.043  0.8032 -0.0730  0.3459
   44CHL1  H12A 3214   0.423   2.346   4.133  0.5778 -0.8182 -0.0395
   44CHL1  H12B 3215   0.302   2.359   3.995 -1.1419 -0.5068  3.9840
   44CHL1   C11 3216   0.494   2.379   3.935  0.7188 -0.2193  0.2169
   44CHL1  H11A 3217   0.593   2.409   3.976 -0.0187  1.8253  0.6569
   44CHL1  H11B 3218   0.504   2.270   3.917  0.0976 -0.3319  0.5359
   44CHL1    C9 3219   0.477   2.471   3.807  0.3648  0.0105 -0.3420
   44CHL1    H9 3220   0.382   2.428   3.767  0.4266  1.6730 -2.5159
   44CHL1   C10 3221   0.580   2.459   3.696  0.0211  0.4740 -0.3334
   44CHL1   C19 3222   0.722   2.493   3.763  0.0906  0.1495 -0.5028
   44CHL1  H19A 3223   0.755   2.432   3.850 -2.0976  0.2416  0.4657
   44CHL1  H19B 3224   0.798   2.459   3.690  0.9958 -0.2567  0.6037
   44CHL1  H19C 3225   0.726   2.603   3.782  1.1512 -0.3256  2.7193
   44CHL1    C1 3226   0.588   2.311   3.646 -0.5893  0.3697 -0.5147
   44CHL1   H1A 3227   0.632   2.247   3.726  1.8461 -0.2709 -2.2618
   44CHL1   H1B 3228   0.484   2.277   3.628 -0.2499 -0.5773 -0.7269
   44CHL1    C2 3229   0.670   2.291   3.514  0.3648  0.5120 -0.6065
   44CHL1   H2A 3230   0.667   2.190   3.468 -1.3535  0.1037  0.3223
   44CHL1   H2B 3231   0.776   2.314   3.538  0.2428  1.1790 -0.6883
   44CHL1   C20 3232   0.241   2.565   4.311  0.1948  0.8705  0.2415
   44CHL1   H20 3233   0.282   2.462   4.323  0.3918  1.1163  2.0618
   44CHL1   C21 3234   0.090   2.560   4.348 -0.0758  0.4388 -0.7476
   44CHL1  H21A 3235   0.051   2.663   4.362  0.3968  0.5102  0.1444
   44CHL1  H21B 3236   0.076   2.509   4.446  1.6087  0.1975 -0.5977
   44CHL1  H21C 3237   0.034   2.502   4.272  0.7688 -3.1166  1.0712
   44CHL1   C22 3238   0.324   2.656   4.409  0.1301 -0.5700 -0.5478
   44CHL1  H22A 3239   0.427   2.644   4.368 -1.0220 -1.7584 -3.3612
   44CHL1  H22B 3240   0.278   2.755   4.394 -0.3493 -0.6500  0.3375
   44CHL1   C23 3241   0.311   2.612   4.555  0.1106 -0.0180 -0.1616
   44CHL1  H23A 3242   0.379   2.668   4.622 -1.9397  1.4804  0.7946
   44CHL1  H23B 3243   0.207   2.639   4.585  0.4057 -0.5545  1.4629
   44CHL1   C24 3244   0.354   2.468   4.587 -0.7069 -0.5711  0.6293
   44CHL1  H24A 3245   0.322   2.398   4.506  0.1764  0.2661 -0.4832
   44CHL1  H24B 3246   0.465   2.473   4.582 -0.7268  1.8295  1.3392
   44CHL1   C25 3247   0.302   2.418   4.719  0.9243 -0.4098 -0.6859
   44CHL1   H25 3248   0.287   2.493   4.800 -0.5693 -0.5529 -0.8027
   44CHL1   C26 3249   0.168   2.345   4.702  0.1232 -0.0081  0.4751
   44CHL1  H26A 3250   0.187   2.252   4.643  1.3776 -0.2485  1.1957
   44CHL1  H26B 3251   0.129   2.321   4.804 -0.2176  2.4456  0.9668
   44CHL1  H26C 3252   0.084   2.405   4.662  0.5953 -0.4982 -1.3394
   44CHL1   C27 3253   0.412   2.325   4.785 -0.5239  0.2207  0.7255
   44CHL1  H27A 3254   0.412   2.233   4.722 -0.3483  0.1417  0.8395
   44CHL1  H27B 3255   0.518   2.359   4.783 -0.8388  1.2280 -0.0478
   44CHL1  H27C 3256   0.376   2.303   4.887 -0.8274  2.2639  1.1087
   45CHL1    C3 3257   0.795   3.757   3.478  0.0004 -0.5675  0.1160
   45CHL1    H3 3258   0.844   3.703   3.562  0.6392  0.6267  0.5362
   45CHL1    O3 3259   0.870   3.737   3.361 -0.8914  0.1366 -0.4621
   45CHL1   H3' 3260   0.857   3.818   3.310  3.9358  2.1455  0.9334
   45CHL1    C4 3261   0.650   3.704   3.460 -0.3287 -0.3016  0.2119
   45CHL1   H4A 3262   0.598   3.746   3.372 -0.8548 -2.3878 -0.5438
   45CHL1   H4B 3263   0.651   3.594   3.444  0.7221 -0.5437  1.7198
   45CHL1    C5 3264   0.556   3.726   3.583 -0.5818 -0.3496 -0.1882
   45CHL1    C6 3265   0.489   3.623   3.638 -0.2966  0.7852  0.1292
   45CHL1    H6 3266   0.508   3.527   3.588 -0.5176  0.5012  0.5855
   45CHL1    C7 3267   0.405   3.616   3.765 -0.4983 -0.3583  0.3072
   45CHL1   H7A 3268   0.307   3.565   3.750 -1.2655  1.2495 -0.3938
   45CHL1   H7B 3269   0.452   3.560   3.848 -1.0147 -1.4046 -0.0817
   45CHL1    C8 3270   0.379   3.762   3.816  0.0681 -0.4280 -0.6052
   45CHL1    H8 3271   0.298   3.802   3.751  0.2799  0.1204 -0.5449
   45CHL1   C14 3272   0.336   3.774   3.957 -0.0640  0.4169 -0.7822
   45CHL1   H14 3273   0.424   3.752   4.020 -0.4031  3.4424  0.9376
   45CHL1   C15 3274   0.222   3.682   3.995  0.3128 -0.4613 -0.0984
   45CHL1  H15A 3275   0.136   3.694   3.926  0.0986 -3.1728 -0.3974
   45CHL1  H15B 3276   0.256   3.577   4.009 -1.0405 -0.9904 -0.6538
   45CHL1   C16 3277   0.160   3.743   4.133  0.3669  0.7519  0.1618
   45CHL1  H16A 3278   0.050   3.754   4.123  0.3683 -0.3870 -1.4039
   45CHL1  H16B 3279   0.171   3.676   4.221 -1.3221  0.2633  0.0512
   45CHL1   C17 3280   0.242   3.873   4.155  0.8646 -0.3478  0.4499
   45CHL1   H17 3281   0.328   3.841   4.218  0.5111 -0.4566  0.8801
   45CHL1   C13 3282   0.293   3.911   4.007 -0.5414  0.7138  0.6189
   45CHL1   C18 3283   0.170   3.964   3.930  0.1429 -0.1895  0.2936
   45CHL1  H18A 3284   0.195   3.973   3.822  2.5721 -0.9537  0.7452
   45CHL1  H18B 3285   0.081   3.898   3.941 -1.1482  1.2551 -0.9753
   45CHL1  H18C 3286   0.146   4.063   3.973  0.1421 -0.0961  0.0822
   45CHL1   C12 3287   0.412   4.015   3.995  0.4465 -0.0025  0.2489
   45CHL1  H12A 3288   0.370   4.117   4.011 -0.3110 -0.5566  2.0519
   45CHL1  H12B 3289   0.486   3.990   4.074 -0.1171 -2.8994 -0.0508
   45CHL1   C11 3290   0.483   4.007   3.857  0.2300  0.9048 -0.6206
   45CHL1  H11A 3291   0.420   4.066   3.787 -1.1233  0.4228  0.1648
   45CHL1  H11B 3292   0.579   4.063   3.854  1.8539 -1.6676 -0.4777
   45CHL1    C9 3293   0.502   3.862   3.792 -0.3975  0.2090 -0.4451
   45CHL1    H9 3294   0.585   3.823   3.856 -0.4076 -0.6678 -0.9428
   45CHL1   C10 3295   0.566   3.864   3.645  0.2039 -0.3579  0.0846
   45CHL1   C19 3296   0.478   3.954   3.563  0.4604 -0.0947 -0.2350
   45CHL1  H19A 3297   0.511   3.955   3.457 -2.9142  0.0149 -1.4099
   45CHL1  H19B 3298   0.373   3.920   3.572  0.1565  1.1949  1.7426
   45CHL1  H19C 3299   0.482   4.057   3.604  0.9606 -0.2690  0.1717
   45CHL1    C1 3300   0.710   3.917   3.651  0.4541  0.6193  0.8299
   45CHL1   H1A 3301   0.700   4.022   3.686 -0.3520  0.6461  0.5447
   45CHL1   H1B 3302   0.760   3.855   3.729 -2.0033 -0.9893  1.2582
   45CHL1    C2 3303   0.791   3.907   3.518  0.7290  0.3232 -0.0888
   45CHL1   H2A 3304   0.896   3.941   3.538  0.1632  2.5081 -0.5306
   45CHL1   H2B 3305   0.746   3.971   3.439  0.8196  0.3042 -0.1571
   45CHL1   C20 3306   0.163   3.985   4.229  0.3365  0.3962 -0.0423
   45CHL1   H20 3307   0.072   4.014   4.172  0.8084 -1.4511 -1.8539
   45CHL1   C21 3308   0.252   4.105   4.256  0.4209  0.1926 -0.1747
   45CHL1  H21A 3309   0.250   4.177   4.172 -1.5560 -0.9085 -1.1237
   45CHL1  H21B 3310   0.359   4.074   4.260  0.7362  1.0370 -1.4063
   45CHL1  H21C 3311   0.226   4.167   4.344  0.8365  0.7920 -0.4699
   45CHL1   C22 3312   0.109   3.931   4.360 -0.2276  0.7835  0.2411
   45CHL1  H22A 3313   0.050   3.837   4.348 -1.1674  1.0433  2.2980
   45CHL1  H22B 3314   0.191   3.907   4.432  0.2625  1.8591  0.0557
   45CHL1   C23 3315   0.018   4.032   4.430  0.4466  1.1163  0.1908
   45CHL1  H23A 3316   0.054   4.136   4.444 -1.6140  1.6612  2.0248
   45CHL1  H23B 3317  -0.062   4.040   4.354  1.2215  0.3648 -0.7342
   45CHL1   C24 3318  -0.021   3.984   4.566 -0.3020  0.0648  0.1957
   45CHL1  H24A 3319  -0.060   3.880   4.565  0.4373 -0.2179 -0.2633
   45CHL1  H24B 3320   0.077   3.981   4.620 -0.8128 -2.4751  1.1380
   45CHL1   C25 3321  -0.118   4.079   4.638 -0.3638 -0.8322  0.4311
   45CHL1   H25 3322  -0.079   4.183   4.638 -1.5099 -0.3862  0.8103
   45CHL1   C26 3323  -0.249   4.080   4.570  0.4771 -0.0791  0.3230
   45CHL1  H26A 3324  -0.291   3.980   4.550 -0.8941  0.5231  0.0781
   45CHL1  H26B 3325  -0.328   4.124   4.635  0.0444 -0.3146 -0.0419
   45CHL1  H26C 3326  -0.244   4.125   4.468 -0.2454  0.9115  0.7090
   45CHL1   C27 3327  -0.139   4.035   4.782 -0.6849  0.0724 -0.0446
   45CHL1  H27A 3328  -0.209   3.949   4.783 -0.5134 -0.0828  1.6958
   45CHL1  H27B 3329  -0.059   4.002   4.852 -0.5184 -0.8322 -0.6497
   45CHL1  H27C 3330  -0.182   4.126   4.829  0.7445  0.4575  0.5789
   46CHL1    C3 3331   3.639   4.001   3.304 -0.4661 -0.2346 -0.8598
   46CHL1    H3 3332   3.725   4.071   3.313 -0.2569 -0.6952  1.2597
   46CHL1    O3 3333   3.629   3.959   3.164 -0.7377 -0.2111  0.4187
   46CHL1   H3' 3334   3.555   3.898   3.162 -0.0210 -1.0936  0.2604
   46CHL1    C4 3335   3.661   3.869   3.388  0.1864  0.7288 -0.0056
   46CHL1   H4A 3336   3.585   3.789   3.377 -0.4252  1.1493  0.9974
   46CHL1   H4B 3337   3.757   3.822   3.358  0.1912  0.5101  0.3473
   46CHL1    C5 3338   3.655   3.881   3.539 -0.1540 -0.0182 -0.0618
   46CHL1    C6 3339   3.752   3.827   3.609  0.4249 -0.0612 -0.5151
   46CHL1    H6 3340   3.830   3.760   3.569  0.2612 -0.4036 -0.2626
   46CHL1    C7 3341   3.736   3.834   3.759 -0.3461 -0.2307 -0.0372
   46CHL1   H7A 3342   3.768   3.739   3.805  0.4910 -0.1862 -0.4991
   46CHL1   H7B 3343   3.818   3.906   3.778  0.3234 -1.1146  0.4996
   46CHL1    C8 3344   3.595   3.875   3.814 -0.1153 -0.2576  0.1684
   46CHL1    H8 3345   3.529   3.786   3.806 -0.5627  0.2275 -2.1215
   46CHL1   C14 3346   3.599   3.909   3.959 -0.0406 -0.6199  0.9343
   46CHL1   H14 3347   3.675   3.990   3.965  0.1377 -0.6510 -0.4404
   46CHL1   C15 3348   3.646   3.797   4.048 -0.2001 -0.5304  0.6260
   46CHL1  H15A 3349   3.589   3.702   4.034  1.3862 -1.8222  2.4259
   46CHL1  H15B 3350   3.751   3.766   4.032  0.4807  2.6497 -2.1893
   46CHL1   C16 3351   3.615   3.850   4.183  0.0744  0.3239  0.1085
   46CHL1  H16A 3352   3.546   3.779   4.234 -1.7842  0.7210 -1.6947
   46CHL1  H16B 3353   3.697   3.890   4.247 -0.1801  1.5393 -0.2801
   46CHL1   C17 3354   3.517   3.978   4.160  0.6058  1.2898 -0.7319
   46CHL1   H17 3355   3.575   4.072   4.167 -0.2608  1.7451  1.0360
   46CHL1   C13 3356   3.468   3.968   4.021  0.0852  0.2258 -0.2454
   46CHL1   C18 3357   3.356   3.861   4.011  0.4598  0.4453  0.5539
   46CHL1  H18A 3358   3.369   3.754   4.037  0.7179  0.1656 -0.6413
   46CHL1  H18B 3359   3.272   3.911   4.063 -0.0012  1.6148 -1.2115
   46CHL1  H18C 3360   3.317   3.859   3.907  0.6707 -1.1146  0.4879
   46CHL1   C12 3361   3.427   4.097   3.950  0.9269  0.3286 -0.4324
   46CHL1  H12A 3362   3.319   4.122   3.964  0.0544 -2.0113 -2.1956
   46CHL1  H12B 3363   3.496   4.182   3.963 -0.6438  1.7709 -1.1450
   46CHL1   C11 3364   3.428   4.074   3.792  0.2985  0.3466 -0.2540
   46CHL1  H11A 3365   3.339   4.009   3.775 -0.6587  0.7785  2.6843
   46CHL1  H11B 3366   3.414   4.172   3.741  1.3633  0.1779 -0.9087
   46CHL1    C9 3367   3.543   3.993   3.728 -0.3728  0.1528 -0.5906
   46CHL1    H9 3368   3.623   4.068   3.743 -0.7260  0.1512  1.6831
   46CHL1   C10 3369   3.533   3.960   3.585  0.3514 -0.3463  0.1475
   46CHL1   C19 3370   3.405   3.871   3.570  0.0680  0.2546 -0.0360
   46CHL1  H19A 3371   3.311   3.925   3.593 -1.1834 -1.4639 -0.8778
   46CHL1  H19B 3372   3.402   3.844   3.462  1.5757 -0.0789 -0.0129
   46CHL1  H19C 3373   3.410   3.776   3.628  0.7527 -0.5971 -1.4335
   46CHL1    C1 3374   3.508   4.091   3.506  0.0623  0.4288  0.1063
   46CHL1   H1A 3375   3.413   4.135   3.542  0.1021 -0.0104  0.7633
   46CHL1   H1B 3376   3.585   4.168   3.531 -1.3907  1.5856  1.2020
   46CHL1    C2 3377   3.510   4.064   3.347  0.1967 -0.3569  0.4198
   46CHL1   H2A 3378   3.488   4.154   3.286  0.0104  0.6261  1.8755
   46CHL1   H2B 3379   3.422   4.001   3.322 -0.4099  0.7102 -0.2001
   46CHL1   C20 3380   3.423   4.007   4.282  0.7609  0.1307  0.1592
   46CHL1   H20 3381   3.368   3.912   4.301  0.3592  0.1900 -0.6830
   46CHL1   C21 3382   3.330   4.125   4.245 -0.9716  0.4722  0.5379
   46CHL1  H21A 3383   3.391   4.207   4.203 -0.9448 -0.4312 -1.3078
   46CHL1  H21B 3384   3.288   4.179   4.332 -2.4911  3.1550 -1.6999
   46CHL1  H21C 3385   3.254   4.096   4.169 -0.8054 -1.4954  1.0511
   46CHL1   C22 3386   3.496   4.034   4.417 -0.2546 -0.4439 -0.0013
   46CHL1  H22A 3387   3.584   3.966   4.426 -1.0687 -1.3300  1.8539
   46CHL1  H22B 3388   3.536   4.135   4.395 -0.4829 -0.4378 -0.4018
   46CHL1   C23 3389   3.422   4.020   4.544 -0.1724  0.2120 -0.7061
   46CHL1  H23A 3390   3.328   4.077   4.527 -0.6923 -1.2719 -3.2693
   46CHL1  H23B 3391   3.398   3.912   4.546  2.5261 -0.5477 -2.8434
   46CHL1   C24 3392   3.492   4.067   4.679 -0.6512 -0.5013 -0.3205
   46CHL1  H24A 3393   3.594   4.024   4.682  0.1674  1.3546 -0.6110
   46CHL1  H24B 3394   3.510   4.177   4.675 -0.2680 -0.5405  0.2483
   46CHL1   C25 3395   3.422   4.030   4.816  0.0992 -0.4112  0.9446
   46CHL1   H25 3396   3.413   3.920   4.828 -0.1700 -0.4314  0.5619
   46CHL1   C26 3397   3.520   4.082   4.929  0.2202 -0.4042 -0.1291
   46CHL1  H26A 3398   3.627   4.053   4.917 -0.2636 -3.1319  1.3335
   46CHL1  H26B 3399   3.509   4.192   4.927 -1.9171 -0.5628  0.4266
   46CHL1  H26C 3400   3.486   4.050   5.030 -0.4743  0.1702 -0.1777
   46CHL1   C27 3401   3.272   4.084   4.827 -0.8865 -0.5725 -0.3330
   46CHL1  H27A 3402   3.231   4.067   4.929  2.6725 -1.2568  1.1350
   46CHL1  H27B 3403   3.284   4.192   4.805  0.6296 -0.6439  0.0357
   46CHL1  H27C 3404   3.212   4.038   4.745 -0.5174 -0.3328 -0.7374
   47CHL1    C3 3405   0.962   5.237   3.458 -0.2448 -0.1116  0.2232
   47CHL1    H3 3406   0.925   5.342   3.456 -0.0032  0.0077  1.4524
   47CHL1    O3 3407   0.938   5.166   3.337  0.3373 -0.2679  0.2262
   47CHL1   H3' 3408   0.999   5.206   3.274  0.6531 -0.6874  0.2566
   47CHL1    C4 3409   1.114   5.251   3.486 -0.2348  0.1701 -0.7685
   47CHL1   H4A 3410   1.175   5.158   3.485  0.0542  0.3523 -0.3024
   47CHL1   H4B 3411   1.147   5.317   3.403  1.4406 -0.1500 -0.3953
   47CHL1    C5 3412   1.139   5.308   3.624  0.2933  0.0425 -0.0145
   47CHL1    C6 3413   1.221   5.416   3.653  1.0198  0.2459  0.9801
   47CHL1    H6 3414   1.265   5.471   3.569 -3.2433 -1.7186 -2.9396
   47CHL1    C7 3415   1.250   5.463   3.796  0.2803 -0.2344  0.1999
   47CHL1   H7A 3416   1.356   5.495   3.813  0.8414 -2.2388  0.7228
   47CHL1   H7B 3417   1.184   5.551   3.814 -0.4626 -0.6472 -0.4606
   47CHL1    C8 3418   1.214   5.353   3.900  0.3329 -0.3751  0.7946
   47CHL1    H8 3419   1.284   5.270   3.879 -0.6968 -0.7837 -1.2826
   47CHL1   C14 3420   1.230   5.404   4.039  0.7377 -0.4313  0.0979
   47CHL1   H14 3421   1.159   5.489   4.035  1.4114  0.1367  0.0736
   47CHL1   C15 3422   1.371   5.455   4.071 -0.1865 -0.1924  0.4068
   47CHL1  H15A 3423   1.448   5.393   4.019  0.3121  0.3631  0.4711
   47CHL1  H15B 3424   1.403   5.557   4.042 -1.4519  1.1057  3.2753
   47CHL1   C16 3425   1.367   5.451   4.228  0.3415  0.3312  0.1378
   47CHL1  H16A 3426   1.448   5.380   4.253  1.4302  0.3985 -2.7297
   47CHL1  H16B 3427   1.398   5.541   4.285 -1.1333  0.3709  0.9076
   47CHL1   C17 3428   1.228   5.396   4.275  0.1234 -0.2411 -0.5082
   47CHL1   H17 3429   1.160   5.483   4.285  1.0421  0.7232 -2.1522
   47CHL1   C13 3430   1.178   5.312   4.153  0.0595 -0.6018 -0.7054
   47CHL1   C18 3431   1.249   5.175   4.141 -0.4008 -0.6602 -0.5424
   47CHL1  H18A 3432   1.236   5.113   4.049 -0.1480 -2.0099  0.2968
   47CHL1  H18B 3433   1.357   5.192   4.159 -0.2753 -0.6479 -1.2929
   47CHL1  H18C 3434   1.198   5.115   4.220 -0.6912  1.1760  0.7136
   47CHL1   C12 3435   1.025   5.298   4.123  0.7782 -1.0359  0.3349
   47CHL1  H12A 3436   0.976   5.228   4.194  2.5600 -0.8064  1.8768
   47CHL1  H12B 3437   0.979   5.399   4.134 -0.8706 -1.7060 -0.1576
   47CHL1   C11 3438   0.990   5.235   3.989 -0.1715  0.5014 -0.5406
   47CHL1  H11A 3439   1.016   5.127   3.988  3.0248  1.1233  0.8349
   47CHL1  H11B 3440   0.880   5.247   3.981 -0.3918  0.7247  2.1136
   47CHL1    C9 3441   1.068   5.309   3.874  0.4484  0.6695 -0.1964
   47CHL1    H9 3442   1.016   5.405   3.855  0.8761  0.7931 -0.7538
   47CHL1   C10 3443   1.058   5.233   3.738  0.2692 -0.7136 -0.2911
   47CHL1   C19 3444   1.113   5.095   3.758  0.0303  0.8342  0.3605
   47CHL1  H19A 3445   1.048   5.025   3.815 -1.9202  0.8501 -1.7203
   47CHL1  H19B 3446   1.114   5.031   3.668  2.3383  0.3388  0.6662
   47CHL1  H19C 3447   1.212   5.084   3.808  0.8701  2.4090 -0.8478
   47CHL1    C1 3448   0.901   5.226   3.701 -0.8960  0.4729 -0.5751
   47CHL1   H1A 3449   0.850   5.159   3.775 -0.2493  1.1757  0.5362
   47CHL1   H1B 3450   0.866   5.331   3.696 -0.6219  0.6099  0.1643
   47CHL1    C2 3451   0.889   5.153   3.563 -0.1382 -0.9660 -0.1352
   47CHL1   H2A 3452   0.781   5.147   3.538  0.0336  2.2401 -2.2919
   47CHL1   H2B 3453   0.931   5.050   3.565 -0.3119 -1.0678 -1.1984
   47CHL1   C20 3454   1.232   5.326   4.410  0.0146  0.0530  0.1261
   47CHL1   H20 3455   1.299   5.238   4.409 -1.1096 -0.8332  0.4979
   47CHL1   C21 3456   1.094   5.259   4.446 -0.2950  0.3328 -0.3184
   47CHL1  H21A 3457   1.079   5.160   4.399  2.2095 -0.0499 -0.4721
   47CHL1  H21B 3458   1.012   5.328   4.417 -0.0124  0.6657 -0.3390
   47CHL1  H21C 3459   1.092   5.250   4.557  0.2627  0.2931 -0.3068
   47CHL1   C22 3460   1.279   5.419   4.518 -0.5778 -0.7115 -0.0267
   47CHL1  H22A 3461   1.380   5.460   4.499  0.9519 -3.6415  1.1971
   47CHL1  H22B 3462   1.201   5.499   4.519  2.0011  2.0346  2.8429
   47CHL1   C23 3463   1.299   5.362   4.663  0.4270 -0.4392 -0.3899
   47CHL1  H23A 3464   1.213   5.312   4.711  1.0001 -1.0965 -0.0309
   47CHL1  H23B 3465   1.376   5.284   4.648 -0.2011 -1.0261 -0.6236
   47CHL1   C24 3466   1.336   5.469   4.770 -0.5182  0.7525  0.4456
   47CHL1  H24A 3467   1.425   5.526   4.734  0.9667 -2.3759 -1.2611
   47CHL1  H24B 3468   1.250   5.539   4.774  0.5312  2.1866 -0.6789
   47CHL1   C25 3469   1.369   5.413   4.910 -0.2610 -0.1208 -0.1335
   47CHL1   H25 3470   1.279   5.360   4.949 -0.6926  0.4430 -0.3430
   47CHL1   C26 3471   1.491   5.322   4.912 -0.1605 -0.9546  0.9537
   47CHL1  H26A 3472   1.465   5.229   4.856 -2.0931 -0.2145  0.5339
   47CHL1  H26B 3473   1.580   5.370   4.867 -1.0746  1.4849  1.5922
   47CHL1  H26C 3474   1.512   5.296   5.018 -2.4717  1.3664  2.1032
   47CHL1   C27 3475   1.394   5.529   5.013 -0.0657 -0.7387 -0.6700
   47CHL1  H27A 3476   1.424   5.482   5.109  0.8034  1.9192  0.4319
   47CHL1  H27B 3477   1.477   5.589   4.971  1.9142 -1.7871  1.5671
   47CHL1  H27C 3478   1.309   5.598   5.032 -0.5630 -1.5847  0.2757
   48CHL1    C3 3479   4.187   0.101   3.215  0.0495 -0.0543  0.1830
   48CHL1    H3 3480   4.179   0.210   3.235  1.1272  0.3748 -1.5791
   48CHL1    O3 3481   4.184   0.072   3.074  0.2371 -0.2633  0.2544
   48CHL1   H3' 3482   4.231  -0.011   3.063  1.0722 -0.0878  2.0723
   48CHL1    C4 3483   4.336   0.077   3.260  0.2626 -0.4063 -0.6061
   48CHL1   H4A 3484   4.352  -0.030   3.235 -0.2350 -0.5949 -0.1349
   48CHL1   H4B 3485   4.399   0.147   3.201  0.3968  0.4510  0.5204
   48CHL1    C5 3486   4.355   0.102   3.408 -0.5292 -0.1753 -0.8943
   48CHL1    C6 3487   4.453   0.182   3.448  0.4235 -0.3807 -0.3396
   48CHL1    H6 3488   4.521   0.236   3.381 -1.0929  1.1492 -0.7138
   48CHL1    C7 3489   4.492   0.195   3.596  0.2014 -0.0457  0.8482
   48CHL1   H7A 3490   4.602   0.194   3.615  0.4698  1.2349 -0.4380
   48CHL1   H7B 3491   4.451   0.293   3.627  3.3323  1.4246  0.7415
   48CHL1    C8 3492   4.422   0.092   3.690  0.0286  0.5444  0.0896
   48CHL1    H8 3493   4.486   0.001   3.686 -0.8240 -0.2558  3.0070
   48CHL1   C14 3494   4.432   0.137   3.836 -0.3424  0.5121  0.7599
   48CHL1   H14 3495   4.369   0.228   3.825  0.6091  0.9841 -1.5271
   48CHL1   C15 3496   4.564   0.186   3.894 -0.2435 -0.0539 -0.0807
   48CHL1  H15A 3497   4.648   0.116   3.874  2.4293  2.4003  1.7243
   48CHL1  H15B 3498   4.591   0.287   3.855  1.6947 -1.4668 -2.7179
   48CHL1   C16 3499   4.540   0.180   4.044 -0.0685 -0.4369 -0.0320
   48CHL1  H16A 3500   4.619   0.124   4.099  0.7867 -0.3010 -1.0896
   48CHL1  H16B 3501   4.555   0.284   4.082  0.9303  0.1313 -1.8733
   48CHL1   C17 3502   4.398   0.130   4.073  0.4453  0.4135  0.7502
   48CHL1   H17 3503   4.321   0.211   4.067 -1.0492 -1.0494 -1.1910
   48CHL1   C13 3504   4.366   0.054   3.944 -0.0385 -0.1965  0.0265
   48CHL1   C18 3505   4.421  -0.091   3.942 -0.4879 -0.1059  0.2459
   48CHL1  H18A 3506   4.355  -0.155   4.005 -0.7108  0.0457  0.1646
   48CHL1  H18B 3507   4.426  -0.129   3.837 -2.4663  0.1563  0.0213
   48CHL1  H18C 3508   4.525  -0.102   3.980 -1.0207 -0.5334  1.6221
   48CHL1   C12 3509   4.227   0.040   3.897  0.7359 -0.4538  0.1850
   48CHL1  H12A 3510   4.177  -0.021   3.976  1.9967  0.5908  1.8526
   48CHL1  H12B 3511   4.181   0.141   3.905  1.9665 -0.0457  3.8844
   48CHL1   C11 3512   4.202  -0.018   3.753  0.1213 -0.4957  0.5807
   48CHL1  H11A 3513   4.241  -0.121   3.764 -2.0956 -1.4715 -0.2682
   48CHL1  H11B 3514   4.094  -0.036   3.741  0.4209 -3.0804  1.2612
   48CHL1    C9 3515   4.282   0.058   3.648  0.7867  0.2106  0.2661
   48CHL1    H9 3516   4.225   0.154   3.655  0.3283 -0.0351 -0.0508
   48CHL1   C10 3517   4.265   0.013   3.504  0.0337 -0.6914 -0.5992
   48CHL1   C19 3518   4.309  -0.137   3.498 -0.1554 -0.3379 -0.1076
   48CHL1  H19A 3519   4.247  -0.185   3.576 -2.1590  1.4320 -0.4912
   48CHL1  H19B 3520   4.291  -0.182   3.398  1.2516  0.4187 -0.7312
   48CHL1  H19C 3521   4.414  -0.143   3.531  1.1698  2.1593 -3.2733
   48CHL1    C1 3522   4.118   0.031   3.453 -0.0685  0.4905 -0.3672
   48CHL1   H1A 3523   4.050  -0.040   3.504  0.4284 -0.9478 -1.6292
   48CHL1   H1B 3524   4.084   0.130   3.489 -3.2046  0.1778 -2.1155
   48CHL1    C2 3525   4.092   0.018   3.305  0.0282 -0.5604  0.0009
   48CHL1   H2A 3526   3.987   0.043   3.280 -0.1363 -0.1078  1.1167
   48CHL1   H2B 3527   4.103  -0.091   3.284 -2.6630 -0.6195 -1.4384
   48CHL1   C20 3528   4.376   0.045   4.203 -0.7091  0.0966  0.8133
   48CHL1   H20 3529   4.425  -0.054   4.192  1.5654  1.3266 -1.0353
   48CHL1   C21 3530   4.226   0.043   4.240 -0.0209  0.1131  0.9636
   48CHL1  H21A 3531   4.208   0.008   4.345  3.2047 -0.0906  1.5546
   48CHL1  H21B 3532   4.167  -0.018   4.169 -0.8324  2.5213 -0.5339
   48CHL1  H21C 3533   4.179   0.140   4.215 -1.3775 -1.0109 -1.1477
   48CHL1   C22 3534   4.452   0.109   4.316 -0.1062  0.0187  0.5861
   48CHL1  H22A 3535   4.554   0.139   4.286  0.1698 -1.1731  0.3156
   48CHL1  H22B 3536   4.395   0.200   4.347 -3.0028 -0.8096 -1.8084
   48CHL1   C23 3537   4.475   0.015   4.431 -0.1617  0.4358  0.4411
   48CHL1  H23A 3538   4.383  -0.035   4.467  1.2943 -1.6185  1.4980
   48CHL1  H23B 3539   4.542  -0.070   4.407 -2.2516 -1.1619  0.0569
   48CHL1   C24 3540   4.532   0.103   4.548  0.0497  0.1849 -0.3982
   48CHL1  H24A 3541   4.587   0.186   4.501 -3.0854  1.8940 -1.3340
   48CHL1  H24B 3542   4.446   0.149   4.601  1.5235 -0.8657  3.2446
   48CHL1   C25 3543   4.617   0.022   4.657  1.0331 -0.1257 -0.3365
   48CHL1   H25 3544   4.581  -0.083   4.666 -0.0095 -0.0143 -2.5264
   48CHL1   C26 3545   4.769   0.020   4.610  0.1063  0.1338  0.5455
   48CHL1  H26A 3546   4.808  -0.067   4.668 -3.6868 -2.1633  0.0097
   48CHL1  H26B 3547   4.770   0.006   4.500 -3.7417  4.9998 -0.4749
   48CHL1  H26C 3548   4.819   0.114   4.641  0.9698  0.6026 -2.0293
   48CHL1   C27 3549   4.609   0.096   4.794  0.3390  0.1753 -0.0291
   48CHL1  H27A 3550   4.645   0.201   4.783 -0.4357  0.4000 -0.5200
   48CHL1  H27B 3551   4.503   0.109   4.822  0.5776 -2.0670  2.2667
   48CHL1  H27C 3552   4.666   0.034   4.866 -1.1242 -0.4865  0.5869
   49CHL1    C3 3553   6.179   3.139   3.478 -0.0258  0.0017  0.2888
   49CHL1    H3 3554   6.265   3.071   3.458  1.6579  2.3709 -0.9157
   49CHL1    O3 3555   6.113   3.150   3.351  0.4341  0.6907  0.2476
   49CHL1   H3' 3556   6.022   3.170   3.375 -0.3852 -1.5623 -0.7045
   49CHL1    C4 3557   6.093   3.062   3.582  0.3302  0.0326  1.0854
   49CHL1   H4A 3558   5.991   3.105   3.589 -0.8416 -2.5185  0.5876
   49CHL1   H4B 3559   6.060   2.971   3.528  2.4846  0.2393 -0.7358
   49CHL1    C5 3560   6.152   3.056   3.713 -0.3402  0.0668 -0.2871
   49CHL1    C6 3561   6.188   2.943   3.771  0.2052  0.3233 -0.4522
   49CHL1    H6 3562   6.172   2.845   3.725  3.5152  0.1178 -1.3877
   49CHL1    C7 3563   6.241   2.938   3.908  0.8593 -0.3277  0.3640
   49CHL1   H7A 3564   6.199   2.850   3.960 -1.2431  0.1494 -0.3987
   49CHL1   H7B 3565   6.351   2.927   3.898  0.8201 -0.3394 -0.1207
   49CHL1    C8 3566   6.205   3.071   3.988 -0.2314 -0.3571  0.1979
   49CHL1    H8 3567   6.095   3.081   3.998 -0.3926 -2.3297  0.7124
   49CHL1   C14 3568   6.275   3.067   4.129 -0.1568  0.0021  0.3393
   49CHL1   H14 3569   6.382   3.064   4.101 -0.8429  2.0358 -3.2188
   49CHL1   C15 3570   6.253   2.945   4.215  0.4095  0.5338  0.3795
   49CHL1  H15A 3571   6.152   2.898   4.203 -0.5545  1.7343  3.0702
   49CHL1  H15B 3572   6.327   2.866   4.190 -0.3707  0.1659 -0.8808
   49CHL1   C16 3573   6.279   2.996   4.351 -0.1526  0.2591 -0.5122
   49CHL1  H16A 3574   6.177   2.991   4.394 -0.1608  0.0773 -0.5536
   49CHL1  H16B 3575   6.347   2.939   4.418 -1.2286 -1.8031 -1.1037
   49CHL1   C17 3576   6.323   3.147   4.342  1.0000  0.0406 -0.0425
   49CHL1   H17 3577   6.429   3.142   4.308  0.4795 -1.2003 -1.6519
   49CHL1   C13 3578   6.247   3.193   4.213  0.1537 -0.3235 -0.5017
   49CHL1   C18 3579   6.091   3.203   4.251 -0.1002 -0.0008 -0.4859
   49CHL1  H18A 3580   6.025   3.208   4.162 -0.6046 -0.8438 -0.1814
   49CHL1  H18B 3581   6.043   3.112   4.295 -0.7559  1.2660  1.5529
   49CHL1  H18C 3582   6.075   3.293   4.314  0.8727 -0.4346  0.4131
   49CHL1   C12 3583   6.304   3.317   4.143 -0.0190 -0.1601 -0.0421
   49CHL1  H12A 3584   6.277   3.417   4.184 -0.4254 -0.3123  0.0611
   49CHL1  H12B 3585   6.415   3.317   4.141 -0.0089  0.1918  0.3526
   49CHL1   C11 3586   6.252   3.325   3.994  0.1174  0.5666  0.1084
   49CHL1  H11A 3587   6.146   3.359   4.006  0.2099  1.8865 -2.2155
   49CHL1  H11B 3588   6.319   3.392   3.935 -0.5395  0.2274 -1.0579
   49CHL1    C9 3589   6.253   3.192   3.913 -0.7671 -0.4176  0.1687
   49CHL1    H9 3590   6.359   3.162   3.900 -0.6720 -0.0114 -0.0003
   49CHL1   C10 3591   6.181   3.193   3.769  0.4859 -0.2667 -0.0983
   49CHL1   C19 3592   6.053   3.279   3.787 -0.1629  0.5857  0.2190
   49CHL1  H19A 3593   6.002   3.287   3.688  0.9287  0.3484 -0.3815
   49CHL1  H19B 3594   5.992   3.230   3.865  0.5013  2.6461  2.1369
   49CHL1  H19C 3595   6.079   3.382   3.818 -1.0539  0.0919  2.8797
   49CHL1    C1 3596   6.268   3.266   3.669  0.3968  0.0194  0.3802
   49CHL1   H1A 3597   6.292   3.372   3.695 -0.7828  0.5143 -0.4542
   49CHL1   H1B 3598   6.362   3.208   3.669  0.3183 -0.2449 -2.5761
   49CHL1    C2 3599   6.214   3.280   3.518 -0.1107  0.2961 -0.9105
   49CHL1   H2A 3600   6.299   3.318   3.458  0.4119  2.5392  1.1064
   49CHL1   H2B 3601   6.131   3.353   3.509 -0.0388  0.6519  0.8939
   49CHL1   C20 3602   6.309   3.220   4.475 -0.5362  0.0891 -0.4756
   49CHL1   H20 3603   6.214   3.203   4.530 -0.7111  0.3219 -0.7035
   49CHL1   C21 3604   6.330   3.379   4.457  0.5089  0.3393 -0.1116
   49CHL1  H21A 3605   6.253   3.422   4.390  0.7733  0.0684 -0.5973
   49CHL1  H21B 3606   6.432   3.410   4.424  0.4611 -0.1073 -0.6946
   49CHL1  H21C 3607   6.320   3.418   4.560  1.3621 -2.5968  1.2028
   49CHL1   C22 3608   6.408   3.156   4.577  0.7010  0.3623 -0.1350
   49CHL1  H22A 3609   6.384   3.053   4.610  1.1643 -0.7382 -2.9151
   49CHL1  H22B 3610   6.497   3.153   4.511  0.5463 -0.8308 -0.3135
   49CHL1   C23 3611   6.432   3.239   4.700  0.3707 -0.4847 -0.2409
   49CHL1  H23A 3612   6.502   3.312   4.656 -0.1136  0.4980  0.5675
   49CHL1  H23B 3613   6.336   3.289   4.725  1.4666  0.9797  1.2523
   49CHL1   C24 3614   6.490   3.150   4.816 -0.0760  0.4996 -0.4421
   49CHL1  H24A 3615   6.404   3.088   4.851  0.0133  0.2864 -0.5983
   49CHL1  H24B 3616   6.566   3.084   4.770  0.8324 -1.4574  3.4140
   49CHL1   C25 3617   6.558   3.220   4.935  0.5809 -0.1709 -0.0314
   49CHL1   H25 3618   6.480   3.285   4.980  1.1095 -0.8238  1.8966
   49CHL1   C26 3619   6.607   3.120   5.031  0.0381 -0.1804  0.1123
   49CHL1  H26A 3620   6.531   3.042   5.053 -0.9603  0.0892 -2.1478
   49CHL1  H26B 3621   6.701   3.070   4.999 -0.1656  0.3277 -1.3462
   49CHL1  H26C 3622   6.631   3.171   5.127  1.2687  0.4420 -0.5119
   49CHL1   C27 3623   6.679   3.303   4.889 -0.1567 -0.1051  0.1864
   49CHL1  H27A 3624   6.756   3.317   4.967 -1.1849  0.4397  1.1375
   49CHL1  H27B 3625   6.733   3.244   4.812 -0.0328  0.2689 -0.0164
   49CHL1  H27C 3626   6.640   3.401   4.854 -3.5879 -2.1505 -2.4211
   50CHL1    C3 3627   4.077   4.311   3.299  0.2147 -0.3474  0.2765
   50CHL1    H3 3628   4.057   4.420   3.308  0.5117 -0.2899  0.2350
   50CHL1    O3 3629   4.121   4.284   3.168 -0.2814 -0.3014  0.0675
   50CHL1   H3' 3630   4.152   4.196   3.148  1.0514  0.1997 -0.1239
   50CHL1    C4 3631   4.182   4.261   3.398  0.0829 -0.1029  0.0264
   50CHL1   H4A 3632   4.200   4.152   3.385  1.6177  0.1468 -0.0963
   50CHL1   H4B 3633   4.277   4.311   3.370  0.3223  0.0532  1.0734
   50CHL1    C5 3634   4.146   4.284   3.540 -0.5798  0.8355  0.5791
   50CHL1    C6 3635   4.228   4.336   3.627  0.2655 -0.5548 -0.1896
   50CHL1    H6 3636   4.326   4.369   3.590  0.1256  1.4451  1.1020
   50CHL1    C7 3637   4.200   4.368   3.775 -0.7164 -0.1373 -0.2649
   50CHL1   H7A 3638   4.287   4.353   3.843 -0.9547  1.1120  0.3517
   50CHL1   H7B 3639   4.200   4.478   3.782  1.8438 -0.1485  1.1232
   50CHL1    C8 3640   4.059   4.322   3.824  0.2600  0.5854 -0.5201
   50CHL1    H8 3641   4.071   4.215   3.854 -0.8376  0.1832 -1.4434
   50CHL1   C14 3642   4.018   4.393   3.949 -0.5419 -0.1295  0.4899
   50CHL1   H14 3643   4.002   4.496   3.911  3.5507  1.2661  2.0404
   50CHL1   C15 3644   4.113   4.418   4.073  0.2947  1.1330  0.5440
   50CHL1  H15A 3645   4.174   4.325   4.083  1.3892  1.7630  0.0006
   50CHL1  H15B 3646   4.179   4.503   4.048  0.8120  0.0358 -2.2544
   50CHL1   C16 3647   4.010   4.433   4.189 -0.0698  0.0219 -0.4880
   50CHL1  H16A 3648   4.021   4.342   4.251  0.5599  0.2267 -0.2984
   50CHL1  H16B 3649   4.046   4.510   4.260 -2.4420 -0.8129  1.8060
   50CHL1   C17 3650   3.871   4.447   4.123 -0.1692 -0.0986 -0.7830
   50CHL1   H17 3651   3.878   4.549   4.080  2.1299  0.4706  0.7484
   50CHL1   C13 3652   3.882   4.341   4.004 -0.2733  0.3011 -1.2362
   50CHL1   C18 3653   3.902   4.194   4.062  0.2232  0.1694  1.3770
   50CHL1  H18A 3654   3.921   4.115   3.986  1.9771  0.9686  0.9328
   50CHL1  H18B 3655   3.989   4.178   4.130  1.2674  0.1086  0.0700
   50CHL1  H18C 3656   3.805   4.178   4.114 -0.7613 -0.1652 -0.4916
   50CHL1   C12 3657   3.773   4.335   3.900 -0.5949  0.1685 -0.1235
   50CHL1  H12A 3658   3.685   4.284   3.943  0.3445  0.6295  2.5472
   50CHL1  H12B 3659   3.733   4.433   3.867 -0.4962 -0.1402 -1.1895
   50CHL1   C11 3660   3.816   4.266   3.772  0.0955  0.0139  0.7824
   50CHL1  H11A 3661   3.836   4.159   3.793  1.1554  0.1004  0.2845
   50CHL1  H11B 3662   3.736   4.266   3.695  0.2628 -0.0754  0.6082
   50CHL1    C9 3663   3.951   4.321   3.714  0.2893  0.5530 -0.3744
   50CHL1    H9 3664   3.945   4.430   3.690 -0.0017  0.4032 -0.9859
   50CHL1   C10 3665   4.006   4.246   3.581  0.4486  0.7197 -0.0272
   50CHL1   C19 3666   4.004   4.102   3.608 -0.2654 -0.4958  0.0847
   50CHL1  H19A 3667   4.046   4.039   3.526  0.5339 -1.2982  1.0714
   50CHL1  H19B 3668   4.060   4.074   3.700 -1.3281 -0.0574  0.8855
   50CHL1  H19C 3669   3.898   4.069   3.615 -0.5668 -0.0517 -1.7409
   50CHL1    C1 3670   3.902   4.280   3.470  0.1130 -0.3963 -0.6145
   50CHL1   H1A 3671   3.815   4.224   3.510  1.7443 -2.2639  0.4890
   50CHL1   H1B 3672   3.871   4.386   3.480 -0.7018 -0.7361  0.7931
   50CHL1    C2 3673   3.945   4.244   3.328 -0.0289 -0.1278 -0.5744
   50CHL1   H2A 3674   3.873   4.287   3.255 -0.4711 -0.4852 -0.3522
   50CHL1   H2B 3675   3.941   4.135   3.307  0.1443  0.0921 -1.8516
   50CHL1   C20 3676   3.747   4.444   4.219  0.2194 -0.2721 -0.2312
   50CHL1   H20 3677   3.728   4.337   4.240  1.3139 -0.1577  1.5952
   50CHL1   C21 3678   3.634   4.506   4.138 -0.3758  0.1462  0.6629
   50CHL1  H21A 3679   3.613   4.429   4.060  1.3083  0.7573 -0.4554
   50CHL1  H21B 3680   3.669   4.601   4.093  2.7625 -0.8488  0.7484
   50CHL1  H21C 3681   3.537   4.514   4.192 -0.7750 -0.9917  0.1502
   50CHL1   C22 3682   3.764   4.529   4.352 -0.0397  0.1141  0.9148
   50CHL1  H22A 3683   3.865   4.506   4.393 -0.0986 -1.6454  0.1730
   50CHL1  H22B 3684   3.771   4.636   4.325  1.6824 -0.0234  0.7104
   50CHL1   C23 3685   3.662   4.491   4.465 -0.0941  0.0188 -0.3842
   50CHL1  H23A 3686   3.559   4.516   4.433  0.5833  0.6278 -2.1849
   50CHL1  H23B 3687   3.660   4.383   4.489 -1.8309  0.3908  1.3817
   50CHL1   C24 3688   3.683   4.575   4.602 -0.0598 -0.0047 -0.4014
   50CHL1  H24A 3689   3.792   4.564   4.624 -0.5295 -1.7286  1.2748
   50CHL1  H24B 3690   3.659   4.676   4.564  0.0630 -0.1554 -0.8907
   50CHL1   C25 3691   3.585   4.556   4.723  0.0068 -0.1684 -0.5541
   50CHL1   H25 3692   3.579   4.452   4.762 -1.4073 -0.2874 -1.0350
   50CHL1   C26 3693   3.622   4.640   4.849 -0.4088  0.2753 -0.9347
   50CHL1  H26A 3694   3.548   4.616   4.929  0.7745  1.6222  0.6282
   50CHL1  H26B 3695   3.725   4.619   4.884 -0.2824 -0.0980 -1.5076
   50CHL1  H26C 3696   3.610   4.742   4.808 -3.2921  0.3589 -0.0788
   50CHL1   C27 3697   3.444   4.593   4.675  0.1861  0.3964  0.1279
   50CHL1  H27A 3698   3.456   4.699   4.644  0.8964  0.6730  1.2820
   50CHL1  H27B 3699   3.413   4.528   4.591 -2.0734 -0.4551  1.5163
   50CHL1  H27C 3700   3.370   4.589   4.758 -0.3457 -1.3332 -0.3866
   51CHL1    C3 3701   6.720   4.714   3.440 -0.2680 -1.0074  0.3975
   51CHL1    H3 3702   6.769   4.811   3.418 -2.1369 -0.1125 -0.0908
   51CHL1    O3 3703   6.722   4.642   3.317  0.1639  0.4117 -0.1169
   51CHL1   H3' 3704   6.807   4.596   3.315  0.2502  0.5650  0.0242
   51CHL1    C4 3705   6.788   4.651   3.558  0.0172 -0.1212  0.1263
   51CHL1   H4A 3706   6.751   4.548   3.579 -0.4995 -0.1801 -1.0264
   51CHL1   H4B 3707   6.892   4.643   3.520  0.0402 -0.8618  0.3141
   51CHL1    C5 3708   6.786   4.733   3.684 -0.1774 -0.7695  0.1989
   51CHL1    C6 3709   6.906   4.767   3.741 -0.6350 -0.0747  0.3280
   51CHL1    H6 3710   6.996   4.744   3.684 -0.3171  0.3282  0.6577
   51CHL1    C7 3711   6.901   4.837   3.875 -0.4287 -0.1256  0.1476
   51CHL1   H7A 3712   6.970   4.793   3.950 -0.6338 -0.0863  0.3641
   51CHL1   H7B 3713   6.923   4.944   3.856  0.5224 -0.3881 -0.3075
   51CHL1    C8 3714   6.764   4.833   3.947 -0.1106 -0.3053 -0.5947
   51CHL1    H8 3715   6.752   4.732   3.992  5.3574 -1.1514 -0.3248
   51CHL1   C14 3716   6.764   4.938   4.060 -0.3252  0.6297 -0.0143
   51CHL1   H14 3717   6.775   5.043   4.027 -1.3883  0.8427  0.2575
   51CHL1   C15 3718   6.873   4.921   4.175 -0.3459  0.1466  0.2830
   51CHL1  H15A 3719   6.893   4.817   4.209  0.8955  0.1670 -0.3233
   51CHL1  H15B 3720   6.970   4.963   4.139  0.1086 -1.6275 -0.6996
   51CHL1   C16 3721   6.816   4.991   4.291  0.3537 -0.0346 -0.1677
   51CHL1  H16A 3722   6.815   4.942   4.391 -1.8311  2.1676  1.0277
   51CHL1  H16B 3723   6.866   5.090   4.298 -0.1705  0.2410 -0.2664
   51CHL1   C17 3724   6.673   5.038   4.244  0.0109  0.5087 -0.1112
   51CHL1   H17 3725   6.681   5.139   4.198 -0.4574  1.3085  1.5014
   51CHL1   C13 3726   6.629   4.943   4.132 -1.2258  0.6068 -1.0295
   51CHL1   C18 3727   6.605   4.810   4.204  0.6828 -0.7809  0.5962
   51CHL1  H18A 3728   6.684   4.776   4.274  0.9461 -1.1771  0.1148
   51CHL1  H18B 3729   6.515   4.818   4.269  0.9960 -1.0752  1.0697
   51CHL1  H18C 3730   6.588   4.729   4.130  1.5293  1.1676 -1.9117
   51CHL1   C12 3731   6.531   4.986   4.033  0.3908 -1.0239  0.0502
   51CHL1  H12A 3732   6.424   5.001   4.057  0.1368 -0.2069 -1.4891
   51CHL1  H12B 3733   6.558   5.084   3.990 -0.4576  0.1895  2.1350
   51CHL1   C11 3734   6.513   4.871   3.928 -0.3572 -1.2483  0.9380
   51CHL1  H11A 3735   6.473   4.781   3.979  1.2907 -0.4592  3.8624
   51CHL1  H11B 3736   6.428   4.906   3.864  0.5022 -1.6629 -0.4851
   51CHL1    C9 3737   6.647   4.853   3.849  0.5197 -1.0305 -0.4856
   51CHL1    H9 3738   6.656   4.955   3.805  3.4524 -0.9070  0.1996
   51CHL1   C10 3739   6.650   4.759   3.736  0.3521 -0.5745  0.4354
   51CHL1   C19 3740   6.582   4.627   3.783  0.1627  0.0500 -0.7857
   51CHL1  H19A 3741   6.475   4.650   3.801  0.3903  0.3464  0.2662
   51CHL1  H19B 3742   6.576   4.539   3.715 -1.6154  0.1136 -0.7586
   51CHL1  H19C 3743   6.621   4.600   3.883 -0.3512  1.9756 -0.0129
   51CHL1    C1 3744   6.580   4.829   3.609 -0.2807 -0.3536  1.0097
   51CHL1   H1A 3745   6.480   4.865   3.641 -0.8653  0.8241 -1.8847
   51CHL1   H1B 3746   6.628   4.925   3.581 -0.8192 -0.3765 -0.0252
   51CHL1    C2 3747   6.570   4.745   3.480 -0.0346 -0.2426  0.3422
   51CHL1   H2A 3748   6.534   4.810   3.397  2.2479 -0.5758 -1.0105
   51CHL1   H2B 3749   6.499   4.659   3.486  0.1177 -0.4110 -0.1753
   51CHL1   C20 3750   6.570   5.054   4.359 -0.2867  0.0818 -0.2618
   51CHL1   H20 3751   6.584   4.959   4.415  0.7252 -0.5938 -1.6222
   51CHL1   C21 3752   6.427   5.089   4.315 -0.3054  0.4564  1.0892
   51CHL1  H21A 3753   6.377   5.010   4.256 -0.7516  0.7667  1.0513
   51CHL1  H21B 3754   6.427   5.176   4.246  1.7188 -0.1938  0.1841
   51CHL1  H21C 3755   6.363   5.112   4.403  2.4150  2.5429  2.7060
   51CHL1   C22 3756   6.628   5.173   4.450 -0.1348 -0.4976 -0.0449
   51CHL1  H22A 3757   6.738   5.181   4.459 -0.3011  2.4774  0.3270
   51CHL1  H22B 3758   6.573   5.263   4.413  1.5829  0.3428 -0.6788
   51CHL1   C23 3759   6.594   5.145   4.603  0.3872 -0.7505 -0.4982
   51CHL1  H23A 3760   6.606   5.244   4.653 -4.4468  0.0123 -0.3300
   51CHL1  H23B 3761   6.485   5.122   4.608  0.5116 -1.1518  0.7066
   51CHL1   C24 3762   6.678   5.035   4.673 -0.2191 -0.0330  0.9306
   51CHL1  H24A 3763   6.674   4.937   4.619 -0.8989 -0.4019  1.6389
   51CHL1  H24B 3764   6.784   5.065   4.660 -0.1462 -0.4274  0.5533
   51CHL1   C25 3765   6.662   5.009   4.825 -0.4647 -0.2286  0.0523
   51CHL1   H25 3766   6.727   4.927   4.863  1.4308  0.4006 -1.6522
   51CHL1   C26 3767   6.703   5.131   4.904 -0.0138 -0.2156 -0.6811
   51CHL1  H26A 3768   6.801   5.178   4.880 -0.1645  0.4905  0.0350
   51CHL1  H26B 3769   6.640   5.220   4.882 -0.3745 -0.1989  0.3569
   51CHL1  H26C 3770   6.703   5.110   5.013  1.2049  2.4642 -0.0732
   51CHL1   C27 3771   6.513   4.972   4.856 -0.2716  0.0975 -0.1026
   51CHL1  H27A 3772   6.451   5.058   4.824 -1.1867 -0.9100 -1.1709
   51CHL1  H27B 3773   6.476   4.881   4.803  1.0963 -0.8033  0.4247
   51CHL1  H27C 3774   6.522   4.968   4.966 -0.7667  1.0571 -0.0228
   52CHL1    C3 3775   5.676   1.403   3.285  0.3014  0.8388  0.1356
   52CHL1    H3 3776   5.587   1.451   3.333  0.6715 -0.8099  2.6963
   52CHL1    O3 3777   5.659   1.422   3.146 -0.2668  0.0933 -0.0870
   52CHL1   H3' 3778   5.737   1.384   3.105 -1.0016 -0.7971 -0.7272
   52CHL1    C4 3779   5.797   1.491   3.331  0.6664  0.2198 -1.0204
   52CHL1   H4A 3780   5.882   1.474   3.260  2.5848  0.0534  1.1945
   52CHL1   H4B 3781   5.760   1.596   3.333 -0.8056 -0.2100  2.9908
   52CHL1    C5 3782   5.844   1.456   3.476  0.3264 -0.0210  0.0407
   52CHL1    C6 3783   5.851   1.566   3.563 -0.6977 -0.0951 -0.0218
   52CHL1    H6 3784   5.831   1.671   3.538  0.9913  0.5367  1.1160
   52CHL1    C7 3785   5.892   1.551   3.706 -0.8636 -0.1044  0.6843
   52CHL1   H7A 3786   5.967   1.628   3.736  0.3917 -0.4157 -1.4417
   52CHL1   H7B 3787   5.804   1.560   3.773 -1.2451  0.1037  0.1583
   52CHL1    C8 3788   5.956   1.412   3.728  0.1493 -0.0216 -0.9042
   52CHL1    H8 3789   6.065   1.409   3.707  0.9770 -3.0489  2.7605
   52CHL1   C14 3790   5.944   1.388   3.883 -0.8904 -0.7673  0.3559
   52CHL1   H14 3791   5.834   1.400   3.898 -0.9403  3.4188 -1.7298
   52CHL1   C15 3792   6.013   1.492   3.977 -0.1086 -0.3320 -0.2322
   52CHL1  H15A 3793   6.114   1.520   3.942  0.1847 -2.5161 -1.3525
   52CHL1  H15B 3794   5.946   1.579   3.990 -0.4546 -0.7234  0.7685
   52CHL1   C16 3795   6.027   1.422   4.113  0.1249  0.1212 -0.2090
   52CHL1  H16A 3796   6.136   1.423   4.137 -0.0368  2.9221  0.7921
   52CHL1  H16B 3797   5.968   1.473   4.192  0.3229  0.2270 -0.1286
   52CHL1   C17 3798   5.984   1.275   4.098  0.9644 -0.3571 -0.2256
   52CHL1   H17 3799   5.875   1.280   4.123  0.7130 -1.5503 -0.9977
   52CHL1   C13 3800   5.995   1.253   3.939  0.2385 -0.1690 -1.0742
   52CHL1   C18 3801   6.141   1.235   3.902 -0.2350 -0.6355 -0.9636
   52CHL1  H18A 3802   6.166   1.248   3.795  1.1341 -0.5693 -0.6626
   52CHL1  H18B 3803   6.209   1.303   3.958  0.7423 -2.2247 -0.1337
   52CHL1  H18C 3804   6.175   1.130   3.916  1.6603 -0.0239 -0.6701
   52CHL1   C12 3805   5.911   1.146   3.869  0.7034  0.6417 -0.6802
   52CHL1  H12A 3806   5.932   1.045   3.911  0.0523 -0.0413 -1.9389
   52CHL1  H12B 3807   5.809   1.176   3.902  0.4266 -0.7770 -0.1599
   52CHL1   C11 3808   5.928   1.160   3.723  0.0097 -0.6788  0.9167
   52CHL1  H11A 3809   6.029   1.139   3.682 -0.1456 -1.9577  1.1498
   52CHL1  H11B 3810   5.859   1.083   3.684  0.2194 -0.3373 -0.1478
   52CHL1    C9 3811   5.880   1.299   3.665 -0.1109  1.0052 -0.1873
   52CHL1    H9 3812   5.778   1.303   3.708 -0.4512 -2.3689 -0.4071
   52CHL1   C10 3813   5.859   1.312   3.511 -0.0955 -0.7162  0.8061
   52CHL1   C19 3814   5.990   1.254   3.437 -0.4085  0.3069  0.3147
   52CHL1  H19A 3815   6.077   1.314   3.471  0.6333 -0.2520 -1.2549
   52CHL1  H19B 3816   5.991   1.145   3.458 -0.5467  0.5310  1.5642
   52CHL1  H19C 3817   5.976   1.263   3.327 -0.8731 -2.8198  0.0182
   52CHL1    C1 3818   5.732   1.232   3.465  0.3566 -0.0994  0.1848
   52CHL1   H1A 3819   5.744   1.128   3.501 -0.4635  0.2515  1.5871
   52CHL1   H1B 3820   5.648   1.281   3.521 -0.9653  0.4759 -2.1800
   52CHL1    C2 3821   5.697   1.251   3.320  0.3352  0.2927  0.7304
   52CHL1   H2A 3822   5.604   1.196   3.295  0.1753 -0.1239  2.1342
   52CHL1   H2B 3823   5.774   1.208   3.252 -1.7832 -1.6614 -0.5661
   52CHL1   C20 3824   6.063   1.181   4.196  1.1030 -0.1507  0.0790
   52CHL1   H20 3825   6.166   1.171   4.157  1.0156  1.3917 -0.6078
   52CHL1   C21 3826   5.997   1.039   4.182  0.2569 -0.2914  0.3917
   52CHL1  H21A 3827   6.025   0.981   4.092  1.5346  0.0697  0.5472
   52CHL1  H21B 3828   5.888   1.031   4.203  0.3244  1.0062  1.3345
   52CHL1  H21C 3829   6.036   0.973   4.262  1.1356 -1.3607 -0.8889
   52CHL1   C22 3830   6.057   1.242   4.342 -0.1148 -0.0357  0.0889
   52CHL1  H22A 3831   6.092   1.348   4.341  0.5818 -0.2616 -0.4253
   52CHL1  H22B 3832   5.959   1.221   4.390  1.2607 -3.5849  1.6750
   52CHL1   C23 3833   6.166   1.187   4.435  0.5641 -0.8346  0.6174
   52CHL1  H23A 3834   6.145   1.081   4.461 -0.9250 -0.4860  0.9325
   52CHL1  H23B 3835   6.270   1.196   4.396 -0.0724  1.8655 -0.6691
   52CHL1   C24 3836   6.167   1.275   4.565 -0.1518  0.5458  0.0886
   52CHL1  H24A 3837   6.190   1.380   4.537  0.4618  0.6494  0.9556
   52CHL1  H24B 3838   6.058   1.278   4.585 -0.4087 -2.7293 -0.3058
   52CHL1   C25 3839   6.236   1.220   4.688  0.1667 -0.2311 -0.9923
   52CHL1   H25 3840   6.220   1.306   4.756 -1.7499  0.6572 -2.4870
   52CHL1   C26 3841   6.185   1.087   4.745 -0.4012 -0.0686 -0.1213
   52CHL1  H26A 3842   6.074   1.084   4.756 -0.5432  1.2001 -0.9014
   52CHL1  H26B 3843   6.235   1.007   4.686 -2.5363 -0.9003 -0.9264
   52CHL1  H26C 3844   6.223   1.096   4.849  0.1892  1.3730 -0.4342
   52CHL1   C27 3845   6.388   1.211   4.681  0.3616 -0.3674 -0.0127
   52CHL1  H27A 3846   6.419   1.159   4.588  0.9014 -1.3784  0.7148
   52CHL1  H27B 3847   6.430   1.314   4.671 -0.5676 -0.0369 -0.7150
   52CHL1  H27C 3848   6.424   1.166   4.775 -0.7363  0.1737  0.6868
   53CHL1    C3 3849   2.858   4.590   3.549 -1.0133 -1.1793 -0.4293
   53CHL1    H3 3850   2.960   4.559   3.580 -0.5591  0.0450 -0.6385
   53CHL1    O3 3851   2.844   4.559   3.410 -0.0071  0.3592  0.5569
   53CHL1   H3' 3852   2.935   4.540   3.384  0.0170  1.8728 -0.6044
   53CHL1    C4 3853   2.753   4.510   3.622  0.4008  0.4367 -0.1902
   53CHL1   H4A 3854   2.651   4.510   3.578  0.9830  1.6948 -1.6424
   53CHL1   H4B 3855   2.776   4.401   3.614  1.1761  0.6089 -0.4167
   53CHL1    C5 3856   2.746   4.543   3.770  0.4547 -0.7842 -1.0776
   53CHL1    C6 3857   2.757   4.445   3.868 -0.3188  0.1117  0.0633
   53CHL1    H6 3858   2.770   4.341   3.835  3.0823  0.4431  0.0179
   53CHL1    C7 3859   2.737   4.465   4.016 -0.4093  0.0986  0.1027
   53CHL1   H7A 3860   2.666   4.394   4.063  0.7965  0.0648  1.9834
   53CHL1   H7B 3861   2.836   4.447   4.063 -0.7246 -0.3043  0.6292
   53CHL1    C8 3862   2.680   4.605   4.047  0.3006 -0.7288 -0.3920
   53CHL1    H8 3863   2.572   4.608   4.023 -0.1519  1.4272  1.5244
   53CHL1   C14 3864   2.698   4.641   4.196 -0.6270  0.8675  0.3202
   53CHL1   H14 3865   2.807   4.652   4.213 -0.3338 -1.0421 -0.0716
   53CHL1   C15 3866   2.653   4.540   4.299 -0.0505  0.3856  0.4388
   53CHL1  H15A 3867   2.546   4.520   4.274 -0.4598  1.4912  1.2075
   53CHL1  H15B 3868   2.714   4.449   4.313  3.2088  2.3476  0.0607
   53CHL1   C16 3869   2.673   4.626   4.425  0.5781  0.7095 -0.5658
   53CHL1  H16A 3870   2.593   4.611   4.500  1.3516 -1.0321 -0.0459
   53CHL1  H16B 3871   2.768   4.602   4.478 -0.3791 -1.6985  0.1763
   53CHL1   C17 3872   2.678   4.777   4.385  0.2037 -0.1477 -0.2000
   53CHL1   H17 3873   2.786   4.799   4.399  0.8088 -2.8002 -0.0909
   53CHL1   C13 3874   2.637   4.776   4.237 -0.1063  0.2642  0.4880
   53CHL1   C18 3875   2.480   4.778   4.227  0.2449  0.5001  0.6749
   53CHL1  H18A 3876   2.438   4.695   4.288  0.6089 -0.4013 -0.2816
   53CHL1  H18B 3877   2.424   4.870   4.257 -2.6572 -0.3983 -1.5237
   53CHL1  H18C 3878   2.466   4.769   4.118  2.9119  0.3297  0.2787
   53CHL1   C12 3879   2.710   4.889   4.159 -0.1820  0.6317 -0.4220
   53CHL1  H12A 3880   2.664   4.989   4.178 -1.7465  0.0206 -0.8174
   53CHL1  H12B 3881   2.816   4.888   4.193 -0.5876  2.0849  1.0166
   53CHL1   C11 3882   2.704   4.863   4.005  0.1186  0.2944  0.1837
   53CHL1  H11A 3883   2.603   4.889   3.968 -0.9046  0.3290  2.8188
   53CHL1  H11B 3884   2.787   4.920   3.959  1.8546 -0.3512  2.3413
   53CHL1    C9 3885   2.741   4.716   3.961  0.0229 -0.3386 -0.2635
   53CHL1    H9 3886   2.851   4.706   3.971 -0.0873 -1.1067  0.2755
   53CHL1   C10 3887   2.715   4.691   3.804  0.9375 -0.1385  0.5066
   53CHL1   C19 3888   2.572   4.725   3.759 -0.5554  0.0236  0.3608
   53CHL1  H19A 3889   2.566   4.835   3.746  3.9602  0.1669 -2.9563
   53CHL1  H19B 3890   2.542   4.703   3.654 -0.9774  0.9934  0.2678
   53CHL1  H19C 3891   2.497   4.688   3.832  0.8770  0.7105  2.2794
   53CHL1    C1 3892   2.821   4.764   3.721  0.2329  0.2263  0.2959
   53CHL1   H1A 3893   2.807   4.874   3.727 -0.0179  0.3284 -1.4708
   53CHL1   H1B 3894   2.918   4.742   3.771  0.1920 -0.8330 -0.0745
   53CHL1    C2 3895   2.834   4.736   3.570  0.1413  0.1327  0.6817
   53CHL1   H2A 3896   2.910   4.800   3.521 -0.0470 -0.8216 -0.9201
   53CHL1   H2B 3897   2.738   4.753   3.516  0.4682  0.8550  0.3148
   53CHL1   C20 3898   2.603   4.865   4.490 -0.7082  0.2524 -0.0976
   53CHL1   H20 3899   2.497   4.833   4.483 -0.7762 -0.8775  3.5476
   53CHL1   C21 3900   2.624   5.013   4.453  0.2394 -0.6529 -0.0879
   53CHL1  H21A 3901   2.589   5.047   4.353 -1.1327 -0.5011  0.4236
   53CHL1  H21B 3902   2.734   5.025   4.459  0.1339  0.0254  0.4927
   53CHL1  H21C 3903   2.566   5.077   4.522  3.1608  0.4332  1.5345
   53CHL1   C22 3904   2.655   4.841   4.639  0.1720 -0.2095  0.9149
   53CHL1  H22A 3905   2.638   4.733   4.661  2.4564 -1.4506 -2.6471
   53CHL1  H22B 3906   2.765   4.855   4.640  0.3655 -1.3396 -0.9663
   53CHL1   C23 3907   2.594   4.922   4.743 -0.3517 -0.1619  0.4136
   53CHL1  H23A 3908   2.630   5.027   4.737  1.9115 -0.7666  1.8620
   53CHL1  H23B 3909   2.483   4.928   4.741 -0.3092  0.6205 -0.6916
   53CHL1   C24 3910   2.629   4.864   4.884  0.0653  0.0495 -0.4232
   53CHL1  H24A 3911   2.588   4.760   4.888  1.5564 -0.5482  0.7701
   53CHL1  H24B 3912   2.740   4.864   4.892  0.3498 -0.3117 -3.3917
   53CHL1   C25 3913   2.573   4.940   5.007  0.2260 -0.2133  0.7191
   53CHL1   H25 3914   2.601   4.882   5.097  1.1432  2.0050  1.9402
   53CHL1   C26 3915   2.628   5.085   5.017  0.2509 -0.1149 -0.2707
   53CHL1  H26A 3916   2.618   5.123   5.121  0.0193 -0.3435 -0.2098
   53CHL1  H26B 3917   2.737   5.076   4.998 -0.0747  0.0422 -2.4815
   53CHL1  H26C 3918   2.575   5.154   4.948 -0.2433  1.0864  1.2320
   53CHL1   C27 3919   2.424   4.946   5.001 -0.3367 -0.2084 -0.0538
   53CHL1  H27A 3920   2.377   4.970   5.098  0.4697  1.9285 -0.1334
   53CHL1  H27B 3921   2.376   5.015   4.927 -1.7491 -0.8167  0.2509
   53CHL1  H27C 3922   2.383   4.844   4.985 -1.2570  0.5293 -3.2085
   54CHL1    C3 3923   6.681   5.189   3.391 -0.4078  0.1571  0.8252
   54CHL1    H3 3924   6.616   5.107   3.429  0.0986 -0.9415 -0.5757
   54CHL1    O3 3925   6.675   5.176   3.249 -0.9510  0.1020 -0.2834
   54CHL1   H3' 3926   6.749   5.223   3.212  0.1616 -1.3282  0.0211
   54CHL1    C4 3927   6.643   5.327   3.440 -0.0853 -0.1778  0.0346
   54CHL1   H4A 3928   6.702   5.409   3.393  2.3861 -0.0161  3.1052
   54CHL1   H4B 3929   6.540   5.336   3.398 -0.6109 -0.9277  1.1249
   54CHL1    C5 3930   6.646   5.326   3.589 -0.5155 -0.3252  0.1324
   54CHL1    C6 3931   6.542   5.347   3.672  0.6053  0.4293 -0.7615
   54CHL1    H6 3932   6.441   5.374   3.636  0.1409  4.0446  2.5410
   54CHL1    C7 3933   6.549   5.362   3.817  0.3807 -0.2174  0.1977
   54CHL1   H7A 3934   6.484   5.447   3.849  1.3380  0.6616 -0.1493
   54CHL1   H7B 3935   6.524   5.270   3.875  0.6118  0.4598  1.3920
   54CHL1    C8 3936   6.697   5.402   3.861 -0.6078  0.0519 -0.7287
   54CHL1    H8 3937   6.732   5.502   3.828 -0.9199  0.4129  0.0212
   54CHL1   C14 3938   6.710   5.397   4.014 -0.0773 -0.0050  0.2979
   54CHL1   H14 3939   6.679   5.295   4.048  0.1218 -0.3932 -0.6665
   54CHL1   C15 3940   6.623   5.490   4.100  0.7953 -0.5104 -0.2077
   54CHL1  H15A 3941   6.628   5.593   4.057  1.9589  0.2405  1.6135
   54CHL1  H15B 3942   6.516   5.463   4.113  0.9871 -0.7560  0.9918
   54CHL1   C16 3943   6.699   5.506   4.236 -0.8103  0.3774  0.5593
   54CHL1  H16A 3944   6.739   5.606   4.263  2.6953 -0.9796  0.9441
   54CHL1  H16B 3945   6.624   5.483   4.315 -1.4998  1.7063  0.3137
   54CHL1   C17 3946   6.822   5.412   4.225  0.2238 -0.9629  0.3157
   54CHL1   H17 3947   6.788   5.308   4.246  1.0278 -1.1204  0.8933
   54CHL1   C13 3948   6.849   5.414   4.073 -0.0220  0.0866 -0.1250
   54CHL1   C18 3949   6.898   5.554   4.035  0.4208  0.7851 -0.4543
   54CHL1  H18A 3950   6.917   5.555   3.925  0.8747 -0.3859 -0.4047
   54CHL1  H18B 3951   6.828   5.638   4.054 -0.3089  0.3025 -0.9433
   54CHL1  H18C 3952   6.990   5.580   4.091  1.2040  0.2812 -1.4729
   54CHL1   C12 3953   6.934   5.293   4.019  0.1651  0.1693  0.3481
   54CHL1  H12A 3954   7.039   5.303   4.053  0.5015 -1.4553 -0.1141
   54CHL1  H12B 3955   6.893   5.200   4.064 -1.6141  0.7534  0.0302
   54CHL1   C11 3956   6.938   5.289   3.864 -0.2832 -0.0767 -0.2470
   54CHL1  H11A 3957   6.987   5.380   3.824 -3.0408  1.4704 -0.3881
   54CHL1  H11B 3958   6.981   5.191   3.833  1.1181  0.2124  0.7068
   54CHL1    C9 3959   6.794   5.302   3.797 -0.3460 -0.1831 -0.5907
   54CHL1    H9 3960   6.745   5.205   3.823 -2.0897  0.6386 -0.6852
   54CHL1   C10 3961   6.789   5.301   3.642  0.6604 -0.2771 -0.7085
   54CHL1   C19 3962   6.882   5.413   3.588  0.4979  0.0484 -0.2951
   54CHL1  H19A 3963   6.898   5.433   3.480 -0.2967 -1.3832 -0.7005
   54CHL1  H19B 3964   6.861   5.505   3.647  0.5252  1.3067 -2.1728
   54CHL1  H19C 3965   6.984   5.378   3.617  0.3908 -0.2185 -0.2398
   54CHL1    C1 3966   6.845   5.170   3.591  0.7556  0.3467 -0.3018
   54CHL1   H1A 3967   6.956   5.173   3.601  0.9419  0.9782 -2.0492
   54CHL1   H1B 3968   6.807   5.074   3.632  1.1565  0.3228  0.0275
   54CHL1    C2 3969   6.826   5.148   3.436 -1.1290 -0.3521  0.2021
   54CHL1   H2A 3970   6.837   5.041   3.409 -1.7435 -0.4640  0.3814
   54CHL1   H2B 3971   6.898   5.207   3.376 -1.2625  0.7489  1.0846
   54CHL1   C20 3972   6.930   5.443   4.321 -0.0906 -0.1151  0.1370
   54CHL1   H20 3973   6.998   5.517   4.273 -0.2415 -0.0429  0.0349
   54CHL1   C21 3974   7.006   5.319   4.359  0.3169 -0.0446  0.5858
   54CHL1  H21A 3975   6.936   5.253   4.414 -0.7647  0.9361  0.4106
   54CHL1  H21B 3976   7.091   5.331   4.429  0.5902  0.9694  0.1114
   54CHL1  H21C 3977   7.040   5.265   4.268 -1.4487  0.9889 -0.7499
   54CHL1   C22 3978   6.889   5.525   4.444 -0.1992  0.1431  0.0812
   54CHL1  H22A 3979   6.870   5.631   4.418 -1.8091  0.1626  1.1634
   54CHL1  H22B 3980   6.796   5.479   4.484 -0.7049  1.0296 -0.0564
   54CHL1   C23 3981   6.990   5.524   4.564  0.0037  0.5397  0.1256
   54CHL1  H23A 3982   6.986   5.422   4.610  0.0764 -0.0876 -1.2136
   54CHL1  H23B 3983   7.087   5.556   4.522 -0.9204 -1.0416 -3.6367
   54CHL1   C24 3984   6.947   5.621   4.679 -0.2546  0.0534  0.1477
   54CHL1  H24A 3985   6.942   5.721   4.630  2.5503  0.5043  0.6234
   54CHL1  H24B 3986   6.852   5.592   4.730 -1.2557 -1.4951 -2.3572
   54CHL1   C25 3987   7.065   5.632   4.780 -0.2138 -0.1500 -0.1487
   54CHL1   H25 3988   7.153   5.668   4.722  0.5007  1.3866  1.7935
   54CHL1   C26 3989   7.040   5.740   4.890 -0.1420 -0.3437  0.2146
   54CHL1  H26A 3990   7.031   5.840   4.843  1.4448 -0.6212 -0.7552
   54CHL1  H26B 3991   6.949   5.710   4.947 -1.1511  2.2718  0.0749
   54CHL1  H26C 3992   7.122   5.746   4.965 -0.6138  3.8544  0.6063
   54CHL1   C27 3993   7.102   5.492   4.835 -0.5529 -0.3533 -0.0027
   54CHL1  H27A 3994   7.010   5.444   4.875 -0.3244  1.2482  2.7748
   54CHL1  H27B 3995   7.149   5.425   4.761 -2.4221 -0.4274 -1.1746
   54CHL1  H27C 3996   7.162   5.519   4.925 -0.2031  0.1037 -0.3688
   55CHL1    C3 3997   6.422   0.608   3.318  0.0432  0.5316  0.6888
   55CHL1    H3 3998   6.356   0.693   3.344 -2.6217  0.5149 -4.6435
   55CHL1    O3 3999   6.400   0.594   3.180 -0.0089 -0.2681  0.2727
   55CHL1   H3' 4000   6.438   0.511   3.148  0.5574  0.3622 -0.7673
   55CHL1    C4 4001   6.570   0.639   3.342  0.2969 -1.0597 -0.6644
   55CHL1   H4A 4002   6.639   0.566   3.295  1.5816 -0.0997 -0.3402
   55CHL1   H4B 4003   6.607   0.729   3.288 -0.7224  0.2166  0.6711
   55CHL1    C5 4004   6.591   0.652   3.493  0.0377  0.1053  0.3918
   55CHL1    C6 4005   6.648   0.758   3.549  0.4462 -0.0271 -0.5341
   55CHL1    H6 4006   6.668   0.843   3.483 -2.4087  0.6552 -0.6457
   55CHL1    C7 4007   6.676   0.774   3.699  0.5230  0.2854  0.2233
   55CHL1   H7A 4008   6.771   0.831   3.713  0.7979  0.2207 -1.2802
   55CHL1   H7B 4009   6.592   0.831   3.743 -0.8438 -0.2303 -1.5965
   55CHL1    C8 4010   6.698   0.631   3.757 -0.2908  0.2027  0.8293
   55CHL1    H8 4011   6.791   0.605   3.702  0.1325  1.4025  0.9617
   55CHL1   C14 4012   6.699   0.634   3.913  0.2680 -0.0378 -0.3895
   55CHL1   H14 4013   6.596   0.662   3.942 -0.2274 -0.9828 -1.2030
   55CHL1   C15 4014   6.799   0.736   3.978  0.1373  0.2130  0.1683
   55CHL1  H15A 4015   6.897   0.737   3.927  0.2275  0.0804  0.3344
   55CHL1  H15B 4016   6.749   0.835   3.977  0.3355  0.3110 -0.1006
   55CHL1   C16 4017   6.809   0.677   4.121 -0.1018 -0.3899 -0.0463
   55CHL1  H16A 4018   6.915   0.662   4.152  0.0208  1.1428  0.3441
   55CHL1  H16B 4019   6.770   0.758   4.186  0.0217  0.2129 -0.7032
   55CHL1   C17 4020   6.732   0.543   4.128  0.6499  0.4623  0.1066
   55CHL1   H17 4021   6.630   0.575   4.158  0.3295 -0.6390  0.2396
   55CHL1   C13 4022   6.721   0.500   3.983 -0.4303 -0.0104  0.6197
   55CHL1   C18 4023   6.852   0.434   3.931 -0.3151  0.2991 -0.0284
   55CHL1  H18A 4024   6.849   0.418   3.821 -1.2160 -1.4165  0.2200
   55CHL1  H18B 4025   6.943   0.495   3.951 -0.1811  0.4996 -1.1815
   55CHL1  H18C 4026   6.868   0.332   3.973  0.2098  0.7651  0.9593
   55CHL1   C12 4027   6.603   0.399   3.956  1.0530 -0.2615 -0.4138
   55CHL1  H12A 4028   6.621   0.292   3.980 -1.7193 -1.2331 -2.2003
   55CHL1  H12B 4029   6.512   0.447   3.997  1.2417  2.2708 -2.6613
   55CHL1   C11 4030   6.585   0.400   3.805  0.3919  0.4110 -0.5849
   55CHL1  H11A 4031   6.661   0.333   3.759  1.4498  0.2439  1.3038
   55CHL1  H11B 4032   6.488   0.348   3.787  0.6154  0.1431 -1.0466
   55CHL1    C9 4033   6.581   0.537   3.721 -0.2608  0.2694  0.4221
   55CHL1    H9 4034   6.488   0.584   3.761 -0.1989  1.2837 -0.5914
   55CHL1   C10 4035   6.555   0.525   3.566  0.0536  0.0826  0.2031
   55CHL1   C19 4036   6.647   0.410   3.515 -0.4188 -0.0955  0.0322
   55CHL1  H19A 4037   6.633   0.311   3.564  0.0645  0.7018  1.8553
   55CHL1  H19B 4038   6.646   0.394   3.405  0.7051 -0.3944  0.0585
   55CHL1  H19C 4039   6.752   0.439   3.536 -0.8174  2.6471 -1.4104
   55CHL1    C1 4040   6.412   0.481   3.535 -0.1672 -0.3771  0.1198
   55CHL1   H1A 4041   6.392   0.384   3.586  1.8917  0.6465  3.1492
   55CHL1   H1B 4042   6.338   0.546   3.586  0.7509  0.5627  0.2916
   55CHL1    C2 4043   6.379   0.477   3.387 -0.0607  0.7237 -0.0362
   55CHL1   H2A 4044   6.268   0.479   3.382 -0.0866  2.7287  0.3915
   55CHL1   H2B 4045   6.415   0.383   3.341  1.5490  1.2655  0.0645
   55CHL1   C20 4046   6.794   0.448   4.234 -0.7250 -0.6498  0.0826
   55CHL1   H20 4047   6.905   0.444   4.232 -0.5230  2.5944 -1.3624
   55CHL1   C21 4048   6.728   0.310   4.233 -0.4876 -0.2579 -0.4155
   55CHL1  H21A 4049   6.621   0.300   4.205 -0.5648 -2.6038  0.5023
   55CHL1  H21B 4050   6.744   0.255   4.328  0.5154 -1.0221 -1.0059
   55CHL1  H21C 4051   6.774   0.237   4.162 -1.3235 -0.3609 -0.8695
   55CHL1   C22 4052   6.771   0.512   4.373 -0.7721  0.4761 -0.1751
   55CHL1  H22A 4053   6.734   0.617   4.375 -1.2744  0.3049  1.9807
   55CHL1  H22B 4054   6.699   0.450   4.432  0.9262 -1.0549  0.3629
   55CHL1   C23 4055   6.902   0.519   4.459  0.3146 -0.2978 -0.3872
   55CHL1  H23A 4056   6.988   0.547   4.395  0.5392  0.0524  0.0642
   55CHL1  H23B 4057   6.888   0.597   4.536  0.3688 -0.3975 -0.2754
   55CHL1   C24 4058   6.937   0.378   4.510  0.0436  0.7042 -0.1346
   55CHL1  H24A 4059   6.842   0.326   4.534  1.1195 -0.1653  2.6701
   55CHL1  H24B 4060   6.980   0.327   4.422  0.7134  0.3245  0.3972
   55CHL1   C25 4061   7.032   0.378   4.632  0.3507 -0.4052  0.2820
   55CHL1   H25 4062   6.972   0.409   4.720 -0.1069  1.2578 -0.5817
   55CHL1   C26 4063   7.091   0.240   4.654 -0.3058  0.0282  0.0595
   55CHL1  H26A 4064   7.125   0.224   4.759 -0.1649 -5.5709 -0.5273
   55CHL1  H26B 4065   7.016   0.161   4.634  1.4600 -1.4197 -1.0802
   55CHL1  H26C 4066   7.177   0.216   4.589 -1.2972 -0.7213 -1.0129
   55CHL1   C27 4067   7.139   0.486   4.616 -0.2107 -0.1591  0.7332
   55CHL1  H27A 4068   7.187   0.476   4.517  0.9343 -1.6002  1.3862
   55CHL1  H27B 4069   7.086   0.583   4.603 -1.5962 -0.8238  1.1691
   55CHL1  H27C 4070   7.208   0.488   4.703 -1.3217  0.2598  1.6311
   56CHL1    C3 4071   5.719   5.482   3.678 -0.0952 -0.6563  0.4486
   56CHL1    H3 4072   5.620   5.441   3.648 -1.6634 -0.0344  4.1704
   56CHL1    O3 4073   5.801   5.485   3.564 -0.0093  0.1933 -0.8684
   56CHL1   H3' 4074   5.766   5.548   3.501  1.3968 -0.4103 -2.3405
   56CHL1    C4 4075   5.708   5.629   3.727  0.1482 -0.4229  0.3285
   56CHL1   H4A 4076   5.814   5.658   3.743  0.6232 -2.4767  1.1845
   56CHL1   H4B 4077   5.646   5.684   3.653 -0.7921 -2.5423 -0.5436
   56CHL1    C5 4078   5.632   5.632   3.857 -0.0135 -0.5707 -0.5702
   56CHL1    C6 4079   5.514   5.694   3.872  0.4285 -0.1661  0.5070
   56CHL1    H6 4080   5.471   5.741   3.782 -0.2047 -2.0321 -0.1953
   56CHL1    C7 4081   5.433   5.700   3.997  0.3896 -0.7367  1.1758
   56CHL1   H7A 4082   5.379   5.796   4.011 -0.5708 -0.8946 -0.9825
   56CHL1   H7B 4083   5.363   5.615   3.985  0.0115 -0.4472  1.3456
   56CHL1    C8 4084   5.530   5.670   4.116 -0.5638 -0.6853 -0.6759
   56CHL1    H8 4085   5.581   5.769   4.123  0.8247 -1.3145 -1.3515
   56CHL1   C14 4086   5.444   5.651   4.240 -0.0602 -0.0975  0.3020
   56CHL1   H14 4087   5.384   5.559   4.228 -2.1707  1.1038  1.0588
   56CHL1   C15 4088   5.326   5.753   4.254  0.1192  0.0706 -0.0703
   56CHL1  H15A 4089   5.355   5.857   4.230  0.7730 -0.0025  0.3587
   56CHL1  H15B 4090   5.244   5.717   4.189  0.1914 -0.3582  0.0667
   56CHL1   C16 4091   5.298   5.742   4.401  0.0008 -0.1561  0.0385
   56CHL1  H16A 4092   5.311   5.846   4.440 -1.5432  0.1470 -0.1793
   56CHL1  H16B 4093   5.193   5.712   4.420 -1.1416  0.8288 -3.8290
   56CHL1   C17 4094   5.395   5.633   4.459 -0.5265  0.0563 -0.5286
   56CHL1   H17 4095   5.353   5.533   4.438  2.7963 -2.2133  2.4953
   56CHL1   C13 4096   5.518   5.636   4.365 -0.2036 -0.4680 -0.1997
   56CHL1   C18 4097   5.592   5.768   4.398 -0.1754  0.5529  0.1260
   56CHL1  H18A 4098   5.667   5.792   4.320  0.9213  0.5118  1.1542
   56CHL1  H18B 4099   5.520   5.851   4.382 -1.4506 -0.5730 -0.1946
   56CHL1  H18C 4100   5.635   5.781   4.500  1.3263 -1.9270 -0.1102
   56CHL1   C12 4101   5.614   5.515   4.356  0.0478  0.1440 -0.0841
   56CHL1  H12A 4102   5.667   5.481   4.448 -0.5831  1.1307  0.6557
   56CHL1  H12B 4103   5.549   5.429   4.326 -1.3712  0.6697  1.3197
   56CHL1   C11 4104   5.709   5.530   4.236 -0.2871  0.3615  0.4226
   56CHL1  H11A 4105   5.783   5.612   4.248  0.0672  0.0075  0.6646
   56CHL1  H11B 4106   5.765   5.435   4.224 -0.0876  0.5594 -0.2901
   56CHL1    C9 4107   5.630   5.559   4.108  0.8112 -0.0835 -0.1567
   56CHL1    H9 4108   5.568   5.468   4.091  0.4143  0.3644 -1.2102
   56CHL1   C10 4109   5.708   5.567   3.971  0.3973  1.2143 -0.2548
   56CHL1   C19 4110   5.838   5.643   3.999  0.0011  0.1968 -0.2824
   56CHL1  H19A 4111   5.902   5.651   3.909 -2.3803  0.2657 -2.0534
   56CHL1  H19B 4112   5.816   5.743   4.044  0.7677  0.8812 -1.3880
   56CHL1  H19C 4113   5.902   5.591   4.073  1.9490  0.3141 -1.8201
   56CHL1    C1 4114   5.732   5.413   3.923 -0.2415  0.3716  0.4729
   56CHL1   H1A 4115   5.798   5.366   3.998 -1.3089 -0.0522  1.1816
   56CHL1   H1B 4116   5.631   5.365   3.923  0.1821 -0.5286  0.0742
   56CHL1    C2 4117   5.796   5.404   3.780 -0.4800  0.6223 -0.4274
   56CHL1   H2A 4118   5.792   5.296   3.756 -0.9411  0.8150 -1.2366
   56CHL1   H2B 4119   5.903   5.434   3.785 -0.5175  0.9491 -1.4924
   56CHL1   C20 4120   5.420   5.638   4.612 -0.1353 -0.7389  0.6092
   56CHL1   H20 4121   5.484   5.726   4.635 -0.3793 -0.3129 -0.3054
   56CHL1   C21 4122   5.484   5.504   4.648 -1.3032 -0.5160 -0.4297
   56CHL1  H21A 4123   5.595   5.516   4.652 -1.3349 -0.6047  1.0967
   56CHL1  H21B 4124   5.476   5.421   4.575 -1.1892 -1.5627  0.7170
   56CHL1  H21C 4125   5.460   5.472   4.751 -0.9991 -0.5626 -0.3730
   56CHL1   C22 4126   5.286   5.686   4.687  0.2251  0.1837 -0.2871
   56CHL1  H22A 4127   5.273   5.793   4.658  1.5226  0.4207 -0.0661
   56CHL1  H22B 4128   5.197   5.622   4.672 -0.3679  0.6945  0.8951
   56CHL1   C23 4129   5.320   5.683   4.839 -0.0956 -0.2359 -0.7219
   56CHL1  H23A 4130   5.312   5.581   4.882  0.0817  0.9987  2.5347
   56CHL1  H23B 4131   5.420   5.728   4.856 -0.6157  0.9429 -0.7028
   56CHL1   C24 4132   5.221   5.775   4.913 -0.5737  0.2922  0.5985
   56CHL1  H24A 4133   5.218   5.873   4.861 -2.2516 -0.9795 -1.8693
   56CHL1  H24B 4134   5.121   5.729   4.904 -0.2052 -0.2874 -0.8099
   56CHL1   C25 4135   5.228   5.796   5.066 -0.1314  0.6170 -0.1151
   56CHL1   H25 4136   5.131   5.841   5.096 -1.7815 -2.8517  0.1597
   56CHL1   C26 4137   5.255   5.670   5.147  0.8884  0.6096  0.0138
   56CHL1  H26A 4138   5.170   5.598   5.154 -1.2913  3.0371 -0.1396
   56CHL1  H26B 4139   5.345   5.614   5.115 -0.6341 -4.1364  2.9752
   56CHL1  H26C 4140   5.282   5.689   5.253  1.7931  0.0549 -0.1022
   56CHL1   C27 4141   5.329   5.910   5.099  0.2380  0.1482 -0.2707
   56CHL1  H27A 4142   5.429   5.869   5.074 -0.3342 -2.0076  0.7687
   56CHL1  H27B 4143   5.301   6.005   5.048 -2.1737  0.2968  1.1420
   56CHL1  H27C 4144   5.337   5.926   5.208  0.9738 -1.2798 -0.0965
   57SAPC     N 4145   4.228   1.118   7.535 -0.6131  0.2243 -0.4826
   57SAPC   C12 4146   4.176   1.050   7.413  0.5796 -1.4910  0.2907
   57SAPC  H12A 4147   4.069   1.038   7.421  0.5377 -1.3497 -0.0570
   57SAPC  H12B 4148   4.214   0.949   7.414  1.6214 -1.1144 -0.2022
   57SAPC   C13 4149   4.189   1.263   7.548  0.2542 -0.5148  0.2380
   57SAPC  H13A 4150   4.228   1.306   7.638 -2.7506 -1.3642  2.1034
   57SAPC  H13B 4151   4.224   1.315   7.460 -2.0008 -0.3672 -0.6420
   57SAPC  H13C 4152   4.081   1.272   7.551  0.4375  2.1239  1.4565
   57SAPC   C14 4153   4.183   1.043   7.664  0.0937 -0.4905  0.4108
   57SAPC  H14A 4154   4.231   0.947   7.673 -0.4383 -0.9023 -0.8499
   57SAPC  H14B 4155   4.219   1.099   7.749  0.9832  1.3384 -1.0738
   57SAPC  H14C 4156   4.077   1.022   7.661 -0.5461  2.3901 -2.3620
   57SAPC   C15 4157   4.383   1.118   7.537  0.3137 -0.2453 -0.3442
   57SAPC  H15A 4158   4.419   1.164   7.446 -1.7504  1.3229 -0.4546
   57SAPC  H15B 4159   4.419   1.169   7.624  0.8792 -0.7041 -0.3073
   57SAPC  H15C 4160   4.427   1.021   7.551  0.3117 -0.0722  1.0122
   57SAPC   C11 4161   4.204   1.124   7.274  0.1147 -0.1042 -0.5354
   57SAPC  H11A 4162   4.156   1.223   7.290 -1.2744 -1.2004  3.3236
   57SAPC  H11B 4163   4.138   1.081   7.196 -2.7082  1.8211  0.6401
   57SAPC     P 4164   4.416   1.015   7.174 -0.1986 -0.3683 -0.2074
   57SAPC   O13 4165   4.547   0.975   7.229  0.0270 -0.3059  0.7349
   57SAPC   O14 4166   4.323   0.899   7.164 -0.2188 -0.1119  0.5115
   57SAPC   O12 4167   4.341   1.136   7.251 -0.4178  0.0994 -0.4581
   57SAPC   O11 4168   4.443   1.081   7.039  0.2236  0.3775  0.1350
   57SAPC    C1 4169   4.339   1.145   6.960  0.4240 -0.8335 -0.0650
   57SAPC    HA 4170   4.325   1.096   6.861  0.5385 -0.8155 -0.0907
   57SAPC    HB 4171   4.236   1.139   7.002  1.0752 -0.5735  1.6601
   57SAPC    C2 4172   4.385   1.290   6.934 -0.4052  0.4500  0.4154
   57SAPC    HS 4173   4.396   1.328   7.038 -0.1126 -3.3142  1.9276
   57SAPC   O21 4174   4.287   1.367   6.858 -0.5842  0.0250 -0.3536
   57SAPC   C21 4175   4.301   1.496   6.867  0.3765  0.3865 -0.0129
   57SAPC   O22 4176   4.371   1.556   6.945 -0.3427 -0.3164  0.5732
   57SAPC   C22 4177   4.208   1.562   6.768  0.2851 -0.5206 -0.2504
   57SAPC   H2R 4178   4.105   1.531   6.795  0.6444 -0.2210  1.5775
   57SAPC   H2S 4179   4.219   1.670   6.792 -0.0846 -0.7577  1.0981
   57SAPC    C3 4180   4.523   1.286   6.852 -0.5252  0.0072  0.4561
   57SAPC    HX 4181   4.604   1.241   6.913  0.0428 -0.0204 -0.3056
   57SAPC    HY 4182   4.544   1.394   6.840 -0.4844 -0.0982 -0.4523
   57SAPC   O31 4183   4.519   1.216   6.723  0.0553 -0.4151 -0.4003
   57SAPC   C31 4184   4.630   1.234   6.654  0.1316 -0.2985 -0.5708
   57SAPC   O32 4185   4.727   1.295   6.693  0.2051  0.4085  0.2665
   57SAPC   C32 4186   4.611   1.147   6.530 -0.3482 -0.3907 -0.1277
   57SAPC   H2X 4187   4.552   1.060   6.567 -0.3312 -0.2636  0.1966
   57SAPC   H2Y 4188   4.710   1.107   6.497 -0.7897 -1.5562 -0.0940
   57SAPC   C23 4189   4.240   1.518   6.622  0.2568  0.4435 -1.0160
   57SAPC   H3R 4190   4.150   1.534   6.558 -0.7774  1.4818  0.5918
   57SAPC   H3S 4191   4.256   1.409   6.616 -1.3357  0.0975  0.1756
   57SAPC   C24 4192   4.344   1.595   6.544  0.1358  0.2585  0.0891
   57SAPC   H4R 4193   4.312   1.700   6.557  1.3742  0.8738 -1.4954
   57SAPC   H4S 4194   4.346   1.558   6.440 -0.7253  0.1240  0.1186
   57SAPC   C25 4195   4.493   1.580   6.591  1.1227 -0.8052  0.4366
   57SAPC   H5R 4196   4.524   1.476   6.606 -0.9091 -1.1611  2.6764
   57SAPC   C26 4197   4.570   1.688   6.625 -0.0174 -0.0111 -0.8633
   57SAPC   H6R 4198   4.676   1.664   6.640 -0.2335 -0.5855 -0.1828
   57SAPC   C27 4199   4.539   1.834   6.612  0.2315  0.2580 -0.5026
   57SAPC   H7R 4200   4.504   1.880   6.707 -0.7929  2.0478 -1.6745
   57SAPC   H7S 4201   4.452   1.851   6.544  2.4041  1.1269 -3.2406
   57SAPC   C28 4202   4.661   1.911   6.570  0.4590 -0.1406 -0.2476
   57SAPC   H8R 4203   4.704   1.963   6.657 -1.5227  1.1068  0.0747
   57SAPC   C29 4204   4.710   1.931   6.446  0.4650  0.2677  0.0662
   57SAPC   H9R 4205   4.801   1.992   6.435  0.8519 -0.1779  0.7429
   57SAPC  C210 4206   4.667   1.856   6.329  0.2565 -0.2687  0.1170
   57SAPC  H10R 4207   4.668   1.930   6.247  0.0378 -1.3743 -0.9213
   57SAPC  H10S 4208   4.563   1.818   6.342 -0.7690  2.1012 -0.6627
   57SAPC  C211 4209   4.759   1.739   6.308 -0.0483 -0.1943 -0.3837
   57SAPC  H11R 4210   4.783   1.693   6.405 -1.2569  0.5714  0.3020
   57SAPC  C212 4211   4.820   1.710   6.191 -0.0380 -0.0869 -0.3672
   57SAPC  H12R 4212   4.884   1.621   6.183  0.9088  0.6650 -1.6432
   57SAPC  C213 4213   4.796   1.761   6.057  0.1754  0.1930  0.1082
   57SAPC  H13R 4214   4.897   1.763   6.010 -0.0393 -0.7531 -0.4195
   57SAPC  H13S 4215   4.751   1.862   6.055 -2.1756 -0.7416  1.7700
   57SAPC  C214 4216   4.708   1.661   5.984 -0.2320 -1.1246  0.2423
   57SAPC  H14R 4217   4.640   1.605   6.050 -1.9597  2.3704  1.7386
   57SAPC  C215 4218   4.700   1.644   5.851 -0.0099 -0.2496  0.3268
   57SAPC  H15R 4219   4.613   1.591   5.808 -0.0053 -1.5728  1.8368
   57SAPC  C216 4220   4.784   1.720   5.756 -0.2827  0.0801  0.1186
   57SAPC  H16R 4221   4.807   1.820   5.800  0.0936 -1.4783  3.8970
   57SAPC  H16S 4222   4.724   1.739   5.665 -0.0780  1.4294  0.2335
   57SAPC  C217 4223   4.906   1.642   5.699 -0.4471  0.0120  0.5376
   57SAPC  H17R 4224   4.876   1.536   5.687 -0.9301 -0.1191  2.4657
   57SAPC  H17S 4225   4.985   1.642   5.778  0.7577 -0.7173 -0.6288
   57SAPC  C218 4226   4.983   1.701   5.580 -0.3320  0.2825 -0.5502
   57SAPC  H18R 4227   5.085   1.659   5.563 -0.6162 -0.7783  0.2925
   57SAPC  H18S 4228   4.998   1.806   5.613  0.6116  0.4001 -1.2839
   57SAPC  C219 4229   4.910   1.676   5.446  0.1214 -0.3629  0.0083
   57SAPC  H19R 4230   4.801   1.700   5.453 -0.2315 -1.7648 -0.2272
   57SAPC  H19S 4231   4.906   1.568   5.419  0.0643  0.2574 -2.6992
   57SAPC  C220 4232   4.963   1.754   5.324  0.3696 -0.4986 -0.0081
   57SAPC  H20R 4233   4.922   1.720   5.226  0.4175  1.1359 -0.6403
   57SAPC  H20S 4234   5.074   1.749   5.321  0.3433 -1.8171  0.7814
   57SAPC  H20T 4235   4.937   1.862   5.325 -0.3891 -0.6765  0.2114
   57SAPC   C33 4236   4.544   1.227   6.419  0.3407 -0.1741  0.0575
   57SAPC   H3X 4237   4.464   1.298   6.449 -0.7147 -1.3475  0.0946
   57SAPC   H3Y 4238   4.495   1.155   6.350 -3.3429  1.0318  1.2293
   57SAPC   C34 4239   4.660   1.300   6.340  0.1726 -0.3875  0.2897
   57SAPC   H4X 4240   4.733   1.228   6.297 -0.2686  0.8141 -2.7236
   57SAPC   H4Y 4241   4.719   1.369   6.404 -0.8470  0.2310  0.6059
   57SAPC   C35 4242   4.603   1.386   6.229  0.7836  0.6254  0.6861
   57SAPC   H5X 4243   4.684   1.431   6.167  0.3848 -1.7124 -1.6958
   57SAPC   H5Y 4244   4.533   1.462   6.271  0.6288 -0.8609  3.3130
   57SAPC   C36 4245   4.513   1.309   6.129  0.1267 -0.3333 -0.9560
   57SAPC   H6X 4246   4.419   1.273   6.177  0.3854 -0.7684 -0.7666
   57SAPC   H6Y 4247   4.568   1.213   6.115  0.8128 -0.0162 -0.5062
   57SAPC   C37 4248   4.495   1.380   5.998  0.0099 -0.6220  0.3808
   57SAPC   H7X 4249   4.601   1.402   5.971 -0.2321  0.7509  0.4717
   57SAPC   H7Y 4250   4.447   1.479   6.015  0.0044 -0.7883  1.3875
   57SAPC   C38 4251   4.422   1.301   5.886 -0.4034 -0.1316  0.0167
   57SAPC   H8X 4252   4.321   1.280   5.928  0.8708  0.3481  3.6492
   57SAPC   H8Y 4253   4.481   1.207   5.883 -2.8890 -1.7855  0.0613
   57SAPC   C39 4254   4.431   1.371   5.750 -0.0735  0.3032 -0.6030
   57SAPC   H9X 4255   4.533   1.409   5.731  0.8879 -2.4874 -1.5038
   57SAPC   H9Y 4256   4.365   1.460   5.747  0.7963  1.0221  0.5943
   57SAPC  C310 4257   4.388   1.275   5.628 -0.1774  0.9301 -0.6011
   57SAPC  H10X 4258   4.300   1.217   5.661  0.7278  0.2740  0.7251
   57SAPC  H10Y 4259   4.470   1.202   5.609  0.2504  1.2467 -0.0110
   57SAPC  C311 4260   4.363   1.347   5.500 -0.0447 -0.1924  0.6114
   57SAPC  H11X 4261   4.296   1.433   5.525 -1.2879 -0.5486 -1.2636
   57SAPC  H11Y 4262   4.308   1.290   5.423 -0.2900  0.8503 -0.0114
   57SAPC  C312 4263   4.495   1.397   5.441 -0.0879 -0.0737  0.7549
   57SAPC  H12X 4264   4.556   1.305   5.440 -0.1479 -0.1228 -1.0763
   57SAPC  H12Y 4265   4.547   1.474   5.501  0.8415 -1.9007  2.4110
   57SAPC  C313 4266   4.482   1.435   5.294 -0.3309 -0.0415 -0.8270
   57SAPC  H13X 4267   4.404   1.514   5.280 -0.7549 -0.4705 -0.8939
   57SAPC  H13Y 4268   4.445   1.350   5.234 -1.2171 -0.4621  0.2643
   57SAPC  C314 4269   4.623   1.478   5.237  0.2886  0.5789  1.0081
   57SAPC  H14X 4270   4.689   1.390   5.230 -0.5237  0.0396 -0.3380
   57SAPC  H14Y 4271   4.669   1.561   5.295 -0.6225  1.7562  0.1071
   57SAPC  C315 4272   4.611   1.512   5.091 -0.7610 -0.3330  1.1576
   57SAPC  H15X 4273   4.550   1.600   5.062  1.3127  0.2648 -1.7753
   57SAPC  H15Y 4274   4.561   1.426   5.040 -2.3555  0.0956  1.9334
   57SAPC  C316 4275   4.755   1.538   5.024  0.4780 -0.1891  1.1885
   57SAPC  H16X 4276   4.752   1.463   4.942 -3.3015 -0.6107  1.5419
   57SAPC  H16Y 4277   4.835   1.516   5.098  0.8088 -0.2869  0.8058
   57SAPC  C317 4278   4.775   1.686   4.986  0.2186  0.8665  0.3985
   57SAPC  H17X 4279   4.882   1.715   4.979  0.3863  0.1516 -0.0526
   57SAPC  H17Y 4280   4.740   1.753   5.068  1.2563  0.9394  0.7946
   57SAPC  C318 4281   4.706   1.721   4.850 -0.8589  0.0410 -0.1585
   57SAPC  H18X 4282   4.734   1.820   4.809  0.2902 -1.2794 -2.7402
   57SAPC  H18Y 4283   4.595   1.718   4.854 -0.8426 -0.3371  0.0964
   57SAPC  H18Z 4284   4.738   1.641   4.780 -1.2037  0.7913 -1.1943
   58SAPC     N 4285   2.630   0.209   7.145 -0.2628  0.3099 -0.0170
   58SAPC   C12 4286   2.682   0.165   7.008  1.1876 -0.2139 -0.1778
   58SAPC  H12A 4287   2.671   0.243   6.934  0.9105  0.6570  0.7553
   58SAPC  H12B 4288   2.629   0.077   6.976  1.6846 -0.4203 -0.4386
   58SAPC   C13 4289   2.670   0.115   7.249 -0.0964  0.1531 -0.2981
   58SAPC  H13A 4290   2.777   0.104   7.262 -0.3294  0.4911  2.5266
   58SAPC  H13B 4291   2.637   0.143   7.348 -0.3315  0.4098 -0.4479
   58SAPC  H13C 4292   2.621   0.020   7.231 -1.1603  0.7105 -0.3963
   58SAPC   C14 4293   2.679   0.347   7.170  0.0767  0.5180 -0.3382
   58SAPC  H14A 4294   2.637   0.423   7.106 -1.7525 -0.5973 -0.5278
   58SAPC  H14B 4295   2.655   0.369   7.273 -2.5106 -0.7728 -0.5880
   58SAPC  H14C 4296   2.786   0.352   7.153 -0.3276 -0.0744 -3.6968
   58SAPC   C15 4297   2.478   0.226   7.139 -0.2949 -0.3013 -0.4312
   58SAPC  H15A 4298   2.451   0.288   7.055  2.2423 -0.1797 -1.2381
   58SAPC  H15B 4299   2.418   0.136   7.135  0.2057 -0.5878 -3.2963
   58SAPC  H15C 4300   2.456   0.267   7.237  0.2116  1.7819 -1.1365
   58SAPC   C11 4301   2.835   0.124   7.006  0.1456 -0.2064  0.1277
   58SAPC  H11A 4302   2.888   0.194   7.074 -2.9972  1.1331  1.3808
   58SAPC  H11B 4303   2.859   0.136   6.898 -0.6633  0.5857  0.0217
   58SAPC     P 4304   2.825  -0.132   6.940 -0.5383  0.3025  0.4524
   58SAPC   O13 4305   2.870  -0.257   7.009 -0.0693  0.2426 -0.0087
   58SAPC   O14 4306   2.688  -0.132   6.895 -0.3094  0.2747 -0.0528
   58SAPC   O12 4307   2.845  -0.014   7.043 -0.0147 -0.2692 -0.2046
   58SAPC   O11 4308   2.929  -0.103   6.821  0.0430 -0.1696  0.2246
   58SAPC    C1 4309   2.916  -0.167   6.689  0.5587 -0.2730 -0.2571
   58SAPC    HA 4310   2.834  -0.242   6.695 -2.0142  2.4937  2.6205
   58SAPC    HB 4311   2.877  -0.091   6.618 -3.1711 -0.5364  1.3095
   58SAPC    C2 4312   3.050  -0.215   6.626  0.2516 -0.7073 -0.0280
   58SAPC    HS 4313   3.119  -0.129   6.638  0.9278 -1.1267 -0.7810
   58SAPC   O21 4314   3.034  -0.253   6.487 -0.1772 -0.2366  0.6297
   58SAPC   C21 4315   3.146  -0.235   6.419  0.8063 -0.5133  0.6659
   58SAPC   O22 4316   3.249  -0.185   6.453  0.5949 -0.0305  0.3710
   58SAPC   C22 4317   3.121  -0.302   6.276 -0.2950  0.5118 -0.5883
   58SAPC   H2R 4318   3.051  -0.387   6.290 -1.3733  1.1791 -1.7099
   58SAPC   H2S 4319   3.075  -0.238   6.198 -0.1115  0.7796 -0.4769
   58SAPC    C3 4320   3.107  -0.332   6.704 -0.3253  0.2292 -0.2903
   58SAPC    HX 4321   3.038  -0.418   6.697  0.6705 -0.5274 -1.1136
   58SAPC    HY 4322   3.117  -0.302   6.811 -0.1986  0.7624 -0.4467
   58SAPC   O31 4323   3.232  -0.383   6.658 -0.6482  0.4671  0.2820
   58SAPC   C31 4324   3.343  -0.322   6.701 -0.1819 -0.2328 -0.0329
   58SAPC   O32 4325   3.349  -0.216   6.752 -0.8753  0.0241  0.3305
   58SAPC   C32 4326   3.456  -0.429   6.689 -0.5370  0.6522  0.4093
   58SAPC   H2X 4327   3.413  -0.515   6.743  1.0725 -0.6053 -0.2224
   58SAPC   H2Y 4328   3.551  -0.398   6.737  1.3037  0.2066 -2.6432
   58SAPC   C23 4329   3.252  -0.367   6.224 -0.3222  0.3501  0.7413
   58SAPC   H3R 4330   3.290  -0.425   6.310 -2.8958 -2.3992  0.1946
   58SAPC   H3S 4331   3.322  -0.285   6.196 -0.3062  0.6681  1.6642
   58SAPC   C24 4332   3.225  -0.462   6.099  0.7200  0.0003 -0.1787
   58SAPC   H4R 4333   3.162  -0.407   6.025  1.5309  0.9093 -0.2212
   58SAPC   H4S 4334   3.146  -0.534   6.127 -1.1577  1.4874 -1.3354
   58SAPC   C25 4335   3.352  -0.520   6.040  0.6861 -0.8171  0.2437
   58SAPC   H5R 4336   3.423  -0.571   6.106  1.2326  0.3446  0.5702
   58SAPC   C26 4337   3.379  -0.517   5.907 -0.2382 -0.3048 -0.5073
   58SAPC   H6R 4338   3.473  -0.563   5.871 -0.4525 -1.5090  0.4276
   58SAPC   C27 4339   3.290  -0.450   5.802  0.3495  0.2035 -0.2931
   58SAPC   H7R 4340   3.184  -0.445   5.835  0.3923  0.1783 -0.1467
   58SAPC   H7S 4341   3.283  -0.510   5.709  0.0641 -1.7054  0.8935
   58SAPC   C28 4342   3.334  -0.310   5.770 -0.3956  0.2032  0.1158
   58SAPC   H8R 4343   3.372  -0.256   5.858  2.1664  0.6284 -1.1448
   58SAPC   C29 4344   3.332  -0.237   5.660 -0.0422  0.8770 -0.3223
   58SAPC   H9R 4345   3.384  -0.140   5.668  1.0448  0.2152  1.0609
   58SAPC  C210 4346   3.289  -0.282   5.521  0.6170  0.4412 -0.6557
   58SAPC  H10R 4347   3.183  -0.253   5.504  0.9036  1.6284 -0.5253
   58SAPC  H10S 4348   3.299  -0.393   5.523  1.5261  0.5157 -0.6937
   58SAPC  C211 4349   3.365  -0.221   5.407 -0.1448  0.3587  0.2101
   58SAPC  H11R 4350   3.340  -0.118   5.378 -0.1207 -0.1971 -1.9498
   58SAPC  C212 4351   3.428  -0.297   5.313 -0.6551  0.0022 -0.4055
   58SAPC  H12R 4352   3.476  -0.249   5.227  0.3883  0.5288  0.4488
   58SAPC  C213 4353   3.457  -0.446   5.307  0.0045  0.1122 -0.0065
   58SAPC  H13R 4354   3.373  -0.507   5.270  0.2112  0.6060 -1.3756
   58SAPC  H13S 4355   3.476  -0.491   5.407 -1.2357  0.4260  0.3845
   58SAPC  C214 4356   3.586  -0.468   5.228  0.1734  0.0709 -0.0464
   58SAPC  H14R 4357   3.679  -0.482   5.285  1.6456 -4.1275 -2.9677
   58SAPC  C215 4358   3.604  -0.463   5.098 -0.5246 -0.6534 -0.1756
   58SAPC  H15R 4359   3.704  -0.489   5.062  0.1779  4.5223 -2.8990
   58SAPC  C216 4360   3.496  -0.426   4.998 -0.3688  0.0063 -0.2555
   58SAPC  H16R 4361   3.535  -0.342   4.936  0.1138 -0.7311 -0.9706
   58SAPC  H16S 4362   3.402  -0.404   5.053 -0.2896 -0.9015  0.2568
   58SAPC  C217 4363   3.478  -0.541   4.900 -0.0299  0.6292  0.1769
   58SAPC  H17R 4364   3.375  -0.527   4.860 -0.6766 -1.8559  0.8113
   58SAPC  H17S 4365   3.482  -0.639   4.953 -3.3751 -0.9884 -2.1648
   58SAPC  C218 4366   3.579  -0.533   4.783  0.3644 -0.8563 -0.7547
   58SAPC  H18R 4367   3.676  -0.504   4.831  0.9836 -0.3922 -2.2419
   58SAPC  H18S 4368   3.550  -0.445   4.723  0.8512 -0.8356 -0.9674
   58SAPC  C219 4369   3.604  -0.670   4.721  0.6271 -0.1042  0.4041
   58SAPC  H19R 4370   3.520  -0.681   4.649  0.5390  1.4207  0.2318
   58SAPC  H19S 4371   3.611  -0.743   4.804  2.7298 -1.7295 -1.0942
   58SAPC  C220 4372   3.733  -0.680   4.639 -0.1568 -0.1214  1.1802
   58SAPC  H20R 4373   3.760  -0.580   4.598  2.1656 -0.9249  0.6025
   58SAPC  H20S 4374   3.726  -0.757   4.559  1.5588 -1.0279  1.8505
   58SAPC  H20T 4375   3.816  -0.711   4.706  1.0038 -0.7127 -0.4684
   58SAPC   C33 4376   3.493  -0.469   6.544  0.0341 -0.3845  0.0107
   58SAPC   H3X 4377   3.403  -0.500   6.486 -0.4179  2.7571 -1.2003
   58SAPC   H3Y 4378   3.576  -0.543   6.535 -0.2974 -0.6864 -0.6081
   58SAPC   C34 4379   3.545  -0.344   6.468 -0.4346 -0.0148  1.3709
   58SAPC   H4X 4380   3.612  -0.284   6.533  0.1159 -0.3868  1.1550
   58SAPC   H4Y 4381   3.460  -0.278   6.441  1.1307  1.2863 -0.6609
   58SAPC   C35 4382   3.617  -0.382   6.336 -0.0123  0.2347 -0.0213
   58SAPC   H5X 4383   3.557  -0.451   6.273  1.3523 -1.6527  0.6557
   58SAPC   H5Y 4384   3.713  -0.432   6.361  0.4916  0.6082 -1.1266
   58SAPC   C36 4385   3.637  -0.257   6.242 -0.4426 -0.1212 -0.1003
   58SAPC   H6X 4386   3.707  -0.179   6.282 -1.1906  0.7684 -0.4935
   58SAPC   H6Y 4387   3.536  -0.218   6.219  0.7866  1.5987 -3.1325
   58SAPC   C37 4388   3.689  -0.300   6.102  0.2582  0.0519 -0.1598
   58SAPC   H7X 4389   3.614  -0.376   6.069  0.2421  0.2965 -0.6895
   58SAPC   H7Y 4390   3.790  -0.347   6.102 -0.9923 -3.2200 -3.7840
   58SAPC   C38 4391   3.683  -0.183   6.002 -0.1002 -0.6674  0.5443
   58SAPC   H8X 4392   3.754  -0.108   6.045 -0.5019 -0.2279  0.4519
   58SAPC   H8Y 4393   3.578  -0.148   6.011  0.2500  0.1471  1.7439
   58SAPC   C39 4394   3.739  -0.215   5.860 -0.3130  0.1100  0.5155
   58SAPC   H9X 4395   3.703  -0.317   5.835  0.5292 -0.2284  0.6335
   58SAPC   H9Y 4396   3.850  -0.217   5.858 -0.2374  2.3631 -1.5660
   58SAPC  C310 4397   3.687  -0.119   5.753 -0.4666 -0.0511 -0.0749
   58SAPC  H10X 4398   3.704  -0.016   5.791  0.5644  0.6712 -2.3467
   58SAPC  H10Y 4399   3.578  -0.125   5.733 -0.7256  1.4485  0.6940
   58SAPC  C311 4400   3.748  -0.146   5.613  0.3010 -0.2809  0.0302
   58SAPC  H11X 4401   3.707  -0.244   5.581 -0.7626 -0.0897  0.7438
   58SAPC  H11Y 4402   3.857  -0.161   5.619  0.2469 -1.2276 -1.0824
   58SAPC  C312 4403   3.704  -0.041   5.508  0.3940 -0.7375 -0.2087
   58SAPC  H12X 4404   3.756   0.053   5.533 -1.5632  0.0956  0.9437
   58SAPC  H12Y 4405   3.597  -0.013   5.518 -0.1265 -2.1429 -1.4088
   58SAPC  C313 4406   3.742  -0.091   5.371 -0.0991  0.2217 -0.4249
   58SAPC  H13X 4407   3.680  -0.183   5.368 -1.5337  1.0390  2.0128
   58SAPC  H13Y 4408   3.849  -0.120   5.365 -0.7554 -2.1297 -2.1869
   58SAPC  C314 4409   3.709   0.006   5.261 -0.1742  0.1199  0.3154
   58SAPC  H14X 4410   3.767   0.099   5.280  0.5822  0.2754 -2.4259
   58SAPC  H14Y 4411   3.602   0.036   5.265  0.1666  2.3335 -3.0603
   58SAPC  C315 4412   3.746  -0.051   5.126  0.3544  0.0115  0.2844
   58SAPC  H15X 4413   3.695  -0.150   5.125 -0.6699  0.5234  0.3798
   58SAPC  H15Y 4414   3.853  -0.078   5.115 -0.2482 -1.8393 -1.6401
   58SAPC  C316 4415   3.718   0.035   5.003 -0.0687  0.7331  0.2017
   58SAPC  H16X 4416   3.764   0.136   5.014  0.9541  0.2315  0.7248
   58SAPC  H16Y 4417   3.608   0.046   4.996 -0.0258  2.4491  1.3922
   58SAPC  C317 4418   3.782  -0.022   4.875 -0.5187 -0.2629  0.1008
   58SAPC  H17X 4419   3.891  -0.031   4.893 -0.2734  2.3078  0.2401
   58SAPC  H17Y 4420   3.774   0.050   4.790  0.0601 -0.4446 -0.1107
   58SAPC  C318 4421   3.731  -0.153   4.817 -0.8518  0.5430  0.0045
   58SAPC  H18X 4422   3.764  -0.172   4.713  1.0132 -1.1686  0.8453
   58SAPC  H18Y 4423   3.624  -0.171   4.839 -0.4162 -1.6720  0.5785
   58SAPC  H18Z 4424   3.777  -0.243   4.864  1.4869  0.8763 -1.4701
   59SAPC     N 4425   1.293   1.813   6.983 -0.6172  0.2615 -0.9301
   59SAPC   C12 4426   1.326   1.941   6.911  0.7442 -0.1670  0.7180
   59SAPC  H12A 4427   1.375   2.009   6.979  1.0631  1.7130 -1.2475
   59SAPC  H12B 4428   1.234   1.995   6.895  1.1448  0.1857 -0.5053
   59SAPC   C13 4429   1.417   1.749   7.023 -0.2281  0.1924  0.2855
   59SAPC  H13A 4430   1.476   1.743   6.933  0.1561  1.6682  0.4161
   59SAPC  H13B 4431   1.473   1.803   7.098  1.3738 -0.6547 -0.2595
   59SAPC  H13C 4432   1.406   1.647   7.058  0.1896  0.4364  1.1560
   59SAPC   C14 4433   1.229   1.855   7.114  0.4914  0.4116 -0.4614
   59SAPC  H14A 4434   1.186   1.764   7.155  1.2251  1.3160  2.4924
   59SAPC  H14B 4435   1.296   1.906   7.181  2.2974  2.4627 -3.5487
   59SAPC  H14C 4436   1.144   1.920   7.103 -0.1592 -0.5068 -1.1234
   59SAPC   C15 4437   1.201   1.737   6.899  0.2447 -0.2685  0.1091
   59SAPC  H15A 4438   1.154   1.656   6.953  2.4134 -0.1093  2.4090
   59SAPC  H15B 4439   1.119   1.804   6.877  1.2834  0.6607 -1.0192
   59SAPC  H15C 4440   1.248   1.696   6.811  1.7800 -1.4354  1.4122
   59SAPC   C11 4441   1.402   1.923   6.785  1.4239 -0.0377 -0.0491
   59SAPC  H11A 4442   1.376   2.012   6.724  0.7157 -0.2438 -0.0498
   59SAPC  H11B 4443   1.363   1.837   6.728 -0.1611  1.2621 -1.0201
   59SAPC     P 4444   1.614   2.044   6.853 -0.4588 -0.2382 -0.3374
   59SAPC   O13 4445   1.553   2.076   6.987  0.1933 -0.6007  0.1576
   59SAPC   O14 4446   1.760   2.023   6.853 -0.4512 -0.5357  0.0039
   59SAPC   O12 4447   1.540   1.915   6.806 -0.0892 -0.8047  0.3896
   59SAPC   O11 4448   1.572   2.154   6.751 -0.4370  0.1675 -0.5360
   59SAPC    C1 4449   1.631   2.155   6.616 -0.1584 -0.8339  0.0367
   59SAPC    HA 4450   1.696   2.072   6.580  1.4293  0.3885  0.0016
   59SAPC    HB 4451   1.549   2.146   6.542  0.4695  0.9375 -0.9333
   59SAPC    C2 4452   1.694   2.289   6.570 -0.1749  0.2641 -0.2209
   59SAPC    HS 4453   1.632   2.371   6.611  0.6764  1.1823 -0.7017
   59SAPC   O21 4454   1.688   2.290   6.425 -0.1469  0.3133  0.5948
   59SAPC   C21 4455   1.715   2.414   6.370  0.5212  1.1406 -0.5496
   59SAPC   O22 4456   1.720   2.516   6.434  0.0463  0.1375 -0.3727
   59SAPC   C22 4457   1.766   2.393   6.227  0.1561 -0.4432  0.5266
   59SAPC   H2R 4458   1.874   2.370   6.233  0.4239  0.4500 -0.5946
   59SAPC   H2S 4459   1.710   2.310   6.179  1.4346 -0.8169 -0.3762
   59SAPC    C3 4460   1.842   2.295   6.616 -0.0287 -0.5521  0.4321
   59SAPC    HX 4461   1.835   2.281   6.726 -0.6315  0.5080  0.5425
   59SAPC    HY 4462   1.884   2.398   6.616  0.2109 -0.6344  1.7267
   59SAPC   O31 4463   1.921   2.193   6.558  0.1397 -0.2299  0.6241
   59SAPC   C31 4464   2.033   2.164   6.622 -0.1368 -0.0357  0.3658
   59SAPC   O32 4465   2.081   2.230   6.711  0.2284  0.0302  0.0488
   59SAPC   C32 4466   2.099   2.033   6.570  0.8171 -0.2844  0.9788
   59SAPC   H2X 4467   2.054   1.962   6.643  2.2212 -2.5346 -0.2316
   59SAPC   H2Y 4468   2.206   2.039   6.598  0.4292 -0.8791  2.6891
   59SAPC   C23 4469   1.743   2.522   6.140 -0.3544  0.2389  0.0819
   59SAPC   H3R 4470   1.822   2.520   6.062 -1.8840 -0.3298 -1.5281
   59SAPC   H3S 4471   1.748   2.617   6.198 -0.2943 -0.0137  0.4913
   59SAPC   C24 4472   1.612   2.532   6.066 -0.0209  0.1667 -0.1240
   59SAPC   H4R 4473   1.610   2.451   5.990  1.5017  0.9743 -1.0695
   59SAPC   H4S 4474   1.604   2.624   6.004 -0.3153 -0.4640 -1.0432
   59SAPC   C25 4475   1.488   2.521   6.155  0.1013 -1.3862 -0.6830
   59SAPC   H5R 4476   1.468   2.609   6.218 -0.3102 -1.4021 -0.7935
   59SAPC   C26 4477   1.394   2.430   6.168  0.4813  0.5120  0.2146
   59SAPC   H6R 4478   1.302   2.449   6.226 -0.3952 -0.5262 -0.7902
   59SAPC   C27 4479   1.392   2.296   6.103 -0.1145  0.8649 -0.1395
   59SAPC   H7R 4480   1.400   2.218   6.181  1.0855  0.6495 -0.4569
   59SAPC   H7S 4481   1.473   2.273   6.030  1.3103  2.7201  0.7794
   59SAPC   C28 4482   1.256   2.268   6.045 -0.1115  0.2863 -0.6292
   59SAPC   H8R 4483   1.170   2.277   6.112 -0.5402  2.5617 -1.3894
   59SAPC   C29 4484   1.239   2.235   5.916  0.3039  0.5990  0.0393
   59SAPC   H9R 4485   1.135   2.215   5.886  0.5370  1.2712 -1.2882
   59SAPC  C210 4486   1.340   2.233   5.807 -0.6783 -0.3335  0.0368
   59SAPC  H10R 4487   1.308   2.150   5.740 -0.9752  0.9199 -1.4201
   59SAPC  H10S 4488   1.445   2.213   5.838  0.1368  1.9262 -1.0523
   59SAPC  C211 4489   1.337   2.366   5.724  0.5975 -0.0614  0.3048
   59SAPC  H11R 4490   1.320   2.455   5.786 -2.7548  2.2466 -3.4556
   59SAPC  C212 4491   1.382   2.385   5.601 -0.7171 -0.1999 -0.3270
   59SAPC  H12R 4492   1.375   2.487   5.562 -1.2999  0.5409  1.6304
   59SAPC  C213 4493   1.449   2.288   5.505  0.1957 -0.4325 -0.9482
   59SAPC  H13R 4494   1.371   2.246   5.437  0.0166 -1.0219 -0.3910
   59SAPC  H13S 4495   1.477   2.194   5.557  1.9483  0.4669 -0.1665
   59SAPC  C214 4496   1.569   2.349   5.426  0.3246 -0.7962 -0.2511
   59SAPC  H14R 4497   1.551   2.368   5.320  0.1559 -1.3201 -0.3204
   59SAPC  C215 4498   1.698   2.379   5.475  0.6379 -0.1240  0.2566
   59SAPC  H15R 4499   1.760   2.450   5.419 -1.5080  1.3255 -0.4140
   59SAPC  C216 4500   1.742   2.347   5.611 -0.0005 -0.0371  0.0684
   59SAPC  H16R 4501   1.682   2.261   5.650 -2.5792  1.3094 -0.6835
   59SAPC  H16S 4502   1.727   2.432   5.680  1.1938 -0.7751  1.2860
   59SAPC  C217 4503   1.890   2.324   5.602 -0.0367 -0.1817  0.3129
   59SAPC  H17R 4504   1.946   2.415   5.570  2.4621 -1.5727  0.4702
   59SAPC  H17S 4505   1.917   2.262   5.514  0.6787  1.4300 -0.6584
   59SAPC  C218 4506   1.954   2.262   5.726 -0.3772  0.4389  0.8160
   59SAPC  H18R 4507   2.065   2.262   5.724 -0.3631 -1.3274  0.1604
   59SAPC  H18S 4508   1.924   2.156   5.721 -2.1417  0.9705 -0.7757
   59SAPC  C219 4509   1.908   2.324   5.859  0.2123 -0.1626  0.2758
   59SAPC  H19R 4510   1.797   2.331   5.852  0.2538 -0.9727 -2.2045
   59SAPC  H19S 4511   1.946   2.429   5.861  1.3649 -0.5798  1.4041
   59SAPC  C220 4512   1.956   2.243   5.974  0.3905  0.1364 -0.4403
   59SAPC  H20R 4513   2.011   2.154   5.936 -0.6027 -0.8066  0.2740
   59SAPC  H20S 4514   1.881   2.220   6.053  2.0915  2.3373  1.9686
   59SAPC  H20T 4515   2.028   2.309   6.026  0.0283 -0.6193  1.0693
   59SAPC   C33 4516   2.069   1.997   6.419  0.1084 -0.3187 -1.0653
   59SAPC   H3X 4517   1.975   2.044   6.382 -1.2716 -0.6764  1.7138
   59SAPC   H3Y 4518   2.043   1.890   6.406  0.1137 -0.5302  0.5515
   59SAPC   C34 4519   2.191   2.041   6.327 -0.0629  0.0126 -0.3369
   59SAPC   H4X 4520   2.279   1.993   6.375 -0.1693 -0.5616 -0.7128
   59SAPC   H4Y 4521   2.209   2.151   6.327  1.0596 -0.1596 -0.3391
   59SAPC   C35 4522   2.172   1.986   6.191  1.2784 -0.1916 -0.3115
   59SAPC   H5X 4523   2.077   2.030   6.153  0.1592 -1.5575  0.7943
   59SAPC   H5Y 4524   2.145   1.878   6.190 -1.0195  0.3412 -1.2227
   59SAPC   C36 4525   2.288   2.024   6.098 -0.0328 -0.2464  0.0931
   59SAPC   H6X 4526   2.387   1.981   6.124 -0.0224  0.3469  1.1012
   59SAPC   H6Y 4527   2.287   2.135   6.098 -1.6036 -0.1892 -2.1566
   59SAPC   C37 4528   2.257   1.997   5.953  0.1281 -0.1365  0.7187
   59SAPC   H7X 4529   2.315   2.059   5.881  0.8577 -1.8377 -0.2204
   59SAPC   H7Y 4530   2.149   2.020   5.941  0.7386  2.3661 -0.6907
   59SAPC   C38 4531   2.290   1.852   5.907 -0.4087 -0.2033 -0.3491
   59SAPC   H8X 4532   2.261   1.778   5.984 -0.1350 -0.0541 -0.0974
   59SAPC   H8Y 4533   2.400   1.834   5.901 -0.1171  1.2903 -0.0270
   59SAPC   C39 4534   2.233   1.835   5.770 -0.1743 -0.5091 -0.7951
   59SAPC   H9X 4535   2.131   1.880   5.767  0.1607  0.6954  2.4003
   59SAPC   H9Y 4536   2.217   1.727   5.752  0.0672 -0.5981 -0.4834
   59SAPC  C310 4537   2.339   1.884   5.672  0.0113  0.2180  0.1753
   59SAPC  H10X 4538   2.434   1.837   5.706  0.2005  1.3522  1.2671
   59SAPC  H10Y 4539   2.346   1.994   5.686  0.0001  0.3712 -0.9790
   59SAPC  C311 4540   2.297   1.852   5.525 -0.5084 -0.1806  0.1213
   59SAPC  H11X 4541   2.253   1.750   5.522 -0.0664 -0.3603 -0.3198
   59SAPC  H11Y 4542   2.393   1.847   5.471  0.2619  2.8950  0.9797
   59SAPC  C312 4543   2.204   1.959   5.465  0.0622 -0.2831 -0.5701
   59SAPC  H12X 4544   2.242   2.063   5.478  0.5788 -0.6596  1.2752
   59SAPC  H12Y 4545   2.107   1.964   5.519  0.9852 -0.3347  1.1634
   59SAPC  C313 4546   2.180   1.944   5.314  0.1908  0.0867 -0.0173
   59SAPC  H13X 4547   2.109   2.025   5.286 -2.7821 -1.6952  1.8365
   59SAPC  H13Y 4548   2.127   1.850   5.289 -1.6184  1.1458 -0.3623
   59SAPC  C314 4549   2.305   1.955   5.235 -0.6794  0.6874 -0.1404
   59SAPC  H14X 4550   2.368   1.864   5.247 -0.1591  0.8168 -1.7072
   59SAPC  H14Y 4551   2.352   2.044   5.283  0.5462 -0.1998  0.3676
   59SAPC  C315 4552   2.275   1.995   5.096 -0.4454  0.0717 -0.5628
   59SAPC  H15X 4553   2.224   2.093   5.085 -0.8340 -0.0942 -0.2576
   59SAPC  H15Y 4554   2.207   1.927   5.041 -2.3611 -0.2589  2.0293
   59SAPC  C316 4555   2.407   1.992   5.019  0.5172  0.0781 -0.9758
   59SAPC  H16X 4556   2.435   1.884   5.013  2.6497  0.1864  3.1501
   59SAPC  H16Y 4557   2.482   2.044   5.083  0.1983 -1.9244  1.1701
   59SAPC  C317 4558   2.403   2.048   4.881  0.4410  0.0656 -0.2210
   59SAPC  H17X 4559   2.359   2.149   4.894 -0.3396 -0.5788  3.4315
   59SAPC  H17Y 4560   2.330   1.986   4.825  0.7284  0.6091 -1.2217
   59SAPC  C318 4561   2.533   2.048   4.808 -0.0782 -1.0987  1.3288
   59SAPC  H18X 4562   2.516   2.084   4.704 -0.7619 -1.4187  1.3245
   59SAPC  H18Y 4563   2.573   1.947   4.788  1.3504 -0.2900 -0.1752
   59SAPC  H18Z 4564   2.610   2.118   4.847 -1.6958  3.3355 -2.4868
   60SAPC     N 4565   5.328   2.892   7.419 -0.1910  0.3032 -0.5081
   60SAPC   C12 4566   5.312   2.960   7.560 -0.7124  0.1678 -0.3709
   60SAPC  H12A 4567   5.379   2.906   7.625 -3.3533 -2.3305  0.4578
   60SAPC  H12B 4568   5.212   2.933   7.588 -0.3157 -0.0223  0.8935
   60SAPC   C13 4569   5.256   2.971   7.319 -0.8144 -1.2696  0.5650
   60SAPC  H13A 4570   5.272   2.932   7.220  0.1388 -1.1036  0.6441
   60SAPC  H13B 4571   5.153   2.992   7.343 -0.8342 -1.2989  0.5018
   60SAPC  H13C 4572   5.304   3.067   7.328  1.6280 -2.3589  0.2156
   60SAPC   C14 4573   5.480   2.886   7.387 -0.1741  0.2240 -0.3946
   60SAPC  H14A 4574   5.524   2.979   7.418  0.9301 -1.1055  2.3363
   60SAPC  H14B 4575   5.521   2.801   7.440 -0.3891  0.0248 -0.5424
   60SAPC  H14C 4576   5.506   2.861   7.285 -1.9308  1.3024 -1.1505
   60SAPC   C15 4577   5.282   2.750   7.429 -0.0617  0.8447  0.0418
   60SAPC  H15A 4578   5.321   2.693   7.346 -1.9900  0.8468 -0.9188
   60SAPC  H15B 4579   5.319   2.711   7.523  0.6644  1.9876  0.2423
   60SAPC  H15C 4580   5.174   2.740   7.426 -0.0094 -1.5551  2.3804
   60SAPC   C11 4581   5.332   3.114   7.578  1.0185 -0.1112 -0.9280
   60SAPC  H11A 4582   5.304   3.139   7.683 -0.0027 -0.2053 -1.1676
   60SAPC  H11B 4583   5.253   3.155   7.512  1.8761  1.4298 -1.0684
   60SAPC     P 4584   5.516   3.297   7.537 -0.2963 -0.0545  0.0582
   60SAPC   O13 4585   5.454   3.370   7.650  0.0308 -0.0115  0.1798
   60SAPC   O14 4586   5.658   3.302   7.533 -0.6559 -0.3105  0.2957
   60SAPC   O12 4587   5.465   3.149   7.528 -0.1338 -0.0719 -0.0538
   60SAPC   O11 4588   5.457   3.350   7.398  0.4952 -0.5363 -0.6287
   60SAPC    C1 4589   5.517   3.293   7.287 -0.2334  0.8625  0.6548
   60SAPC    HA 4590   5.557   3.189   7.296  2.9548  1.9521  0.3841
   60SAPC    HB 4591   5.436   3.279   7.212 -1.0560  0.8184  1.5321
   60SAPC    C2 4592   5.636   3.359   7.227 -0.3560  0.3489  0.3707
   60SAPC    HS 4593   5.704   3.388   7.309  0.8749  3.0161 -1.4698
   60SAPC   O21 4594   5.583   3.474   7.160  0.4596  0.0870 -0.0190
   60SAPC   C21 4595   5.674   3.568   7.132  0.0411  0.1348 -0.6164
   60SAPC   O22 4596   5.783   3.569   7.180 -0.4372 -0.3271  0.2738
   60SAPC   C22 4597   5.601   3.682   7.058 -1.0429  0.7449 -0.4400
   60SAPC   H2R 4598   5.504   3.647   7.018 -0.6546  0.1674 -0.8998
   60SAPC   H2S 4599   5.588   3.772   7.122 -2.9288  0.0576  0.1980
   60SAPC    C3 4600   5.706   3.264   7.126 -0.4009 -0.1033  0.3679
   60SAPC    HX 4601   5.763   3.191   7.187 -0.9277 -0.3006  0.6290
   60SAPC    HY 4602   5.779   3.330   7.074 -0.4003  1.7866  2.6235
   60SAPC   O31 4603   5.613   3.204   7.032  0.2679  0.3924  0.1871
   60SAPC   C31 4604   5.644   3.093   6.974 -0.4959  0.3862 -0.1289
   60SAPC   O32 4605   5.747   3.030   6.999  0.2847  0.4520  0.7857
   60SAPC   C32 4606   5.529   3.060   6.881  0.1478  0.7741 -0.5775
   60SAPC   H2X 4607   5.528   3.150   6.816 -0.7948  1.5059  0.4094
   60SAPC   H2Y 4608   5.442   3.059   6.950 -0.6677 -1.2361 -1.5517
   60SAPC   C23 4609   5.693   3.726   6.930 -0.1797  1.0867  0.2284
   60SAPC   H3R 4610   5.794   3.753   6.969 -0.2304 -0.6453  1.6548
   60SAPC   H3S 4611   5.649   3.822   6.896 -0.0549  1.1245  0.1697
   60SAPC   C24 4612   5.696   3.630   6.810  0.7490 -1.1618  0.0832
   60SAPC   H4R 4613   5.602   3.571   6.813 -0.5908  0.8809  0.0706
   60SAPC   H4S 4614   5.784   3.562   6.817  2.0887  0.5074  0.2679
   60SAPC   C25 4615   5.708   3.708   6.683  0.3786 -0.5713 -0.0726
   60SAPC   H5R 4616   5.781   3.790   6.688  1.7944 -1.8075  0.4088
   60SAPC   C26 4617   5.637   3.682   6.564 -0.4679 -0.1693 -0.2728
   60SAPC   H6R 4618   5.656   3.749   6.478 -0.3752  1.2389  0.8038
   60SAPC   C27 4619   5.537   3.572   6.540 -0.2328  0.5034 -0.3912
   60SAPC   H7R 4620   5.502   3.534   6.638  1.7539  2.6899  1.3031
   60SAPC   H7S 4621   5.589   3.486   6.494  0.9362  1.2087 -0.4658
   60SAPC   C28 4622   5.430   3.625   6.445 -0.0783  0.3245  0.4040
   60SAPC   H8R 4623   5.343   3.672   6.493 -0.4689  1.4488 -1.3218
   60SAPC   C29 4624   5.432   3.643   6.312  0.4769  0.5540 -0.6890
   60SAPC   H9R 4625   5.336   3.678   6.271 -2.0488 -2.9910  1.5063
   60SAPC  C210 4626   5.546   3.600   6.222  0.6444  0.3899  0.1982
   60SAPC  H10R 4627   5.495   3.536   6.147 -0.6471 -0.1954  1.5306
   60SAPC  H10S 4628   5.624   3.548   6.282 -0.0117  0.6263  1.2774
   60SAPC  C211 4629   5.606   3.718   6.156 -0.3672  0.5881  0.0785
   60SAPC  H11R 4630   5.628   3.801   6.225 -0.9526  1.4160 -0.7001
   60SAPC  C212 4631   5.611   3.734   6.021  0.1731  0.8440  0.1986
   60SAPC  H12R 4632   5.674   3.814   5.979  0.9437  0.1044 -0.0882
   60SAPC  C213 4633   5.548   3.643   5.918  1.0289 -0.0657  1.3639
   60SAPC  H13R 4634   5.570   3.535   5.935 -0.4815 -1.2761 -2.8676
   60SAPC  H13S 4635   5.589   3.676   5.820 -1.8960  1.2937  0.4646
   60SAPC  C214 4636   5.397   3.664   5.905  0.1619 -0.0201  0.1642
   60SAPC  H14R 4637   5.354   3.707   5.997 -0.1858 -0.1633  0.0707
   60SAPC  C215 4638   5.324   3.610   5.804  0.4817 -0.2214  0.2261
   60SAPC  H15R 4639   5.216   3.629   5.807  0.3522 -0.8550 -0.0923
   60SAPC  C216 4640   5.387   3.529   5.691  0.0538 -0.3418 -0.5160
   60SAPC  H16R 4641   5.318   3.445   5.670 -0.2484  0.2661 -2.0522
   60SAPC  H16S 4642   5.478   3.477   5.727  0.1201 -0.1087 -0.3413
   60SAPC  C217 4643   5.422   3.615   5.571 -0.8230 -0.3384 -0.2389
   60SAPC  H17R 4644   5.488   3.699   5.601 -0.5964 -1.2136  1.8943
   60SAPC  H17S 4645   5.326   3.650   5.527 -0.8216  0.3070  0.2630
   60SAPC  C218 4646   5.506   3.534   5.479  0.2558  0.3416  0.2565
   60SAPC  H18R 4647   5.591   3.492   5.535 -0.1686  0.9434  1.3754
   60SAPC  H18S 4648   5.548   3.602   5.402  0.3330  0.0582  0.0450
   60SAPC  C219 4649   5.424   3.424   5.409  0.0331 -0.8047  0.2083
   60SAPC  H19R 4650   5.316   3.452   5.408  0.0079 -0.9077 -0.0428
   60SAPC  H19S 4651   5.422   3.334   5.474 -0.9656 -1.8647 -1.2375
   60SAPC  C220 4652   5.471   3.398   5.274  0.4166 -0.1349  0.0359
   60SAPC  H20R 4653   5.404   3.330   5.219  1.5822 -1.8532  0.6373
   60SAPC  H20S 4654   5.572   3.351   5.275  0.3864 -0.2019  0.4913
   60SAPC  H20T 4655   5.466   3.491   5.214 -0.0055  0.5411  1.0921
   60SAPC   C33 4656   5.551   2.923   6.805 -0.2495 -0.3809 -0.8251
   60SAPC   H3X 4657   5.455   2.892   6.758 -2.0751  2.6719  0.5563
   60SAPC   H3Y 4658   5.580   2.850   6.883  0.3710  1.1735  0.4605
   60SAPC   C34 4659   5.651   2.939   6.691  0.3301  0.7693 -0.2116
   60SAPC   H4X 4660   5.634   2.847   6.631  0.6098 -0.6204  1.7458
   60SAPC   H4Y 4661   5.754   2.924   6.730 -0.0097  1.2066  0.9018
   60SAPC   C35 4662   5.638   3.068   6.608 -0.0572  0.2100  0.1877
   60SAPC   H5X 4663   5.690   3.145   6.667  2.6768 -0.3497 -1.3207
   60SAPC   H5Y 4664   5.533   3.093   6.579  0.3080  1.7882  0.1397
   60SAPC   C36 4665   5.724   3.051   6.480  0.6071 -0.4770 -0.4645
   60SAPC   H6X 4666   5.673   2.973   6.420 -3.6984  0.3197  1.7759
   60SAPC   H6Y 4667   5.825   3.016   6.508  1.1760  1.6631  0.4081
   60SAPC   C37 4668   5.739   3.179   6.403  0.5175 -0.1594 -0.3841
   60SAPC   H7X 4669   5.783   3.258   6.468  0.5562 -0.1401 -0.4345
   60SAPC   H7Y 4670   5.638   3.217   6.375 -0.3001 -1.8044  0.1740
   60SAPC   C38 4671   5.816   3.177   6.277 -0.3534 -0.3282 -0.1902
   60SAPC   H8X 4672   5.762   3.102   6.215 -0.6654 -0.7563  0.5878
   60SAPC   H8Y 4673   5.920   3.142   6.289 -0.8666 -2.1796 -0.8745
   60SAPC   C39 4674   5.813   3.312   6.199 -0.0976 -0.2833  0.1361
   60SAPC   H9X 4675   5.836   3.397   6.267  3.3708 -0.8690 -0.1134
   60SAPC   H9Y 4676   5.708   3.320   6.165 -0.4930 -3.1181  0.4214
   60SAPC  C310 4677   5.902   3.311   6.073  0.0076  0.9636  0.4155
   60SAPC  H10X 4678   5.894   3.213   6.021 -2.9142  0.6095  1.3491
   60SAPC  H10Y 4679   6.004   3.322   6.115  0.0318 -0.9734  0.9684
   60SAPC  C311 4680   5.883   3.433   5.979 -0.8072  0.6537  0.1239
   60SAPC  H11X 4681   5.986   3.471   5.959 -0.3667 -0.4436  0.2326
   60SAPC  H11Y 4682   5.825   3.515   6.026 -0.9714  0.6821 -0.1263
   60SAPC  C312 4683   5.816   3.402   5.846 -0.2918 -0.2356 -0.2682
   60SAPC  H12X 4684   5.791   3.498   5.796  2.2984  0.4920 -0.2693
   60SAPC  H12Y 4685   5.717   3.356   5.871 -0.0022 -0.4213  0.5945
   60SAPC  C313 4686   5.919   3.320   5.770 -0.0529  0.3192  0.4470
   60SAPC  H13X 4687   5.955   3.236   5.833  0.5327  0.4357  0.2781
   60SAPC  H13Y 4688   6.006   3.386   5.748  0.5633 -1.4183 -3.0377
   60SAPC  C314 4689   5.871   3.257   5.634  0.4807 -0.3385 -0.2500
   60SAPC  H14X 4690   5.837   3.339   5.568  2.3675  1.6985  1.1726
   60SAPC  H14Y 4691   5.784   3.192   5.659  1.1760 -0.5934  1.7209
   60SAPC  C315 4692   5.970   3.162   5.559  0.5407  0.1117 -0.1835
   60SAPC  H15X 4693   6.029   3.100   5.630  0.4921  0.7634  0.4427
   60SAPC  H15Y 4694   6.035   3.228   5.498  0.6883  2.2497  2.1231
   60SAPC  C316 4695   5.904   3.060   5.468 -0.3577  0.1958 -0.3183
   60SAPC  H16X 4696   5.853   3.114   5.386  0.7928 -0.1045 -1.2590
   60SAPC  H16Y 4697   5.825   3.006   5.525 -0.7587  0.0483 -1.0042
   60SAPC  C317 4698   6.010   2.962   5.407 -0.0526 -0.7424 -0.2494
   60SAPC  H17X 4699   6.065   2.923   5.495 -0.8129 -0.0838  0.5403
   60SAPC  H17Y 4700   6.081   3.016   5.341  1.5098 -0.5684  1.4753
   60SAPC  C318 4701   5.940   2.850   5.325 -0.3373 -0.3385  0.5545
   60SAPC  H18X 4702   5.900   2.884   5.227 -2.2502  0.9037  1.6979
   60SAPC  H18Y 4703   5.859   2.798   5.379 -1.4300  0.4011 -0.3253
   60SAPC  H18Z 4704   6.023   2.779   5.305 -0.0863  0.1720 -0.3237
   61SAPC     N 4705   5.617   4.645   7.640  0.4106  0.1435 -0.1603
   61SAPC   C12 4706   5.656   4.653   7.496  0.2096 -0.2536 -1.1741
   61SAPC  H12A 4707   5.756   4.615   7.483  1.2070  1.5748  0.7334
   61SAPC  H12B 4708   5.665   4.758   7.475  1.0511 -0.3223 -1.1787
   61SAPC   C13 4709   5.499   4.735   7.664  0.7060  0.3108  0.4416
   61SAPC  H13A 4710   5.419   4.720   7.594 -0.5629 -0.4801  1.9963
   61SAPC  H13B 4711   5.467   4.716   7.766  0.5723  0.0216  0.3444
   61SAPC  H13C 4712   5.528   4.839   7.655 -0.7238  0.6002 -1.5256
   61SAPC   C14 4713   5.589   4.507   7.691  0.0611 -0.0863 -0.5494
   61SAPC  H14A 4714   5.668   4.439   7.663 -0.5037 -1.1938  0.4469
   61SAPC  H14B 4715   5.594   4.500   7.799  0.5508 -2.0621 -0.6630
   61SAPC  H14C 4716   5.502   4.468   7.641 -0.5350 -0.3598  0.6448
   61SAPC   C15 4717   5.724   4.706   7.724 -0.1333  0.5520  0.0779
   61SAPC  H15A 4718   5.747   4.809   7.703  0.5263  0.8886  2.2203
   61SAPC  H15B 4719   5.688   4.700   7.826 -1.0574  1.5570 -0.1676
   61SAPC  H15C 4720   5.818   4.656   7.708  0.2368  1.8229 -2.0001
   61SAPC   C11 4721   5.573   4.599   7.381 -0.0727 -0.6040  0.2432
   61SAPC  H11A 4722   5.545   4.494   7.404  1.3023 -0.5822  2.2563
   61SAPC  H11B 4723   5.634   4.614   7.290 -0.0876 -2.3504 -0.0897
   61SAPC     P 4724   5.449   4.824   7.331  0.3071 -0.0329  0.4429
   61SAPC   O13 4725   5.347   4.891   7.410  0.5420 -0.4473  0.0374
   61SAPC   O14 4726   5.581   4.882   7.326 -0.2061  0.5789  0.0799
   61SAPC   O12 4727   5.451   4.674   7.379  0.1310  0.0936  0.0111
   61SAPC   O11 4728   5.383   4.813   7.187  0.0421  0.7395  0.1858
   61SAPC    C1 4729   5.319   4.691   7.145 -0.4199  0.2145 -0.5293
   61SAPC    HA 4730   5.288   4.632   7.234 -1.3665  1.1876 -0.1895
   61SAPC    HB 4731   5.234   4.721   7.080 -0.2179  1.1947 -0.3555
   61SAPC    C2 4732   5.416   4.596   7.060 -0.0289 -1.1565 -0.3128
   61SAPC    HS 4733   5.520   4.588   7.099  0.7792  0.9604 -1.8451
   61SAPC   O21 4734   5.424   4.648   6.925  0.1937  0.0254 -0.0200
   61SAPC   C21 4735   5.539   4.638   6.862  1.4412  0.0073 -0.2595
   61SAPC   O22 4736   5.640   4.597   6.915 -0.5212  0.8532 -0.3821
   61SAPC   C22 4737   5.509   4.674   6.710 -0.0011  0.4166  0.5550
   61SAPC   H2R 4738   5.400   4.665   6.690 -0.7707  3.0195  2.8736
   61SAPC   H2S 4739   5.536   4.781   6.702  0.9106  0.5755  3.9216
   61SAPC    C3 4740   5.350   4.455   7.048  0.2337 -0.4796 -0.0258
   61SAPC    HX 4741   5.250   4.485   7.011  0.7991  1.4202 -0.1330
   61SAPC    HY 4742   5.345   4.416   7.152 -0.4471 -0.0701  0.1053
   61SAPC   O31 4743   5.425   4.374   6.955  0.0105 -0.1085  0.2876
   61SAPC   C31 4744   5.519   4.295   6.999 -1.3557  0.5953  1.2169
   61SAPC   O32 4745   5.539   4.262   7.110 -0.9720  0.6125  0.3475
   61SAPC   C32 4746   5.595   4.245   6.871 -0.4106 -0.1368 -0.2082
   61SAPC   H2X 4747   5.652   4.339   6.853 -1.0354  0.6642  1.7435
   61SAPC   H2Y 4748   5.514   4.228   6.797 -1.4713  0.6044  0.7592
   61SAPC   C23 4749   5.594   4.594   6.603  0.6834 -0.0785 -0.1620
   61SAPC   H3R 4750   5.546   4.495   6.584 -0.7320  0.7949 -1.3672
   61SAPC   H3S 4751   5.695   4.576   6.644  0.9561  3.0989  0.8233
   61SAPC   C24 4752   5.612   4.662   6.466  0.0691 -0.4655  0.5731
   61SAPC   H4R 4753   5.685   4.598   6.412 -0.0081 -0.5475  0.5651
   61SAPC   H4S 4754   5.656   4.764   6.468  2.0082 -1.1867 -1.3184
   61SAPC   C25 4755   5.488   4.674   6.386  1.2801 -0.2670  0.3336
   61SAPC   H5R 4756   5.413   4.738   6.435  1.3886  1.6369 -1.8176
   61SAPC   C26 4757   5.450   4.620   6.267  0.3109 -0.4704 -0.3568
   61SAPC   H6R 4758   5.358   4.659   6.221 -0.2876  0.2990  1.4353
   61SAPC   C27 4759   5.526   4.533   6.163 -0.9411 -0.1447 -0.3045
   61SAPC   H7R 4760   5.469   4.444   6.130 -1.5367  0.0111  0.2749
   61SAPC   H7S 4761   5.615   4.492   6.215  0.1259  1.6833 -0.5724
   61SAPC   C28 4762   5.570   4.626   6.053 -0.0523 -0.3013  0.1025
   61SAPC   H8R 4763   5.632   4.706   6.096 -0.2022 -0.7873  1.2629
   61SAPC   C29 4764   5.540   4.623   5.919  0.0423  0.1551  0.3204
   61SAPC   H9R 4765   5.580   4.695   5.847 -0.2660 -0.1637 -0.1801
   61SAPC  C210 4766   5.446   4.522   5.866  0.1729 -0.1148 -0.1754
   61SAPC  H10R 4767   5.346   4.568   5.876  0.9206  1.9609 -1.4589
   61SAPC  H10S 4768   5.450   4.432   5.931  2.1073 -0.1388 -0.2417
   61SAPC  C211 4769   5.467   4.479   5.727 -0.4108  0.1625 -0.2394
   61SAPC  H11R 4770   5.567   4.437   5.710 -0.5511  0.2536 -1.3607
   61SAPC  C212 4771   5.389   4.506   5.623  0.2640  0.0603  0.4445
   61SAPC  H12R 4772   5.428   4.473   5.525  1.9451  0.4193  0.9694
   61SAPC  C213 4773   5.254   4.573   5.624 -0.2024  0.0546  0.0012
   61SAPC  H13R 4774   5.214   4.552   5.725  1.8774 -1.4193  0.5988
   61SAPC  H13S 4775   5.194   4.514   5.552 -0.3876 -0.2802  0.4301
   61SAPC  C214 4776   5.251   4.724   5.595 -0.1733  0.5093 -0.0810
   61SAPC  H14R 4777   5.314   4.786   5.661 -0.4754  0.1153  0.5966
   61SAPC  C215 4778   5.192   4.782   5.494 -0.0395  0.8218 -0.4436
   61SAPC  H15R 4779   5.201   4.892   5.500  1.0788  0.6792  1.1188
   61SAPC  C216 4780   5.095   4.732   5.395 -1.4855  0.0081  0.7990
   61SAPC  H16R 4781   5.035   4.645   5.429  1.4559 -2.2154  0.6563
   61SAPC  H16S 4782   5.157   4.685   5.316 -2.4343 -0.5109  0.3427
   61SAPC  C217 4783   5.005   4.833   5.333  0.2119  0.0528  0.4311
   61SAPC  H17R 4784   5.052   4.927   5.296  1.5258  0.1030  2.0860
   61SAPC  H17S 4785   4.943   4.868   5.418  0.8175  3.6242 -0.4138
   61SAPC  C218 4786   4.902   4.782   5.227 -0.1336 -0.0402  0.0555
   61SAPC  H18R 4787   4.864   4.686   5.269  1.1306  0.1729  1.8135
   61SAPC  H18S 4788   4.951   4.752   5.132  0.2126 -0.0462  0.2318
   61SAPC  C219 4789   4.798   4.887   5.198 -0.2232  0.3717  0.5912
   61SAPC  H19R 4790   4.750   4.930   5.289  1.8416 -0.6248  2.2557
   61SAPC  H19S 4791   4.713   4.843   5.142  0.1016  0.0069  0.3793
   61SAPC  C220 4792   4.854   4.995   5.107  0.6208  1.2091  0.6865
   61SAPC  H20R 4793   4.873   4.966   5.002 -1.1907  2.6871 -0.1058
   61SAPC  H20S 4794   4.947   5.033   5.154  0.7895  0.4453  0.9888
   61SAPC  H20T 4795   4.783   5.081   5.099  0.1208  0.9070  1.6410
   61SAPC   C33 4796   5.677   4.115   6.892  0.0339 -0.4366  0.0238
   61SAPC   H3X 4797   5.610   4.026   6.892  0.4887 -0.7885  0.6538
   61SAPC   H3Y 4798   5.722   4.109   6.993 -1.2643 -1.2052  0.5853
   61SAPC   C34 4799   5.782   4.104   6.783 -0.4571 -0.9888  0.2699
   61SAPC   H4X 4800   5.849   4.016   6.790  0.5212 -0.5784 -2.7221
   61SAPC   H4Y 4801   5.851   4.190   6.794  0.3461 -1.8074  1.9585
   61SAPC   C35 4802   5.705   4.091   6.645  0.1349  0.7171 -0.2389
   61SAPC   H5X 4803   5.627   4.167   6.622 -0.3506 -0.2064 -1.8380
   61SAPC   H5Y 4804   5.651   3.994   6.641 -1.7734  1.5732  2.1527
   61SAPC   C36 4805   5.799   4.095   6.519 -0.1494  0.0437  0.4647
   61SAPC   H6X 4806   5.873   4.012   6.526  0.1252  0.3629  1.4506
   61SAPC   H6Y 4807   5.860   4.188   6.519 -1.9028  1.2290  0.5080
   61SAPC   C37 4808   5.717   4.073   6.382  0.2626 -0.1415  0.0288
   61SAPC   H7X 4809   5.632   4.145   6.379  0.6972  0.3586 -0.5193
   61SAPC   H7Y 4810   5.683   3.969   6.400 -2.8992  0.6664 -0.5841
   61SAPC   C38 4811   5.805   4.092   6.260  0.2936  0.7313 -0.0558
   61SAPC   H8X 4812   5.886   4.016   6.258 -3.2612 -3.4117 -0.5815
   61SAPC   H8Y 4813   5.840   4.198   6.254 -0.9445  1.1155 -1.2675
   61SAPC   C39 4814   5.736   4.065   6.125 -0.4648  0.4454  0.0710
   61SAPC   H9X 4815   5.642   4.123   6.114 -0.2112  0.8657  0.0845
   61SAPC   H9Y 4816   5.710   3.957   6.124 -0.7481  0.4458  2.3536
   61SAPC  C310 4817   5.813   4.107   5.993  0.0223  0.2089  0.2149
   61SAPC  H10X 4818   5.894   4.033   5.976  0.9114  1.5951 -1.8305
   61SAPC  H10Y 4819   5.863   4.200   6.028 -0.8486  0.4448  0.8726
   61SAPC  C311 4820   5.728   4.137   5.871 -0.0962  0.0306 -0.2470
   61SAPC  H11X 4821   5.648   4.208   5.899  0.6466  0.1948  1.6157
   61SAPC  H11Y 4822   5.678   4.040   5.848 -0.2744 -0.0816  0.5538
   61SAPC  C312 4823   5.825   4.166   5.750  0.1573  0.6339  0.3662
   61SAPC  H12X 4824   5.897   4.082   5.748 -0.8208 -0.2043 -0.8874
   61SAPC  H12Y 4825   5.880   4.259   5.774 -0.9786  1.4014  0.0720
   61SAPC  C313 4826   5.752   4.191   5.618 -0.6995  0.1442 -0.4009
   61SAPC  H13X 4827   5.654   4.242   5.614 -1.5761 -1.4125 -4.4268
   61SAPC  H13Y 4828   5.732   4.084   5.592  2.8633 -0.3314 -1.7965
   61SAPC  C314 4829   5.844   4.270   5.516 -0.1292 -0.1251 -0.6119
   61SAPC  H14X 4830   5.932   4.212   5.481  0.6161  1.2402 -1.0738
   61SAPC  H14Y 4831   5.890   4.355   5.571 -1.2296 -0.7601  1.4065
   61SAPC  C315 4832   5.760   4.317   5.401  0.2283  0.5699  0.3784
   61SAPC  H15X 4833   5.832   4.360   5.329  1.4124  0.9856  1.7716
   61SAPC  H15Y 4834   5.698   4.400   5.443  1.7194  0.7901  2.2758
   61SAPC  C316 4835   5.694   4.213   5.318  0.6495 -0.2521  0.3180
   61SAPC  H16X 4836   5.637   4.253   5.231  2.1506  1.4497  0.0683
   61SAPC  H16Y 4837   5.612   4.165   5.374 -0.3641 -0.2776 -1.1286
   61SAPC  C317 4838   5.788   4.098   5.284 -0.7076  0.2193  0.3908
   61SAPC  H17X 4839   5.853   4.071   5.370  1.2564  2.1952 -0.3784
   61SAPC  H17Y 4840   5.852   4.146   5.207 -0.4087 -1.1954 -0.2900
   61SAPC  C318 4841   5.722   3.979   5.224 -0.0494  0.3995  0.1268
   61SAPC  H18X 4842   5.658   4.013   5.139  0.6025 -0.8116 -0.8799
   61SAPC  H18Y 4843   5.649   3.941   5.299  0.1122  0.0005  0.0827
   61SAPC  H18Z 4844   5.788   3.893   5.198 -0.1593  0.2901  0.2114
   62SAPC     N 4845   1.451   0.331   7.516 -0.5588  0.6147  0.5917
   62SAPC   C12 4846   1.540   0.323   7.392  0.3772  0.6817 -0.3007
   62SAPC  H12A 4847   1.585   0.225   7.391  0.3454  0.6538  0.7332
   62SAPC  H12B 4848   1.625   0.390   7.402  0.0360  1.0490  0.1835
   62SAPC   C13 4849   1.513   0.265   7.640  0.2820 -0.1464  0.3156
   62SAPC  H13A 4850   1.615   0.300   7.640  0.5253 -0.6425  2.7710
   62SAPC  H13B 4851   1.454   0.286   7.728 -0.6270 -0.8268 -0.1133
   62SAPC  H13C 4852   1.522   0.158   7.622  0.0138 -0.0048 -0.6921
   62SAPC   C14 4853   1.431   0.477   7.554  0.0311  0.3317  0.5172
   62SAPC  H14A 4854   1.408   0.524   7.459 -0.8627 -1.5378 -0.2633
   62SAPC  H14B 4855   1.352   0.484   7.628 -0.3353 -1.7340  0.3871
   62SAPC  H14C 4856   1.520   0.506   7.606 -0.0861  2.0294 -0.1744
   62SAPC   C15 4857   1.319   0.269   7.502 -0.0585  0.1066 -0.1340
   62SAPC  H15A 4858   1.275   0.242   7.597  0.8387 -0.5213  0.1135
   62SAPC  H15B 4859   1.250   0.333   7.448 -1.4299  0.8923  2.3876
   62SAPC  H15C 4860   1.322   0.178   7.443 -0.2553 -1.1641  1.7291
   62SAPC   C11 4861   1.469   0.358   7.255  0.1421  0.1566 -0.2981
   62SAPC  H11A 4862   1.374   0.301   7.253  0.1152  0.2201 -1.0810
   62SAPC  H11B 4863   1.538   0.323   7.176  0.9882 -0.1010  0.5302
   62SAPC     P 4864   1.531   0.603   7.182 -0.0971  0.1442 -0.0770
   62SAPC   O13 4865   1.465   0.732   7.155 -0.1710 -0.4341  1.0490
   62SAPC   O14 4866   1.655   0.608   7.264 -0.0218 -0.3446 -0.2469
   62SAPC   O12 4867   1.437   0.495   7.243  0.3161  0.0774  0.3520
   62SAPC   O11 4868   1.572   0.544   7.042  0.3381 -0.0135 -0.0939
   62SAPC    C1 4869   1.460   0.538   6.952  0.0814 -0.3571 -0.4990
   62SAPC    HA 4870   1.372   0.491   7.001  0.8893  0.1210  1.4937
   62SAPC    HB 4871   1.424   0.636   6.914  0.3442  0.6944  1.8148
   62SAPC    C2 4872   1.491   0.443   6.825  0.3345 -0.0656 -0.1869
   62SAPC    HS 4873   1.545   0.496   6.743  1.3552  0.4722  0.8059
   62SAPC   O21 4874   1.360   0.401   6.787  0.1480  0.1045 -0.5612
   62SAPC   C21 4875   1.302   0.478   6.696  0.7375 -0.2195  0.0305
   62SAPC   O22 4876   1.344   0.584   6.654  0.5775  0.0856 -0.1043
   62SAPC   C22 4877   1.167   0.408   6.644  0.6297  0.4179 -1.1704
   62SAPC   H2R 4878   1.182   0.298   6.643  0.8012  0.3487  1.3112
   62SAPC   H2S 4879   1.087   0.430   6.719 -1.6636 -1.0040 -3.0658
   62SAPC    C3 4880   1.585   0.322   6.865  0.0294  0.0924 -0.3284
   62SAPC    HX 4881   1.554   0.272   6.959  2.7452 -0.9631  0.1004
   62SAPC    HY 4882   1.690   0.355   6.880 -0.2345  1.1073 -0.6219
   62SAPC   O31 4883   1.587   0.224   6.761 -0.3623 -0.6127  0.3590
   62SAPC   C31 4884   1.505   0.121   6.761 -0.3826  0.8359  0.4533
   62SAPC   O32 4885   1.435   0.087   6.857 -0.0013 -0.6169  0.4709
   62SAPC   C32 4886   1.495   0.043   6.628 -0.3696 -0.0551 -0.3964
   62SAPC   H2X 4887   1.438  -0.052   6.639 -0.4967 -0.0135 -0.6890
   62SAPC   H2Y 4888   1.600   0.023   6.599 -0.3244 -0.1985 -0.1360
   62SAPC   C23 4889   1.112   0.470   6.510 -0.4885 -0.1474  0.4602
   62SAPC   H3R 4890   1.198   0.455   6.441  0.9805  0.2922  2.1132
   62SAPC   H3S 4891   1.107   0.580   6.526  1.7092  0.2929 -1.3802
   62SAPC   C24 4892   0.993   0.399   6.446 -0.7760  0.5649 -0.0229
   62SAPC   H4R 4893   0.918   0.371   6.523  0.7493  3.0931  2.5803
   62SAPC   H4S 4894   1.034   0.303   6.406  0.5862  0.7658  0.8382
   62SAPC   C25 4895   0.943   0.491   6.344  0.0983  0.8081  0.3223
   62SAPC   H5R 4896   0.929   0.590   6.390  0.5610 -0.0641  2.4900
   62SAPC   C26 4897   0.904   0.464   6.217 -0.1520  0.0219 -0.1124
   62SAPC   H6R 4898   0.866   0.554   6.166 -1.4738  0.5557  1.7021
   62SAPC   C27 4899   0.930   0.339   6.128  0.3392  0.4472 -0.1020
   62SAPC   H7R 4900   0.830   0.295   6.107 -0.8362  2.9940 -0.2067
   62SAPC   H7S 4901   0.986   0.263   6.188 -0.5774 -1.4874 -1.5853
   62SAPC   C28 4902   0.999   0.387   6.006  0.3527 -0.7780 -0.0095
   62SAPC   H8R 4903   1.102   0.417   6.030 -0.0777  2.1964 -1.4615
   62SAPC   C29 4904   0.957   0.378   5.881 -1.0302  0.6717 -0.6670
   62SAPC   H9R 4905   1.012   0.435   5.805 -1.2218  0.8275 -0.6896
   62SAPC  C210 4906   0.817   0.330   5.838 -0.5321 -0.4265  0.0674
   62SAPC  H10R 4907   0.761   0.426   5.841 -0.8512 -0.6381  1.1259
   62SAPC  H10S 4908   0.765   0.251   5.896 -0.3220 -0.5894  0.0355
   62SAPC  C211 4909   0.819   0.279   5.694 -0.8093 -0.2645  0.0938
   62SAPC  H11R 4910   0.874   0.185   5.681 -0.0751  0.3008 -1.0084
   62SAPC  C212 4911   0.777   0.346   5.587 -0.0195 -0.1862 -0.4299
   62SAPC  H12R 4912   0.798   0.307   5.486 -0.3597 -0.5066 -0.3782
   62SAPC  C213 4913   0.714   0.482   5.584  0.3624 -0.1764 -0.6097
   62SAPC  H13R 4914   0.768   0.546   5.657  0.5691  0.2246 -1.1104
   62SAPC  H13S 4915   0.608   0.474   5.617  0.9047 -0.5159  1.1304
   62SAPC  C214 4916   0.699   0.555   5.455  0.3872  0.5040 -0.2907
   62SAPC  H14R 4917   0.761   0.646   5.453  0.9163  0.1710  0.4294
   62SAPC  C215 4918   0.607   0.531   5.359  0.4067 -0.0950  0.4021
   62SAPC  H15R 4919   0.595   0.602   5.276  0.6478  1.6349  1.7825
   62SAPC  C216 4920   0.523   0.408   5.351  0.1011  0.6415  0.2175
   62SAPC  H16R 4921   0.416   0.434   5.343 -0.4934 -1.1594  1.7188
   62SAPC  H16S 4922   0.526   0.338   5.437 -2.1947 -0.5042 -0.5599
   62SAPC  C217 4923   0.560   0.305   5.240 -0.5689  0.4001  0.2036
   62SAPC  H17R 4924   0.481   0.227   5.239  0.1674 -0.3399 -0.4480
   62SAPC  H17S 4925   0.655   0.251   5.261  0.4417  2.4517  1.3089
   62SAPC  C218 4926   0.565   0.351   5.095  0.0469 -0.5661 -0.1741
   62SAPC  H18R 4927   0.654   0.416   5.081 -0.7263  0.5314 -0.0077
   62SAPC  H18S 4928   0.467   0.402   5.086  0.3410 -0.2096 -1.6941
   62SAPC  C219 4929   0.567   0.240   4.988 -0.2059  0.6703  0.3148
   62SAPC  H19R 4930   0.474   0.181   4.974 -0.3698  0.2702  2.7369
   62SAPC  H19S 4931   0.642   0.165   5.019  1.1541  1.6011 -0.6032
   62SAPC  C220 4932   0.612   0.286   4.847  0.4395  0.0237 -0.4865
   62SAPC  H20R 4933   0.659   0.205   4.787  0.5891  1.2940 -2.1589
   62SAPC  H20S 4934   0.679   0.375   4.848 -1.3692  1.4852  1.9226
   62SAPC  H20T 4935   0.531   0.329   4.784 -0.9267  1.9188  2.3400
   62SAPC   C33 4936   1.429   0.127   6.519  0.2598  0.0195  0.4677
   62SAPC   H3X 4937   1.497   0.214   6.504  1.2490 -0.4945  1.7620
   62SAPC   H3Y 4938   1.335   0.179   6.546  1.1639  2.3098 -0.5423
   62SAPC   C34 4939   1.419   0.044   6.391  0.5378 -0.2635  0.0177
   62SAPC   H4X 4940   1.347  -0.035   6.420  2.3059 -1.6371  0.8162
   62SAPC   H4Y 4941   1.516  -0.007   6.376  0.8600  0.8464 -2.1999
   62SAPC   C35 4942   1.363   0.128   6.277  0.4907  0.2784 -0.2579
   62SAPC   H5X 4943   1.415   0.224   6.254 -0.1326  0.1788 -2.2768
   62SAPC   H5Y 4944   1.270   0.167   6.322  0.8160  0.2401  0.4569
   62SAPC   C36 4945   1.342   0.047   6.148 -0.0724  0.0991  0.4893
   62SAPC   H6X 4946   1.292  -0.051   6.166  0.1350 -0.5569 -2.0417
   62SAPC   H6Y 4947   1.442   0.023   6.105 -0.4533  3.2614 -2.5733
   62SAPC   C37 4948   1.285   0.133   6.035  0.6179 -0.5957 -0.2620
   62SAPC   H7X 4949   1.348   0.224   6.028  0.5139 -0.5804 -1.1578
   62SAPC   H7Y 4950   1.181   0.171   6.047  2.1559  4.0088  0.2858
   62SAPC   C38 4951   1.293   0.058   5.898 -0.1692  0.1473 -0.1366
   62SAPC   H8X 4952   1.228  -0.031   5.902 -1.4920  1.1136  0.5619
   62SAPC   H8Y 4953   1.396   0.016   5.891 -0.1328  0.4049 -1.3175
   62SAPC   C39 4954   1.253   0.146   5.774  0.0095  0.1476  0.0227
   62SAPC   H9X 4955   1.327   0.228   5.759 -1.0353  1.0835 -0.1757
   62SAPC   H9Y 4956   1.151   0.184   5.796 -0.4980 -1.2217  0.0920
   62SAPC  C310 4957   1.234   0.065   5.646 -0.4512 -0.2221 -0.2323
   62SAPC  H10X 4958   1.166  -0.022   5.660 -1.7693  0.9643  1.1323
   62SAPC  H10Y 4959   1.336   0.029   5.621 -0.1047  0.4562  0.1747
   62SAPC  C311 4960   1.194   0.152   5.526  0.5307 -0.1564 -0.4888
   62SAPC  H11X 4961   1.257   0.244   5.528  1.7962 -0.9769  1.1942
   62SAPC  H11Y 4962   1.088   0.177   5.548  0.0455 -2.0337 -0.5203
   62SAPC  C312 4963   1.172   0.073   5.397 -0.2328  0.1960 -0.8893
   62SAPC  H12X 4964   1.141  -0.028   5.430  0.7868  0.9792  2.8342
   62SAPC  H12Y 4965   1.269   0.053   5.347 -1.6501 -2.8831 -2.7161
   62SAPC  C313 4966   1.074   0.134   5.300 -0.1092  0.3330  0.0012
   62SAPC  H13X 4967   0.977   0.148   5.353  0.8678 -0.5062  2.1226
   62SAPC  H13Y 4968   1.060   0.054   5.224  0.0782  0.1579  0.1510
   62SAPC  C314 4969   1.111   0.258   5.217  1.0242 -0.2822 -0.2395
   62SAPC  H14X 4970   1.193   0.235   5.146  1.1208  1.3993 -0.7345
   62SAPC  H14Y 4971   1.142   0.327   5.298 -1.9371  0.3372  0.5000
   62SAPC  C315 4972   0.993   0.314   5.137  0.3375  0.4265  0.0263
   62SAPC  H15X 4973   0.902   0.343   5.193  0.5386  0.0642  0.5444
   62SAPC  H15Y 4974   0.975   0.247   5.050 -0.0164 -0.0441  0.4503
   62SAPC  C316 4975   1.019   0.450   5.074  0.4783  0.6101 -0.4358
   62SAPC  H16X 4976   1.114   0.444   5.017  0.1973 -1.5091 -0.7565
   62SAPC  H16Y 4977   1.034   0.516   5.162  0.0955 -1.8332  1.5475
   62SAPC  C317 4978   0.910   0.501   4.976  0.6685 -0.4381  0.6824
   62SAPC  H17X 4979   0.815   0.445   4.984 -1.4932  2.4898 -1.9824
   62SAPC  H17Y 4980   0.945   0.503   4.871  4.1069  0.9368  1.6859
   62SAPC  C318 4981   0.878   0.649   5.002  0.5495  0.6728  0.2047
   62SAPC  H18X 4982   0.958   0.716   4.963 -0.3455  0.8840 -1.3939
   62SAPC  H18Y 4983   0.861   0.677   5.108 -0.2662  0.3953  0.1487
   62SAPC  H18Z 4984   0.781   0.662   4.949  1.1390 -0.7440 -1.3073
   63SAPC     N 4985   2.340   4.112   7.531  0.3446  0.3705 -0.2283
   63SAPC   C12 4986   2.333   4.043   7.395  0.7314 -0.6422  0.3002
   63SAPC  H12A 4987   2.321   3.938   7.419 -0.3672 -1.0083 -1.6367
   63SAPC  H12B 4988   2.430   4.053   7.351  1.0133 -1.2926  0.7570
   63SAPC   C13 4989   2.216   4.089   7.611  0.3177 -0.0317  0.0834
   63SAPC  H13A 4990   2.134   4.131   7.554 -0.7641 -1.5111  0.4754
   63SAPC  H13B 4991   2.203   3.983   7.621  0.5682 -0.0459  0.2739
   63SAPC  H13C 4992   2.231   4.138   7.706  0.5591  1.6535 -0.7805
   63SAPC   C14 4993   2.450   4.050   7.599  0.0346  0.5433 -0.5683
   63SAPC  H14A 4994   2.547   4.064   7.555  0.2588 -0.6173 -0.4658
   63SAPC  H14B 4995   2.456   4.101   7.694 -0.2512  0.0270 -0.2682
   63SAPC  H14C 4996   2.433   3.944   7.615 -2.2876  0.9813  0.2655
   63SAPC   C15 4997   2.368   4.256   7.517  0.1515  0.0647 -0.4616
   63SAPC  H15A 4998   2.410   4.302   7.605  0.0411  1.3918 -1.0723
   63SAPC  H15B 4999   2.429   4.291   7.435  2.3716  0.5731  1.3207
   63SAPC  H15C 5000   2.268   4.297   7.514  0.1944  0.1546 -0.6861
   63SAPC   C11 5001   2.213   4.076   7.299  0.0987  0.1609  0.0159
   63SAPC  H11A 5002   2.238   4.005   7.217 -0.1739  0.8474 -0.6798
   63SAPC  H11B 5003   2.232   4.175   7.251  0.3649 -0.6269 -1.5887
   63SAPC     P 5004   1.974   3.964   7.294  0.2931 -0.0635 -0.4082
   63SAPC   O13 5005   2.024   3.834   7.329 -0.3288  0.0387  0.1650
   63SAPC   O14 5006   1.841   4.008   7.346  0.3571  0.5217 -0.3836
   63SAPC   O12 5007   2.080   4.070   7.344 -0.2088 -0.1295  0.0417
   63SAPC   O11 5008   1.966   3.971   7.137  0.6329  0.0479  0.1541
   63SAPC    C1 5009   1.942   4.093   7.064 -0.4546  0.5495  0.7479
   63SAPC    HA 5010   1.933   4.181   7.132 -1.5924 -0.0782  1.4293
   63SAPC    HB 5011   2.036   4.105   7.006 -0.8405  0.7281  0.1504
   63SAPC    C2 5012   1.819   4.084   6.972 -0.4977  0.2796 -0.1854
   63SAPC    HS 5013   1.726   4.054   7.023 -0.2783  0.2487  0.1982
   63SAPC   O21 5014   1.850   3.994   6.863  0.0706  0.0843 -0.3007
   63SAPC   C21 5015   1.824   3.867   6.890 -0.3170 -0.2897 -0.5511
   63SAPC   O22 5016   1.743   3.827   6.976 -0.4617 -0.5503 -0.2755
   63SAPC   C22 5017   1.900   3.788   6.780 -0.7583 -0.4765  0.4606
   63SAPC   H2R 5018   1.905   3.856   6.692  0.8775  0.1488  1.0001
   63SAPC   H2S 5019   2.002   3.769   6.818 -1.0591  0.4798  1.8286
   63SAPC    C3 5020   1.786   4.228   6.913  0.5895 -0.4485  0.0820
   63SAPC    HX 5021   1.880   4.271   6.872 -0.4435  0.9727 -0.9049
   63SAPC    HY 5022   1.763   4.288   7.004  0.1240 -0.8392  0.2238
   63SAPC   O31 5023   1.679   4.240   6.819 -0.1322 -1.0580  0.7770
   63SAPC   C31 5024   1.559   4.203   6.870  0.0142  0.2084  0.2016
   63SAPC   O32 5025   1.533   4.169   6.981 -0.0265  0.0516 -0.1378
   63SAPC   C32 5026   1.461   4.205   6.752  0.4225 -0.0186 -0.2658
   63SAPC   H2X 5027   1.377   4.135   6.772  1.1978 -0.5324  1.4204
   63SAPC   H2Y 5028   1.509   4.164   6.660 -1.8848  0.3282 -1.6899
   63SAPC   C23 5029   1.828   3.657   6.752  0.1799 -0.4761 -0.6898
   63SAPC   H3R 5030   1.779   3.638   6.850 -0.6705 -0.1355 -1.0415
   63SAPC   H3S 5031   1.896   3.570   6.744 -0.5326 -1.0912 -0.1103
   63SAPC   C24 5032   1.715   3.656   6.644 -1.1104 -0.1835 -0.8274
   63SAPC   H4R 5033   1.625   3.710   6.682 -0.4597  0.1969  0.2357
   63SAPC   H4S 5034   1.696   3.547   6.637  1.3421 -0.7394 -0.0069
   63SAPC   C25 5035   1.759   3.707   6.505  0.8018  0.5715 -0.0992
   63SAPC   H5R 5036   1.817   3.631   6.450  1.0659  0.9780 -0.3877
   63SAPC   C26 5037   1.742   3.827   6.455 -0.8490  0.6745  0.6198
   63SAPC   H6R 5038   1.785   3.847   6.356 -0.7934 -1.4791  0.1472
   63SAPC   C27 5039   1.684   3.952   6.514 -0.1448  0.0504  0.0919
   63SAPC   H7R 5040   1.650   3.951   6.620  0.5624 -0.0148  0.3216
   63SAPC   H7S 5041   1.588   3.959   6.458 -0.3218 -0.0947  0.3711
   63SAPC   C28 5042   1.770   4.073   6.497  0.0878 -0.5670 -0.2701
   63SAPC   H8R 5043   1.835   4.097   6.582 -1.5030 -0.9059  1.0782
   63SAPC   C29 5044   1.761   4.166   6.401  0.3047  0.2976  0.3094
   63SAPC   H9R 5045   1.815   4.260   6.419 -1.8297  1.6664 -0.0918
   63SAPC  C210 5046   1.676   4.167   6.274 -0.7500 -0.6245 -0.1225
   63SAPC  H10R 5047   1.699   4.261   6.221  1.6366 -1.6507 -1.0411
   63SAPC  H10S 5048   1.567   4.168   6.297 -0.3465 -0.1827  2.0140
   63SAPC  C211 5049   1.695   4.048   6.184  0.1451  0.6260 -0.0122
   63SAPC  H11R 5050   1.782   3.984   6.206  1.4059  2.4150  0.5014
   63SAPC  C212 5051   1.634   4.026   6.068  0.6335  0.3488  0.1382
   63SAPC  H12R 5052   1.675   3.947   6.004 -0.6134 -1.6997  1.7545
   63SAPC  C213 5053   1.529   4.120   6.006  0.2487  0.4403 -0.7673
   63SAPC  H13R 5054   1.570   4.157   5.910  2.8706  1.3593  0.6068
   63SAPC  H13S 5055   1.515   4.212   6.066 -0.4851 -0.7486  0.9606
   63SAPC  C214 5056   1.393   4.060   5.987 -0.3373  0.1696 -0.0852
   63SAPC  H14R 5057   1.349   4.002   6.070 -0.0884 -1.2025 -0.8827
   63SAPC  C215 5058   1.306   4.096   5.887  0.3285 -0.6138  0.2670
   63SAPC  H15R 5059   1.203   4.060   5.882  0.1720 -0.0250 -2.5118
   63SAPC  C216 5060   1.326   4.182   5.759 -0.7372  0.3409  0.4184
   63SAPC  H16R 5061   1.435   4.179   5.736 -1.0675 -0.5279 -1.2079
   63SAPC  H16S 5062   1.286   4.286   5.762 -0.9627  0.3731 -1.7480
   63SAPC  C217 5063   1.261   4.121   5.630 -0.0088  1.0384 -0.6994
   63SAPC  H17R 5064   1.150   4.114   5.641 -0.1230 -0.7470 -2.4386
   63SAPC  H17S 5065   1.289   4.015   5.610  1.9761  1.1921  0.9985
   63SAPC  C218 5066   1.297   4.214   5.521 -0.0302  0.2766  0.6382
   63SAPC  H18R 5067   1.407   4.224   5.523 -0.0347  0.4860  3.0322
   63SAPC  H18S 5068   1.258   4.315   5.548 -0.6895  0.2254 -0.0811
   63SAPC  C219 5069   1.236   4.185   5.383 -0.0115 -0.0958  0.0812
   63SAPC  H19R 5070   1.285   4.091   5.349 -0.1144 -0.3164  0.5494
   63SAPC  H19S 5071   1.261   4.270   5.315 -1.3348  2.1215  2.2187
   63SAPC  C220 5072   1.086   4.178   5.384 -0.1326  0.2456 -0.7094
   63SAPC  H20R 5073   1.043   4.198   5.283  1.2754 -0.1003 -1.4010
   63SAPC  H20S 5074   1.042   4.259   5.447 -1.9013 -1.1764 -0.0382
   63SAPC  H20T 5075   1.053   4.078   5.420  0.9518  0.2119  0.2287
   63SAPC   C33 5076   1.413   4.342   6.714  0.6583 -0.1655  0.6676
   63SAPC   H3X 5077   1.504   4.405   6.705 -0.6358  1.8882  1.4137
   63SAPC   H3Y 5078   1.351   4.399   6.786  1.2919  5.0739 -2.4501
   63SAPC   C34 5079   1.342   4.353   6.579 -0.3036 -0.2894  0.3824
   63SAPC   H4X 5080   1.243   4.303   6.589  0.5334 -2.0267  0.3833
   63SAPC   H4Y 5081   1.403   4.309   6.497  1.2868  0.9809  0.8383
   63SAPC   C35 5082   1.299   4.499   6.559 -0.1145 -0.3470  0.4869
   63SAPC   H5X 5083   1.392   4.558   6.542 -0.2236 -0.0703  0.8418
   63SAPC   H5Y 5084   1.248   4.530   6.653 -1.5091  0.4012 -0.4714
   63SAPC   C36 5085   1.188   4.530   6.444 -0.1819 -0.1461 -0.0346
   63SAPC   H6X 5086   1.130   4.613   6.488  1.4318  0.4354  1.1095
   63SAPC   H6Y 5087   1.122   4.441   6.437 -0.3179  0.0508 -2.1406
   63SAPC   C37 5088   1.259   4.545   6.306  0.5781  0.4583  0.5507
   63SAPC   H7X 5089   1.308   4.453   6.268  2.3303  1.1558  1.0290
   63SAPC   H7Y 5090   1.344   4.616   6.308  1.7538 -0.8953  1.9058
   63SAPC   C38 5091   1.150   4.598   6.208 -0.2450 -0.5652 -0.1365
   63SAPC   H8X 5092   1.117   4.701   6.233  2.9108  0.5343  0.0335
   63SAPC   H8Y 5093   1.066   4.527   6.222 -0.3063 -0.2580  1.2332
   63SAPC   C39 5094   1.195   4.570   6.067 -0.5644  0.4205  0.0462
   63SAPC   H9X 5095   1.200   4.461   6.049  0.9297  0.5228 -0.2807
   63SAPC   H9Y 5096   1.296   4.615   6.057 -0.5260  0.2492 -0.3327
   63SAPC  C310 5097   1.104   4.639   5.961  0.4020 -0.0685 -0.5095
   63SAPC  H10X 5098   1.111   4.749   5.966 -0.2630  0.0303 -1.4987
   63SAPC  H10Y 5099   1.002   4.599   5.975 -0.5759  2.0589 -1.2397
   63SAPC  C311 5100   1.154   4.594   5.820 -0.7523 -0.4040 -0.3566
   63SAPC  H11X 5101   1.154   4.484   5.807  4.3595 -0.5089 -1.3308
   63SAPC  H11Y 5102   1.260   4.622   5.805 -0.7110 -0.3476  0.0301
   63SAPC  C312 5103   1.065   4.647   5.698  0.1895  0.2301 -0.6186
   63SAPC  H12X 5104   1.126   4.715   5.636  0.8991 -1.7932 -2.2859
   63SAPC  H12Y 5105   0.991   4.704   5.757  0.4825  0.6161 -0.6258
   63SAPC  C313 5106   1.019   4.533   5.612  0.2280  0.2620 -0.3841
   63SAPC  H13X 5107   0.942   4.473   5.664  0.4164 -0.4088 -0.8620
   63SAPC  H13Y 5108   1.102   4.462   5.594 -0.8376 -1.0119 -0.4598
   63SAPC  C314 5109   0.965   4.566   5.469 -0.8838  0.1084 -0.3726
   63SAPC  H14X 5110   0.901   4.657   5.469  1.5363  1.9676 -2.7439
   63SAPC  H14Y 5111   0.911   4.476   5.434  0.8989 -0.8457 -0.7782
   63SAPC  C315 5112   1.065   4.614   5.370  0.0408 -0.3290  0.9900
   63SAPC  H15X 5113   1.151   4.544   5.363  0.7204  0.5929 -0.7076
   63SAPC  H15Y 5114   1.111   4.709   5.404 -1.3090 -0.6106  3.8664
   63SAPC  C316 5115   1.021   4.637   5.227  0.2128 -0.0589  0.0038
   63SAPC  H16X 5116   0.951   4.724   5.224 -1.0223 -1.0511 -1.0087
   63SAPC  H16Y 5117   0.961   4.552   5.189  1.3025 -0.5720 -0.6104
   63SAPC  C317 5118   1.139   4.668   5.137 -0.2301 -0.1566 -0.1761
   63SAPC  H17X 5119   1.230   4.609   5.160  0.4344  0.8583 -0.1128
   63SAPC  H17Y 5120   1.170   4.769   5.171 -1.9052  0.8007 -1.3859
   63SAPC  C318 5121   1.108   4.675   4.989  0.2744  0.5902 -0.6439
   63SAPC  H18X 5122   1.189   4.721   4.928 -1.0742  0.4116 -2.6720
   63SAPC  H18Y 5123   1.012   4.728   4.971 -1.2671 -2.1979 -1.2859
   63SAPC  H18Z 5124   1.107   4.576   4.939  2.7852 -0.3712  1.0131
   64SAPC     N 5125   1.490   6.297   7.289 -0.7709 -0.4693  0.1491
   64SAPC   C12 5126   1.620   6.222   7.253  0.6469  1.1185  0.7487
   64SAPC  H12A 5127   1.591   6.136   7.194 -1.1285  2.1957 -0.0291
   64SAPC  H12B 5128   1.660   6.189   7.348  0.1688  0.1692  0.6248
   64SAPC   C13 5129   1.403   6.317   7.167  0.1230 -0.3845  0.1606
   64SAPC  H13A 5130   1.459   6.365   7.089 -0.1163  0.9096  0.7711
   64SAPC  H13B 5131   1.383   6.219   7.127 -0.4827 -0.1552 -0.1093
   64SAPC  H13C 5132   1.307   6.364   7.185 -0.5454 -1.5993 -0.1046
   64SAPC   C14 5133   1.419   6.221   7.401 -0.0437  0.2808  0.0493
   64SAPC  H14A 5134   1.337   6.285   7.430  0.2008  0.3550  0.5936
   64SAPC  H14B 5135   1.380   6.125   7.369 -0.5783  0.8310 -0.9722
   64SAPC  H14C 5136   1.490   6.208   7.481  1.7532  0.8340 -1.4019
   64SAPC   C15 5137   1.532   6.430   7.340  0.8360 -0.1251 -0.3929
   64SAPC  H15A 5138   1.453   6.495   7.372  0.4736  1.3864 -3.8351
   64SAPC  H15B 5139   1.592   6.414   7.428 -0.9083  1.9899  1.2990
   64SAPC  H15C 5140   1.596   6.488   7.275  1.5425 -0.6143 -0.1470
   64SAPC   C11 5141   1.727   6.281   7.161  0.3256 -0.3392 -0.5683
   64SAPC  H11A 5142   1.663   6.305   7.074 -1.1331  1.0176  0.7983
   64SAPC  H11B 5143   1.813   6.211   7.150  0.2990 -0.2664 -1.2517
   64SAPC     P 5144   1.907   6.437   7.274  0.3760 -0.4907 -0.2386
   64SAPC   O13 5145   1.923   6.586   7.285 -0.4548  0.5755 -0.7753
   64SAPC   O14 5146   1.909   6.368   7.397  0.0201 -0.4991 -0.8378
   64SAPC   O12 5147   1.771   6.413   7.203 -0.3622 -0.1999  0.5823
   64SAPC   O11 5148   2.016   6.374   7.178  0.3298 -0.5409  0.2744
   64SAPC    C1 5149   2.080   6.447   7.077  0.3469 -0.4763 -0.0968
   64SAPC    HA 5150   2.101   6.552   7.106 -2.1667 -0.0916  0.6230
   64SAPC    HB 5151   2.178   6.398   7.059  0.6976  0.2637 -0.2095
   64SAPC    C2 5152   1.985   6.451   6.956  0.5827  0.1417 -0.1857
   64SAPC    HS 5153   1.886   6.486   6.992 -0.6637 -1.9804 -1.3155
   64SAPC   O21 5154   1.970   6.318   6.904  0.2598  0.2075  0.3664
   64SAPC   C21 5155   1.859   6.286   6.843 -0.8673  0.0671  0.1991
   64SAPC   O22 5156   1.766   6.363   6.817 -0.4659  0.2610 -0.2719
   64SAPC   C22 5157   1.863   6.136   6.816  0.4819  0.1478  0.0392
   64SAPC   H2R 5158   1.935   6.086   6.885 -0.2139  0.7922  1.2731
   64SAPC   H2S 5159   1.761   6.095   6.828 -0.3983  0.9703 -3.5004
   64SAPC    C3 5160   2.038   6.531   6.832  0.8163 -0.7764 -0.6726
   64SAPC    HX 5161   2.040   6.641   6.848  2.2469 -1.0095  1.0841
   64SAPC    HY 5162   1.966   6.502   6.753 -0.0225 -1.1932  0.2215
   64SAPC   O31 5163   2.166   6.484   6.794  0.1007  0.0547 -0.6231
   64SAPC   C31 5164   2.265   6.573   6.775 -0.4533 -0.1671  0.2223
   64SAPC   O32 5165   2.265   6.695   6.796 -0.1067  0.3225 -0.2615
   64SAPC   C32 5166   2.390   6.507   6.701  0.6688 -0.3540 -0.2500
   64SAPC   H2X 5167   2.428   6.427   6.768  0.2066 -0.8573 -0.5736
   64SAPC   H2Y 5168   2.465   6.588   6.714 -0.3740  0.8050 -1.1205
   64SAPC   C23 5169   1.895   6.117   6.667  0.2569  1.5078 -0.1691
   64SAPC   H3R 5170   1.810   6.156   6.608 -1.9854  0.0628  1.8669
   64SAPC   H3S 5171   1.897   6.007   6.654 -0.2524  1.3244  1.1044
   64SAPC   C24 5172   2.025   6.178   6.617 -0.0167  0.2389 -1.0461
   64SAPC   H4R 5173   2.112   6.158   6.684 -1.1653 -0.8170  0.1880
   64SAPC   H4S 5174   2.014   6.287   6.640 -2.1573 -0.2287  0.4914
   64SAPC   C25 5175   2.060   6.141   6.479 -0.8961  0.1965 -0.5496
   64SAPC   H5R 5176   2.119   6.049   6.467  1.0026  1.1011  1.3200
   64SAPC   C26 5177   2.032   6.211   6.367 -1.2424  0.6858 -0.7750
   64SAPC   H6R 5178   2.074   6.183   6.269 -1.4848  2.5812 -1.4687
   64SAPC   C27 5179   1.969   6.352   6.367 -0.1227  1.5529  0.1696
   64SAPC   H7R 5180   1.989   6.408   6.273 -2.0523  0.6132 -0.8555
   64SAPC   H7S 5181   2.016   6.411   6.449  0.4247  0.5199  0.6109
   64SAPC   C28 5182   1.815   6.362   6.372 -0.6152 -0.2763  0.0451
   64SAPC   H8R 5183   1.782   6.340   6.474  2.5551 -0.8002  1.0848
   64SAPC   C29 5184   1.724   6.370   6.274  0.3571  0.4915  0.1574
   64SAPC   H9R 5185   1.620   6.400   6.294  0.0307  1.3515 -2.5151
   64SAPC  C210 5186   1.758   6.374   6.124  0.1924  0.3427 -0.4026
   64SAPC  H10R 5187   1.868   6.367   6.112  0.8244  2.7850  2.5753
   64SAPC  H10S 5188   1.741   6.478   6.090 -2.1366  0.0614 -0.2874
   64SAPC  C211 5189   1.669   6.283   6.039  0.3207 -0.0035  0.4879
   64SAPC  H11R 5190   1.593   6.226   6.095 -1.8516  0.8651 -1.4412
   64SAPC  C212 5191   1.679   6.270   5.905 -0.7431  0.0684  0.0395
   64SAPC  H12R 5192   1.610   6.199   5.858 -0.6140 -1.9651  2.7056
   64SAPC  C213 5193   1.787   6.328   5.809  0.2668  0.0061 -0.3599
   64SAPC  H13R 5194   1.853   6.243   5.778  2.7750  2.1728 -1.3452
   64SAPC  H13S 5195   1.848   6.407   5.857 -0.9422  1.5572 -1.3071
   64SAPC  C214 5196   1.730   6.394   5.679 -0.5516 -0.0561 -0.0788
   64SAPC  H14R 5197   1.627   6.431   5.677 -0.2679  0.7200 -1.0973
   64SAPC  C215 5198   1.793   6.420   5.567  0.4270 -0.1035 -0.1248
   64SAPC  H15R 5199   1.734   6.482   5.497 -0.5913  1.7975  2.2836
   64SAPC  C216 5200   1.928   6.355   5.532 -0.1916 -0.2308  0.0016
   64SAPC  H16R 5201   1.944   6.255   5.579  1.9434 -0.1750 -0.4826
   64SAPC  H16S 5202   2.011   6.423   5.562 -2.0204  1.1758  2.1922
   64SAPC  C217 5203   1.954   6.314   5.385  0.2617 -0.2883 -0.0016
   64SAPC  H17R 5204   1.904   6.221   5.350  0.7848 -0.5688 -0.0169
   64SAPC  H17S 5205   2.059   6.290   5.359  0.0844 -1.5279  0.3569
   64SAPC  C218 5206   1.913   6.430   5.292  0.0393  0.7375  0.2721
   64SAPC  H18R 5207   1.987   6.513   5.302  1.5957 -0.1775 -2.5006
   64SAPC  H18S 5208   1.810   6.462   5.317 -0.1946 -1.2945  2.2946
   64SAPC  C219 5209   1.909   6.386   5.140  0.1899 -0.0738  0.0629
   64SAPC  H19R 5210   1.998   6.319   5.131  0.3937 -0.1092  1.9492
   64SAPC  H19S 5211   1.914   6.474   5.072  0.0275  0.1722  0.3676
   64SAPC  C220 5212   1.781   6.309   5.124  0.2499 -0.7047 -0.2630
   64SAPC  H20R 5213   1.768   6.268   5.022 -0.8703 -1.8248  0.2952
   64SAPC  H20S 5214   1.692   6.372   5.147 -1.0284 -2.7848  0.7242
   64SAPC  H20T 5215   1.781   6.221   5.192  0.6271 -0.8164 -0.4073
   64SAPC   C33 5216   2.372   6.469   6.556 -0.3101  0.8174 -0.0489
   64SAPC   H3X 5217   2.287   6.399   6.550 -0.1940  0.4133  2.0243
   64SAPC   H3Y 5218   2.460   6.409   6.525 -1.1861 -0.0359 -0.9167
   64SAPC   C34 5219   2.347   6.589   6.460  0.2487 -0.4691  0.5398
   64SAPC   H4X 5220   2.438   6.650   6.441  0.7470 -0.8105  1.7170
   64SAPC   H4Y 5221   2.280   6.669   6.498 -0.1081 -0.7175  0.4336
   64SAPC   C35 5222   2.292   6.545   6.326  0.2947  0.1448  0.1401
   64SAPC   H5X 5223   2.190   6.588   6.315  0.2629 -0.4287 -2.2984
   64SAPC   H5Y 5224   2.286   6.434   6.317  2.2206  0.0633 -0.5165
   64SAPC   C36 5225   2.382   6.582   6.205  0.5127  0.2164 -0.1714
   64SAPC   H6X 5226   2.484   6.549   6.233  0.3119  0.3112  0.7243
   64SAPC   H6Y 5227   2.386   6.693   6.200 -4.3877  0.5751 -3.3201
   64SAPC   C37 5228   2.343   6.512   6.071 -0.4595 -0.8153 -0.2188
   64SAPC   H7X 5229   2.337   6.402   6.085  0.5219 -0.6795  1.4959
   64SAPC   H7Y 5230   2.432   6.541   6.012  0.0242  0.4022  1.0624
   64SAPC   C38 5231   2.226   6.570   5.988 -0.7810  0.1805 -0.4156
   64SAPC   H8X 5232   2.241   6.678   5.967  1.3572 -0.0659 -0.4160
   64SAPC   H8Y 5233   2.128   6.562   6.040 -0.3841  0.2911  0.3620
   64SAPC   C39 5234   2.215   6.493   5.858  0.4173  0.3151  0.0747
   64SAPC   H9X 5235   2.122   6.518   5.802  1.1997 -1.4439 -2.1118
   64SAPC   H9Y 5236   2.200   6.384   5.871 -1.7710  0.5692  0.0444
   64SAPC  C310 5237   2.341   6.517   5.765 -0.0272 -0.0516  0.3521
   64SAPC  H10X 5238   2.434   6.482   5.815  0.6343 -0.6577 -1.2125
   64SAPC  H10Y 5239   2.353   6.624   5.737  0.4881 -0.6157 -1.8328
   64SAPC  C311 5240   2.330   6.436   5.637  0.1502 -0.5252 -0.2543
   64SAPC  H11X 5241   2.232   6.463   5.592  0.7559  0.8469 -0.8043
   64SAPC  H11Y 5242   2.350   6.328   5.654  1.1351 -0.4352 -0.7541
   64SAPC  C312 5243   2.438   6.486   5.539  0.0870  0.2307 -0.3000
   64SAPC  H12X 5244   2.542   6.473   5.575 -0.1309 -0.5807  0.0545
   64SAPC  H12Y 5245   2.409   6.594   5.535 -0.0527  0.3822  2.6148
   64SAPC  C313 5246   2.429   6.419   5.403  0.2757 -0.4763  0.1625
   64SAPC  H13X 5247   2.425   6.308   5.408  1.3094 -0.7348 -2.7906
   64SAPC  H13Y 5248   2.524   6.446   5.353 -0.2794 -1.1661 -1.3324
   64SAPC  C314 5249   2.321   6.474   5.304  0.0132 -0.3813 -0.0893
   64SAPC  H14X 5250   2.330   6.583   5.320  2.4950 -0.6445  0.7714
   64SAPC  H14Y 5251   2.226   6.437   5.347 -0.5882 -2.1370 -2.6454
   64SAPC  C315 5252   2.326   6.427   5.162  0.1310  0.1965  1.0913
   64SAPC  H15X 5253   2.429   6.449   5.127  0.0615 -1.4434 -0.2813
   64SAPC  H15Y 5254   2.252   6.477   5.096 -0.6893 -3.0945 -0.7511
   64SAPC  C316 5255   2.284   6.277   5.144  0.9730 -0.3313  0.1244
   64SAPC  H16X 5256   2.249   6.275   5.039  2.0207 -0.4355 -0.2406
   64SAPC  H16Y 5257   2.198   6.242   5.204  2.6155 -1.6883  1.8263
   64SAPC  C317 5258   2.403   6.182   5.145  0.6404  0.3298  0.0593
   64SAPC  H17X 5259   2.457   6.188   5.242 -0.8951 -1.7818  1.1272
   64SAPC  H17Y 5260   2.476   6.217   5.069  2.5779 -1.7325  0.8642
   64SAPC  C318 5261   2.363   6.036   5.111  0.3254  0.4495  0.6506
   64SAPC  H18X 5262   2.284   6.004   5.181  1.2222 -1.4763  0.8485
   64SAPC  H18Y 5263   2.442   5.960   5.131  0.5486  0.3802 -0.3940
   64SAPC  H18Z 5264   2.328   6.039   5.005  1.9695  0.7580  0.0783
   65SAPC     N 5265   6.615   6.742   2.135 -0.1562 -0.0305  0.1648
   65SAPC   C12 5266   6.494   6.829   2.134 -0.9234  0.4996 -0.1610
   65SAPC  H12A 5267   6.439   6.803   2.045  2.9431  1.2142 -3.0549
   65SAPC  H12B 5268   6.525   6.932   2.121  2.1796 -0.0488  1.7067
   65SAPC   C13 5269   6.694   6.775   2.015  0.1401  0.1144  0.6816
   65SAPC  H13A 5270   6.643   6.745   1.924  2.0700 -2.4540  0.3076
   65SAPC  H13B 5271   6.708   6.881   2.025 -0.0593  0.2225 -0.1121
   65SAPC  H13C 5272   6.790   6.725   2.011  1.3857  2.3788 -3.1699
   65SAPC   C14 5273   6.713   6.774   2.242 -0.0705 -0.1354  0.2440
   65SAPC  H14A 5274   6.684   6.735   2.339  1.1429 -3.5155 -0.6433
   65SAPC  H14B 5275   6.808   6.728   2.219 -0.3276 -0.9139  0.6916
   65SAPC  H14C 5276   6.720   6.882   2.248  0.8134 -0.0808 -1.3478
   65SAPC   C15 5277   6.582   6.592   2.130 -0.7136 -0.6111 -0.2067
   65SAPC  H15A 5278   6.496   6.568   2.190 -0.1774 -2.3120 -0.0715
   65SAPC  H15B 5279   6.543   6.563   2.033  0.8500  0.0310 -1.0615
   65SAPC  H15C 5280   6.671   6.534   2.151  0.2148  0.8567  0.0464
   65SAPC   C11 5281   6.414   6.822   2.266 -0.2081 -0.0052  0.0338
   65SAPC  H11A 5282   6.346   6.910   2.266 -2.3786 -1.4197  4.0780
   65SAPC  H11B 5283   6.481   6.829   2.355 -0.0481 -0.1672 -0.0731
   65SAPC     P 5284   6.264   6.663   2.410  0.2506 -0.1306  0.2542
   65SAPC   O13 5285   6.192   6.777   2.477 -0.0056  0.4154  0.2356
   65SAPC   O14 5286   6.182   6.552   2.368  0.1515 -0.3843 -0.4682
   65SAPC   O12 5287   6.332   6.709   2.275  0.1829 -0.1137 -0.2026
   65SAPC   O11 5288   6.387   6.616   2.498  0.1703  0.2328  0.0144
   65SAPC    C1 5289   6.463   6.501   2.495  0.3190  0.5603 -0.2892
   65SAPC    HA 5290   6.454   6.436   2.405  2.0105  1.2531 -0.9926
   65SAPC    HB 5291   6.561   6.547   2.519 -0.1744  0.3068  2.5286
   65SAPC    C2 5292   6.430   6.412   2.616  0.7648  0.2127 -0.2770
   65SAPC    HS 5293   6.322   6.394   2.602  0.3073  1.4789  1.3298
   65SAPC   O21 5294   6.454   6.492   2.734  0.3176 -0.1652  0.0206
   65SAPC   C21 5295   6.361   6.486   2.825 -0.5888  0.7185 -0.0075
   65SAPC   O22 5296   6.255   6.429   2.820  0.0010  0.5118 -0.1204
   65SAPC   C22 5297   6.402   6.589   2.930  0.3123 -0.6812 -0.5208
   65SAPC   H2R 5298   6.501   6.637   2.918  0.1212 -0.4578 -1.2133
   65SAPC   H2S 5299   6.329   6.673   2.937  0.6463 -0.3074 -1.5181
   65SAPC    C3 5300   6.506   6.277   2.630 -0.0460 -0.4894  0.3540
   65SAPC    HX 5301   6.607   6.315   2.655 -1.1227  1.5602  1.8879
   65SAPC    HY 5302   6.500   6.227   2.530  1.1209  0.0829 -0.0155
   65SAPC   O31 5303   6.457   6.197   2.737 -0.2020 -0.0590  0.9193
   65SAPC   C31 5304   6.539   6.104   2.800  0.0451 -0.5010 -0.0666
   65SAPC   O32 5305   6.658   6.114   2.805  0.1358  0.2632  0.3142
   65SAPC   C32 5306   6.453   6.010   2.881  0.2398  0.3779  0.6996
   65SAPC   H2X 5307   6.436   5.927   2.808  1.1093  0.4937  0.3485
   65SAPC   H2Y 5308   6.351   6.045   2.910 -0.0749  0.3263 -0.3038
   65SAPC   C23 5309   6.401   6.528   3.078  0.1309  0.2838  0.5005
   65SAPC   H3R 5310   6.479   6.588   3.129 -0.1981 -0.2661  1.7159
   65SAPC   H3S 5311   6.433   6.422   3.081  2.0826  0.8411  0.8530
   65SAPC   C24 5312   6.268   6.555   3.151 -0.1427  0.5794  0.2540
   65SAPC   H4R 5313   6.194   6.473   3.139  3.2499 -3.0415  1.7319
   65SAPC   H4S 5314   6.216   6.649   3.122 -1.9698 -0.5938 -0.4389
   65SAPC   C25 5315   6.297   6.535   3.297 -0.2794 -0.9839  0.0862
   65SAPC   H5R 5316   6.318   6.435   3.337  0.2545  0.4377  3.7402
   65SAPC   C26 5317   6.290   6.626   3.396 -0.7048 -0.7647  0.3553
   65SAPC   H6R 5318   6.315   6.594   3.498  3.0475 -2.9645 -1.0299
   65SAPC   C27 5319   6.269   6.778   3.373 -0.3409 -0.6862 -0.5934
   65SAPC   H7R 5320   6.208   6.821   3.455  0.2443  1.4416 -1.2287
   65SAPC   H7S 5321   6.211   6.796   3.280  0.6198 -0.0102 -1.0773
   65SAPC   C28 5322   6.398   6.861   3.367 -0.1961  0.8108  0.4769
   65SAPC   H8R 5323   6.420   6.850   3.260 -2.1062 -1.1741  0.2222
   65SAPC   C29 5324   6.467   6.926   3.463 -0.5490  0.2474  0.9968
   65SAPC   H9R 5325   6.563   6.970   3.432 -0.1312 -2.3418 -1.8293
   65SAPC  C210 5326   6.446   6.923   3.611  0.0389  0.2076 -0.1353
   65SAPC  H10R 5327   6.341   6.907   3.643  0.3731 -0.3241  0.7312
   65SAPC  H10S 5328   6.464   7.028   3.644  1.2098 -0.2639  0.8084
   65SAPC  C211 5329   6.543   6.823   3.680  0.3477  0.1277  0.0880
   65SAPC  H11R 5330   6.637   6.821   3.624 -0.2675  3.1600 -1.3082
   65SAPC  C212 5331   6.520   6.746   3.788  0.5236  0.0498 -0.9485
   65SAPC  H12R 5332   6.592   6.671   3.824  0.3511  0.9784  1.5266
   65SAPC  C213 5333   6.388   6.750   3.863 -0.1801  0.2182 -0.0369
   65SAPC  H13R 5334   6.304   6.730   3.793  1.2001 -2.7395 -1.0312
   65SAPC  H13S 5335   6.371   6.853   3.899  1.4952  0.7189 -0.5953
   65SAPC  C214 5336   6.380   6.654   3.979  0.3558 -0.6510  0.0776
   65SAPC  H14R 5337   6.329   6.560   3.955 -0.1848 -0.1687 -0.7491
   65SAPC  C215 5338   6.450   6.666   4.096  0.3301 -0.1039 -0.1251
   65SAPC  H15R 5339   6.442   6.588   4.173 -1.5761 -0.3862 -0.5420
   65SAPC  C216 5340   6.536   6.782   4.135  0.8116 -0.0560 -0.5866
   65SAPC  H16R 5341   6.535   6.861   4.056 -2.7293  0.5074 -0.1202
   65SAPC  H16S 5342   6.632   6.739   4.170  0.4892 -0.0019  0.3759
   65SAPC  C217 5343   6.482   6.864   4.255 -0.6034 -0.0329  0.1607
   65SAPC  H17R 5344   6.372   6.878   4.258 -0.7364 -0.9529  0.0223
   65SAPC  H17S 5345   6.528   6.965   4.252  2.5518 -1.3772 -0.7271
   65SAPC  C218 5346   6.516   6.794   4.383  0.1210 -0.1781 -0.1529
   65SAPC  H18R 5347   6.627   6.794   4.391  0.1339  3.1981  1.4630
   65SAPC  H18S 5348   6.480   6.690   4.375 -0.4283  0.1001 -1.5336
   65SAPC  C219 5349   6.475   6.868   4.506  0.3262  0.2211 -0.1492
   65SAPC  H19R 5350   6.368   6.893   4.490  0.0613 -2.0552 -2.4592
   65SAPC  H19S 5351   6.532   6.963   4.517 -0.3539  0.5225  0.9691
   65SAPC  C220 5352   6.507   6.797   4.637  0.3194 -0.1295  0.1004
   65SAPC  H20R 5353   6.472   6.872   4.711  2.0991  2.2572 -1.3349
   65SAPC  H20S 5354   6.614   6.774   4.655 -0.2105 -1.4219  1.9599
   65SAPC  H20T 5355   6.437   6.710   4.641  0.4641 -0.2390  0.2405
   65SAPC   C33 5356   6.506   5.968   3.021 -0.4332  0.4285  0.0784
   65SAPC   H3X 5357   6.611   5.941   2.998 -0.9611 -1.5553 -0.2148
   65SAPC   H3Y 5358   6.452   5.877   3.055  4.0521 -2.2475  0.7914
   65SAPC   C34 5359   6.483   6.083   3.118 -0.3225  0.2182 -0.0694
   65SAPC   H4X 5360   6.387   6.134   3.093 -0.5283  2.1375  3.8951
   65SAPC   H4Y 5361   6.565   6.155   3.095 -0.8472  1.4057  1.5984
   65SAPC   C35 5362   6.485   6.031   3.259 -0.3043 -0.1381 -0.3276
   65SAPC   H5X 5363   6.588   5.996   3.283 -0.0024  0.4674 -0.7180
   65SAPC   H5Y 5364   6.421   5.940   3.259 -2.9720  1.6244 -2.0686
   65SAPC   C36 5365   6.433   6.135   3.352 -0.5591 -0.1228  0.1850
   65SAPC   H6X 5366   6.327   6.144   3.319 -0.8916 -0.1027  1.2340
   65SAPC   H6Y 5367   6.487   6.229   3.327 -0.5300 -0.1602  0.1080
   65SAPC   C37 5368   6.438   6.115   3.503  0.3294  0.5552  0.8170
   65SAPC   H7X 5369   6.543   6.099   3.535  0.7548 -1.8216 -1.4663
   65SAPC   H7Y 5370   6.394   6.015   3.521  3.0861 -1.1149 -1.0431
   65SAPC   C38 5371   6.362   6.217   3.583  1.2083  0.1059 -0.8346
   65SAPC   H8X 5372   6.260   6.224   3.540  1.0162  1.9471 -0.1831
   65SAPC   H8Y 5373   6.393   6.320   3.555  1.1678 -0.1983 -2.0769
   65SAPC   C39 5374   6.352   6.190   3.735  0.1494  0.2195  0.1100
   65SAPC   H9X 5375   6.372   6.082   3.748 -0.6266  0.0147 -0.3661
   65SAPC   H9Y 5376   6.249   6.215   3.769  0.2058  0.2272  0.2785
   65SAPC  C310 5377   6.452   6.252   3.818 -0.1379 -0.0903  0.2431
   65SAPC  H10X 5378   6.454   6.362   3.832  1.6314 -0.1669  0.8915
   65SAPC  H10Y 5379   6.553   6.226   3.780  0.5948  3.8523 -0.9804
   65SAPC  C311 5380   6.440   6.212   3.964  0.2975  0.5722 -0.2010
   65SAPC  H11X 5381   6.460   6.103   3.978  0.0608  0.5242 -0.2329
   65SAPC  H11Y 5382   6.334   6.217   3.999  0.8552  2.4293  1.3957
   65SAPC  C312 5383   6.538   6.281   4.061  0.4775  0.6227 -0.3847
   65SAPC  H12X 5384   6.522   6.391   4.052  0.0651  0.8182  2.1854
   65SAPC  H12Y 5385   6.643   6.259   4.032  0.2611 -0.7960 -0.1785
   65SAPC  C313 5386   6.505   6.260   4.207  0.7733  0.1498 -0.1075
   65SAPC  H13X 5387   6.497   6.151   4.228  1.0202 -0.5970 -3.4735
   65SAPC  H13Y 5388   6.410   6.315   4.221  2.0416  1.8910  2.5710
   65SAPC  C314 5389   6.603   6.335   4.304  0.7426  0.2216 -0.1578
   65SAPC  H14X 5390   6.638   6.431   4.262 -1.6857  0.4168 -1.9342
   65SAPC  H14Y 5391   6.694   6.271   4.307  0.0506 -0.8286 -0.9469
   65SAPC  C315 5392   6.537   6.344   4.446 -0.0765 -0.8388  0.0327
   65SAPC  H15X 5393   6.495   6.446   4.452  0.9571 -0.4568  1.3579
   65SAPC  H15Y 5394   6.612   6.348   4.527 -3.1981  1.7229  3.0900
   65SAPC  C316 5395   6.431   6.240   4.495  0.0306 -0.2345  0.5870
   65SAPC  H16X 5396   6.478   6.145   4.462  0.3944  0.7896 -2.1676
   65SAPC  H16Y 5397   6.336   6.266   4.443 -0.7277  1.0332  2.5229
   65SAPC  C317 5398   6.403   6.244   4.646 -0.2142 -0.7330 -0.5856
   65SAPC  H17X 5399   6.386   6.343   4.694  2.3267 -0.6922  0.3770
   65SAPC  H17Y 5400   6.497   6.202   4.687  1.1365  2.5243 -0.0342
   65SAPC  C318 5401   6.292   6.151   4.681 -0.5427  0.4164 -0.3875
   65SAPC  H18X 5402   6.303   6.056   4.624  0.0502  0.2078  0.0600
   65SAPC  H18Y 5403   6.194   6.189   4.646 -1.9677 -1.8444  0.8209
   65SAPC  H18Z 5404   6.278   6.133   4.790 -0.3345  0.4901 -0.3488
   66SAPC     N 5405   2.232   6.187   2.458 -0.0391  0.7526 -0.2142
   66SAPC   C12 5406   2.221   6.321   2.538  0.0895  0.7937 -0.8322
   66SAPC  H12A 5407   2.313   6.350   2.586  0.2863 -2.3075  0.9529
   66SAPC  H12B 5408   2.152   6.299   2.618  2.3303 -2.0062  0.5070
   66SAPC   C13 5409   2.352   6.200   2.357  0.0256 -0.1380  0.1293
   66SAPC  H13A 5410   2.367   6.104   2.309 -4.2160 -1.5977  1.2808
   66SAPC  H13B 5411   2.335   6.291   2.301  1.0141  0.4797  0.8063
   66SAPC  H13C 5412   2.442   6.227   2.411 -0.8172  0.7272  1.1313
   66SAPC   C14 5413   2.257   6.074   2.559 -0.0705  0.0191  0.1271
   66SAPC  H14A 5414   2.346   6.092   2.617  0.4202 -1.8869  0.0223
   66SAPC  H14B 5415   2.171   6.076   2.624 -1.4195 -1.9795 -1.4539
   66SAPC  H14C 5416   2.264   5.978   2.510 -2.0345  0.0361 -0.2835
   66SAPC   C15 5417   2.103   6.156   2.389 -0.6713 -0.0980 -0.0540
   66SAPC  H15A 5418   2.117   6.064   2.334  1.2769 -1.4225  2.4650
   66SAPC  H15B 5419   2.034   6.136   2.469  0.5654 -0.1072  1.0364
   66SAPC  H15C 5420   2.067   6.244   2.337  0.8934  2.5753  3.0455
   66SAPC   C11 5421   2.167   6.444   2.467  0.2381  0.8371 -0.5961
   66SAPC  H11A 5422   2.129   6.521   2.537 -3.5500 -1.4871  0.1406
   66SAPC  H11B 5423   2.065   6.416   2.435  0.4223 -0.6383  0.0152
   66SAPC     P 5424   2.375   6.574   2.387 -0.2016  0.1330 -0.4971
   66SAPC   O13 5425   2.475   6.534   2.290 -0.2277  0.5880  0.1712
   66SAPC   O14 5426   2.335   6.718   2.382 -0.1156  0.9311 -0.6597
   66SAPC   O12 5427   2.247   6.489   2.363  0.0739 -0.2281  0.4265
   66SAPC   O11 5428   2.432   6.532   2.533 -0.1207  0.2656  0.1093
   66SAPC    C1 5429   2.412   6.617   2.646 -0.4890  0.0266 -0.2911
   66SAPC    HA 5430   2.459   6.717   2.632  0.7743  0.1074  3.3524
   66SAPC    HB 5431   2.307   6.645   2.665  0.2899  1.9311  1.7362
   66SAPC    C2 5432   2.473   6.545   2.766  0.4113 -0.1747  0.0659
   66SAPC    HS 5433   2.581   6.522   2.750  0.0008 -1.8054 -0.4913
   66SAPC   O21 5434   2.393   6.427   2.793 -0.1207 -0.5101 -0.3013
   66SAPC   C21 5435   2.457   6.331   2.853 -0.8913  0.9379  0.0741
   66SAPC   O22 5436   2.582   6.326   2.868  0.2347  0.1898  0.0772
   66SAPC   C22 5437   2.351   6.232   2.897 -0.2383  0.5689  0.4225
   66SAPC   H2R 5438   2.295   6.278   2.981 -0.3075 -1.3931  1.5032
   66SAPC   H2S 5439   2.282   6.221   2.810 -1.2724 -1.2573  1.4180
   66SAPC    C3 5440   2.459   6.639   2.886  0.5965 -0.9779 -0.3152
   66SAPC    HX 5441   2.351   6.652   2.909  0.6920  0.1976 -0.4700
   66SAPC    HY 5442   2.493   6.737   2.847  1.0518 -1.0823 -0.1884
   66SAPC   O31 5443   2.536   6.589   3.002  0.2245  0.1528 -0.0801
   66SAPC   C31 5444   2.660   6.626   2.988  0.4072  0.5155 -0.5500
   66SAPC   O32 5445   2.718   6.684   2.899  0.0060 -0.6845  0.1598
   66SAPC   C32 5446   2.745   6.568   3.110 -0.3737 -0.0351  0.3295
   66SAPC   H2X 5447   2.756   6.461   3.083 -2.0317 -0.4859  1.2893
   66SAPC   H2Y 5448   2.689   6.571   3.206  2.5800 -1.2724  2.2159
   66SAPC   C23 5449   2.391   6.088   2.934 -0.3159 -0.1573  0.7699
   66SAPC   H3R 5450   2.465   6.047   2.861 -0.5509  0.4551  0.1752
   66SAPC   H3S 5451   2.303   6.023   2.915  0.3890 -0.9888  0.2599
   66SAPC   C24 5452   2.451   6.072   3.071 -0.5124  0.7125 -0.1758
   66SAPC   H4R 5453   2.551   6.119   3.064 -0.3880  0.1932 -2.6465
   66SAPC   H4S 5454   2.455   5.965   3.099 -1.1120  0.3002 -1.5922
   66SAPC   C25 5455   2.360   6.127   3.179  0.6434 -0.4609  0.3320
   66SAPC   H5R 5456   2.261   6.079   3.179  0.6439 -0.5237  2.5267
   66SAPC   C26 5457   2.382   6.230   3.260 -0.1950 -0.1127 -0.5058
   66SAPC   H6R 5458   2.303   6.243   3.337  0.3162 -1.4697  0.2840
   66SAPC   C27 5459   2.497   6.321   3.281  0.1381 -0.8797  0.7063
   66SAPC   H7R 5460   2.468   6.417   3.235  0.3700 -1.6380 -1.1263
   66SAPC   H7S 5461   2.583   6.285   3.219 -0.4361  1.4965 -1.6461
   66SAPC   C28 5462   2.527   6.336   3.425  0.7006 -0.1282  0.4177
   66SAPC   H8R 5463   2.605   6.270   3.466  0.5890 -2.5558 -2.8412
   66SAPC   C29 5464   2.489   6.433   3.509  0.2191 -0.5031 -0.5298
   66SAPC   H9R 5465   2.523   6.429   3.613 -2.1500 -2.5144  0.2645
   66SAPC  C210 5466   2.403   6.554   3.498  0.0588 -0.2063  0.3850
   66SAPC  H10R 5467   2.306   6.525   3.544 -0.3480 -0.5183 -0.6507
   66SAPC  H10S 5468   2.374   6.571   3.392  0.0089 -3.6309 -0.2682
   66SAPC  C211 5469   2.474   6.676   3.551  0.2580  0.2804 -0.1361
   66SAPC  H11R 5470   2.529   6.740   3.480  0.2663 -0.2489 -0.6049
   66SAPC  C212 5471   2.451   6.740   3.667  0.2109  0.6068  0.0538
   66SAPC  H12R 5472   2.516   6.824   3.696  0.9954  0.1972 -0.4845
   66SAPC  C213 5473   2.363   6.688   3.783 -0.0656  0.1142  0.5130
   66SAPC  H13R 5474   2.296   6.607   3.747 -0.0950  1.5126 -2.9395
   66SAPC  H13S 5475   2.288   6.764   3.815  0.0164  0.3457  0.1566
   66SAPC  C214 5476   2.444   6.632   3.904 -0.0874  0.4834  0.0148
   66SAPC  H14R 5477   2.537   6.580   3.880  1.4021  3.3565 -0.9443
   66SAPC  C215 5478   2.404   6.642   4.031  0.7167 -0.6776 -0.6123
   66SAPC  H15R 5479   2.471   6.608   4.111 -1.4884  0.2603  1.7813
   66SAPC  C216 5480   2.281   6.715   4.080  0.2497 -1.0506 -0.6216
   66SAPC  H16R 5481   2.208   6.640   4.117 -0.0143 -0.2693  0.4783
   66SAPC  H16S 5482   2.216   6.765   4.004 -2.8883  0.5288  2.8189
   66SAPC  C217 5483   2.310   6.809   4.196  0.1394  0.0934  0.0429
   66SAPC  H17R 5484   2.387   6.881   4.162 -1.3551  1.2305 -1.1096
   66SAPC  H17S 5485   2.366   6.753   4.273 -0.8242  0.1772  0.8281
   66SAPC  C218 5486   2.186   6.888   4.242 -0.2822 -0.2850  0.3481
   66SAPC  H18R 5487   2.111   6.808   4.261  0.0022 -0.3971  1.0383
   66SAPC  H18S 5488   2.159   6.961   4.163 -0.9000 -0.8815  0.0008
   66SAPC  C219 5489   2.215   6.949   4.382  0.0838 -0.8752  0.2279
   66SAPC  H19R 5490   2.303   7.017   4.391  1.1106 -2.3051  1.6432
   66SAPC  H19S 5491   2.249   6.871   4.454  0.9521 -0.2839  0.4714
   66SAPC  C220 5492   2.086   7.013   4.443  0.2779 -0.5120 -0.0586
   66SAPC  H20R 5493   2.116   7.056   4.541 -0.4519  0.0660 -0.0769
   66SAPC  H20S 5494   2.020   6.925   4.462  0.6427 -0.7799 -0.0367
   66SAPC  H20T 5495   2.047   7.091   4.373 -1.8389 -0.3227  1.2329
   66SAPC   C33 5496   2.882   6.636   3.128  0.9143 -0.3527 -0.2421
   66SAPC   H3X 5497   2.875   6.747   3.124  0.9251 -0.3913 -1.8208
   66SAPC   H3Y 5498   2.948   6.602   3.046  0.8698  0.1500 -0.4899
   66SAPC   C34 5499   2.947   6.597   3.263 -0.2322  0.1728  0.3594
   66SAPC   H4X 5500   3.037   6.660   3.278 -0.7303  1.0316 -0.1806
   66SAPC   H4Y 5501   2.981   6.491   3.257 -0.9561 -0.0574  0.2362
   66SAPC   C35 5502   2.861   6.630   3.384 -0.0309  0.8133 -0.2358
   66SAPC   H5X 5503   2.784   6.549   3.383 -1.5356  2.1745  0.7073
   66SAPC   H5Y 5504   2.814   6.729   3.364  0.1506  0.4129 -3.0264
   66SAPC   C36 5505   2.932   6.615   3.523  0.3581  0.5143  0.6000
   66SAPC   H6X 5506   3.024   6.677   3.518  0.9450 -0.3641  0.3133
   66SAPC   H6Y 5507   2.974   6.512   3.523 -1.6676 -0.3872 -0.9818
   66SAPC   C37 5508   2.839   6.626   3.642  1.0440  0.0109 -0.3230
   66SAPC   H7X 5509   2.768   6.541   3.638  1.4766 -0.3159 -1.4561
   66SAPC   H7Y 5510   2.782   6.722   3.637 -0.5611 -0.8691  0.2732
   66SAPC   C38 5511   2.918   6.622   3.777 -0.2870 -0.2188 -1.1700
   66SAPC   H8X 5512   2.840   6.657   3.847 -0.4006  0.0026 -1.4076
   66SAPC   H8Y 5513   2.986   6.709   3.773  0.2018 -0.4574  0.9189
   66SAPC   C39 5514   2.995   6.497   3.813 -0.7524  0.8093  0.1834
   66SAPC   H9X 5515   3.065   6.457   3.737 -0.6779 -0.8383  1.0903
   66SAPC   H9Y 5516   2.923   6.416   3.836  0.2025 -0.5990 -1.5988
   66SAPC  C310 5517   3.077   6.514   3.943  0.7636  0.4676 -0.0540
   66SAPC  H10X 5518   3.160   6.586   3.931  1.8179 -0.1469  2.8007
   66SAPC  H10Y 5519   3.110   6.414   3.978  2.0663  0.9644  0.1552
   66SAPC  C311 5520   2.994   6.574   4.064  0.5442 -0.0864 -0.2909
   66SAPC  H11X 5521   2.899   6.516   4.064  0.9682 -0.8637  1.4903
   66SAPC  H11Y 5522   2.976   6.683   4.053 -1.6023 -0.3819 -0.1315
   66SAPC  C312 5523   3.046   6.534   4.210 -0.1420 -0.1989  0.2426
   66SAPC  H12X 5524   3.019   6.427   4.227 -0.7988  0.3535  3.1182
   66SAPC  H12Y 5525   2.987   6.578   4.293 -0.7254 -2.5609  1.1641
   66SAPC  C313 5526   3.188   6.572   4.245 -0.1397 -0.1095 -0.7057
   66SAPC  H13X 5527   3.194   6.682   4.253  0.1067 -0.2481  2.7970
   66SAPC  H13Y 5528   3.245   6.538   4.156  2.0890  1.9620 -0.1813
   66SAPC  C314 5529   3.228   6.501   4.379  0.4725 -0.4047  1.4251
   66SAPC  H14X 5530   3.330   6.460   4.366  0.2179 -1.2223  1.9201
   66SAPC  H14Y 5531   3.156   6.418   4.395 -0.5539  0.2519  0.4247
   66SAPC  C315 5532   3.217   6.591   4.506  0.1640  0.6185 -0.1978
   66SAPC  H15X 5533   3.111   6.618   4.526 -0.3237  0.5845 -2.4261
   66SAPC  H15Y 5534   3.279   6.682   4.495  1.5508 -0.0518  1.7083
   66SAPC  C316 5535   3.271   6.524   4.632 -0.3793 -1.0971 -0.2444
   66SAPC  H16X 5536   3.379   6.496   4.632  0.4339  1.5968  1.6472
   66SAPC  H16Y 5537   3.211   6.431   4.644  0.2261 -1.4194  0.4262
   66SAPC  C317 5538   3.253   6.599   4.763 -0.2191  0.1010  0.5023
   66SAPC  H17X 5539   3.300   6.700   4.760 -1.7661  0.8248 -0.5328
   66SAPC  H17Y 5540   3.293   6.531   4.842 -0.2731 -0.1236  0.3349
   66SAPC  C318 5541   3.106   6.616   4.795 -0.2013  0.0641 -0.0394
   66SAPC  H18X 5542   3.093   6.635   4.904 -0.4419 -1.2511  0.1849
   66SAPC  H18Y 5543   3.050   6.524   4.766 -0.1683 -0.0555  0.2658
   66SAPC  H18Z 5544   3.065   6.701   4.738 -3.0578 -0.7386  0.6525
   67SAPC     N 5545   0.751   6.805   2.002 -0.3937  0.1698  0.2980
   67SAPC   C12 5546   0.742   6.667   2.056 -0.4710  0.4650 -0.3105
   67SAPC  H12A 5547   0.832   6.611   2.034  0.1584  0.1998  2.5290
   67SAPC  H12B 5548   0.654   6.626   2.009 -0.6557 -2.2727  2.1169
   67SAPC   C13 5549   0.847   6.889   2.079  0.7584  0.1190  0.8556
   67SAPC  H13A 5550   0.876   6.973   2.018  1.9152 -0.0670  1.1096
   67SAPC  H13B 5551   0.808   6.922   2.174  2.0978 -0.3341  1.5933
   67SAPC  H13C 5552   0.939   6.833   2.092  1.7350  0.8052 -2.2494
   67SAPC   C14 5553   0.789   6.808   1.856 -0.3393  0.8259 -0.3614
   67SAPC  H14A 5554   0.708   6.777   1.792 -2.2861  2.0131  1.4142
   67SAPC  H14B 5555   0.822   6.907   1.827  1.9402  0.7205  1.5391
   67SAPC  H14C 5556   0.882   6.755   1.842 -0.1545  0.6970  1.1884
   67SAPC   C15 5557   0.620   6.875   2.011 -0.6445  0.3658 -0.2095
   67SAPC  H15A 5558   0.588   6.886   2.114 -1.2036  0.8683 -0.4265
   67SAPC  H15B 5559   0.627   6.977   1.975  0.2341 -0.2215 -1.8168
   67SAPC  H15C 5560   0.554   6.818   1.947  0.8944 -1.0265 -0.6235
   67SAPC   C11 5561   0.707   6.651   2.206 -0.5858  0.1101 -0.0133
   67SAPC  H11A 5562   0.779   6.711   2.265 -2.3600 -0.3661  2.7998
   67SAPC  H11B 5563   0.715   6.542   2.225 -0.4432  0.2608  0.8316
   67SAPC     P 5564   0.446   6.629   2.191  0.1439 -0.1820 -0.5183
   67SAPC   O13 5565   0.343   6.729   2.158  0.3341 -0.7226 -0.4917
   67SAPC   O14 5566   0.487   6.528   2.093  0.1140 -0.3008  0.1788
   67SAPC   O12 5567   0.573   6.705   2.230  0.4184  0.0231 -0.2796
   67SAPC   O11 5568   0.403   6.560   2.326 -0.0254 -0.0893  0.1657
   67SAPC    C1 5569   0.480   6.544   2.439  0.0900  0.1692 -0.7987
   67SAPC    HA 5570   0.580   6.501   2.413  0.5924  0.3911  0.6598
   67SAPC    HB 5571   0.487   6.641   2.493  1.4279 -0.1377 -0.3697
   67SAPC    C2 5572   0.409   6.447   2.536  0.1289 -0.4933  0.2604
   67SAPC    HS 5573   0.357   6.371   2.474 -1.7299  0.1442  0.9669
   67SAPC   O21 5574   0.309   6.508   2.621 -0.2095 -0.3293 -0.2447
   67SAPC   C21 5575   0.221   6.413   2.675 -0.3279  0.0160  0.3884
   67SAPC   O22 5576   0.223   6.294   2.649 -0.1688 -0.3099 -0.1769
   67SAPC   C22 5577   0.114   6.480   2.751 -0.1078 -0.6167  0.2903
   67SAPC   H2R 5578   0.161   6.563   2.808 -0.0327  0.1688 -0.8681
   67SAPC   H2S 5579   0.049   6.524   2.672  0.6682 -1.0928 -0.6373
   67SAPC    C3 5580   0.516   6.364   2.617 -1.1232 -0.1124 -0.1242
   67SAPC    HX 5581   0.596   6.323   2.552  0.6088  2.8237 -0.0412
   67SAPC    HY 5582   0.461   6.281   2.668  0.2675  0.4832  2.5241
   67SAPC   O31 5583   0.574   6.454   2.720  0.8290 -0.8225  1.0480
   67SAPC   C31 5584   0.667   6.404   2.801  0.5354  0.1081  0.5232
   67SAPC   O32 5585   0.713   6.292   2.791  0.0606 -0.2625 -0.3210
   67SAPC   C32 5586   0.693   6.514   2.908 -0.7137  0.2750 -0.2224
   67SAPC   H2X 5587   0.653   6.481   3.006  0.6489 -1.1512 -0.1235
   67SAPC   H2Y 5588   0.642   6.609   2.879  1.2037  2.1704  2.1609
   67SAPC   C23 5589   0.045   6.385   2.847  0.9386 -0.4824  0.0613
   67SAPC   H3R 5590   0.112   6.330   2.916  0.3020  0.1830  1.2451
   67SAPC   H3S 5591   0.005   6.310   2.775  3.9556 -0.0409 -2.2578
   67SAPC   C24 5592  -0.087   6.440   2.918 -0.0208 -0.2402 -0.2233
   67SAPC   H4R 5593  -0.137   6.357   2.971 -1.7510  2.1372  2.1430
   67SAPC   H4S 5594  -0.154   6.491   2.846 -0.8823  0.5051  1.0541
   67SAPC   C25 5595  -0.037   6.546   3.019 -0.4659  0.5596 -0.1278
   67SAPC   H5R 5596   0.037   6.616   2.977 -0.3614 -0.6022 -1.9480
   67SAPC   C26 5597  -0.055   6.549   3.150  0.2107  0.3224  0.4243
   67SAPC   H6R 5598   0.003   6.633   3.189 -2.3361  3.0747 -1.2187
   67SAPC   C27 5599  -0.142   6.463   3.245 -0.7869 -0.6844  1.1432
   67SAPC   H7R 5600  -0.067   6.396   3.294 -0.0909 -0.3089  0.6109
   67SAPC   H7S 5601  -0.202   6.397   3.179  0.8266 -1.1838  0.0977
   67SAPC   C28 5602  -0.213   6.539   3.354 -0.5295  0.5098  0.1667
   67SAPC   H8R 5603  -0.265   6.631   3.322  1.2019  1.6109  0.3426
   67SAPC   C29 5604  -0.193   6.510   3.485 -0.4480  0.2652  0.6046
   67SAPC   H9R 5605  -0.243   6.575   3.559 -1.5084  0.0945  0.0455
   67SAPC  C210 5606  -0.125   6.392   3.551  0.0045  0.1598 -0.5987
   67SAPC  H10R 5607  -0.171   6.302   3.506  0.1863 -0.7439  0.9741
   67SAPC  H10S 5608  -0.175   6.393   3.650  0.8644  1.8406 -0.1368
   67SAPC  C211 5609   0.028   6.386   3.557 -0.0145  0.1301 -0.3373
   67SAPC  H11R 5610   0.072   6.378   3.457 -2.1941 -1.3292 -1.2548
   67SAPC  C212 5611   0.111   6.410   3.661 -0.3367 -0.6710 -0.4936
   67SAPC  H12R 5612   0.219   6.405   3.639 -0.4705  0.8929 -1.7114
   67SAPC  C213 5613   0.065   6.442   3.796 -0.6037  0.1332 -0.4109
   67SAPC  H13R 5614   0.159   6.425   3.853  0.3574 -0.7761 -2.1724
   67SAPC  H13S 5615  -0.019   6.370   3.808 -2.0320  1.8386  0.2671
   67SAPC  C214 5616   0.031   6.585   3.818  0.2137  0.6083 -0.1083
   67SAPC  H14R 5617   0.013   6.645   3.728  4.2288  1.8837 -0.2335
   67SAPC  C215 5618   0.016   6.634   3.939 -0.4057 -0.2839 -0.9912
   67SAPC  H15R 5619  -0.014   6.739   3.931 -0.6432 -0.2858 -0.2282
   67SAPC  C216 5620   0.031   6.573   4.078  0.0407 -0.0309 -0.5673
   67SAPC  H16R 5621   0.102   6.487   4.080 -1.6355 -1.4776  0.3056
   67SAPC  H16S 5622  -0.065   6.536   4.119  0.4529 -0.2208  0.2529
   67SAPC  C217 5623   0.088   6.675   4.172  0.3346 -0.4358 -0.4430
   67SAPC  H17R 5624   0.016   6.757   4.192  1.4570  1.1205 -2.2884
   67SAPC  H17S 5625   0.181   6.715   4.125  1.1816 -1.0425  0.6776
   67SAPC  C218 5626   0.155   6.620   4.300  0.0992  0.7313  0.1661
   67SAPC  H18R 5627   0.252   6.570   4.280 -1.0944 -2.4133  1.6915
   67SAPC  H18S 5628   0.091   6.550   4.357  0.5121  2.4693  2.9219
   67SAPC  C219 5629   0.177   6.731   4.403 -0.3226  0.7109  0.1245
   67SAPC  H19R 5630   0.233   6.806   4.344 -0.9306 -0.1199 -1.5842
   67SAPC  H19S 5631   0.235   6.685   4.487  0.5148 -0.2541 -0.9500
   67SAPC  C220 5632   0.046   6.790   4.455 -0.2196 -0.0265 -0.0097
   67SAPC  H20R 5633  -0.028   6.720   4.500 -1.1739  0.2932 -1.0374
   67SAPC  H20S 5634   0.006   6.847   4.369 -0.3883 -2.0065 -1.2969
   67SAPC  H20T 5635   0.065   6.864   4.536 -0.1670 -0.1523  0.0938
   67SAPC   C33 5636   0.848   6.530   2.934 -0.4142  0.3300  0.1988
   67SAPC   H3X 5637   0.897   6.580   2.847  1.8312 -2.5996 -0.3704
   67SAPC   H3Y 5638   0.890   6.429   2.956 -0.2470  0.4333  0.3567
   67SAPC   C34 5639   0.874   6.604   3.059  0.2351  0.2408  0.4317
   67SAPC   H4X 5640   0.805   6.567   3.138  0.3070 -1.4905 -0.2623
   67SAPC   H4Y 5641   0.836   6.707   3.041 -1.6247 -0.6011 -0.6878
   67SAPC   C35 5642   1.025   6.605   3.093  0.3214  0.0176 -0.1261
   67SAPC   H5X 5643   1.088   6.640   3.009  0.8105  0.5230  0.4397
   67SAPC   H5Y 5644   1.062   6.505   3.122  1.6132  0.3636 -0.5298
   67SAPC   C36 5645   1.054   6.710   3.211  0.3756 -0.3394  0.9792
   67SAPC   H6X 5646   1.023   6.811   3.177 -0.9156 -0.6664  1.1253
   67SAPC   H6Y 5647   1.163   6.716   3.230  0.7106  1.3817 -1.0763
   67SAPC   C37 5648   0.983   6.674   3.350 -0.7085 -0.0137 -0.2258
   67SAPC   H7X 5649   0.968   6.564   3.357 -0.4406 -0.0091  0.5709
   67SAPC   H7Y 5650   0.882   6.719   3.349 -0.4460  0.5832 -0.3312
   67SAPC   C38 5651   1.049   6.730   3.479  0.0332  1.0785  0.1274
   67SAPC   H8X 5652   1.074   6.837   3.464  1.2406  0.6944 -0.8291
   67SAPC   H8Y 5653   1.137   6.668   3.508 -0.8591 -0.5219 -0.4761
   67SAPC   C39 5654   0.957   6.708   3.596 -0.1829 -0.4209 -0.0043
   67SAPC   H9X 5655   0.929   6.601   3.589 -0.5040 -0.3229 -0.2370
   67SAPC   H9Y 5656   0.862   6.762   3.575 -0.1073  0.1765  1.0927
   67SAPC  C310 5657   1.034   6.746   3.728  0.0730 -0.4693  0.0694
   67SAPC  H10X 5658   1.086   6.841   3.705  0.6140 -0.5764  0.8327
   67SAPC  H10Y 5659   1.098   6.659   3.755  1.8273  1.4521  2.5847
   67SAPC  C311 5660   0.930   6.765   3.841 -0.4018  0.4619 -0.4033
   67SAPC  H11X 5661   0.883   6.667   3.865 -0.3717 -0.0425 -2.2539
   67SAPC  H11Y 5662   0.844   6.826   3.807 -2.2149 -0.6933  1.8340
   67SAPC  C312 5663   0.976   6.826   3.973  0.3490  0.5296 -0.3047
   67SAPC  H12X 5664   1.031   6.743   4.023  3.2370  1.2920 -1.9630
   67SAPC  H12Y 5665   0.888   6.835   4.039  1.4867  1.8103  1.0932
   67SAPC  C313 5666   1.064   6.958   3.961 -0.0526  0.1175  0.8198
   67SAPC  H13X 5667   1.014   7.042   3.909 -0.4068  1.0065  2.5176
   67SAPC  H13Y 5668   1.151   6.931   3.897 -0.8350  0.1152 -0.2607
   67SAPC  C314 5669   1.122   7.012   4.090 -0.1117 -0.3703 -0.4266
   67SAPC  H14X 5670   1.163   7.111   4.061 -0.3787 -0.1369 -0.0155
   67SAPC  H14Y 5671   1.206   6.956   4.137 -0.7458 -0.6316  0.4224
   67SAPC  C315 5672   1.014   7.028   4.198  0.6562  0.3076  0.5210
   67SAPC  H15X 5673   1.000   6.928   4.245  2.5392 -0.0240  0.4344
   67SAPC  H15Y 5674   0.916   7.056   4.153  0.0368 -1.5598  0.6502
   67SAPC  C316 5675   1.047   7.128   4.311  0.2885 -0.5977  0.0837
   67SAPC  H16X 5676   0.960   7.129   4.381  0.7389  2.3690  0.7488
   67SAPC  H16Y 5677   1.058   7.234   4.279 -0.1851 -0.5682  0.0070
   67SAPC  C317 5678   1.160   7.079   4.396  0.3227 -0.5580 -0.0066
   67SAPC  H17X 5679   1.251   7.065   4.334 -0.1403  1.2447 -1.1489
   67SAPC  H17Y 5680   1.124   6.976   4.420  0.5639 -0.3946  1.1168
   67SAPC  C318 5681   1.186   7.151   4.528  0.4508  0.4592 -0.1465
   67SAPC  H18X 5682   1.104   7.144   4.603  1.3639  0.7389  0.9070
   67SAPC  H18Y 5683   1.194   7.260   4.512  0.2804  0.6444  0.9246
   67SAPC  H18Z 5684   1.282   7.122   4.575 -0.1715  0.0517  0.9137
   68SAPC     N 5685   2.724   5.592   2.261  0.5197  0.0891 -0.3729
   68SAPC   C12 5686   2.698   5.665   2.391  0.2609  0.0430 -0.6699
   68SAPC  H12A 5687   2.603   5.629   2.427  0.3946  0.5357  0.2105
   68SAPC  H12B 5688   2.689   5.771   2.371  0.7171  0.6474  1.9354
   68SAPC   C13 5689   2.854   5.629   2.205 -0.2672  0.2821 -0.7089
   68SAPC  H13A 5690   2.879   5.547   2.140 -1.2712  0.4209 -1.2891
   68SAPC  H13B 5691   2.847   5.714   2.139  1.0201 -1.1799 -2.8336
   68SAPC  H13C 5692   2.934   5.627   2.278 -0.6993 -1.9911 -0.2293
   68SAPC   C14 5693   2.724   5.438   2.298 -0.0444  0.4144  0.0800
   68SAPC  H14A 5694   2.768   5.427   2.396  1.9079 -0.6203 -0.8565
   68SAPC  H14B 5695   2.624   5.397   2.301  1.1710 -2.8111  1.0423
   68SAPC  H14C 5696   2.781   5.375   2.231  0.4668  1.5292 -0.5663
   68SAPC   C15 5697   2.616   5.618   2.170 -0.5980  0.4176  0.0872
   68SAPC  H15A 5698   2.525   5.570   2.201  0.1358 -2.2397 -1.5330
   68SAPC  H15B 5699   2.598   5.724   2.158  0.8204  0.4832 -2.0639
   68SAPC  H15C 5700   2.639   5.585   2.070  0.1268 -0.0275  0.3875
   68SAPC   C11 5701   2.800   5.646   2.503  0.0951  0.2133 -0.2021
   68SAPC  H11A 5702   2.787   5.734   2.570  0.6589  0.8602 -0.9327
   68SAPC  H11B 5703   2.902   5.661   2.464  1.1671 -0.0150  2.3244
   68SAPC     P 5704   2.693   5.505   2.689  0.1774  0.4529 -0.3138
   68SAPC   O13 5705   2.569   5.578   2.644  0.4441  0.2098  0.5653
   68SAPC   O14 5706   2.675   5.358   2.715  0.0428 -0.3059 -0.1163
   68SAPC   O12 5707   2.799   5.516   2.573  0.2099 -0.2160  0.5745
   68SAPC   O11 5708   2.769   5.581   2.807 -0.2711  0.2896  0.1274
   68SAPC    C1 5709   2.880   5.516   2.871 -0.3397 -0.3120  0.1500
   68SAPC    HA 5710   2.926   5.437   2.808  1.0212  0.1750  0.5123
   68SAPC    HB 5711   2.964   5.587   2.883 -0.7036  0.1802 -0.1646
   68SAPC    C2 5712   2.836   5.442   3.013  0.6115  0.2543  0.1800
   68SAPC    HS 5713   2.751   5.384   2.972  2.7311 -1.9862 -1.3077
   68SAPC   O21 5714   2.787   5.542   3.112 -0.1587  0.2372 -0.0131
   68SAPC   C21 5715   2.869   5.637   3.158  0.4065  0.6936 -0.0984
   68SAPC   O22 5716   2.983   5.666   3.114  0.1202 -0.1527  0.3111
   68SAPC   C22 5717   2.798   5.703   3.276 -0.1488 -0.2461 -0.6519
   68SAPC   H2R 5718   2.879   5.738   3.343 -0.1218  1.7594 -1.6545
   68SAPC   H2S 5719   2.748   5.792   3.232 -0.8226  0.2993  1.1349
   68SAPC    C3 5720   2.959   5.364   3.055  0.1988 -0.1881 -0.3285
   68SAPC    HX 5721   3.049   5.423   3.030  1.9584 -1.7883  1.7990
   68SAPC    HY 5722   2.948   5.277   2.987  0.4289  1.5024 -2.6464
   68SAPC   O31 5723   2.951   5.332   3.193 -0.6218  0.0298 -0.0734
   68SAPC   C31 5724   3.045   5.244   3.238  0.5973 -0.5994  0.0583
   68SAPC   O32 5725   3.132   5.199   3.164 -0.1269  0.3217  0.1509
   68SAPC   C32 5726   3.019   5.201   3.385  0.5921  0.0601  0.3984
   68SAPC   H2X 5727   2.968   5.102   3.384  1.1405 -0.2432  1.4770
   68SAPC   H2Y 5728   2.958   5.268   3.449  2.3937  1.9085  0.3006
   68SAPC   C23 5729   2.692   5.615   3.346  0.4066 -0.2575  0.1829
   68SAPC   H3R 5730   2.738   5.523   3.388  0.8632  0.5334  1.4507
   68SAPC   H3S 5731   2.613   5.569   3.283 -1.5424  0.5756  1.9146
   68SAPC   C24 5732   2.618   5.687   3.457  0.4611  0.2752 -0.5170
   68SAPC   H4R 5733   2.690   5.730   3.529 -0.4644  0.7180  0.1665
   68SAPC   H4S 5734   2.548   5.625   3.517  0.8218 -0.6271 -1.0117
   68SAPC   C25 5735   2.528   5.797   3.400 -0.1809  0.5175 -0.2818
   68SAPC   H5R 5736   2.481   5.775   3.302  1.5196 -0.3353 -0.9294
   68SAPC   C26 5737   2.519   5.920   3.447  0.0081 -0.7999 -0.7302
   68SAPC   H6R 5738   2.461   5.998   3.394  2.3588  2.0891  0.6409
   68SAPC   C27 5739   2.595   5.972   3.571 -0.1576  1.0546 -0.4630
   68SAPC   H7R 5740   2.632   6.071   3.538 -0.2354  1.1549 -0.2494
   68SAPC   H7S 5741   2.689   5.918   3.596  0.4230  2.6254  0.9690
   68SAPC   C28 5742   2.514   6.006   3.692  0.6128 -0.3181  0.0083
   68SAPC   H8R 5743   2.408   5.980   3.696  0.2970  0.9422  0.2845
   68SAPC   C29 5744   2.561   6.072   3.798 -0.1412 -0.4793 -1.1397
   68SAPC   H9R 5745   2.497   6.096   3.884  0.1181  1.8362 -1.5300
   68SAPC  C210 5746   2.705   6.123   3.808 -0.5448 -0.6981 -0.0980
   68SAPC  H10R 5747   2.766   6.097   3.719  0.8323 -1.4744  1.0388
   68SAPC  H10S 5748   2.765   6.070   3.885  1.0210  0.0101 -0.7819
   68SAPC  C211 5749   2.697   6.273   3.818 -0.4000 -0.3921 -0.6686
   68SAPC  H11R 5750   2.707   6.326   3.722  0.4309 -0.6153 -0.7150
   68SAPC  C212 5751   2.677   6.339   3.936  0.4061 -0.1780  0.0174
   68SAPC  H12R 5752   2.676   6.449   3.946  0.1353 -0.1740 -0.0248
   68SAPC  C213 5753   2.656   6.271   4.074  0.2913  0.7254  0.2572
   68SAPC  H13R 5754   2.615   6.170   4.054  0.1850  0.9914 -1.0175
   68SAPC  H13S 5755   2.576   6.322   4.132  0.6204 -0.4303  1.7782
   68SAPC  C214 5756   2.785   6.251   4.154  0.0310 -0.1194  0.0925
   68SAPC  H14R 5757   2.876   6.220   4.100 -0.3161  0.2341 -0.7124
   68SAPC  C215 5758   2.790   6.259   4.291 -0.0637  0.0858 -0.0073
   68SAPC  H15R 5759   2.875   6.224   4.351  0.1541  0.8092  0.1109
   68SAPC  C216 5760   2.663   6.295   4.365  0.0991 -0.6255  0.0441
   68SAPC  H16R 5761   2.579   6.229   4.332 -1.6300  1.6298 -0.3603
   68SAPC  H16S 5762   2.630   6.396   4.334  0.3660 -0.9523 -1.4103
   68SAPC  C217 5763   2.678   6.295   4.523 -0.8087 -0.3354  0.1561
   68SAPC  H17R 5764   2.764   6.360   4.550 -0.6661 -0.6299  0.4122
   68SAPC  H17S 5765   2.701   6.191   4.554  0.1031 -0.5899 -1.2947
   68SAPC  C218 5766   2.562   6.348   4.601 -0.1392  0.0777 -0.0663
   68SAPC  H18R 5767   2.475   6.292   4.561 -1.6707  1.1683  1.5992
   68SAPC  H18S 5768   2.553   6.458   4.587  0.5475  0.1560  0.1082
   68SAPC  C219 5769   2.568   6.320   4.758  0.3883 -0.1213 -0.6336
   68SAPC  H19R 5770   2.586   6.211   4.773  1.6811 -0.0389 -1.4221
   68SAPC  H19S 5771   2.475   6.357   4.806 -0.9003 -4.5019  0.8086
   68SAPC  C220 5772   2.688   6.397   4.827 -0.8798  1.0359 -0.0224
   68SAPC  H20R 5773   2.684   6.401   4.938 -0.5211  1.4666 -0.0207
   68SAPC  H20S 5774   2.681   6.501   4.788 -1.7155  0.8653 -0.3591
   68SAPC  H20T 5775   2.781   6.348   4.791 -0.8917 -0.3789  1.7032
   68SAPC   C33 5776   3.151   5.176   3.467  0.0125 -0.0536 -0.2789
   68SAPC   H3X 5777   3.208   5.271   3.464  0.4977 -0.2535  1.4972
   68SAPC   H3Y 5778   3.220   5.103   3.419 -1.0661 -0.7233 -0.8503
   68SAPC   C34 5779   3.113   5.144   3.612  0.0931 -0.0111  0.7969
   68SAPC   H4X 5780   3.048   5.054   3.620 -0.0087  0.0726  0.9187
   68SAPC   H4Y 5781   3.048   5.231   3.639  0.8918  1.4256 -1.6520
   68SAPC   C35 5782   3.230   5.132   3.708  0.6311 -0.6711 -0.6020
   68SAPC   H5X 5783   3.291   5.224   3.693  0.4985 -0.3780  0.5750
   68SAPC   H5Y 5784   3.294   5.043   3.686  0.2813 -1.1747  0.3682
   68SAPC   C36 5785   3.185   5.127   3.858 -0.4418  0.3226  0.2498
   68SAPC   H6X 5786   3.123   5.215   3.885  0.5951  0.5775  1.9420
   68SAPC   H6Y 5787   3.276   5.129   3.920 -0.4221 -1.9936  0.3786
   68SAPC   C37 5788   3.110   4.993   3.885  0.9224  0.1984 -0.5457
   68SAPC   H7X 5789   3.181   4.911   3.861 -0.2920 -1.1706  0.3083
   68SAPC   H7Y 5790   3.014   4.977   3.831  1.3184 -0.7494 -0.9961
   68SAPC   C38 5791   3.083   4.961   4.036 -0.0371 -0.2125  0.8275
   68SAPC   H8X 5792   3.047   4.856   4.049  1.3972 -0.8918 -0.4008
   68SAPC   H8Y 5793   3.001   5.026   4.075 -1.6695 -2.4191  1.2972
   68SAPC   C39 5794   3.193   4.972   4.142  0.1162 -1.0691  0.1647
   68SAPC   H9X 5795   3.217   5.080   4.130 -1.4312 -0.9504 -2.6342
   68SAPC   H9Y 5796   3.280   4.908   4.115 -0.4137 -1.9297  0.4524
   68SAPC  C310 5797   3.151   4.937   4.290 -0.5496 -0.5979  0.0944
   68SAPC  H10X 5798   3.249   4.918   4.339 -1.9153 -2.9417  2.1693
   68SAPC  H10Y 5799   3.095   4.841   4.287  0.4608 -1.1865 -1.0793
   68SAPC  C311 5800   3.067   5.043   4.369 -0.4689  0.0768  0.0778
   68SAPC  H11X 5801   2.983   5.083   4.308 -1.6919  0.4659  1.9342
   68SAPC  H11Y 5802   3.122   5.139   4.379  0.5846 -0.4834 -0.1660
   68SAPC  C312 5803   3.013   4.988   4.508  0.2827 -0.4626 -0.1552
   68SAPC  H12X 5804   2.942   4.905   4.487 -1.7036  0.6058  1.8706
   68SAPC  H12Y 5805   2.957   5.069   4.561 -2.0722 -2.0176 -0.1032
   68SAPC  C313 5806   3.125   4.951   4.607  0.3898 -0.1261  0.1570
   68SAPC  H13X 5807   3.198   5.035   4.609 -1.0013  1.1299  0.5321
   68SAPC  H13Y 5808   3.175   4.862   4.563 -1.5472 -0.5462 -1.3648
   68SAPC  C314 5809   3.064   4.923   4.746 -0.8229 -0.2766  0.7118
   68SAPC  H14X 5810   2.965   4.883   4.714 -0.7828  0.4567 -0.3682
   68SAPC  H14Y 5811   3.040   5.010   4.810  0.6386  1.0251 -0.4454
   68SAPC  C315 5812   3.139   4.823   4.824  0.3612 -0.3921  0.0380
   68SAPC  H15X 5813   3.237   4.875   4.839  0.7382 -0.8908 -0.6476
   68SAPC  H15Y 5814   3.160   4.729   4.769 -0.5205 -0.7151  0.2418
   68SAPC  C316 5815   3.073   4.793   4.955  0.2857  0.2561  0.1387
   68SAPC  H16X 5816   2.982   4.737   4.926  0.8088 -0.4005 -0.2727
   68SAPC  H16Y 5817   3.040   4.887   5.004 -1.5844 -0.1782 -0.2116
   68SAPC  C317 5818   3.154   4.702   5.052 -0.5055 -0.4662  0.6834
   68SAPC  H17X 5819   3.250   4.755   5.071 -0.4207  0.7563 -2.4795
   68SAPC  H17Y 5820   3.193   4.615   4.996  0.6796  1.3480 -1.5046
   68SAPC  C318 5821   3.091   4.673   5.184  0.0814  0.1849 -0.7178
   68SAPC  H18X 5822   3.067   4.764   5.242  1.4798 -2.5297  4.7481
   68SAPC  H18Y 5823   3.152   4.607   5.249  0.1210  1.5018  0.6351
   68SAPC  H18Z 5824   2.993   4.628   5.159 -0.0923  1.4498 -2.5549
   69SAPC     N 5825   2.112   3.544   2.366  0.1106 -0.2522 -0.0089
   69SAPC   C12 5826   2.251   3.519   2.412 -0.1829 -0.3130 -0.1209
   69SAPC  H12A 5827   2.309   3.469   2.335 -1.4583 -1.7719 -0.1912
   69SAPC  H12B 5828   2.248   3.444   2.490 -1.5625 -0.6016 -0.4306
   69SAPC   C13 5829   2.032   3.580   2.490 -0.1564  0.8620  0.1319
   69SAPC  H13A 5830   1.925   3.590   2.474 -0.5541 -1.1793  1.1681
   69SAPC  H13B 5831   2.042   3.507   2.569 -0.5381  1.6849  0.9545
   69SAPC  H13C 5832   2.070   3.675   2.525 -0.4106  1.5072 -1.2510
   69SAPC   C14 5833   2.101   3.657   2.276 -0.0791 -0.4825  0.2854
   69SAPC  H14A 5834   2.159   3.640   2.186  2.5872 -0.2131  1.8585
   69SAPC  H14B 5835   1.997   3.672   2.253 -0.1396 -2.6779 -1.0810
   69SAPC  H14C 5836   2.145   3.745   2.322 -0.6350 -1.4532  2.8103
   69SAPC   C15 5837   2.046   3.430   2.309 -0.0239  0.0271  0.2029
   69SAPC  H15A 5838   2.097   3.388   2.223 -0.9788  1.3118 -1.0311
   69SAPC  H15B 5839   2.048   3.346   2.378  4.5083 -1.0104 -0.8243
   69SAPC  H15C 5840   1.943   3.435   2.280 -0.1297 -0.7388  0.4159
   69SAPC   C11 5841   2.325   3.638   2.473  0.1086  0.3062  1.0321
   69SAPC  H11A 5842   2.310   3.646   2.583  2.7208 -0.1280  1.4924
   69SAPC  H11B 5843   2.294   3.736   2.431  0.5012 -0.1562 -0.3986
   69SAPC     P 5844   2.544   3.526   2.541  0.4660 -0.0740  0.4514
   69SAPC   O13 5845   2.476   3.395   2.552 -0.7293 -0.3518 -0.1733
   69SAPC   O14 5846   2.674   3.519   2.487 -0.5600  0.1115 -0.3112
   69SAPC   O12 5847   2.463   3.625   2.450 -0.0364  0.4800  0.0464
   69SAPC   O11 5848   2.539   3.599   2.675 -0.1538  0.1098  0.3920
   69SAPC    C1 5849   2.578   3.739   2.696  0.7006  0.0256 -0.2518
   69SAPC    HA 5850   2.660   3.770   2.627  0.6131  1.8863  0.4070
   69SAPC    HB 5851   2.497   3.814   2.680 -0.4555 -1.1927 -0.2475
   69SAPC    C2 5852   2.628   3.743   2.841  0.3014 -0.0103  0.4950
   69SAPC    HS 5853   2.720   3.680   2.846 -1.1232 -2.5156 -1.7130
   69SAPC   O21 5854   2.524   3.681   2.926  0.0508  0.4358 -0.1801
   69SAPC   C21 5855   2.556   3.555   2.969 -0.0515 -0.8279  0.4439
   69SAPC   O22 5856   2.649   3.483   2.935  0.1630  0.0310  0.3642
   69SAPC   C22 5857   2.457   3.519   3.075  0.2074 -0.1851 -0.2708
   69SAPC   H2R 5858   2.457   3.597   3.154  1.4800 -1.3119  0.8935
   69SAPC   H2S 5859   2.356   3.517   3.029 -0.1990  0.5619  0.5489
   69SAPC    C3 5860   2.657   3.888   2.888  0.0534 -0.1982 -0.6126
   69SAPC    HX 5861   2.562   3.945   2.894  0.1954 -0.1077  2.4441
   69SAPC    HY 5862   2.724   3.934   2.812 -0.4616  1.1483 -0.2740
   69SAPC   O31 5863   2.697   3.893   3.027 -0.0673  0.2448  0.2351
   69SAPC   C31 5864   2.825   3.892   3.056  0.5603 -0.3010 -0.8951
   69SAPC   O32 5865   2.913   3.896   2.973 -0.6080  0.2389  0.0751
   69SAPC   C32 5866   2.852   3.869   3.202  0.3280 -0.3821  0.1137
   69SAPC   H2X 5867   2.864   3.970   3.248 -0.8570  0.6504 -1.7201
   69SAPC   H2Y 5868   2.940   3.802   3.208 -1.5256 -3.1753 -1.6922
   69SAPC   C23 5869   2.474   3.389   3.159 -0.3460 -0.2326 -0.5059
   69SAPC   H3R 5870   2.518   3.314   3.090  2.2807  1.1367 -0.4227
   69SAPC   H3S 5871   2.368   3.367   3.183 -0.9624  2.7375 -0.1223
   69SAPC   C24 5872   2.560   3.404   3.282 -0.1168 -0.3921  1.3177
   69SAPC   H4R 5873   2.528   3.485   3.352 -0.3464  1.1715 -0.5156
   69SAPC   H4S 5874   2.664   3.432   3.253 -0.8997  0.3923 -0.9258
   69SAPC   C25 5875   2.539   3.275   3.349 -1.0004 -0.3803 -0.1809
   69SAPC   H5R 5876   2.434   3.241   3.349 -0.5881 -1.7377  0.6426
   69SAPC   C26 5877   2.640   3.200   3.391  0.0966 -0.2475 -0.0249
   69SAPC   H6R 5878   2.614   3.109   3.446  1.3734  0.1238  1.2641
   69SAPC   C27 5879   2.782   3.228   3.373 -0.1967  0.3770 -0.0809
   69SAPC   H7R 5880   2.813   3.319   3.429  2.2412 -1.5560  1.9574
   69SAPC   H7S 5881   2.805   3.259   3.269  0.2134  1.5407  0.3479
   69SAPC   C28 5882   2.865   3.109   3.404 -1.4442  0.4523 -0.5351
   69SAPC   H8R 5883   2.895   3.056   3.313 -2.2835 -0.5056 -0.2757
   69SAPC   C29 5884   2.888   3.042   3.523 -0.4160  0.3442  0.3377
   69SAPC   H9R 5885   2.946   2.949   3.532  4.2047  2.8415 -0.2324
   69SAPC  C210 5886   2.829   3.096   3.654  0.9290 -0.8089 -0.1032
   69SAPC  H10R 5887   2.750   3.028   3.692 -0.5214 -0.0989 -1.7362
   69SAPC  H10S 5888   2.765   3.187   3.642 -2.0633 -2.9477 -1.7338
   69SAPC  C211 5889   2.939   3.115   3.757  0.3460 -0.5548  0.0131
   69SAPC  H11R 5890   3.040   3.129   3.716  0.0575 -1.9946 -1.2646
   69SAPC  C212 5891   2.924   3.100   3.891 -0.8013 -0.0128  0.8660
   69SAPC  H12R 5892   3.017   3.092   3.950  0.5460 -1.1922 -1.2631
   69SAPC  C213 5893   2.804   3.059   3.970 -0.2678  0.1186  0.7534
   69SAPC  H13R 5894   2.794   2.948   3.961 -0.0134  0.0955  0.7366
   69SAPC  H13S 5895   2.711   3.093   3.921  0.7279 -0.9719 -2.0859
   69SAPC  C214 5896   2.796   3.111   4.105  0.6965 -0.1596  0.1591
   69SAPC  H14R 5897   2.786   3.220   4.119 -0.1976 -0.2739  0.5256
   69SAPC  C215 5898   2.800   3.036   4.218  0.4618 -0.5777 -0.5851
   69SAPC  H15R 5899   2.796   3.096   4.311  0.6192  1.1669 -1.6603
   69SAPC  C216 5900   2.816   2.884   4.222 -0.3470 -0.1012  0.1819
   69SAPC  H16R 5901   2.921   2.864   4.252 -0.4769  0.4399  1.0180
   69SAPC  H16S 5902   2.790   2.830   4.128  0.7291 -1.9606  0.9114
   69SAPC  C217 5903   2.732   2.823   4.334 -0.1803  0.1721 -0.0266
   69SAPC  H17R 5904   2.744   2.713   4.327 -0.7327 -0.1395  2.8333
   69SAPC  H17S 5905   2.627   2.854   4.317 -1.6131 -3.5540  0.9225
   69SAPC  C218 5906   2.764   2.854   4.482 -0.2807  0.5359  0.4954
   69SAPC  H18R 5907   2.745   2.963   4.496 -1.1773  0.3281  0.9577
   69SAPC  H18S 5908   2.869   2.823   4.496 -1.4884 -3.0156  3.3266
   69SAPC  C219 5909   2.679   2.790   4.591  0.3096  0.0318  0.3141
   69SAPC  H19R 5910   2.692   2.847   4.686 -1.7748 -1.3937  1.5272
   69SAPC  H19S 5911   2.714   2.689   4.621 -3.3133 -1.2752  0.6001
   69SAPC  C220 5912   2.531   2.773   4.554  0.0988 -0.5549  0.4369
   69SAPC  H20R 5913   2.487   2.866   4.512  0.5184 -0.4656  0.1932
   69SAPC  H20S 5914   2.474   2.727   4.637 -0.3865  0.1477  0.4993
   69SAPC  H20T 5915   2.531   2.705   4.466  0.2033  0.4151 -0.3305
   69SAPC   C33 5916   2.738   3.794   3.272  0.6225 -0.1874  1.4483
   69SAPC   H3X 5917   2.721   3.694   3.227 -0.5409  0.7394 -0.2842
   69SAPC   H3Y 5918   2.643   3.852   3.265 -0.7378 -2.4128  0.3123
   69SAPC   C34 5919   2.778   3.778   3.419  0.4541 -0.0445 -0.4021
   69SAPC   H4X 5920   2.782   3.871   3.479  0.9976 -0.3509  0.0371
   69SAPC   H4Y 5921   2.877   3.730   3.436  0.5390  0.7134  1.4838
   69SAPC   C35 5922   2.685   3.675   3.494  0.3649  0.1600 -0.1198
   69SAPC   H5X 5923   2.702   3.574   3.451  2.5186 -0.8299  2.7056
   69SAPC   H5Y 5924   2.576   3.694   3.489 -0.2583 -2.5519  1.1796
   69SAPC   C36 5925   2.721   3.645   3.648  0.3838  0.1349 -0.0611
   69SAPC   H6X 5926   2.692   3.736   3.705  0.0216  1.6097 -2.4655
   69SAPC   H6Y 5927   2.831   3.640   3.655  0.5887  3.2225  0.4574
   69SAPC   C37 5928   2.647   3.520   3.705 -0.3023 -0.7037  0.2105
   69SAPC   H7X 5929   2.669   3.434   3.638 -1.2420  0.3327 -1.5244
   69SAPC   H7Y 5930   2.538   3.543   3.696  0.1583  2.8442  1.9990
   69SAPC   C38 5931   2.682   3.475   3.843  0.8232  0.0329  0.0137
   69SAPC   H8X 5932   2.792   3.462   3.837  0.8015  0.4265 -2.1011
   69SAPC   H8Y 5933   2.647   3.372   3.867  1.3921 -0.1100  0.2571
   69SAPC   C39 5934   2.652   3.577   3.947  0.0577 -0.1925 -0.3979
   69SAPC   H9X 5935   2.546   3.610   3.938 -0.5056 -1.4885  0.9890
   69SAPC   H9Y 5936   2.710   3.672   3.948  0.1073 -0.2228 -0.3712
   69SAPC  C310 5937   2.679   3.523   4.091  0.0989 -0.7145  0.0401
   69SAPC  H10X 5938   2.778   3.472   4.098  0.4660 -0.0089  0.0153
   69SAPC  H10Y 5939   2.599   3.449   4.113  0.0532 -0.5818  0.3259
   69SAPC  C311 5940   2.679   3.635   4.191 -0.3534 -0.5950  0.2184
   69SAPC  H11X 5941   2.596   3.705   4.167 -1.6702 -1.7240  1.2695
   69SAPC  H11Y 5942   2.778   3.685   4.185  0.6123 -2.2460  1.6391
   69SAPC  C312 5943   2.665   3.586   4.342  0.2010 -0.1229 -0.0580
   69SAPC  H12X 5944   2.753   3.528   4.376  0.7507 -0.2040 -1.5402
   69SAPC  H12Y 5945   2.579   3.516   4.348  0.7034 -0.7474 -0.0736
   69SAPC  C313 5946   2.622   3.690   4.446  0.1610  0.1932 -0.4260
   69SAPC  H13X 5947   2.522   3.718   4.407  0.3267 -0.7815 -1.6302
   69SAPC  H13Y 5948   2.696   3.773   4.452 -0.2506  0.7389 -2.2577
   69SAPC  C314 5949   2.607   3.633   4.594  0.0158  0.7403  0.5976
   69SAPC  H14X 5950   2.712   3.610   4.623  0.4205  0.9552 -0.6433
   69SAPC  H14Y 5951   2.539   3.545   4.594 -0.6443  1.2385 -0.2470
   69SAPC  C315 5952   2.553   3.742   4.681  0.3810 -0.3745  0.1366
   69SAPC  H15X 5953   2.447   3.768   4.656  0.5815 -0.7113 -1.1188
   69SAPC  H15Y 5954   2.601   3.841   4.670  2.2711 -1.1477  1.0642
   69SAPC  C316 5955   2.581   3.722   4.836  0.7474 -0.3494 -0.6863
   69SAPC  H16X 5956   2.691   3.714   4.848  0.9998  0.2221 -2.2833
   69SAPC  H16Y 5957   2.524   3.633   4.868 -0.1665  0.5188  0.1763
   69SAPC  C317 5958   2.519   3.843   4.922 -0.7449  0.1014 -0.2410
   69SAPC  H17X 5959   2.545   3.938   4.870  1.2932 -0.0260  0.4318
   69SAPC  H17Y 5960   2.579   3.849   5.016  1.3592 -1.1152 -1.4331
   69SAPC  C318 5961   2.374   3.854   4.953  0.2526  0.1193 -0.0201
   69SAPC  H18X 5962   2.348   3.947   5.007  0.2140  0.9522 -1.4109
   69SAPC  H18Y 5963   2.335   3.771   5.015 -3.4951  1.4276 -0.3738
   69SAPC  H18Z 5964   2.312   3.857   4.861  0.0063  0.9001  0.1585
   70SAPC     N 5965   5.797   0.515   2.475  0.3279 -0.6007  0.2818
   70SAPC   C12 5966   5.738   0.413   2.565 -0.3843 -0.0151 -0.7390
   70SAPC  H12A 5967   5.637   0.384   2.538 -0.5510 -3.1774  2.4489
   70SAPC  H12B 5968   5.712   0.461   2.658 -1.0147 -0.5504 -0.6283
   70SAPC   C13 5969   5.769   0.481   2.336 -0.4466 -0.0563  0.3697
   70SAPC  H13A 5970   5.812   0.384   2.312 -2.3778 -0.8597 -0.0973
   70SAPC  H13B 5971   5.665   0.458   2.318 -0.5448 -0.3978  1.3332
   70SAPC  H13C 5972   5.805   0.555   2.266 -0.3405  0.4435  0.9505
   70SAPC   C14 5973   5.724   0.643   2.506 -0.5475 -0.2922 -0.0120
   70SAPC  H14A 5974   5.760   0.716   2.436  0.1213 -1.2070 -0.6594
   70SAPC  H14B 5975   5.618   0.636   2.485 -0.5780  0.8332 -0.2491
   70SAPC  H14C 5976   5.728   0.674   2.610 -2.6485 -0.4816  0.1685
   70SAPC   C15 5977   5.947   0.532   2.488 -0.3857  0.1062  0.0592
   70SAPC  H15A 5978   5.990   0.612   2.429 -0.2077 -0.5677 -0.7357
   70SAPC  H15B 5979   5.972   0.549   2.592  0.9352 -0.8152 -0.0861
   70SAPC  H15C 5980   5.996   0.439   2.466 -1.2013 -0.1348 -0.7514
   70SAPC   C11 5981   5.823   0.287   2.588 -0.0235 -0.9712 -0.5928
   70SAPC  H11A 5982   5.916   0.316   2.640  0.2993 -1.7039 -0.7527
   70SAPC  H11B 5983   5.851   0.246   2.489  0.3153  0.5930 -1.1717
   70SAPC     P 5984   5.759   0.205   2.820 -0.3541  0.3357  0.4488
   70SAPC   O13 5985   5.685   0.086   2.865 -0.0056  0.3951 -0.2567
   70SAPC   O14 5986   5.895   0.220   2.868  0.0689  0.2087  0.2972
   70SAPC   O12 5987   5.747   0.199   2.661  0.0621  0.2427  0.0081
   70SAPC   O11 5988   5.675   0.329   2.858  0.2338  0.2866 -0.6968
   70SAPC    C1 5989   5.730   0.446   2.917  0.0504 -0.5218 -0.3220
   70SAPC    HA 5990   5.839   0.438   2.937  0.2582  0.7122 -0.8524
   70SAPC    HB 5991   5.726   0.530   2.844 -0.4840 -1.1148 -0.9850
   70SAPC    C2 5992   5.655   0.483   3.045  0.4384 -0.3236  0.0847
   70SAPC    HS 5993   5.681   0.588   3.069  1.0150 -0.0283 -1.6832
   70SAPC   O21 5994   5.688   0.393   3.150  0.0761 -0.0734 -0.0912
   70SAPC   C21 5995   5.814   0.403   3.190 -0.5549  0.7801 -0.1061
   70SAPC   O22 5996   5.897   0.479   3.153 -0.5560  0.1858  0.0787
   70SAPC   C22 5997   5.841   0.295   3.291 -1.1523 -0.0771  0.3884
   70SAPC   H2R 5998   5.762   0.296   3.369 -2.4078  1.5211 -0.8508
   70SAPC   H2S 5999   5.832   0.206   3.225  0.1050  0.5024 -0.6168
   70SAPC    C3 6000   5.503   0.489   3.026  1.0752  0.8344 -0.7664
   70SAPC    HX 6001   5.476   0.385   2.997  1.9130  0.7330 -1.2261
   70SAPC    HY 6002   5.469   0.551   2.940 -2.3264 -0.0855 -0.2536
   70SAPC   O31 6003   5.434   0.542   3.143  0.3590  0.9778 -0.2217
   70SAPC   C31 6004   5.367   0.450   3.215  0.0949 -0.6427 -0.1846
   70SAPC   O32 6005   5.332   0.341   3.180  0.2190  0.0116 -0.0201
   70SAPC   C32 6006   5.329   0.524   3.343 -0.3727  0.3990 -0.1324
   70SAPC   H2X 6007   5.235   0.580   3.324  0.0167  2.2871  2.7925
   70SAPC   H2Y 6008   5.414   0.594   3.355  0.4465 -0.0149 -2.8776
   70SAPC   C23 6009   5.986   0.304   3.351 -1.0918  0.1146 -0.0874
   70SAPC   H3R 6010   5.994   0.394   3.414 -0.9902  0.9399 -1.2494
   70SAPC   H3S 6011   6.066   0.311   3.274  1.1954 -0.5624  2.1055
   70SAPC   C24 6012   6.010   0.176   3.431  0.6007  0.1422 -0.1625
   70SAPC   H4R 6013   6.119   0.172   3.449  0.7118 -0.2074 -0.8603
   70SAPC   H4S 6014   5.986   0.092   3.362 -2.0854  1.6601 -1.2601
   70SAPC   C25 6015   5.937   0.168   3.565  0.2095 -0.2187  0.7754
   70SAPC   H5R 6016   5.843   0.112   3.554  0.5009 -0.3915 -1.4036
   70SAPC   C26 6017   5.986   0.197   3.685 -0.6252  0.0607  0.3336
   70SAPC   H6R 6018   5.919   0.181   3.771 -2.3465 -0.6132 -1.0574
   70SAPC   C27 6019   6.113   0.272   3.710  0.6613  0.2311  0.0644
   70SAPC   H7R 6020   6.094   0.382   3.708 -1.1691 -0.0630 -1.4041
   70SAPC   H7S 6021   6.195   0.247   3.640  1.6835  0.6415  1.0870
   70SAPC   C28 6022   6.167   0.224   3.841 -0.4619  0.1902  0.2930
   70SAPC   H8R 6023   6.187   0.117   3.848 -0.0844  0.3198  1.3186
   70SAPC   C29 6024   6.203   0.298   3.946  1.2805  0.1024 -0.2543
   70SAPC   H9R 6025   6.240   0.247   4.036 -0.6538  0.1585  0.6168
   70SAPC  C210 6026   6.187   0.439   3.975 -0.8141 -0.0029  0.0996
   70SAPC  H10R 6027   6.146   0.501   3.892 -1.8750  0.1985  0.7429
   70SAPC  H10S 6028   6.289   0.483   3.981 -1.3444  1.3404 -0.1915
   70SAPC  C211 6029   6.109   0.454   4.102  0.4205  0.5650  0.4031
   70SAPC  H11R 6030   6.009   0.498   4.090  0.3870  1.0552  2.1789
   70SAPC  C212 6031   6.148   0.440   4.230 -0.3063 -0.4271 -0.1462
   70SAPC  H12R 6032   6.070   0.448   4.307  0.9389 -2.1048  1.3838
   70SAPC  C213 6033   6.280   0.405   4.286 -1.0145  0.1000  0.2721
   70SAPC  H13R 6034   6.364   0.408   4.214 -0.0702  0.3242  1.3411
   70SAPC  H13S 6035   6.268   0.303   4.328 -2.7328  0.3127  0.3562
   70SAPC  C214 6036   6.320   0.500   4.403 -0.3287  0.4278 -0.2391
   70SAPC  H14R 6037   6.321   0.608   4.384 -2.3388  0.9840  2.2834
   70SAPC  C215 6038   6.324   0.470   4.531 -0.5083 -0.1551  0.5149
   70SAPC  H15R 6039   6.338   0.555   4.599 -0.7483 -0.1731  0.5868
   70SAPC  C216 6040   6.311   0.341   4.605  0.2602  0.1504  0.2327
   70SAPC  H16R 6041   6.407   0.297   4.639 -1.3596 -1.8790  2.5634
   70SAPC  H16S 6042   6.262   0.263   4.542  0.1435 -0.6177  1.2405
   70SAPC  C217 6043   6.223   0.373   4.728  0.3540  0.4158 -0.1741
   70SAPC  H17R 6044   6.137   0.437   4.701  0.7387  0.3645 -1.5643
   70SAPC  H17S 6045   6.283   0.432   4.801  0.5538  0.8249 -0.6670
   70SAPC  C218 6046   6.181   0.244   4.793 -0.4991 -0.5908 -0.2753
   70SAPC  H18R 6047   6.264   0.202   4.853 -0.0568  0.6123 -0.0263
   70SAPC  H18S 6048   6.169   0.169   4.711 -2.0450 -0.7081  0.0191
   70SAPC  C219 6049   6.045   0.267   4.861 -0.5221 -0.2610  0.5721
   70SAPC  H19R 6050   6.011   0.162   4.871  0.2249 -0.5027  0.5806
   70SAPC  H19S 6051   5.971   0.307   4.787  1.8948  0.5345 -1.5533
   70SAPC  C220 6052   6.040   0.346   4.983  0.4963 -0.3512  0.6130
   70SAPC  H20R 6053   5.937   0.361   5.021  0.5536  1.4835  0.1518
   70SAPC  H20S 6054   6.073   0.452   4.976  1.7652 -0.7922 -0.4942
   70SAPC  H20T 6055   6.112   0.298   5.051 -0.4777 -2.4590  0.2176
   70SAPC   C33 6056   5.301   0.430   3.461  0.1931  0.3688  0.4049
   70SAPC   H3X 6057   5.399   0.413   3.509 -0.5702 -1.7461  1.3142
   70SAPC   H3Y 6058   5.248   0.335   3.441 -0.3056 -0.3143  4.1835
   70SAPC   C34 6059   5.204   0.494   3.568  0.0230  0.3368  0.2154
   70SAPC   H4X 6060   5.202   0.427   3.657  0.1815 -1.1924 -0.8974
   70SAPC   H4Y 6061   5.097   0.499   3.540  0.4434 -1.1434 -1.9253
   70SAPC   C35 6062   5.255   0.630   3.619  0.8005 -0.0833  0.3270
   70SAPC   H5X 6063   5.252   0.704   3.537  1.7445 -1.3371 -0.8930
   70SAPC   H5Y 6064   5.361   0.606   3.643  0.5659 -1.3817  0.1563
   70SAPC   C36 6065   5.178   0.661   3.744  0.4040 -0.8286 -0.6441
   70SAPC   H6X 6066   5.068   0.647   3.745  0.3340 -0.3104 -0.6552
   70SAPC   H6Y 6067   5.189   0.770   3.763 -1.0115 -0.7711 -0.0421
   70SAPC   C37 6068   5.224   0.595   3.877 -0.3740  0.2909 -0.3334
   70SAPC   H7X 6069   5.191   0.489   3.878 -2.0850  0.8024  0.5994
   70SAPC   H7Y 6070   5.335   0.590   3.887 -0.3677  0.5626 -0.2753
   70SAPC   C38 6071   5.165   0.661   4.000  0.2987  0.4038 -0.4494
   70SAPC   H8X 6072   5.062   0.626   4.024  1.0280 -2.5466 -1.1885
   70SAPC   H8Y 6073   5.159   0.771   3.994  0.2470  0.4584  0.3846
   70SAPC   C39 6074   5.251   0.632   4.125 -0.1186  0.9611 -0.5495
   70SAPC   H9X 6075   5.343   0.692   4.113  1.2035 -1.2754 -2.4426
   70SAPC   H9Y 6076   5.274   0.523   4.126 -0.1203  0.9617 -0.4045
   70SAPC  C310 6077   5.191   0.684   4.258 -1.1879 -0.1003 -0.3184
   70SAPC  H10X 6078   5.104   0.625   4.292 -2.0909  0.4604 -1.6081
   70SAPC  H10Y 6079   5.163   0.791   4.251 -0.3830  0.1526  0.1798
   70SAPC  C311 6080   5.307   0.690   4.364 -0.4016 -0.3861  0.5118
   70SAPC  H11X 6081   5.375   0.772   4.333  2.2720 -2.3474  0.8196
   70SAPC  H11Y 6082   5.360   0.592   4.374 -1.3759 -0.7090  3.3250
   70SAPC  C312 6083   5.251   0.691   4.513  0.1973 -0.7575 -0.0430
   70SAPC  H12X 6084   5.319   0.646   4.589 -1.8458 -3.1339  0.5454
   70SAPC  H12Y 6085   5.165   0.621   4.521  1.7971 -3.1030 -2.0107
   70SAPC  C313 6086   5.210   0.832   4.545 -0.2385 -0.2956 -0.4859
   70SAPC  H13X 6087   5.143   0.871   4.466 -0.1889  0.9692  0.0661
   70SAPC  H13Y 6088   5.300   0.897   4.540 -1.0972  0.9927  0.1818
   70SAPC  C314 6089   5.134   0.851   4.678  0.4060  0.1924 -0.5999
   70SAPC  H14X 6090   5.194   0.808   4.761 -0.5524  1.5252  0.8373
   70SAPC  H14Y 6091   5.033   0.805   4.668  0.8161 -0.8260 -0.2459
   70SAPC  C315 6092   5.111   1.000   4.712 -0.0020 -1.0101 -0.3157
   70SAPC  H15X 6093   5.052   1.055   4.635 -0.7410 -0.0609  0.9010
   70SAPC  H15Y 6094   5.213   1.044   4.710 -0.2195 -0.4942 -2.0603
   70SAPC  C316 6095   5.048   1.023   4.856 -0.3388  0.0117  0.2741
   70SAPC  H16X 6096   5.110   0.972   4.933 -0.0216  0.5219  0.3619
   70SAPC  H16Y 6097   4.946   0.979   4.852  0.0587 -0.8132 -1.8316
   70SAPC  C317 6098   5.025   1.168   4.910  0.1020 -0.2123 -0.0465
   70SAPC  H17X 6099   4.996   1.236   4.828 -0.9274 -0.6822 -0.0873
   70SAPC  H17Y 6100   5.116   1.202   4.965 -1.0915  0.9898  1.2411
   70SAPC  C318 6101   4.911   1.163   5.018  0.2488 -0.4006  0.9330
   70SAPC  H18X 6102   4.951   1.096   5.097 -0.3908 -4.1193 -1.6023
   70SAPC  H18Y 6103   4.829   1.102   4.975  2.1000 -2.1435 -0.3412
   70SAPC  H18Z 6104   4.872   1.262   5.049 -0.1478 -0.9064  2.1031
   71SAPC     N 6105   5.022   5.980   2.812 -0.3950  0.4030 -0.1735
   71SAPC   C12 6106   5.065   5.888   2.703  0.0280  0.3291 -0.1880
   71SAPC  H12A 6107   5.077   5.927   2.603  1.3815  1.5794  0.4170
   71SAPC  H12B 6108   4.988   5.814   2.689  0.4735  0.2351 -2.3937
   71SAPC   C13 6109   5.133   6.066   2.861 -0.5567  0.0417 -0.4656
   71SAPC  H13A 6110   5.090   6.141   2.926 -2.0232  1.8554 -3.3065
   71SAPC  H13B 6111   5.213   6.015   2.912  0.2635  0.2105 -1.5598
   71SAPC  H13C 6112   5.186   6.118   2.783 -0.3665  0.2027 -0.2322
   71SAPC   C14 6113   4.891   6.056   2.780  0.5826 -0.4710  0.1749
   71SAPC  H14A 6114   4.849   6.111   2.863 -3.3617 -0.6955 -1.4290
   71SAPC  H14B 6115   4.912   6.132   2.706 -1.0838 -0.7625 -0.6567
   71SAPC  H14C 6116   4.814   5.990   2.743 -0.6637  1.7525 -1.4985
   71SAPC   C15 6117   4.979   5.900   2.927  0.4494 -0.3803  0.0957
   71SAPC  H15A 6118   5.039   5.814   2.952 -0.2476 -0.5680  1.1662
   71SAPC  H15B 6119   4.954   5.960   3.013 -0.6334 -0.8970  0.1562
   71SAPC  H15C 6120   4.888   5.848   2.900  1.0695 -0.6034 -1.7421
   71SAPC   C11 6121   5.193   5.806   2.736 -0.2181 -0.0950 -0.0639
   71SAPC  H11A 6122   5.270   5.873   2.780  0.4448 -1.8120  1.5189
   71SAPC  H11B 6123   5.232   5.774   2.638 -1.4210  0.0930 -0.6201
   71SAPC     P 6124   5.279   5.615   2.882  0.2746 -0.6605 -0.2595
   71SAPC   O13 6125   5.227   5.517   2.983 -0.2463  0.0351  0.3067
   71SAPC   O14 6126   5.355   5.566   2.765  0.3802  0.1781  0.0034
   71SAPC   O12 6127   5.155   5.695   2.818 -0.0820 -0.3840  0.5042
   71SAPC   O11 6128   5.366   5.733   2.950 -0.3024 -0.9190 -0.3145
   71SAPC    C1 6129   5.503   5.705   2.982  0.4649 -0.3268 -0.7294
   71SAPC    HA 6130   5.564   5.653   2.905  0.8995  1.2460 -1.4793
   71SAPC    HB 6131   5.557   5.802   2.993 -1.9859  1.4132 -2.8535
   71SAPC    C2 6132   5.518   5.622   3.112  0.5496 -0.1488 -0.1032
   71SAPC    HS 6133   5.493   5.516   3.090  0.6140 -0.7233  2.3102
   71SAPC   O21 6134   5.426   5.667   3.211 -0.5996  0.0803 -0.3453
   71SAPC   C21 6135   5.401   5.602   3.319  0.6007 -0.0913 -0.1592
   71SAPC   O22 6136   5.436   5.482   3.337 -0.0540 -0.5867 -0.6122
   71SAPC   C22 6137   5.309   5.677   3.414  0.5141  0.3667  0.0788
   71SAPC   H2R 6138   5.360   5.772   3.442 -0.4207  0.3686  1.9604
   71SAPC   H2S 6139   5.214   5.688   3.358  0.6959 -0.2806 -0.3668
   71SAPC    C3 6140   5.658   5.624   3.157 -0.0573 -0.2380 -0.5249
   71SAPC    HX 6141   5.719   5.595   3.068  1.9621  1.3066  0.2705
   71SAPC    HY 6142   5.679   5.551   3.239 -1.3467  0.9770  0.9444
   71SAPC   O31 6143   5.693   5.756   3.195  0.0374  0.0362 -0.1230
   71SAPC   C31 6144   5.719   5.771   3.327  0.5828 -0.1855 -0.0076
   71SAPC   O32 6145   5.696   5.690   3.411  0.3413 -0.2095 -0.6268
   71SAPC   C32 6146   5.787   5.895   3.350 -0.0940 -0.0046 -0.3239
   71SAPC   H2X 6147   5.725   5.982   3.320 -1.7170 -0.1735  2.2775
   71SAPC   H2Y 6148   5.873   5.894   3.280 -2.4201 -4.0537 -3.5584
   71SAPC   C23 6149   5.293   5.604   3.547  0.4157  0.3699 -0.6113
   71SAPC   H3R 6150   5.380   5.639   3.607 -0.2705  0.8256  0.1196
   71SAPC   H3S 6151   5.300   5.494   3.527  0.3077 -0.0346  1.4011
   71SAPC   C24 6152   5.157   5.634   3.615  0.0632  0.0860 -0.0506
   71SAPC   H4R 6153   5.131   5.739   3.588 -1.6615 -0.3461 -0.1978
   71SAPC   H4S 6154   5.176   5.629   3.725 -0.2131 -2.8102 -0.0568
   71SAPC   C25 6155   5.049   5.536   3.584 -0.2010 -0.3984 -0.1495
   71SAPC   H5R 6156   5.064   5.479   3.491 -1.0303 -0.8000 -0.0436
   71SAPC   C26 6157   4.932   5.518   3.655 -0.2940 -0.5082  0.3607
   71SAPC   H6R 6158   4.860   5.442   3.621  0.8805 -1.5380  0.1209
   71SAPC   C27 6159   4.890   5.602   3.781 -0.0356 -0.6654 -0.5514
   71SAPC   H7R 6160   4.980   5.635   3.837 -1.3044  1.2609  0.4450
   71SAPC   H7S 6161   4.844   5.540   3.860  2.6304 -1.5559  0.4180
   71SAPC   C28 6162   4.796   5.715   3.751 -0.3604  0.0448 -0.2255
   71SAPC   H8R 6163   4.836   5.815   3.773 -0.8899  0.3628 -0.7003
   71SAPC   C29 6164   4.668   5.691   3.733  0.1059  0.3520 -0.8496
   71SAPC   H9R 6165   4.599   5.775   3.715  0.0312  0.6886  0.8498
   71SAPC  C210 6166   4.601   5.559   3.731 -0.4712  0.0601 -0.4331
   71SAPC  H10R 6167   4.679   5.487   3.699  1.3702  1.0332  1.5977
   71SAPC  H10S 6168   4.530   5.560   3.645  0.3466 -1.0304 -1.1538
   71SAPC  C211 6169   4.547   5.504   3.861  0.4443 -0.3247 -0.3770
   71SAPC  H11R 6170   4.568   5.553   3.957 -1.2511  0.0245 -0.1525
   71SAPC  C212 6171   4.453   5.416   3.870 -0.0950  0.0392 -0.1491
   71SAPC  H12R 6172   4.403   5.396   3.966  3.0520  2.7108  2.2802
   71SAPC  C213 6173   4.399   5.331   3.754 -0.8607  0.7349  0.1987
   71SAPC  H13R 6174   4.450   5.233   3.743 -0.5556  0.7107  1.6261
   71SAPC  H13S 6175   4.424   5.380   3.658  0.6131  1.0737  0.7319
   71SAPC  C214 6176   4.246   5.300   3.763  0.0571  0.1434 -0.2101
   71SAPC  H14R 6177   4.182   5.387   3.741 -0.3782  0.1440  0.9535
   71SAPC  C215 6178   4.193   5.186   3.807 -0.4752 -0.5961 -0.4437
   71SAPC  H15R 6179   4.084   5.172   3.809 -0.5639 -0.0856 -1.1930
   71SAPC  C216 6180   4.279   5.085   3.880  0.0409 -0.4128 -0.0461
   71SAPC  H16R 6181   4.374   5.133   3.912 -0.5893 -0.4734  2.0317
   71SAPC  H16S 6182   4.304   4.999   3.815 -0.3255 -0.0139 -0.7281
   71SAPC  C217 6183   4.219   5.021   4.012 -0.9970 -0.8530  0.1267
   71SAPC  H17R 6184   4.190   5.106   4.078 -1.0943  0.0796 -1.0875
   71SAPC  H17S 6185   4.314   4.987   4.058 -0.8508 -1.4981 -0.6311
   71SAPC  C218 6186   4.116   4.917   3.984 -0.0366  0.5674 -0.3746
   71SAPC  H18R 6187   4.154   4.852   3.903 -0.2896 -0.9711  0.6959
   71SAPC  H18S 6188   4.027   4.973   3.949  0.8313  2.3277  0.0921
   71SAPC  C219 6189   4.080   4.830   4.107  0.1995 -0.0373 -0.5023
   71SAPC  H19R 6190   4.159   4.759   4.139  0.4516  1.3544  2.3486
   71SAPC  H19S 6191   3.992   4.770   4.076 -0.4575  0.6867 -0.0870
   71SAPC  C220 6192   4.051   4.920   4.220  0.2066 -0.0769  0.1150
   71SAPC  H20R 6193   4.006   4.858   4.301 -3.2839  1.8279 -0.1820
   71SAPC  H20S 6194   3.976   4.991   4.181  0.5345 -0.1254 -0.6172
   71SAPC  H20T 6195   4.143   4.975   4.252  1.7622 -1.9378 -0.9439
   71SAPC   C33 6196   5.822   5.914   3.498 -0.1200  0.0331  0.0447
   71SAPC   H3X 6197   5.905   5.842   3.514  1.3202  1.6470  0.0415
   71SAPC   H3Y 6198   5.743   5.894   3.573 -0.4913  2.9050  0.5028
   71SAPC   C34 6199   5.882   6.055   3.528 -0.2630  0.4617 -0.4865
   71SAPC   H4X 6200   5.797   6.124   3.546  0.6387  1.6709 -0.7212
   71SAPC   H4Y 6201   5.936   6.093   3.438  1.0701  0.5517  0.3289
   71SAPC   C35 6202   5.963   6.049   3.655 -0.3734  0.8790 -0.1654
   71SAPC   H5X 6203   6.026   6.139   3.671  2.3213 -1.0079  0.5440
   71SAPC   H5Y 6204   6.037   5.967   3.658 -1.9521 -0.5709  1.1109
   71SAPC   C36 6205   5.890   6.034   3.791  0.2479 -0.2766  0.5444
   71SAPC   H6X 6206   5.838   5.936   3.791 -0.1065 -0.0922  0.4552
   71SAPC   H6Y 6207   5.810   6.112   3.790 -0.2801 -0.8044 -0.8610
   71SAPC   C37 6208   5.980   6.065   3.910  0.3411 -0.3249 -0.5673
   71SAPC   H7X 6209   6.026   6.166   3.902 -1.1385  0.2751 -2.2395
   71SAPC   H7Y 6210   6.057   5.987   3.922  0.3305 -0.1975  0.5166
   71SAPC   C38 6211   5.882   6.063   4.035  0.0313 -0.3886  0.0906
   71SAPC   H8X 6212   5.838   5.961   4.036 -1.3236  0.1780  0.0427
   71SAPC   H8Y 6213   5.807   6.144   4.019 -0.4778 -0.9891 -0.6322
   71SAPC   C39 6214   5.947   6.078   4.172  0.2683  0.2189  0.4981
   71SAPC   H9X 6215   5.877   6.143   4.229 -0.0561  0.1531  0.1750
   71SAPC   H9Y 6216   6.041   6.138   4.169  1.4484 -1.6195 -0.8262
   71SAPC  C310 6217   5.943   5.953   4.248  0.8291  0.4279 -0.2061
   71SAPC  H10X 6218   5.999   5.863   4.212 -0.0029 -0.3863  0.4922
   71SAPC  H10Y 6219   5.837   5.920   4.243  0.5688  1.3427 -0.9310
   71SAPC  C311 6220   5.989   5.974   4.397  0.0699 -0.4429  0.8070
   71SAPC  H11X 6221   5.929   6.051   4.451  0.9815  0.2256  0.8718
   71SAPC  H11Y 6222   6.092   6.013   4.386 -0.4253  0.1668 -2.4068
   71SAPC  C312 6223   5.988   5.837   4.469 -0.2512  0.1346 -0.3076
   71SAPC  H12X 6224   6.070   5.779   4.421  0.7373 -1.0906  2.5889
   71SAPC  H12Y 6225   5.889   5.789   4.456 -0.8490  1.1482  0.4391
   71SAPC  C313 6226   6.028   5.842   4.616  1.5131  0.0433  0.1191
   71SAPC  H13X 6227   6.100   5.922   4.641  1.7796 -1.1779  3.9105
   71SAPC  H13Y 6228   6.082   5.746   4.631  0.5477 -0.6133 -0.4906
   71SAPC  C314 6229   5.913   5.845   4.710 -0.2016 -0.2772 -0.8274
   71SAPC  H14X 6230   5.858   5.748   4.702 -2.8524  0.8654  1.8474
   71SAPC  H14Y 6231   5.840   5.924   4.682  0.1039  0.5294  0.5648
   71SAPC  C315 6232   5.951   5.860   4.854 -0.1863  0.4826 -0.3690
   71SAPC  H15X 6233   5.868   5.848   4.927  1.0944 -0.6428  0.9794
   71SAPC  H15Y 6234   5.992   5.962   4.872  0.4596  0.4273 -1.4782
   71SAPC  C316 6235   6.059   5.773   4.904  0.1014  0.0862  0.1241
   71SAPC  H16X 6236   6.085   5.812   5.005 -0.0870  0.1427  0.1510
   71SAPC  H16Y 6237   6.154   5.783   4.846  0.1727  0.5500  0.3112
   71SAPC  C317 6238   6.026   5.624   4.918 -0.3760  0.7414 -0.2596
   71SAPC  H17X 6239   6.120   5.564   4.925 -1.4335 -0.9176  0.3889
   71SAPC  H17Y 6240   5.969   5.590   4.829  1.6584  0.2454 -1.4492
   71SAPC  C318 6241   5.957   5.586   5.048 -0.7715 -0.5844  0.3949
   71SAPC  H18X 6242   5.851   5.620   5.056 -1.0269 -1.0460 -0.8658
   71SAPC  H18Y 6243   6.019   5.615   5.136 -2.8170 -0.7496  1.9817
   71SAPC  H18Z 6244   5.962   5.476   5.058  1.5651 -0.9511 -3.2932
   72SAPC     N 6245   5.954   6.687   2.725  0.4812 -0.0803  0.3372
   72SAPC   C12 6246   5.842   6.682   2.829 -0.4752 -1.0166 -0.0490
   72SAPC  H12A 6247   5.742   6.683   2.788  0.4844 -2.0652 -2.6487
   72SAPC  H12B 6248   5.849   6.780   2.874  0.4478 -0.5978 -1.0401
   72SAPC   C13 6249   6.078   6.697   2.802 -0.1140 -0.1031  0.1871
   72SAPC  H13A 6250   6.152   6.714   2.726 -0.4853 -1.8618 -0.6033
   72SAPC  H13B 6251   6.082   6.789   2.859 -0.7827 -0.9505  1.6803
   72SAPC  H13C 6252   6.092   6.609   2.863  1.9908  0.8464  1.1708
   72SAPC   C14 6253   5.953   6.561   2.649  0.0077 -0.0461 -0.2715
   72SAPC  H14A 6254   6.040   6.567   2.586 -0.1882  2.5832 -0.3976
   72SAPC  H14B 6255   5.966   6.481   2.721  0.8804 -2.1163 -2.6170
   72SAPC  H14C 6256   5.862   6.540   2.595 -0.1070 -0.8260  0.1991
   72SAPC   C15 6257   5.940   6.804   2.631  0.0521 -0.1049  0.4963
   72SAPC  H15A 6258   5.847   6.803   2.575  1.0520  1.1960 -1.3059
   72SAPC  H15B 6259   5.936   6.900   2.680 -2.1744 -0.2215  0.6403
   72SAPC  H15C 6260   6.019   6.805   2.557 -1.2604  1.4165 -0.9821
   72SAPC   C11 6261   5.848   6.567   2.935  0.6702  0.7447 -0.0231
   72SAPC  H11A 6262   5.919   6.600   3.013  1.0983  1.7146 -0.8003
   72SAPC  H11B 6263   5.874   6.470   2.888  1.4484  1.3379 -0.8405
   72SAPC     P 6264   5.599   6.479   2.900 -0.1345 -0.0499  0.2722
   72SAPC   O13 6265   5.567   6.552   2.778 -0.1061 -0.2613  0.1036
   72SAPC   O14 6266   5.638   6.335   2.878  0.1390 -0.7157  0.2312
   72SAPC   O12 6267   5.717   6.560   2.988  0.1136  0.0267 -0.0037
   72SAPC   O11 6268   5.468   6.493   2.995 -0.8591 -0.1796  0.4368
   72SAPC    C1 6269   5.486   6.455   3.130  0.0413 -0.7727  0.1848
   72SAPC    HA 6270   5.503   6.349   3.161  0.8364 -0.8205 -0.3849
   72SAPC    HB 6271   5.555   6.529   3.176  0.3157  1.2282 -3.1386
   72SAPC    C2 6272   5.358   6.488   3.222  1.1178 -0.5773  0.5304
   72SAPC    HS 6273   5.271   6.440   3.173  2.2008 -1.7606 -0.2852
   72SAPC   O21 6274   5.335   6.630   3.201  0.4935 -0.4533 -0.1394
   72SAPC   C21 6275   5.216   6.673   3.248 -0.0416  0.1876  0.3296
   72SAPC   O22 6276   5.117   6.607   3.262  0.4958  0.1135 -0.0141
   72SAPC   C22 6277   5.221   6.826   3.268  0.6975  0.8241  0.0795
   72SAPC   H2R 6278   5.325   6.857   3.245  1.5700 -2.9451 -1.8366
   72SAPC   H2S 6279   5.152   6.871   3.194  1.7157  0.3534 -1.1806
   72SAPC    C3 6280   5.372   6.449   3.368  0.4115  0.9187  0.3317
   72SAPC    HX 6281   5.273   6.446   3.419  0.1047 -0.5985 -0.3226
   72SAPC    HY 6282   5.431   6.528   3.420 -1.9571  1.7786  1.8734
   72SAPC   O31 6283   5.448   6.332   3.399  0.0393  1.2618  0.1959
   72SAPC   C31 6284   5.390   6.212   3.374 -0.4177  0.2522 -0.4182
   72SAPC   O32 6285   5.279   6.194   3.339 -0.3712  0.3714 -0.0906
   72SAPC   C32 6286   5.490   6.090   3.395  0.4471 -0.1087  0.3263
   72SAPC   H2X 6287   5.595   6.125   3.396  0.5952 -0.5571  0.4972
   72SAPC   H2Y 6288   5.465   6.018   3.314  1.0165 -0.9079  0.8463
   72SAPC   C23 6289   5.177   6.869   3.409  1.0749  0.3701  0.1511
   72SAPC   H3R 6290   5.077   6.825   3.427 -0.3244  2.6477 -1.4749
   72SAPC   H3S 6291   5.153   6.977   3.405  1.4262  0.4823  0.9817
   72SAPC   C24 6292   5.273   6.846   3.529 -0.4354  0.1486  0.2050
   72SAPC   H4R 6293   5.304   6.740   3.544  0.6011  0.0546 -2.1599
   72SAPC   H4S 6294   5.224   6.881   3.622  0.6328 -0.8754  1.1993
   72SAPC   C25 6295   5.403   6.928   3.517  0.2349 -0.1787 -0.1321
   72SAPC   H5R 6296   5.447   6.924   3.417 -2.8529 -0.2977 -1.6009
   72SAPC   C26 6297   5.477   6.999   3.607  0.4710  0.2121 -0.5490
   72SAPC   H6R 6298   5.569   7.045   3.569 -1.3313  2.6046 -2.3411
   72SAPC   C27 6299   5.447   7.017   3.752 -0.3978  0.2311  0.0524
   72SAPC   H7R 6300   5.402   6.929   3.801  0.8782 -0.7130 -0.4190
   72SAPC   H7S 6301   5.373   7.100   3.762 -1.2025 -0.5177  0.4820
   72SAPC   C28 6302   5.574   7.047   3.827  0.1997  0.4132  0.1775
   72SAPC   H8R 6303   5.621   6.954   3.864 -2.1294 -0.3161  1.5473
   72SAPC   C29 6304   5.630   7.165   3.866 -0.1732 -0.5751  0.1432
   72SAPC   H9R 6305   5.731   7.169   3.910 -0.1009  0.2324 -0.0915
   72SAPC  C210 6306   5.573   7.297   3.830 -0.1721 -0.3550  0.5080
   72SAPC  H10R 6307   5.575   7.365   3.918  1.5636  1.4585 -0.8502
   72SAPC  H10S 6308   5.470   7.290   3.789 -0.1054 -1.9039  0.5534
   72SAPC  C211 6309   5.662   7.379   3.734 -0.1775  0.6914  0.2548
   72SAPC  H11R 6310   5.628   7.378   3.629  0.1923  0.3946  0.1346
   72SAPC  C212 6311   5.772   7.460   3.770 -0.0062 -0.2026 -0.3521
   72SAPC  H12R 6312   5.816   7.520   3.689  1.5380 -0.3071  0.3742
   72SAPC  C213 6313   5.810   7.474   3.915  0.5629  0.6538 -1.1017
   72SAPC  H13R 6314   5.920   7.482   3.931  0.8095  0.4934 -2.5881
   72SAPC  H13S 6315   5.799   7.378   3.970  0.4884 -0.0758 -2.3503
   72SAPC  C214 6316   5.747   7.594   3.984 -0.1459 -0.3901  0.6135
   72SAPC  H14R 6317   5.762   7.687   3.927 -1.4363  0.4691  1.5749
   72SAPC  C215 6318   5.705   7.608   4.114  0.4133  1.1964 -0.0609
   72SAPC  H15R 6319   5.647   7.695   4.146 -2.3378 -0.4349 -0.3023
   72SAPC  C216 6320   5.698   7.498   4.217 -0.1098  0.1453  0.1917
   72SAPC  H16R 6321   5.738   7.410   4.163  0.5370  1.5348 -1.7396
   72SAPC  H16S 6322   5.593   7.475   4.247 -0.0811  0.3673  0.4636
   72SAPC  C217 6323   5.782   7.517   4.345  0.3317 -0.0552  0.3792
   72SAPC  H17R 6324   5.736   7.606   4.392 -2.3996 -0.8988 -0.5116
   72SAPC  H17S 6325   5.888   7.529   4.314  1.2181  0.3802  3.3191
   72SAPC  C218 6326   5.787   7.392   4.429 -0.1831 -0.0682  0.1650
   72SAPC  H18R 6327   5.832   7.306   4.374  0.1614  0.0506  0.2630
   72SAPC  H18S 6328   5.681   7.363   4.448  0.0336 -0.2212  1.1795
   72SAPC  C219 6329   5.860   7.411   4.558  0.0789 -0.6164 -0.4253
   72SAPC  H19R 6330   5.956   7.460   4.535 -0.6615  0.8130 -0.5460
   72SAPC  H19S 6331   5.884   7.313   4.605  0.3613 -0.2718  0.1623
   72SAPC  C220 6332   5.798   7.508   4.664  0.3580  0.0349  0.4029
   72SAPC  H20R 6333   5.866   7.521   4.750 -2.7733 -1.9094  3.4387
   72SAPC  H20S 6334   5.703   7.469   4.706  0.4317 -0.8789 -0.2368
   72SAPC  H20T 6335   5.771   7.605   4.617  2.1087 -0.6474 -2.2719
   72SAPC   C33 6336   5.460   6.026   3.530  0.1232  0.7481  0.3139
   72SAPC   H3X 6337   5.533   5.943   3.536  3.4593  3.4519  0.1592
   72SAPC   H3Y 6338   5.352   5.997   3.532  0.0697  0.9881  1.3917
   72SAPC   C34 6339   5.477   6.118   3.641 -0.4677  0.2068 -0.7432
   72SAPC   H4X 6340   5.383   6.177   3.648 -2.1045 -2.1870 -1.4131
   72SAPC   H4Y 6341   5.563   6.186   3.622  0.2490 -0.1789  0.9536
   72SAPC   C35 6342   5.508   6.040   3.774  0.3233 -0.1452  0.9381
   72SAPC   H5X 6343   5.604   5.986   3.762 -0.4299 -1.4679  0.7504
   72SAPC   H5Y 6344   5.421   5.972   3.790 -0.7311  1.7340  4.3400
   72SAPC   C36 6345   5.521   6.141   3.888  0.2853 -0.4694 -0.6679
   72SAPC   H6X 6346   5.435   6.210   3.884  1.1096  0.5896 -0.5455
   72SAPC   H6Y 6347   5.615   6.199   3.876 -0.5041  1.2004  0.8589
   72SAPC   C37 6348   5.526   6.076   4.029  0.3183 -0.2052  0.8474
   72SAPC   H7X 6349   5.606   5.999   4.025  2.6961  2.1615  0.3565
   72SAPC   H7Y 6350   5.425   6.035   4.049  0.5582 -0.4301  1.6606
   72SAPC   C38 6351   5.551   6.177   4.139  0.5835  0.5962  0.1885
   72SAPC   H8X 6352   5.481   6.264   4.141 -0.7732 -0.4869  1.4795
   72SAPC   H8Y 6353   5.649   6.227   4.124  0.6302  0.6752  0.7417
   72SAPC   C39 6354   5.552   6.121   4.281  0.5619  0.3403 -0.2060
   72SAPC   H9X 6355   5.607   6.026   4.264  0.0897  0.1370 -0.6437
   72SAPC   H9Y 6356   5.447   6.096   4.307  1.0517  0.1782  1.7951
   72SAPC  C310 6357   5.612   6.227   4.366 -0.8749 -0.3571 -0.5178
   72SAPC  H10X 6358   5.563   6.326   4.371  2.1384  1.4005 -2.4412
   72SAPC  H10Y 6359   5.719   6.245   4.342 -0.3375 -0.6526  1.4815
   72SAPC  C311 6360   5.625   6.176   4.511  0.4934 -0.0112  0.2563
   72SAPC  H11X 6361   5.677   6.079   4.522  0.1810  0.0150  2.4634
   72SAPC  H11Y 6362   5.524   6.156   4.554  0.4050 -0.4519 -0.1609
   72SAPC  C312 6363   5.699   6.284   4.597  0.7028 -0.2565  0.2220
   72SAPC  H12X 6364   5.643   6.376   4.623  0.2054 -0.3196 -0.5964
   72SAPC  H12Y 6365   5.781   6.333   4.541 -0.2232 -0.6803 -1.5747
   72SAPC  C313 6366   5.753   6.233   4.729  0.1471 -1.0054  0.1467
   72SAPC  H13X 6367   5.829   6.154   4.709  0.4878 -0.2686 -1.6249
   72SAPC  H13Y 6368   5.671   6.192   4.792  1.0798 -1.2858  1.2034
   72SAPC  C314 6369   5.806   6.350   4.816  0.7910 -0.3083  0.3842
   72SAPC  H14X 6370   5.818   6.308   4.918  1.0342  0.4177  0.6660
   72SAPC  H14Y 6371   5.726   6.427   4.824 -0.1929 -1.0950 -1.4049
   72SAPC  C315 6372   5.931   6.418   4.759  0.0449  0.6669  0.2415
   72SAPC  H15X 6373   5.896   6.475   4.670 -2.8230 -1.6389 -0.2600
   72SAPC  H15Y 6374   6.008   6.350   4.717  0.9104  3.1963 -2.6467
   72SAPC  C316 6375   5.988   6.524   4.845 -0.3932 -0.4174 -0.5374
   72SAPC  H16X 6376   6.030   6.470   4.932  0.2608  0.9958  0.0500
   72SAPC  H16Y 6377   5.906   6.588   4.884  1.4617  0.5976  1.9339
   72SAPC  C317 6378   6.102   6.598   4.779  0.0160 -0.1588 -0.5690
   72SAPC  H17X 6379   6.087   6.607   4.670  1.6548 -2.7837 -1.1092
   72SAPC  H17Y 6380   6.199   6.544   4.789  0.6343  0.7514 -1.5601
   72SAPC  C318 6381   6.131   6.744   4.825 -0.6013 -0.5938  0.2209
   72SAPC  H18X 6382   6.048   6.813   4.799  0.9176  0.7948 -1.1961
   72SAPC  H18Y 6383   6.229   6.767   4.779 -1.1582  0.7092 -0.3715
   72SAPC  H18Z 6384   6.144   6.766   4.933 -1.5971 -3.1328  0.9324
   73SLPC     N 6385   3.734   3.338   7.246  0.3671  0.0679 -0.2161
   73SLPC   C13 6386   3.828   3.359   7.352 -0.7488  0.3371  0.8117
   73SLPC  H13A 6387   3.811   3.456   7.396  0.4610  1.0565 -0.2163
   73SLPC  H13B 6388   3.823   3.278   7.422  2.0231 -1.2481 -0.6647
   73SLPC  H13C 6389   3.927   3.355   7.310  0.6192  0.1512  3.8664
   73SLPC   C14 6390   3.764   3.436   7.136  0.1838  0.6190  0.7024
   73SLPC  H14A 6391   3.682   3.437   7.066  1.7734 -0.9923 -1.3025
   73SLPC  H14B 6392   3.766   3.539   7.170 -0.5420  0.7520  0.3586
   73SLPC  H14C 6393   3.859   3.413   7.089 -0.3569 -0.8487  0.2915
   73SLPC   C15 6394   3.598   3.366   7.306  0.1050  0.5825  0.4815
   73SLPC  H15A 6395   3.598   3.433   7.391 -0.8733  1.4763 -0.2027
   73SLPC  H15B 6396   3.543   3.414   7.226 -0.7809 -0.6119  0.3570
   73SLPC  H15C 6397   3.545   3.274   7.323  0.9798 -0.0574 -0.1672
   73SLPC   C12 6398   3.728   3.200   7.181 -0.2292 -0.1200 -0.0293
   73SLPC  H12A 6399   3.691   3.130   7.254 -0.9667  2.4498  2.2147
   73SLPC  H12B 6400   3.829   3.171   7.158  0.3079  1.7385 -0.1824
   73SLPC   C11 6401   3.629   3.180   7.060  0.0584 -0.4341 -0.1149
   73SLPC  H11A 6402   3.657   3.087   7.007  0.3990  0.5226 -1.6917
   73SLPC  H11B 6403   3.639   3.256   6.979  0.8932 -0.9709 -0.5310
   73SLPC     P 6404   3.409   3.041   7.105  0.3450 -0.1467  0.3836
   73SLPC   O13 6405   3.483   2.931   7.173  0.6191  0.0809  0.4972
   73SLPC   O14 6406   3.276   3.074   7.164 -0.7204 -0.0080 -0.4512
   73SLPC   O12 6407   3.496   3.171   7.102  0.3034 -0.2791 -0.2516
   73SLPC   O11 6408   3.400   3.013   6.953 -0.4732 -0.2691  0.3488
   73SLPC    C1 6409   3.281   3.000   6.877 -0.1158 -0.6584  0.9399
   73SLPC    HA 6410   3.232   2.904   6.907 -0.7499  0.0114  2.1343
   73SLPC    HB 6411   3.209   3.080   6.904 -1.9177 -0.8435 -2.8130
   73SLPC    C2 6412   3.301   3.001   6.719 -0.4202 -0.8730 -0.3622
   73SLPC    HS 6413   3.363   2.916   6.684  1.2035  0.6831 -1.5112
   73SLPC   O21 6414   3.360   3.127   6.676  0.2187 -0.0801 -0.1161
   73SLPC   C21 6415   3.486   3.126   6.684  0.1944 -0.1395  0.5266
   73SLPC   O22 6416   3.559   3.025   6.700 -0.2208 -0.5643  0.8842
   73SLPC   C22 6417   3.540   3.270   6.671  0.4724 -0.9132 -0.3378
   73SLPC   H2R 6418   3.451   3.337   6.671  0.7283 -0.5560  0.6324
   73SLPC   H2S 6419   3.601   3.294   6.761 -0.9951  1.5782  0.0898
   73SLPC    C3 6420   3.153   2.966   6.648 -0.1852 -0.5096  0.1784
   73SLPC    HX 6421   3.072   3.020   6.702  1.4382  2.3697 -0.0951
   73SLPC    HY 6422   3.137   2.856   6.648  0.1871 -0.6229 -2.3874
   73SLPC   O31 6423   3.152   3.018   6.514 -0.4705  0.3543 -0.2873
   73SLPC   C31 6424   3.211   2.949   6.413 -0.5294 -0.2574 -0.6580
   73SLPC   O32 6425   3.251   2.834   6.421  0.2355 -0.4080 -0.1319
   73SLPC   C32 6426   3.195   3.027   6.284  0.1142  0.2564 -0.1278
   73SLPC   H2X 6427   3.125   3.112   6.300  0.3049  0.3564  0.1975
   73SLPC   H2Y 6428   3.153   2.949   6.217 -1.1760  1.0286 -0.2428
   73SLPC   C23 6429   3.618   3.298   6.534  0.4540  0.4174 -0.0704
   73SLPC   H3R 6430   3.557   3.264   6.448 -0.6561 -1.2099  1.2755
   73SLPC   H3S 6431   3.710   3.236   6.540  0.1055 -0.0308  0.9297
   73SLPC   C24 6432   3.650   3.445   6.510  0.0373  0.5550 -0.0381
   73SLPC   H4R 6433   3.711   3.458   6.418 -0.7392 -0.3776 -0.7049
   73SLPC   H4S 6434   3.720   3.473   6.591 -0.2752  0.4085  0.2862
   73SLPC   C25 6435   3.527   3.545   6.513 -0.4143  0.6202  0.4816
   73SLPC   H5R 6436   3.574   3.641   6.481 -2.6181  1.4305 -0.5401
   73SLPC   H5S 6437   3.485   3.552   6.615  1.2727 -0.2597  1.2697
   73SLPC   C26 6438   3.415   3.529   6.408  0.1542  0.3433 -0.8606
   73SLPC   H6R 6439   3.352   3.620   6.412  0.5646  0.6091  2.8557
   73SLPC   H6S 6440   3.359   3.447   6.458 -0.9556  1.4020 -0.3389
   73SLPC   C27 6441   3.457   3.487   6.272  0.6942  0.4074  0.0704
   73SLPC   H7R 6442   3.515   3.392   6.278  1.7428  1.0220 -0.0772
   73SLPC   H7S 6443   3.525   3.557   6.220  1.7404  0.3839  1.3685
   73SLPC   C28 6444   3.333   3.449   6.191  0.9814  0.4451  0.5136
   73SLPC   H8R 6445   3.269   3.395   6.264  2.0806  0.6251  1.6449
   73SLPC   H8S 6446   3.356   3.381   6.106 -0.7263  1.0647 -0.4843
   73SLPC   C29 6447   3.251   3.569   6.140 -0.6386 -0.1802  0.3643
   73SLPC   H9R 6448   3.203   3.624   6.223 -0.8822 -1.0396  0.8011
   73SLPC  C210 6449   3.248   3.620   6.016 -0.4878 -0.1145  0.3770
   73SLPC  H10R 6450   3.188   3.707   5.986  1.9914  1.4679 -0.2426
   73SLPC  C211 6451   3.304   3.558   5.884 -0.5337 -0.2825 -0.0902
   73SLPC  H11R 6452   3.339   3.455   5.909  0.4437 -0.3888 -1.7308
   73SLPC  H11S 6453   3.401   3.611   5.879 -0.6149 -0.0239  0.9261
   73SLPC  C212 6454   3.214   3.556   5.761  0.3056 -0.7101  0.0594
   73SLPC  H12R 6455   3.219   3.651   5.706  0.0070  0.4028  1.8659
   73SLPC  C213 6456   3.145   3.453   5.708  0.5868  0.0273 -0.1721
   73SLPC  H13R 6457   3.076   3.475   5.626 -0.0643 -0.3395  0.2750
   73SLPC  C214 6458   3.126   3.319   5.779 -0.4688 -0.3216 -0.5617
   73SLPC  H14R 6459   3.024   3.309   5.821 -0.8618  1.2515 -1.0714
   73SLPC  H14S 6460   3.192   3.308   5.868 -2.1829  0.0333  0.8080
   73SLPC  C215 6461   3.162   3.204   5.685  0.2275  0.5044  0.2066
   73SLPC  H15R 6462   3.273   3.196   5.677  0.0385 -1.2285 -1.3804
   73SLPC  H15S 6463   3.119   3.228   5.585 -3.8537 -2.5062  0.9919
   73SLPC  C216 6464   3.118   3.064   5.734 -0.1884 -0.3068  0.1728
   73SLPC  H16R 6465   3.114   2.989   5.652 -1.8213 -0.0645  0.0125
   73SLPC  H16S 6466   3.014   3.083   5.767 -0.0290  0.8525  0.0537
   73SLPC  C217 6467   3.190   3.020   5.858 -0.2942  0.0946  0.0626
   73SLPC  H17R 6468   3.171   3.093   5.940  0.0896 -0.3903  0.5917
   73SLPC  H17S 6469   3.297   3.004   5.837 -0.9471 -2.1767 -2.0041
   73SLPC  C218 6470   3.125   2.882   5.895  0.5604  0.3318  0.5533
   73SLPC  H18R 6471   3.027   2.897   5.945  0.2925 -1.5057  0.6407
   73SLPC  H18S 6472   3.184   2.834   5.975  4.1936  0.5530 -1.7615
   73SLPC  H18T 6473   3.126   2.807   5.814  0.9376 -0.1176  0.9723
   73SLPC   C33 6474   3.330   3.088   6.237  0.2848 -0.5217 -0.1106
   73SLPC   H3X 6475   3.370   3.135   6.329 -3.3647 -0.0939  1.4343
   73SLPC   H3Y 6476   3.316   3.162   6.155 -0.9774 -0.8342 -0.1987
   73SLPC   C34 6477   3.443   2.980   6.196  0.2630 -0.6676 -1.0517
   73SLPC   H4X 6478   3.404   2.925   6.107 -1.5768  0.0493 -0.7353
   73SLPC   H4Y 6479   3.458   2.898   6.269  0.1685 -0.4328 -0.7662
   73SLPC   C35 6480   3.578   3.053   6.163  0.0697 -0.1872 -0.2232
   73SLPC   H5X 6481   3.636   3.051   6.258 -1.0179 -0.1870  0.4649
   73SLPC   H5Y 6482   3.553   3.159   6.140 -0.8392 -0.5058 -0.7937
   73SLPC   C36 6483   3.652   2.996   6.042 -0.3927  0.6224 -0.2099
   73SLPC   H6X 6484   3.671   2.887   6.054  1.6292  1.2014  3.1380
   73SLPC   H6Y 6485   3.747   3.053   6.046  0.5028 -0.7945 -0.5891
   73SLPC   C37 6486   3.584   3.031   5.908  0.6420 -0.8596  0.2904
   73SLPC   H7X 6487   3.547   3.136   5.905  2.8548  0.0193  1.3032
   73SLPC   H7Y 6488   3.504   2.958   5.884  0.8735 -1.3940  1.1115
   73SLPC   C38 6489   3.692   3.024   5.792  0.3968  0.7116 -0.0175
   73SLPC   H8X 6490   3.727   2.918   5.785 -1.0056  0.3272 -2.4356
   73SLPC   H8Y 6491   3.778   3.090   5.816  0.5967 -0.0230  1.4239
   73SLPC   C39 6492   3.625   3.065   5.657 -0.2683  0.0916  0.5659
   73SLPC   H9X 6493   3.580   3.166   5.664 -0.7379 -0.1389  0.8783
   73SLPC   H9Y 6494   3.555   2.987   5.620  1.5623 -2.0139  1.2692
   73SLPC  C310 6495   3.731   3.078   5.542 -0.4872 -0.2045 -0.3652
   73SLPC  H10X 6496   3.754   2.974   5.511 -1.2255 -0.6510  0.5290
   73SLPC  H10Y 6497   3.817   3.142   5.574  0.1079 -0.6753 -0.9944
   73SLPC  C311 6498   3.665   3.145   5.418 -0.6962  0.2116 -0.6064
   73SLPC  H11X 6499   3.741   3.154   5.337 -1.4671 -1.2576 -1.5418
   73SLPC  H11Y 6500   3.636   3.249   5.442  0.3487  0.0624  1.5054
   73SLPC  C312 6501   3.541   3.076   5.361  0.2092  0.5262 -0.2751
   73SLPC  H12X 6502   3.459   3.062   5.435 -1.4113  1.7850 -1.7456
   73SLPC  H12Y 6503   3.569   2.977   5.319  1.7120  1.3384 -1.2268
   73SLPC  C313 6504   3.483   3.155   5.255  0.4088 -0.1627  0.5720
   73SLPC  H13X 6505   3.548   3.155   5.164  1.4228  3.0585  1.1689
   73SLPC  H13Y 6506   3.491   3.262   5.283 -0.1784 -0.5149  2.1620
   73SLPC  C314 6507   3.340   3.114   5.230  0.6796  0.2110 -0.4528
   73SLPC  H14X 6508   3.281   3.126   5.323  1.0480 -0.6869 -0.0908
   73SLPC  H14Y 6509   3.331   3.007   5.202 -1.0516  0.9954 -3.3280
   73SLPC  C315 6510   3.280   3.178   5.110  0.2061 -0.5234 -0.2234
   73SLPC  H15X 6511   3.306   3.117   5.021  0.9660  1.8964 -1.7705
   73SLPC  H15Y 6512   3.327   3.278   5.114  4.9946 -2.5335  0.8584
   73SLPC  C316 6513   3.124   3.173   5.107 -0.4367  0.8492  0.1461
   73SLPC  H16X 6514   3.084   3.177   5.003 -0.4089  1.0121  0.1417
   73SLPC  H16Y 6515   3.080   3.265   5.152 -2.5164 -1.0970  2.3388
   73SLPC  C317 6516   3.053   3.052   5.175  0.4310 -0.3061  0.1076
   73SLPC  H17X 6517   3.094   3.048   5.278  1.3306 -0.4698 -0.2450
   73SLPC  H17Y 6518   3.085   2.958   5.125 -0.4711 -0.1841 -0.7290
   73SLPC  C318 6519   2.903   3.062   5.184  0.9889  0.7782 -0.0850
   73SLPC  H18X 6520   2.854   3.048   5.085 -0.2773  3.5935  0.0520
   73SLPC  H18Y 6521   2.855   3.153   5.226 -0.6633  0.6256 -1.5397
   73SLPC  H18Z 6522   2.874   2.981   5.254  1.0399  1.0552  0.2570
   74SLPC     N 6523   1.033   2.589   6.814 -0.2937  0.2626 -0.0270
   74SLPC   C13 6524   1.068   2.659   6.688  0.4784 -0.0302  0.9856
   74SLPC  H13A 6525   1.065   2.767   6.694 -2.6994 -0.0723  1.5857
   74SLPC  H13B 6526   1.151   2.626   6.627 -0.4602  0.2212 -0.4862
   74SLPC  H13C 6527   0.987   2.646   6.618  0.1060 -0.3560  1.4770
   74SLPC   C14 6528   0.894   2.633   6.854 -0.1410  0.3112 -0.1787
   74SLPC  H14A 6529   0.863   2.586   6.946 -0.3137 -0.1912 -0.4911
   74SLPC  H14B 6530   0.896   2.741   6.866  2.4890  0.6187 -2.5417
   74SLPC  H14C 6531   0.818   2.603   6.783 -0.5927  3.0030 -0.9366
   74SLPC   C15 6532   1.129   2.642   6.924 -0.0984 -0.4351  0.0691
   74SLPC  H15A 6533   1.102   2.745   6.939  0.6656 -0.6127  3.4856
   74SLPC  H15B 6534   1.105   2.599   7.020 -0.5915 -1.1333 -0.3579
   74SLPC  H15C 6535   1.234   2.633   6.901  0.0460 -0.2534  0.6497
   74SLPC   C12 6536   1.047   2.438   6.802 -0.9915  0.2862 -0.1686
   74SLPC  H12A 6537   1.032   2.394   6.899 -2.4682  1.7704  0.3318
   74SLPC  H12B 6538   1.149   2.417   6.774 -1.4404  1.8930 -3.5591
   74SLPC   C11 6539   0.952   2.368   6.699  0.3523 -0.5537  0.2667
   74SLPC  H11A 6540   0.979   2.265   6.668 -1.4834 -0.6677 -1.1812
   74SLPC  H11B 6541   0.953   2.433   6.608 -0.5920  1.6510  1.7424
   74SLPC     P 6542   0.771   2.287   6.865 -0.0661 -0.2739 -0.2795
   74SLPC   O13 6543   0.866   2.176   6.889  0.0829 -0.3284  0.3124
   74SLPC   O14 6544   0.750   2.384   6.974 -0.1868 -0.3324  0.3033
   74SLPC   O12 6545   0.817   2.365   6.738 -0.0066  0.5020 -0.4113
   74SLPC   O11 6546   0.627   2.238   6.817 -0.1072 -0.1774  0.1575
   74SLPC    C1 6547   0.624   2.106   6.757 -0.1265  0.1186 -0.3733
   74SLPC    HA 6548   0.685   2.033   6.815  2.2336  1.7990 -0.5678
   74SLPC    HB 6549   0.520   2.072   6.775 -1.3990  3.5748 -0.4102
   74SLPC    C2 6550   0.652   2.106   6.606 -0.2185  0.7022 -0.6285
   74SLPC    HS 6551   0.747   2.158   6.585  1.8516 -2.1210  1.1228
   74SLPC   O21 6552   0.542   2.167   6.543  0.4515 -0.4501  0.6999
   74SLPC   C21 6553   0.568   2.231   6.424 -0.7153 -0.0795 -0.5540
   74SLPC   O22 6554   0.674   2.223   6.365  0.1417  0.5005 -0.2738
   74SLPC   C22 6555   0.446   2.310   6.376  0.6380  0.1117 -0.2194
   74SLPC   H2R 6556   0.389   2.227   6.330 -2.3640  0.7413  2.0786
   74SLPC   H2S 6557   0.394   2.334   6.471 -0.3173 -1.7936 -0.2250
   74SLPC    C3 6558   0.671   1.954   6.560 -0.1216 -0.4731  0.2939
   74SLPC    HX 6559   0.573   1.905   6.576 -0.0216 -1.1761 -1.0960
   74SLPC    HY 6560   0.748   1.911   6.627  0.0262 -0.2387  0.2775
   74SLPC   O31 6561   0.689   1.936   6.418 -0.0854  0.1820  0.3424
   74SLPC   C31 6562   0.811   1.953   6.374  0.0192  0.2388 -0.5048
   74SLPC   O32 6563   0.907   1.990   6.445  0.2794  0.1992  0.3459
   74SLPC   C32 6564   0.813   1.940   6.223 -0.3852  0.8702 -0.0748
   74SLPC   H2X 6565   0.753   2.018   6.170 -1.1786 -0.0054 -0.5105
   74SLPC   H2Y 6566   0.760   1.850   6.185  0.6680 -0.6497  1.9495
   74SLPC   C23 6567   0.467   2.428   6.289 -0.3192 -0.5876  0.2235
   74SLPC   H3R 6568   0.372   2.483   6.271 -0.1169  0.2724  1.6302
   74SLPC   H3S 6569   0.515   2.398   6.193  1.4671 -0.7690  1.1228
   74SLPC   C24 6570   0.558   2.537   6.359  0.4934 -0.4047  0.5883
   74SLPC   H4R 6571   0.655   2.495   6.394  0.3499 -1.8204 -0.6203
   74SLPC   H4S 6572   0.511   2.562   6.456 -0.2099 -0.8543  0.3652
   74SLPC   C25 6573   0.582   2.662   6.264  0.0997 -0.2222  0.2559
   74SLPC   H5R 6574   0.658   2.722   6.318 -0.9210  0.0153  1.4743
   74SLPC   H5S 6575   0.491   2.725   6.256  1.0167  1.1435  0.2542
   74SLPC   C26 6576   0.631   2.628   6.123 -0.0020 -0.5966 -0.1202
   74SLPC   H6R 6577   0.554   2.565   6.073  1.2069 -1.2996 -1.1659
   74SLPC   H6S 6578   0.724   2.567   6.129 -1.0177 -2.0938  1.3753
   74SLPC   C27 6579   0.651   2.746   6.022 -0.0677  0.0003  0.5173
   74SLPC   H7R 6580   0.730   2.813   6.063  0.0421 -1.5818  3.1609
   74SLPC   H7S 6581   0.551   2.794   6.015  0.1580  0.5956  1.2866
   74SLPC   C28 6582   0.688   2.691   5.882  0.6504 -1.1218  0.2760
   74SLPC   H8R 6583   0.690   2.780   5.816  1.5121 -0.4541  1.1697
   74SLPC   H8S 6584   0.608   2.621   5.850 -0.2684  0.3460 -0.7354
   74SLPC   C29 6585   0.815   2.610   5.883 -0.1655 -0.4143 -0.7353
   74SLPC   H9R 6586   0.819   2.514   5.935 -0.5391  0.8242  1.7186
   74SLPC  C210 6587   0.929   2.663   5.843 -1.1331  0.4754  0.1810
   74SLPC  H10R 6588   1.026   2.613   5.855 -1.0537  0.8312  1.0475
   74SLPC  C211 6589   0.956   2.795   5.784 -0.4513 -0.4808 -0.2375
   74SLPC  H11R 6590   1.063   2.820   5.803 -0.3425 -0.9295 -0.2581
   74SLPC  H11S 6591   0.891   2.866   5.840 -1.1120 -1.1034 -0.2021
   74SLPC  C212 6592   0.908   2.786   5.639 -0.5617 -0.0883  0.4043
   74SLPC  H12R 6593   0.818   2.728   5.616 -0.0384 -0.3495 -1.0660
   74SLPC  C213 6594   0.950   2.868   5.542  0.2193  0.4365 -0.0325
   74SLPC  H13R 6595   0.905   2.866   5.442  1.5539  0.5701 -0.6608
   74SLPC  C214 6596   1.059   2.973   5.555  0.2879  0.6340  0.4331
   74SLPC  H14R 6597   1.094   2.978   5.660 -2.8285  1.0956  1.5811
   74SLPC  H14S 6598   1.023   3.074   5.525  2.6057  1.8314  1.4506
   74SLPC  C215 6599   1.174   2.927   5.460  0.0980 -0.0813  0.2864
   74SLPC  H15R 6600   1.253   3.003   5.475 -0.3200  0.9428 -2.2529
   74SLPC  H15S 6601   1.138   2.931   5.355  0.1122  2.6585  0.3039
   74SLPC  C216 6602   1.255   2.796   5.499  0.2466  0.4513  0.9753
   74SLPC  H16R 6603   1.199   2.702   5.482 -0.8530  1.6749 -3.2810
   74SLPC  H16S 6604   1.284   2.804   5.606  0.2564  2.1018  0.8793
   74SLPC  C217 6605   1.390   2.799   5.420 -0.2198  0.3429  0.1098
   74SLPC  H17R 6606   1.421   2.902   5.394 -1.2900  1.5366  3.0744
   74SLPC  H17S 6607   1.383   2.755   5.319  0.2140 -0.7718  0.5507
   74SLPC  C218 6608   1.507   2.723   5.489 -0.4292 -0.0690  0.3202
   74SLPC  H18R 6609   1.495   2.613   5.486  0.7194 -0.2670  1.5721
   74SLPC  H18S 6610   1.513   2.753   5.596 -1.1743 -0.7123  0.5476
   74SLPC  H18T 6611   1.602   2.760   5.444 -1.1696  1.5681  0.0540
   74SLPC   C33 6612   0.958   1.942   6.167 -0.8581  0.7851 -0.5050
   74SLPC   H3X 6613   1.022   1.872   6.224 -1.4904  1.0083  0.5182
   74SLPC   H3Y 6614   0.998   2.046   6.170  1.4327 -0.0671  0.7903
   74SLPC   C34 6615   0.973   1.899   6.024  0.3714  0.0961 -0.1012
   74SLPC   H4X 6616   0.959   1.991   5.963 -0.1250  0.2731  0.2712
   74SLPC   H4Y 6617   0.898   1.821   5.997  1.8817 -2.3917  2.3176
   74SLPC   C35 6618   1.106   1.841   5.990  0.3444 -0.4370 -0.1362
   74SLPC   H5X 6619   1.120   1.759   6.064 -0.9995  0.3792  1.0650
   74SLPC   H5Y 6620   1.195   1.907   5.999  2.1775 -2.7900  0.0270
   74SLPC   C36 6621   1.107   1.770   5.855  0.5528 -0.9955 -0.6069
   74SLPC   H6X 6622   1.020   1.703   5.840  0.1252 -0.0389 -2.7416
   74SLPC   H6Y 6623   1.199   1.709   5.842  2.4340  1.4348  0.5197
   74SLPC   C37 6624   1.098   1.865   5.737 -0.3173 -0.0941 -0.0676
   74SLPC   H7X 6625   1.187   1.931   5.745  0.4937 -1.0966 -0.5828
   74SLPC   H7Y 6626   1.010   1.933   5.739  1.0611  1.7549  1.7911
   74SLPC   C38 6627   1.095   1.791   5.599  0.5514 -0.4165 -0.4823
   74SLPC   H8X 6628   1.012   1.718   5.589 -0.2416  0.5328 -1.0654
   74SLPC   H8Y 6629   1.185   1.727   5.589 -0.4858 -1.9057 -0.6582
   74SLPC   C39 6630   1.072   1.885   5.480  0.2588 -0.6636  0.0700
   74SLPC   H9X 6631   1.167   1.943   5.484 -0.7840  1.0246  2.6675
   74SLPC   H9Y 6632   0.992   1.961   5.492  4.1031  4.0184 -0.6714
   74SLPC  C310 6633   1.050   1.815   5.343  0.0418  0.8736  0.8980
   74SLPC  H10X 6634   0.966   1.744   5.355  1.7365 -1.0847  1.7422
   74SLPC  H10Y 6635   1.145   1.763   5.317  0.6212  2.3664 -0.0883
   74SLPC  C311 6636   1.016   1.903   5.221 -0.1423 -0.1790  1.3504
   74SLPC  H11X 6637   1.109   1.956   5.194  0.8391 -3.5132 -2.9788
   74SLPC  H11Y 6638   0.945   1.983   5.252 -0.6979 -0.7947  1.6927
   74SLPC  C312 6639   0.940   1.846   5.101  0.4280 -0.4184  0.0709
   74SLPC  H12X 6640   0.934   1.924   5.022 -0.3280  0.4479  0.9828
   74SLPC  H12Y 6641   0.834   1.819   5.118  0.5669 -0.3928  1.0216
   74SLPC  C313 6642   1.000   1.717   5.043  0.1462 -0.1638 -0.7120
   74SLPC  H13X 6643   1.008   1.632   5.114  1.9858 -1.2189 -2.0897
   74SLPC  H13Y 6644   1.106   1.741   5.017 -0.6769  1.8314 -2.4805
   74SLPC  C314 6645   0.919   1.658   4.921  0.1647 -0.0777  0.6958
   74SLPC  H14X 6646   0.941   1.724   4.834 -1.5598  0.0097  0.2961
   74SLPC  H14Y 6647   0.810   1.664   4.940  0.3591  0.0738  1.8097
   74SLPC  C315 6648   0.968   1.520   4.871  0.0446 -0.5446  0.3787
   74SLPC  H15X 6649   0.921   1.458   4.950 -1.9623 -0.1618 -0.4536
   74SLPC  H15Y 6650   1.079   1.516   4.877 -0.0038 -0.1826  1.9412
   74SLPC  C316 6651   0.922   1.467   4.736 -0.3163  0.3255 -0.8469
   74SLPC  H16X 6652   0.966   1.539   4.665 -0.2464  1.0276 -0.1027
   74SLPC  H16Y 6653   0.814   1.493   4.731  0.1944  2.8237 -0.0061
   74SLPC  C317 6654   0.955   1.320   4.707 -0.4587 -0.2966 -0.2281
   74SLPC  H17X 6655   1.062   1.305   4.734 -0.6586 -0.4232  0.5260
   74SLPC  H17Y 6656   0.923   1.308   4.601  2.3467  0.8019 -1.2814
   74SLPC  C318 6657   0.868   1.217   4.782  0.1978  0.1170 -0.6116
   74SLPC  H18X 6658   0.762   1.246   4.770  0.2862  0.2282 -1.1471
   74SLPC  H18Y 6659   0.895   1.216   4.890  0.2230  0.5022 -0.6159
   74SLPC  H18Z 6660   0.889   1.115   4.742 -1.2149 -0.4574  0.0436
   75SLPC     N 6661   3.292   2.444   7.000 -0.2226 -0.0292 -0.5088
   75SLPC   C13 6662   3.234   2.542   6.896 -0.8336  0.7282  0.1426
   75SLPC  H13A 6663   3.219   2.643   6.932  0.5234 -0.0867  3.3524
   75SLPC  H13B 6664   3.308   2.557   6.819  0.0618 -0.7468  0.6705
   75SLPC  H13C 6665   3.144   2.496   6.858  0.1128 -0.4147 -0.8075
   75SLPC   C14 6666   3.195   2.415   7.109 -0.2199  0.1723  0.1581
   75SLPC  H14A 6667   3.119   2.352   7.067  1.5684 -2.5136  0.7079
   75SLPC  H14B 6668   3.248   2.355   7.181  2.6778  2.0598 -0.2404
   75SLPC  H14C 6669   3.152   2.505   7.152  1.4703  0.6478  0.9305
   75SLPC   C15 6670   3.416   2.513   7.046  0.1126  0.8615  0.2753
   75SLPC  H15A 6671   3.477   2.529   6.958  0.1810  1.6713  0.4583
   75SLPC  H15B 6672   3.395   2.607   7.094 -1.2586  1.6183 -1.6576
   75SLPC  H15C 6673   3.473   2.456   7.117 -2.5984 -2.1207  0.2574
   75SLPC   C12 6674   3.333   2.316   6.929  0.0011  0.3904  0.6195
   75SLPC  H12A 6675   3.243   2.268   6.894  0.0287  0.3119  0.6538
   75SLPC  H12B 6676   3.375   2.250   7.004  0.9850 -1.5884 -1.5752
   75SLPC   C11 6677   3.448   2.313   6.824 -0.1375 -0.5779  0.5281
   75SLPC  H11A 6678   3.433   2.399   6.756  1.1631 -2.3077 -2.1149
   75SLPC  H11B 6679   3.434   2.218   6.769 -1.8683 -1.9984  3.1927
   75SLPC     P 6680   3.608   2.208   6.996 -0.1237 -0.0240 -0.0387
   75SLPC   O13 6681   3.753   2.171   6.986  0.1757  0.7756  0.2742
   75SLPC   O14 6682   3.552   2.257   7.121 -0.0644  0.1523  0.2768
   75SLPC   O12 6683   3.572   2.318   6.888 -0.4350  0.8676 -0.5876
   75SLPC   O11 6684   3.521   2.083   6.938 -0.6050  0.0032 -0.5711
   75SLPC    C1 6685   3.601   1.960   6.925  0.1478 -0.1969  0.1995
   75SLPC    HA 6686   3.705   1.977   6.890  1.3892 -2.1526  2.6013
   75SLPC    HB 6687   3.615   1.906   7.021  0.6840 -0.6091 -0.1079
   75SLPC    C2 6688   3.542   1.862   6.816 -0.0261  1.0152 -0.1091
   75SLPC    HS 6689   3.611   1.778   6.795 -0.4973  0.1924  1.4244
   75SLPC   O21 6690   3.507   1.934   6.692 -0.1957  0.0112  0.0225
   75SLPC   C21 6691   3.607   1.958   6.615  0.4560 -0.0302  0.4552
   75SLPC   O22 6692   3.724   1.917   6.639  0.0250  0.4042 -0.1992
   75SLPC   C22 6693   3.571   2.048   6.492  0.4945 -0.0382  0.0348
   75SLPC   H2R 6694   3.460   2.054   6.494  0.2374 -2.8924  2.4532
   75SLPC   H2S 6695   3.606   2.151   6.512  1.4909  0.0334 -1.8497
   75SLPC    C3 6696   3.421   1.779   6.868  0.2984 -0.5406  0.0501
   75SLPC    HX 6697   3.338   1.852   6.884  0.6061 -0.6824  2.7295
   75SLPC    HY 6698   3.450   1.748   6.970 -3.0431 -0.0877  1.2754
   75SLPC   O31 6699   3.385   1.680   6.765 -0.0701 -0.8757 -0.2684
   75SLPC   C31 6700   3.286   1.605   6.804  0.4101 -0.3093  0.6804
   75SLPC   O32 6701   3.244   1.601   6.919 -0.4962  0.0065  0.5460
   75SLPC   C32 6702   3.233   1.510   6.694  0.4929  0.1182  0.8342
   75SLPC   H2X 6703   3.166   1.434   6.740 -0.8043  1.0814  0.5959
   75SLPC   H2Y 6704   3.322   1.462   6.648 -0.4263 -2.2470  1.3795
   75SLPC   C23 6705   3.617   1.996   6.355 -0.2781 -0.7225  0.1665
   75SLPC   H3R 6706   3.611   1.885   6.355 -1.4608 -0.6713  0.2255
   75SLPC   H3S 6707   3.715   2.038   6.326 -0.1059 -0.4793  1.0750
   75SLPC   C24 6708   3.531   2.042   6.234  0.1719  0.3200  0.0033
   75SLPC   H4R 6709   3.527   2.153   6.243 -0.9516  0.4853 -1.9063
   75SLPC   H4S 6710   3.426   2.013   6.259 -0.0136 -0.2227 -1.3432
   75SLPC   C25 6711   3.581   2.003   6.094  0.6784 -0.1515 -0.0270
   75SLPC   H5R 6712   3.586   1.892   6.093  0.8923 -0.1453 -1.4536
   75SLPC   H5S 6713   3.683   2.048   6.088 -0.0825  1.8605  0.9432
   75SLPC   C26 6714   3.507   2.058   5.976 -0.1337 -0.5366  0.2931
   75SLPC   H6R 6715   3.504   2.168   5.986 -1.5389 -0.3604 -1.5435
   75SLPC   H6S 6716   3.401   2.025   5.981 -0.3040  0.1437  2.6264
   75SLPC   C27 6717   3.558   2.020   5.836  0.1258 -0.2578  0.3360
   75SLPC   H7R 6718   3.535   1.917   5.801  0.9116  0.6453 -3.1871
   75SLPC   H7S 6719   3.668   2.008   5.837  0.2761  0.9342  1.6583
   75SLPC   C28 6720   3.495   2.099   5.723  0.5265 -0.0280  0.0448
   75SLPC   H8R 6721   3.526   2.203   5.745 -1.7040  0.7374 -0.1747
   75SLPC   H8S 6722   3.385   2.099   5.741  0.8561  3.1425  3.1167
   75SLPC   C29 6723   3.556   2.068   5.592 -0.4501 -0.5262 -0.1586
   75SLPC   H9R 6724   3.649   2.123   5.571  0.2909 -1.0526  1.5810
   75SLPC  C210 6725   3.508   1.998   5.494 -0.1931  0.2578 -0.6295
   75SLPC  H10R 6726   3.575   1.974   5.410  0.4663  1.7617 -0.5592
   75SLPC  C211 6727   3.373   1.931   5.489 -0.2336 -0.3408  0.1843
   75SLPC  H11R 6728   3.330   1.950   5.589  2.0776  1.7571  0.8533
   75SLPC  H11S 6729   3.381   1.821   5.474  0.5403 -0.0057 -2.2990
   75SLPC  C212 6730   3.261   1.974   5.396 -0.3342 -0.5454 -0.0607
   75SLPC  H12R 6731   3.204   2.060   5.434  3.1086  3.0291 -2.1631
   75SLPC  C213 6732   3.240   1.929   5.272  0.4615 -0.2487  0.4932
   75SLPC  H13R 6733   3.145   1.948   5.219  1.0410  1.2112 -0.0638
   75SLPC  C214 6734   3.319   1.824   5.212 -1.3410  1.1286  0.0959
   75SLPC  H14R 6735   3.423   1.820   5.253  0.3468  2.0463 -3.6608
   75SLPC  H14S 6736   3.315   1.845   5.103 -0.5115  1.7886  0.1791
   75SLPC  C215 6737   3.269   1.681   5.236 -0.5676  0.0136  0.0771
   75SLPC  H15R 6738   3.242   1.657   5.341 -0.9006 -0.7053 -0.1683
   75SLPC  H15S 6739   3.351   1.613   5.203 -1.9615 -1.5283 -0.3693
   75SLPC  C216 6740   3.144   1.641   5.156 -0.0533  0.0857 -0.1139
   75SLPC  H16R 6741   3.157   1.670   5.050 -1.0613 -0.6487 -0.4560
   75SLPC  H16S 6742   3.067   1.700   5.209  0.6799 -0.1566  1.2667
   75SLPC  C217 6743   3.122   1.489   5.159  0.8112 -0.4291  0.5338
   75SLPC  H17R 6744   3.143   1.461   5.265  0.8662  3.0215  1.5504
   75SLPC  H17S 6745   3.196   1.432   5.098  0.0523 -1.0654  0.1925
   75SLPC  C218 6746   2.980   1.450   5.121 -0.9808 -0.1314  0.9514
   75SLPC  H18R 6747   2.962   1.490   5.019  1.4579  1.5732  1.1111
   75SLPC  H18S 6748   2.907   1.498   5.190 -0.7570  0.4164  0.8078
   75SLPC  H18T 6749   2.973   1.339   5.127  1.4688 -0.4520 -0.6488
   75SLPC   C33 6750   3.168   1.595   6.583 -0.1123  0.4267  0.4033
   75SLPC   H3X 6751   3.242   1.665   6.537 -0.6849  0.9874  0.3335
   75SLPC   H3Y 6752   3.091   1.662   6.627 -1.4083  0.9205 -2.3836
   75SLPC   C34 6753   3.105   1.501   6.475  0.0491 -0.1452  0.0265
   75SLPC   H4X 6754   3.006   1.535   6.438 -0.1851 -0.8596 -0.0245
   75SLPC   H4Y 6755   3.089   1.396   6.509 -1.4196 -0.2228 -0.8130
   75SLPC   C35 6756   3.194   1.498   6.346  0.0422  0.1504 -0.2750
   75SLPC   H5X 6757   3.155   1.414   6.285  0.6832  0.0207 -0.5094
   75SLPC   H5Y 6758   3.298   1.476   6.379 -0.5924  0.8806  2.4781
   75SLPC   C36 6759   3.197   1.629   6.266 -0.1389 -0.0230  1.0081
   75SLPC   H6X 6760   3.246   1.712   6.321  2.3242 -0.3849 -0.4659
   75SLPC   H6Y 6761   3.090   1.651   6.244  0.3251 -0.5625 -2.3114
   75SLPC   C37 6762   3.257   1.610   6.124 -0.3841 -0.6714 -0.9992
   75SLPC   H7X 6763   3.236   1.508   6.084 -2.6929 -0.8807  0.5136
   75SLPC   H7Y 6764   3.367   1.617   6.137 -0.5218 -1.1155  0.6683
   75SLPC   C38 6765   3.220   1.718   6.023 -0.0807 -0.1479 -0.2377
   75SLPC   H8X 6766   3.249   1.821   6.053 -0.0659 -0.6330  1.5664
   75SLPC   H8Y 6767   3.113   1.725   5.995  0.1473  0.2196 -1.0246
   75SLPC   C39 6768   3.303   1.698   5.894  0.1193  0.6872  0.0934
   75SLPC   H9X 6769   3.291   1.591   5.865  0.6475  0.4789  0.6384
   75SLPC   H9Y 6770   3.409   1.720   5.919 -0.0407 -0.1697  1.6254
   75SLPC  C310 6771   3.268   1.774   5.771 -0.3285 -0.5479 -0.1210
   75SLPC  H10X 6772   3.348   1.749   5.698 -0.6155  0.3669 -0.7777
   75SLPC  H10Y 6773   3.266   1.881   5.800 -0.3478 -0.8734  1.1649
   75SLPC  C311 6774   3.139   1.727   5.699  0.4449 -0.0269  0.1892
   75SLPC  H11X 6775   3.112   1.802   5.621 -0.1655 -0.0684  0.3563
   75SLPC  H11Y 6776   3.058   1.729   5.774 -0.2234  2.0591 -0.5127
   75SLPC  C312 6777   3.146   1.588   5.639 -0.1525 -0.2447  0.2705
   75SLPC  H12X 6778   3.156   1.503   5.710  0.9639 -0.5240 -0.2101
   75SLPC  H12Y 6779   3.233   1.570   5.572 -0.9200  1.2812 -1.2184
   75SLPC  C313 6780   3.029   1.561   5.549 -0.2834  0.1061  0.5346
   75SLPC  H13X 6781   3.059   1.477   5.483  0.3309 -0.3822  1.4191
   75SLPC  H13Y 6782   3.001   1.662   5.512  1.2260  0.2365 -0.3955
   75SLPC  C314 6783   2.897   1.515   5.618  0.0917 -0.1948 -0.0081
   75SLPC  H14X 6784   2.863   1.598   5.683  0.3402  0.1180 -0.2741
   75SLPC  H14Y 6785   2.917   1.424   5.677 -2.6820 -0.2856  0.9254
   75SLPC  C315 6786   2.784   1.487   5.511 -0.3620 -0.6767  0.0229
   75SLPC  H15X 6787   2.813   1.421   5.426  0.6367  0.0478 -0.2208
   75SLPC  H15Y 6788   2.763   1.590   5.474  0.8675 -0.3731  0.1415
   75SLPC  C316 6789   2.654   1.424   5.572 -0.0571 -0.3940  0.5532
   75SLPC  H16X 6790   2.671   1.324   5.618 -1.7237 -0.4234  1.1624
   75SLPC  H16Y 6791   2.584   1.419   5.486  1.1661  0.6188 -0.5378
   75SLPC  C317 6792   2.581   1.511   5.676  0.2915 -0.2108 -0.8548
   75SLPC  H17X 6793   2.472   1.498   5.659  0.3048 -0.7770 -0.5321
   75SLPC  H17Y 6794   2.614   1.616   5.656 -2.1855  0.7027 -0.5004
   75SLPC  C318 6795   2.609   1.483   5.828 -0.2030  0.4618 -0.1999
   75SLPC  H18X 6796   2.719   1.480   5.837 -0.1788  1.4965  0.0236
   75SLPC  H18Y 6797   2.567   1.383   5.853 -0.3186  0.5935  0.1404
   75SLPC  H18Z 6798   2.565   1.566   5.888  0.8345  2.3122 -1.8692
   76SLPC     N 6799   3.936   2.423   7.218 -0.3662 -0.1793 -0.0880
   76SLPC   C13 6800   3.791   2.464   7.207 -0.4916 -1.1017  0.7319
   76SLPC  H13A 6801   3.773   2.520   7.117 -0.5596 -1.4478  0.5301
   76SLPC  H13B 6802   3.732   2.374   7.194 -0.4613 -1.3755  2.2545
   76SLPC  H13C 6803   3.751   2.512   7.296 -1.4722  0.3696 -0.4632
   76SLPC   C14 6804   3.979   2.363   7.083  0.0263 -0.4334 -0.3625
   76SLPC  H14A 6805   4.070   2.306   7.093  1.6386  1.8207 -1.3741
   76SLPC  H14B 6806   3.901   2.301   7.042 -1.1045  1.8144 -1.8314
   76SLPC  H14C 6807   3.996   2.440   7.009 -0.0651 -0.0445  0.0143
   76SLPC   C15 6808   3.946   2.315   7.321 -0.3661 -0.5366  0.0247
   76SLPC  H15A 6809   3.937   2.367   7.415  2.3731 -0.1103  0.1287
   76SLPC  H15B 6810   3.870   2.239   7.308 -0.9554  0.3066 -1.8172
   76SLPC  H15C 6811   4.042   2.266   7.325 -0.9761 -1.8971 -0.9985
   76SLPC   C12 6812   4.028   2.543   7.238 -0.1691  0.1127  0.5567
   76SLPC  H12A 6813   4.009   2.602   7.326 -1.2484  0.8372 -0.1397
   76SLPC  H12B 6814   4.006   2.607   7.154  0.7193 -0.7080 -0.3252
   76SLPC   C11 6815   4.181   2.513   7.245  0.0083 -0.0789  0.7591
   76SLPC  H11A 6816   4.218   2.466   7.152 -2.0352 -0.3349  0.0183
   76SLPC  H11B 6817   4.193   2.444   7.331 -1.5700 -0.2962  0.8280
   76SLPC     P 6818   4.293   2.741   7.186 -0.0438 -0.1879 -0.0366
   76SLPC   O13 6819   4.183   2.842   7.181  0.1898 -0.4783  0.0646
   76SLPC   O14 6820   4.423   2.795   7.228  0.6407  0.8026  0.1080
   76SLPC   O12 6821   4.256   2.628   7.287 -0.3346  0.5238 -0.4122
   76SLPC   O11 6822   4.294   2.675   7.047  0.0071 -0.3893 -0.9256
   76SLPC    C1 6823   4.408   2.670   6.958  0.4382 -0.0175  0.2124
   76SLPC    HA 6824   4.496   2.642   7.020  0.0781  0.8944  1.1619
   76SLPC    HB 6825   4.394   2.595   6.877  1.6408 -0.5795  0.5006
   76SLPC    C2 6826   4.433   2.815   6.895 -0.9072 -0.0635  0.0684
   76SLPC    HS 6827   4.442   2.881   6.984 -1.0614  0.7385 -0.5055
   76SLPC   O21 6828   4.318   2.855   6.817 -0.5944 -0.6485  0.4802
   76SLPC   C21 6829   4.295   2.984   6.801 -0.7203 -0.5334  0.8577
   76SLPC   O22 6830   4.377   3.071   6.841 -0.0409  0.1877  0.2723
   76SLPC   C22 6831   4.175   3.020   6.713  0.2748 -0.3116  0.4855
   76SLPC   H2R 6832   4.185   2.951   6.626 -0.5356  0.2290 -0.0444
   76SLPC   H2S 6833   4.083   2.996   6.770 -0.4578  1.2290  0.0001
   76SLPC    C3 6834   4.566   2.836   6.819  0.3856 -0.0858  0.2630
   76SLPC    HX 6835   4.568   2.941   6.783 -0.7675  0.3410  1.3736
   76SLPC    HY 6836   4.563   2.789   6.718 -0.2884  2.9479 -1.2264
   76SLPC   O31 6837   4.687   2.804   6.883 -0.5752  0.7063 -0.5815
   76SLPC   C31 6838   4.731   2.894   6.966  0.4035  0.4541 -0.8079
   76SLPC   O32 6839   4.671   2.993   6.994  0.4765  0.3071 -0.4850
   76SLPC   C32 6840   4.867   2.857   7.026  0.0111  0.4933  0.5402
   76SLPC   H2X 6841   4.877   2.747   7.008 -0.9080  0.1973  1.6835
   76SLPC   H2Y 6842   4.867   2.865   7.137  1.1890  1.3600  0.4883
   76SLPC   C23 6843   4.164   3.167   6.667  0.0332 -0.0804 -0.1674
   76SLPC   H3R 6844   4.265   3.195   6.629 -0.4441  1.7315 -0.1906
   76SLPC   H3S 6845   4.147   3.234   6.754  1.8028 -0.4939  0.5532
   76SLPC   C24 6846   4.065   3.205   6.557  0.3140 -0.0101  0.3882
   76SLPC   H4R 6847   4.084   3.313   6.538 -0.1334  0.0679  0.3704
   76SLPC   H4S 6848   3.965   3.198   6.606  0.5210 -0.0794  0.8047
   76SLPC   C25 6849   4.054   3.109   6.433  0.5911 -0.0609 -0.2358
   76SLPC   H5R 6850   4.041   3.010   6.482  0.0515 -0.5488 -1.3366
   76SLPC   H5S 6851   4.151   3.105   6.379  0.5259  1.1216 -0.4566
   76SLPC   C26 6852   3.946   3.142   6.329  0.1013 -0.4179 -0.1332
   76SLPC   H6R 6853   3.846   3.122   6.374  0.3244 -2.1724 -0.3686
   76SLPC   H6S 6854   3.953   3.070   6.245  0.1867  0.4408 -0.8787
   76SLPC   C27 6855   3.938   3.281   6.273 -0.7312  0.3763 -0.4019
   76SLPC   H7R 6856   4.033   3.303   6.219 -0.0276 -0.6641  0.3835
   76SLPC   H7S 6857   3.925   3.344   6.364  0.7973 -1.5074  1.2145
   76SLPC   C28 6858   3.817   3.293   6.175  0.6150 -0.5983  0.7776
   76SLPC   H8R 6859   3.722   3.263   6.224 -0.7962 -0.9981 -2.0215
   76SLPC   H8S 6860   3.838   3.230   6.086  3.9757  0.2789  0.8338
   76SLPC   C29 6861   3.808   3.443   6.142 -0.0483  0.3548  0.2041
   76SLPC   H9R 6862   3.795   3.510   6.228 -1.0775 -1.0180  1.1687
   76SLPC  C210 6863   3.814   3.496   6.017  0.3127 -0.4117  0.0128
   76SLPC  H10R 6864   3.818   3.606   6.016  0.1876 -0.4079 -1.2050
   76SLPC  C211 6865   3.829   3.439   5.875 -0.0688  0.4390 -0.1865
   76SLPC  H11R 6866   3.737   3.388   5.841  0.2049  0.5982 -1.1911
   76SLPC  H11S 6867   3.904   3.358   5.887 -0.5679 -0.0267 -0.2157
   76SLPC  C212 6868   3.892   3.532   5.768  0.1468  0.5946 -0.0266
   76SLPC  H12R 6869   3.978   3.587   5.810 -0.2172 -0.1368  1.7842
   76SLPC  C213 6870   3.838   3.561   5.651  0.4229 -0.0939 -0.8620
   76SLPC  H13R 6871   3.896   3.634   5.592  0.4835 -0.0086 -0.6961
   76SLPC  C214 6872   3.712   3.518   5.582 -0.0625  0.4786 -0.7267
   76SLPC  H14R 6873   3.654   3.453   5.651  0.6591  3.2277  2.7220
   76SLPC  H14S 6874   3.735   3.443   5.503  0.3037 -0.4272  0.2168
   76SLPC  C215 6875   3.610   3.628   5.549  0.0048  0.5078  0.0799
   76SLPC  H15R 6876   3.648   3.697   5.471 -1.2048 -0.3357 -1.3220
   76SLPC  H15S 6877   3.581   3.698   5.630 -1.9871 -0.5844  0.4045
   76SLPC  C216 6878   3.474   3.566   5.512 -0.1678 -0.3356 -0.3248
   76SLPC  H16R 6879   3.414   3.521   5.594  0.5368  0.5190  0.7021
   76SLPC  H16S 6880   3.506   3.480   5.449  0.4624  0.8296 -1.6606
   76SLPC  C217 6881   3.388   3.658   5.416  0.5694 -0.5966 -0.1826
   76SLPC  H17R 6882   3.455   3.704   5.340  1.8879  2.6352  2.7007
   76SLPC  H17S 6883   3.352   3.740   5.481  0.7300 -1.5519  1.1516
   76SLPC  C218 6884   3.266   3.590   5.355 -0.1854 -0.4594 -0.3889
   76SLPC  H18R 6885   3.208   3.664   5.296  0.0971  0.9724  1.0509
   76SLPC  H18S 6886   3.198   3.542   5.429 -0.1112  2.1980  1.5486
   76SLPC  H18T 6887   3.303   3.512   5.286  2.6216 -0.4993  1.0221
   76SLPC   C33 6888   4.987   2.942   6.980  0.2199 -0.2582 -0.0531
   76SLPC   H3X 6889   5.083   2.895   7.008 -0.4874 -1.5486  0.3245
   76SLPC   H3Y 6890   4.967   3.039   7.030 -1.4830 -0.1591 -0.8437
   76SLPC   C34 6891   4.986   2.974   6.827 -0.3614  0.0452 -0.0357
   76SLPC   H4X 6892   4.909   3.046   6.792 -0.2803 -0.2105 -0.7490
   76SLPC   H4Y 6893   4.971   2.878   6.773 -0.0935 -0.3336  0.5457
   76SLPC   C35 6894   5.114   3.043   6.780  0.8759  0.4221 -0.6055
   76SLPC   H5X 6895   5.193   2.974   6.816 -1.0163 -1.5049  0.0595
   76SLPC   H5Y 6896   5.121   3.142   6.830 -2.7460  0.1096  0.8422
   76SLPC   C36 6897   5.123   3.061   6.627 -0.0820 -0.3730  0.7175
   76SLPC   H6X 6898   5.053   3.145   6.608  2.6856  2.4129  1.8602
   76SLPC   H6Y 6899   5.104   2.968   6.569  0.9805  1.2234 -2.4532
   76SLPC   C37 6900   5.263   3.124   6.585 -0.3687  0.1353 -0.3142
   76SLPC   H7X 6901   5.346   3.049   6.584 -1.9082 -1.7109  1.3687
   76SLPC   H7Y 6902   5.273   3.199   6.667 -1.0498 -0.9021  0.7570
   76SLPC   C38 6903   5.253   3.191   6.448  0.5249  0.0062 -0.4545
   76SLPC   H8X 6904   5.340   3.260   6.439  2.1554 -1.9354 -0.2325
   76SLPC   H8Y 6905   5.155   3.244   6.443  0.2303 -0.2415  1.8827
   76SLPC   C39 6906   5.267   3.092   6.337 -0.6354  0.2184  0.3557
   76SLPC   H9X 6907   5.191   3.012   6.349 -2.3085  1.8052  0.8119
   76SLPC   H9Y 6908   5.365   3.041   6.349 -0.1921  0.3008 -2.2670
   76SLPC  C310 6909   5.247   3.153   6.194 -0.6332  0.3592 -0.2024
   76SLPC  H10X 6910   5.153   3.210   6.176  0.6652  2.3964 -0.9010
   76SLPC  H10Y 6911   5.241   3.057   6.138 -2.5308  0.5111 -0.3155
   76SLPC  C311 6912   5.354   3.254   6.137 -0.2933  0.5170  0.0675
   76SLPC  H11X 6913   5.446   3.265   6.199  1.5031 -0.3119 -2.3117
   76SLPC  H11Y 6914   5.303   3.353   6.139 -0.2018  0.6138 -1.4818
   76SLPC  C312 6915   5.396   3.212   5.995 -0.4830 -1.2737 -0.1419
   76SLPC  H12X 6916   5.441   3.299   5.944  0.7024 -2.1897 -0.7222
   76SLPC  H12Y 6917   5.304   3.194   5.935 -1.3335  1.2304  0.2888
   76SLPC  C313 6918   5.519   3.110   5.996 -0.2032  0.3199 -1.0346
   76SLPC  H13X 6919   5.478   3.030   6.062 -1.3363  0.7102 -1.2299
   76SLPC  H13Y 6920   5.603   3.160   6.048 -0.2946  1.5855 -2.0578
   76SLPC  C314 6921   5.562   3.035   5.866  0.1822 -0.6407  0.0292
   76SLPC  H14X 6922   5.606   3.110   5.797  0.5776  0.4774  1.4227
   76SLPC  H14Y 6923   5.471   3.006   5.810  0.3774 -0.3007 -0.4656
   76SLPC  C315 6924   5.652   2.911   5.891 -0.8425 -0.5584 -0.0500
   76SLPC  H15X 6925   5.652   2.833   5.813 -0.0789  0.0901 -0.7113
   76SLPC  H15Y 6926   5.601   2.860   5.975 -0.7772  0.1730  0.4468
   76SLPC  C316 6927   5.798   2.959   5.919 -0.1351 -0.4794 -0.1127
   76SLPC  H16X 6928   5.797   3.055   5.976  1.0684 -1.2531  1.2710
   76SLPC  H16Y 6929   5.850   2.978   5.823  0.9814 -1.1826  0.3299
   76SLPC  C317 6930   5.884   2.856   5.994 -0.2555  0.1404  0.5680
   76SLPC  H17X 6931   5.846   2.863   6.098  0.2902 -0.0411  0.7850
   76SLPC  H17Y 6932   5.992   2.881   5.993  0.2170 -1.7143  0.1042
   76SLPC  C318 6933   5.873   2.708   5.943  0.0999  0.5379 -0.3901
   76SLPC  H18X 6934   5.911   2.707   5.839 -0.1961 -2.7084 -0.5701
   76SLPC  H18Y 6935   5.774   2.657   5.950 -0.0916  0.3706 -3.1774
   76SLPC  H18Z 6936   5.951   2.649   5.996 -0.8440 -1.8973 -1.5409
   77SLPC     N 6937   0.338   2.196   7.139  0.4081  0.3054  0.5911
   77SLPC   C13 6938   0.416   2.317   7.088  0.0327  0.5194  0.0052
   77SLPC  H13A 6939   0.418   2.312   6.980 -4.0737 -0.3479 -0.1744
   77SLPC  H13B 6940   0.381   2.406   7.138 -1.8155  0.4946 -1.1888
   77SLPC  H13C 6941   0.516   2.301   7.125  1.1143  1.1776 -2.4132
   77SLPC   C14 6942   0.194   2.234   7.134  0.2797  0.1210 -0.3606
   77SLPC  H14A 6943   0.166   2.303   7.212 -1.9141 -2.1080  0.9551
   77SLPC  H14B 6944   0.186   2.288   7.041  0.4862  1.4096  0.3561
   77SLPC  H14C 6945   0.127   2.149   7.131  1.7389 -1.0576 -2.4118
   77SLPC   C15 6946   0.369   2.172   7.282  0.0222 -0.0135 -0.4840
   77SLPC  H15A 6947   0.332   2.250   7.347  0.9136 -1.3626  1.7433
   77SLPC  H15B 6948   0.321   2.081   7.314 -0.7867 -0.5434 -3.0049
   77SLPC  H15C 6949   0.475   2.166   7.301  0.1515 -1.3487 -1.4829
   77SLPC   C12 6950   0.363   2.083   7.046  0.6844  0.6495  0.2417
   77SLPC  H12A 6951   0.350   2.117   6.944  2.1824  1.2436  0.2167
   77SLPC  H12B 6952   0.282   2.012   7.053  0.2010  0.9820 -1.5656
   77SLPC   C11 6953   0.499   2.010   7.060 -0.2872 -0.2141 -0.3280
   77SLPC  H11A 6954   0.578   2.088   7.062 -1.1003  0.6346 -0.5561
   77SLPC  H11B 6955   0.528   1.944   6.975  0.4756 -0.9997  0.5130
   77SLPC     P 6956   0.433   1.778   7.181  0.4464 -0.4430  0.6607
   77SLPC   O13 6957   0.532   1.675   7.139 -0.3190 -0.4847 -0.4380
   77SLPC   O14 6958   0.379   1.762   7.315 -0.8556  1.0915 -0.3664
   77SLPC   O12 6959   0.495   1.926   7.178 -0.2298 -0.1245 -0.0801
   77SLPC   O11 6960   0.318   1.772   7.075  0.4593  0.2436  0.1604
   77SLPC    C1 6961   0.281   1.647   7.034  1.0440  0.4653  0.3066
   77SLPC    HA 6962   0.304   1.565   7.106 -1.9507 -0.5592  0.2140
   77SLPC    HB 6963   0.171   1.631   7.035  1.4503 -3.8959 -1.9665
   77SLPC    C2 6964   0.325   1.618   6.887 -0.5666  0.4198  0.1455
   77SLPC    HS 6965   0.434   1.636   6.877 -0.2759 -1.2476  0.1150
   77SLPC   O21 6966   0.247   1.687   6.786 -0.3687 -0.1611 -0.0734
   77SLPC   C21 6967   0.298   1.810   6.755 -0.9360  0.2065  0.8663
   77SLPC   O22 6968   0.412   1.842   6.782  0.1585  0.1203 -0.0727
   77SLPC   C22 6969   0.195   1.895   6.691  0.2737  0.4566 -0.6605
   77SLPC   H2R 6970   0.104   1.874   6.750  0.7072  0.1465 -0.0882
   77SLPC   H2S 6971   0.221   1.999   6.724  1.2858 -0.2486  0.9217
   77SLPC    C3 6972   0.321   1.461   6.850 -0.6167 -0.3139 -0.2622
   77SLPC    HX 6973   0.222   1.424   6.884 -1.2488  2.5231  1.3755
   77SLPC    HY 6974   0.399   1.420   6.917  2.5732  1.1536 -2.7956
   77SLPC   O31 6975   0.343   1.438   6.705  0.3853  0.5195  0.0169
   77SLPC   C31 6976   0.466   1.400   6.679  0.6212  0.5737 -0.5397
   77SLPC   O32 6977   0.545   1.364   6.758  0.1475 -0.2005 -0.4373
   77SLPC   C32 6978   0.480   1.374   6.533  0.3049  0.4114  1.1799
   77SLPC   H2X 6979   0.390   1.323   6.492  0.6351  0.3198  0.5472
   77SLPC   H2Y 6980   0.564   1.303   6.518 -1.9326 -1.9128 -1.3642
   77SLPC   C23 6981   0.168   1.869   6.537  0.3925  0.1218 -1.0648
   77SLPC   H3R 6982   0.081   1.932   6.506 -0.0150 -0.3049 -0.7866
   77SLPC   H3S 6983   0.144   1.763   6.514  0.6933 -0.4580  1.0987
   77SLPC   C24 6984   0.290   1.904   6.457  0.4174  0.1786 -0.2067
   77SLPC   H4R 6985   0.365   1.823   6.466  2.1709  1.6871 -0.5976
   77SLPC   H4S 6986   0.336   1.998   6.495 -0.5568  1.2129 -1.4543
   77SLPC   C25 6987   0.259   1.926   6.310 -0.7465 -0.3475  0.1312
   77SLPC   H5R 6988   0.192   2.015   6.303  0.3386  0.8411  3.2660
   77SLPC   H5S 6989   0.204   1.839   6.267  1.6803 -1.4276 -1.0073
   77SLPC   C26 6990   0.375   1.947   6.214 -0.3829  0.4389  0.2155
   77SLPC   H6R 6991   0.424   1.851   6.188  1.7332  1.2300  1.0213
   77SLPC   H6S 6992   0.470   1.994   6.250  1.6416 -2.3007 -1.1767
   77SLPC   C27 6993   0.329   2.016   6.086  0.4347  0.2842 -0.4515
   77SLPC   H7R 6994   0.317   2.122   6.117  0.7441  0.5026 -1.0698
   77SLPC   H7S 6995   0.229   1.977   6.059  1.0224 -1.4040 -0.2886
   77SLPC   C28 6996   0.438   2.025   5.971  0.5071  0.0598 -0.2539
   77SLPC   H8R 6997   0.389   2.054   5.876 -1.0398 -2.1677 -0.2151
   77SLPC   H8S 6998   0.468   1.919   5.953 -0.5083 -0.6596  1.9193
   77SLPC   C29 6999   0.548   2.120   6.007 -0.4175  0.7096 -0.5503
   77SLPC   H9R 7000   0.566   2.135   6.114  0.9799 -1.6788 -0.3663
   77SLPC  C210 7001   0.604   2.218   5.934 -1.0269  0.1828  0.0651
   77SLPC  H10R 7002   0.695   2.271   5.962 -1.9166  1.7995 -0.0002
   77SLPC  C211 7003   0.593   2.212   5.782  0.0622 -0.6049 -0.5282
   77SLPC  H11R 7004   0.496   2.164   5.756 -0.8234 -0.1307  1.6526
   77SLPC  H11S 7005   0.669   2.145   5.737  1.0188 -0.0111  0.1662
   77SLPC  C212 7006   0.595   2.346   5.713  0.5033  0.1846 -0.1151
   77SLPC  H12R 7007   0.544   2.425   5.770 -0.3386 -0.7928  0.5421
   77SLPC  C213 7008   0.659   2.375   5.598  0.4024  0.2314  0.0704
   77SLPC  H13R 7009   0.654   2.476   5.556 -1.1485  0.2051  0.1276
   77SLPC  C214 7010   0.731   2.278   5.508  0.8462 -0.1446  0.1895
   77SLPC  H14R 7011   0.732   2.317   5.404 -0.5961 -0.9423 -0.1486
   77SLPC  H14S 7012   0.696   2.173   5.519 -1.4071  0.6642  1.1667
   77SLPC  C215 7013   0.882   2.272   5.545 -0.4943  0.3543  0.6640
   77SLPC  H15R 7014   0.928   2.190   5.486 -0.5668  1.2968 -0.7525
   77SLPC  H15S 7015   0.879   2.234   5.649 -1.6595  1.0470  0.9055
   77SLPC  C216 7016   0.972   2.400   5.553  0.1074  0.6483  0.6296
   77SLPC  H16R 7017   1.074   2.374   5.589  0.1955 -1.5201 -1.0140
   77SLPC  H16S 7018   0.927   2.474   5.623  0.0560  1.0340  0.1858
   77SLPC  C217 7019   0.993   2.464   5.415 -0.1782  0.1747 -0.6913
   77SLPC  H17R 7020   0.985   2.574   5.421 -0.1026  0.1403  0.2385
   77SLPC  H17S 7021   0.910   2.432   5.349 -1.9031  2.3016  0.3388
   77SLPC  C218 7022   1.121   2.427   5.335 -0.5327  0.4577 -0.3404
   77SLPC  H18R 7023   1.129   2.484   5.241  0.9296 -1.9630 -1.7941
   77SLPC  H18S 7024   1.128   2.318   5.311  1.6259  1.1504 -3.3567
   77SLPC  H18T 7025   1.208   2.445   5.401 -0.5533  0.0266 -0.1866
   77SLPC   C33 7026   0.516   1.502   6.459  0.3860 -0.4502  0.3972
   77SLPC   H3X 7027   0.604   1.543   6.514  0.1775 -1.9870  1.9422
   77SLPC   H3Y 7028   0.429   1.570   6.462  0.2175 -0.5291 -1.5602
   77SLPC   C34 7029   0.559   1.484   6.315 -0.2638 -0.1456  0.3432
   77SLPC   H4X 7030   0.549   1.586   6.273 -0.8342 -0.6223 -0.7251
   77SLPC   H4Y 7031   0.496   1.410   6.262  1.3472 -2.7350  1.8403
   77SLPC   C35 7032   0.710   1.442   6.289  0.0961  0.6558 -0.4339
   77SLPC   H5X 7033   0.741   1.359   6.355  0.0727  1.9197  1.2302
   77SLPC   H5Y 7034   0.779   1.524   6.317  1.2547  0.0411 -1.4180
   77SLPC   C36 7035   0.737   1.412   6.135 -0.2162 -0.1349 -0.4154
   77SLPC   H6X 7036   0.682   1.318   6.111 -2.9368  1.1777  0.2792
   77SLPC   H6Y 7037   0.845   1.386   6.133 -0.4354 -1.1901  0.3531
   77SLPC   C37 7038   0.703   1.525   6.037 -0.0719  0.2771  0.0101
   77SLPC   H7X 7039   0.734   1.620   6.085  3.3275 -1.8085  2.4257
   77SLPC   H7Y 7040   0.595   1.528   6.011 -0.0268  1.6272 -0.0846
   77SLPC   C38 7041   0.771   1.500   5.899  0.3890 -0.6485  0.4161
   77SLPC   H8X 7042   0.876   1.467   5.918  0.4933  1.1204  3.7717
   77SLPC   H8Y 7043   0.774   1.601   5.852  0.3096 -0.7077  0.2873
   77SLPC   C39 7044   0.680   1.407   5.817 -0.7429 -0.5759 -0.0025
   77SLPC   H9X 7045   0.572   1.429   5.828 -0.0894  2.0010  2.5718
   77SLPC   H9Y 7046   0.695   1.302   5.851  1.3900 -0.3858 -0.2552
   77SLPC  C310 7047   0.708   1.413   5.668 -0.2062  0.2920 -0.0870
   77SLPC  H10X 7048   0.644   1.339   5.615  0.7124  0.9791 -2.2769
   77SLPC  H10Y 7049   0.809   1.371   5.644 -0.3212 -0.1875  0.2477
   77SLPC  C311 7050   0.682   1.542   5.604  0.0716 -0.6563  0.1149
   77SLPC  H11X 7051   0.765   1.611   5.630  1.0668 -1.1592 -1.5262
   77SLPC  H11Y 7052   0.587   1.587   5.639 -0.4638  0.4198 -2.4856
   77SLPC  C312 7053   0.657   1.532   5.454  0.2535 -0.1252  0.6732
   77SLPC  H12X 7054   0.659   1.635   5.413  0.1799 -0.4324 -0.1060
   77SLPC  H12Y 7055   0.559   1.487   5.428  0.4954  0.6206 -1.7105
   77SLPC  C313 7056   0.765   1.454   5.370  0.2676  0.5406 -0.0042
   77SLPC  H13X 7057   0.770   1.351   5.411  0.2769  1.3279  2.1440
   77SLPC  H13Y 7058   0.868   1.488   5.398  0.0441  0.3570  1.0706
   77SLPC  C314 7059   0.744   1.454   5.215 -0.4865  0.7170  0.8643
   77SLPC  H14X 7060   0.824   1.388   5.175  0.0111  2.0901 -0.4917
   77SLPC  H14Y 7061   0.759   1.559   5.184  0.0648  0.0681 -1.2014
   77SLPC  C315 7062   0.601   1.408   5.169  0.1618  0.8282 -0.1415
   77SLPC  H15X 7063   0.611   1.394   5.059  0.2791 -0.4531  0.0138
   77SLPC  H15Y 7064   0.535   1.497   5.181  0.9763  1.4859 -0.4289
   77SLPC  C316 7065   0.543   1.285   5.239  0.5594  0.0657  0.3084
   77SLPC  H16X 7066   0.441   1.267   5.200  1.1063  0.5568 -1.4424
   77SLPC  H16Y 7067   0.539   1.296   5.349  1.9157  1.5961  0.2541
   77SLPC  C317 7068   0.624   1.151   5.218 -0.0584 -0.6375  0.3201
   77SLPC  H17X 7069   0.565   1.075   5.274  1.5472 -2.6296 -0.5832
   77SLPC  H17Y 7070   0.721   1.153   5.274  0.1031 -1.4882  0.0761
   77SLPC  C318 7071   0.640   1.100   5.077 -0.2763  0.3780  0.8864
   77SLPC  H18X 7072   0.545   1.057   5.037 -0.2858 -0.2771  1.5867
   77SLPC  H18Y 7073   0.712   1.017   5.088  2.6282  2.7996  1.3698
   77SLPC  H18Z 7074   0.677   1.182   5.011  2.6617 -1.0363  0.6229
   78SLPC     N 7075   3.158   6.242   7.384 -0.0991 -0.2492 -0.2843
   78SLPC   C13 7076   3.128   6.306   7.249  0.8125 -0.4470 -0.5549
   78SLPC  H13A 7077   3.042   6.371   7.261  1.4204  0.1973  0.4440
   78SLPC  H13B 7078   3.217   6.353   7.209  0.1413  0.4842 -1.0080
   78SLPC  H13C 7079   3.106   6.233   7.173  0.3281  0.3087 -1.1530
   78SLPC   C14 7080   3.038   6.173   7.428 -0.3659  0.9602 -0.0648
   78SLPC  H14A 7081   2.952   6.239   7.429 -2.9363 -2.1196  1.8976
   78SLPC  H14B 7082   3.017   6.093   7.358  1.5646  0.9679 -0.6984
   78SLPC  H14C 7083   3.045   6.129   7.526  1.6062  1.9340  0.2782
   78SLPC   C15 7084   3.199   6.341   7.488 -0.2861 -0.5232 -0.3522
   78SLPC  H15A 7085   3.192   6.296   7.586  1.9522 -1.6438 -0.6219
   78SLPC  H15B 7086   3.295   6.387   7.471 -0.3068  0.3909  1.7643
   78SLPC  H15C 7087   3.132   6.425   7.479 -0.2145 -0.5303 -0.9860
   78SLPC   C12 7088   3.262   6.136   7.365 -0.3685  0.1575  0.1867
   78SLPC  H12A 7089   3.262   6.082   7.458 -1.8645  0.5944  0.4660
   78SLPC  H12B 7090   3.359   6.183   7.350 -0.4356 -0.1098 -1.2198
   78SLPC   C11 7091   3.250   6.044   7.235 -0.7743  0.0177 -0.1497
   78SLPC  H11A 7092   3.338   5.982   7.260  0.7564  1.9252 -0.5588
   78SLPC  H11B 7093   3.271   6.103   7.143 -1.8779 -0.1329 -0.5211
   78SLPC     P 7094   3.113   5.820   7.214  0.1348 -0.1262 -0.1143
   78SLPC   O13 7095   3.083   5.779   7.354  0.0979 -0.0846 -0.2683
   78SLPC   O14 7096   3.009   5.780   7.116  0.1080  0.5116  0.2262
   78SLPC   O12 7097   3.132   5.973   7.224 -0.0826  0.3280 -0.3249
   78SLPC   O11 7098   3.251   5.761   7.184 -0.3612  0.3624  0.1804
   78SLPC    C1 7099   3.275   5.686   7.067 -0.1964  0.0219 -0.4888
   78SLPC    HA 7100   3.342   5.601   7.092  0.0510  0.3331 -0.0776
   78SLPC    HB 7101   3.181   5.645   7.026  0.3738 -1.6347 -0.1931
   78SLPC    C2 7102   3.343   5.774   6.955  0.2201  0.1928  1.4027
   78SLPC    HS 7103   3.431   5.823   7.002  0.3149  0.9283  0.4694
   78SLPC   O21 7104   3.240   5.863   6.910 -0.2625  0.2126  0.6595
   78SLPC   C21 7105   3.291   5.982   6.875 -0.4498  0.0072 -0.4706
   78SLPC   O22 7106   3.407   6.013   6.865 -0.1978  0.1795 -0.7641
   78SLPC   C22 7107   3.166   6.060   6.824 -0.5033 -0.7693  0.0343
   78SLPC   H2R 7108   3.076   5.997   6.841 -0.2238 -0.4809  3.1117
   78SLPC   H2S 7109   3.136   6.148   6.885 -0.4402 -0.3460 -0.5343
   78SLPC    C3 7110   3.398   5.682   6.833  0.5216  0.0938  0.3508
   78SLPC    HX 7111   3.319   5.604   6.832 -0.3481  0.9355  0.6850
   78SLPC    HY 7112   3.487   5.624   6.864  0.8166  0.6938  0.6484
   78SLPC   O31 7113   3.407   5.746   6.703 -0.0176  0.5051  0.0865
   78SLPC   C31 7114   3.519   5.824   6.680 -0.1589 -0.4221  0.1041
   78SLPC   O32 7115   3.603   5.841   6.763 -0.4828 -0.2040 -0.2681
   78SLPC   C32 7116   3.502   5.896   6.549 -0.5763  0.0176 -0.9585
   78SLPC   H2X 7117   3.592   5.953   6.517 -1.3044  1.8443  0.0796
   78SLPC   H2Y 7118   3.427   5.975   6.571 -0.9244 -1.1752  2.7719
   78SLPC   C23 7119   3.185   6.084   6.674 -0.5218  0.3917 -0.2421
   78SLPC   H3R 7120   3.219   5.991   6.624  1.3348  1.5784 -1.2781
   78SLPC   H3S 7121   3.258   6.167   6.666  0.3644  0.0393  3.0346
   78SLPC   C24 7122   3.060   6.125   6.603  0.3207 -0.0724  0.0400
   78SLPC   H4R 7123   3.041   6.231   6.632  1.5089  0.0496  0.4436
   78SLPC   H4S 7124   2.976   6.061   6.635 -0.9217 -1.1527 -4.5976
   78SLPC   C25 7125   3.069   6.110   6.452  0.8679 -0.4939 -0.4276
   78SLPC   H5R 7126   3.073   6.002   6.426 -0.3679 -0.7105  0.2105
   78SLPC   H5S 7127   3.154   6.174   6.418  0.7165  1.7046  2.8874
   78SLPC   C26 7128   2.942   6.153   6.376 -0.4243 -0.4769  0.5527
   78SLPC   H6R 7129   2.913   6.255   6.409  1.7571  0.0864  0.9401
   78SLPC   H6S 7130   2.860   6.085   6.408 -1.3617 -0.8520 -2.3853
   78SLPC   C27 7131   2.955   6.136   6.222  0.3044 -0.6108 -0.3526
   78SLPC   H7R 7132   3.007   6.041   6.197 -0.4832 -1.4943  1.2146
   78SLPC   H7S 7133   3.021   6.221   6.194  0.6002  0.2904  2.7441
   78SLPC   C28 7134   2.817   6.138   6.156 -0.0889 -0.6318 -0.2279
   78SLPC   H8R 7135   2.750   6.057   6.192 -0.1221 -0.7877 -0.6421
   78SLPC   H8S 7136   2.834   6.114   6.049  4.6818  0.7232  0.0308
   78SLPC   C29 7137   2.763   6.273   6.158  0.8542 -0.6123  0.8314
   78SLPC   H9R 7138   2.692   6.296   6.239  0.2996  2.2669 -0.3569
   78SLPC  C210 7139   2.785   6.372   6.064  0.1440 -0.1669  0.9342
   78SLPC  H10R 7140   2.730   6.467   6.072  0.9528  0.4713 -0.7083
   78SLPC  C211 7141   2.875   6.369   5.932  0.5081  0.0041 -0.4980
   78SLPC  H11R 7142   2.976   6.347   5.972  0.3289  1.0987  0.6033
   78SLPC  H11S 7143   2.880   6.473   5.894 -0.3775  0.4679  0.6226
   78SLPC  C212 7144   2.839   6.271   5.827  0.7303 -0.3467 -0.7399
   78SLPC  H12R 7145   2.782   6.185   5.864  0.2762  1.4236  3.3286
   78SLPC  C213 7146   2.869   6.287   5.699 -0.0701 -0.4997 -0.5979
   78SLPC  H13R 7147   2.838   6.207   5.631  1.3999 -2.4887  0.9556
   78SLPC  C214 7148   2.940   6.407   5.642 -0.0944 -0.4348 -0.1359
   78SLPC  H14R 7149   3.050   6.409   5.651  0.3818 -2.1936 -3.6415
   78SLPC  H14S 7150   2.912   6.499   5.697  1.2170 -1.2981  2.0826
   78SLPC  C215 7151   2.915   6.419   5.489  0.3385  0.0923 -0.5493
   78SLPC  H15R 7152   2.951   6.521   5.462  1.9489 -0.4093 -0.4060
   78SLPC  H15S 7153   2.810   6.414   5.453  1.2936  0.0934 -3.5631
   78SLPC  C216 7154   2.983   6.315   5.402  0.6577 -0.2935  0.3387
   78SLPC  H16R 7155   2.968   6.210   5.432 -0.6729 -0.4425 -0.7316
   78SLPC  H16S 7156   3.092   6.335   5.415  0.5368 -0.2189  1.2516
   78SLPC  C217 7157   2.951   6.336   5.246 -0.1543  0.2437 -0.3748
   78SLPC  H17R 7158   2.869   6.410   5.237 -1.9113 -1.4429  0.8241
   78SLPC  H17S 7159   2.919   6.234   5.214  0.5856 -0.2192  0.3204
   78SLPC  C218 7160   3.062   6.388   5.157 -0.0693  0.4358  0.4259
   78SLPC  H18R 7161   3.109   6.479   5.201  3.2958 -0.1498 -1.6296
   78SLPC  H18S 7162   3.030   6.404   5.052  0.5045  0.7670  0.3000
   78SLPC  H18T 7163   3.149   6.320   5.146  0.4335  1.3590 -1.8705
   78SLPC   C33 7164   3.459   5.806   6.433 -0.2437  0.4380 -0.1294
   78SLPC   H3X 7165   3.363   5.751   6.446  0.1858 -0.2458  0.2305
   78SLPC   H3Y 7166   3.533   5.732   6.394 -1.2513 -0.3142 -0.6697
   78SLPC   C34 7167   3.417   5.893   6.310 -0.1222  0.1588 -0.2782
   78SLPC   H4X 7168   3.501   5.955   6.270 -1.8755  1.5272 -2.0921
   78SLPC   H4Y 7169   3.342   5.962   6.353  0.7179  0.3252  0.9785
   78SLPC   C35 7170   3.358   5.817   6.193 -0.3717 -0.0330  0.2832
   78SLPC   H5X 7171   3.265   5.764   6.219 -0.3733 -0.1647  0.0178
   78SLPC   H5Y 7172   3.427   5.738   6.157  0.2389  0.0292  1.2779
   78SLPC   C36 7173   3.330   5.919   6.081  0.9357 -0.4435 -0.8473
   78SLPC   H6X 7174   3.399   6.006   6.087  1.3389 -0.8207  0.1211
   78SLPC   H6Y 7175   3.229   5.957   6.108  0.4296 -1.1829 -1.6262
   78SLPC   C37 7176   3.318   5.870   5.938  0.8613 -0.4198 -0.2073
   78SLPC   H7X 7177   3.249   5.783   5.947  0.6806 -0.2916 -0.3553
   78SLPC   H7Y 7178   3.411   5.830   5.892 -0.1159 -1.1803 -1.6048
   78SLPC   C38 7179   3.274   5.979   5.846 -0.3254 -0.4395 -0.4705
   78SLPC   H8X 7180   3.332   6.073   5.862 -2.2066  0.8091 -0.5922
   78SLPC   H8Y 7181   3.171   6.008   5.879  0.1581 -0.6954  1.3981
   78SLPC   C39 7182   3.264   5.942   5.700 -0.2408 -0.5795  0.0561
   78SLPC   H9X 7183   3.220   5.844   5.674 -0.7854 -0.4724  0.5511
   78SLPC   H9Y 7184   3.370   5.931   5.668 -0.5224  0.6889 -1.4165
   78SLPC  C310 7185   3.191   6.045   5.612 -0.1944 -0.7287 -0.9025
   78SLPC  H10X 7186   3.228   6.148   5.631 -0.6820 -0.4066 -1.6570
   78SLPC  H10Y 7187   3.086   6.046   5.647 -0.3096 -1.4238 -1.2037
   78SLPC  C311 7188   3.198   5.996   5.468  0.0415 -0.6571 -0.0932
   78SLPC  H11X 7189   3.093   5.980   5.435 -0.1260  0.0713  0.0558
   78SLPC  H11Y 7190   3.242   5.894   5.467  0.6425 -0.4126  0.4901
   78SLPC  C312 7191   3.261   6.100   5.379  0.6331 -0.0725 -0.6523
   78SLPC  H12X 7192   3.369   6.115   5.400  0.0467  1.2108  1.8570
   78SLPC  H12Y 7193   3.217   6.197   5.412 -0.3985 -0.6619 -0.2495
   78SLPC  C313 7194   3.226   6.082   5.230 -0.2369  0.3373 -0.2965
   78SLPC  H13X 7195   3.308   6.132   5.175  1.5203 -1.7822  0.2203
   78SLPC  H13Y 7196   3.130   6.120   5.190  1.2192  2.4832 -1.9878
   78SLPC  C314 7197   3.229   5.931   5.183  0.2229 -0.0460  0.2898
   78SLPC  H14X 7198   3.145   5.880   5.236  0.4529  0.8276  1.5093
   78SLPC  H14Y 7199   3.322   5.882   5.219  1.1013  2.2494  1.3367
   78SLPC  C315 7200   3.208   5.905   5.031 -0.1134  0.2334 -0.2732
   78SLPC  H15X 7201   3.242   5.997   4.979  1.1254  0.5262  1.0003
   78SLPC  H15Y 7202   3.100   5.887   5.011 -0.5089  0.8361  1.1704
   78SLPC  C316 7203   3.280   5.780   4.974  0.0129 -0.3686 -1.2403
   78SLPC  H16X 7204   3.234   5.692   5.023  0.9997  0.1758  0.7543
   78SLPC  H16Y 7205   3.382   5.790   5.016 -1.1659  1.0174  1.5340
   78SLPC  C317 7206   3.279   5.774   4.825 -0.1125  0.1043  0.6652
   78SLPC  H17X 7207   3.352   5.693   4.802 -3.7338 -2.8427 -1.7609
   78SLPC  H17Y 7208   3.316   5.866   4.776  1.2519 -0.4609  0.5904
   78SLPC  C318 7209   3.151   5.744   4.752  0.4811  0.6003  0.1683
   78SLPC  H18X 7210   3.076   5.817   4.790 -0.1730  0.3040 -0.5210
   78SLPC  H18Y 7211   3.110   5.641   4.763 -0.0584  0.8900  0.9464
   78SLPC  H18Z 7212   3.170   5.761   4.644  1.1704 -1.6186 -0.1204
   79SLPC     N 7213   6.558   3.927   7.649 -0.9787 -0.2745  0.1181
   79SLPC   C13 7214   6.500   3.940   7.790  0.6242  0.5006  0.0523
   79SLPC  H13A 7215   6.417   3.873   7.783  0.5678  0.3810  1.5092
   79SLPC  H13B 7216   6.556   3.910   7.877  3.4925  0.1811 -1.7478
   79SLPC  H13C 7217   6.453   4.035   7.811  2.3363  0.9280  2.3795
   79SLPC   C14 7218   6.627   3.793   7.641 -0.3065  0.3368 -0.1886
   79SLPC  H14A 7219   6.683   3.780   7.733 -2.0911 -0.1172  0.8927
   79SLPC  H14B 7220   6.555   3.715   7.658 -0.5536  1.0978  2.8854
   79SLPC  H14C 7221   6.697   3.774   7.562  1.0519 -1.9540  1.4204
   79SLPC   C15 7222   6.660   4.041   7.636  0.2372  0.4743  0.3297
   79SLPC  H15A 7223   6.687   4.057   7.533 -1.3270 -3.3138 -0.8731
   79SLPC  H15B 7224   6.609   4.132   7.664 -0.3303  0.3796 -0.3525
   79SLPC  H15C 7225   6.750   4.022   7.693  0.9641  0.9659 -0.6274
   79SLPC   C12 7226   6.455   3.935   7.542  0.5414  0.6723 -0.3637
   79SLPC  H12A 7227   6.376   3.865   7.564  2.3459 -2.1473 -2.2544
   79SLPC  H12B 7228   6.490   3.905   7.444  1.6929 -0.2514  0.3089
   79SLPC   C11 7229   6.391   4.073   7.512 -0.7652  0.3732  0.5419
   79SLPC  H11A 7230   6.353   4.113   7.609  1.2265  1.7741  0.8108
   79SLPC  H11B 7231   6.296   4.056   7.458 -1.6510  0.3440  2.0650
   79SLPC     P 7232   6.501   4.150   7.291 -0.2347 -0.1198 -0.0847
   79SLPC   O13 7233   6.640   4.185   7.252 -0.2357  0.2889 -0.7118
   79SLPC   O14 7234   6.460   4.017   7.252  0.2428  0.0285  0.2416
   79SLPC   O12 7235   6.482   4.173   7.447  0.5705  0.0016 -0.0914
   79SLPC   O11 7236   6.404   4.254   7.220 -0.2283 -0.0436 -0.4390
   79SLPC    C1 7237   6.257   4.240   7.232 -0.7809 -0.1820 -0.3430
   79SLPC    HA 7238   6.233   4.153   7.296  2.3474  0.0460  1.2775
   79SLPC    HB 7239   6.209   4.329   7.278  0.6894  1.3607 -1.6342
   79SLPC    C2 7240   6.203   4.242   7.085  0.0720 -0.0408  0.3405
   79SLPC    HS 7241   6.096   4.269   7.100 -0.9348 -2.3376 -2.0587
   79SLPC   O21 7242   6.223   4.120   7.017 -0.2275 -0.5082  0.2557
   79SLPC   C21 7243   6.146   4.027   7.051  0.0458 -0.5840 -0.3632
   79SLPC   O22 7244   6.041   4.041   7.111  0.2370 -0.9547  0.3457
   79SLPC   C22 7245   6.193   3.899   6.988 -0.2767 -0.0636  0.1866
   79SLPC   H2R 7246   6.250   3.924   6.896 -0.4819 -0.8358 -0.1561
   79SLPC   H2S 7247   6.270   3.853   7.055  0.6457  1.4859  0.2398
   79SLPC    C3 7248   6.273   4.361   7.004  0.2702  0.6524 -0.3041
   79SLPC    HX 7249   6.381   4.344   7.024 -0.0035 -1.7394 -0.5725
   79SLPC    HY 7250   6.245   4.464   7.036  0.7265  1.4174 -2.2118
   79SLPC   O31 7251   6.256   4.350   6.860  0.0411 -0.4282  0.1229
   79SLPC   C31 7252   6.131   4.371   6.813 -0.2761  0.4483  0.0351
   79SLPC   O32 7253   6.035   4.411   6.877  0.3693 -0.2304 -0.3254
   79SLPC   C32 7254   6.128   4.332   6.669  0.1621  0.6281  0.2702
   79SLPC   H2X 7255   6.089   4.228   6.663 -2.0624  1.3495  1.0576
   79SLPC   H2Y 7256   6.227   4.348   6.621  0.4895  0.8749  1.0093
   79SLPC   C23 7257   6.077   3.808   6.944  0.5860  0.1146 -0.8323
   79SLPC   H3R 7258   5.997   3.870   6.899 -2.5864 -1.2443  2.3785
   79SLPC   H3S 7259   6.026   3.755   7.027 -1.1277  1.1600 -1.1712
   79SLPC   C24 7260   6.117   3.694   6.854  0.0516 -0.0277 -0.5286
   79SLPC   H4R 7261   6.034   3.625   6.826 -0.0144 -0.4855  0.7354
   79SLPC   H4S 7262   6.198   3.639   6.906 -0.3950  0.6988  0.9872
   79SLPC   C25 7263   6.182   3.730   6.717 -0.3374  0.5620 -0.5970
   79SLPC   H5R 7264   6.221   3.637   6.672 -1.3563  0.5222 -1.4383
   79SLPC   H5S 7265   6.269   3.793   6.744 -1.0643  0.9357  1.0062
   79SLPC   C26 7266   6.089   3.811   6.623 -0.3438  0.5893 -0.2136
   79SLPC   H6R 7267   6.079   3.914   6.663 -3.9685  0.4992 -0.5027
   79SLPC   H6S 7268   5.991   3.758   6.622  0.3332 -0.6861 -0.5119
   79SLPC   C27 7269   6.145   3.826   6.478 -0.4582 -0.7259 -0.1114
   79SLPC   H7R 7270   6.251   3.855   6.494 -0.2275 -1.6733  0.1844
   79SLPC   H7S 7271   6.094   3.906   6.420  1.1616  0.2571 -0.2521
   79SLPC   C28 7272   6.148   3.691   6.406 -0.3071  0.0733  1.0753
   79SLPC   H8R 7273   6.189   3.604   6.461  2.3494 -1.1363 -2.4227
   79SLPC   H8S 7274   6.228   3.695   6.328  0.9109 -1.1954  2.2147
   79SLPC   C29 7275   6.019   3.655   6.344  0.3318 -0.2185 -0.4117
   79SLPC   H9R 7276   5.963   3.584   6.407  1.4281  0.0796  0.9446
   79SLPC  C210 7277   5.969   3.687   6.221 -0.1016  0.0401  0.6116
   79SLPC  H10R 7278   5.874   3.646   6.186  0.9800 -2.1486  0.0928
   79SLPC  C211 7279   6.044   3.779   6.123 -0.2022  0.1410 -0.2021
   79SLPC  H11R 7280   6.097   3.862   6.174 -0.8091  0.8640 -0.7314
   79SLPC  H11S 7281   5.963   3.830   6.067  1.5201  0.4716 -2.5415
   79SLPC  C212 7282   6.145   3.719   6.027 -0.3785 -0.5385 -0.6313
   79SLPC  H12R 7283   6.203   3.631   6.057 -0.6089 -0.8719 -1.1374
   79SLPC  C213 7284   6.161   3.753   5.898  0.1762  0.8239 -0.0980
   79SLPC  H13R 7285   6.226   3.682   5.846 -1.5583  0.1125 -1.3707
   79SLPC  C214 7286   6.095   3.858   5.815 -0.4758  0.3604  0.7434
   79SLPC  H14R 7287   6.178   3.914   5.766 -1.0949  1.0129  0.4221
   79SLPC  H14S 7288   6.033   3.939   5.859 -1.9153 -0.3264  0.0487
   79SLPC  C215 7289   6.010   3.819   5.695 -0.0101  0.1223  0.1028
   79SLPC  H15R 7290   6.003   3.905   5.625  3.7284  0.3929 -0.1547
   79SLPC  H15S 7291   5.913   3.781   5.735 -0.4952 -0.7753 -1.8090
   79SLPC  C216 7292   6.071   3.702   5.609  0.2503 -0.5326 -0.1296
   79SLPC  H16R 7293   6.104   3.621   5.678  1.6862 -0.2145 -0.4020
   79SLPC  H16S 7294   6.158   3.745   5.555 -0.8550 -0.3981 -1.8972
   79SLPC  C217 7295   5.978   3.638   5.504  0.3124  0.1999 -0.2584
   79SLPC  H17R 7296   5.935   3.711   5.432 -2.6554  0.3407  1.4973
   79SLPC  H17S 7297   5.879   3.607   5.544  0.0459  0.7410 -0.4865
   79SLPC  C218 7298   6.030   3.503   5.441  0.1126 -0.0485  0.4620
   79SLPC  H18R 7299   5.941   3.452   5.398  0.6084  0.1137 -0.7998
   79SLPC  H18S 7300   6.084   3.435   5.511  1.7471  0.9685  0.2340
   79SLPC  H18T 7301   6.107   3.518   5.361  1.1158 -2.8317  0.7778
   79SLPC   C33 7302   6.026   4.414   6.585 -0.4027  0.4184 -0.1812
   79SLPC   H3X 7303   6.029   4.521   6.615 -2.1229  0.5381 -0.3385
   79SLPC   H3Y 7304   5.920   4.386   6.599 -1.1777  2.3259 -1.8484
   79SLPC   C34 7305   6.052   4.399   6.437  0.2243 -0.5162 -0.0273
   79SLPC   H4X 7306   6.055   4.289   6.421  0.8158 -0.0838 -3.7158
   79SLPC   H4Y 7307   6.152   4.440   6.411 -0.1075  0.5273  0.2948
   79SLPC   C35 7308   5.950   4.466   6.341 -0.0745  0.2767 -0.9586
   79SLPC   H5X 7309   5.946   4.573   6.368 -0.0651 -0.3082  1.6587
   79SLPC   H5Y 7310   5.848   4.424   6.353  0.4783 -0.8849 -0.0875
   79SLPC   C36 7311   5.990   4.449   6.189  0.0188  0.9372  0.2008
   79SLPC   H6X 7312   5.988   4.341   6.164 -2.7168  1.1867 -1.0638
   79SLPC   H6Y 7313   6.095   4.487   6.183  1.2936 -2.3091  0.0785
   79SLPC   C37 7314   5.903   4.513   6.082  0.1958 -0.8207 -1.1006
   79SLPC   H7X 7315   5.890   4.617   6.120 -1.6717 -1.5734  0.4974
   79SLPC   H7Y 7316   5.799   4.476   6.087 -0.8119  1.9158  1.2159
   79SLPC   C38 7317   5.962   4.513   5.943 -0.0607  0.4060  0.7602
   79SLPC   H8X 7318   6.005   4.412   5.926  0.5622  0.3005  2.6960
   79SLPC   H8Y 7319   6.048   4.584   5.944 -0.1652  0.5885 -1.1225
   79SLPC   C39 7320   5.873   4.556   5.828  0.4320 -0.1664  0.1749
   79SLPC   H9X 7321   5.802   4.635   5.861 -2.3094 -2.3918  0.0440
   79SLPC   H9Y 7322   5.797   4.476   5.808  0.0235  0.1712  0.3603
   79SLPC  C310 7323   5.945   4.611   5.708  0.5713 -0.2521  0.1006
   79SLPC  H10X 7324   6.034   4.551   5.678  0.1639 -0.0657 -1.5994
   79SLPC  H10Y 7325   5.985   4.711   5.736 -0.3764 -0.7904  3.8313
   79SLPC  C311 7326   5.855   4.625   5.588 -0.0060 -0.3816  0.4235
   79SLPC  H11X 7327   5.802   4.528   5.581  1.8696 -1.8760  4.0755
   79SLPC  H11Y 7328   5.913   4.639   5.494 -3.5027  1.2186 -1.7014
   79SLPC  C312 7329   5.755   4.743   5.585 -0.0034 -0.6965 -0.3076
   79SLPC  H12X 7330   5.802   4.839   5.553 -3.2654  0.5302 -1.8359
   79SLPC  H12Y 7331   5.707   4.768   5.682 -0.6953 -0.2911 -0.7464
   79SLPC  C313 7332   5.638   4.716   5.496 -0.3343 -0.7010  0.6162
   79SLPC  H13X 7333   5.541   4.751   5.537  0.0502 -1.0017  1.8321
   79SLPC  H13Y 7334   5.621   4.607   5.482  0.9946 -0.6051 -2.6111
   79SLPC  C314 7335   5.640   4.773   5.353 -0.0213  0.2342 -0.1080
   79SLPC  H14X 7336   5.629   4.883   5.362 -0.4002  0.2198 -0.3786
   79SLPC  H14Y 7337   5.546   4.741   5.303 -0.7662  0.9755  0.7804
   79SLPC  C315 7338   5.766   4.735   5.274 -0.0486  0.1708 -0.2105
   79SLPC  H15X 7339   5.773   4.624   5.274  1.3388  0.2262  1.0370
   79SLPC  H15Y 7340   5.852   4.783   5.325 -0.0837  0.7005 -0.6464
   79SLPC  C316 7341   5.764   4.776   5.124  0.4334  0.2476  0.7275
   79SLPC  H16X 7342   5.727   4.880   5.108 -0.2221  0.0256  0.7823
   79SLPC  H16Y 7343   5.701   4.704   5.068 -0.7955  1.4293  0.5362
   79SLPC  C317 7344   5.909   4.765   5.067  0.0279 -0.3648 -0.0093
   79SLPC  H17X 7345   5.942   4.661   5.083 -1.2465 -0.7372  0.3644
   79SLPC  H17Y 7346   5.965   4.828   5.140  0.3784 -0.8923  0.1809
   79SLPC  C318 7347   5.918   4.821   4.928 -0.0495  0.3157  1.0447
   79SLPC  H18X 7348   5.866   4.916   4.902 -1.1196 -0.4733  0.1881
   79SLPC  H18Y 7349   5.884   4.741   4.858  1.1824  0.0402  0.7253
   79SLPC  H18Z 7350   6.023   4.840   4.898  0.4929 -1.3709  1.7524
   80SLPC     N 7351   6.640   0.222   7.533  0.4847  0.3520 -0.4220
   80SLPC   C13 7352   6.659   0.361   7.495 -0.3948 -0.8895  0.4010
   80SLPC  H13A 7353   6.579   0.403   7.435  2.9018  2.1843 -2.2978
   80SLPC  H13B 7354   6.672   0.434   7.573 -0.5027 -1.2132  0.7198
   80SLPC  H13C 7355   6.752   0.371   7.441  0.2165 -0.8076  1.4416
   80SLPC   C14 7356   6.507   0.209   7.606  0.2291 -0.6480  0.5468
   80SLPC  H14A 7357   6.426   0.245   7.543  0.1252  0.6865  1.4050
   80SLPC  H14B 7358   6.487   0.109   7.643  0.0437 -0.6382  0.4743
   80SLPC  H14C 7359   6.511   0.274   7.692 -0.2821  0.1131  0.0091
   80SLPC   C15 7360   6.745   0.186   7.627 -0.1567  0.1169 -0.0053
   80SLPC  H15A 7361   6.841   0.207   7.582 -0.6012 -1.4301 -1.7828
   80SLPC  H15B 7362   6.740   0.238   7.722 -2.2958  0.8638 -0.4738
   80SLPC  H15C 7363   6.739   0.081   7.651  0.7714 -0.0232 -0.3344
   80SLPC   C12 7364   6.646   0.132   7.411 -0.0248 -0.4831 -0.7560
   80SLPC  H12A 7365   6.642   0.032   7.450  1.1778  0.0271  0.7834
   80SLPC  H12B 7366   6.746   0.136   7.369  0.6364 -2.9124  0.3621
   80SLPC   C11 7367   6.535   0.156   7.310  0.1796 -0.1910  0.4015
   80SLPC  H11A 7368   6.549   0.115   7.207 -0.8088  0.9053 -0.1972
   80SLPC  H11B 7369   6.531   0.265   7.289 -0.1645 -0.1833  0.5060
   80SLPC     P 7370   6.331  -0.005   7.312  0.6265  0.1826  0.3359
   80SLPC   O13 7371   6.403  -0.130   7.340 -0.0572 -0.0111  0.2131
   80SLPC   O14 7372   6.196  -0.004   7.362 -0.2781 -0.7255 -0.4515
   80SLPC   O12 7373   6.409   0.121   7.355  0.2803 -0.4522  0.5890
   80SLPC   O11 7374   6.334   0.009   7.157  0.9044  0.0055 -0.1037
   80SLPC    C1 7375   6.214   0.044   7.089 -0.5804 -0.3637  0.4891
   80SLPC    HA 7376   6.152  -0.047   7.071  0.0014 -0.4517 -1.3009
   80SLPC    HB 7377   6.158   0.117   7.150  0.3794  0.9021 -0.1026
   80SLPC    C2 7378   6.249   0.106   6.954 -0.6481  0.9429 -0.2422
   80SLPC    HS 7379   6.151   0.141   6.915 -1.7391 -1.5068  0.0512
   80SLPC   O21 7380   6.311  -0.002   6.872  0.1752  0.2174 -0.3534
   80SLPC   C21 7381   6.215  -0.068   6.804  0.6777 -0.9043  0.0106
   80SLPC   O22 7382   6.096  -0.034   6.804  0.1349  0.2060  0.4336
   80SLPC   C22 7383   6.276  -0.180   6.725  0.3562 -0.7875 -1.0679
   80SLPC   H2R 7384   6.379  -0.193   6.765  0.1019  1.6931  0.5962
   80SLPC   H2S 7385   6.215  -0.260   6.772 -2.5790  0.7822 -1.9511
   80SLPC    C3 7386   6.348   0.224   6.971  0.2078  0.2352  0.1868
   80SLPC    HX 7387   6.444   0.180   7.007  0.6079  0.8178 -0.1414
   80SLPC    HY 7388   6.307   0.296   7.045  1.1941  0.7319  0.2739
   80SLPC   O31 7389   6.366   0.289   6.841  0.7268  0.6332 -0.2930
   80SLPC   C31 7390   6.488   0.327   6.826 -0.8133  0.6421 -0.2296
   80SLPC   O32 7391   6.576   0.329   6.914  0.3232  0.2283  0.7634
   80SLPC   C32 7392   6.509   0.377   6.683  0.1535  0.7162 -0.7433
   80SLPC   H2X 7393   6.596   0.447   6.682  1.9263 -1.3799 -0.3492
   80SLPC   H2Y 7394   6.415   0.426   6.651 -0.4771 -0.2890 -0.4558
   80SLPC   C23 7395   6.265  -0.182   6.571  0.6592  0.4495 -0.1037
   80SLPC   H3R 7396   6.159  -0.166   6.540  0.3366 -1.7489 -0.2569
   80SLPC   H3S 7397   6.277  -0.289   6.545  2.0110  0.5665 -0.0555
   80SLPC   C24 7398   6.363  -0.094   6.501 -0.4068  0.9965 -0.4266
   80SLPC   H4R 7399   6.468  -0.125   6.518 -1.3027 -2.2277 -0.2051
   80SLPC   H4S 7400   6.345  -0.001   6.560 -1.6848  1.1708 -1.0621
   80SLPC   C25 7401   6.331  -0.065   6.357 -0.2212 -0.4171  0.3371
   80SLPC   H5R 7402   6.406   0.013   6.330 -0.8077  1.8036  4.3050
   80SLPC   H5S 7403   6.229  -0.022   6.365 -0.2677 -0.3916 -0.3125
   80SLPC   C26 7404   6.327  -0.187   6.265  0.2969  0.5211  0.6211
   80SLPC   H6R 7405   6.263  -0.267   6.308 -0.5536  1.2323  0.6994
   80SLPC   H6S 7406   6.433  -0.217   6.247 -0.5868 -1.7658 -1.3985
   80SLPC   C27 7407   6.269  -0.149   6.126 -0.4093 -0.7230  0.2494
   80SLPC   H7R 7408   6.324  -0.057   6.095 -0.2310 -1.2752 -1.1038
   80SLPC   H7S 7409   6.168  -0.112   6.152  0.5755  1.5130  1.1969
   80SLPC   C28 7410   6.249  -0.249   6.014 -0.3208  0.2845  0.1346
   80SLPC   H8R 7411   6.337  -0.313   5.993  0.5742  1.1043  1.2785
   80SLPC   H8S 7412   6.226  -0.194   5.921 -2.3105 -0.4785  0.1210
   80SLPC   C29 7413   6.132  -0.334   6.049  0.1374  0.5153 -0.5411
   80SLPC   H9R 7414   6.112  -0.358   6.155 -1.3115  4.5323  0.2485
   80SLPC  C210 7415   6.050  -0.386   5.955 -0.8731  0.7139  0.2822
   80SLPC  H10R 7416   5.973  -0.460   5.982  0.8230 -1.1945  0.1658
   80SLPC  C211 7417   6.058  -0.363   5.800 -0.2886 -0.3616 -0.9220
   80SLPC  H11R 7418   6.159  -0.404   5.778 -0.7319 -2.4062  0.5462
   80SLPC  H11S 7419   6.057  -0.255   5.772  0.3529 -0.4331 -1.2607
   80SLPC  C212 7420   5.943  -0.437   5.736  0.1994 -0.3489  0.4999
   80SLPC  H12R 7421   5.851  -0.428   5.796  0.3454  0.0592  0.6687
   80SLPC  C213 7422   5.941  -0.526   5.632 -0.3199 -0.0376  0.0696
   80SLPC  H13R 7423   5.846  -0.568   5.595 -0.0841  0.5972 -1.3238
   80SLPC  C214 7424   6.062  -0.547   5.541  0.0806 -0.0014  0.5024
   80SLPC  H14R 7425   6.099  -0.651   5.540 -3.5974 -1.4346  0.0914
   80SLPC  H14S 7426   6.141  -0.472   5.564  0.9443 -0.9262  0.6300
   80SLPC  C215 7427   6.037  -0.521   5.393  0.3714  0.4786  0.6611
   80SLPC  H15R 7428   5.994  -0.420   5.374  2.6624  1.5155  0.6408
   80SLPC  H15S 7429   5.968  -0.596   5.349 -1.1232  0.9494  2.1006
   80SLPC  C216 7430   6.168  -0.518   5.316 -0.3975 -0.2391  0.0919
   80SLPC  H16R 7431   6.218  -0.617   5.316  1.1197  0.5065  0.4396
   80SLPC  H16S 7432   6.242  -0.451   5.365 -1.2547 -0.4142  1.7028
   80SLPC  C217 7433   6.154  -0.462   5.176 -0.0353 -0.2174  0.3580
   80SLPC  H17R 7434   6.127  -0.354   5.174 -1.2842 -0.5260 -1.0767
   80SLPC  H17S 7435   6.069  -0.517   5.129 -0.3458  0.9282 -0.4730
   80SLPC  C218 7436   6.277  -0.479   5.080 -0.2242  0.0320  0.2842
   80SLPC  H18R 7437   6.368  -0.427   5.117  0.6009 -0.4537 -0.9990
   80SLPC  H18S 7438   6.259  -0.442   4.977  1.4698 -1.8598 -0.7710
   80SLPC  H18T 7439   6.285  -0.590   5.075 -0.1746 -0.0548  1.7403
   80SLPC   C33 7440   6.541   0.250   6.597 -0.1082  0.1883  0.3798
   80SLPC   H3X 7441   6.448   0.222   6.545 -0.6637  0.9351  0.9436
   80SLPC   H3Y 7442   6.566   0.161   6.659 -2.5513 -1.1785 -0.4738
   80SLPC   C34 7443   6.649   0.263   6.487 -0.5147  0.4642 -0.4942
   80SLPC   H4X 7444   6.638   0.174   6.421 -1.2318  0.1934 -0.0217
   80SLPC   H4Y 7445   6.753   0.249   6.523 -0.2634  1.9470 -0.6074
   80SLPC   C35 7446   6.635   0.391   6.410 -0.4096 -0.0871  0.3725
   80SLPC   H5X 7447   6.737   0.413   6.373  0.5344  0.2774  2.9956
   80SLPC   H5Y 7448   6.603   0.480   6.467  1.7235  1.0562 -0.1323
   80SLPC   C36 7449   6.538   0.369   6.289 -0.7754 -0.1049  0.1874
   80SLPC   H6X 7450   6.524   0.471   6.247  0.6697 -0.8180 -2.2368
   80SLPC   H6Y 7451   6.437   0.332   6.317 -1.2081  1.3643  0.6331
   80SLPC   C37 7452   6.592   0.288   6.171 -0.5372 -0.0690  0.1368
   80SLPC   H7X 7453   6.598   0.178   6.188  0.9651  0.3413  2.8187
   80SLPC   H7Y 7454   6.693   0.324   6.144 -0.3824 -1.1703 -0.8577
   80SLPC   C38 7455   6.498   0.299   6.057  0.4103 -0.5179 -0.0382
   80SLPC   H8X 7456   6.486   0.405   6.026  0.1394 -0.2144  1.0643
   80SLPC   H8Y 7457   6.400   0.264   6.096 -0.5225  2.2076  0.2593
   80SLPC   C39 7458   6.535   0.211   5.937  0.0326 -0.2437 -0.2907
   80SLPC   H9X 7459   6.545   0.106   5.971 -2.1423 -0.5174 -0.3836
   80SLPC   H9Y 7460   6.635   0.245   5.902 -0.6760  0.5634 -1.6138
   80SLPC  C310 7461   6.432   0.207   5.821 -0.3617  0.0160  0.1233
   80SLPC  H10X 7462   6.486   0.166   5.733  0.2266  0.4493  0.2813
   80SLPC  H10Y 7463   6.401   0.311   5.796  3.9605  0.9865 -2.2655
   80SLPC  C311 7464   6.311   0.112   5.849 -0.1142 -0.6039 -0.5915
   80SLPC  H11X 7465   6.344   0.012   5.885 -0.5403 -1.1653 -1.7273
   80SLPC  H11Y 7466   6.276   0.100   5.745  0.0900 -0.2528 -0.7008
   80SLPC  C312 7467   6.197   0.171   5.930 -0.4414  0.1901 -0.0579
   80SLPC  H12X 7468   6.187   0.281   5.913  0.8312 -0.0368 -2.8020
   80SLPC  H12Y 7469   6.223   0.157   6.037 -1.5127  1.2259  0.3568
   80SLPC  C313 7470   6.057   0.102   5.901 -0.0030 -0.6028  0.4746
   80SLPC  H13X 7471   6.002   0.126   5.995  0.6714 -1.0931  1.0082
   80SLPC  H13Y 7472   6.071  -0.008   5.894  0.6677 -0.4029 -2.4992
   80SLPC  C314 7473   5.999   0.160   5.775  0.1016 -0.3888  0.2944
   80SLPC  H14X 7474   6.082   0.145   5.703 -0.6276 -2.4037 -0.1868
   80SLPC  H14Y 7475   5.967   0.266   5.778  1.4631  0.0715 -0.6726
   80SLPC  C315 7476   5.888   0.073   5.733  0.0427 -0.0327  0.3159
   80SLPC  H15X 7477   5.796   0.088   5.794 -1.2728 -0.3412 -1.5201
   80SLPC  H15Y 7478   5.924  -0.031   5.740  1.6385  0.5636  1.6025
   80SLPC  C316 7479   5.852   0.115   5.578  0.6891  0.3588 -0.1948
   80SLPC  H16X 7480   5.854   0.224   5.560  0.6613  0.7570  1.9084
   80SLPC  H16Y 7481   5.757   0.065   5.550  1.6450 -0.4990 -2.0782
   80SLPC  C317 7482   5.944   0.041   5.475 -0.6425  0.7339  0.6233
   80SLPC  H17X 7483   5.949  -0.068   5.497 -0.1794  0.2814 -1.5085
   80SLPC  H17Y 7484   6.050   0.065   5.496 -0.5753  1.1605 -0.1601
   80SLPC  C318 7485   5.918   0.056   5.324  0.0028  0.7293 -0.1955
   80SLPC  H18X 7486   5.959   0.153   5.289  2.7902 -0.4352 -0.4242
   80SLPC  H18Y 7487   5.812   0.035   5.295  0.3489 -0.9954 -0.3194
   80SLPC  H18Z 7488   5.979  -0.021   5.272  0.2510 -1.8474  3.5195
   81SLPC     N 7489   4.390   0.788   2.584  0.5149  0.4352 -0.2724
   81SLPC   C13 7490   4.397   0.926   2.545  0.5767  0.0498  0.0273
   81SLPC  H13A 7491   4.363   0.943   2.444  0.3744 -1.4556 -0.1732
   81SLPC  H13B 7492   4.336   0.995   2.601  0.3280 -0.2272  0.0979
   81SLPC  H13C 7493   4.502   0.953   2.549  0.9142 -1.2382  0.5426
   81SLPC   C14 7494   4.450   0.711   2.472  0.4541 -0.1977 -0.5261
   81SLPC  H14A 7495   4.389   0.700   2.384  1.1621 -0.0910 -1.0372
   81SLPC  H14B 7496   4.548   0.752   2.452  1.3289 -2.5863 -1.5911
   81SLPC  H14C 7497   4.470   0.609   2.503 -0.2135 -0.4460 -0.8858
   81SLPC   C15 7498   4.246   0.736   2.601 -0.1038  0.1564 -0.3605
   81SLPC  H15A 7499   4.232   0.629   2.600 -2.8127  0.3656  1.8742
   81SLPC  H15B 7500   4.207   0.766   2.697  2.0309  1.6509  0.1178
   81SLPC  H15C 7501   4.192   0.792   2.527  1.0134  4.2371  1.6248
   81SLPC   C12 7502   4.462   0.760   2.715  0.3448  0.0386 -0.0769
   81SLPC  H12A 7503   4.430   0.832   2.789  1.5407 -0.0935  0.6123
   81SLPC  H12B 7504   4.566   0.790   2.711  0.1403  0.7240 -0.5665
   81SLPC   C11 7505   4.454   0.616   2.778 -0.3338  1.0085  0.0213
   81SLPC  H11A 7506   4.347   0.593   2.796  0.3955 -3.0693 -0.0250
   81SLPC  H11B 7507   4.511   0.622   2.874  0.4936  0.0875 -0.3912
   81SLPC     P 7508   4.677   0.488   2.706 -0.2876 -0.2927  0.3888
   81SLPC   O13 7509   4.703   0.354   2.653 -1.0866  0.9246  0.1525
   81SLPC   O14 7510   4.754   0.602   2.655  0.7539 -0.1653  0.3197
   81SLPC   O12 7511   4.518   0.515   2.702  0.0374  0.6802 -0.4338
   81SLPC   O11 7512   4.701   0.488   2.862  0.1416  0.0622 -0.2075
   81SLPC    C1 7513   4.663   0.375   2.949 -0.0627 -0.0869 -0.1358
   81SLPC    HA 7514   4.555   0.352   2.935 -1.4716  4.3436  1.5233
   81SLPC    HB 7515   4.715   0.287   2.908 -0.6465 -0.2652 -0.5152
   81SLPC    C2 7516   4.687   0.383   3.098  0.3763 -0.3612 -0.3390
   81SLPC    HS 7517   4.617   0.314   3.150  0.1658 -0.2352 -0.4533
   81SLPC   O21 7518   4.662   0.520   3.150  0.4621  0.0807  0.0559
   81SLPC   C21 7519   4.527   0.537   3.170 -0.2249 -0.2372  0.1299
   81SLPC   O22 7520   4.437   0.459   3.152 -0.1311 -0.0469 -0.5290
   81SLPC   C22 7521   4.526   0.670   3.240  0.4706  0.5663 -0.1181
   81SLPC   H2R 7522   4.627   0.714   3.254  0.2740  0.8297  0.5531
   81SLPC   H2S 7523   4.466   0.735   3.173 -1.9281  1.6864  2.8587
   81SLPC    C3 7524   4.834   0.346   3.126  0.1724 -0.4826  0.4476
   81SLPC    HX 7525   4.895   0.434   3.094  0.7522 -1.6829 -1.9686
   81SLPC    HY 7526   4.874   0.266   3.060 -4.0525 -0.7088 -2.1280
   81SLPC   O31 7527   4.858   0.287   3.261 -0.4590  0.0894  0.6623
   81SLPC   C31 7528   4.862   0.385   3.352  0.0253 -0.6820 -0.3529
   81SLPC   O32 7529   4.868   0.504   3.328  0.3721 -0.0173 -0.1689
   81SLPC   C32 7530   4.874   0.322   3.490 -0.3960  0.2858  0.1199
   81SLPC   H2X 7531   4.985   0.313   3.502 -0.3259 -1.2373 -1.2511
   81SLPC   H2Y 7532   4.840   0.216   3.482  1.7348 -0.3612 -1.4822
   81SLPC   C23 7533   4.444   0.670   3.375  0.3521  0.8005 -0.1960
   81SLPC   H3R 7534   4.355   0.606   3.393  1.2875 -0.1117  1.4622
   81SLPC   H3S 7535   4.399   0.772   3.383 -0.3747  0.4805 -0.1407
   81SLPC   C24 7536   4.549   0.659   3.492  0.2217  0.2142  0.4732
   81SLPC   H4R 7537   4.617   0.747   3.486 -0.8100  1.0811  1.0838
   81SLPC   H4S 7538   4.608   0.566   3.478 -2.5416 -1.2484 -3.1142
   81SLPC   C25 7539   4.477   0.647   3.626 -0.1156 -0.4102 -0.3996
   81SLPC   H5R 7540   4.427   0.548   3.624 -0.2341 -0.3834  0.7005
   81SLPC   H5S 7541   4.398   0.724   3.634 -0.5800 -1.1248  4.0959
   81SLPC   C26 7542   4.560   0.682   3.749 -0.5216 -0.5712  0.2591
   81SLPC   H6R 7543   4.603   0.783   3.728 -0.6255  0.0137  2.6157
   81SLPC   H6S 7544   4.652   0.620   3.747 -0.0929  0.0629 -0.8718
   81SLPC   C27 7545   4.495   0.681   3.884  0.0085 -0.0177  0.3228
   81SLPC   H7R 7546   4.579   0.695   3.955 -0.3961 -0.1314  0.8352
   81SLPC   H7S 7547   4.451   0.580   3.902 -0.5799 -0.1709 -1.7452
   81SLPC   C28 7548   4.375   0.777   3.903  0.4259 -0.1962  0.3156
   81SLPC   H8R 7549   4.336   0.757   4.005  1.3781 -0.5271  0.6213
   81SLPC   H8S 7550   4.293   0.756   3.830  1.9985 -1.9936 -1.0320
   81SLPC   C29 7551   4.434   0.915   3.904 -0.5298  0.1945 -0.6252
   81SLPC   H9R 7552   4.470   0.949   3.806 -2.2579 -1.3318 -1.8524
   81SLPC  C210 7553   4.439   1.005   4.000 -0.0057 -0.2659  0.5111
   81SLPC  H10R 7554   4.501   1.094   3.982 -3.1239  2.1652  0.7600
   81SLPC  C211 7555   4.378   0.989   4.138  0.3870 -0.0944  0.3457
   81SLPC  H11R 7556   4.461   0.980   4.211  1.0819 -0.5874 -0.4993
   81SLPC  H11S 7557   4.323   0.894   4.157 -0.5568  0.4799  0.5463
   81SLPC  C212 7558   4.280   1.102   4.172 -0.3613  0.9650  0.1535
   81SLPC  H12R 7559   4.181   1.100   4.123  1.0723  3.7840 -3.2585
   81SLPC  C213 7560   4.316   1.212   4.231 -0.3392 -0.7266  0.7621
   81SLPC  H13R 7561   4.246   1.297   4.243  1.7709  1.4648 -1.5192
   81SLPC  C214 7562   4.454   1.230   4.288 -0.1709 -0.5060 -0.0154
   81SLPC  H14R 7563   4.476   1.337   4.307  1.6846 -0.7319 -0.6119
   81SLPC  H14S 7564   4.523   1.194   4.208 -0.8882  0.1506 -0.9462
   81SLPC  C215 7565   4.478   1.171   4.429 -0.4324  0.2487  0.1115
   81SLPC  H15R 7566   4.477   1.061   4.438  1.8411  0.0248 -1.5191
   81SLPC  H15S 7567   4.387   1.205   4.484 -0.6987 -0.8778  0.3960
   81SLPC  C216 7568   4.594   1.223   4.506  0.5718 -0.0910 -0.2811
   81SLPC  H16R 7569   4.632   1.322   4.473 -1.4451  1.2508  1.1650
   81SLPC  H16S 7570   4.671   1.144   4.491  0.0803 -0.8816  1.1896
   81SLPC  C217 7571   4.577   1.223   4.661  0.0498  0.5308  0.5600
   81SLPC  H17R 7572   4.647   1.153   4.711  1.8155 -0.4240 -2.9448
   81SLPC  H17S 7573   4.473   1.195   4.689 -0.7750  1.0569 -1.7930
   81SLPC  C218 7574   4.605   1.359   4.732 -0.2408  0.0976 -0.2270
   81SLPC  H18R 7575   4.563   1.347   4.834  1.8572 -1.5345  0.5062
   81SLPC  H18S 7576   4.564   1.447   4.679  0.1703  2.0867  2.5569
   81SLPC  H18T 7577   4.716   1.363   4.737 -0.2728  2.7737 -0.4361
   81SLPC   C33 7578   4.823   0.407   3.609 -0.1849 -0.4994 -0.8270
   81SLPC   H3X 7579   4.715   0.422   3.592 -0.3056  0.2659  0.4670
   81SLPC   H3Y 7580   4.874   0.505   3.603  1.4018 -1.2781 -0.8777
   81SLPC   C34 7581   4.845   0.336   3.745  0.1305 -0.2190  0.3378
   81SLPC   H4X 7582   4.949   0.296   3.743  0.4508  0.3803  2.4353
   81SLPC   H4Y 7583   4.768   0.256   3.740 -1.5845  1.4683 -1.9284
   81SLPC   C35 7584   4.823   0.427   3.873 -0.5261  0.9315  0.6052
   81SLPC   H5X 7585   4.719   0.433   3.911 -0.3127 -2.2178  1.9698
   81SLPC   H5Y 7586   4.866   0.529   3.860  0.8252  0.4186  0.9739
   81SLPC   C36 7587   4.894   0.351   3.987  0.3560 -0.6551 -1.2881
   81SLPC   H6X 7588   5.005   0.348   3.985  0.4351 -0.2887  0.6010
   81SLPC   H6Y 7589   4.859   0.246   3.988  0.8440 -0.8456 -2.6558
   81SLPC   C37 7590   4.862   0.414   4.129 -0.2051  0.2913 -0.4072
   81SLPC   H7X 7591   4.752   0.401   4.140 -0.4125  0.7175 -1.8279
   81SLPC   H7Y 7592   4.879   0.523   4.138 -0.5632  0.3373 -0.2617
   81SLPC   C38 7593   4.952   0.357   4.235 -0.2682  0.3178 -0.0762
   81SLPC   H8X 7594   5.057   0.379   4.207 -0.3667 -1.1654 -1.8860
   81SLPC   H8Y 7595   4.938   0.247   4.239 -1.4131  0.4695  0.4175
   81SLPC   C39 7596   4.936   0.413   4.383  0.9869  0.4905 -0.2699
   81SLPC   H9X 7597   4.835   0.375   4.411  1.4422 -0.3116  0.3076
   81SLPC   H9Y 7598   4.941   0.524   4.393  0.7506  0.4637  0.1989
   81SLPC  C310 7599   5.045   0.365   4.479  0.1426  0.3024 -0.3975
   81SLPC  H10X 7600   5.145   0.409   4.457  0.4418  0.0132  0.3518
   81SLPC  H10Y 7601   5.065   0.258   4.460  0.1014  0.4893 -1.5522
   81SLPC  C311 7602   5.022   0.403   4.626  0.3007  0.4240  0.7605
   81SLPC  H11X 7603   4.936   0.348   4.670  0.1942 -1.1233 -1.2228
   81SLPC  H11Y 7604   4.997   0.511   4.624 -0.2515  0.2987  0.6136
   81SLPC  C312 7605   5.142   0.379   4.715  0.2319 -0.6222  0.7868
   81SLPC  H12X 7606   5.116   0.423   4.814  0.4615  1.0819  0.1099
   81SLPC  H12Y 7607   5.225   0.427   4.660 -1.1075 -1.0193 -1.7271
   81SLPC  C313 7608   5.169   0.229   4.735 -0.3670  0.1289  0.2009
   81SLPC  H13X 7609   5.175   0.180   4.636  0.3250 -2.1406  1.2847
   81SLPC  H13Y 7610   5.090   0.186   4.799  0.3527 -1.3423  0.1410
   81SLPC  C314 7611   5.296   0.196   4.825  0.0871 -0.3509  0.2894
   81SLPC  H14X 7612   5.285   0.108   4.892 -2.2869 -0.8657 -0.6608
   81SLPC  H14Y 7613   5.297   0.287   4.890 -0.9862 -0.9412  1.1800
   81SLPC  C315 7614   5.418   0.165   4.739  0.3073  0.0820  1.3563
   81SLPC  H15X 7615   5.461   0.264   4.713 -0.7474  0.4777  1.0769
   81SLPC  H15Y 7616   5.381   0.110   4.650  0.5861  0.2815  1.1178
   81SLPC  C316 7617   5.517   0.076   4.818  0.0819  0.2096 -0.0899
   81SLPC  H16X 7618   5.453  -0.004   4.860  1.3605 -1.6614 -1.5159
   81SLPC  H16Y 7619   5.562   0.139   4.897 -0.5254 -1.3794  1.5965
   81SLPC  C317 7620   5.627   0.004   4.739  0.3315 -1.0101 -0.1237
   81SLPC  H17X 7621   5.683   0.073   4.673  0.6503 -1.2652 -0.1252
   81SLPC  H17Y 7622   5.569  -0.057   4.666 -0.3391  2.6647 -2.9584
   81SLPC  C318 7623   5.732  -0.065   4.821 -0.4256 -0.1370 -0.1373
   81SLPC  H18X 7624   5.804  -0.122   4.758  0.7449  0.5523  0.5304
   81SLPC  H18Y 7625   5.691  -0.142   4.889 -2.4933  0.8022 -0.2514
   81SLPC  H18Z 7626   5.789   0.014   4.876 -0.1865 -2.5415  3.3848
   82SLPC     N 7627   2.205   0.430   2.366 -0.2090 -0.2809  0.4053
   82SLPC   C13 7628   2.275   0.344   2.269  0.0407 -0.2109  0.8075
   82SLPC  H13A 7629   2.366   0.301   2.307  0.2154 -0.0029  0.6273
   82SLPC  H13B 7630   2.217   0.255   2.250  0.3042 -0.3182  0.5048
   82SLPC  H13C 7631   2.304   0.385   2.173  1.1826 -2.9193 -0.0930
   82SLPC   C14 7632   2.184   0.369   2.497  0.0110 -0.4500 -0.5295
   82SLPC  H14A 7633   2.119   0.283   2.500 -0.8617  0.2229  2.0159
   82SLPC  H14B 7634   2.272   0.335   2.549  1.1560  2.8434 -0.0283
   82SLPC  H14C 7635   2.135   0.437   2.565 -1.9820 -1.2586 -1.1103
   82SLPC   C15 7636   2.069   0.455   2.310  0.5032 -0.8019  0.6224
   82SLPC  H15A 7637   2.084   0.517   2.224 -0.4059 -0.6380  0.5829
   82SLPC  H15B 7638   2.015   0.366   2.283  0.4113 -0.8503  0.9632
   82SLPC  H15C 7639   2.007   0.519   2.371  1.9958  3.1843 -1.6835
   82SLPC   C12 7640   2.273   0.561   2.378  0.5622 -0.1545 -0.1552
   82SLPC  H12A 7641   2.235   0.620   2.459  1.6310  1.2633 -0.6594
   82SLPC  H12B 7642   2.265   0.622   2.290 -1.5891 -0.9176 -0.5514
   82SLPC   C11 7643   2.426   0.555   2.427  0.0001  0.4583 -0.8732
   82SLPC  H11A 7644   2.469   0.656   2.411 -1.3945  1.1934 -0.1866
   82SLPC  H11B 7645   2.480   0.482   2.364  0.8341 -0.5941  0.9861
   82SLPC     P 7646   2.578   0.497   2.618 -0.4988 -0.0488  0.1010
   82SLPC   O13 7647   2.568   0.502   2.767  0.3559 -0.1431 -0.2628
   82SLPC   O14 7648   2.639   0.380   2.551  0.3319 -0.8150 -0.0193
   82SLPC   O12 7649   2.428   0.514   2.559 -0.3819  0.2421 -0.0636
   82SLPC   O11 7650   2.663   0.615   2.561 -0.2510  0.1699 -0.1299
   82SLPC    C1 7651   2.745   0.692   2.646 -0.8006 -0.9352  0.7859
   82SLPC    HA 7652   2.782   0.638   2.736  1.1971  1.2165  1.3510
   82SLPC    HB 7653   2.840   0.711   2.591  0.2091  1.4554  3.1216
   82SLPC    C2 7654   2.678   0.829   2.682 -0.0714 -0.5797  0.5221
   82SLPC    HS 7655   2.754   0.892   2.733 -0.6690  0.9903 -0.4411
   82SLPC   O21 7656   2.566   0.806   2.771  0.7288 -0.5169 -0.0270
   82SLPC   C21 7657   2.591   0.759   2.893 -0.2245 -0.4368  0.5977
   82SLPC   O22 7658   2.701   0.732   2.935  0.2655 -0.5144 -0.0893
   82SLPC   C22 7659   2.456   0.742   2.978 -0.3690  1.0505  0.6732
   82SLPC   H2R 7660   2.393   0.833   2.965 -1.6293  0.3078  1.3969
   82SLPC   H2S 7661   2.410   0.652   2.930  1.5572  1.0487 -1.3452
   82SLPC    C3 7662   2.646   0.918   2.558 -0.1726  0.0494  0.4494
   82SLPC    HX 7663   2.585   0.857   2.488  1.8450  0.6754 -1.9590
   82SLPC    HY 7664   2.742   0.945   2.509 -0.6437  2.0863  0.5278
   82SLPC   O31 7665   2.590   1.043   2.602 -0.0432 -0.2572  0.2530
   82SLPC   C31 7666   2.456   1.044   2.615  0.3117 -0.3026 -0.4658
   82SLPC   O32 7667   2.379   0.965   2.567  0.4333 -0.1264 -0.2596
   82SLPC   C32 7668   2.415   1.158   2.710 -0.0009  0.0004 -0.1974
   82SLPC   H2X 7669   2.305   1.167   2.705 -0.2216 -2.1560 -0.3561
   82SLPC   H2Y 7670   2.471   1.249   2.680 -0.8506  1.6775  2.8996
   82SLPC   C23 7671   2.468   0.693   3.128  0.0160 -0.3233 -0.0305
   82SLPC   H3R 7672   2.537   0.606   3.136 -1.1052 -1.6414 -3.2176
   82SLPC   H3S 7673   2.377   0.648   3.172  1.3120 -2.6033  0.4551
   82SLPC   C24 7674   2.505   0.814   3.220  0.2297  1.1700  0.4050
   82SLPC   H4R 7675   2.464   0.907   3.174 -0.0470  1.0199  0.3468
   82SLPC   H4S 7676   2.616   0.819   3.222  0.5736 -2.8266 -1.1124
   82SLPC   C25 7677   2.458   0.801   3.366  0.1869  0.1763 -0.6959
   82SLPC   H5R 7678   2.470   0.700   3.411  0.6536 -0.8205 -2.9390
   82SLPC   H5S 7679   2.350   0.829   3.375 -0.0553 -1.2657  1.8320
   82SLPC   C26 7680   2.524   0.899   3.467  0.5783  0.1031  0.3434
   82SLPC   H6R 7681   2.524   1.001   3.423 -2.3245  0.7754  1.7006
   82SLPC   H6S 7682   2.631   0.871   3.479  0.6429  0.4558  0.5986
   82SLPC   C27 7683   2.465   0.901   3.613 -0.2482  1.0980  0.8260
   82SLPC   H7R 7684   2.470   0.798   3.655 -1.6748  0.9975  0.7839
   82SLPC   H7S 7685   2.358   0.927   3.600 -1.3393 -2.5559  1.1946
   82SLPC   C28 7686   2.533   0.995   3.708  0.8885  0.1983 -0.0526
   82SLPC   H8R 7687   2.444   1.038   3.757 -0.3130 -1.5930 -0.5749
   82SLPC   H8S 7688   2.580   1.082   3.658  1.4912  0.0407  0.2284
   82SLPC   C29 7689   2.629   0.927   3.809  0.4046  0.1283  0.5412
   82SLPC   H9R 7690   2.731   0.933   3.767  0.7530  1.1266  1.4597
   82SLPC  C210 7691   2.602   0.836   3.904 -0.1606 -0.5729  0.9310
   82SLPC  H10R 7692   2.682   0.806   3.973 -0.1885  0.2370  1.3261
   82SLPC  C211 7693   2.461   0.805   3.954  0.1518  0.0245  0.0461
   82SLPC  H11R 7694   2.419   0.726   3.888  2.3342 -0.3173 -0.9956
   82SLPC  H11S 7695   2.391   0.889   3.935 -0.2112 -0.7160 -2.1261
   82SLPC  C212 7696   2.461   0.761   4.098  0.8364 -1.4605 -0.8408
   82SLPC  H12R 7697   2.522   0.670   4.114 -0.2030 -1.8763  1.0328
   82SLPC  C213 7698   2.368   0.798   4.188  0.5354 -0.6580  0.3234
   82SLPC  H13R 7699   2.364   0.764   4.292 -0.6576 -0.2669  0.4268
   82SLPC  C214 7700   2.266   0.913   4.160  0.2626  0.0662 -0.6725
   82SLPC  H14R 7701   2.167   0.875   4.128 -0.6231  0.7573  1.1163
   82SLPC  H14S 7702   2.302   0.981   4.080 -0.3022  0.6984 -0.4006
   82SLPC  C215 7703   2.262   1.007   4.290  0.4566  0.9010  0.3988
   82SLPC  H15R 7704   2.212   1.099   4.254  0.0430  0.5704  0.1253
   82SLPC  H15S 7705   2.364   1.034   4.324 -0.0891  1.1978  1.8718
   82SLPC  C216 7706   2.184   0.954   4.410 -0.2752  0.7279  0.1475
   82SLPC  H16R 7707   2.239   0.864   4.444  0.0514  0.2000 -1.6442
   82SLPC  H16S 7708   2.087   0.914   4.372  0.1069 -0.9951  0.8687
   82SLPC  C217 7709   2.156   1.052   4.519  0.2250 -0.0331  0.1371
   82SLPC  H17R 7710   2.076   1.122   4.487  0.1074  0.7305  1.9377
   82SLPC  H17S 7711   2.245   1.119   4.525  0.7348 -0.6925  0.1245
   82SLPC  C218 7712   2.117   0.982   4.651 -0.1620 -0.0801  0.1867
   82SLPC  H18R 7713   2.076   1.052   4.727 -0.0663  0.7090 -0.4728
   82SLPC  H18S 7714   2.213   0.944   4.693  0.7334  3.3904  1.6445
   82SLPC  H18T 7715   2.045   0.899   4.638  2.5598 -2.4940 -0.3783
   82SLPC   C33 7716   2.443   1.124   2.856 -0.4398 -0.3941  0.6198
   82SLPC   H3X 7717   2.549   1.092   2.867  0.3493  2.0703  0.8104
   82SLPC   H3Y 7718   2.379   1.042   2.895 -0.1601 -1.8549 -1.7236
   82SLPC   C34 7719   2.433   1.249   2.945 -0.1201  0.0498 -0.0074
   82SLPC   H4X 7720   2.324   1.269   2.955 -0.5963 -1.5515 -1.4650
   82SLPC   H4Y 7721   2.458   1.338   2.883  0.1208  0.5436  0.7760
   82SLPC   C35 7722   2.512   1.235   3.078  0.2966 -0.3177  0.1424
   82SLPC   H5X 7723   2.620   1.230   3.054  0.1970 -0.1241 -0.3480
   82SLPC   H5Y 7724   2.493   1.138   3.128  1.2699 -0.0251  1.1264
   82SLPC   C36 7725   2.460   1.344   3.179  0.3916  0.5079  0.1159
   82SLPC   H6X 7726   2.423   1.437   3.132  0.9034  0.7792  0.2439
   82SLPC   H6Y 7727   2.551   1.381   3.231 -0.4722  1.7571  0.7637
   82SLPC   C37 7728   2.360   1.277   3.278  0.2960 -0.2806 -0.5447
   82SLPC   H7X 7729   2.405   1.194   3.337  1.8446  1.8744  1.4987
   82SLPC   H7Y 7730   2.283   1.241   3.207 -2.2378  2.3847  0.6687
   82SLPC   C38 7731   2.300   1.379   3.374 -0.0377  0.2829  0.1657
   82SLPC   H8X 7732   2.213   1.420   3.319  0.1977 -2.2542 -2.3322
   82SLPC   H8Y 7733   2.378   1.458   3.386 -1.0011  1.7015 -2.0624
   82SLPC   C39 7734   2.269   1.314   3.512 -0.5733 -0.0583 -0.1659
   82SLPC   H9X 7735   2.351   1.241   3.532  0.5430  1.4475  0.9254
   82SLPC   H9Y 7736   2.182   1.245   3.505  1.0059 -2.2453  0.4029
   82SLPC  C310 7737   2.243   1.418   3.623  0.1872 -0.2044  0.1186
   82SLPC  H10X 7738   2.141   1.460   3.620 -0.0983 -0.8607  0.3211
   82SLPC  H10Y 7739   2.320   1.497   3.628 -0.5532  0.5314  0.0321
   82SLPC  C311 7740   2.249   1.344   3.760  0.4213  0.0535  0.1003
   82SLPC  H11X 7741   2.353   1.310   3.775  1.6736  2.1885 -2.8980
   82SLPC  H11Y 7742   2.180   1.257   3.755 -0.2450  0.5755  0.0728
   82SLPC  C312 7743   2.209   1.437   3.879  0.3932 -0.4719 -0.6995
   82SLPC  H12X 7744   2.099   1.444   3.890  0.6261  0.7305  1.6540
   82SLPC  H12Y 7745   2.239   1.539   3.846 -2.4536  0.2812 -1.2102
   82SLPC  C313 7746   2.268   1.396   4.015  0.0447  0.1791 -0.4407
   82SLPC  H13X 7747   2.378   1.411   4.010  0.0707 -0.2374 -4.0758
   82SLPC  H13Y 7748   2.241   1.294   4.051 -0.2743  0.4646  0.1326
   82SLPC  C314 7749   2.210   1.486   4.120 -0.8202  0.2540 -0.4922
   82SLPC  H14X 7750   2.101   1.478   4.104 -0.7258  0.1115 -1.0824
   82SLPC  H14Y 7751   2.234   1.594   4.118  1.6549 -0.2081  0.0844
   82SLPC  C315 7752   2.244   1.432   4.262 -0.1303  0.5359  0.1650
   82SLPC  H15X 7753   2.355   1.431   4.254 -0.1536 -0.1024 -0.1081
   82SLPC  H15Y 7754   2.210   1.327   4.274  0.6557  0.2686  0.0717
   82SLPC  C316 7755   2.184   1.531   4.366 -0.7287  0.7997  0.0447
   82SLPC  H16X 7756   2.079   1.553   4.337 -0.5862  1.5689  0.0737
   82SLPC  H16Y 7757   2.235   1.630   4.362  3.3512 -1.0044  1.9922
   82SLPC  C317 7758   2.194   1.470   4.511 -0.1246 -0.6754 -0.1685
   82SLPC  H17X 7759   2.162   1.363   4.512  1.5427 -1.2130 -0.4953
   82SLPC  H17Y 7760   2.127   1.533   4.572  0.1707 -0.2871 -0.2447
   82SLPC  C318 7761   2.339   1.460   4.561 -0.5092 -0.0476  0.3343
   82SLPC  H18X 7762   2.394   1.555   4.544  1.0730 -1.2937 -1.9868
   82SLPC  H18Y 7763   2.379   1.381   4.494 -1.9995 -0.8200  0.3091
   82SLPC  H18Z 7764   2.367   1.434   4.665  2.5580 -0.8841 -0.5859
   83SLPC     N 7765   5.816   1.740   2.676 -0.1463 -0.3065  0.2005
   83SLPC   C13 7766   5.830   1.593   2.644  0.1859 -0.1495 -1.2229
   83SLPC  H13A 7767   5.732   1.557   2.618 -1.0213  0.5316  1.8976
   83SLPC  H13B 7768   5.908   1.582   2.570  0.8555 -0.6695 -0.4661
   83SLPC  H13C 7769   5.855   1.540   2.735 -1.1380  2.8993  1.0821
   83SLPC   C14 7770   5.748   1.751   2.811  0.1325 -0.2117 -0.3966
   83SLPC  H14A 7771   5.685   1.666   2.834  1.0568 -0.6536  0.5880
   83SLPC  H14B 7772   5.827   1.745   2.884  1.4409 -2.8690 -1.8910
   83SLPC  H14C 7773   5.702   1.848   2.824  1.0345  0.4457 -1.8834
   83SLPC   C15 7774   5.721   1.792   2.575 -0.2321  0.5282 -0.6856
   83SLPC  H15A 7775   5.631   1.734   2.587 -0.2427  0.7870  0.5897
   83SLPC  H15B 7776   5.694   1.896   2.587  1.8040  1.2449 -1.7517
   83SLPC  H15C 7777   5.749   1.791   2.471  2.0791  3.4290 -0.2456
   83SLPC   C12 7778   5.935   1.816   2.667 -0.5140  0.3414 -0.0402
   83SLPC  H12A 7779   5.919   1.922   2.665  0.9770  0.5850 -0.2892
   83SLPC  H12B 7780   5.992   1.791   2.578 -3.6606 -3.8771 -1.2192
   83SLPC   C11 7781   6.038   1.784   2.777 -0.5579  0.2565  0.3889
   83SLPC  H11A 7782   6.138   1.819   2.742 -1.1870  0.2997 -1.4626
   83SLPC  H11B 7783   6.054   1.675   2.792 -1.5600  0.1368  0.6950
   83SLPC     P 7784   6.022   2.012   2.924 -0.3060  0.4138 -0.1453
   83SLPC   O13 7785   6.163   2.041   2.942 -0.3932 -0.1082 -0.0560
   83SLPC   O14 7786   5.952   2.085   2.821  0.6566  0.0108 -0.6368
   83SLPC   O12 7787   6.007   1.855   2.900 -0.2590 -0.1939 -0.1781
   83SLPC   O11 7788   5.959   2.025   3.069  0.0002  0.0891  0.1923
   83SLPC    C1 7789   5.825   2.005   3.098  0.6508 -0.2112  0.6280
   83SLPC    HA 7790   5.773   2.098   3.066  0.7287  0.3623  2.1230
   83SLPC    HB 7791   5.784   1.913   3.051 -0.3907 -0.0576  1.2052
   83SLPC    C2 7792   5.803   1.963   3.245 -0.1224  0.2870 -0.3222
   83SLPC    HS 7793   5.815   2.054   3.308 -0.8817  0.1131  0.0824
   83SLPC   O21 7794   5.896   1.852   3.275 -0.1324  0.1211  0.5513
   83SLPC   C21 7795   6.011   1.883   3.317 -0.4363  0.2201 -0.3352
   83SLPC   O22 7796   6.054   1.998   3.343 -0.2102  0.3847  0.9513
   83SLPC   C22 7797   6.076   1.755   3.379 -0.3393 -0.2908  0.1511
   83SLPC   H2R 7798   6.007   1.669   3.392  1.6405 -2.3093 -1.8603
   83SLPC   H2S 7799   6.149   1.729   3.300 -1.6699 -1.9538 -0.5746
   83SLPC    C3 7800   5.659   1.908   3.263 -0.3257 -0.0106  0.9859
   83SLPC    HX 7801   5.643   1.832   3.184 -1.4040  0.1216  1.0700
   83SLPC    HY 7802   5.598   2.000   3.249  1.5603  1.6183  2.7319
   83SLPC   O31 7803   5.645   1.855   3.391 -0.2411  0.1578  0.2978
   83SLPC   C31 7804   5.525   1.821   3.423  0.5329  0.2433 -0.7991
   83SLPC   O32 7805   5.428   1.834   3.352  0.4063 -0.0931  0.1469
   83SLPC   C32 7806   5.540   1.773   3.574 -0.4355 -0.2035 -0.7024
   83SLPC   H2X 7807   5.483   1.852   3.629  1.0994 -0.5218  1.4533
   83SLPC   H2Y 7808   5.643   1.786   3.614 -1.1130  1.0712  0.7335
   83SLPC   C23 7809   6.147   1.791   3.518  0.1465  0.1231  0.6426
   83SLPC   H3R 7810   6.062   1.816   3.585 -0.6804  1.0116 -0.7053
   83SLPC   H3S 7811   6.217   1.876   3.503  0.1194 -0.0392 -0.4579
   83SLPC   C24 7812   6.234   1.679   3.573  0.1126 -0.0716  0.4803
   83SLPC   H4R 7813   6.324   1.671   3.508 -1.3073 -2.3203 -1.3458
   83SLPC   H4S 7814   6.178   1.583   3.564 -2.9066  1.4947  1.3336
   83SLPC   C25 7815   6.272   1.688   3.724 -0.5633  0.2399 -0.2630
   83SLPC   H5R 7816   6.337   1.603   3.754 -0.1344  0.3836 -0.7615
   83SLPC   H5S 7817   6.183   1.670   3.787 -1.6329  0.4593 -1.6511
   83SLPC   C26 7818   6.346   1.818   3.771 -0.3308  0.4555  0.2427
   83SLPC   H6R 7819   6.361   1.803   3.880 -1.7067  1.3387  0.5714
   83SLPC   H6S 7820   6.288   1.908   3.742 -3.6798 -1.7708 -0.6022
   83SLPC   C27 7821   6.486   1.834   3.698  0.1088 -0.2435 -0.1008
   83SLPC   H7R 7822   6.459   1.826   3.590  0.1055  2.5865 -0.3848
   83SLPC   H7S 7823   6.551   1.756   3.743 -1.2727  0.4011  3.2925
   83SLPC   C28 7824   6.567   1.965   3.735 -0.8125  0.8221  0.1241
   83SLPC   H8R 7825   6.661   1.958   3.675 -1.8298  0.0414 -1.4480
   83SLPC   H8S 7826   6.588   1.945   3.843 -0.5325 -0.4113 -0.1369
   83SLPC   C29 7827   6.510   2.100   3.698 -0.0029  0.9027 -0.1165
   83SLPC   H9R 7828   6.475   2.094   3.594 -0.4735 -0.3066  0.0971
   83SLPC  C210 7829   6.472   2.195   3.781 -0.1401 -0.7169 -0.1687
   83SLPC  H10R 7830   6.454   2.296   3.740 -3.3646 -0.8333  0.7089
   83SLPC  C211 7831   6.506   2.199   3.933  0.9540 -0.6786  0.0305
   83SLPC  H11R 7832   6.507   2.303   3.973  0.1461 -1.5664  2.5647
   83SLPC  H11S 7833   6.608   2.171   3.965  1.7876  2.5853  0.6309
   83SLPC  C212 7834   6.396   2.121   4.004  0.0496  0.2785  0.1116
   83SLPC  H12R 7835   6.305   2.103   3.946  0.3193  0.9632 -0.5357
   83SLPC  C213 7836   6.402   2.070   4.130  0.6898  0.0332  0.3114
   83SLPC  H13R 7837   6.317   2.017   4.175  1.2212 -0.9115  0.2384
   83SLPC  C214 7838   6.521   2.086   4.223 -0.2636  0.3225 -0.6074
   83SLPC  H14R 7839   6.588   2.167   4.188  1.2988  0.4848  2.4577
   83SLPC  H14S 7840   6.575   1.989   4.222 -0.8920 -0.0525  0.2912
   83SLPC  C215 7841   6.466   2.120   4.360 -0.7239 -0.0795 -0.5901
   83SLPC  H15R 7842   6.383   2.053   4.389 -0.4676  1.2390  3.9316
   83SLPC  H15S 7843   6.430   2.224   4.369 -3.5447 -0.8977 -1.3909
   83SLPC  C216 7844   6.564   2.095   4.471 -0.9888  0.1529  0.5437
   83SLPC  H16R 7845   6.636   2.179   4.464  0.4789 -1.1815 -2.1353
   83SLPC  H16S 7846   6.617   2.001   4.443  0.0715  1.0593 -0.5762
   83SLPC  C217 7847   6.498   2.060   4.605 -0.2136 -0.6543  0.0500
   83SLPC  H17R 7848   6.412   2.124   4.635  0.9952 -0.1292  2.6887
   83SLPC  H17S 7849   6.574   2.059   4.686  0.1616  1.0355 -0.2458
   83SLPC  C218 7850   6.431   1.916   4.600  0.4905 -0.5239 -0.4681
   83SLPC  H18R 7851   6.338   1.913   4.539  0.6996  1.2079 -0.9225
   83SLPC  H18S 7852   6.407   1.885   4.704  0.3446  2.3597  0.4526
   83SLPC  H18T 7853   6.501   1.841   4.557 -0.3302 -0.4001 -2.0780
   83SLPC   C33 7854   5.491   1.638   3.622  0.0900  0.6551 -0.1012
   83SLPC   H3X 7855   5.554   1.561   3.571 -1.5019  0.8212 -2.4825
   83SLPC   H3Y 7856   5.386   1.624   3.587  0.4334 -0.4262 -0.7590
   83SLPC   C34 7857   5.484   1.618   3.776 -0.1169  0.4399  0.2304
   83SLPC   H4X 7858   5.586   1.619   3.819 -0.9814  2.1916  2.4806
   83SLPC   H4Y 7859   5.434   1.523   3.803 -0.2438 -0.7142 -3.6184
   83SLPC   C35 7860   5.407   1.730   3.861 -0.5049 -0.4061  0.5691
   83SLPC   H5X 7861   5.311   1.751   3.809  0.6200  1.7616 -0.8045
   83SLPC   H5Y 7862   5.473   1.820   3.857 -2.0640  0.7719  0.4262
   83SLPC   C36 7863   5.375   1.681   4.003  0.2577  0.6116  0.0553
   83SLPC   H6X 7864   5.296   1.603   3.996 -0.1863  0.7224  2.9026
   83SLPC   H6Y 7865   5.330   1.763   4.062  1.3042 -0.8376  3.0860
   83SLPC   C37 7866   5.495   1.624   4.075  0.2138 -0.0229 -0.3643
   83SLPC   H7X 7867   5.563   1.712   4.076  1.0992 -0.6256  2.7416
   83SLPC   H7Y 7868   5.534   1.531   4.027  1.9212  1.0345 -1.1260
   83SLPC   C38 7869   5.462   1.583   4.220 -0.2621 -0.0602  0.7577
   83SLPC   H8X 7870   5.389   1.499   4.226 -1.7383  1.0514 -0.5919
   83SLPC   H8Y 7871   5.403   1.661   4.273 -0.5687  0.5575 -0.4511
   83SLPC   C39 7872   5.583   1.547   4.307  0.0053  0.5484  0.3166
   83SLPC   H9X 7873   5.661   1.627   4.304 -1.6788  2.4235  2.7426
   83SLPC   H9Y 7874   5.638   1.459   4.265  0.9655  1.6836 -0.8832
   83SLPC  C310 7875   5.536   1.525   4.450 -0.2652  0.7599 -0.9772
   83SLPC  H10X 7876   5.600   1.455   4.508 -1.9111  0.5644  0.7055
   83SLPC  H10Y 7877   5.436   1.479   4.441  0.8608 -1.9229 -0.7580
   83SLPC  C311 7878   5.534   1.658   4.527 -0.5195  0.1282 -0.6507
   83SLPC  H11X 7879   5.461   1.723   4.474  2.1555  1.9744 -2.3458
   83SLPC  H11Y 7880   5.631   1.711   4.516  0.5386 -1.6345 -0.2376
   83SLPC  C312 7881   5.496   1.624   4.674  0.3245  0.2061 -0.2459
   83SLPC  H12X 7882   5.463   1.519   4.688  0.2180  0.4722  1.7597
   83SLPC  H12Y 7883   5.416   1.692   4.712  2.8191  2.8835  0.5435
   83SLPC  C313 7884   5.611   1.628   4.775 -0.0173 -0.0102  0.3006
   83SLPC  H13X 7885   5.573   1.659   4.875  0.6582 -0.4029  0.6819
   83SLPC  H13Y 7886   5.695   1.694   4.743 -0.7555  0.2247 -1.2424
   83SLPC  C314 7887   5.662   1.479   4.787  0.2089  0.4586 -0.1715
   83SLPC  H14X 7888   5.680   1.430   4.689  0.7465 -1.8798  1.0170
   83SLPC  H14Y 7889   5.578   1.417   4.827  0.3725 -0.7881 -1.6503
   83SLPC  C315 7890   5.786   1.470   4.869  0.2673 -0.9057 -0.9269
   83SLPC  H15X 7891   5.857   1.543   4.824 -0.0576  0.2118  0.2893
   83SLPC  H15Y 7892   5.811   1.362   4.867  0.1508 -0.9280 -1.0942
   83SLPC  C316 7893   5.769   1.509   5.018  0.8005 -0.2860 -0.3810
   83SLPC  H16X 7894   5.715   1.427   5.071  0.8235  1.2712  2.2181
   83SLPC  H16Y 7895   5.712   1.604   5.026 -0.5028 -1.0710 -0.0166
   83SLPC  C317 7896   5.907   1.519   5.088  0.1005 -0.7545 -0.0517
   83SLPC  H17X 7897   5.887   1.513   5.197  0.0718  1.6075  0.1213
   83SLPC  H17Y 7898   5.962   1.613   5.069  2.0328 -1.8917 -0.3805
   83SLPC  C318 7899   5.995   1.401   5.064 -0.0690  0.6896  0.5941
   83SLPC  H18X 7900   6.083   1.383   5.129  1.4249 -3.6777 -2.2167
   83SLPC  H18Y 7901   6.038   1.389   4.963  1.3525  1.0008  1.1432
   83SLPC  H18Z 7902   5.938   1.308   5.084  0.7967  0.5387  2.5607
   84SLPC     N 7903   1.644   1.581   2.197  0.0482 -0.3913  0.4973
   84SLPC   C13 7904   1.625   1.545   2.051 -0.4560  0.1177 -0.1568
   84SLPC  H13A 7905   1.524   1.515   2.029 -0.1977 -0.9866  0.1255
   84SLPC  H13B 7906   1.657   1.625   1.985  0.8352 -0.6920 -0.5459
   84SLPC  H13C 7907   1.683   1.456   2.029  1.1945  1.5095 -1.7861
   84SLPC   C14 7908   1.571   1.710   2.211  0.4109  0.6487  0.0310
   84SLPC  H14A 7909   1.592   1.778   2.130 -0.5557 -1.4081 -2.0927
   84SLPC  H14B 7910   1.464   1.696   2.204  0.2193  1.5069  1.0707
   84SLPC  H14C 7911   1.593   1.750   2.309 -0.5354 -0.7279  0.8451
   84SLPC   C15 7912   1.788   1.594   2.226  0.7032 -0.1128  0.1046
   84SLPC  H15A 7913   1.829   1.495   2.212  1.4561  0.2620 -0.4188
   84SLPC  H15B 7914   1.840   1.664   2.162 -0.7099  1.2290  0.3540
   84SLPC  H15C 7915   1.812   1.616   2.329  1.0504 -1.1836  0.2663
   84SLPC   C12 7916   1.580   1.478   2.284 -0.8229  0.3036 -0.9243
   84SLPC  H12A 7917   1.482   1.442   2.255 -0.2187  0.2134 -2.9521
   84SLPC  H12B 7918   1.570   1.520   2.383  1.2412  1.9004 -1.3331
   84SLPC   C11 7919   1.665   1.345   2.307  0.5370 -0.1670 -0.3775
   84SLPC  H11A 7920   1.614   1.297   2.394 -0.0902 -0.2065 -0.7611
   84SLPC  H11B 7921   1.765   1.351   2.354 -0.7352  0.4848  2.4426
   84SLPC     P 7922   1.547   1.150   2.160 -0.4736 -0.1105 -0.0603
   84SLPC   O13 7923   1.415   1.199   2.203  0.3290 -0.1602 -0.3733
   84SLPC   O14 7924   1.572   1.111   2.022  0.2209 -0.1257  0.6953
   84SLPC   O12 7925   1.655   1.263   2.189  0.1210 -0.3620  0.0492
   84SLPC   O11 7926   1.579   1.029   2.259  0.2551 -0.6095  0.4133
   84SLPC    C1 7927   1.714   0.974   2.251  0.1477 -0.1257 -0.1325
   84SLPC    HA 7928   1.721   0.910   2.161  2.0993 -1.4447  0.8965
   84SLPC    HB 7929   1.790   1.055   2.253  0.0710 -0.0638  0.4114
   84SLPC    C2 7930   1.738   0.889   2.372  0.2395  0.5008 -0.4389
   84SLPC    HS 7931   1.843   0.852   2.366  0.0159 -0.2144 -0.0117
   84SLPC   O21 7932   1.643   0.780   2.377 -0.0952 -0.1697  0.5318
   84SLPC   C21 7933   1.676   0.671   2.312  0.0827  0.4686 -0.4165
   84SLPC   O22 7934   1.767   0.657   2.228  0.0831  0.0906 -0.1364
   84SLPC   C22 7935   1.571   0.562   2.335 -0.7852 -0.1550  0.6601
   84SLPC   H2R 7936   1.475   0.611   2.361 -1.2819 -0.2348 -0.9333
   84SLPC   H2S 7937   1.563   0.497   2.245  2.7572  0.7056 -0.4489
   84SLPC    C3 7938   1.716   0.975   2.507  0.1893  0.3051 -0.4178
   84SLPC    HX 7939   1.607   0.992   2.519  0.7132  2.2571  3.0739
   84SLPC    HY 7940   1.761   1.076   2.492 -2.4945  1.7118  0.3610
   84SLPC   O31 7941   1.772   0.904   2.622  0.3806 -0.0079  0.2771
   84SLPC   C31 7942   1.821   0.978   2.718  0.6859 -0.2175  0.2558
   84SLPC   O32 7943   1.817   1.098   2.730 -0.0153  0.8547  0.7694
   84SLPC   C32 7944   1.891   0.881   2.819  0.6202 -0.0891  0.1686
   84SLPC   H2X 7945   1.976   0.840   2.760  0.4180 -1.1119  0.5691
   84SLPC   H2Y 7946   1.812   0.810   2.851 -2.4006  2.6049 -0.7158
   84SLPC   C23 7947   1.612   0.469   2.445  0.5481  0.4095  0.0404
   84SLPC   H3R 7948   1.647   0.528   2.533  3.4036  1.1940 -1.5031
   84SLPC   H3S 7949   1.699   0.402   2.427 -0.3942 -1.1970  1.1649
   84SLPC   C24 7950   1.487   0.383   2.486 -0.6410 -0.0249 -0.5678
   84SLPC   H4R 7951   1.472   0.323   2.393 -0.2446  0.4159 -0.9193
   84SLPC   H4S 7952   1.388   0.431   2.502 -2.0874 -2.6496 -0.9267
   84SLPC   C25 7953   1.507   0.294   2.606  0.3935 -0.7977  0.7076
   84SLPC   H5R 7954   1.605   0.244   2.588  0.2248 -0.4491 -1.3867
   84SLPC   H5S 7955   1.426   0.219   2.601  0.8098 -1.1641 -1.0164
   84SLPC   C26 7956   1.495   0.369   2.741 -0.4837  0.2544  0.5448
   84SLPC   H6R 7957   1.396   0.415   2.719 -0.1696  0.3111 -0.8362
   84SLPC   H6S 7958   1.580   0.441   2.748  1.0901 -1.1381 -2.2138
   84SLPC   C27 7959   1.492   0.271   2.853  0.1642 -0.2465 -0.7360
   84SLPC   H7R 7960   1.444   0.176   2.821 -0.4874 -0.2073  0.0933
   84SLPC   H7S 7961   1.429   0.317   2.932  2.6613  0.9068  0.7252
   84SLPC   C28 7962   1.624   0.251   2.915  0.0200  0.0013 -0.1875
   84SLPC   H8R 7963   1.657   0.343   2.968  0.2831 -1.7429  2.9311
   84SLPC   H8S 7964   1.705   0.226   2.844 -1.5180  0.4748 -2.1980
   84SLPC   C29 7965   1.620   0.143   3.017  0.1299 -0.3264 -0.4880
   84SLPC   H9R 7966   1.539   0.072   2.992  0.1345 -0.6570  0.4061
   84SLPC  C210 7967   1.698   0.118   3.126  0.6153  0.0235  0.1670
   84SLPC  H10R 7968   1.679   0.032   3.192  2.0482 -0.3169  0.1811
   84SLPC  C211 7969   1.802   0.208   3.178 -0.0924 -0.5554  0.0112
   84SLPC  H11R 7970   1.828   0.277   3.095 -2.0532 -0.3118 -0.4628
   84SLPC  H11S 7971   1.896   0.152   3.197 -1.5639 -3.2596 -0.2763
   84SLPC  C212 7972   1.758   0.283   3.306  0.0813  0.3492 -0.2830
   84SLPC  H12R 7973   1.678   0.357   3.288 -1.3137 -1.4723 -1.9262
   84SLPC  C213 7974   1.780   0.245   3.435 -0.1644 -0.3560 -0.2732
   84SLPC  H13R 7975   1.738   0.302   3.520  1.6882  0.0709  0.4029
   84SLPC  C214 7976   1.867   0.134   3.470  0.3839 -0.5407 -0.0052
   84SLPC  H14R 7977   1.975   0.149   3.445 -0.1153  1.2383 -1.3207
   84SLPC  H14S 7978   1.832   0.046   3.412 -2.8216  0.5011  0.1990
   84SLPC  C215 7979   1.859   0.099   3.619 -0.1260  0.0317  0.4281
   84SLPC  H15R 7980   1.752   0.092   3.649  0.1432 -1.7669  1.1189
   84SLPC  H15S 7981   1.902   0.178   3.685 -0.4197  0.1919  0.4316
   84SLPC  C216 7982   1.942  -0.030   3.650 -0.3130  0.0132  0.4399
   84SLPC  H16R 7983   2.044  -0.001   3.619  0.2641 -0.4019  1.8558
   84SLPC  H16S 7984   1.905  -0.121   3.598 -0.7283  0.5382 -0.1998
   84SLPC  C217 7985   1.925  -0.062   3.797 -0.2823 -0.3667 -1.0812
   84SLPC  H17R 7986   1.958  -0.165   3.823  2.6569  1.3061  3.0257
   84SLPC  H17S 7987   1.818  -0.050   3.827  0.0995  2.2240 -0.4414
   84SLPC  C218 7988   1.995   0.034   3.887 -0.4691 -0.2675 -0.9497
   84SLPC  H18R 7989   1.969   0.142   3.887 -0.5224 -0.1439  2.8550
   84SLPC  H18S 7990   2.102   0.036   3.858  1.2019 -1.2166  4.1735
   84SLPC  H18T 7991   1.986   0.012   3.996  1.8554 -1.6453 -0.9708
   84SLPC   C33 7992   1.959   0.949   2.941  0.1083  0.2997 -0.2973
   84SLPC   H3X 7993   1.881   1.000   3.001 -1.8636 -1.4474 -1.2372
   84SLPC   H3Y 7994   2.016   1.036   2.899  0.0132  0.1443 -0.7533
   84SLPC   C34 7995   2.044   0.849   3.014 -0.4987  0.5236 -0.3255
   84SLPC   H4X 7996   2.113   0.803   2.939  0.8345  1.1727  0.4566
   84SLPC   H4Y 7997   1.981   0.767   3.053 -1.8561  1.5128 -0.3869
   84SLPC   C35 7998   2.129   0.889   3.139  0.0764  0.5469 -0.8119
   84SLPC   H5X 7999   2.202   0.967   3.108  0.6058  1.2302  1.8784
   84SLPC   H5Y 8000   2.182   0.802   3.181 -3.0084 -0.9498  0.3009
   84SLPC   C36 8001   2.029   0.954   3.242  0.5961  0.4639  0.8158
   84SLPC   H6X 8002   1.958   0.869   3.257  1.1519 -0.3609 -0.9271
   84SLPC   H6Y 8003   1.976   1.045   3.209  2.1017  0.6480 -1.3009
   84SLPC   C37 8004   2.094   0.972   3.380  1.1041 -0.3798  0.3964
   84SLPC   H7X 8005   2.169   1.051   3.360  0.8156 -0.5343 -1.4559
   84SLPC   H7Y 8006   2.144   0.875   3.405 -0.4329 -1.4207 -0.4531
   84SLPC   C38 8007   1.981   1.008   3.486  0.5084  0.2737  0.3528
   84SLPC   H8X 8008   1.893   0.941   3.473 -0.1337  1.5013 -2.0099
   84SLPC   H8Y 8009   1.954   1.115   3.485  0.9643  0.4008  1.0085
   84SLPC   C39 8010   2.041   0.989   3.630  0.5939 -0.2250  0.7670
   84SLPC   H9X 8011   2.147   1.018   3.647  1.0636 -1.8058  0.7311
   84SLPC   H9Y 8012   2.040   0.879   3.648 -0.6919 -0.0868  1.7035
   84SLPC  C310 8013   1.954   1.060   3.733 -0.4030  0.6793 -0.1289
   84SLPC  H10X 8014   1.851   1.051   3.693  0.8193 -0.9046 -3.3544
   84SLPC  H10Y 8015   1.975   1.167   3.713 -2.7918  0.8794 -2.0174
   84SLPC  C311 8016   1.965   1.002   3.877  0.3966 -0.0722 -0.2234
   84SLPC  H11X 8017   1.939   1.084   3.948 -1.3451 -0.2135 -0.6471
   84SLPC  H11Y 8018   2.071   0.976   3.897 -0.0577 -0.4313  1.9773
   84SLPC  C312 8019   1.855   0.890   3.906 -0.5607 -0.0268  0.1572
   84SLPC  H12X 8020   1.879   0.839   3.810 -0.0150 -0.2451  0.4090
   84SLPC  H12Y 8021   1.748   0.923   3.904 -0.9523 -1.2387  0.1907
   84SLPC  C313 8022   1.885   0.800   4.026  0.1924 -0.2444 -0.3932
   84SLPC  H13X 8023   1.991   0.766   4.033  0.1298 -1.0341 -2.5732
   84SLPC  H13Y 8024   1.811   0.718   4.016  0.9016 -0.9064 -0.3624
   84SLPC  C314 8025   1.845   0.875   4.160 -0.7167  0.6483  0.3019
   84SLPC  H14X 8026   1.738   0.902   4.153 -1.0445 -0.6498  0.0524
   84SLPC  H14Y 8027   1.907   0.965   4.178  1.7986 -1.2497  2.0013
   84SLPC  C315 8028   1.852   0.794   4.289  0.1540  0.2690  0.0447
   84SLPC  H15X 8029   1.854   0.853   4.384  2.4505 -2.4298  1.8573
   84SLPC  H15Y 8030   1.938   0.724   4.285 -1.3924 -1.7438  0.3339
   84SLPC  C316 8031   1.738   0.692   4.299  0.2799 -0.0587 -0.3851
   84SLPC  H16X 8032   1.695   0.660   4.202 -0.2875 -1.4694  0.2961
   84SLPC  H16Y 8033   1.657   0.745   4.355  0.8579  0.7422 -0.2858
   84SLPC  C317 8034   1.771   0.576   4.396  0.0935  0.4253  0.0857
   84SLPC  H17X 8035   1.830   0.505   4.334  1.0950  0.7953  0.5852
   84SLPC  H17Y 8036   1.673   0.528   4.416 -0.9832  2.1733 -0.6613
   84SLPC  C318 8037   1.846   0.613   4.527  0.3945 -0.5360  0.5520
   84SLPC  H18X 8038   1.794   0.697   4.577  1.8071  1.6557 -1.4339
   84SLPC  H18Y 8039   1.950   0.650   4.513  1.1889 -3.3909 -2.5015
   84SLPC  H18Z 8040   1.844   0.534   4.605  2.3481 -1.0590  0.1443
   85SLPC     N 8041   0.282   3.895   2.818 -0.1755 -0.2232  0.3651
   85SLPC   C13 8042   0.211   3.880   2.681  0.5349 -0.4480  0.4554
   85SLPC  H13A 8043   0.161   3.784   2.676  0.4676 -0.4155  0.5047
   85SLPC  H13B 8044   0.122   3.940   2.671  0.1989 -0.7111  1.6985
   85SLPC  H13C 8045   0.273   3.903   2.596 -2.0767 -0.3947 -1.5681
   85SLPC   C14 8046   0.407   3.808   2.822  0.4202 -0.3294  0.3670
   85SLPC  H14A 8047   0.482   3.849   2.756 -0.4721 -0.4082 -0.7384
   85SLPC  H14B 8048   0.446   3.808   2.923  0.0310 -0.9301  0.5210
   85SLPC  H14C 8049   0.389   3.707   2.788  0.7941 -0.1854 -0.2776
   85SLPC   C15 8050   0.179   3.856   2.919  0.2961  0.6121  0.5959
   85SLPC  H15A 8051   0.092   3.920   2.915  0.3949  0.7139 -0.0179
   85SLPC  H15B 8052   0.142   3.759   2.890 -1.1900  0.0451  3.8959
   85SLPC  H15C 8053   0.209   3.861   3.023 -0.4798  2.6697  0.7582
   85SLPC   C12 8054   0.312   4.040   2.844 -0.0138  0.7392 -0.5616
   85SLPC  H12A 8055   0.348   4.053   2.945 -0.1723  1.0976 -0.5465
   85SLPC  H12B 8056   0.214   4.085   2.845 -0.9710 -1.1497  1.6599
   85SLPC   C11 8057   0.414   4.117   2.753 -0.1230  1.4842  0.3153
   85SLPC  H11A 8058   0.403   4.227   2.764  1.3990  1.5803  1.1024
   85SLPC  H11B 8059   0.391   4.095   2.647  1.0702 -0.3727  0.3981
   85SLPC     P 8060   0.625   4.095   2.922  0.0139  0.1374  0.0030
   85SLPC   O13 8061   0.662   3.954   2.957 -0.0410 -0.1956 -0.0693
   85SLPC   O14 8062   0.744   4.188   2.899  0.1760 -0.1890 -0.5782
   85SLPC   O12 8063   0.547   4.083   2.787  0.0931 -0.2509  0.1157
   85SLPC   O11 8064   0.513   4.152   3.017  0.0118 -0.1208 -0.1731
   85SLPC    C1 8065   0.509   4.291   3.037  0.0971  0.3202  0.8315
   85SLPC    HA 8066   0.572   4.345   2.963  1.8509 -2.0616  0.4960
   85SLPC    HB 8067   0.412   4.333   3.003  0.6098 -0.3003 -1.5816
   85SLPC    C2 8068   0.535   4.335   3.183 -0.3241  0.1753 -0.3713
   85SLPC    HS 8069   0.506   4.443   3.184  2.6594  1.0714 -1.0303
   85SLPC   O21 8070   0.676   4.317   3.213 -0.1523 -0.0782 -0.5679
   85SLPC   C21 8071   0.766   4.412   3.174 -0.0074  0.5762  0.8325
   85SLPC   O22 8072   0.733   4.523   3.137  0.8068  0.1246  0.0936
   85SLPC   C22 8073   0.910   4.370   3.202  0.3107  0.1298  0.2042
   85SLPC   H2R 8074   0.947   4.298   3.126  0.8721 -0.4321  0.9914
   85SLPC   H2S 8075   0.966   4.465   3.216 -0.8599  0.6882  1.2168
   85SLPC    C3 8076   0.445   4.255   3.283 -0.4266  0.7044  0.6020
   85SLPC    HX 8077   0.464   4.145   3.275  1.4399  0.9160  1.5303
   85SLPC    HY 8078   0.341   4.269   3.248  0.1833 -0.8881 -2.1434
   85SLPC   O31 8079   0.469   4.290   3.415 -0.2451 -0.1306  0.8455
   85SLPC   C31 8080   0.410   4.389   3.478 -0.6803 -0.8053  0.4364
   85SLPC   O32 8081   0.307   4.442   3.443 -0.3373  0.0422  0.3122
   85SLPC   C32 8082   0.458   4.386   3.623 -0.7825 -0.9029  0.2944
   85SLPC   H2X 8083   0.569   4.393   3.623 -0.8298  1.2103 -1.6487
   85SLPC   H2Y 8084   0.423   4.296   3.676 -0.2414 -1.4193 -0.2127
   85SLPC   C23 8085   0.924   4.292   3.338 -1.1347  0.1490 -0.0405
   85SLPC   H3R 8086   1.030   4.262   3.351 -1.5144 -1.6764 -0.9337
   85SLPC   H3S 8087   0.873   4.194   3.334  2.0385 -1.7155  1.4624
   85SLPC   C24 8088   0.873   4.361   3.459  0.9651 -0.5812  0.2483
   85SLPC   H4R 8089   0.772   4.403   3.441  1.1531  0.0419  0.5740
   85SLPC   H4S 8090   0.924   4.460   3.471 -1.8032  1.0046 -0.2237
   85SLPC   C25 8091   0.888   4.278   3.588  0.1764 -0.2399  0.5268
   85SLPC   H5R 8092   0.804   4.206   3.576 -0.3679  0.1704  1.7390
   85SLPC   H5S 8093   0.993   4.241   3.586  0.7832  1.1584  2.9307
   85SLPC   C26 8094   0.863   4.363   3.712  0.0934  0.2480  0.0655
   85SLPC   H6R 8095   0.756   4.393   3.710 -0.6510 -2.2268 -0.7762
   85SLPC   H6S 8096   0.928   4.452   3.720 -2.3555  2.0713  0.9611
   85SLPC   C27 8097   0.890   4.282   3.843  0.3165  0.0461 -0.4672
   85SLPC   H7R 8098   0.996   4.246   3.843  1.3220  2.7771  0.4089
   85SLPC   H7S 8099   0.833   4.187   3.834 -1.2183  0.8899  0.0609
   85SLPC   C28 8100   0.864   4.361   3.965  0.0758 -0.4384 -0.2682
   85SLPC   H8R 8101   0.756   4.386   3.958  0.0616 -0.9505 -2.7973
   85SLPC   H8S 8102   0.917   4.457   3.952 -2.6437  1.2460  0.1710
   85SLPC   C29 8103   0.904   4.302   4.099  0.0147 -0.3638  0.2135
   85SLPC   H9R 8104   0.979   4.223   4.084  1.5701  1.1372 -0.3602
   85SLPC  C210 8105   0.857   4.338   4.223  0.1122 -0.1347 -0.3125
   85SLPC  H10R 8106   0.916   4.294   4.305  1.5118 -1.8910 -2.1651
   85SLPC  C211 8107   0.750   4.439   4.266  0.0811  0.3344 -0.4188
   85SLPC  H11R 8108   0.733   4.512   4.184 -2.8942  0.6641  0.3831
   85SLPC  H11S 8109   0.773   4.485   4.364  1.3522 -2.2143  0.5613
   85SLPC  C212 8110   0.620   4.366   4.273  0.5025 -0.3101  0.2157
   85SLPC  H12R 8111   0.586   4.325   4.176 -0.5194  0.8023  0.0903
   85SLPC  C213 8112   0.542   4.351   4.388  0.6506  0.2490  0.7193
   85SLPC  H13R 8113   0.458   4.280   4.378  1.7872 -0.9776 -0.7136
   85SLPC  C214 8114   0.564   4.405   4.530 -0.7698  0.0015 -0.0448
   85SLPC  H14R 8115   0.638   4.488   4.525 -0.4118 -0.3289 -0.2047
   85SLPC  H14S 8116   0.600   4.320   4.591 -1.5277 -0.1687  0.1822
   85SLPC  C215 8117   0.447   4.458   4.606  0.6416  0.7343  0.1898
   85SLPC  H15R 8118   0.364   4.384   4.604  1.1213 -0.1332  4.4596
   85SLPC  H15S 8119   0.412   4.550   4.553  1.6791 -0.7104 -3.3289
   85SLPC  C216 8120   0.451   4.467   4.761  0.1869 -0.4438 -0.3512
   85SLPC  H16R 8121   0.504   4.562   4.784  0.2329 -0.0475 -1.9145
   85SLPC  H16S 8122   0.482   4.368   4.801 -2.5739 -1.2904 -0.1185
   85SLPC  C217 8123   0.303   4.503   4.803 -0.1637  0.4463 -0.0772
   85SLPC  H17R 8124   0.240   4.416   4.774 -1.1546  0.8744  0.7654
   85SLPC  H17S 8125   0.266   4.590   4.745  1.4425 -0.7362 -3.0998
   85SLPC  C218 8126   0.303   4.544   4.949 -0.7719 -1.3143 -0.3741
   85SLPC  H18R 8127   0.365   4.489   5.023 -0.5938  0.9604  1.2719
   85SLPC  H18S 8128   0.200   4.563   4.987 -0.4986 -0.4682 -0.0326
   85SLPC  H18T 8129   0.344   4.647   4.937 -0.4622 -1.6734 -3.1745
   85SLPC   C33 8130   0.405   4.511   3.701 -0.0200  0.6366  0.5597
   85SLPC   H3X 8131   0.295   4.498   3.691  0.0865 -0.3218  0.5898
   85SLPC   H3Y 8132   0.444   4.604   3.654  0.7144  0.3617  0.6075
   85SLPC   C34 8133   0.448   4.504   3.851  0.3816 -0.4551 -0.1088
   85SLPC   H4X 8134   0.558   4.493   3.859  0.7329  0.2105 -2.9673
   85SLPC   H4Y 8135   0.401   4.417   3.901  1.5164 -0.2324  1.3926
   85SLPC   C35 8136   0.407   4.631   3.925 -0.4175  0.6669  0.7915
   85SLPC   H5X 8137   0.297   4.648   3.913  0.0504  1.9255 -3.5373
   85SLPC   H5Y 8138   0.448   4.710   3.859 -0.5968 -0.4982 -0.7939
   85SLPC   C36 8139   0.447   4.635   4.070  0.0671  0.3145 -0.1892
   85SLPC   H6X 8140   0.556   4.619   4.086  0.4881  1.6474 -1.5424
   85SLPC   H6Y 8141   0.398   4.545   4.114 -0.9832  0.9700  0.0016
   85SLPC   C37 8142   0.404   4.758   4.140  0.4011  0.2864  0.2461
   85SLPC   H7X 8143   0.296   4.773   4.121  0.6685  0.4468 -1.2814
   85SLPC   H7Y 8144   0.468   4.840   4.101 -0.6937  0.7712 -0.5699
   85SLPC   C38 8145   0.406   4.736   4.293  0.5953 -0.5426  0.3282
   85SLPC   H8X 8146   0.510   4.700   4.312  0.1270 -1.2819  1.6130
   85SLPC   H8Y 8147   0.338   4.655   4.327  0.4113 -1.4417 -2.0029
   85SLPC   C39 8148   0.369   4.864   4.374  0.2350  0.4296  0.3726
   85SLPC   H9X 8149   0.282   4.911   4.323 -0.3131 -2.0690 -1.2195
   85SLPC   H9Y 8150   0.451   4.938   4.384 -1.4288  2.6959 -1.5423
   85SLPC  C310 8151   0.331   4.824   4.514  0.2411  0.0112 -0.3719
   85SLPC  H10X 8152   0.424   4.799   4.570  0.1892  1.6665  0.5022
   85SLPC  H10Y 8153   0.263   4.736   4.521 -1.4838  1.3773  0.8482
   85SLPC  C311 8154   0.272   4.945   4.597  0.2447  0.5121  0.6016
   85SLPC  H11X 8155   0.170   4.979   4.573  0.0604 -1.4912 -1.8167
   85SLPC  H11Y 8156   0.327   5.038   4.571 -0.8508  0.8001 -0.7998
   85SLPC  C312 8157   0.267   4.925   4.750 -0.2105 -0.3698 -0.3143
   85SLPC  H12X 8158   0.354   4.864   4.780  0.3643 -0.6409 -2.3838
   85SLPC  H12Y 8159   0.177   4.861   4.766 -0.4430  0.3838  1.6530
   85SLPC  C313 8160   0.254   5.056   4.834 -0.2081  0.6789 -0.5042
   85SLPC  H13X 8161   0.177   5.118   4.783  0.5215  2.1581  0.0993
   85SLPC  H13Y 8162   0.351   5.111   4.836 -0.0010  0.2955  0.9395
   85SLPC  C314 8163   0.218   5.015   4.978  0.4356 -0.0328  0.9316
   85SLPC  H14X 8164   0.273   4.930   5.024  1.2017 -0.5072 -0.7656
   85SLPC  H14Y 8165   0.112   4.983   4.984  0.9532 -1.5625  3.3893
   85SLPC  C315 8166   0.223   5.123   5.081 -0.2101 -0.2081  0.4615
   85SLPC  H15X 8167   0.161   5.089   5.166  1.6399 -0.7162  1.6729
   85SLPC  H15Y 8168   0.179   5.216   5.038 -5.6203 -1.8277  1.8089
   85SLPC  C316 8169   0.367   5.144   5.146 -0.6532 -0.3036 -0.6249
   85SLPC  H16X 8170   0.406   5.051   5.194 -0.6834  1.5834  3.4502
   85SLPC  H16Y 8171   0.365   5.216   5.230 -0.0072  0.0618 -0.9146
   85SLPC  C317 8172   0.481   5.203   5.062 -0.2554 -0.0538  0.2876
   85SLPC  H17X 8173   0.477   5.312   5.039 -2.7995  0.0804  1.0937
   85SLPC  H17Y 8174   0.491   5.141   4.970  1.3097  0.3417  0.1548
   85SLPC  C318 8175   0.620   5.182   5.135 -0.1135  0.0359 -0.4634
   85SLPC  H18X 8176   0.639   5.075   5.159 -0.9069 -0.1003 -0.3916
   85SLPC  H18Y 8177   0.616   5.234   5.233 -1.3305  1.1285 -1.0582
   85SLPC  H18Z 8178   0.704   5.223   5.075 -0.1021  1.9168  0.7389
   86SLPC     N 8179   6.175   5.856   2.150  0.3818  0.7635  0.2014
   86SLPC   C13 8180   6.157   5.728   2.080  0.6166  0.3241  0.9773
   86SLPC  H13A 8181   6.246   5.699   2.025 -0.0264  0.6976 -0.2905
   86SLPC  H13B 8182   6.128   5.652   2.151  0.7097 -0.3009  0.3612
   86SLPC  H13C 8183   6.079   5.747   2.008 -0.5378 -0.4987  1.9831
   86SLPC   C14 8184   6.055   5.929   2.187  0.3530 -0.5964 -0.5872
   86SLPC  H14A 8185   5.974   5.860   2.204  1.2391 -2.1414 -2.3597
   86SLPC  H14B 8186   6.071   5.991   2.274 -2.0852  0.9143 -1.1079
   86SLPC  H14C 8187   6.008   5.990   2.111  0.0090  0.6065  0.5363
   86SLPC   C15 8188   6.235   5.944   2.052  0.0241  0.0621  0.8025
   86SLPC  H15A 8189   6.323   5.900   2.011  0.0734  0.5226  0.4068
   86SLPC  H15B 8190   6.168   5.951   1.967  0.2512 -1.4492  0.4860
   86SLPC  H15C 8191   6.265   6.039   2.094  2.7162 -0.4310  0.1197
   86SLPC   C12 8192   6.273   5.839   2.274  0.2250 -0.3220  0.1266
   86SLPC  H12A 8193   6.319   5.931   2.307 -0.3953  0.2975 -0.7068
   86SLPC  H12B 8194   6.360   5.783   2.243 -0.6753 -1.4229 -0.4698
   86SLPC   C11 8195   6.214   5.779   2.409  1.0681 -0.3099  0.4577
   86SLPC  H11A 8196   6.288   5.748   2.486  0.2321 -0.6736  1.1429
   86SLPC  H11B 8197   6.163   5.680   2.401  1.4620 -0.8958  3.7374
   86SLPC     P 8198   6.170   5.989   2.559  0.0964  0.3573  0.2629
   86SLPC   O13 8199   6.314   6.000   2.519  0.6224 -0.0701 -0.1400
   86SLPC   O14 8200   6.090   6.109   2.523  0.9703 -0.2596  0.1403
   86SLPC   O12 8201   6.119   5.869   2.472  0.0069  0.1714 -0.2726
   86SLPC   O11 8202   6.139   5.949   2.705 -0.4432 -0.6907 -0.4264
   86SLPC    C1 8203   6.013   5.917   2.759  0.3432  0.2041 -0.5927
   86SLPC    HA 8204   5.957   6.013   2.748  1.5137  0.9152 -0.5205
   86SLPC    HB 8205   5.951   5.850   2.695 -1.2127  1.4352 -0.4627
   86SLPC    C2 8206   6.023   5.868   2.910  0.6605 -0.5574  0.7572
   86SLPC    HS 8207   5.926   5.828   2.947 -0.8220  2.4209  0.4044
   86SLPC   O21 8208   6.048   5.981   3.001 -0.1117  0.7665 -0.3051
   86SLPC   C21 8209   5.953   6.076   3.009  0.0000 -0.0043 -0.0486
   86SLPC   O22 8210   5.836   6.057   2.980 -0.6095  1.0761 -0.1025
   86SLPC   C22 8211   6.003   6.203   3.082  0.0166 -0.2090 -0.0583
   86SLPC   H2R 8212   6.085   6.182   3.155 -1.8867  0.6472  2.4899
   86SLPC   H2S 8213   6.033   6.280   3.008  1.4045  0.1221  0.7936
   86SLPC    C3 8214   6.137   5.757   2.927 -0.5680 -0.6281 -0.1196
   86SLPC    HX 8215   6.226   5.817   2.896 -0.9107  0.8180  1.5232
   86SLPC    HY 8216   6.110   5.685   2.848  1.2132  1.3837 -2.7625
   86SLPC   O31 8217   6.146   5.713   3.068 -0.0210  0.1133 -0.5623
   86SLPC   C31 8218   6.065   5.615   3.094 -0.3188  0.1600 -0.0647
   86SLPC   O32 8219   5.968   5.581   3.025 -0.1888  0.0187  0.1310
   86SLPC   C32 8220   6.102   5.559   3.236  0.5927 -0.8260 -0.0960
   86SLPC   H2X 8221   6.194   5.501   3.213  1.2773 -1.0317  2.6901
   86SLPC   H2Y 8222   6.022   5.494   3.278 -1.3330  2.4085  1.6357
   86SLPC   C23 8223   5.884   6.264   3.167  0.3863  0.0557  0.4738
   86SLPC   H3R 8224   5.828   6.190   3.229  0.7896  0.7864  1.7423
   86SLPC   H3S 8225   5.816   6.303   3.088 -1.2834  0.0361  1.8505
   86SLPC   C24 8226   5.933   6.376   3.261 -0.0061 -0.0890 -0.1427
   86SLPC   H4R 8227   5.974   6.462   3.205 -0.6057  2.7773  3.4332
   86SLPC   H4S 8228   6.001   6.324   3.332  1.1135  1.6036  0.0683
   86SLPC   C25 8229   5.821   6.433   3.358  0.6238  0.5323  0.4029
   86SLPC   H5R 8230   5.775   6.350   3.415 -0.3743 -0.5856 -1.9074
   86SLPC   H5S 8231   5.737   6.476   3.300 -0.7411 -0.9787  1.1678
   86SLPC   C26 8232   5.867   6.539   3.452  0.0669 -0.4244 -0.7109
   86SLPC   H6R 8233   5.872   6.642   3.408 -0.2518  0.0127  0.2586
   86SLPC   H6S 8234   5.970   6.519   3.486  0.5083 -0.0982 -1.7859
   86SLPC   C27 8235   5.764   6.552   3.570  0.3669 -0.2378  0.1551
   86SLPC   H7R 8236   5.701   6.462   3.590  0.9908 -0.6745  0.1792
   86SLPC   H7S 8237   5.700   6.633   3.529  0.1564 -2.3360 -4.3068
   86SLPC   C28 8238   5.834   6.616   3.691 -0.0797 -0.1508  0.2517
   86SLPC   H8R 8239   5.758   6.680   3.742  0.0518  0.0732  0.1657
   86SLPC   H8S 8240   5.910   6.687   3.653  1.3108 -0.5948  2.0776
   86SLPC   C29 8241   5.914   6.524   3.776 -0.5704  0.0521  0.0414
   86SLPC   H9R 8242   5.980   6.455   3.721 -0.9478 -0.6145  0.4262
   86SLPC  C210 8243   5.923   6.526   3.909  0.2573  0.0792  0.4242
   86SLPC  H10R 8244   5.998   6.463   3.959 -1.7688  0.1278  3.8282
   86SLPC  C211 8245   5.835   6.615   3.995 -0.0470 -0.9342  0.0153
   86SLPC  H11R 8246   5.745   6.650   3.940  0.8725  1.5907  0.0028
   86SLPC  H11S 8247   5.888   6.710   4.015  0.4106 -1.6019  2.2107
   86SLPC  C212 8248   5.795   6.555   4.123 -0.2338 -0.0294 -0.5363
   86SLPC  H12R 8249   5.696   6.510   4.138  0.4151 -1.2090  0.4332
   86SLPC  C213 8250   5.879   6.543   4.229  0.0018 -0.4874 -0.0114
   86SLPC  H13R 8251   5.832   6.499   4.318 -2.8552  1.2449 -0.5206
   86SLPC  C214 8252   6.016   6.595   4.245  0.3255  0.3936  0.2443
   86SLPC  H14R 8253   6.047   6.670   4.169  2.0139 -0.3569  0.1415
   86SLPC  H14S 8254   6.085   6.511   4.221 -0.8229 -0.7216  0.7169
   86SLPC  C215 8255   6.057   6.670   4.373 -0.4877 -0.5851  0.1373
   86SLPC  H15R 8256   6.159   6.712   4.358 -0.3248 -0.8476  0.4836
   86SLPC  H15S 8257   6.068   6.592   4.451  1.8407 -0.9990 -0.5049
   86SLPC  C216 8258   5.971   6.794   4.421  0.0553  0.1524  0.0780
   86SLPC  H16R 8259   5.998   6.826   4.524 -4.4380 -0.0826  1.5219
   86SLPC  H16S 8260   5.869   6.753   4.436 -0.1918  0.8560  0.3907
   86SLPC  C217 8261   5.971   6.913   4.328  1.2240 -0.2739 -0.4993
   86SLPC  H17R 8262   5.972   6.872   4.224 -0.9633 -3.6997  0.6415
   86SLPC  H17S 8263   6.070   6.959   4.347  0.7321 -0.0949  1.9432
   86SLPC  C218 8264   5.861   7.015   4.360 -0.6097  0.1049  0.3919
   86SLPC  H18R 8265   5.773   6.978   4.303 -1.1231  0.5454  0.8818
   86SLPC  H18S 8266   5.881   7.117   4.320  1.5086 -1.6072 -3.3662
   86SLPC  H18T 8267   5.840   7.029   4.468  0.6045 -1.5113  0.8673
   86SLPC   C33 8268   6.136   5.669   3.337  0.2616  0.7029  0.1006
   86SLPC   H3X 8269   6.045   5.729   3.360  0.0802  0.4412  0.0738
   86SLPC   H3Y 8270   6.204   5.746   3.294 -1.0103  1.9587  0.2263
   86SLPC   C34 8271   6.184   5.614   3.468 -0.1537 -0.1599 -0.1802
   86SLPC   H4X 8272   6.286   5.571   3.456  0.0791 -0.3584  2.1875
   86SLPC   H4Y 8273   6.110   5.537   3.500 -0.5581  0.9696  1.7515
   86SLPC   C35 8274   6.196   5.719   3.581  0.1277  0.4885 -0.0460
   86SLPC   H5X 8275   6.093   5.757   3.592  0.0073 -0.0398  0.7801
   86SLPC   H5Y 8276   6.272   5.791   3.543  3.3291 -1.8005  1.5441
   86SLPC   C36 8277   6.246   5.666   3.712 -0.2133  0.7207 -0.4871
   86SLPC   H6X 8278   6.351   5.628   3.707 -0.8809 -1.7685  2.1575
   86SLPC   H6Y 8279   6.192   5.576   3.746  1.4402 -0.6192 -1.2439
   86SLPC   C37 8280   6.246   5.773   3.815 -0.4876 -0.0430 -0.2968
   86SLPC   H7X 8281   6.147   5.816   3.841 -0.4891  0.7886 -1.5890
   86SLPC   H7Y 8282   6.302   5.863   3.783  0.4819  0.1347  1.7025
   86SLPC   C38 8283   6.321   5.725   3.934  0.6389 -0.4015 -0.2158
   86SLPC   H8X 8284   6.427   5.707   3.908  0.9330 -0.1626  0.7499
   86SLPC   H8Y 8285   6.266   5.634   3.966 -0.5844 -0.0399 -1.2339
   86SLPC   C39 8286   6.310   5.820   4.053 -0.3639  0.2628 -0.5534
   86SLPC   H9X 8287   6.204   5.830   4.086 -0.1621  0.1429  0.1330
   86SLPC   H9Y 8288   6.341   5.924   4.027 -0.3963 -0.0686 -2.0138
   86SLPC  C310 8289   6.394   5.762   4.169 -0.4578 -0.1663  0.0502
   86SLPC  H10X 8290   6.499   5.744   4.136 -0.7234 -0.6233 -0.5657
   86SLPC  H10Y 8291   6.339   5.667   4.185 -1.8083  0.5042 -0.4460
   86SLPC  C311 8292   6.407   5.857   4.283  0.0023  0.9735 -0.1532
   86SLPC  H11X 8293   6.302   5.880   4.313 -0.1859 -0.2919  0.2407
   86SLPC  H11Y 8294   6.452   5.952   4.248  0.8581  1.3742  1.8793
   86SLPC  C312 8295   6.484   5.806   4.401  0.1658 -0.4396  0.1483
   86SLPC  H12X 8296   6.496   5.887   4.475 -0.3865 -0.3783  0.1780
   86SLPC  H12Y 8297   6.586   5.770   4.374  0.2452 -1.2957  1.4988
   86SLPC  C313 8298   6.410   5.692   4.474  0.6767 -0.2985  0.1035
   86SLPC  H13X 8299   6.391   5.609   4.404 -0.8687 -1.0223  1.3211
   86SLPC  H13Y 8300   6.316   5.735   4.517  1.3783  0.8095  0.5898
   86SLPC  C314 8301   6.499   5.642   4.586  0.0232  0.3374 -0.7400
   86SLPC  H14X 8302   6.497   5.717   4.667 -0.7458 -1.6902  1.2102
   86SLPC  H14Y 8303   6.598   5.598   4.558 -1.2583 -2.1199 -1.7944
   86SLPC  C315 8304   6.424   5.522   4.644  0.1114  0.6951  0.9538
   86SLPC  H15X 8305   6.393   5.447   4.568  0.1790  1.6509 -0.0355
   86SLPC  H15Y 8306   6.333   5.560   4.695  0.1296 -1.0386  2.3876
   86SLPC  C316 8307   6.497   5.463   4.764 -0.4804  0.7023 -0.1393
   86SLPC  H16X 8308   6.599   5.434   4.730 -0.7938  0.1924 -0.6633
   86SLPC  H16Y 8309   6.452   5.367   4.797  0.9499  0.2946  0.7044
   86SLPC  C317 8310   6.517   5.554   4.884 -0.0843 -0.4186  0.4278
   86SLPC  H17X 8311   6.414   5.584   4.914  0.2885  0.0762  1.2735
   86SLPC  H17Y 8312   6.563   5.651   4.857  0.7045 -0.5074  1.4049
   86SLPC  C318 8313   6.568   5.486   5.007 -0.4149  0.4669 -0.0443
   86SLPC  H18X 8314   6.556   5.534   5.107 -0.0190  3.3088 -1.2789
   86SLPC  H18Y 8315   6.679   5.478   5.010 -0.1896  2.3812 -1.7573
   86SLPC  H18Z 8316   6.516   5.388   5.016  0.4097 -0.2093 -2.0746
   87SLPC     N 8317   5.108   5.180   2.769 -0.6838  0.7343  0.3116
   87SLPC   C13 8318   5.237   5.238   2.706 -0.0848 -0.6076 -0.2097
   87SLPC  H13A 8319   5.315   5.163   2.706 -0.8943 -1.4691 -1.1593
   87SLPC  H13B 8320   5.224   5.268   2.604 -2.2077 -0.6301  0.0160
   87SLPC  H13C 8321   5.271   5.323   2.764 -0.7950  2.5239 -3.9528
   87SLPC   C14 8322   5.070   5.059   2.689 -0.6149  0.0715 -0.6831
   87SLPC  H14A 8323   4.994   4.998   2.735 -0.4665 -0.0256 -0.5636
   87SLPC  H14B 8324   5.033   5.087   2.592 -0.9319  1.4510 -0.1830
   87SLPC  H14C 8325   5.159   5.000   2.671  0.0475  0.7669  0.1807
   87SLPC   C15 8326   4.994   5.280   2.754  0.2881 -0.3088 -0.6638
   87SLPC  H15A 8327   4.999   5.360   2.826 -0.1139 -1.0763  0.2533
   87SLPC  H15B 8328   4.983   5.313   2.652  0.1949  0.1508 -0.5061
   87SLPC  H15C 8329   4.902   5.234   2.789  1.8636 -0.6232  3.5742
   87SLPC   C12 8330   5.125   5.141   2.914 -0.2133  0.9675 -0.1628
   87SLPC  H12A 8331   5.046   5.074   2.946 -1.0801  1.5816 -0.9651
   87SLPC  H12B 8332   5.124   5.229   2.975  2.8793 -0.3121  1.9827
   87SLPC   C11 8333   5.251   5.065   2.948  0.6880  0.1487 -0.9465
   87SLPC  H11A 8334   5.241   5.046   3.057  1.7550  0.1343 -0.8416
   87SLPC  H11B 8335   5.344   5.121   2.926  2.4522 -2.6087 -1.0325
   87SLPC     P 8336   5.388   4.879   2.820  0.1640  0.2059 -0.4329
   87SLPC   O13 8337   5.357   4.752   2.755  0.1508 -0.1087 -0.4992
   87SLPC   O14 8338   5.428   4.984   2.729 -0.1708  0.4413 -0.3460
   87SLPC   O12 8339   5.253   4.933   2.889  0.3533  0.1107  0.1586
   87SLPC   O11 8340   5.486   4.860   2.946 -0.0041 -0.3451  0.5087
   87SLPC    C1 8341   5.444   4.791   3.066 -0.9332 -0.1739  1.0406
   87SLPC    HA 8342   5.334   4.784   3.074 -1.0114  0.0998  0.2257
   87SLPC    HB 8343   5.490   4.690   3.068  2.3426  1.1634  0.6332
   87SLPC    C2 8344   5.492   4.864   3.198  0.2277 -0.1533 -0.5127
   87SLPC    HS 8345   5.500   4.783   3.274 -1.1604  1.3202  1.3335
   87SLPC   O21 8346   5.398   4.967   3.246 -0.1764 -0.2587 -0.0579
   87SLPC   C21 8347   5.343   4.949   3.365 -0.1114 -0.3686  0.5843
   87SLPC   O22 8348   5.367   4.859   3.444 -0.2252 -0.4333 -1.0464
   87SLPC   C22 8349   5.255   5.066   3.394  0.0907  0.1747 -0.0400
   87SLPC   H2R 8350   5.234   5.130   3.305  1.3962  1.9001  0.8243
   87SLPC   H2S 8351   5.160   5.021   3.428 -0.1968  0.9796  0.2416
   87SLPC    C3 8352   5.630   4.928   3.180 -0.8354  1.1025 -0.4278
   87SLPC    HX 8353   5.629   5.002   3.097 -1.1436  1.0262 -0.4948
   87SLPC    HY 8354   5.699   4.848   3.147  1.8134  2.9036  0.4378
   87SLPC   O31 8355   5.670   5.008   3.296  0.0367  0.3632 -0.0283
   87SLPC   C31 8356   5.744   4.937   3.389  0.0224  0.0502  0.4307
   87SLPC   O32 8357   5.786   4.827   3.371  0.0571  0.7415 -0.3167
   87SLPC   C32 8358   5.759   5.027   3.510 -0.6576 -0.0927  0.2969
   87SLPC   H2X 8359   5.706   5.121   3.486  0.6510  1.5790  3.2756
   87SLPC   H2Y 8360   5.861   5.055   3.544 -0.8759 -0.3980  1.2339
   87SLPC   C23 8361   5.317   5.162   3.503 -0.1917  0.0830  0.3971
   87SLPC   H3R 8362   5.245   5.244   3.521 -0.6333 -0.4937  1.3170
   87SLPC   H3S 8363   5.406   5.216   3.464 -1.4567  3.0399  1.3124
   87SLPC   C24 8364   5.339   5.091   3.638  0.0728 -0.0560 -0.4280
   87SLPC   H4R 8365   5.419   5.016   3.620 -0.3891 -0.5206 -0.5735
   87SLPC   H4S 8366   5.246   5.051   3.683 -0.3287  1.2070 -0.0948
   87SLPC   C25 8367   5.387   5.210   3.732  0.0407  0.5196 -0.5959
   87SLPC   H5R 8368   5.457   5.280   3.680  0.0448  0.9500 -0.0192
   87SLPC   H5S 8369   5.436   5.151   3.812 -0.6460 -0.0615 -0.5996
   87SLPC   C26 8370   5.281   5.299   3.799 -0.3729  0.1916 -0.2001
   87SLPC   H6R 8371   5.197   5.323   3.731 -0.9365  0.5438  0.5966
   87SLPC   H6S 8372   5.323   5.399   3.824  0.5796 -0.4701  0.9792
   87SLPC   C27 8373   5.229   5.232   3.926 -0.5353  0.6792  0.5062
   87SLPC   H7R 8374   5.307   5.234   4.005 -1.0105 -0.1174  1.0083
   87SLPC   H7S 8375   5.218   5.125   3.900  1.5888  0.4088  0.5580
   87SLPC   C28 8376   5.090   5.287   3.985  0.0340  0.3472 -0.1513
   87SLPC   H8R 8377   5.064   5.219   4.069  2.0011  0.9278  0.9910
   87SLPC   H8S 8378   5.016   5.284   3.902 -1.8348  1.6273  1.3892
   87SLPC   C29 8379   5.104   5.427   4.033  0.5320  0.2357  0.3506
   87SLPC   H9R 8380   5.140   5.493   3.952  0.1924  0.4152  0.3423
   87SLPC  C210 8381   5.065   5.468   4.152  0.9576  0.1955  0.0526
   87SLPC  H10R 8382   5.074   5.575   4.174 -0.0322  1.0067 -3.0653
   87SLPC  C211 8383   4.998   5.386   4.258  0.1120 -0.1329  0.4648
   87SLPC  H11R 8384   5.058   5.295   4.278  0.7671  0.2393  0.2249
   87SLPC  H11S 8385   4.899   5.353   4.221  0.3381  1.8201 -2.1606
   87SLPC  C212 8386   4.984   5.459   4.392 -0.0653 -0.7503  0.3758
   87SLPC  H12R 8387   5.069   5.456   4.461 -1.8967 -0.9655  2.7725
   87SLPC  C213 8388   4.879   5.538   4.433  0.2699  0.5709 -0.1415
   87SLPC  H13R 8389   4.876   5.597   4.526  0.4866 -1.4651  1.2335
   87SLPC  C214 8390   4.756   5.562   4.345 -0.5913  0.0239 -0.0656
   87SLPC  H14R 8391   4.667   5.541   4.408 -0.3939  1.7227  0.8635
   87SLPC  H14S 8392   4.754   5.492   4.259  2.1942 -0.7748  0.4290
   87SLPC  C215 8393   4.744   5.719   4.303 -0.1625 -0.3079  0.0119
   87SLPC  H15R 8394   4.805   5.733   4.211 -2.8730 -0.0202 -1.8534
   87SLPC  H15S 8395   4.788   5.780   4.384  0.8176  2.5662 -2.4673
   87SLPC  C216 8396   4.601   5.759   4.261 -0.5953 -0.2248 -0.4872
   87SLPC  H16R 8397   4.541   5.769   4.354 -2.3048 -1.6570 -1.3973
   87SLPC  H16S 8398   4.553   5.682   4.197 -1.1083  0.1178 -0.5198
   87SLPC  C217 8399   4.597   5.891   4.177  0.2131  0.6371 -0.8230
   87SLPC  H17R 8400   4.681   5.897   4.104  1.5531 -0.2711  0.5794
   87SLPC  H17S 8401   4.611   5.976   4.247 -1.6346  1.5675 -1.5418
   87SLPC  C218 8402   4.472   5.918   4.097 -0.2397 -0.4869 -0.2186
   87SLPC  H18R 8403   4.478   6.020   4.054 -2.5912 -0.1388  0.1540
   87SLPC  H18S 8404   4.374   5.909   4.147  0.1579 -2.6676  0.2786
   87SLPC  H18T 8405   4.462   5.843   4.015 -0.4335  0.5545 -1.1777
   87SLPC   C33 8406   5.711   4.952   3.638  0.5365  0.4108  0.1730
   87SLPC   H3X 8407   5.768   4.862   3.667 -0.4122  0.4156  2.2446
   87SLPC   H3Y 8408   5.604   4.934   3.612  0.1939  1.8627  0.4587
   87SLPC   C34 8409   5.711   5.050   3.754  0.3710 -0.1120  0.1194
   87SLPC   H4X 8410   5.669   5.148   3.721  1.5508  0.2940 -0.2272
   87SLPC   H4Y 8411   5.818   5.060   3.781  0.6284 -0.4904 -0.7342
   87SLPC   C35 8412   5.637   4.997   3.876 -0.2556 -0.1130 -0.0334
   87SLPC   H5X 8413   5.673   4.895   3.898  0.6085 -0.1569 -1.5493
   87SLPC   H5Y 8414   5.532   4.977   3.846 -0.4862  1.0520 -0.0700
   87SLPC   C36 8415   5.666   5.086   4.011  0.0261 -1.0850  0.3788
   87SLPC   H6X 8416   5.613   5.183   3.999  1.3504 -0.4190 -0.3150
   87SLPC   H6Y 8417   5.775   5.103   4.027  0.1639 -0.1688 -1.2772
   87SLPC   C37 8418   5.610   5.024   4.139  0.4178 -0.5231 -0.3738
   87SLPC   H7X 8419   5.657   4.925   4.160  0.7458  0.2258  3.0705
   87SLPC   H7Y 8420   5.504   4.992   4.140  0.0669  0.5359 -1.5776
   87SLPC   C38 8421   5.627   5.107   4.269  0.7135  0.0237  0.0229
   87SLPC   H8X 8422   5.570   5.201   4.260 -0.3990 -0.3873  2.0966
   87SLPC   H8Y 8423   5.732   5.135   4.292  1.0395 -1.1988  0.1282
   87SLPC   C39 8424   5.582   5.034   4.398  0.3033  0.5372  0.5237
   87SLPC   H9X 8425   5.529   4.942   4.365  1.8233  0.0498 -0.6422
   87SLPC   H9Y 8426   5.498   5.096   4.437  1.3143  1.7010  0.9496
   87SLPC  C310 8427   5.693   5.033   4.508 -0.6659 -0.0864  0.3207
   87SLPC  H10X 8428   5.716   5.139   4.531  2.4048 -0.1049 -1.9829
   87SLPC  H10Y 8429   5.790   4.995   4.467 -0.3239  0.7582  0.3241
   87SLPC  C311 8430   5.673   4.944   4.638 -0.2290  0.2714 -0.0920
   87SLPC  H11X 8431   5.766   4.943   4.699 -0.9126  2.3007  1.1094
   87SLPC  H11Y 8432   5.653   4.842   4.599  1.0012 -0.1137  0.2596
   87SLPC  C312 8433   5.553   4.989   4.721 -0.0832  0.7277 -0.3714
   87SLPC  H12X 8434   5.457   4.973   4.668 -0.6443  2.3509  0.0900
   87SLPC  H12Y 8435   5.567   5.092   4.759  3.4567 -0.5509  2.3647
   87SLPC  C313 8436   5.546   4.914   4.848  0.2579  0.7957  0.5374
   87SLPC  H13X 8437   5.641   4.923   4.906 -0.4178  0.8748  1.6688
   87SLPC  H13Y 8438   5.537   4.807   4.820 -0.2765  1.7619 -3.5076
   87SLPC  C314 8439   5.434   4.959   4.949 -0.1281  0.2875 -0.6745
   87SLPC  H14X 8440   5.343   4.972   4.886  0.2266 -1.4021 -1.5795
   87SLPC  H14Y 8441   5.477   5.054   4.987  1.0574 -0.3141 -0.4611
   87SLPC  C315 8442   5.415   4.864   5.078 -0.1867 -0.3587  0.8048
   87SLPC  H15X 8443   5.505   4.868   5.144  0.3170 -1.2908  0.2010
   87SLPC  H15Y 8444   5.401   4.761   5.039  1.8792 -0.3782 -0.0024
   87SLPC  C316 8445   5.295   4.917   5.157 -0.0529 -0.1596 -0.5153
   87SLPC  H16X 8446   5.282   4.866   5.255 -1.6270  0.5172 -0.3409
   87SLPC  H16Y 8447   5.200   4.884   5.108  1.2530 -0.9448 -2.6537
   87SLPC  C317 8448   5.299   5.069   5.191  0.4673  0.2969  0.1464
   87SLPC  H17X 8449   5.224   5.082   5.272 -2.3995 -0.6122 -2.1878
   87SLPC  H17Y 8450   5.276   5.131   5.102 -0.8355  1.0433  0.9681
   87SLPC  C318 8451   5.432   5.125   5.242  0.2693 -0.2113 -0.5459
   87SLPC  H18X 8452   5.485   5.053   5.307 -0.0527 -1.7548 -1.8986
   87SLPC  H18Y 8453   5.408   5.222   5.290  1.0307  0.4830 -1.5376
   87SLPC  H18Z 8454   5.501   5.145   5.158  0.8844  0.8419  0.1948
   88SLPC     N 8455   4.840   4.249   2.643  0.1615  0.1755 -0.2709
   88SLPC   C13 8456   4.754   4.159   2.557 -0.1427 -0.3057  0.3874
   88SLPC  H13A 8457   4.740   4.054   2.580 -1.7271  0.1164  1.5219
   88SLPC  H13B 8458   4.659   4.206   2.574 -0.1093 -0.1721  0.2095
   88SLPC  H13C 8459   4.788   4.164   2.454 -0.0095  0.8225  0.4792
   88SLPC   C14 8460   4.826   4.387   2.593  0.2502 -0.0507 -0.1318
   88SLPC  H14A 8461   4.724   4.418   2.577  0.2853 -0.0104 -0.2746
   88SLPC  H14B 8462   4.862   4.459   2.665 -0.3779 -0.4390  0.5914
   88SLPC  H14C 8463   4.873   4.398   2.496 -2.0055 -0.0052 -1.2744
   88SLPC   C15 8464   4.988   4.205   2.632  0.9105 -0.2641  1.3560
   88SLPC  H15A 8465   5.030   4.231   2.536 -0.9523 -0.2810  0.5045
   88SLPC  H15B 8466   5.039   4.262   2.708  0.6283  0.2713  1.1466
   88SLPC  H15C 8467   4.999   4.097   2.640  0.6068 -0.5299 -1.0019
   88SLPC   C12 8468   4.792   4.221   2.783  0.3184 -0.1565  0.2623
   88SLPC  H12A 8469   4.744   4.126   2.801  1.1540 -0.3967  1.3648
   88SLPC  H12B 8470   4.714   4.294   2.797 -0.0125 -0.5881  0.7149
   88SLPC   C11 8471   4.893   4.243   2.905  0.5019  0.2951 -0.5283
   88SLPC  H11A 8472   4.969   4.164   2.890  2.9029  2.5492 -1.1006
   88SLPC  H11B 8473   4.852   4.233   3.008  1.1015  1.1456 -0.1893
   88SLPC     P 8474   4.913   4.497   2.977  0.3860  0.4297 -0.1017
   88SLPC   O13 8475   5.013   4.597   2.947  0.5093 -0.0295  0.8362
   88SLPC   O14 8476   4.775   4.523   2.938 -0.2229 -0.1933  0.5446
   88SLPC   O12 8477   4.961   4.368   2.899  0.3265 -0.3234 -0.0998
   88SLPC   O11 8478   4.913   4.443   3.128 -0.0404  0.2361  0.4327
   88SLPC    C1 8479   5.037   4.393   3.175  0.1466  0.1661  0.2171
   88SLPC    HA 8480   5.046   4.283   3.160 -0.4876  0.2195 -0.6023
   88SLPC    HB 8481   5.126   4.431   3.120  1.0206  0.1665  1.5914
   88SLPC    C2 8482   5.057   4.437   3.324 -0.3504  0.3313 -0.2119
   88SLPC    HS 8483   5.159   4.414   3.362 -0.9898  1.2441  2.2613
   88SLPC   O21 8484   4.956   4.379   3.409 -0.2396 -0.0264  0.1839
   88SLPC   C21 8485   4.998   4.310   3.514 -0.2048  0.2186  0.2585
   88SLPC   O22 8486   5.114   4.277   3.538  0.0036 -0.0638 -0.0329
   88SLPC   C22 8487   4.888   4.281   3.600  0.3863 -0.3398  0.4887
   88SLPC   H2R 8488   4.794   4.310   3.550  1.3347 -1.2695 -2.0134
   88SLPC   H2S 8489   4.895   4.170   3.603 -0.4937 -0.5517 -2.4216
   88SLPC    C3 8490   5.049   4.594   3.326 -0.3990  0.1672  0.3158
   88SLPC    HX 8491   4.955   4.623   3.273 -0.4468  0.7742  0.7257
   88SLPC    HY 8492   5.129   4.642   3.264  0.1460 -1.2398 -0.1229
   88SLPC   O31 8493   5.044   4.651   3.461  0.6463 -0.3858 -0.0630
   88SLPC   C31 8494   5.005   4.775   3.469 -0.0863  0.3901 -1.0012
   88SLPC   O32 8495   4.964   4.846   3.380  0.3723 -0.1877  0.1828
   88SLPC   C32 8496   5.024   4.806   3.619 -0.2184 -0.2480 -0.3232
   88SLPC   H2X 8497   4.949   4.887   3.635  2.2436  1.9562  0.8494
   88SLPC   H2Y 8498   5.120   4.859   3.636 -1.3030  2.1832 -1.2196
   88SLPC   C23 8499   4.896   4.322   3.747  0.1445  0.2687 -0.4700
   88SLPC   H3R 8500   4.800   4.287   3.790 -0.6691  2.8837 -0.0099
   88SLPC   H3S 8501   4.923   4.427   3.771  2.2306 -0.2282 -0.4402
   88SLPC   C24 8502   5.007   4.260   3.835  0.5351  0.7969 -0.2670
   88SLPC   H4R 8503   5.112   4.268   3.800  0.5802  3.3355  0.3065
   88SLPC   H4S 8504   4.991   4.151   3.817  3.2125  0.3452 -0.3489
   88SLPC   C25 8505   5.003   4.299   3.985 -0.1947 -0.4620  0.3381
   88SLPC   H5R 8506   4.907   4.259   4.024 -0.5408  0.8690  0.8808
   88SLPC   H5S 8507   5.024   4.406   4.004 -1.8205  0.2092 -1.3735
   88SLPC   C26 8508   5.119   4.229   4.066  0.2709 -0.1772  0.0475
   88SLPC   H6R 8509   5.219   4.260   4.029  1.4168 -0.7333  2.5206
   88SLPC   H6S 8510   5.099   4.120   4.057  2.0578 -0.5402  0.1638
   88SLPC   C27 8511   5.118   4.262   4.218  0.3403 -0.2023  0.1086
   88SLPC   H7R 8512   5.020   4.238   4.265  0.3241 -1.3915 -0.5055
   88SLPC   H7S 8513   5.127   4.373   4.225  1.3635 -0.3209  1.0895
   88SLPC   C28 8514   5.221   4.202   4.313  0.4154 -0.8665 -0.9740
   88SLPC   H8R 8515   5.217   4.255   4.411  1.1726  0.2664 -1.5210
   88SLPC   H8S 8516   5.323   4.225   4.274  0.1659 -1.2662 -1.8829
   88SLPC   C29 8517   5.185   4.053   4.323 -0.2461 -1.0571  0.3262
   88SLPC   H9R 8518   5.148   4.012   4.228 -0.9827 -1.9761  0.9833
   88SLPC  C210 8519   5.204   3.965   4.419  0.3080 -0.0466 -0.0728
   88SLPC  H10R 8520   5.171   3.862   4.399  0.2104 -0.2613  1.1307
   88SLPC  C211 8521   5.258   3.986   4.560  0.0258 -0.1101  0.8005
   88SLPC  H11R 8522   5.354   4.042   4.554 -0.8569  1.4107  0.3776
   88SLPC  H11S 8523   5.286   3.891   4.611 -2.3231 -1.3006 -0.0167
   88SLPC  C212 8524   5.173   4.060   4.651 -0.0854  0.3125  0.1983
   88SLPC  H12R 8525   5.068   4.057   4.620  0.4884 -1.0258 -1.8383
   88SLPC  C213 8526   5.204   4.136   4.759 -0.1044  0.5239 -0.0409
   88SLPC  H13R 8527   5.130   4.192   4.819  0.4157  0.5006  0.6262
   88SLPC  C214 8528   5.344   4.143   4.813 -0.5176 -0.6815  0.2020
   88SLPC  H14R 8529   5.428   4.131   4.741  0.2464 -0.0701  0.9646
   88SLPC  H14S 8530   5.353   4.061   4.887  4.0315  0.0878  0.8174
   88SLPC  C215 8531   5.379   4.275   4.886 -0.0247  0.4192 -0.2980
   88SLPC  H15R 8532   5.357   4.363   4.822 -0.9486 -0.1268 -0.7531
   88SLPC  H15S 8533   5.489   4.268   4.901  0.0287 -0.1506 -0.9162
   88SLPC  C216 8534   5.307   4.288   5.024 -0.6129 -0.7074  0.9964
   88SLPC  H16R 8535   5.334   4.201   5.088 -1.3459 -2.2144 -0.6264
   88SLPC  H16S 8536   5.200   4.276   4.998 -0.9180 -3.2752  3.0443
   88SLPC  C217 8537   5.333   4.419   5.098 -0.3421 -0.1386 -0.4765
   88SLPC  H17R 8538   5.314   4.510   5.037  1.3708  0.5118 -0.0738
   88SLPC  H17S 8539   5.438   4.429   5.130 -0.0204  0.4054 -1.6577
   88SLPC  C218 8540   5.234   4.429   5.216 -0.0769 -0.5716  0.5756
   88SLPC  H18R 8541   5.135   4.465   5.181  0.1042 -0.7264 -0.1121
   88SLPC  H18S 8542   5.270   4.499   5.294 -0.9178  0.9528 -0.3645
   88SLPC  H18T 8543   5.228   4.322   5.245  0.3598 -1.0463 -0.9702
   88SLPC   C33 8544   4.993   4.690   3.716  1.1654  0.3865  0.3829
   88SLPC   H3X 8545   5.033   4.588   3.693  1.9058  0.6548  0.4468
   88SLPC   H3Y 8546   4.884   4.674   3.723  0.9034  1.4430 -0.9147
   88SLPC   C34 8547   5.059   4.713   3.851 -0.0420  0.2038 -0.7364
   88SLPC   H4X 8548   5.170   4.719   3.839 -0.0056  2.4026  0.2246
   88SLPC   H4Y 8549   5.030   4.624   3.911 -0.5068  1.2184  0.5997
   88SLPC   C35 8550   5.004   4.837   3.923  0.0113  0.0438  0.0251
   88SLPC   H5X 8551   4.893   4.840   3.917 -0.0019 -1.7338 -1.3407
   88SLPC   H5Y 8552   5.034   4.934   3.877 -0.5757  0.2190  0.0106
   88SLPC   C36 8553   5.045   4.843   4.067  0.9906  1.2286  0.0369
   88SLPC   H6X 8554   5.021   4.748   4.119  4.0628 -0.0271 -0.6012
   88SLPC   H6Y 8555   4.983   4.917   4.122  0.6680  0.5440  0.6095
   88SLPC   C37 8556   5.190   4.875   4.093  0.0257  0.2714 -0.7991
   88SLPC   H7X 8557   5.211   4.973   4.046 -0.8276  0.2167 -1.3162
   88SLPC   H7Y 8558   5.250   4.799   4.040 -0.1241 -0.3732 -0.0610
   88SLPC   C38 8559   5.221   4.879   4.238 -0.0851 -0.1256 -0.2859
   88SLPC   H8X 8560   5.328   4.856   4.261 -0.5384 -1.0372  1.0372
   88SLPC   H8Y 8561   5.175   4.789   4.284 -0.8633  0.9037  1.0138
   88SLPC   C39 8562   5.175   5.005   4.309  0.2369 -0.1296  0.7617
   88SLPC   H9X 8563   5.067   5.021   4.289  0.3783 -0.8912 -0.7696
   88SLPC   H9Y 8564   5.233   5.083   4.255  1.1460 -1.0007  0.4494
   88SLPC  C310 8565   5.195   5.012   4.464  0.1997 -0.0173  0.4790
   88SLPC  H10X 8566   5.300   4.979   4.471 -0.1542 -1.5312 -0.6689
   88SLPC  H10Y 8567   5.131   4.934   4.511 -0.1795  0.8889  1.5191
   88SLPC  C311 8568   5.178   5.154   4.531  0.2991 -0.6187  0.6165
   88SLPC  H11X 8569   5.071   5.178   4.512  0.0366 -0.9224  1.6232
   88SLPC  H11Y 8570   5.236   5.227   4.472 -2.8089  1.3744 -0.2072
   88SLPC  C312 8571   5.217   5.171   4.677  0.5793 -0.2911  0.0892
   88SLPC  H12X 8572   5.317   5.219   4.691  0.9006 -0.1991 -2.1319
   88SLPC  H12Y 8573   5.219   5.068   4.720  1.6469 -1.0743 -1.7012
   88SLPC  C313 8574   5.119   5.265   4.761 -0.0112  0.5622 -0.3949
   88SLPC  H13X 8575   5.015   5.229   4.744  0.1240 -0.0343  0.0263
   88SLPC  H13Y 8576   5.129   5.371   4.728  0.3579  0.4630 -0.6001
   88SLPC  C314 8577   5.146   5.266   4.916 -0.6164  0.0632 -0.9024
   88SLPC  H14X 8578   5.246   5.302   4.948 -1.3416 -0.4205  2.2869
   88SLPC  H14Y 8579   5.162   5.162   4.951  2.4137  0.7958  0.1457
   88SLPC  C315 8580   5.037   5.335   5.008 -0.0113  0.2763  0.2186
   88SLPC  H15X 8581   4.938   5.288   4.994  0.3002  0.0688 -1.3997
   88SLPC  H15Y 8582   5.040   5.439   4.970  5.3739  0.6065  0.7291
   88SLPC  C316 8583   5.067   5.311   5.157 -0.5395 -0.0246  0.5629
   88SLPC  H16X 8584   5.164   5.354   5.187  0.2612 -1.5507  0.2881
   88SLPC  H16Y 8585   5.086   5.204   5.181  2.4631  0.2362 -0.2496
   88SLPC  C317 8586   4.959   5.382   5.249  0.4281 -0.4324 -0.3652
   88SLPC  H17X 8587   4.988   5.382   5.357 -4.2756  0.5797  1.1159
   88SLPC  H17Y 8588   4.873   5.312   5.248 -0.3916  0.5405  0.2762
   88SLPC  C318 8589   4.908   5.529   5.222  0.2900  0.2940  0.9704
   88SLPC  H18X 8590   4.880   5.533   5.114  0.2209 -2.5979  0.7905
   88SLPC  H18Y 8591   4.985   5.605   5.247 -1.7696  3.1910 -0.8498
   88SLPC  H18Z 8592   4.820   5.558   5.283  0.3664  0.2613  1.0974
   89SAPE     N 8593   2.182   1.911   7.143  0.3188 -0.4038 -0.1444
   89SAPE   HN1 8594   2.193   1.822   7.090  0.8281  0.2461 -1.1571
   89SAPE   HN2 8595   2.204   1.893   7.243  1.6496 -1.3045 -0.5672
   89SAPE   HN3 8596   2.083   1.938   7.130  0.5988  0.7980  0.0999
   89SAPE   C12 8597   2.274   2.015   7.084  0.1198 -0.2860 -0.1427
   89SAPE  H12A 8598   2.367   2.014   7.145 -1.2606  0.7433  2.1168
   89SAPE  H12B 8599   2.229   2.116   7.086 -1.1340 -0.7470 -2.1756
   89SAPE   C11 8600   2.318   1.984   6.939  0.2480  0.2852  0.9141
   89SAPE  H11A 8601   2.370   2.070   6.893 -0.9008  0.3099 -0.4298
   89SAPE  H11B 8602   2.227   1.977   6.875 -0.6568  1.6792  1.9794
   89SAPE     P 8603   2.336   1.722   6.879  0.3653 -0.1272 -0.1062
   89SAPE   O13 8604   2.445   1.620   6.882 -0.5164  0.6636 -0.7136
   89SAPE   O14 8605   2.218   1.693   6.967 -0.4611 -0.0359 -0.0312
   89SAPE   O12 8606   2.396   1.862   6.935  0.0629 -0.0307 -0.2038
   89SAPE   O11 8607   2.283   1.765   6.734 -0.2928  0.0468  0.3575
   89SAPE    C1 8608   2.343   1.696   6.619  0.0349  0.2815  0.6892
   89SAPE    HA 8609   2.345   1.585   6.629  0.2216  0.0977 -1.0961
   89SAPE    HB 8610   2.284   1.716   6.527  1.9735  0.6061 -0.5342
   89SAPE    C2 8611   2.483   1.749   6.580 -0.8976  0.4005  0.7084
   89SAPE    HS 8612   2.552   1.716   6.661  0.4170 -2.0614 -1.2501
   89SAPE   O21 8613   2.470   1.895   6.558 -0.1412  0.7061  0.1189
   89SAPE   C21 8614   2.547   1.965   6.640 -0.1324  0.0925  0.0926
   89SAPE   O22 8615   2.619   1.921   6.725 -0.3477  0.2918 -0.1072
   89SAPE   C22 8616   2.528   2.114   6.611 -0.1481 -0.6959 -0.5878
   89SAPE   H2R 8617   2.433   2.152   6.654 -0.6452 -1.1025 -1.3176
   89SAPE   H2S 8618   2.612   2.173   6.654  1.9152 -0.8485 -4.0854
   89SAPE    C3 8619   2.532   1.692   6.444  0.5496  0.5827  0.2579
   89SAPE    HX 8620   2.626   1.744   6.418  1.0768  0.2138  1.3759
   89SAPE    HY 8621   2.459   1.726   6.367  0.0331 -1.1370 -0.0523
   89SAPE   O31 8622   2.535   1.549   6.445 -0.3254 -0.4870  0.0837
   89SAPE   C31 8623   2.650   1.495   6.479  0.2835  1.0520 -0.3435
   89SAPE   O32 8624   2.745   1.547   6.533 -0.6866 -1.3516  0.1392
   89SAPE   C32 8625   2.633   1.338   6.465  0.5370 -0.8493 -0.5570
   89SAPE   H2X 8626   2.526   1.311   6.480  1.1265 -1.8167  2.8795
   89SAPE   H2Y 8627   2.680   1.296   6.557 -0.1191 -0.9253 -0.2483
   89SAPE   C23 8628   2.524   2.155   6.469  0.2397  0.3300  1.0359
   89SAPE   H3R 8629   2.448   2.095   6.414  1.8217 -1.5151  0.7505
   89SAPE   H3S 8630   2.620   2.134   6.418 -0.8898  0.7342 -1.3906
   89SAPE   C24 8631   2.500   2.306   6.450 -0.0606  0.0823  0.5186
   89SAPE   H4R 8632   2.564   2.362   6.522  2.0477  1.0334 -1.9512
   89SAPE   H4S 8633   2.394   2.329   6.473  0.0141 -0.4537  1.4319
   89SAPE   C25 8634   2.531   2.360   6.311  0.0557  0.8255 -0.4548
   89SAPE   H5R 8635   2.605   2.301   6.255  0.8013  0.9141  0.4169
   89SAPE   C26 8636   2.497   2.480   6.275 -0.5687  0.0985  0.2713
   89SAPE   H6R 8637   2.536   2.519   6.180  0.4678 -1.9093 -0.1766
   89SAPE   C27 8638   2.407   2.575   6.356  0.4468  0.8536  0.8118
   89SAPE   H7R 8639   2.442   2.679   6.338  1.3434  0.5636  0.8024
   89SAPE   H7S 8640   2.406   2.562   6.466 -0.1697  2.2668  0.9980
   89SAPE   C28 8641   2.265   2.593   6.313 -0.5276  0.6537  0.2125
   89SAPE   H8R 8642   2.198   2.543   6.385 -1.1583  0.2790 -0.6034
   89SAPE   C29 8643   2.218   2.656   6.202 -0.3552 -0.2968  0.2811
   89SAPE   H9R 8644   2.111   2.674   6.185 -0.0678  2.7978  1.1143
   89SAPE  C210 8645   2.301   2.719   6.088 -0.0922 -0.4646 -1.3238
   89SAPE  H10R 8646   2.407   2.685   6.086  0.6308  1.4992 -0.2070
   89SAPE  H10S 8647   2.311   2.829   6.100 -0.1256 -0.4594 -1.3431
   89SAPE  C211 8648   2.231   2.685   5.960 -0.1655 -0.0417 -0.4069
   89SAPE  H11R 8649   2.128   2.722   5.952 -0.2905  0.4831  2.5792
   89SAPE  C212 8650   2.276   2.613   5.858  0.4110 -0.4947 -0.1285
   89SAPE  H12R 8651   2.222   2.613   5.762 -0.6660 -0.8773  0.4512
   89SAPE  C213 8652   2.419   2.556   5.847 -0.1849  1.0982 -1.0917
   89SAPE  H13R 8653   2.486   2.589   5.930  0.1595  0.5172 -1.1338
   89SAPE  H13S 8654   2.476   2.605   5.765  0.3082  1.0843 -0.7678
   89SAPE  C214 8655   2.428   2.407   5.825 -0.9600  1.0384 -0.1534
   89SAPE  H14R 8656   2.411   2.345   5.915 -2.0423 -0.7661 -1.5260
   89SAPE  C215 8657   2.441   2.347   5.702  0.0778  0.4148 -0.6880
   89SAPE  H15R 8658   2.441   2.238   5.688  1.4633  0.3976 -0.6710
   89SAPE  C216 8659   2.446   2.413   5.567 -0.1006 -0.0330  0.5323
   89SAPE  H16R 8660   2.545   2.388   5.524  1.3298  0.2831  3.3588
   89SAPE  H16S 8661   2.440   2.524   5.571 -1.1367 -0.0951  1.4154
   89SAPE  C217 8662   2.330   2.340   5.493  0.1854 -0.4744 -0.0765
   89SAPE  H17R 8663   2.236   2.334   5.552 -1.9682 -1.1901 -3.3288
   89SAPE  H17S 8664   2.367   2.237   5.475  1.0676 -0.3216  0.7344
   89SAPE  C218 8665   2.298   2.402   5.363  0.0982 -0.1037 -0.5049
   89SAPE  H18R 8666   2.387   2.382   5.301  0.3568 -0.8807  0.0986
   89SAPE  H18S 8667   2.276   2.511   5.367 -1.1726 -0.3525 -0.1581
   89SAPE  C219 8668   2.196   2.330   5.276  0.6826 -0.1613  0.2877
   89SAPE  H19R 8669   2.106   2.327   5.341  1.4430 -1.7801  1.3255
   89SAPE  H19S 8670   2.229   2.227   5.253 -2.1939 -0.9555 -0.7840
   89SAPE  C220 8671   2.159   2.398   5.144  0.5596 -0.3211  0.3477
   89SAPE  H20R 8672   2.124   2.502   5.161 -0.2899 -0.1654 -2.0922
   89SAPE  H20S 8673   2.077   2.342   5.094  1.0793 -0.3733 -0.4496
   89SAPE  H20T 8674   2.244   2.406   5.074 -0.3197 -1.0238 -0.8327
   89SAPE   C33 8675   2.676   1.269   6.331  0.1989 -0.5215  0.2174
   89SAPE   H3X 8676   2.634   1.327   6.246  0.9883  2.0002  1.4409
   89SAPE   H3Y 8677   2.637   1.166   6.318  0.5603 -0.5404 -0.8469
   89SAPE   C34 8678   2.832   1.263   6.315  0.1298  0.0593 -0.8694
   89SAPE   H4X 8679   2.869   1.169   6.361  1.7253  0.0856 -2.0036
   89SAPE   H4Y 8680   2.872   1.343   6.381  0.2624  1.7216 -2.8506
   89SAPE   C35 8681   2.883   1.285   6.174 -0.3853 -0.5228 -0.2342
   89SAPE   H5X 8682   2.990   1.313   6.165 -0.2502  0.7062  3.4913
   89SAPE   H5Y 8683   2.832   1.381   6.147  1.2549  1.1126  2.1270
   89SAPE   C36 8684   2.840   1.173   6.076  0.0307  0.4076 -0.3791
   89SAPE   H6X 8685   2.733   1.189   6.051 -0.0739  0.9308  0.3628
   89SAPE   H6Y 8686   2.848   1.070   6.117  0.0498  0.5345 -0.0676
   89SAPE   C37 8687   2.930   1.171   5.951  0.8212 -0.1441 -0.2476
   89SAPE   H7X 8688   3.022   1.121   5.989 -0.8108 -0.1782  4.2270
   89SAPE   H7Y 8689   2.945   1.281   5.943 -2.5851  0.7248  2.7983
   89SAPE   C38 8690   2.876   1.117   5.826  0.5455  0.1711 -0.5185
   89SAPE   H8X 8691   2.790   1.176   5.789 -0.0921  0.3500  1.1434
   89SAPE   H8Y 8692   2.841   1.012   5.842 -0.4504  0.6934  0.9126
   89SAPE   C39 8693   2.987   1.116   5.725 -0.2280  0.6940  0.0961
   89SAPE   H9X 8694   3.073   1.050   5.749  0.7260  2.4414  1.6700
   89SAPE   H9Y 8695   3.028   1.218   5.713 -1.1638  1.1673  0.7902
   89SAPE  C310 8696   2.925   1.079   5.590 -0.8454  0.0754 -0.0133
   89SAPE  H10X 8697   2.830   1.137   5.587 -2.4096 -2.2263  1.8548
   89SAPE  H10Y 8698   2.920   0.969   5.580  2.1931 -0.1634  0.1129
   89SAPE  C311 8699   2.998   1.127   5.461 -0.3920 -0.2901 -0.7238
   89SAPE  H11X 8700   3.102   1.088   5.465  0.4252  1.7885 -0.6839
   89SAPE  H11Y 8701   3.009   1.236   5.477  2.9977 -0.5995 -0.2487
   89SAPE  C312 8702   2.931   1.088   5.324  0.8432 -0.1000 -0.2804
   89SAPE  H12X 8703   2.904   0.980   5.320 -1.2232  0.3284  0.6897
   89SAPE  H12Y 8704   3.006   1.108   5.245  0.1235  2.2187 -0.4675
   89SAPE  C313 8705   2.797   1.157   5.295 -0.3934 -0.4353  0.0704
   89SAPE  H13X 8706   2.814   1.267   5.292  0.5113 -0.5753 -0.5182
   89SAPE  H13Y 8707   2.717   1.140   5.370 -1.7511  1.8563 -0.7594
   89SAPE  C314 8708   2.754   1.117   5.159 -0.4539  0.1787  0.0738
   89SAPE  H14X 8709   2.722   1.012   5.173  0.8217 -0.5226 -1.9847
   89SAPE  H14Y 8710   2.838   1.124   5.088  0.1109  3.4752  0.9087
   89SAPE  C315 8711   2.627   1.187   5.109  0.3770 -0.6596 -0.6123
   89SAPE  H15X 8712   2.657   1.291   5.083 -0.8953 -0.0767  0.1320
   89SAPE  H15Y 8713   2.544   1.190   5.183  1.6454  0.0125  0.8407
   89SAPE  C316 8714   2.585   1.120   4.983  1.0335 -0.4653  1.0531
   89SAPE  H16X 8715   2.522   1.029   4.985  2.2605 -1.3664  0.1518
   89SAPE  H16Y 8716   2.676   1.100   4.923 -0.7055 -2.0397 -1.1884
   89SAPE  C317 8717   2.500   1.212   4.891  0.0190  0.3540 -0.6597
   89SAPE  H17X 8718   2.554   1.306   4.869 -0.3269  0.4551 -1.0776
   89SAPE  H17Y 8719   2.406   1.234   4.946  0.3708 -2.3069  1.1835
   89SAPE  C318 8720   2.469   1.145   4.759  0.5125  0.6087 -0.6117
   89SAPE  H18X 8721   2.424   1.045   4.774 -2.0313  0.9005 -4.6607
   89SAPE  H18Y 8722   2.557   1.133   4.692 -0.2051 -2.1137 -1.1866
   89SAPE  H18Z 8723   2.392   1.204   4.705 -2.8571 -1.8731  1.0816
   90SAPE     N 8724   6.498   6.515   7.226 -0.4846  0.7381 -0.2544
   90SAPE   HN1 8725   6.475   6.576   7.307 -1.9534  1.9482 -1.5326
   90SAPE   HN2 8726   6.508   6.583   7.148  2.0668  0.2230 -0.4764
   90SAPE   HN3 8727   6.427   6.446   7.196  0.0272  0.8607 -1.7963
   90SAPE   C12 8728   6.631   6.435   7.235  0.0164 -0.1091  0.5441
   90SAPE  H12A 8729   6.648   6.411   7.128 -2.9292 -0.2666  0.0200
   90SAPE  H12B 8730   6.613   6.348   7.301 -0.8960  0.8040  1.5315
   90SAPE   C11 8731   6.746   6.516   7.272 -0.1741  0.0209 -0.2887
   90SAPE  H11A 8732   6.837   6.456   7.253  0.8158  1.0222  1.1049
   90SAPE  H11B 8733   6.732   6.548   7.378 -2.1900 -0.3037 -0.4232
   90SAPE     P 8734   6.877   6.732   7.199 -0.0801 -0.1683 -0.2467
   90SAPE   O13 8735   6.834   6.875   7.178 -0.3466 -0.1254  0.4152
   90SAPE   O14 8736   6.963   6.702   7.315 -0.0004 -0.8462 -0.1976
   90SAPE   O12 8737   6.755   6.641   7.201 -0.6950 -0.1126  0.3395
   90SAPE   O11 8738   6.953   6.679   7.068  0.6658  0.2566 -0.4806
   90SAPE    C1 8739   6.957   6.553   7.008  0.1293  0.1578 -0.1219
   90SAPE    HA 8740   7.011   6.477   7.070 -0.3061 -1.4242 -1.5897
   90SAPE    HB 8741   6.861   6.501   6.990  1.1829 -1.9708 -0.0206
   90SAPE    C2 8742   7.021   6.551   6.865  0.2633  0.1346 -0.2156
   90SAPE    HS 8743   7.123   6.592   6.874  0.3999 -0.0876 -0.7165
   90SAPE   O21 8744   6.938   6.622   6.772 -0.1904 -0.1437  0.1216
   90SAPE   C21 8745   7.004   6.669   6.664  0.7672 -0.2468 -0.1278
   90SAPE   O22 8746   7.115   6.645   6.624 -0.1019  0.2467  0.0695
   90SAPE   C22 8747   6.910   6.731   6.575 -0.5062 -0.1265 -0.1721
   90SAPE   H2R 8748   6.822   6.666   6.559 -0.4614  0.0302 -1.0852
   90SAPE   H2S 8749   6.868   6.816   6.633 -2.6045 -1.4658  0.3579
   90SAPE    C3 8750   7.026   6.396   6.843  0.6427  0.1257 -0.1385
   90SAPE    HX 8751   6.920   6.363   6.850  0.4626  0.5835 -0.5942
   90SAPE    HY 8752   7.077   6.339   6.923  1.1238  0.0895 -0.4668
   90SAPE   O31 8753   7.076   6.375   6.713 -0.0006 -0.3608 -0.7004
   90SAPE   C31 8754   7.211   6.376   6.714  0.1031  0.3543  0.9383
   90SAPE   O32 8755   7.275   6.365   6.817  0.0619 -0.4291  0.1660
   90SAPE   C32 8756   7.265   6.361   6.571  0.2584 -0.5402  0.0271
   90SAPE   H2X 8757   7.351   6.292   6.583  0.9980  0.4884  0.7624
   90SAPE   H2Y 8758   7.305   6.461   6.547 -2.6176  0.9192  0.8229
   90SAPE   C23 8759   6.967   6.777   6.438 -0.5348  0.3724  0.5741
   90SAPE   H3R 8760   7.001   6.688   6.381  0.6731  0.8011  0.5820
   90SAPE   H3S 8761   7.055   6.845   6.449 -0.9356  1.2367 -1.2040
   90SAPE   C24 8762   6.868   6.848   6.351  0.2070 -0.1494  0.1634
   90SAPE   H4R 8763   6.921   6.869   6.256 -0.5395  2.1710  0.1786
   90SAPE   H4S 8764   6.849   6.952   6.386 -2.0436  0.0831 -1.5080
   90SAPE   C25 8765   6.742   6.774   6.312 -0.1911 -0.2842  0.1656
   90SAPE   H5R 8766   6.655   6.781   6.379  0.8282 -0.7790  1.5753
   90SAPE   C26 8767   6.718   6.714   6.195  0.2815  0.1916 -0.6729
   90SAPE   H6R 8768   6.631   6.647   6.198  0.2107  0.3173  0.2724
   90SAPE   C27 8769   6.824   6.703   6.085  0.2659  0.3157 -0.0935
   90SAPE   H7R 8770   6.828   6.606   6.031 -0.3066  0.4081 -0.3101
   90SAPE   H7S 8771   6.927   6.707   6.125  1.1367 -2.1396 -1.7995
   90SAPE   C28 8772   6.820   6.813   5.981 -0.0916 -0.1061  0.0335
   90SAPE   H8R 8773   6.852   6.910   6.023  3.0623 -1.0508  0.1101
   90SAPE   C29 8774   6.766   6.806   5.860 -0.3751  0.7471 -0.7676
   90SAPE   H9R 8775   6.781   6.894   5.796 -0.7421  0.5080 -1.1870
   90SAPE  C210 8776   6.701   6.680   5.791 -0.3478 -0.7612  0.3344
   90SAPE  H10R 8777   6.730   6.589   5.848 -0.2371 -0.5583  0.6062
   90SAPE  H10S 8778   6.731   6.670   5.685  1.2679  0.1898  0.6735
   90SAPE  C211 8779   6.550   6.698   5.807 -0.8236  0.4640  0.5929
   90SAPE  H11R 8780   6.527   6.741   5.906  0.0736 -0.2096  1.1134
   90SAPE  C212 8781   6.454   6.687   5.716 -0.1781 -0.6524 -0.3713
   90SAPE  H12R 8782   6.350   6.700   5.751  0.3072 -1.5988  1.5859
   90SAPE  C213 8783   6.481   6.635   5.572 -0.4713 -0.1132 -0.7390
   90SAPE  H13R 8784   6.505   6.527   5.570  1.8163  0.2936  0.4067
   90SAPE  H13S 8785   6.574   6.680   5.531  0.7773 -1.2626  0.7033
   90SAPE  C214 8786   6.360   6.646   5.490  0.2802 -0.3821  1.3138
   90SAPE  H14R 8787   6.290   6.563   5.470 -0.9438  0.5705  1.4929
   90SAPE  C215 8788   6.314   6.750   5.417 -0.1744 -0.0260 -0.6270
   90SAPE  H15R 8789   6.216   6.747   5.367 -1.0103  0.7243  0.9010
   90SAPE  C216 8790   6.396   6.880   5.401  0.4622  0.0656  0.0706
   90SAPE  H16R 8791   6.469   6.884   5.484  1.7482 -0.8637 -0.9685
   90SAPE  H16S 8792   6.327   6.967   5.401  1.5816  1.0118  1.9193
   90SAPE  C217 8793   6.477   6.885   5.268 -0.1013 -0.2036 -0.6616
   90SAPE  H17R 8794   6.557   6.807   5.270 -0.2039 -0.3209 -0.9818
   90SAPE  H17S 8795   6.533   6.981   5.270  1.1634 -0.9197  1.5125
   90SAPE  C218 8796   6.386   6.877   5.157 -0.4805 -0.1032  0.5435
   90SAPE  H18R 8797   6.301   6.946   5.177 -1.3927 -1.4838  1.6560
   90SAPE  H18S 8798   6.353   6.772   5.142 -1.6376  0.6156 -2.9482
   90SAPE  C219 8799   6.461   6.921   5.027 -0.1869 -0.1746  0.1753
   90SAPE  H19R 8800   6.412   6.874   4.939  1.1978 -1.0490 -0.1621
   90SAPE  H19S 8801   6.559   6.868   5.035  0.1755  0.4726  0.1617
   90SAPE  C220 8802   6.476   7.070   5.009 -0.1575 -0.9295 -0.0469
   90SAPE  H20R 8803   6.515   7.087   4.907 -1.7396  0.8319 -0.3843
   90SAPE  H20S 8804   6.544   7.120   5.082 -1.2902 -0.5480  0.7760
   90SAPE  H20T 8805   6.382   7.127   5.014  0.7635  0.5850  0.5788
   90SAPE   C33 8806   7.174   6.309   6.459  0.1470  0.6587  0.4382
   90SAPE   H3X 8807   7.066   6.325   6.479 -0.5433 -0.1033 -2.3244
   90SAPE   H3Y 8808   7.190   6.200   6.451  2.5989  1.0143 -0.5160
   90SAPE   C34 8809   7.201   6.371   6.323  0.2806  0.2047  0.7127
   90SAPE   H4X 8810   7.306   6.382   6.290  0.9823  1.9186  3.2434
   90SAPE   H4Y 8811   7.156   6.473   6.324  1.7320  0.8650  0.5203
   90SAPE   C35 8812   7.131   6.294   6.213  0.0766  0.6757  0.5348
   90SAPE   H5X 8813   7.021   6.287   6.229 -0.4937 -0.0227 -2.8186
   90SAPE   H5Y 8814   7.161   6.187   6.215  0.0722  0.5950 -1.4271
   90SAPE   C36 8815   7.160   6.356   6.074  0.1091  0.1934  0.9876
   90SAPE   H6X 8816   7.268   6.366   6.052 -0.0285 -1.0077 -0.4231
   90SAPE   H6Y 8817   7.124   6.461   6.073 -0.6495 -0.0591  0.3256
   90SAPE   C37 8818   7.107   6.271   5.952  0.3504  0.2267  0.2682
   90SAPE   H7X 8819   7.121   6.162   5.967 -1.9829 -0.3848 -1.4665
   90SAPE   H7Y 8820   7.172   6.300   5.867  2.3324  1.9655  2.2344
   90SAPE   C38 8821   6.960   6.298   5.926 -0.2384 -1.1420  0.6853
   90SAPE   H8X 8822   6.917   6.395   5.955  0.3812 -0.6378 -0.0202
   90SAPE   H8Y 8823   6.911   6.220   5.988 -0.4578  1.0820  3.4691
   90SAPE   C39 8824   6.903   6.278   5.782 -0.1400  0.0243  0.0844
   90SAPE   H9X 8825   6.795   6.255   5.794 -0.1518 -0.8611 -1.4490
   90SAPE   H9Y 8826   6.950   6.186   5.742  0.7855  0.0079  1.1626
   90SAPE  C310 8827   6.929   6.399   5.686  0.0505 -0.2283 -0.0729
   90SAPE  H10X 8828   7.033   6.427   5.713  0.7761 -1.8563 -1.0329
   90SAPE  H10Y 8829   6.856   6.478   5.715  1.2624  1.1384 -0.6069
   90SAPE  C311 8830   6.908   6.377   5.534 -0.5834 -0.7592  0.2232
   90SAPE  H11X 8831   6.805   6.339   5.512 -0.6820 -0.4908  0.2187
   90SAPE  H11Y 8832   6.977   6.300   5.494  1.9399  2.5098 -2.3050
   90SAPE  C312 8833   6.925   6.504   5.460 -1.1020  0.4038  0.2451
   90SAPE  H12X 8834   7.023   6.553   5.477 -0.2491 -1.7696  2.1849
   90SAPE  H12Y 8835   6.845   6.571   5.498 -3.6904 -1.6974 -1.1557
   90SAPE  C313 8836   6.914   6.489   5.313  0.2226 -0.1984  0.0155
   90SAPE  H13X 8837   6.813   6.453   5.283  1.1357 -3.8682  0.8804
   90SAPE  H13Y 8838   6.984   6.406   5.288  0.4471  0.0494 -0.1855
   90SAPE  C314 8839   6.917   6.614   5.225 -0.0379  0.2407  0.5860
   90SAPE  H14X 8840   7.014   6.669   5.229 -0.2421  0.5572  1.3634
   90SAPE  H14Y 8841   6.847   6.691   5.264 -0.6442  0.7415 -1.3650
   90SAPE  C315 8842   6.886   6.592   5.072 -0.2617  0.2818 -0.3264
   90SAPE  H15X 8843   6.942   6.505   5.031  0.4725  1.6718 -2.4821
   90SAPE  H15Y 8844   6.924   6.675   5.009 -3.1879  1.4391 -0.7273
   90SAPE  C316 8845   6.738   6.577   5.039  0.4583 -0.6533  0.5560
   90SAPE  H16X 8846   6.685   6.655   5.098 -1.4134 -0.8918 -0.7087
   90SAPE  H16Y 8847   6.707   6.476   5.075 -2.1932 -0.9479 -2.1378
   90SAPE  C317 8848   6.687   6.589   4.893 -0.3489  0.4086  0.2256
   90SAPE  H17X 8849   6.748   6.532   4.821 -1.1981 -2.3049  1.5208
   90SAPE  H17Y 8850   6.707   6.697   4.876  3.5058  0.0121  1.2923
   90SAPE  C318 8851   6.534   6.552   4.891 -0.0000 -0.3055 -0.2633
   90SAPE  H18X 8852   6.490   6.568   4.790  1.4326 -1.9124 -1.1925
   90SAPE  H18Y 8853   6.482   6.619   4.963  0.7914  1.8525 -1.5953
   90SAPE  H18Z 8854   6.525   6.444   4.915 -1.6227 -0.0053  0.6252
   91SAPE     N 8855   2.705   1.869   6.960 -0.2929  0.0953  0.1119
   91SAPE   HN1 8856   2.766   1.952   6.975 -0.7232  0.3538  0.4156
   91SAPE   HN2 8857   2.655   1.887   6.870  0.5568  1.2252 -0.1597
   91SAPE   HN3 8858   2.636   1.866   7.037 -1.1316  1.1106 -0.5641
   91SAPE   C12 8859   2.801   1.754   6.956 -0.3785 -0.1789 -0.3639
   91SAPE  H12A 8860   2.754   1.681   6.886 -0.0089  0.9362 -1.8141
   91SAPE  H12B 8861   2.804   1.718   7.062  0.4031 -0.9370 -0.6262
   91SAPE   C11 8862   2.946   1.774   6.909  0.0148  0.2719  0.2339
   91SAPE  H11A 8863   2.972   1.784   6.801  1.8406 -0.1122  0.6036
   91SAPE  H11B 8864   2.998   1.679   6.936  1.4130  1.4451  1.8895
   91SAPE     P 8865   3.007   2.022   6.954  0.0728 -0.3497 -0.2067
   91SAPE   O13 8866   2.880   2.079   7.003 -0.2007 -0.1575 -0.0421
   91SAPE   O14 8867   3.128   2.093   6.998  0.2466 -0.6084 -0.1788
   91SAPE   O12 8868   3.021   1.868   6.996  0.2060  0.3783  0.0831
   91SAPE   O11 8869   3.000   2.019   6.796  0.1450  0.4871 -0.1372
   91SAPE    C1 8870   2.936   2.120   6.718 -0.1712 -0.2003  1.0509
   91SAPE    HA 8871   2.911   2.071   6.621  2.2305 -1.2234  0.8945
   91SAPE    HB 8872   2.843   2.165   6.758 -0.8534  1.6891 -2.2420
   91SAPE    C2 8873   3.036   2.219   6.673 -0.6677  0.0076 -0.1675
   91SAPE    HS 8874   3.082   2.292   6.742  3.1492  0.4572 -2.8945
   91SAPE   O21 8875   2.977   2.291   6.564 -0.2435  0.3651 -0.0100
   91SAPE   C21 8876   2.917   2.401   6.600  0.6082 -0.4295  0.2891
   91SAPE   O22 8877   2.899   2.441   6.712  0.7244 -0.3562 -0.3520
   91SAPE   C22 8878   2.900   2.489   6.477 -0.1840  0.6575 -0.3241
   91SAPE   H2R 8879   2.964   2.451   6.395  2.7816  1.5425  1.4379
   91SAPE   H2S 8880   2.794   2.475   6.446  0.3607 -1.2164 -1.4828
   91SAPE    C3 8881   3.172   2.151   6.639  0.3733 -0.0008 -0.6927
   91SAPE    HX 8882   3.156   2.051   6.594  1.6971  0.0163 -1.2506
   91SAPE    HY 8883   3.233   2.121   6.727 -1.6796 -2.8352 -0.1012
   91SAPE   O31 8884   3.254   2.240   6.562 -0.3894  0.6455 -0.1832
   91SAPE   C31 8885   3.231   2.236   6.425 -0.2670 -0.0143 -0.2430
   91SAPE   O32 8886   3.156   2.157   6.368 -0.3356  0.3659 -0.3625
   91SAPE   C32 8887   3.301   2.353   6.364  0.2712 -0.1008  0.2458
   91SAPE   H2X 8888   3.410   2.334   6.366  0.4059  0.5737 -0.0262
   91SAPE   H2Y 8889   3.285   2.441   6.430  1.5448 -0.6945  1.4126
   91SAPE   C23 8890   2.937   2.647   6.501  0.0917  0.7740  0.5361
   91SAPE   H3R 8891   3.041   2.641   6.540  1.5880 -1.5562 -3.2451
   91SAPE   H3S 8892   2.872   2.686   6.582 -0.5527  0.7228  0.0523
   91SAPE   C24 8893   2.944   2.727   6.376  0.3472  0.3530  0.2019
   91SAPE   H4R 8894   3.018   2.680   6.308 -0.3012  0.0614 -0.3177
   91SAPE   H4S 8895   2.989   2.823   6.409 -1.0933  0.8408  0.8025
   91SAPE   C25 8896   2.814   2.754   6.311  0.1117  0.6888 -0.6110
   91SAPE   H5R 8897   2.745   2.791   6.388  0.1485 -1.5778  0.5831
   91SAPE   C26 8898   2.771   2.720   6.187  0.5507  0.2861  0.5230
   91SAPE   H6R 8899   2.665   2.744   6.166  0.8755  0.8650 -0.5461
   91SAPE   C27 8900   2.850   2.659   6.070  0.1730  0.5521  0.5290
   91SAPE   H7R 8901   2.958   2.645   6.091  1.2937  0.6925 -4.0889
   91SAPE   H7S 8902   2.850   2.726   5.981  0.0017 -0.2219 -0.0682
   91SAPE   C28 8903   2.798   2.519   6.045  0.0712  0.1944  1.1699
   91SAPE   H8R 8904   2.816   2.448   6.127  2.1017  1.5167  1.9497
   91SAPE   C29 8905   2.772   2.462   5.923 -0.1313 -0.0539 -0.5605
   91SAPE   H9R 8906   2.729   2.361   5.926 -1.3216  0.4199  2.5717
   91SAPE  C210 8907   2.779   2.539   5.788  0.4602  0.2874  0.3336
   91SAPE  H10R 8908   2.727   2.636   5.803 -0.4962  0.3357 -2.6629
   91SAPE  H10S 8909   2.730   2.483   5.706  1.7920 -1.6840  0.8063
   91SAPE  C211 8910   2.925   2.568   5.763 -0.5713  0.1500 -0.7177
   91SAPE  H11R 8911   2.994   2.566   5.848  1.1572 -4.0073 -1.9622
   91SAPE  C212 8912   2.982   2.573   5.639 -0.3398  0.3490  0.0616
   91SAPE  H12R 8913   3.090   2.594   5.633  0.1173 -1.8801 -0.1228
   91SAPE  C213 8914   2.921   2.566   5.503 -0.2681  0.0836 -0.1837
   91SAPE  H13R 8915   2.812   2.588   5.499 -0.6725 -1.8726 -1.4079
   91SAPE  H13S 8916   2.923   2.467   5.452 -0.9172 -0.1588  0.2453
   91SAPE  C214 8917   2.990   2.668   5.414 -0.1358 -0.0669 -0.3990
   91SAPE  H14R 8918   3.089   2.703   5.445  0.4262 -0.2561 -1.9161
   91SAPE  C215 8919   2.946   2.711   5.294 -0.3511  0.9084  0.3512
   91SAPE  H15R 8920   3.019   2.760   5.227 -0.2581 -1.5898 -1.5346
   91SAPE  C216 8921   2.811   2.681   5.235 -0.4785  0.2725 -0.2184
   91SAPE  H16R 8922   2.759   2.777   5.252  0.9191  0.4289  4.7052
   91SAPE  H16S 8923   2.760   2.609   5.302 -0.2548 -0.1679 -0.5171
   91SAPE  C217 8924   2.811   2.632   5.091  0.3354  1.0373  0.4843
   91SAPE  H17R 8925   2.887   2.557   5.060  1.3207  0.7899  3.2124
   91SAPE  H17S 8926   2.838   2.709   5.016  0.4781  0.9047  0.3988
   91SAPE  C218 8927   2.684   2.550   5.049 -0.0818  0.1566 -0.0007
   91SAPE  H18R 8928   2.674   2.573   4.941 -0.5291 -1.1728 -0.2650
   91SAPE  H18S 8929   2.593   2.600   5.088 -2.2658 -3.1581 -0.4170
   91SAPE  C219 8930   2.692   2.399   5.076  0.1606  0.2404  0.0984
   91SAPE  H19R 8931   2.697   2.377   5.185  1.2915  0.0603  0.0135
   91SAPE  H19S 8932   2.791   2.371   5.034  1.0798  2.4416  0.6538
   91SAPE  C220 8933   2.573   2.321   5.021 -0.1465  0.3151  0.6724
   91SAPE  H20R 8934   2.476   2.357   5.060 -0.5043  0.7622 -0.6057
   91SAPE  H20S 8935   2.575   2.214   5.054 -0.0327 -0.1997 -0.9329
   91SAPE  H20T 8936   2.575   2.329   4.910 -2.0971  0.0774  0.5964
   91SAPE   C33 8937   3.271   2.386   6.215 -0.4003 -0.5820 -0.2553
   91SAPE   H3X 8938   3.163   2.398   6.196  0.2369  1.8753 -3.0971
   91SAPE   H3Y 8939   3.318   2.312   6.146 -0.9841 -1.3074  0.1126
   91SAPE   C34 8940   3.348   2.519   6.185 -0.1640  0.0227  0.0762
   91SAPE   H4X 8941   3.448   2.514   6.233 -0.2141 -0.7872  0.1084
   91SAPE   H4Y 8942   3.298   2.599   6.243 -1.6190 -2.0864  1.8650
   91SAPE   C35 8943   3.363   2.565   6.035  0.2428 -0.0996  0.4377
   91SAPE   H5X 8944   3.440   2.645   6.029  1.0271 -0.6059  2.6800
   91SAPE   H5Y 8945   3.269   2.623   6.026  1.3945  1.8489  0.4778
   91SAPE   C36 8946   3.365   2.458   5.925  0.9596  0.1972 -0.4946
   91SAPE   H6X 8947   3.288   2.383   5.956  0.4161  1.4462  1.3782
   91SAPE   H6Y 8948   3.464   2.409   5.912  0.9881  0.2286 -0.3980
   91SAPE   C37 8949   3.325   2.520   5.791 -0.3613 -0.0776 -0.1013
   91SAPE   H7X 8950   3.229   2.570   5.819  0.6554  0.0822  3.6762
   91SAPE   H7Y 8951   3.311   2.434   5.721 -1.4197 -0.4922  0.5974
   91SAPE   C38 8952   3.418   2.629   5.727  0.6208  0.2933 -0.1460
   91SAPE   H8X 8953   3.517   2.595   5.688  0.7019  0.0487  0.2660
   91SAPE   H8Y 8954   3.433   2.705   5.807 -1.9022 -0.4894  1.1704
   91SAPE   C39 8955   3.352   2.703   5.614  0.2350  0.2803 -0.0180
   91SAPE   H9X 8956   3.418   2.792   5.602  1.4949 -0.6562 -0.2030
   91SAPE   H9Y 8957   3.247   2.732   5.638 -0.2417 -0.0823 -1.5779
   91SAPE  C310 8958   3.348   2.628   5.478 -0.0244  0.2964 -0.4698
   91SAPE  H10X 8959   3.265   2.554   5.481  1.5221 -1.4977 -0.1979
   91SAPE  H10Y 8960   3.440   2.567   5.480 -0.6733 -0.7315  2.1363
   91SAPE  C311 8961   3.341   2.716   5.359 -0.1279 -0.1569  0.0913
   91SAPE  H11X 8962   3.429   2.782   5.352  0.3254 -0.8541 -1.0685
   91SAPE  H11Y 8963   3.260   2.791   5.370  1.1162  1.1608  0.5397
   91SAPE  C312 8964   3.342   2.642   5.223  0.1541  0.4447 -0.2376
   91SAPE  H12X 8965   3.441   2.595   5.209  0.7182  1.8472 -1.1859
   91SAPE  H12Y 8966   3.337   2.708   5.133  2.5772  2.1749  0.8014
   91SAPE  C313 8967   3.239   2.526   5.203  0.9953  0.6769  0.4749
   91SAPE  H13X 8968   3.136   2.562   5.221  0.4899 -0.8408  0.7709
   91SAPE  H13Y 8969   3.250   2.444   5.278 -0.3192  0.1217  0.0909
   91SAPE  C314 8970   3.237   2.461   5.058 -0.6717  0.1989 -0.4735
   91SAPE  H14X 8971   3.160   2.504   4.991  0.8480  2.5915 -0.8143
   91SAPE  H14Y 8972   3.201   2.358   5.076 -0.7186  0.5026  1.4351
   91SAPE  C315 8973   3.375   2.464   4.985 -0.0002 -0.3623 -0.1515
   91SAPE  H15X 8974   3.421   2.563   4.971 -1.3261  0.4231  0.7933
   91SAPE  H15Y 8975   3.349   2.423   4.885  1.3951 -0.2682 -0.5679
   91SAPE  C316 8976   3.495   2.367   5.032 -0.1089  1.1833  0.2147
   91SAPE  H16X 8977   3.533   2.401   5.131 -0.2594  0.8325  0.3964
   91SAPE  H16Y 8978   3.580   2.373   4.962 -1.6183  1.0021 -1.7127
   91SAPE  C317 8979   3.448   2.219   5.047 -0.6267  0.7177 -0.5831
   91SAPE  H17X 8980   3.408   2.179   4.951  0.7488 -2.3809  0.0205
   91SAPE  H17Y 8981   3.376   2.212   5.131  0.3251  1.0798  0.2775
   91SAPE  C318 8982   3.549   2.111   5.087 -0.0903 -0.1678 -0.0254
   91SAPE  H18X 8983   3.501   2.011   5.086 -0.5076 -0.0026 -2.5181
   91SAPE  H18Y 8984   3.599   2.132   5.184 -0.5070  2.0055 -0.2354
   91SAPE  H18Z 8985   3.630   2.096   5.013  1.1143 -1.9659  1.5769
   92SAPE     N 8986   1.797   3.112   7.156 -0.2300 -0.6942 -0.3515
   92SAPE   HN1 8987   1.822   3.028   7.211  1.1316 -0.5856 -0.7664
   92SAPE   HN2 8988   1.825   3.193   7.215 -3.3984  0.7773 -0.6620
   92SAPE   HN3 8989   1.697   3.130   7.133 -0.7104 -2.8831 -0.1924
   92SAPE   C12 8990   1.874   3.123   7.026 -0.1155 -0.0649  0.6432
   92SAPE  H12A 8991   1.865   3.229   6.993 -0.8788  0.0379  1.1807
   92SAPE  H12B 8992   1.834   3.050   6.953 -0.5778 -0.1152  0.9465
   92SAPE   C11 8993   2.016   3.079   7.049 -0.4782 -0.6208 -0.2259
   92SAPE  H11A 8994   2.080   3.162   7.086  1.2406 -2.4028  1.0110
   92SAPE  H11B 8995   2.063   3.065   6.949  0.3679  2.1053 -0.2925
   92SAPE     P 8996   2.018   2.833   7.096 -0.0302  0.4286 -0.5513
   92SAPE   O13 8997   2.081   2.741   7.194  0.1452  0.4137  0.1488
   92SAPE   O14 8998   1.874   2.805   7.077  0.2969  0.7545 -0.3503
   92SAPE   O12 8999   2.035   2.975   7.144  0.0397  0.4270 -0.2568
   92SAPE   O11 9000   2.113   2.825   6.960  0.4494  0.4435  0.2874
   92SAPE    C1 9001   2.111   2.718   6.872 -0.3075  0.0010 -0.0415
   92SAPE    HA 9002   2.206   2.663   6.887 -0.4412  0.2359  1.9152
   92SAPE    HB 9003   2.024   2.653   6.898 -1.0687  1.3662  0.9728
   92SAPE    C2 9004   2.115   2.763   6.721 -0.5871 -0.6727 -0.4197
   92SAPE    HS 9005   2.155   2.681   6.659  6.4810  0.9806  1.0025
   92SAPE   O21 9006   2.215   2.872   6.702 -0.4185 -0.2061  0.8750
   92SAPE   C21 9007   2.338   2.831   6.701  0.2267 -0.0764  0.2098
   92SAPE   O22 9008   2.370   2.714   6.718  0.1175  0.1354  0.1275
   92SAPE   C22 9009   2.430   2.944   6.675  0.4698 -0.7005  0.6320
   92SAPE   H2R 9010   2.370   3.036   6.690 -0.9359 -1.7737  1.8572
   92SAPE   H2S 9011   2.505   2.953   6.756  1.3702  1.4305 -0.3560
   92SAPE    C3 9012   1.981   2.810   6.664  1.0500 -0.7623  0.6365
   92SAPE    HX 9013   1.959   2.906   6.715  0.5056 -0.2902 -0.4601
   92SAPE    HY 9014   1.907   2.731   6.686 -0.9453  1.1836  1.2679
   92SAPE   O31 9015   1.987   2.822   6.517  0.4317  0.3110  0.2904
   92SAPE   C31 9016   1.874   2.877   6.463 -0.6877  0.1386  1.0137
   92SAPE   O32 9017   1.788   2.931   6.528  0.3528  0.7562 -0.6372
   92SAPE   C32 9018   1.883   2.869   6.307 -0.1146  0.6997 -0.4325
   92SAPE   H2X 9019   1.878   2.763   6.273  0.9535  1.2170 -2.3477
   92SAPE   H2Y 9020   1.981   2.903   6.266  0.1180  0.0029 -0.4698
   92SAPE   C23 9021   2.489   2.960   6.529  0.4745  0.2848 -0.2768
   92SAPE   H3R 9022   2.409   2.937   6.455 -1.9485  4.2156  0.7965
   92SAPE   H3S 9023   2.573   2.889   6.516  2.4572  2.3626  0.6060
   92SAPE   C24 9024   2.533   3.105   6.504  0.3970  0.1582  0.4914
   92SAPE   H4R 9025   2.455   3.175   6.542 -1.4428 -1.7964  0.4564
   92SAPE   H4S 9026   2.534   3.118   6.394 -0.2339 -2.3377  0.1292
   92SAPE   C25 9027   2.671   3.123   6.569  0.5556 -0.2276 -1.3745
   92SAPE   H5R 9028   2.660   3.108   6.678 -2.2499 -1.8441 -1.7823
   92SAPE   C26 9029   2.784   3.163   6.512  0.5737  0.1834 -0.1242
   92SAPE   H6R 9030   2.875   3.166   6.573  1.9128 -1.0906 -1.9577
   92SAPE   C27 9031   2.797   3.186   6.366 -0.2832 -0.4508  0.6429
   92SAPE   H7R 9032   2.702   3.185   6.309 -0.1844  1.7863  0.3304
   92SAPE   H7S 9033   2.857   3.104   6.322 -0.4622 -0.3793  0.2662
   92SAPE   C28 9034   2.868   3.318   6.335 -0.2462  0.5529  0.7509
   92SAPE   H8R 9035   2.874   3.393   6.415  0.4373  2.2660 -0.8428
   92SAPE   C29 9036   2.921   3.361   6.216 -0.2728 -0.7502  0.9877
   92SAPE   H9R 9037   2.964   3.462   6.216 -1.9062 -0.0202  1.3258
   92SAPE  C210 9038   2.932   3.285   6.086 -0.1831  0.3233 -0.3177
   92SAPE  H10R 9039   3.036   3.296   6.049 -0.5254 -0.8904 -1.7443
   92SAPE  H10S 9040   2.867   3.332   6.010  0.2092  1.4850  0.0462
   92SAPE  C211 9041   2.914   3.136   6.078 -0.3012  0.5848  0.6039
   92SAPE  H11R 9042   3.007   3.081   6.097 -1.0952 -0.6651  1.0464
   92SAPE  C212 9043   2.818   3.072   6.013  1.0189 -0.0248  0.2787
   92SAPE  H12R 9044   2.810   2.964   6.035  0.9849  0.2452  1.6873
   92SAPE  C213 9045   2.686   3.126   5.960 -0.1506 -0.0978 -0.3954
   92SAPE  H13R 9046   2.666   3.221   6.013 -0.8473  0.1880 -1.1442
   92SAPE  H13S 9047   2.596   3.064   5.981  0.9436 -2.0153 -1.1310
   92SAPE  C214 9048   2.674   3.157   5.812 -0.0404  0.4202 -0.5186
   92SAPE  H14R 9049   2.673   3.266   5.793  0.1231  0.9579  2.1660
   92SAPE  C215 9050   2.662   3.078   5.712 -0.2046 -0.0007 -0.2613
   92SAPE  H15R 9051   2.673   3.128   5.615  1.7808 -0.6037 -0.3951
   92SAPE  C216 9052   2.632   2.926   5.723  0.0650 -0.5783  0.1624
   92SAPE  H16R 9053   2.533   2.904   5.770  0.1229  1.0442  1.1455
   92SAPE  H16S 9054   2.697   2.879   5.800 -0.2327 -0.3341  0.5704
   92SAPE  C217 9055   2.652   2.848   5.592  0.3001 -0.5025 -0.8311
   92SAPE  H17R 9056   2.635   2.738   5.594 -0.8143 -0.4131 -2.8679
   92SAPE  H17S 9057   2.759   2.866   5.567  0.2331  1.2477  0.0428
   92SAPE  C218 9058   2.573   2.895   5.476  1.2259 -0.5270 -0.6554
   92SAPE  H18R 9059   2.604   2.850   5.379  3.5585  2.0326 -1.2167
   92SAPE  H18S 9060   2.585   3.003   5.452 -0.7445 -0.3607 -1.0662
   92SAPE  C219 9061   2.415   2.877   5.485 -0.8488 -0.2876  0.3693
   92SAPE  H19R 9062   2.375   2.960   5.548  0.3178 -0.7955  1.8228
   92SAPE  H19S 9063   2.405   2.776   5.530  0.2592 -1.4745 -1.8832
   92SAPE  C220 9064   2.340   2.868   5.349  0.4653 -0.4109 -0.6655
   92SAPE  H20R 9065   2.234   2.898   5.340  0.7581  0.1752 -2.6748
   92SAPE  H20S 9066   2.357   2.763   5.314 -4.1064 -2.1168  1.4672
   92SAPE  H20T 9067   2.401   2.939   5.289  2.3122 -0.4717  1.0133
   92SAPE   C33 9068   1.769   2.957   6.233 -0.4212  0.1496 -0.0557
   92SAPE   H3X 9069   1.818   3.057   6.241 -2.7319  1.4260 -1.1072
   92SAPE   H3Y 9070   1.677   2.960   6.294  0.3287  1.1137  1.0740
   92SAPE   C34 9071   1.735   2.901   6.095 -0.4448 -0.0814 -0.0870
   92SAPE   H4X 9072   1.682   2.974   6.031 -0.0231  0.0053 -0.3396
   92SAPE   H4Y 9073   1.671   2.812   6.111 -1.1684  0.6598  1.3132
   92SAPE   C35 9074   1.853   2.864   6.008 -0.1885  0.6916  0.4714
   92SAPE   H5X 9075   1.908   2.775   6.047 -0.7761 -0.0765 -0.3867
   92SAPE   H5Y 9076   1.925   2.948   6.007  1.0177 -0.3058  1.0747
   92SAPE   C36 9077   1.819   2.829   5.868  0.1703  0.5153  0.1039
   92SAPE   H6X 9078   1.785   2.920   5.814  0.9430  1.0481  0.5040
   92SAPE   H6Y 9079   1.727   2.766   5.867 -1.2879  2.3924  2.6103
   92SAPE   C37 9080   1.930   2.773   5.779  0.1435 -0.1330  0.5262
   92SAPE   H7X 9081   1.964   2.671   5.809  2.2143  0.1903 -0.5709
   92SAPE   H7Y 9082   2.018   2.841   5.783  0.8108 -0.8972 -0.7498
   92SAPE   C38 9083   1.885   2.762   5.637 -0.5419  0.4176 -0.5132
   92SAPE   H8X 9084   1.849   2.860   5.601  1.2145  0.5692 -2.0222
   92SAPE   H8Y 9085   1.800   2.690   5.633  0.4828 -0.9003  0.3309
   92SAPE   C39 9086   2.003   2.706   5.554  0.0449 -1.1664  0.2226
   92SAPE   H9X 9087   2.019   2.611   5.608 -2.8685 -0.3514  2.8087
   92SAPE   H9Y 9088   2.095   2.769   5.562  1.2642 -2.7947 -0.3369
   92SAPE  C310 9089   1.969   2.675   5.408  0.5890 -0.7557  0.5156
   92SAPE  H10X 9090   1.903   2.587   5.390 -2.3614  1.6972 -1.5901
   92SAPE  H10Y 9091   2.069   2.650   5.367  1.1889  0.1594  1.3799
   92SAPE  C311 9092   1.910   2.796   5.325  0.1951 -0.2078  0.5705
   92SAPE  H11X 9093   1.956   2.897   5.334 -1.5692  0.8057 -1.1008
   92SAPE  H11Y 9094   1.806   2.808   5.363 -0.1314 -1.2101  0.0407
   92SAPE  C312 9095   1.899   2.760   5.173  0.8429 -0.5114  0.0926
   92SAPE  H12X 9096   1.991   2.725   5.120  1.1251  3.0891 -2.1551
   92SAPE  H12Y 9097   1.867   2.852   5.120  2.4101  1.3396  2.1706
   92SAPE  C313 9098   1.786   2.658   5.142  0.1302  0.5909  0.6287
   92SAPE  H13X 9099   1.689   2.700   5.177 -0.6299  0.9150 -1.6882
   92SAPE  H13Y 9100   1.795   2.567   5.205  1.0203  0.6329  0.5716
   92SAPE  C314 9101   1.773   2.618   4.995 -0.7870 -0.3920 -0.2122
   92SAPE  H14X 9102   1.876   2.592   4.963 -0.6246 -1.0466  0.7836
   92SAPE  H14Y 9103   1.745   2.701   4.927 -1.3786 -0.3522  0.0798
   92SAPE  C315 9104   1.679   2.501   4.975 -0.5283 -0.7362  0.2303
   92SAPE  H15X 9105   1.727   2.421   5.035 -0.2382 -0.5847  0.2040
   92SAPE  H15Y 9106   1.697   2.479   4.867 -0.4868  0.1315  0.0589
   92SAPE  C316 9107   1.529   2.521   5.011 -0.6236  0.5291  0.4561
   92SAPE  H16X 9108   1.496   2.619   4.968 -1.7344 -0.3671 -0.8061
   92SAPE  H16Y 9109   1.527   2.537   5.121 -1.8758 -2.0092  0.8640
   92SAPE  C317 9110   1.451   2.398   4.966 -0.0101  0.6452 -0.4617
   92SAPE  H17X 9111   1.503   2.314   5.016 -1.8373  1.5691  3.3050
   92SAPE  H17Y 9112   1.449   2.384   4.855 -1.7256 -2.4723 -0.1403
   92SAPE  C318 9113   1.306   2.394   5.016  0.3233 -0.0930  0.3496
   92SAPE  H18X 9114   1.251   2.314   4.962 -2.6995  2.1505 -0.1650
   92SAPE  H18Y 9115   1.257   2.487   4.980 -1.2436 -1.0056  0.0296
   92SAPE  H18Z 9116   1.298   2.376   5.126 -0.6150 -0.4483  0.2323
   93SAPE     N 9117   3.453   0.008   6.867 -0.1608  0.2100  0.4737
   93SAPE   HN1 9118   3.421  -0.087   6.841  0.0511 -1.0115  4.0566
   93SAPE   HN2 9119   3.538  -0.009   6.924 -0.8087 -4.2853  0.4479
   93SAPE   HN3 9120   3.379   0.048   6.928 -0.2420  0.6473  0.0963
   93SAPE   C12 9121   3.459   0.090   6.751 -0.2606 -0.3252  0.4767
   93SAPE  H12A 9122   3.527   0.041   6.679 -0.1734  0.7670 -0.2088
   93SAPE  H12B 9123   3.503   0.188   6.780 -0.3385 -0.3721  0.7579
   93SAPE   C11 9124   3.324   0.104   6.680 -0.9849 -0.5206 -0.0181
   93SAPE  H11A 9125   3.277   0.011   6.643  0.7986 -0.8997 -1.4664
   93SAPE  H11B 9126   3.338   0.179   6.599  1.0061  0.4796  1.1716
   93SAPE     P 9127   3.213   0.306   6.814 -0.1887 -0.5592  0.0397
   93SAPE   O13 9128   3.076   0.352   6.808 -0.3330 -0.1205 -0.1199
   93SAPE   O14 9129   3.276   0.320   6.946  0.4185 -1.2295  0.2847
   93SAPE   O12 9130   3.227   0.155   6.773  0.2020 -0.4864  0.3634
   93SAPE   O11 9131   3.299   0.387   6.709 -0.6564  0.0213 -0.1227
   93SAPE    C1 9132   3.235   0.485   6.628 -0.2243 -0.1575  0.0799
   93SAPE    HA 9133   3.145   0.448   6.575 -0.3140 -1.8791  1.3529
   93SAPE    HB 9134   3.198   0.569   6.691 -2.8818  0.3436 -1.9710
   93SAPE    C2 9135   3.332   0.537   6.518 -0.7581 -0.1729 -0.3662
   93SAPE    HS 9136   3.280   0.622   6.469  1.2387  2.3958  1.7042
   93SAPE   O21 9137   3.366   0.434   6.425 -0.1913  0.0777  0.3809
   93SAPE   C21 9138   3.265   0.421   6.331  0.0150 -0.5292  0.5895
   93SAPE   O22 9139   3.169   0.496   6.318  0.2369 -0.1058 -0.3387
   93SAPE   C22 9140   3.309   0.317   6.224 -0.2522  0.1812 -0.0389
   93SAPE   H2R 9141   3.224   0.297   6.156  0.0045 -0.3559 -0.2131
   93SAPE   H2S 9142   3.389   0.369   6.167 -0.9507  1.9113  0.4840
   93SAPE    C3 9143   3.466   0.592   6.576  0.4705 -0.6528 -0.0786
   93SAPE    HX 9144   3.499   0.528   6.661  1.3710 -0.3081 -0.1604
   93SAPE    HY 9145   3.439   0.688   6.624  1.3166 -0.1256 -0.6550
   93SAPE   O31 9146   3.570   0.610   6.481  0.0868  0.6658 -0.0858
   93SAPE   C31 9147   3.584   0.728   6.423 -0.3975  0.7275  0.2304
   93SAPE   O32 9148   3.524   0.832   6.442  0.3792 -0.0799 -0.3246
   93SAPE   C32 9149   3.700   0.717   6.326 -0.8476  0.7452  0.6440
   93SAPE   H2X 9150   3.700   0.621   6.270 -1.6113  1.9290 -1.5099
   93SAPE   H2Y 9151   3.791   0.709   6.388  1.0398  0.0197 -2.0188
   93SAPE   C23 9152   3.360   0.187   6.285  0.4459  1.3701 -0.2413
   93SAPE   H3R 9153   3.282   0.157   6.358  2.9247 -0.5406  1.8586
   93SAPE   H3S 9154   3.452   0.193   6.348  0.2297 -1.8269  0.5655
   93SAPE   C24 9155   3.413   0.082   6.186 -0.0373 -0.9166 -0.2677
   93SAPE   H4R 9156   3.459  -0.007   6.236 -0.1565 -0.8653 -0.0685
   93SAPE   H4S 9157   3.484   0.140   6.123 -1.1002 -0.3970 -1.0041
   93SAPE   C25 9158   3.299   0.032   6.107  0.3732  0.3005  0.2213
   93SAPE   H5R 9159   3.224  -0.026   6.162 -1.0182  1.3845 -0.4715
   93SAPE   C26 9160   3.276   0.042   5.977 -0.1671  0.8021  0.1287
   93SAPE   H6R 9161   3.193  -0.017   5.935 -0.2713  0.2030  1.1541
   93SAPE   C27 9162   3.357   0.112   5.873  0.0782 -0.2740  0.5504
   93SAPE   H7R 9163   3.379   0.034   5.797  0.0539 -0.2195  0.4873
   93SAPE   H7S 9164   3.456   0.154   5.898 -0.8764  2.6258 -0.1715
   93SAPE   C28 9165   3.273   0.225   5.817 -0.0173  0.4535 -0.2149
   93SAPE   H8R 9166   3.234   0.300   5.886  0.9163  2.9601 -2.2329
   93SAPE   C29 9167   3.248   0.246   5.682 -0.1498  0.5653 -0.2287
   93SAPE   H9R 9168   3.168   0.317   5.653 -1.4217  0.5117  2.7498
   93SAPE  C210 9169   3.287   0.161   5.564  0.1269 -0.3473 -0.1287
   93SAPE  H10R 9170   3.351   0.077   5.600  0.1025  0.0614  0.9226
   93SAPE  H10S 9171   3.352   0.227   5.503  0.4801 -0.2997  0.2916
   93SAPE  C211 9172   3.165   0.103   5.502 -0.3535  0.0149 -0.1071
   93SAPE  H11R 9173   3.099   0.055   5.575  2.3382 -0.9384  1.8927
   93SAPE  C212 9174   3.127   0.112   5.373 -0.2575  0.4274  0.4309
   93SAPE  H12R 9175   3.037   0.061   5.336  0.9684 -0.5024 -1.4158
   93SAPE  C213 9176   3.188   0.185   5.254 -0.1784  0.2324  0.1558
   93SAPE  H13R 9177   3.286   0.232   5.276  0.7947 -1.4968 -0.3325
   93SAPE  H13S 9178   3.115   0.262   5.220  1.1839  0.4691 -2.5001
   93SAPE  C214 9179   3.225   0.094   5.141  0.7675 -0.3337 -0.0173
   93SAPE  H14R 9180   3.333   0.073   5.145  1.0914  1.2149  0.2763
   93SAPE  C215 9181   3.150   0.066   5.036 -0.7635  0.3440 -0.1660
   93SAPE  H15R 9182   3.202   0.002   4.963  0.8251  0.1749  1.0612
   93SAPE  C216 9183   3.015   0.112   4.988 -0.0432 -0.0692 -0.0427
   93SAPE  H16R 9184   2.977   0.196   5.049  2.8459  0.9053  0.5959
   93SAPE  H16S 9185   2.935   0.035   4.985  0.2864 -0.4274  0.3595
   93SAPE  C217 9186   3.030   0.160   4.844 -0.0300 -0.6388 -0.1200
   93SAPE  H17R 9187   2.936   0.212   4.817  2.1968  2.9225 -1.7593
   93SAPE  H17S 9188   3.056   0.076   4.776  1.1393 -0.6756  0.3362
   93SAPE  C218 9189   3.133   0.273   4.831  0.1347 -0.1435 -1.1724
   93SAPE  H18R 9190   3.232   0.223   4.836  0.0277 -0.2681 -0.0728
   93SAPE  H18S 9191   3.129   0.347   4.914  2.2865  1.1438 -2.1244
   93SAPE  C219 9192   3.123   0.350   4.698 -0.4168 -0.0327 -0.5996
   93SAPE  H19R 9193   3.018   0.387   4.687 -0.0781  2.5926  3.0298
   93SAPE  H19S 9194   3.154   0.278   4.619 -0.3237 -0.9050  0.2218
   93SAPE  C220 9195   3.208   0.472   4.698 -0.3886 -0.1737  1.3462
   93SAPE  H20R 9196   3.315   0.441   4.696  0.5285  2.6386  1.8827
   93SAPE  H20S 9197   3.183   0.552   4.771  0.2743  3.0555 -1.6865
   93SAPE  H20T 9198   3.217   0.526   4.601  2.4340 -1.1970  0.9226
   93SAPE   C33 9199   3.713   0.836   6.227 -0.1706 -0.1624  0.0878
   93SAPE   H3X 9200   3.816   0.845   6.185 -0.2055  2.8000  0.3903
   93SAPE   H3Y 9201   3.709   0.932   6.283 -1.6537  0.0505 -0.3522
   93SAPE   C34 9202   3.605   0.842   6.118  0.3510  0.5860 -0.3466
   93SAPE   H4X 9203   3.614   0.943   6.071 -0.3811  1.4666  1.3106
   93SAPE   H4Y 9204   3.502   0.850   6.159 -0.2405 -0.4795 -1.5813
   93SAPE   C35 9205   3.601   0.724   6.023  0.0547  0.2545  0.4380
   93SAPE   H5X 9206   3.580   0.633   6.084  0.3436 -0.1970 -0.1238
   93SAPE   H5Y 9207   3.702   0.717   5.977 -0.3919 -1.0190 -0.3946
   93SAPE   C36 9208   3.506   0.734   5.909  0.2404  0.1017  0.1164
   93SAPE   H6X 9209   3.416   0.781   5.954 -0.9225 -1.1593 -0.8111
   93SAPE   H6Y 9210   3.475   0.632   5.876 -0.0659  0.3124 -0.2596
   93SAPE   C37 9211   3.551   0.820   5.794  0.0248 -0.7668 -0.2313
   93SAPE   H7X 9212   3.630   0.764   5.740  1.8523 -0.0476  1.5692
   93SAPE   H7Y 9213   3.593   0.917   5.829 -1.3375 -0.3119  0.2094
   93SAPE   C38 9214   3.432   0.837   5.694  0.2774  0.2092 -0.1581
   93SAPE   H8X 9215   3.374   0.928   5.721  0.0481 -0.7374  2.9082
   93SAPE   H8Y 9216   3.368   0.746   5.689  0.8788 -0.1738 -1.2962
   93SAPE   C39 9217   3.483   0.857   5.551  0.2565  0.5457 -0.2815
   93SAPE   H9X 9218   3.560   0.779   5.535 -0.6968 -0.4696 -0.0034
   93SAPE   H9Y 9219   3.529   0.959   5.549  1.2164  0.2495  2.4630
   93SAPE  C310 9220   3.378   0.844   5.440  0.3604  0.2282  0.0053
   93SAPE  H10X 9221   3.306   0.927   5.459 -1.8165 -1.4423 -0.5922
   93SAPE  H10Y 9222   3.334   0.746   5.467  1.1627 -0.3200 -0.6288
   93SAPE  C311 9223   3.445   0.854   5.305 -0.4007 -0.1118 -0.5021
   93SAPE  H11X 9224   3.512   0.769   5.281 -1.0202 -0.4697 -1.0053
   93SAPE  H11Y 9225   3.511   0.941   5.285  0.7460 -0.4520  1.4834
   93SAPE  C312 9226   3.344   0.846   5.195  0.3143  0.2696 -0.1799
   93SAPE  H12X 9227   3.300   0.947   5.184 -0.3120 -0.0024 -0.2351
   93SAPE  H12Y 9228   3.264   0.777   5.228 -1.5881  1.1487 -2.5791
   93SAPE  C313 9229   3.401   0.793   5.069  0.6945 -0.1574 -0.0487
   93SAPE  H13X 9230   3.451   0.696   5.089  2.0313  0.9939  2.6549
   93SAPE  H13Y 9231   3.465   0.864   5.012 -2.8980  1.3540 -2.5770
   93SAPE  C314 9232   3.289   0.775   4.961 -0.4580 -0.3702  0.2048
   93SAPE  H14X 9233   3.234   0.684   4.991 -0.2254 -1.3880 -2.1741
   93SAPE  H14Y 9234   3.331   0.738   4.865 -1.7668  1.6245 -1.2176
   93SAPE  C315 9235   3.183   0.890   4.952  0.2693  0.3230  0.0242
   93SAPE  H15X 9236   3.228   0.987   4.924 -0.9451  0.6973 -0.6831
   93SAPE  H15Y 9237   3.135   0.895   5.052  2.8253  0.7372  1.3236
   93SAPE  C316 9238   3.086   0.850   4.838 -0.4327  0.1173 -0.4073
   93SAPE  H16X 9239   3.043   0.753   4.873  0.4433 -0.1495 -0.0521
   93SAPE  H16Y 9240   3.137   0.840   4.740 -1.4151  3.5708 -1.4190
   93SAPE  C317 9241   2.969   0.940   4.830  0.0710  0.4698 -0.3747
   93SAPE  H17X 9242   2.918   0.958   4.927  0.5631  2.5876 -0.4696
   93SAPE  H17Y 9243   2.900   0.901   4.752  1.3750 -0.0959 -1.2979
   93SAPE  C318 9244   2.999   1.074   4.768  0.1902 -0.1317 -0.2442
   93SAPE  H18X 9245   3.070   1.132   4.831 -1.4445  1.1695  0.4611
   93SAPE  H18Y 9246   2.911   1.139   4.748  0.1098 -0.1136  0.1625
   93SAPE  H18Z 9247   3.051   1.059   4.671  0.2749 -0.9546 -0.0808
   94SAPE     N 9248   4.522   4.184   7.231  0.2824 -0.3131 -0.9480
   94SAPE   HN1 9249   4.509   4.286   7.223 -0.2636 -0.3488 -0.5536
   94SAPE   HN2 9250   4.426   4.145   7.229 -1.1373  2.6094  2.2278
   94SAPE   HN3 9251   4.571   4.166   7.321 -1.2238  1.0757  0.1947
   94SAPE   C12 9252   4.614   4.142   7.117  0.4941  0.1848 -0.6961
   94SAPE  H12A 9253   4.597   4.033   7.105  0.1272  0.1173  0.3426
   94SAPE  H12B 9254   4.717   4.149   7.157 -0.3590  2.9816  1.3681
   94SAPE   C11 9255   4.585   4.239   6.993  0.0715 -0.4178  0.6280
   94SAPE  H11A 9256   4.637   4.216   6.898  0.0541  0.9079  0.2754
   94SAPE  H11B 9257   4.635   4.333   7.025 -1.2420  1.2088 -1.7963
   94SAPE     P 9258   4.358   4.214   6.853  0.5949 -0.1587  0.4455
   94SAPE   O13 9259   4.344   4.060   6.865 -0.5789 -0.4086  1.0037
   94SAPE   O14 9260   4.230   4.289   6.855 -0.2824 -0.3888  0.1538
   94SAPE   O12 9261   4.448   4.268   6.968  0.0854  0.3486 -0.3181
   94SAPE   O11 9262   4.434   4.250   6.724 -0.5450 -0.6160  0.4346
   94SAPE    C1 9263   4.426   4.382   6.656 -0.4936  0.1783  0.3015
   94SAPE    HA 9264   4.323   4.404   6.621  0.0381  1.5506 -0.4584
   94SAPE    HB 9265   4.463   4.466   6.718  0.3500 -0.1286  0.2337
   94SAPE    C2 9266   4.528   4.378   6.529  0.0571 -0.9490 -0.2996
   94SAPE    HS 9267   4.553   4.484   6.506 -0.7343 -0.4919  0.8481
   94SAPE   O21 9268   4.454   4.314   6.423 -0.0547 -0.4639 -0.1948
   94SAPE   C21 9269   4.481   4.357   6.302  0.3135  0.4688  0.2924
   94SAPE   O22 9270   4.555   4.448   6.269  0.1443 -0.1358  0.3239
   94SAPE   C22 9271   4.419   4.259   6.197 -0.3097 -0.7627 -0.2774
   94SAPE   H2R 9272   4.451   4.163   6.242  1.1016 -1.1209 -1.9203
   94SAPE   H2S 9273   4.309   4.260   6.212 -0.2790  1.3418  0.1797
   94SAPE    C3 9274   4.660   4.313   6.577 -0.1881  0.6793  0.4338
   94SAPE    HX 9275   4.627   4.208   6.594  0.0791  0.6648  0.8725
   94SAPE    HY 9276   4.693   4.353   6.675  1.5057 -2.4976  1.2879
   94SAPE   O31 9277   4.760   4.312   6.473  0.2447 -0.2328  0.7086
   94SAPE   C31 9278   4.842   4.416   6.472  0.3385 -0.2838 -0.3495
   94SAPE   O32 9279   4.854   4.499   6.564 -0.2076 -0.3589  0.1510
   94SAPE   C32 9280   4.914   4.415   6.339 -0.3228  0.0590 -0.3900
   94SAPE   H2X 9281   4.877   4.334   6.273 -1.1561  0.8037 -0.8655
   94SAPE   H2Y 9282   5.022   4.408   6.366 -0.2873  0.6014 -0.3885
   94SAPE   C23 9283   4.471   4.286   6.052  0.0778  0.2822 -0.0574
   94SAPE   H3R 9284   4.425   4.204   5.993  0.7752  0.5682 -1.0125
   94SAPE   H3S 9285   4.582   4.274   6.049  0.0478 -0.5907  1.4277
   94SAPE   C24 9286   4.423   4.417   5.987  0.6815  0.3323 -0.3100
   94SAPE   H4R 9287   4.486   4.435   5.897  2.6118 -0.7421  0.7454
   94SAPE   H4S 9288   4.445   4.502   6.056 -1.7857  1.2693 -0.5746
   94SAPE   C25 9289   4.274   4.423   5.958  0.2453 -0.2521 -0.5756
   94SAPE   H5R 9290   4.210   4.401   6.045 -0.7988  2.1326 -0.6831
   94SAPE   C26 9291   4.206   4.426   5.847 -0.4698 -0.4536  0.0561
   94SAPE   H6R 9292   4.097   4.435   5.855 -0.4907  0.1718 -0.7962
   94SAPE   C27 9293   4.270   4.437   5.708  0.1298  0.3320  0.0136
   94SAPE   H7R 9294   4.295   4.332   5.684 -1.6063 -0.2573  0.6247
   94SAPE   H7S 9295   4.366   4.492   5.714 -0.1607  0.7059  1.9582
   94SAPE   C28 9296   4.191   4.517   5.608  0.1784  0.6610  1.1045
   94SAPE   H8R 9297   4.105   4.571   5.651 -1.1793 -0.4327 -0.1648
   94SAPE   C29 9298   4.187   4.499   5.477  0.2928  0.1447  0.4579
   94SAPE   H9R 9299   4.105   4.546   5.419  0.0674  0.0024  0.6621
   94SAPE  C210 9300   4.268   4.407   5.401  0.0255 -0.0125  0.2289
   94SAPE  H10R 9301   4.199   4.323   5.379 -0.8536  0.2752  1.7815
   94SAPE  H10S 9302   4.353   4.371   5.463 -1.3103  1.1198  2.8880
   94SAPE  C211 9303   4.314   4.473   5.276  0.4637 -0.4273  0.3778
   94SAPE  H11R 9304   4.389   4.548   5.302 -0.0415 -0.7215  2.9129
   94SAPE  C212 9305   4.266   4.467   5.147  0.0086 -0.0298 -0.4618
   94SAPE  H12R 9306   4.313   4.531   5.072 -1.2874  0.9301 -0.4897
   94SAPE  C213 9307   4.157   4.377   5.105  0.8375  0.7467 -0.1127
   94SAPE  H13R 9308   4.114   4.314   5.186  0.9083 -0.1921 -0.7899
   94SAPE  H13S 9309   4.210   4.311   5.034  1.2866  1.9389 -0.9186
   94SAPE  C214 9310   4.039   4.447   5.038  0.4417 -0.0900  0.0820
   94SAPE  H14R 9311   4.029   4.554   5.066  0.3387 -0.0013 -0.2889
   94SAPE  C215 9312   3.952   4.407   4.950  0.4670  0.1652 -0.3438
   94SAPE  H15R 9313   3.884   4.484   4.912  3.1909  2.7003 -0.4181
   94SAPE  C216 9314   3.932   4.273   4.889 -0.4003 -0.5216  0.1703
   94SAPE  H16R 9315   3.834   4.235   4.923  0.2443 -1.3347  1.1895
   94SAPE  H16S 9316   4.019   4.207   4.911 -0.2159 -0.4837 -0.4437
   94SAPE  C217 9317   3.945   4.282   4.736  0.4543  0.0233 -0.2670
   94SAPE  H17R 9318   4.041   4.328   4.703 -0.4589  0.2115 -2.8969
   94SAPE  H17S 9319   3.859   4.339   4.696 -0.2050 -0.9818 -0.3117
   94SAPE  C218 9320   3.932   4.146   4.671 -0.5063  0.7625  0.4832
   94SAPE  H18R 9321   3.839   4.096   4.706  0.1678 -0.4058  0.6889
   94SAPE  H18S 9322   4.013   4.079   4.706  0.9521  1.8652 -0.6341
   94SAPE  C219 9323   3.932   4.170   4.517 -0.4283 -0.2432 -0.8561
   94SAPE  H19R 9324   4.030   4.216   4.490 -1.1734  0.4633 -2.4745
   94SAPE  H19S 9325   3.847   4.235   4.490  1.1591  0.9298 -3.4383
   94SAPE  C220 9326   3.913   4.049   4.426  0.4017  0.1392  0.0519
   94SAPE  H20R 9327   3.812   4.004   4.442 -0.1889  0.3192 -2.5967
   94SAPE  H20S 9328   3.993   3.973   4.439 -0.5183 -0.7691  0.5372
   94SAPE  H20T 9329   3.928   4.078   4.319  1.3339  0.5097  0.2755
   94SAPE   C33 9330   4.885   4.554   6.274  0.0647 -0.5519  0.1778
   94SAPE   H3X 9331   4.885   4.625   6.359  1.5180  0.6171 -0.7440
   94SAPE   H3Y 9332   4.793   4.548   6.212 -0.2481  1.0022  0.4575
   94SAPE   C34 9333   5.005   4.606   6.190  0.2772  0.4439 -0.3153
   94SAPE   H4X 9334   5.084   4.648   6.255 -0.8796  0.3112  1.2283
   94SAPE   H4Y 9335   4.973   4.691   6.125  1.5802  1.7324  0.6586
   94SAPE   C35 9336   5.066   4.505   6.087 -0.3707  0.9955 -0.0955
   94SAPE   H5X 9337   5.105   4.423   6.151 -2.5980 -1.0483 -1.2056
   94SAPE   H5Y 9338   5.156   4.557   6.047  1.2316 -2.8349 -1.9809
   94SAPE   C36 9339   4.980   4.444   5.976 -0.3231  0.1585 -0.1436
   94SAPE   H6X 9340   4.901   4.391   6.032 -0.4137  0.6982  0.2488
   94SAPE   H6Y 9341   5.047   4.370   5.927 -1.5444  0.0615 -1.7300
   94SAPE   C37 9342   4.908   4.525   5.870 -0.3986  0.7080 -0.5320
   94SAPE   H7X 9343   4.984   4.570   5.802  3.1545  2.2873  3.9369
   94SAPE   H7Y 9344   4.875   4.617   5.923 -1.3731  0.5225 -0.8024
   94SAPE   C38 9345   4.795   4.454   5.792 -0.4167 -0.3286  0.2917
   94SAPE   H8X 9346   4.721   4.434   5.872 -1.2105 -0.6242 -0.4938
   94SAPE   H8Y 9347   4.832   4.356   5.755 -0.4700 -0.4121  0.4612
   94SAPE   C39 9348   4.735   4.532   5.671  0.3047 -0.4701  0.5187
   94SAPE   H9X 9349   4.679   4.458   5.610 -2.3723  1.6637  0.1975
   94SAPE   H9Y 9350   4.824   4.562   5.612  1.4500  0.9114  2.8284
   94SAPE  C310 9351   4.657   4.658   5.715  0.1881  0.6280  0.2094
   94SAPE  H10X 9352   4.727   4.729   5.765 -1.6184  2.0005  0.9530
   94SAPE  H10Y 9353   4.578   4.633   5.789 -0.8368  2.4123 -0.2149
   94SAPE  C311 9354   4.588   4.737   5.603 -0.2760 -0.8222  0.5697
   94SAPE  H11X 9355   4.516   4.671   5.550  0.2516  1.4578 -3.3420
   94SAPE  H11Y 9356   4.669   4.761   5.530 -1.5342  2.5134  0.1013
   94SAPE  C312 9357   4.517   4.872   5.648 -0.7641  0.1168 -0.1464
   94SAPE  H12X 9358   4.579   4.943   5.707 -1.7598  0.7039  0.2098
   94SAPE  H12Y 9359   4.443   4.834   5.722 -0.8267 -1.5110 -0.9877
   94SAPE  C313 9360   4.458   4.943   5.530 -0.9692  0.3473 -0.2721
   94SAPE  H13X 9361   4.533   4.971   5.453  0.7923  3.0997  2.2206
   94SAPE  H13Y 9362   4.402   5.027   5.576  0.2990 -0.3011  2.7077
   94SAPE  C314 9363   4.349   4.853   5.460 -0.2872 -0.7077 -0.2937
   94SAPE  H14X 9364   4.254   4.858   5.518 -0.2891 -1.2204 -0.2427
   94SAPE  H14Y 9365   4.363   4.743   5.456  2.4070 -0.5316  1.9520
   94SAPE  C315 9366   4.323   4.890   5.316  0.7206 -0.2189  0.0045
   94SAPE  H15X 9367   4.294   4.997   5.310 -0.1940 -0.4852 -0.6602
   94SAPE  H15Y 9368   4.227   4.839   5.295 -0.9251  0.8249  3.9130
   94SAPE  C316 9369   4.431   4.857   5.218 -0.6784  0.2579  0.3533
   94SAPE  H16X 9370   4.453   4.749   5.226 -0.2083 -0.2025 -4.3993
   94SAPE  H16Y 9371   4.516   4.924   5.244  0.7986 -1.1801 -0.6361
   94SAPE  C317 9372   4.392   4.891   5.066  0.0131  0.5614  0.0035
   94SAPE  H17X 9373   4.348   4.993   5.060  0.2683  0.6052 -1.3615
   94SAPE  H17Y 9374   4.313   4.819   5.037 -0.2896  0.5326  0.8661
   94SAPE  C318 9375   4.504   4.883   4.963  0.0741  0.3770 -0.6197
   94SAPE  H18X 9376   4.588   4.952   4.985 -0.2327  0.0649  1.8073
   94SAPE  H18Y 9377   4.484   4.904   4.856  3.8819 -0.6899 -1.7152
   94SAPE  H18Z 9378   4.538   4.777   4.961  0.5295  0.4663  0.9656
   95SAPE     N 9379   5.526   2.251   7.361  0.0455 -0.1440  0.1780
   95SAPE   HN1 9380   5.500   2.153   7.384  1.5449 -0.4111  0.8617
   95SAPE   HN2 9381   5.617   2.250   7.311 -0.7928 -0.5092 -1.3998
   95SAPE   HN3 9382   5.548   2.283   7.458  1.4848  0.5298 -0.3422
   95SAPE   C12 9383   5.422   2.333   7.276 -0.4068 -0.1056 -0.1659
   95SAPE  H12A 9384   5.441   2.441   7.295 -0.7363 -0.2626  1.1514
   95SAPE  H12B 9385   5.327   2.304   7.325 -0.6920  0.0456 -0.6273
   95SAPE   C11 9386   5.430   2.296   7.123  0.6592  0.3021 -0.3266
   95SAPE  H11A 9387   5.334   2.320   7.072  2.0578  0.2742 -3.1269
   95SAPE  H11B 9388   5.422   2.187   7.107  0.7981  0.3976 -1.0777
   95SAPE     P 9389   5.688   2.292   7.053 -0.2823  0.0739 -0.3213
   95SAPE   O13 9390   5.785   2.408   7.028 -0.2119  0.0333 -0.6383
   95SAPE   O14 9391   5.716   2.210   7.173 -0.0308  0.2710  0.0179
   95SAPE   O12 9392   5.542   2.352   7.058  0.3898  0.3064  0.6517
   95SAPE   O11 9393   5.696   2.199   6.925 -0.3741  0.6776 -0.1361
   95SAPE    C1 9394   5.593   2.196   6.824  0.4722 -0.1695  0.0789
   95SAPE    HA 9395   5.503   2.157   6.876  2.3889 -1.9129  2.2703
   95SAPE    HB 9396   5.568   2.295   6.779 -1.9480 -2.0394 -3.0796
   95SAPE    C2 9397   5.622   2.102   6.704  0.2520 -0.0613  0.7403
   95SAPE    HS 9398   5.525   2.080   6.655 -0.0232  1.1876  0.6905
   95SAPE   O21 9399   5.682   1.979   6.752  0.4109 -0.1421 -0.4346
   95SAPE   C21 9400   5.600   1.892   6.814 -0.5323  0.4163  0.9145
   95SAPE   O22 9401   5.477   1.903   6.810  0.0390 -0.2345 -0.0866
   95SAPE   C22 9402   5.683   1.779   6.859  0.2287  0.5983  0.0924
   95SAPE   H2R 9403   5.791   1.804   6.862  0.2989  0.2480  1.9547
   95SAPE   H2S 9404   5.669   1.758   6.968  0.8707 -1.2983 -0.1516
   95SAPE    C3 9405   5.711   2.178   6.597  0.4527 -0.0973 -0.1737
   95SAPE    HX 9406   5.815   2.195   6.634  0.5049 -1.6743  0.5067
   95SAPE    HY 9407   5.670   2.278   6.574  1.2850  0.5000  0.8887
   95SAPE   O31 9408   5.711   2.091   6.482 -0.2824 -0.4354  0.3791
   95SAPE   C31 9409   5.825   2.039   6.446 -0.7998 -0.7717  0.1717
   95SAPE   O32 9410   5.936   2.070   6.488  0.0824  0.3845  0.5982
   95SAPE   C32 9411   5.811   1.923   6.348  0.3601  0.4746 -0.1944
   95SAPE   H2X 9412   5.761   1.848   6.412  1.4623  0.1777  0.3381
   95SAPE   H2Y 9413   5.913   1.887   6.322  0.7851  1.3233  0.2678
   95SAPE   C23 9414   5.645   1.644   6.787  0.2673 -0.2367  1.0414
   95SAPE   H3R 9415   5.539   1.628   6.815 -0.1141 -0.0614 -0.2582
   95SAPE   H3S 9416   5.704   1.561   6.832  1.3607 -1.4541 -2.3459
   95SAPE   C24 9417   5.680   1.658   6.642  0.3896 -0.0799 -0.1937
   95SAPE   H4R 9418   5.791   1.666   6.640  0.4893 -1.3249 -1.8353
   95SAPE   H4S 9419   5.624   1.746   6.604  1.2947  0.6651  0.1531
   95SAPE   C25 9420   5.646   1.548   6.548  0.1500 -0.2904 -0.2878
   95SAPE   H5R 9421   5.552   1.496   6.568  0.9287 -0.7697  2.5339
   95SAPE   C26 9422   5.720   1.503   6.441 -0.2297  0.7777 -0.2347
   95SAPE   H6R 9423   5.668   1.431   6.376  0.5615 -0.6996  0.7279
   95SAPE   C27 9424   5.862   1.546   6.398  0.1528 -0.5070  0.4392
   95SAPE   H7R 9425   5.929   1.584   6.478 -0.1148  0.6241  0.1474
   95SAPE   H7S 9426   5.832   1.634   6.337 -1.6507 -0.9061  0.6729
   95SAPE   C28 9427   5.923   1.438   6.315 -0.0668  0.4907  0.0831
   95SAPE   H8R 9428   5.926   1.343   6.371 -3.2431  1.3946  2.0680
   95SAPE   C29 9429   5.946   1.429   6.179  0.0259 -0.3420  0.1290
   95SAPE   H9R 9430   5.997   1.339   6.141  1.6256  1.2354 -1.6636
   95SAPE  C210 9431   5.917   1.542   6.085 -0.4197  0.0958 -0.7048
   95SAPE  H10R 9432   5.991   1.542   6.002  0.9277  0.3062  0.4482
   95SAPE  H10S 9433   5.924   1.645   6.127  0.0483 -0.5433  0.8290
   95SAPE  C211 9434   5.772   1.527   6.037 -0.1357  0.3654  0.1559
   95SAPE  H11R 9435   5.704   1.483   6.112  0.0300  2.2868  1.4928
   95SAPE  C212 9436   5.720   1.575   5.920 -0.8195  0.5670 -0.9072
   95SAPE  H12R 9437   5.619   1.548   5.886 -0.8007  1.1446 -1.4551
   95SAPE  C213 9438   5.797   1.655   5.816  0.1301  0.3324 -0.3649
   95SAPE  H13R 9439   5.876   1.727   5.847  0.3412  0.3449 -0.9133
   95SAPE  H13S 9440   5.721   1.729   5.780  0.7103  1.7665  1.2115
   95SAPE  C214 9441   5.852   1.573   5.701 -0.1817  0.2185 -0.1927
   95SAPE  H14R 9442   5.885   1.468   5.707  2.3247  0.8578 -1.5138
   95SAPE  C215 9443   5.848   1.621   5.571 -0.9747  0.5680 -0.3025
   95SAPE  H15R 9444   5.883   1.559   5.488 -0.2599 -0.6504  0.8664
   95SAPE  C216 9445   5.816   1.760   5.528 -0.1321 -0.9853  0.8903
   95SAPE  H16R 9446   5.724   1.799   5.576 -1.7904 -3.6298  0.0606
   95SAPE  H16S 9447   5.783   1.754   5.422  0.8950 -1.5178  0.5843
   95SAPE  C217 9448   5.919   1.866   5.532 -0.4531  0.4233 -0.0941
   95SAPE  H17R 9449   5.965   1.887   5.631 -1.1102  1.4160  0.0182
   95SAPE  H17S 9450   5.876   1.963   5.497 -0.8967  0.0653 -0.5498
   95SAPE  C218 9451   6.025   1.844   5.428 -0.5547 -0.2612 -0.1015
   95SAPE  H18R 9452   5.979   1.841   5.327  1.7588  0.8098 -1.2828
   95SAPE  H18S 9453   6.076   1.747   5.445  0.7029 -0.0114 -2.1493
   95SAPE  C219 9454   6.130   1.955   5.406  0.6597 -0.0437  0.1066
   95SAPE  H19R 9455   6.204   1.904   5.340 -0.8713  2.2022 -3.6912
   95SAPE  H19S 9456   6.179   1.975   5.504  0.1164  0.9104  0.1944
   95SAPE  C220 9457   6.087   2.078   5.329  0.6572  0.3634  0.0696
   95SAPE  H20R 9458   6.167   2.151   5.304 -0.9384  1.5058 -2.0072
   95SAPE  H20S 9459   5.998   2.124   5.379  0.1474  0.9610 -1.3556
   95SAPE  H20T 9460   6.049   2.053   5.228 -2.1626 -1.4591  1.4128
   95SAPE   C33 9461   5.735   1.971   6.225 -0.3260  1.2232 -0.5591
   95SAPE   H3X 9462   5.687   2.070   6.233 -1.0623  0.8184  0.2009
   95SAPE   H3Y 9463   5.660   1.893   6.202  1.2169 -0.5084  0.0065
   95SAPE   C34 9464   5.825   1.986   6.106  0.4925  0.5544  0.5040
   95SAPE   H4X 9465   5.890   1.896   6.107  1.1662  0.9736 -1.3592
   95SAPE   H4Y 9466   5.887   2.078   6.108 -1.2607  1.8036 -0.0961
   95SAPE   C35 9467   5.747   1.980   5.965  0.8050 -0.7571  0.4396
   95SAPE   H5X 9468   5.681   1.891   5.959 -1.2654  0.7845 -0.9062
   95SAPE   H5Y 9469   5.823   1.972   5.885  0.1738  0.9410 -0.3687
   95SAPE   C36 9470   5.666   2.104   5.936  1.0810 -0.3165 -0.3193
   95SAPE   H6X 9471   5.570   2.112   5.992  2.2095  0.4711  1.5816
   95SAPE   H6Y 9472   5.641   2.108   5.827 -3.2503 -1.1826  0.4423
   95SAPE   C37 9473   5.748   2.238   5.964  0.1920  0.3813 -0.9606
   95SAPE   H7X 9474   5.851   2.233   5.921  0.7517  1.1325  0.2334
   95SAPE   H7Y 9475   5.774   2.264   6.069  0.6373 -1.3047 -0.6213
   95SAPE   C38 9476   5.680   2.365   5.910 -0.4497  0.3404 -0.0122
   95SAPE   H8X 9477   5.730   2.452   5.956 -3.2553  1.0989  1.8455
   95SAPE   H8Y 9478   5.572   2.359   5.939 -0.0826 -0.4278  1.2922
   95SAPE   C39 9479   5.707   2.381   5.754  0.0658  0.1974  0.2484
   95SAPE   H9X 9480   5.647   2.305   5.700 -0.6628  2.0321 -1.6612
   95SAPE   H9Y 9481   5.813   2.360   5.728  0.2310  0.2754  0.8320
   95SAPE  C310 9482   5.650   2.511   5.701  0.6006 -0.9264  0.1656
   95SAPE  H10X 9483   5.701   2.594   5.756  3.6502 -2.4309 -0.1682
   95SAPE  H10Y 9484   5.539   2.515   5.710  0.3304 -0.6025 -2.5412
   95SAPE  C311 9485   5.676   2.535   5.552  0.4293 -0.0227 -0.0117
   95SAPE  H11X 9486   5.612   2.470   5.490 -1.7157  3.1572 -1.3430
   95SAPE  H11Y 9487   5.785   2.512   5.549  0.6092  0.7992 -0.0133
   95SAPE  C312 9488   5.640   2.674   5.492  0.1019  0.3536  0.4844
   95SAPE  H12X 9489   5.665   2.671   5.384 -0.9444  2.3718  0.1413
   95SAPE  H12Y 9490   5.707   2.753   5.534  0.6109  0.2400 -0.1026
   95SAPE  C313 9491   5.488   2.715   5.477  0.5875  0.2800  0.3342
   95SAPE  H13X 9492   5.438   2.715   5.576 -1.5578  0.2686 -0.6996
   95SAPE  H13Y 9493   5.444   2.636   5.412  0.4347  0.4760  0.1986
   95SAPE  C314 9494   5.460   2.856   5.414  0.2772  0.5484 -0.4519
   95SAPE  H14X 9495   5.509   2.937   5.472 -0.6426  1.4513 -0.9305
   95SAPE  H14Y 9496   5.352   2.879   5.424  0.8863  3.8140 -0.5497
   95SAPE  C315 9497   5.508   2.862   5.267 -0.0664  0.0115  1.1124
   95SAPE  H15X 9498   5.450   2.795   5.199  0.1999  0.7173  0.1679
   95SAPE  H15Y 9499   5.617   2.842   5.263 -0.2241 -0.7594  0.2489
   95SAPE  C316 9500   5.507   3.005   5.201 -0.6916  0.4139 -0.3169
   95SAPE  H16X 9501   5.556   3.076   5.271 -0.9212 -0.8220  1.1720
   95SAPE  H16Y 9502   5.400   3.036   5.195  0.1466  3.3238 -2.1623
   95SAPE  C317 9503   5.565   3.016   5.063  0.2223 -0.5014  0.7447
   95SAPE  H17X 9504   5.497   2.965   4.992 -2.8941  3.6444  0.4205
   95SAPE  H17Y 9505   5.668   2.975   5.053 -0.0730 -1.1660  0.3609
   95SAPE  C318 9506   5.573   3.164   5.019 -0.0407  1.3017 -0.2211
   95SAPE  H18X 9507   5.474   3.215   5.021 -0.8923 -0.2468  2.2250
   95SAPE  H18Y 9508   5.611   3.177   4.916 -1.8388  1.6432 -0.8795
   95SAPE  H18Z 9509   5.636   3.220   5.090  0.0026  0.1577  0.6726
   96SAPE     N 9510   4.123   4.524   6.927  0.2500  0.7600  0.2895
   96SAPE   HN1 9511   4.183   4.441   6.908 -0.9247 -0.1075  0.2341
   96SAPE   HN2 9512   4.098   4.575   6.840  0.4150  0.0154 -0.2031
   96SAPE   HN3 9513   4.189   4.588   6.976 -2.1844  2.0173  2.1353
   96SAPE   C12 9514   4.008   4.484   7.019 -0.9289 -1.2368  0.1924
   96SAPE  H12A 9515   4.021   4.378   7.049  3.0836 -1.7099 -2.5057
   96SAPE  H12B 9516   3.915   4.505   6.962  0.0885  0.1943 -1.0067
   96SAPE   C11 9517   4.005   4.593   7.133 -0.3498 -0.4887  0.0904
   96SAPE  H11A 9518   4.099   4.592   7.193  0.9001 -0.9854 -1.7959
   96SAPE  H11B 9519   3.933   4.542   7.200 -0.9411 -0.3531 -0.4294
   96SAPE     P 9520   4.011   4.865   7.118  0.0762  0.1460  0.0994
   96SAPE   O13 9521   3.996   4.867   7.263 -0.7204 -0.4056  0.7919
   96SAPE   O14 9522   4.153   4.878   7.072  0.5239 -0.8133 -0.2623
   96SAPE   O12 9523   3.958   4.719   7.078  0.3066  0.1586 -0.0775
   96SAPE   O11 9524   3.907   4.968   7.044  0.5307  0.1798  0.2006
   96SAPE    C1 9525   3.813   4.918   6.946 -0.4337 -0.2796  0.9309
   96SAPE    HA 9526   3.761   4.824   6.976 -0.1472 -0.8394 -0.2776
   96SAPE    HB 9527   3.725   4.986   6.940 -1.5477 -1.6925  0.5880
   96SAPE    C2 9528   3.876   4.896   6.807 -0.0843 -0.3968 -0.1385
   96SAPE    HS 9529   3.961   4.828   6.829  0.2627  1.0187  3.7383
   96SAPE   O21 9530   3.909   5.026   6.752  0.4401 -0.0907 -0.8152
   96SAPE   C21 9531   4.033   5.039   6.708 -0.4321 -0.7208 -0.2510
   96SAPE   O22 9532   4.122   4.955   6.730 -0.5038  0.5310  0.2508
   96SAPE   C22 9533   4.045   5.168   6.633  0.2171  0.8214  0.4557
   96SAPE   H2R 9534   4.013   5.250   6.702 -0.0199 -0.1123  1.4837
   96SAPE   H2S 9535   4.153   5.174   6.609  0.0991  0.6737 -0.1430
   96SAPE    C3 9536   3.784   4.824   6.706  0.0132  0.5564  0.7840
   96SAPE    HX 9537   3.718   4.902   6.662  1.3539 -0.2429 -3.0190
   96SAPE    HY 9538   3.729   4.745   6.761 -0.5719  1.7115  1.9213
   96SAPE   O31 9539   3.851   4.776   6.587  0.0609 -0.0492  0.1591
   96SAPE   C31 9540   3.943   4.679   6.610  0.9126  0.7162 -0.0709
   96SAPE   O32 9541   3.951   4.618   6.715  0.5914  0.2376  0.5291
   96SAPE   C32 9542   4.002   4.631   6.481  0.0870  0.0325  0.0295
   96SAPE   H2X 9543   4.009   4.521   6.498 -1.0922 -0.3588 -1.7282
   96SAPE   H2Y 9544   4.108   4.661   6.472  0.1554  0.4442  1.8076
   96SAPE   C23 9545   3.940   5.171   6.509  0.3675  0.4924 -0.0301
   96SAPE   H3R 9546   3.836   5.195   6.537  0.3082 -1.1596  1.3304
   96SAPE   H3S 9547   3.946   5.069   6.466  0.0794  0.7029 -0.5799
   96SAPE   C24 9548   3.982   5.260   6.392  0.6268  0.0159 -0.6391
   96SAPE   H4R 9549   4.093   5.258   6.391  0.6429 -1.2943  0.7374
   96SAPE   H4S 9550   3.957   5.367   6.409 -3.3326 -0.6366 -1.4592
   96SAPE   C25 9551   3.921   5.226   6.261  0.2377  0.0810  0.5646
   96SAPE   H5R 9552   3.813   5.241   6.247  0.2368 -0.7400 -0.4508
   96SAPE   C26 9553   3.976   5.155   6.156 -0.5718 -0.4902  0.7233
   96SAPE   H6R 9554   3.921   5.149   6.061  1.1728 -0.0868 -0.3630
   96SAPE   C27 9555   4.123   5.116   6.141 -0.5723  0.1089  0.0174
   96SAPE   H7R 9556   4.122   5.048   6.054  1.5996  2.0521 -1.6581
   96SAPE   H7S 9557   4.152   5.055   6.230  2.6823  1.2223 -0.1520
   96SAPE   C28 9558   4.230   5.220   6.129 -0.5042 -1.4454  0.3898
   96SAPE   H8R 9559   4.257   5.265   6.226 -2.3819  3.6863 -1.1581
   96SAPE   C29 9560   4.283   5.283   6.021  0.1894 -0.7787 -0.1218
   96SAPE   H9R 9561   4.348   5.371   6.035  0.4142 -1.0281  0.4233
   96SAPE  C210 9562   4.251   5.245   5.878  0.2137 -0.2988  0.4480
   96SAPE  H10R 9563   4.240   5.136   5.857 -1.1325 -0.1205  0.0937
   96SAPE  H10S 9564   4.335   5.273   5.811  0.1388 -0.5187  0.2596
   96SAPE  C211 9565   4.114   5.295   5.825 -0.0779  0.2163 -0.1352
   96SAPE  H11R 9566   4.035   5.318   5.899 -1.5190  1.8288 -2.0750
   96SAPE  C212 9567   4.079   5.319   5.699 -0.5856  0.3117  0.6797
   96SAPE  H12R 9568   3.979   5.358   5.674 -0.3040 -0.7205 -2.4845
   96SAPE  C213 9569   4.165   5.302   5.576  0.6845 -0.6621 -0.6351
   96SAPE  H13R 9570   4.256   5.245   5.607 -0.2637 -2.3424 -0.7920
   96SAPE  H13S 9571   4.203   5.400   5.540 -2.1975  0.6511 -0.3559
   96SAPE  C214 9572   4.095   5.231   5.463 -0.5014  0.3961 -1.1134
   96SAPE  H14R 9573   4.107   5.122   5.463  0.7718  0.5104 -1.9148
   96SAPE  C215 9574   4.053   5.286   5.347 -0.3736 -0.1755 -0.2894
   96SAPE  H15R 9575   4.011   5.222   5.268  0.3611 -1.8422  0.6228
   96SAPE  C216 9576   4.056   5.437   5.316  0.0213 -0.6721 -0.5244
   96SAPE  H16R 9577   4.092   5.508   5.394  0.6498 -1.2876 -0.2427
   96SAPE  H16S 9578   3.956   5.474   5.283 -0.5852  0.8926  2.6254
   96SAPE  C217 9579   4.146   5.448   5.192 -0.1987 -0.1330  0.3090
   96SAPE  H17R 9580   4.101   5.392   5.108  1.1008  1.0164 -1.1981
   96SAPE  H17S 9581   4.245   5.400   5.206 -0.3107 -0.4476  0.0261
   96SAPE  C218 9582   4.163   5.591   5.140 -1.0355 -0.5263  0.3361
   96SAPE  H18R 9583   4.200   5.653   5.224 -0.8632  1.7229 -1.2817
   96SAPE  H18S 9584   4.074   5.632   5.087  0.9797  1.7164 -1.5825
   96SAPE  C219 9585   4.273   5.599   5.033 -0.6428 -0.2705 -0.0673
   96SAPE  H19R 9586   4.229   5.562   4.938  2.1450 -1.3822 -1.0243
   96SAPE  H19S 9587   4.353   5.530   5.066 -1.3210 -0.8534  0.3965
   96SAPE  C220 9588   4.319   5.739   5.006  0.0987  0.2120  0.3358
   96SAPE  H20R 9589   4.357   5.785   5.100  1.2054 -2.1299  1.0868
   96SAPE  H20S 9590   4.237   5.807   4.971 -0.3760  0.4637  1.8444
   96SAPE  H20T 9591   4.404   5.744   4.936 -0.0750  2.7191  0.2090
   96SAPE   C33 9592   3.914   4.645   6.351  0.0165  0.0417 -0.0045
   96SAPE   H3X 9593   3.872   4.748   6.353 -1.3070 -0.4787  0.8385
   96SAPE   H3Y 9594   3.828   4.579   6.376  1.0781 -0.6466  2.1601
   96SAPE   C34 9595   3.979   4.608   6.220 -0.4478 -0.7478 -0.4555
   96SAPE   H4X 9596   4.027   4.509   6.207 -0.5819 -0.6346 -2.0401
   96SAPE   H4Y 9597   4.056   4.684   6.194  1.8994 -2.5124  0.9846
   96SAPE   C35 9598   3.876   4.618   6.104  0.1333  0.0586 -0.0615
   96SAPE   H5X 9599   3.790   4.675   6.145 -1.2319 -1.8056 -0.1837
   96SAPE   H5Y 9600   3.832   4.518   6.081 -0.7486  0.4571 -0.1508
   96SAPE   C36 9601   3.928   4.676   5.968 -0.1643  0.5247 -0.1106
   96SAPE   H6X 9602   4.028   4.633   5.945 -0.0928  0.8947 -0.5115
   96SAPE   H6Y 9603   3.938   4.782   6.000  0.5795  0.5333 -0.3473
   96SAPE   C37 9604   3.834   4.657   5.848 -0.3906 -0.3598  0.1598
   96SAPE   H7X 9605   3.732   4.676   5.887 -0.4591 -1.6021  0.6498
   96SAPE   H7Y 9606   3.849   4.551   5.819  0.1037  0.2212 -1.8660
   96SAPE   C38 9607   3.886   4.744   5.731  0.0295 -1.0637  0.2197
   96SAPE   H8X 9608   3.997   4.744   5.740 -0.0079  2.1736  1.8755
   96SAPE   H8Y 9609   3.862   4.849   5.757  1.6089  0.0182 -2.2756
   96SAPE   C39 9610   3.837   4.694   5.594 -0.2375 -0.7359 -0.0139
   96SAPE   H9X 9611   3.727   4.707   5.599 -0.3876 -1.4065 -1.0952
   96SAPE   H9Y 9612   3.857   4.587   5.571  0.9945 -0.6314  0.4765
   96SAPE  C310 9613   3.885   4.779   5.473  0.6443  0.0805  0.7821
   96SAPE  H10X 9614   3.996   4.780   5.460  0.4344 -0.3912 -1.5116
   96SAPE  H10Y 9615   3.838   4.879   5.481 -2.7574 -1.3671  0.4143
   96SAPE  C311 9616   3.838   4.713   5.338 -0.0063  0.5058 -0.0594
   96SAPE  H11X 9617   3.754   4.646   5.365 -1.2407  1.8358 -0.4927
   96SAPE  H11Y 9618   3.919   4.653   5.292  1.2621  1.5062  0.7560
   96SAPE  C312 9619   3.796   4.827   5.244  0.9884  0.3587  0.1708
   96SAPE  H12X 9620   3.725   4.892   5.300  0.3688 -1.4048  1.5308
   96SAPE  H12Y 9621   3.738   4.783   5.160 -0.6927  1.0555  0.9211
   96SAPE  C313 9622   3.925   4.894   5.192  0.3609 -0.1783  0.2470
   96SAPE  H13X 9623   3.980   4.810   5.145  0.1705 -1.2032  1.7991
   96SAPE  H13Y 9624   3.990   4.941   5.269  0.2337  2.4470 -1.1391
   96SAPE  C314 9625   3.891   4.989   5.074 -0.7879  0.7185 -1.2253
   96SAPE  H14X 9626   3.842   5.080   5.114  1.8056  1.3401  0.7999
   96SAPE  H14Y 9627   3.821   4.952   4.995  0.3235  0.7932 -2.2731
   96SAPE  C315 9628   4.025   5.024   5.004 -0.0772  0.8022 -0.0812
   96SAPE  H15X 9629   4.074   4.928   4.978 -0.5256 -0.4710  3.2613
   96SAPE  H15Y 9630   4.095   5.084   5.067  0.6733  1.2420 -1.3101
   96SAPE  C316 9631   3.996   5.111   4.882 -0.6863 -0.0535  1.0833
   96SAPE  H16X 9632   3.946   5.206   4.912  1.0104  2.1981 -2.5197
   96SAPE  H16Y 9633   3.925   5.058   4.815 -1.3241  1.4848  0.4887
   96SAPE  C317 9634   4.115   5.144   4.800  0.5519 -0.0558  0.6535
   96SAPE  H17X 9635   4.080   5.210   4.718  2.4049  1.3400  0.9398
   96SAPE  H17Y 9636   4.163   5.053   4.758  0.4247  0.2041 -0.0692
   96SAPE  C318 9637   4.222   5.226   4.868 -0.2899 -0.2382  0.5239
   96SAPE  H18X 9638   4.295   5.166   4.927  1.0537  0.1347 -0.6858
   96SAPE  H18Y 9639   4.184   5.312   4.926  2.6374  0.9554  0.8671
   96SAPE  H18Z 9640   4.277   5.271   4.783 -0.0139 -0.4442  0.5891
   97SAPE     N 9641   4.595   0.707   7.124  0.1384 -0.4231 -0.0921
   97SAPE   HN1 9642   4.519   0.636   7.125 -0.2651 -0.0916 -2.3159
   97SAPE   HN2 9643   4.559   0.798   7.160 -0.4588 -0.3469 -0.8536
   97SAPE   HN3 9644   4.626   0.728   7.027  1.8576  0.4511  0.5938
   97SAPE   C12 9645   4.712   0.658   7.198 -0.5448 -0.0659  0.4335
   97SAPE  H12A 9646   4.686   0.562   7.247  1.3791 -1.3676 -0.9590
   97SAPE  H12B 9647   4.736   0.742   7.266 -2.7915  0.3226  0.8300
   97SAPE   C11 9648   4.822   0.635   7.093 -0.3323  0.8778  0.0688
   97SAPE  H11A 9649   4.793   0.538   7.049  0.4048 -0.0865  1.6187
   97SAPE  H11B 9650   4.914   0.633   7.156 -0.1758  1.0160 -0.1519
   97SAPE     P 9651   4.948   0.772   6.909 -0.2180  0.2351  0.3372
   97SAPE   O13 9652   5.073   0.778   6.982 -0.2132  0.2372 -0.3690
   97SAPE   O14 9653   4.938   0.665   6.807 -0.2912 -0.2869 -0.6429
   97SAPE   O12 9654   4.832   0.747   7.005  0.8249  0.6394  0.0588
   97SAPE   O11 9655   4.914   0.912   6.861 -0.0108 -0.1162  0.8844
   97SAPE    C1 9656   4.888   0.944   6.719  0.1093  0.4467  0.1153
   97SAPE    HA 9657   4.821   0.867   6.673  0.8312 -0.7722  1.0356
   97SAPE    HB 9658   4.844   1.045   6.711 -2.0011 -0.4789 -0.8927
   97SAPE    C2 9659   5.018   0.933   6.630 -0.6495 -0.6624  0.0919
   97SAPE    HS 9660   5.055   0.828   6.630  1.4884  0.0475  0.2431
   97SAPE   O21 9661   5.127   1.006   6.686  0.8766 -0.1947 -0.2432
   97SAPE   C21 9662   5.243   0.993   6.625 -0.0771  0.2007  0.1891
   97SAPE   O22 9663   5.260   0.914   6.536  0.4383 -0.1563  0.3275
   97SAPE   C22 9664   5.342   1.106   6.668 -0.0098  0.8799  0.1434
   97SAPE   H2R 9665   5.318   1.128   6.774 -2.0219  0.1868 -0.1207
   97SAPE   H2S 9666   5.445   1.064   6.658  0.5660  2.3151 -0.1888
   97SAPE    C3 9667   4.981   0.990   6.490  0.7350 -0.6701  0.1342
   97SAPE    HX 9668   5.066   0.969   6.421  0.5321  0.3606 -0.4531
   97SAPE    HY 9669   4.968   1.099   6.504 -1.2824 -1.0587  1.8439
   97SAPE   O31 9670   4.859   0.932   6.448 -0.1315  0.7379  0.4183
   97SAPE   C31 9671   4.866   0.820   6.382 -0.4878  0.4966 -0.6289
   97SAPE   O32 9672   4.973   0.759   6.370  0.3820  0.4607 -0.4876
   97SAPE   C32 9673   4.731   0.788   6.326 -0.0667 -0.2783 -0.7706
   97SAPE   H2X 9674   4.657   0.861   6.364  1.6038  0.4248  1.2886
   97SAPE   H2Y 9675   4.705   0.682   6.346 -0.3180 -0.3389 -1.4069
   97SAPE   C23 9676   5.329   1.234   6.575  0.0155  0.0005 -0.0698
   97SAPE   H3R 9677   5.349   1.217   6.467 -1.5421 -1.6256 -0.1308
   97SAPE   H3S 9678   5.412   1.294   6.621  0.8329 -1.9343  1.0931
   97SAPE   C24 9679   5.194   1.298   6.593 -0.2601 -0.1974  1.0322
   97SAPE   H4R 9680   5.172   1.320   6.700 -1.9577  1.7793  0.3416
   97SAPE   H4S 9681   5.118   1.227   6.557 -0.8826  0.9630 -0.0067
   97SAPE   C25 9682   5.173   1.430   6.515 -0.0253  0.6538 -0.3209
   97SAPE   H5R 9683   5.249   1.502   6.548 -0.7735  0.6229  1.5825
   97SAPE   C26 9684   5.101   1.452   6.405  0.0328  0.0158 -0.7942
   97SAPE   H6R 9685   5.113   1.543   6.345 -2.0902 -0.6584 -2.3757
   97SAPE   C27 9686   5.019   1.344   6.343  0.1875  0.0296  0.9229
   97SAPE   H7R 9687   4.942   1.398   6.284  0.6454 -0.8030 -0.4763
   97SAPE   H7S 9688   4.956   1.289   6.416  0.2789 -0.1438  0.8699
   97SAPE   C28 9689   5.095   1.243   6.257 -0.1121 -0.1162 -0.0792
   97SAPE   H8R 9690   5.149   1.168   6.317  0.4382  0.8477  0.6616
   97SAPE   C29 9691   5.121   1.253   6.129  0.2065 -0.2163  0.7321
   97SAPE   H9R 9692   5.170   1.168   6.077  0.9868  0.5932  0.1183
   97SAPE  C210 9693   5.078   1.361   6.036  0.3303  0.4061  0.4920
   97SAPE  H10R 9694   5.147   1.363   5.949 -0.7229  1.2803 -0.3359
   97SAPE  H10S 9695   5.102   1.456   6.090 -0.4767  1.1082 -0.3415
   97SAPE  C211 9696   4.934   1.359   5.994  0.9478 -0.2377 -0.1099
   97SAPE  H11R 9697   4.853   1.393   6.059  1.0144  3.8988 -1.8863
   97SAPE  C212 9698   4.894   1.314   5.876  0.0435 -0.1200  0.1454
   97SAPE  H12R 9699   4.786   1.297   5.864 -0.2025  1.6683 -0.4745
   97SAPE  C213 9700   4.981   1.259   5.767  0.2374  0.1889 -0.0998
   97SAPE  H13R 9701   4.993   1.149   5.774  0.3338  0.2694  1.2579
   97SAPE  H13S 9702   5.084   1.301   5.769  0.9011 -1.4184  0.7350
   97SAPE  C214 9703   4.920   1.275   5.626 -0.5500 -0.6662 -0.1895
   97SAPE  H14R 9704   4.811   1.283   5.622 -0.4554  0.9021 -0.2646
   97SAPE  C215 9705   4.976   1.265   5.506 -0.7393 -0.1579  0.1388
   97SAPE  H15R 9706   4.915   1.309   5.426  1.9175 -0.8870 -2.4666
   97SAPE  C216 9707   5.118   1.245   5.470 -0.0120  0.5390 -0.0431
   97SAPE  H16R 9708   5.190   1.207   5.545  0.0261 -1.9245 -1.2335
   97SAPE  H16S 9709   5.149   1.344   5.431 -1.7205  1.6747  1.2941
   97SAPE  C217 9710   5.140   1.144   5.353  0.4488 -0.0165  0.0325
   97SAPE  H17R 9711   5.249   1.138   5.333  0.4465  1.1046 -0.3554
   97SAPE  H17S 9712   5.088   1.191   5.266  1.2598  1.1599  0.1566
   97SAPE  C218 9713   5.066   1.008   5.381 -0.4628 -0.7375 -0.1406
   97SAPE  H18R 9714   4.960   1.032   5.357 -0.4027 -1.3426 -1.0595
   97SAPE  H18S 9715   5.093   0.986   5.487 -2.3885 -1.8752  0.1728
   97SAPE  C219 9716   5.101   0.889   5.292  0.6637 -0.4091  0.0396
   97SAPE  H19R 9717   5.054   0.909   5.193  0.4625  1.0406  0.4029
   97SAPE  H19S 9718   5.039   0.800   5.316 -0.2721 -0.5506 -2.6102
   97SAPE  C220 9719   5.250   0.851   5.297 -0.3211  0.3057  0.3383
   97SAPE  H20R 9720   5.279   0.822   5.401  0.8025  1.5283  0.3862
   97SAPE  H20S 9721   5.320   0.928   5.260 -1.2177  0.5286 -0.9624
   97SAPE  H20T 9722   5.274   0.772   5.222  1.2571  2.3820 -1.4571
   97SAPE   C33 9723   4.743   0.802   6.168  0.5544  0.2846  0.7667
   97SAPE   H3X 9724   4.647   0.782   6.116  1.5564  1.8498 -1.8423
   97SAPE   H3Y 9725   4.816   0.724   6.137  1.4752  0.1973  2.9501
   97SAPE   C34 9726   4.782   0.941   6.119  0.2237  0.0742 -0.2906
   97SAPE   H4X 9727   4.887   0.959   6.151  0.3240  0.0895 -0.6248
   97SAPE   H4Y 9728   4.723   1.024   6.163 -0.1766  0.0559 -0.7895
   97SAPE   C35 9729   4.768   0.958   5.968  1.0153 -0.2275 -0.1153
   97SAPE   H5X 9730   4.834   1.043   5.941  4.8480 -2.8132  0.2644
   97SAPE   H5Y 9731   4.667   0.978   5.929  1.1769 -1.7265 -1.4170
   97SAPE   C36 9732   4.824   0.840   5.886 -0.5110 -0.1047 -0.3226
   97SAPE   H6X 9733   4.765   0.746   5.893 -1.0229  0.3296  1.5082
   97SAPE   H6Y 9734   4.925   0.813   5.924 -0.0214  0.5849 -1.0725
   97SAPE   C37 9735   4.849   0.866   5.744 -0.2694  0.6742  0.6141
   97SAPE   H7X 9736   4.946   0.837   5.699 -0.7751 -0.3488  0.1353
   97SAPE   H7Y 9737   4.852   0.976   5.730 -1.5534  0.4142 -2.5996
   97SAPE   C38 9738   4.735   0.807   5.657 -0.3397  0.7747  0.3441
   97SAPE   H8X 9739   4.637   0.835   5.703 -0.5620  0.7264 -0.0980
   97SAPE   H8Y 9740   4.749   0.697   5.663  1.2110  0.9760  0.9178
   97SAPE   C39 9741   4.751   0.857   5.510 -0.1833  0.6378 -0.4512
   97SAPE   H9X 9742   4.711   0.774   5.446 -0.9881  0.7068 -0.0455
   97SAPE   H9Y 9743   4.859   0.875   5.491  0.1525  0.8360  1.4990
   97SAPE  C310 9744   4.668   0.981   5.478  0.1007 -0.2119 -0.3023
   97SAPE  H10X 9745   4.725   1.076   5.466 -0.4991  0.0206 -1.5006
   97SAPE  H10Y 9746   4.599   0.994   5.564 -0.6755 -1.0586 -0.7681
   97SAPE  C311 9747   4.581   0.963   5.355  0.0603 -0.4442 -0.0318
   97SAPE  H11X 9748   4.496   1.034   5.366  1.3175  0.9949  0.9495
   97SAPE  H11Y 9749   4.542   0.859   5.361  2.1818 -1.2821  0.1211
   97SAPE  C312 9750   4.653   0.975   5.217  0.1507 -0.3578 -0.0884
   97SAPE  H12X 9751   4.711   1.069   5.223  1.3460 -1.1407  1.8507
   97SAPE  H12Y 9752   4.575   0.976   5.138  0.2326  0.9574 -0.1707
   97SAPE  C313 9753   4.756   0.869   5.173 -0.7918  0.5767  0.1170
   97SAPE  H13X 9754   4.841   0.855   5.243  0.9187 -2.1661 -2.2468
   97SAPE  H13Y 9755   4.803   0.904   5.079  1.0891  2.2599  1.6003
   97SAPE  C314 9756   4.704   0.723   5.135  0.3858  0.2918 -0.7178
   97SAPE  H14X 9757   4.622   0.719   5.061 -1.0973  1.0766  0.8115
   97SAPE  H14Y 9758   4.652   0.680   5.223 -0.5990  0.3831 -1.2376
   97SAPE  C315 9759   4.810   0.624   5.083  0.1371  0.4959 -0.2574
   97SAPE  H15X 9760   4.889   0.607   5.160  0.7380 -0.8962 -1.1538
   97SAPE  H15Y 9761   4.863   0.676   5.001  0.2436  1.9474  0.6798
   97SAPE  C316 9762   4.749   0.493   5.029 -0.1810  0.3824 -0.1670
   97SAPE  H16X 9763   4.824   0.428   4.980  0.2840 -0.2774  1.3596
   97SAPE  H16Y 9764   4.676   0.523   4.951  0.8624  0.3834 -1.1500
   97SAPE  C317 9765   4.688   0.395   5.137 -1.2467  0.1086 -0.0611
   97SAPE  H17X 9766   4.613   0.451   5.196 -0.4412  0.3935  0.7157
   97SAPE  H17Y 9767   4.765   0.369   5.213 -0.4282 -2.2778 -1.5831
   97SAPE  C318 9768   4.623   0.278   5.083 -0.5994 -0.2068 -0.4006
   97SAPE  H18X 9769   4.702   0.223   5.027 -1.3224 -1.7769  0.0510
   97SAPE  H18Y 9770   4.549   0.299   5.002  2.8885 -0.7536 -4.0247
   97SAPE  H18Z 9771   4.585   0.214   5.166  1.1271 -0.2615  0.3887
   98SAPE     N 9772   3.963   5.871   7.012  0.0558 -0.0187 -0.3105
   98SAPE   HN1 9773   3.860   5.866   7.026  0.3782 -2.0843  2.0720
   98SAPE   HN2 9774   3.985   5.874   6.911  1.5632  1.8775  0.0189
   98SAPE   HN3 9775   4.000   5.778   7.041  3.8027  0.6748 -2.3466
   98SAPE   C12 9776   4.034   5.980   7.097  0.3334 -0.6354 -0.2360
   98SAPE  H12A 9777   4.018   5.950   7.203  0.2765  2.3850  0.7203
   98SAPE  H12B 9778   3.978   6.075   7.081 -0.9156 -1.3956 -0.5039
   98SAPE   C11 9779   4.178   6.005   7.056 -0.5178  0.1818  0.7214
   98SAPE  H11A 9780   4.222   6.075   7.131 -2.8264  0.0367  2.3039
   98SAPE  H11B 9781   4.181   6.036   6.950 -0.1789  0.8825  0.9287
   98SAPE     P 9782   4.400   5.859   7.032  0.1674  0.0624 -0.2162
   98SAPE   O13 9783   4.479   5.855   7.161  0.6048 -0.8881  0.0471
   98SAPE   O14 9784   4.399   5.743   6.938 -0.1450 -0.1469  0.1555
   98SAPE   O12 9785   4.241   5.874   7.071 -0.4464 -0.1987  0.3337
   98SAPE   O11 9786   4.440   5.996   6.954 -0.4794  0.2181  0.0751
   98SAPE    C1 9787   4.496   5.995   6.819  0.2779  0.1457 -0.8089
   98SAPE    HA 9788   4.604   6.016   6.834  0.5903  0.4270 -3.2225
   98SAPE    HB 9789   4.484   5.897   6.768  0.5611  0.3101 -1.1860
   98SAPE    C2 9790   4.446   6.112   6.731 -0.4442 -0.5310  0.2009
   98SAPE    HS 9791   4.339   6.091   6.714 -0.1223 -1.4148 -0.8769
   98SAPE   O21 9792   4.534   6.098   6.613 -0.0213  0.1115  0.6904
   98SAPE   C21 9793   4.467   6.055   6.502  0.2918 -0.8089  0.3616
   98SAPE   O22 9794   4.343   6.062   6.487 -0.1344  0.5495  0.9038
   98SAPE   C22 9795   4.574   6.004   6.404 -0.3768  0.3843 -0.4666
   98SAPE   H2R 9796   4.659   6.076   6.406  0.2195 -0.1928 -2.4358
   98SAPE   H2S 9797   4.611   5.908   6.446 -1.3180  0.3644  0.3319
   98SAPE    C3 9798   4.468   6.249   6.793 -0.0257  0.4627 -0.3540
   98SAPE    HX 9799   4.578   6.263   6.803 -0.2881  0.9088  2.8409
   98SAPE    HY 9800   4.421   6.241   6.893  0.2873  0.9576 -0.1633
   98SAPE   O31 9801   4.425   6.358   6.705  0.2002 -0.1861 -0.2956
   98SAPE   C31 9802   4.301   6.363   6.679  0.6639 -0.6167 -0.2636
   98SAPE   O32 9803   4.208   6.313   6.747  0.2183 -0.2898  0.2118
   98SAPE   C32 9804   4.272   6.457   6.557  0.2378  0.0525  0.1874
   98SAPE   H2X 9805   4.365   6.515   6.537 -0.7854  2.3868  1.7285
   98SAPE   H2Y 9806   4.187   6.519   6.590 -0.7952 -1.3278  0.2081
   98SAPE   C23 9807   4.537   5.979   6.262  0.2134 -0.2474 -0.0468
   98SAPE   H3R 9808   4.446   5.919   6.239 -0.4573  1.0060 -0.7678
   98SAPE   H3S 9809   4.633   5.940   6.222  2.6000  4.1087  0.8579
   98SAPE   C24 9810   4.505   6.114   6.191 -0.6773 -0.2216  0.4772
   98SAPE   H4R 9811   4.591   6.185   6.191 -0.7842 -0.0799  1.5909
   98SAPE   H4S 9812   4.430   6.161   6.257  0.7321  0.5980  1.5485
   98SAPE   C25 9813   4.435   6.101   6.055  0.2089  0.7262  0.4227
   98SAPE   H5R 9814   4.342   6.041   6.060  1.1696 -1.2344 -2.4732
   98SAPE   C26 9815   4.491   6.127   5.938  0.1423  1.0331 -0.2522
   98SAPE   H6R 9816   4.425   6.101   5.854 -0.5766  1.0086  0.3120
   98SAPE   C27 9817   4.632   6.182   5.922  0.2186 -0.0600 -0.3812
   98SAPE   H7R 9818   4.713   6.112   5.951 -0.8787 -1.3830 -0.4153
   98SAPE   H7S 9819   4.626   6.273   5.985 -1.2393 -0.2023 -0.2610
   98SAPE   C28 9820   4.663   6.208   5.777  0.1889  0.3919 -0.6918
   98SAPE   H8R 9821   4.659   6.120   5.711 -0.4136  0.8236 -1.2521
   98SAPE   C29 9822   4.689   6.329   5.729  0.2379 -0.2528  0.5550
   98SAPE   H9R 9823   4.699   6.346   5.621 -3.3001  1.3353  0.3705
   98SAPE  C210 9824   4.705   6.454   5.811 -0.3868  0.1054 -0.7179
   98SAPE  H10R 9825   4.747   6.532   5.744  1.7269  0.0308  0.3959
   98SAPE  H10S 9826   4.771   6.437   5.899  0.5488  1.0411 -1.2082
   98SAPE  C211 9827   4.576   6.514   5.866 -0.1156 -0.2370 -0.4759
   98SAPE  H11R 9828   4.511   6.438   5.911  1.2745 -1.1323  0.0723
   98SAPE  C212 9829   4.542   6.643   5.882 -0.4337 -1.2486 -0.2434
   98SAPE  H12R 9830   4.444   6.668   5.925 -0.6223 -0.4067 -1.1276
   98SAPE  C213 9831   4.625   6.765   5.843  0.2253 -0.7499 -0.4694
   98SAPE  H13R 9832   4.732   6.737   5.854  0.2218 -1.2068 -1.4425
   98SAPE  H13S 9833   4.607   6.856   5.904  1.5818 -0.7508 -0.0484
   98SAPE  C214 9834   4.607   6.806   5.699  0.6111 -0.0213 -0.3476
   98SAPE  H14R 9835   4.508   6.770   5.666  1.1924 -1.8133 -0.2654
   98SAPE  C215 9836   4.690   6.873   5.613  0.5517 -0.3660 -0.0812
   98SAPE  H15R 9837   4.646   6.907   5.519  0.3060 -0.9230 -0.1740
   98SAPE  C216 9838   4.835   6.916   5.635  0.6509 -0.4054 -0.1629
   98SAPE  H16R 9839   4.911   6.839   5.610  2.3361  1.8066 -2.3325
   98SAPE  H16S 9840   4.847   6.948   5.741  1.4015 -0.3283 -0.2684
   98SAPE  C217 9841   4.843   7.038   5.540 -0.2210 -0.2116 -1.0335
   98SAPE  H17R 9842   4.760   7.109   5.562  1.7653  2.3935 -1.3639
   98SAPE  H17S 9843   4.822   7.018   5.433 -0.1247 -1.9879 -0.7495
   98SAPE  C218 9844   4.966   7.126   5.572 -0.0082 -0.5544  0.2551
   98SAPE  H18R 9845   5.056   7.067   5.545  0.7488  0.5128  0.4151
   98SAPE  H18S 9846   4.966   7.137   5.683 -2.8200 -0.2598  0.2950
   98SAPE  C219 9847   4.971   7.256   5.487  0.3369  0.5592  1.0592
   98SAPE  H19R 9848   4.892   7.324   5.526  0.6470 -0.3646  3.4907
   98SAPE  H19S 9849   4.949   7.238   5.380 -0.9120 -1.2711  1.5930
   98SAPE  C220 9850   5.106   7.323   5.481 -0.4627  0.3023  0.4766
   98SAPE  H20R 9851   5.084   7.413   5.420 -0.5057  0.1231  0.2239
   98SAPE  H20S 9852   5.189   7.268   5.431 -2.0718 -2.2516  0.4231
   98SAPE  H20T 9853   5.140   7.358   5.581  0.9386 -0.4712  0.2970
   98SAPE   C33 9854   4.213   6.382   6.435 -0.2510 -0.8702 -0.2171
   98SAPE   H3X 9855   4.107   6.362   6.462 -0.7783  2.6147  0.9342
   98SAPE   H3Y 9856   4.273   6.290   6.423  1.8505  0.2923  0.6699
   98SAPE   C34 9857   4.223   6.460   6.306  0.3327 -0.1080 -0.4561
   98SAPE   H4X 9858   4.330   6.487   6.296  0.1603  2.1628  2.3663
   98SAPE   H4Y 9859   4.160   6.549   6.329  0.4967 -0.5646  2.1164
   98SAPE   C35 9860   4.174   6.383   6.188 -0.4183 -0.1130  1.2194
   98SAPE   H5X 9861   4.063   6.396   6.184 -0.4627 -0.3253 -3.5279
   98SAPE   H5Y 9862   4.211   6.279   6.201 -1.5991 -0.3806  2.7991
   98SAPE   C36 9863   4.223   6.438   6.051 -0.9283 -0.6619 -0.3539
   98SAPE   H6X 9864   4.333   6.441   6.063 -1.0653  2.5646  0.9273
   98SAPE   H6Y 9865   4.191   6.544   6.047  3.1974  0.9431  2.6988
   98SAPE   C37 9866   4.175   6.362   5.929  0.1600  0.9513  1.0249
   98SAPE   H7X 9867   4.068   6.338   5.943  0.1090 -0.9436 -1.7447
   98SAPE   H7Y 9868   4.229   6.265   5.924 -0.6271  0.5224  0.8233
   98SAPE   C38 9869   4.187   6.441   5.792  0.0734  0.1476  0.5915
   98SAPE   H8X 9870   4.290   6.440   5.749 -0.1816  0.4361 -0.0466
   98SAPE   H8Y 9871   4.149   6.546   5.801 -0.3625 -0.2026  3.5602
   98SAPE   C39 9872   4.096   6.370   5.690  0.1386 -0.2214 -0.3968
   98SAPE   H9X 9873   3.986   6.379   5.705  0.0518  1.0978 -1.6451
   98SAPE   H9Y 9874   4.135   6.267   5.682  0.8985  0.1070 -1.0508
   98SAPE  C310 9875   4.106   6.439   5.549 -0.0140 -0.8464 -0.3002
   98SAPE  H10X 9876   4.212   6.445   5.516  0.5751  0.3187  1.6481
   98SAPE  H10Y 9877   4.063   6.541   5.547  0.6801 -0.5036  1.1729
   98SAPE  C311 9878   4.041   6.351   5.435 -0.3843 -1.0067  0.3020
   98SAPE  H11X 9879   3.938   6.322   5.464  0.8253 -4.6141  1.4988
   98SAPE  H11Y 9880   4.102   6.258   5.430 -0.3562 -0.9430 -0.9324
   98SAPE  C312 9881   4.049   6.432   5.298 -0.0634  0.0503  0.2556
   98SAPE  H12X 9882   4.153   6.472   5.300  0.1052 -0.3514 -0.3904
   98SAPE  H12Y 9883   3.989   6.524   5.285  0.1595  0.0562 -0.7831
   98SAPE  C313 9884   4.017   6.350   5.176  0.3023  0.2782 -0.4542
   98SAPE  H13X 9885   3.920   6.297   5.190  1.3733 -1.2166  1.9173
   98SAPE  H13Y 9886   4.090   6.266   5.169 -0.1794 -0.0320 -2.2023
   98SAPE  C314 9887   4.020   6.417   5.040  0.5708 -0.2107  0.3530
   98SAPE  H14X 9888   3.950   6.503   5.048 -0.7948 -1.1483 -0.9706
   98SAPE  H14Y 9889   3.970   6.352   4.965 -1.1819 -0.0348  1.3169
   98SAPE  C315 9890   4.152   6.472   4.989 -0.0579  0.2240  0.4814
   98SAPE  H15X 9891   4.218   6.384   4.973  1.1134  0.9535  1.0936
   98SAPE  H15Y 9892   4.190   6.540   5.069  0.4527  0.4250  0.0804
   98SAPE  C316 9893   4.145   6.556   4.859  0.3272 -0.0044  0.0060
   98SAPE  H16X 9894   4.070   6.630   4.892  0.6721 -0.1277  1.0865
   98SAPE  H16Y 9895   4.106   6.498   4.772 -0.2931  0.0163  0.2692
   98SAPE  C317 9896   4.272   6.620   4.816 -0.3856 -0.5130 -0.4730
   98SAPE  H17X 9897   4.326   6.673   4.898  2.1989 -1.9654 -1.1390
   98SAPE  H17Y 9898   4.234   6.696   4.745 -3.7604 -0.1673  1.4913
   98SAPE  C318 9899   4.381   6.528   4.766 -0.0108  0.4024 -0.3738
   98SAPE  H18X 9900   4.480   6.568   4.795 -0.2999 -0.8080  2.6827
   98SAPE  H18Y 9901   4.369   6.520   4.656 -2.3786 -0.0765 -0.1271
   98SAPE  H18Z 9902   4.365   6.429   4.815  0.3959 -0.6400 -2.2273
   99SAPE     N 9903   5.993   5.891   7.600  0.3866  0.2171  0.1451
   99SAPE   HN1 9904   5.890   5.879   7.588  0.2199 -0.1794  1.7538
   99SAPE   HN2 9905   6.003   5.925   7.698 -2.0760 -0.1529  0.5962
   99SAPE   HN3 9906   6.039   5.960   7.537  1.0507 -0.2932  0.0628
   99SAPE   C12 9907   6.056   5.752   7.589  0.8566  1.1884 -0.0226
   99SAPE  H12A 9908   6.022   5.692   7.676 -4.5104  1.3801 -1.6372
   99SAPE  H12B 9909   6.166   5.764   7.596  1.1669 -1.5583  1.3316
   99SAPE   C11 9910   6.008   5.687   7.455 -0.4500 -0.2789  0.5105
   99SAPE  H11A 9911   6.056   5.587   7.451  0.3003  0.0838  0.3811
   99SAPE  H11B 9912   6.042   5.741   7.364  1.1926 -1.5441  0.3407
   99SAPE     P 9913   5.791   5.544   7.503  0.2342  0.0779  0.3766
   99SAPE   O13 9914   5.876   5.481   7.605 -0.2574  0.2997  0.5964
   99SAPE   O14 9915   5.655   5.593   7.546  0.1146 -0.1404 -0.0668
   99SAPE   O12 9916   5.863   5.675   7.443  0.4793 -0.1628  0.2005
   99SAPE   O11 9917   5.780   5.444   7.380  0.5715  0.3415  0.1415
   99SAPE    C1 9918   5.754   5.493   7.251 -0.0055 -0.4240  0.2714
   99SAPE    HA 9919   5.645   5.511   7.242 -0.0117 -0.2703  0.6166
   99SAPE    HB 9920   5.811   5.584   7.222 -2.0486  1.3363  1.4827
   99SAPE    C2 9921   5.798   5.380   7.148 -0.0780  0.6714 -0.1808
   99SAPE    HS 9922   5.787   5.432   7.051 -5.5334 -0.2129 -0.3724
   99SAPE   O21 9923   5.714   5.266   7.162  0.0878  0.6259 -0.1597
   99SAPE   C21 9924   5.588   5.288   7.116 -0.6699  0.2181  0.0991
   99SAPE   O22 9925   5.551   5.390   7.062  0.1074 -0.3981  0.3324
   99SAPE   C22 9926   5.491   5.167   7.125 -0.0956  0.2736  0.1586
   99SAPE   H2R 9927   5.548   5.095   7.186  3.1602  0.1035 -2.7460
   99SAPE   H2S 9928   5.399   5.203   7.176 -0.7208 -0.0436 -0.7058
   99SAPE    C3 9929   5.950   5.342   7.172 -0.2202 -0.0899  0.7267
   99SAPE    HX 9930   5.957   5.276   7.261 -0.6108 -3.7408 -1.6903
   99SAPE    HY 9931   6.002   5.438   7.189 -1.1419  0.6180 -0.3090
   99SAPE   O31 9932   6.014   5.274   7.063 -0.4188 -0.1578 -0.0192
   99SAPE   C31 9933   6.023   5.334   6.951 -0.3356 -0.1077 -0.1645
   99SAPE   O32 9934   5.983   5.448   6.933  0.0220  0.0064 -0.0160
   99SAPE   C32 9935   6.087   5.243   6.841 -0.0862 -0.2358 -0.7593
   99SAPE   H2X 9936   6.016   5.160   6.820  0.4988 -1.4111  1.5681
   99SAPE   H2Y 9937   6.177   5.198   6.887  1.6259  3.4374 -0.1398
   99SAPE   C23 9938   5.459   5.106   6.986 -0.0577 -0.0215  0.0059
   99SAPE   H3R 9939   5.471   5.183   6.907  3.8286  1.5861  1.8791
   99SAPE   H3S 9940   5.352   5.076   6.990  0.3069 -1.2182  2.3256
   99SAPE   C24 9941   5.549   4.987   6.928  0.3052  0.1325 -0.2273
   99SAPE   H4R 9942   5.542   4.981   6.818 -0.2841  2.3936 -0.3607
   99SAPE   H4S 9943   5.524   4.894   6.984  0.5168  1.0653  1.4839
   99SAPE   C25 9944   5.689   5.000   6.966 -0.0179 -0.3979 -0.4884
   99SAPE   H5R 9945   5.706   5.018   7.073 -0.4875 -0.4732 -0.4020
   99SAPE   C26 9946   5.794   5.016   6.882 -0.6076 -0.5254 -0.2588
   99SAPE   H6R 9947   5.893   5.042   6.920 -1.6435  0.6348  1.7935
   99SAPE   C27 9948   5.808   4.995   6.737 -0.3269  0.1894  0.3541
   99SAPE   H7R 9949   5.829   5.090   6.683 -1.6313 -0.9010 -2.2545
   99SAPE   H7S 9950   5.710   4.956   6.701 -0.8169 -0.1876  1.9867
   99SAPE   C28 9951   5.914   4.890   6.704  0.1976  0.2507  0.4277
   99SAPE   H8R 9952   5.937   4.820   6.786 -1.3992 -1.4202 -0.4774
   99SAPE   C29 9953   5.986   4.882   6.592 -0.8363 -0.4614 -0.1240
   99SAPE   H9R 9954   6.063   4.803   6.581 -0.5338 -0.2750  0.6569
   99SAPE  C210 9955   5.974   4.974   6.464  0.3169  0.1614 -0.3481
   99SAPE  H10R 9956   6.064   5.038   6.468 -0.0351  0.6613 -0.3198
   99SAPE  H10S 9957   5.883   5.038   6.473 -0.4680 -0.9131 -0.4260
   99SAPE  C211 9958   5.972   4.896   6.335  1.0654 -0.1248  0.3679
   99SAPE  H11R 9959   6.061   4.834   6.316  1.2439  0.0204  0.7171
   99SAPE  C212 9960   5.877   4.898   6.236  0.4785 -0.3789 -0.2493
   99SAPE  H12R 9961   5.902   4.839   6.147  0.6505  1.0495 -1.1927
   99SAPE  C213 9962   5.740   4.972   6.232 -1.0184 -0.0544 -0.9893
   99SAPE  H13R 9963   5.689   4.970   6.330  1.4437  0.6913  0.3737
   99SAPE  H13S 9964   5.674   4.905   6.173 -0.0476 -1.9557  0.0220
   99SAPE  C214 9965   5.749   5.109   6.173  0.1210 -0.4936 -0.7801
   99SAPE  H14R 9966   5.814   5.121   6.085  2.7344 -0.4075  1.0456
   99SAPE  C215 9967   5.666   5.206   6.216  0.7342  0.2994  0.2915
   99SAPE  H15R 9968   5.667   5.302   6.163 -0.1829 -0.2223 -0.7010
   99SAPE  C216 9969   5.565   5.202   6.329  0.0703  0.2696 -0.3316
   99SAPE  H16R 9970   5.508   5.107   6.330  1.6330 -0.7193 -0.8792
   99SAPE  H16S 9971   5.488   5.282   6.324 -0.4299 -0.2902 -2.1568
   99SAPE  C217 9972   5.637   5.227   6.466  1.1020 -0.2884  0.0291
   99SAPE  H17R 9973   5.695   5.322   6.460  1.3145 -0.4464 -0.4788
   99SAPE  H17S 9974   5.710   5.146   6.489 -0.8509 -2.1437 -0.0296
   99SAPE  C218 9975   5.529   5.228   6.577  0.4346  0.2729  0.3415
   99SAPE  H18R 9976   5.584   5.177   6.660  1.9496  0.6389 -0.3911
   99SAPE  H18S 9977   5.437   5.174   6.548  0.4830 -0.4460  1.4471
   99SAPE  C219 9978   5.493   5.366   6.640  0.1505 -0.2206 -0.0240
   99SAPE  H19R 9979   5.398   5.365   6.698  0.3702  1.1528  0.3896
   99SAPE  H19S 9980   5.477   5.433   6.553 -0.6044  0.5903  0.7173
   99SAPE  C220 9981   5.599   5.426   6.734 -0.0526  0.1757 -0.7168
   99SAPE  H20R 9982   5.679   5.468   6.670  0.8749  0.6617  0.7140
   99SAPE  H20S 9983   5.640   5.354   6.808  0.2268  0.4667 -0.5846
   99SAPE  H20T 9984   5.562   5.509   6.799 -0.7160 -0.3590 -0.3972
   99SAPE   C33 9985   6.125   5.307   6.706  0.7695  0.4768  0.2329
   99SAPE   H3X 9986   6.173   5.229   6.642 -1.2843  0.9495 -1.9885
   99SAPE   H3Y 9987   6.198   5.390   6.706 -0.6043  1.7302 -1.0317
   99SAPE   C34 9988   5.998   5.362   6.645  0.5874  1.0509  0.9712
   99SAPE   H4X 9989   5.927   5.423   6.705 -0.1343  2.3194 -1.0900
   99SAPE   H4Y 9990   5.941   5.279   6.598  0.4043  1.4191  0.5297
   99SAPE   C35 9991   6.025   5.456   6.525 -0.1782 -0.4768  0.0894
   99SAPE   H5X 9992   6.105   5.522   6.564 -2.7139  1.9276  1.6141
   99SAPE   H5Y 9993   5.939   5.526   6.518  0.8639  1.0497  1.7554
   99SAPE   C36 9994   6.052   5.374   6.396 -0.1060  0.1188 -0.7320
   99SAPE   H6X 9995   5.957   5.317   6.382  0.6625 -2.0003  1.8639
   99SAPE   H6Y 9996   6.140   5.310   6.413  0.2595  0.2374 -2.1044
   99SAPE   C37 9997   6.076   5.463   6.276  0.6658  0.3599 -0.4857
   99SAPE   H7X 9998   6.178   5.508   6.272  1.0084 -0.4543 -1.9786
   99SAPE   H7Y 9999   6.014   5.554   6.282  0.5298  0.1572  2.2749
   99SAPE   C3810000   6.049   5.384   6.154 -0.0778  0.3879  0.2161
   99SAPE   H8X10001   5.941   5.360   6.144  0.0168 -0.3054  0.8057
   99SAPE   H8Y10002   6.115   5.296   6.170  1.6543  1.9790  2.3834
   99SAPE   C3910003   6.076   5.452   6.016 -0.2700  0.1047 -0.0150
   99SAPE   H9X10004   6.184   5.476   6.005 -0.1016  0.9360  2.6779
   99SAPE   H9Y10005   6.020   5.547   6.021 -0.7620 -0.0635 -1.7911
   99SAPE  C31010006   6.028   5.368   5.893 -0.3946  0.0304 -0.1499
   99SAPE  H10X10007   5.917   5.369   5.893 -0.4027  1.9607 -0.7068
   99SAPE  H10Y10008   6.075   5.267   5.896  2.3287  1.1608 -1.3522
   99SAPE  C31110009   6.071   5.440   5.765 -0.2882  0.2439 -0.2481
   99SAPE  H11X10010   6.177   5.418   5.743 -0.0293  1.6033 -0.4892
   99SAPE  H11Y10011   6.055   5.550   5.772  1.3792  0.4407  1.3490
   99SAPE  C31210012   5.994   5.384   5.642  0.0009 -0.8659 -0.1027
   99SAPE  H12X10013   5.886   5.369   5.662  0.3848 -1.4574  1.6812
   99SAPE  H12Y10014   6.035   5.283   5.619  1.8013 -0.1558 -0.2343
   99SAPE  C31310015   6.008   5.472   5.515  0.0183  0.0943  0.0635
   99SAPE  H13X10016   6.114   5.461   5.485  0.0609  0.2824  0.1443
   99SAPE  H13Y10017   5.999   5.580   5.540  2.4359  0.4930 -0.5929
   99SAPE  C31410018   5.905   5.443   5.409 -0.7329  0.2730  0.5181
   99SAPE  H14X10019   5.904   5.518   5.327 -3.3180  0.2059  0.4224
   99SAPE  H14Y10020   5.798   5.439   5.438 -1.6923 -1.4845 -2.7716
   99SAPE  C31510021   5.941   5.316   5.331 -0.3417  0.0374  0.4635
   99SAPE  H15X10022   5.952   5.233   5.403 -1.5721  2.6476  3.9245
   99SAPE  H15Y10023   6.040   5.331   5.283  0.1163  0.9087  1.6480
   99SAPE  C31610024   5.827   5.295   5.227 -0.4417 -0.1625  0.1740
   99SAPE  H16X10025   5.809   5.394   5.181 -1.0329 -0.0483  0.6248
   99SAPE  H16Y10026   5.724   5.275   5.265 -0.3591  1.6887  1.5126
   99SAPE  C31710027   5.853   5.212   5.100  0.7089  0.0584 -0.4293
   99SAPE  H17X10028   5.853   5.103   5.120  0.3913  0.2233  0.5631
   99SAPE  H17Y10029   5.958   5.229   5.068  1.8187 -2.3847  1.5562
   99SAPE  C31810030   5.762   5.250   4.983  0.0225  0.7953  0.7650
   99SAPE  H18X10031   5.658   5.258   5.019  0.5120  1.0728  2.1864
   99SAPE  H18Y10032   5.772   5.173   4.904  2.2260  1.4517  0.3452
   99SAPE  H18Z10033   5.797   5.349   4.948  2.0148 -0.7922 -2.1450
  100SAPE     N10034   0.154   3.170   7.083  0.3042  0.5016  0.0293
  100SAPE   HN110035   0.194   3.192   6.990  0.4890 -0.9809 -0.2628
  100SAPE   HN210036   0.229   3.123   7.137 -1.4744 -2.5374  0.0704
  100SAPE   HN310037   0.072   3.107   7.077 -0.6549  1.7153  0.1190
  100SAPE   C1210038   0.107   3.291   7.141 -0.7566  0.3359 -0.1185
  100SAPE  H12A10039   0.051   3.344   7.061  1.7354 -1.5112 -3.3444
  100SAPE  H12B10040   0.192   3.349   7.183  1.0331 -1.4093 -1.1381
  100SAPE   C1110041   0.014   3.260   7.255 -0.1027 -0.3929  0.2651
  100SAPE  H11A10042  -0.004   3.351   7.316  2.3879  0.3811 -0.0467
  100SAPE  H11B10043   0.069   3.200   7.331 -1.1157 -1.0020  0.5424
  100SAPE     P10044  -0.229   3.255   7.143  0.3421 -0.2035  0.2310
  100SAPE   O1310045  -0.269   3.171   7.024 -0.2653 -0.0848 -0.2998
  100SAPE   O1410046  -0.320   3.281   7.255 -0.4912  0.2461 -0.3476
  100SAPE   O1210047  -0.104   3.184   7.206  0.0107  0.0693 -0.3231
  100SAPE   O1110048  -0.182   3.401   7.093 -0.2790  0.0467  0.2937
  100SAPE    C110049  -0.289   3.497   7.079  0.2209 -0.0746 -0.3359
  100SAPE    HA10050  -0.353   3.495   7.169  0.7088 -1.0848  0.0076
  100SAPE    HB10051  -0.242   3.597   7.085 -0.8765  0.6390 -2.3602
  100SAPE    C210052  -0.356   3.497   6.939 -0.3633  0.0993 -0.1858
  100SAPE    HS10053  -0.411   3.592   6.919 -0.7666 -0.1171 -0.1251
  100SAPE   O2110054  -0.445   3.385   6.923  0.1861 -0.1959  0.3036
  100SAPE   C2110055  -0.551   3.379   7.000 -0.2563  0.4952 -0.0306
  100SAPE   O2210056  -0.594   3.471   7.075 -0.5760 -0.1909 -0.3004
  100SAPE   C2210057  -0.606   3.238   6.996  0.1504 -0.5072  0.2016
  100SAPE   H2R10058  -0.574   3.177   6.908 -0.9245 -3.1140  1.4842
  100SAPE   H2S10059  -0.566   3.177   7.080  1.7548 -0.9662 -0.8322
  100SAPE    C310060  -0.246   3.490   6.827  0.3633  0.9564 -0.5016
  100SAPE    HX10061  -0.192   3.393   6.824  1.9671  1.7867  0.2204
  100SAPE    HY10062  -0.165   3.560   6.857  2.2904 -2.0258  1.8811
  100SAPE   O3110063  -0.307   3.513   6.699  0.1829  0.3556  0.1658
  100SAPE   C3110064  -0.258   3.606   6.626 -0.5435  0.0800 -0.6705
  100SAPE   O3210065  -0.164   3.681   6.656  0.4452  0.1485  0.1473
  100SAPE   C3210066  -0.340   3.608   6.501 -0.5322 -0.0042  0.0604
  100SAPE   H2X10067  -0.436   3.659   6.524  0.9089  3.4961 -1.0124
  100SAPE   H2Y10068  -0.364   3.504   6.472  0.1281  0.2296 -1.3586
  100SAPE   C2310069  -0.764   3.240   6.994  0.4152 -0.6037 -1.2096
  100SAPE   H3R10070  -0.794   3.303   7.081 -0.7377 -1.5823 -0.8781
  100SAPE   H3S10071  -0.793   3.138   7.025 -1.1590  1.0289  3.6414
  100SAPE   C2410072  -0.826   3.297   6.863  0.3690  0.0812  0.1984
  100SAPE   H4R10073  -0.779   3.394   6.838 -0.4517  0.2793 -0.6557
  100SAPE   H4S10074  -0.936   3.315   6.874  0.3199 -0.4512  0.6070
  100SAPE   C2510075  -0.816   3.197   6.749 -0.0173  0.4080 -0.0573
  100SAPE   H5R10076  -0.880   3.111   6.771  1.9898 -0.5296  2.6381
  100SAPE   C2610077  -0.760   3.211   6.633 -0.1465 -0.3583 -0.0268
  100SAPE   H6R10078  -0.751   3.125   6.565 -2.9114 -1.7779  1.2335
  100SAPE   C2710079  -0.672   3.328   6.602  0.0159  0.4427  0.1811
  100SAPE   H7R10080  -0.640   3.370   6.699 -0.9890 -1.4041  1.3710
  100SAPE   H7S10081  -0.736   3.404   6.553 -1.8572 -1.1359  0.0428
  100SAPE   C2810082  -0.542   3.297   6.529  0.2086 -0.0534  0.3864
  100SAPE   H8R10083  -0.452   3.280   6.589  0.2101 -1.5904 -0.0099
  100SAPE   C2910084  -0.536   3.260   6.402  0.4414  0.5491 -0.4893
  100SAPE   H9R10085  -0.437   3.240   6.358  1.1246 -0.0237  1.2236
  100SAPE  C21010086  -0.642   3.235   6.295  0.9222 -0.2221  0.6541
  100SAPE  H10R10087  -0.636   3.306   6.210 -1.1157  0.8126  1.3125
  100SAPE  H10S10088  -0.738   3.268   6.338  0.5397  1.1935 -1.1432
  100SAPE  C21110089  -0.651   3.085   6.249  0.1373 -0.5256 -0.2051
  100SAPE  H11R10090  -0.668   3.013   6.330 -0.9602 -1.7765 -1.5077
  100SAPE  C21210091  -0.642   3.028   6.125  0.3471  0.1589 -0.2577
  100SAPE  H12R10092  -0.633   2.919   6.120 -0.0107  0.1409 -0.5218
  100SAPE  C21310093  -0.627   3.098   5.991 -0.4642 -0.1359  0.4302
  100SAPE  H13R10094  -0.698   3.184   5.985 -0.6087 -0.2169  0.9386
  100SAPE  H13S10095  -0.660   3.035   5.906 -1.4724 -1.4352  1.7277
  100SAPE  C21410096  -0.487   3.154   5.968  0.5308  0.1601 -0.9262
  100SAPE  H14R10097  -0.405   3.094   6.008  0.6567  0.2004 -1.1223
  100SAPE  C21510098  -0.454   3.265   5.901  0.3884  0.4128  0.0474
  100SAPE  H15R10099  -0.350   3.295   5.883  0.0771 -0.4828 -4.5342
  100SAPE  C21610100  -0.553   3.354   5.826  0.2592  0.5992 -0.0022
  100SAPE  H16R10101  -0.555   3.449   5.884  2.2746 -1.2405  3.3932
  100SAPE  H16S10102  -0.658   3.318   5.815 -0.3047  2.1716 -0.0672
  100SAPE  C21710103  -0.507   3.371   5.684 -0.5795 -0.4544  0.3629
  100SAPE  H17R10104  -0.404   3.412   5.681 -1.4330  1.7900 -1.6820
  100SAPE  H17S10105  -0.571   3.452   5.643  0.6302 -0.7692 -2.3684
  100SAPE  C21810106  -0.509   3.243   5.601  0.4789  0.2114  0.2604
  100SAPE  H18R10107  -0.613   3.203   5.610 -0.5447  2.7363  0.4833
  100SAPE  H18S10108  -0.442   3.167   5.647  1.2129  0.2174 -0.7911
  100SAPE  C21910109  -0.497   3.252   5.452  0.1533  0.2835  0.2638
  100SAPE  H19R10110  -0.407   3.314   5.430  0.7100  1.5167  4.8966
  100SAPE  H19S10111  -0.584   3.307   5.410 -1.0382 -0.2126  1.9627
  100SAPE  C22010112  -0.480   3.116   5.379  0.2037  0.3241 -0.6430
  100SAPE  H20R10113  -0.561   3.047   5.410 -0.6369  0.7935 -1.7393
  100SAPE  H20S10114  -0.387   3.067   5.414  0.4664  0.9546 -0.4310
  100SAPE  H20T10115  -0.464   3.124   5.269  0.6732  0.0624 -0.5967
  100SAPE   C3310116  -0.274   3.699   6.389  0.8319 -0.1942 -0.3971
  100SAPE   H3X10117  -0.165   3.676   6.385  0.9180 -0.2375  1.3802
  100SAPE   H3Y10118  -0.290   3.805   6.418  3.1482 -0.1563  0.9681
  100SAPE   C3410119  -0.354   3.675   6.258  0.3220 -0.1360 -0.6319
  100SAPE   H4X10120  -0.450   3.730   6.265 -0.6985 -1.9779  1.0221
  100SAPE   H4Y10121  -0.379   3.568   6.244 -2.3149  0.4106 -0.7123
  100SAPE   C3510122  -0.272   3.720   6.136  0.8847  0.1045  0.5747
  100SAPE   H5X10123  -0.193   3.643   6.125 -1.2159 -1.8814 -2.0918
  100SAPE   H5Y10124  -0.238   3.820   6.170  1.9159 -0.3577  0.9238
  100SAPE   C3610125  -0.360   3.719   6.014 -0.6891 -0.7129 -0.5912
  100SAPE   H6X10126  -0.426   3.807   6.029 -0.2934 -0.5458  0.2258
  100SAPE   H6Y10127  -0.426   3.629   6.012 -2.8521  0.7739  0.1205
  100SAPE   C3710128  -0.287   3.742   5.883  0.2862 -0.2050 -0.4201
  100SAPE   H7X10129  -0.196   3.680   5.873  0.8363  0.4104  0.5460
  100SAPE   H7Y10130  -0.256   3.848   5.888 -0.4962  0.1048 -1.6641
  100SAPE   C3810131  -0.368   3.701   5.760  0.3963 -0.2853 -0.0025
  100SAPE   H8X10132  -0.446   3.771   5.724 -1.2183 -2.6921 -1.4559
  100SAPE   H8Y10133  -0.433   3.614   5.787  0.4956 -0.2160  0.4750
  100SAPE   C3910134  -0.284   3.677   5.631  0.3088 -0.0007  0.0370
  100SAPE   H9X10135  -0.237   3.577   5.640 -0.9268 -0.5158  1.1607
  100SAPE   H9Y10136  -0.201   3.750   5.627  1.0192 -0.8058 -0.1148
  100SAPE  C31010137  -0.368   3.691   5.510  0.3348  0.3750 -0.0648
  100SAPE  H10X10138  -0.439   3.775   5.523  1.0254  0.8361  0.8692
  100SAPE  H10Y10139  -0.430   3.600   5.524  2.1398 -0.8325  0.3257
  100SAPE  C31110140  -0.293   3.709   5.373  0.0322  0.7988 -0.2050
  100SAPE  H11X10141  -0.233   3.618   5.350  1.2248  1.4112  0.3754
  100SAPE  H11Y10142  -0.208   3.779   5.384  0.1898  0.3352  2.1088
  100SAPE  C31210143  -0.401   3.744   5.267 -0.4923  0.2094 -0.5856
  100SAPE  H12X10144  -0.474   3.661   5.256  1.2535 -1.4982  0.0777
  100SAPE  H12Y10145  -0.355   3.757   5.166 -0.6202 -0.7979 -0.7822
  100SAPE  C31310146  -0.487   3.874   5.298  0.2261 -0.7208 -0.2136
  100SAPE  H13X10147  -0.419   3.952   5.339 -0.5929 -0.3686  0.4933
  100SAPE  H13Y10148  -0.561   3.855   5.378  1.6345  0.2642  1.4006
  100SAPE  C31410149  -0.548   3.938   5.170 -0.1426  0.0945 -0.2749
  100SAPE  H14X10150  -0.482   3.932   5.081 -0.3974 -1.3174 -0.3911
  100SAPE  H14Y10151  -0.567   4.047   5.180  0.8490  0.1986  0.6242
  100SAPE  C31510152  -0.683   3.872   5.132  0.2020 -0.5511  0.8486
  100SAPE  H15X10153  -0.762   3.906   5.202 -2.0790 -1.2062 -1.2263
  100SAPE  H15Y10154  -0.678   3.761   5.145 -1.8817 -1.0719 -1.7831
  100SAPE  C31610155  -0.747   3.905   4.997  0.1595 -0.9471  0.6966
  100SAPE  H16X10156  -0.855   3.880   5.006  0.5612 -2.4240  1.8614
  100SAPE  H16Y10157  -0.684   3.854   4.921 -1.2401  0.3363 -1.4366
  100SAPE  C31710158  -0.751   4.054   4.970 -0.1049  0.3290 -0.2097
  100SAPE  H17X10159  -0.652   4.104   4.968  0.0967  0.3106  3.2601
  100SAPE  H17Y10160  -0.809   4.095   5.056  1.4371 -0.6181  1.3526
  100SAPE  C31810161  -0.818   4.066   4.831 -0.5490 -0.4695 -0.2872
  100SAPE  H18X10162  -0.814   4.160   4.773  0.2752 -0.5219 -0.3246
  100SAPE  H18Y10163  -0.926   4.039   4.829 -0.9889  0.8726 -4.3945
  100SAPE  H18Z10164  -0.759   3.994   4.770 -0.4814 -0.9209  0.2989
  101SAPE     N10165   2.700   5.701   7.152 -0.1913  0.1547  0.4373
  101SAPE   HN110166   2.727   5.604   7.179  0.0532  0.6915  2.2209
  101SAPE   HN210167   2.787   5.746   7.118 -1.8720  1.5251 -2.4376
  101SAPE   HN310168   2.672   5.740   7.244  2.8883 -1.1763  2.0919
  101SAPE   C1210169   2.590   5.707   7.050  0.0309 -0.1393  0.6102
  101SAPE  H12A10170   2.538   5.609   7.057  0.3272 -0.6208 -2.4680
  101SAPE  H12B10171   2.643   5.716   6.952 -1.7367 -1.0421 -0.4751
  101SAPE   C1110172   2.490   5.814   7.079  0.1172  0.0749  0.2942
  101SAPE  H11A10173   2.418   5.829   6.995 -0.6982  0.9088  1.1184
  101SAPE  H11B10174   2.535   5.916   7.087  2.3198 -0.8243  0.0214
  101SAPE     P10175   2.283   5.702   7.212  0.1408 -0.1046 -0.0431
  101SAPE   O1310176   2.320   5.558   7.199  0.2861  0.2307 -0.1252
  101SAPE   O1410177   2.212   5.732   7.337 -0.4707  0.2786  0.1169
  101SAPE   O1210178   2.419   5.788   7.209 -0.1833 -0.0001  0.2531
  101SAPE   O1110179   2.207   5.750   7.081  0.0438  0.3573 -0.3667
  101SAPE    C110180   2.127   5.660   6.998 -0.1551 -0.9561 -0.1899
  101SAPE    HA10181   2.077   5.581   7.058 -0.9519 -0.5232 -0.2746
  101SAPE    HB10182   2.038   5.713   6.959  0.1674  0.2892  0.6986
  101SAPE    C210183   2.205   5.600   6.877 -0.1377  0.2318 -0.2111
  101SAPE    HS10184   2.284   5.535   6.921 -0.2043  1.5336  1.9967
  101SAPE   O2110185   2.258   5.715   6.793  0.4155  0.1978 -0.1450
  101SAPE   C2110186   2.385   5.701   6.757 -1.1524 -0.5764 -1.2877
  101SAPE   O2210187   2.464   5.615   6.793 -0.0118 -0.4838 -0.7101
  101SAPE   C2210188   2.410   5.810   6.656 -0.2360  0.0029  0.5305
  101SAPE   H2R10189   2.395   5.764   6.556  1.9788 -1.7960  0.9521
  101SAPE   H2S10190   2.332   5.890   6.665 -1.3510 -0.7436 -1.7805
  101SAPE    C310191   2.112   5.512   6.787 -0.2419 -0.0634 -0.2383
  101SAPE    HX10192   2.066   5.443   6.861  0.2016 -1.3592 -1.1362
  101SAPE    HY10193   2.162   5.447   6.712 -0.4102  2.3175 -2.5725
  101SAPE   O3110194   2.010   5.601   6.730  0.2016  0.9353  0.4278
  101SAPE   C3110195   2.036   5.636   6.605  0.4916  0.1937  0.1925
  101SAPE   O3210196   2.138   5.604   6.539  0.2278 -0.0348 -0.2647
  101SAPE   C3210197   1.923   5.728   6.561 -0.4081 -0.0420  0.0957
  101SAPE   H2X10198   1.932   5.818   6.626 -1.1849  0.1655 -0.0785
  101SAPE   H2Y10199   1.826   5.687   6.596  0.4458  0.3798  3.2536
  101SAPE   C2310200   2.549   5.885   6.664  0.1455 -0.4361 -0.4190
  101SAPE   H3R10201   2.629   5.810   6.648 -0.6755 -1.4756  0.1949
  101SAPE   H3S10202   2.543   5.914   6.771  1.2355  0.4452 -0.5843
  101SAPE   C2410203   2.570   5.998   6.559 -0.6589  0.4188 -0.1956
  101SAPE   H4R10204   2.592   5.947   6.463  1.9305 -0.1610  0.6399
  101SAPE   H4S10205   2.669   6.037   6.590 -1.4133  1.6911  0.7182
  101SAPE   C2510206   2.459   6.111   6.552 -0.2109  1.1340  0.0500
  101SAPE   H5R10207   2.417   6.151   6.645 -1.7609 -1.7411  0.6676
  101SAPE   C2610208   2.386   6.130   6.438 -1.0041 -0.5473 -0.0545
  101SAPE   H6R10209   2.310   6.209   6.430 -1.1510 -0.3866  2.2844
  101SAPE   C2710210   2.404   6.065   6.305 -0.3495 -0.8260 -0.3230
  101SAPE   H7R10211   2.502   6.013   6.305  0.2341  0.2204  1.2239
  101SAPE   H7S10212   2.414   6.147   6.230  1.1436 -1.3117 -0.6901
  101SAPE   C2810213   2.301   5.966   6.267  0.9613 -0.6745  0.3194
  101SAPE   H8R10214   2.290   5.893   6.349 -1.2365  0.5148  1.1607
  101SAPE   C2910215   2.215   5.957   6.163  0.0013 -0.1635  0.0973
  101SAPE   H9R10216   2.140   5.877   6.163  1.7486 -1.9452 -1.5962
  101SAPE  C21010217   2.207   6.064   6.052 -0.5567 -0.3014 -0.1637
  101SAPE  H10R10218   2.289   6.045   5.979 -0.6630 -0.6512 -0.1930
  101SAPE  H10S10219   2.247   6.161   6.087  0.4514 -1.6034  2.6129
  101SAPE  C21110220   2.063   6.070   6.001  0.4126 -1.0576  0.3466
  101SAPE  H11R10221   1.982   6.115   6.060  1.6736  3.2952 -0.8935
  101SAPE  C21210222   2.026   6.028   5.877 -0.3933  0.5058 -0.0066
  101SAPE  H12R10223   1.925   6.050   5.839  0.0859  3.9707  0.3792
  101SAPE  C21310224   2.111   5.953   5.773 -0.0485  0.4055 -0.0702
  101SAPE  H13R10225   2.045   5.876   5.728 -0.9997  0.4353  1.2192
  101SAPE  H13S10226   2.172   5.892   5.842 -1.2536 -1.2686 -0.4342
  101SAPE  C21410227   2.185   6.029   5.668 -0.0713 -0.2571 -0.0345
  101SAPE  H14R10228   2.243   6.113   5.709  0.6980 -1.6139  1.7872
  101SAPE  C21510229   2.203   6.001   5.538  0.8298 -0.1821 -0.6145
  101SAPE  H15R10230   2.285   6.047   5.481  1.8099 -0.3994  0.5729
  101SAPE  C21610231   2.138   5.891   5.458 -0.4100  0.2359 -0.4753
  101SAPE  H16R10232   2.070   5.825   5.516  2.6088 -0.9602  1.9635
  101SAPE  H16S10233   2.215   5.819   5.423 -0.2561 -1.1669  2.4192
  101SAPE  C21710234   2.036   5.947   5.358  0.1773  0.0634  0.1491
  101SAPE  H17R10235   2.090   6.015   5.289  0.9223 -1.7554 -1.1240
  101SAPE  H17S10236   1.950   6.008   5.396 -0.2315 -1.0207  1.0492
  101SAPE  C21810237   1.969   5.834   5.273 -0.3644 -0.6446  0.2940
  101SAPE  H18R10238   1.900   5.775   5.337 -1.1047 -0.1634 -0.0437
  101SAPE  H18S10239   2.050   5.765   5.240 -2.1563 -1.5326 -2.7144
  101SAPE  C21910240   1.887   5.886   5.156  0.2188  0.4690  0.2356
  101SAPE  H19R10241   1.954   5.945   5.090 -0.4730 -0.6847 -1.5966
  101SAPE  H19S10242   1.806   5.956   5.185 -1.2252 -1.5126  1.2376
  101SAPE  C22010243   1.816   5.776   5.070 -0.6070  0.2567 -0.3064
  101SAPE  H20R10244   1.768   5.819   4.979  3.0410  1.0194 -2.0453
  101SAPE  H20S10245   1.742   5.721   5.132  1.2109 -2.1358 -0.0920
  101SAPE  H20T10246   1.884   5.699   5.027 -1.0024 -0.6080  0.5644
  101SAPE   C3310247   1.916   5.765   6.409 -0.5211  0.3846  0.5292
  101SAPE   H3X10248   1.926   5.681   6.337 -1.2751  1.3775 -0.7902
  101SAPE   H3Y10249   2.003   5.832   6.388  0.8005 -1.5664 -0.5770
  101SAPE   C3410250   1.787   5.842   6.385 -0.3005 -0.3676  0.4318
  101SAPE   H4X10251   1.789   5.927   6.457 -0.5049  0.4866 -0.5505
  101SAPE   H4Y10252   1.697   5.783   6.412 -0.7832 -0.4619 -1.2972
  101SAPE   C3510253   1.757   5.896   6.244 -0.1740  0.2053  0.1965
  101SAPE   H5X10254   1.833   5.975   6.228 -1.0472  1.6655  2.7500
  101SAPE   H5Y10255   1.663   5.950   6.267  1.3569  2.3618  1.6993
  101SAPE   C3610256   1.738   5.790   6.136  0.0114  0.2491  0.0891
  101SAPE   H6X10257   1.671   5.707   6.168  3.1080 -1.7271  2.0327
  101SAPE   H6Y10258   1.835   5.737   6.124 -0.9045 -1.5709  0.3028
  101SAPE   C3710259   1.708   5.857   6.006 -0.7021 -0.4791 -0.1420
  101SAPE   H7X10260   1.786   5.935   5.987 -0.0066 -1.1160  0.0536
  101SAPE   H7Y10261   1.603   5.889   6.019 -0.3750  0.2083  0.8958
  101SAPE   C3810262   1.720   5.760   5.884 -0.3472  0.1739 -0.3587
  101SAPE   H8X10263   1.646   5.678   5.900 -2.0137  0.8078 -3.9081
  101SAPE   H8Y10264   1.826   5.726   5.883 -0.2603  0.3313  1.0896
  101SAPE   C3910265   1.692   5.832   5.749 -0.1067 -0.0156  0.7561
  101SAPE   H9X10266   1.733   5.765   5.670 -0.2026  1.6562 -0.7682
  101SAPE   H9Y10267   1.751   5.926   5.740 -2.7675  1.6583 -0.3518
  101SAPE  C31010268   1.546   5.851   5.723 -0.1850 -0.2761 -0.0688
  101SAPE  H10X10269   1.502   5.942   5.770  1.2049  0.2851  0.1912
  101SAPE  H10Y10270   1.490   5.767   5.769  0.4654  0.3590  2.0185
  101SAPE  C31110271   1.511   5.862   5.571  0.2029 -0.1026 -0.0979
  101SAPE  H11X10272   1.403   5.882   5.558 -0.2263 -2.0438  0.2537
  101SAPE  H11Y10273   1.546   5.782   5.502 -1.2346 -0.2376 -0.6962
  101SAPE  C31210274   1.586   5.983   5.510  0.6056 -0.3838 -0.0187
  101SAPE  H12X10275   1.694   5.963   5.525  0.0575 -3.7274  0.1869
  101SAPE  H12Y10276   1.554   6.068   5.574  0.1247 -2.2454  2.3622
  101SAPE  C31310277   1.559   5.999   5.356  0.3173 -0.6553  0.0135
  101SAPE  H13X10278   1.619   5.923   5.301  1.9015  1.3982 -1.2813
  101SAPE  H13Y10279   1.589   6.103   5.328 -0.8125 -1.1152 -3.3515
  101SAPE  C31410280   1.412   5.992   5.309 -0.2328 -0.3506  0.2765
  101SAPE  H14X10281   1.355   6.071   5.363 -0.6703  0.2878 -1.0701
  101SAPE  H14Y10282   1.367   5.898   5.346 -2.1499 -0.4266 -2.0516
  101SAPE  C31510283   1.408   5.994   5.154 -0.1306  0.2423 -0.6343
  101SAPE  H15X10284   1.382   5.893   5.117  0.3290 -0.6877  1.4186
  101SAPE  H15Y10285   1.511   6.016   5.118  0.2896 -1.1799 -0.3442
  101SAPE  C31610286   1.306   6.100   5.111  0.2398 -0.0001 -0.6001
  101SAPE  H16X10287   1.297   6.175   5.192  0.6492 -1.4836  0.8598
  101SAPE  H16Y10288   1.201   6.062   5.107  0.7097 -1.8362  2.0543
  101SAPE  C31710289   1.354   6.157   4.969  0.0997 -0.0561 -0.7527
  101SAPE  H17X10290   1.459   6.182   4.997  1.0639 -2.5532 -1.8463
  101SAPE  H17Y10291   1.299   6.251   4.951  0.9828  1.2167  2.4330
  101SAPE  C31810292   1.342   6.044   4.870  0.2853  0.5981 -0.4106
  101SAPE  H18X10293   1.238   6.005   4.874 -0.3376  2.1795 -0.5632
  101SAPE  H18Y10294   1.415   5.961   4.887  0.7204  0.2077 -3.4791
  101SAPE  H18Z10295   1.358   6.092   4.771  1.1200  1.7223  0.2480
  102SAPE     N10296   1.166   4.350   7.674  0.7167 -0.1599 -0.2867
  102SAPE   HN110297   1.167   4.286   7.592 -0.7917  1.6064 -1.7802
  102SAPE   HN210298   1.144   4.301   7.763  0.5068  1.4573  0.5895
  102SAPE   HN310299   1.087   4.415   7.653 -1.7256 -2.6205  0.5989
  102SAPE   C1210300   1.286   4.436   7.659  0.2524  0.2355 -0.0163
  102SAPE  H12A10301   1.379   4.377   7.673  1.1685  1.4497 -0.7328
  102SAPE  H12B10302   1.286   4.515   7.737 -0.2073  0.0016  0.2209
  102SAPE   C1110303   1.297   4.500   7.519  0.4741  0.2274 -0.6465
  102SAPE  H11A10304   1.378   4.575   7.524  1.0440 -0.3837 -0.6351
  102SAPE  H11B10305   1.204   4.552   7.485 -0.2985 -0.3622  0.4989
  102SAPE     P10306   1.217   4.366   7.313 -0.3112  0.3998  0.5454
  102SAPE   O1310307   1.253   4.243   7.238  0.4739  0.1273 -0.4915
  102SAPE   O1410308   1.089   4.357   7.384  0.1055 -0.4732  0.7702
  102SAPE   O1210309   1.333   4.403   7.419  1.2288 -0.0458 -0.0437
  102SAPE   O1110310   1.222   4.480   7.213  0.1442  0.1869 -0.4705
  102SAPE    C110311   1.354   4.522   7.160  1.2667  0.5742 -0.3585
  102SAPE    HA10312   1.418   4.550   7.247  0.6498  3.4079 -0.7019
  102SAPE    HB10313   1.399   4.439   7.103  0.4239 -0.0836 -0.0788
  102SAPE    C210314   1.355   4.648   7.078  0.1700 -0.6026  0.2702
  102SAPE    HS10315   1.332   4.737   7.140 -1.2953 -0.4815 -0.4182
  102SAPE   O2110316   1.262   4.642   6.969  0.0829  0.2380 -0.0332
  102SAPE   C2110317   1.137   4.683   6.995 -0.0819  0.2627 -0.9741
  102SAPE   O2210318   1.097   4.717   7.111 -0.2739 -0.2840  0.3611
  102SAPE   C2210319   1.047   4.664   6.879  0.3790  0.0984  0.2317
  102SAPE   H2R10320   0.966   4.737   6.896 -0.3575 -0.9079  1.1865
  102SAPE   H2S10321   1.088   4.698   6.781 -1.3344  0.5596 -0.3575
  102SAPE    C310322   1.499   4.667   7.016 -0.3057  0.0269  0.1459
  102SAPE    HX10323   1.509   4.597   6.931 -1.8141 -1.3415  1.0527
  102SAPE    HY10324   1.571   4.630   7.093 -1.4545  0.3626  1.4233
  102SAPE   O3110325   1.521   4.801   6.970  0.0858  0.0930 -0.0100
  102SAPE   C3110326   1.555   4.892   7.059  0.4606 -0.1099  0.8113
  102SAPE   O3210327   1.572   4.874   7.178  0.9392 -0.4070  0.3068
  102SAPE   C3210328   1.588   5.027   6.985  0.4464  0.1930 -0.8908
  102SAPE   H2X10329   1.572   5.112   7.055  1.3514 -0.9237  0.7187
  102SAPE   H2Y10330   1.522   5.032   6.895 -0.9707  0.8381  0.1483
  102SAPE   C2310331   0.997   4.517   6.867 -0.3057  0.8110  0.2810
  102SAPE   H3R10332   0.937   4.485   6.955  0.5456  0.1755  0.6480
  102SAPE   H3S10333   1.088   4.454   6.867  0.8675  2.4133 -0.9708
  102SAPE   C2410334   0.926   4.485   6.735  0.3080 -0.3376 -0.4965
  102SAPE   H4R10335   0.903   4.376   6.734  2.8375 -0.9778 -2.6304
  102SAPE   H4S10336   1.003   4.499   6.655  1.0617 -0.4172  0.1996
  102SAPE   C2510337   0.805   4.572   6.712 -0.1956  0.1252  0.2817
  102SAPE   H5R10338   0.746   4.598   6.802 -0.3853 -2.0406  0.8368
  102SAPE   C2610339   0.762   4.625   6.599  0.3537 -0.2093  0.0189
  102SAPE   H6R10340   0.688   4.707   6.604  1.6543  0.9947  0.1526
  102SAPE   C2710341   0.825   4.598   6.468  0.1793  0.0701 -0.0613
  102SAPE   H7R10342   0.748   4.544   6.408 -1.7420  3.1138 -0.5224
  102SAPE   H7S10343   0.909   4.526   6.475 -1.4780 -1.9158  0.2739
  102SAPE   C2810344   0.864   4.729   6.401  0.3497  0.4873 -0.1391
  102SAPE   H8R10345   0.915   4.791   6.477  0.7052 -0.3343  0.3124
  102SAPE   C2910346   0.824   4.787   6.285 -0.2339 -0.8450 -0.1062
  102SAPE   H9R10347   0.868   4.884   6.259  1.0961 -1.6079 -0.8084
  102SAPE  C21010348   0.735   4.731   6.176 -0.5195 -0.2366  0.5936
  102SAPE  H10R10349   0.705   4.627   6.198  2.6941 -1.0623  1.5344
  102SAPE  H10S10350   0.798   4.718   6.086  2.1365 -0.3849  2.3551
  102SAPE  C21110351   0.617   4.822   6.145 -0.4441 -0.6781 -0.5313
  102SAPE  H11R10352   0.591   4.898   6.221  0.8883 -1.2257  0.5296
  102SAPE  C21210353   0.537   4.810   6.037  0.0785 -0.2975 -0.2788
  102SAPE  H12R10354   0.450   4.876   6.027 -0.0554 -0.4461 -0.0985
  102SAPE  C21310355   0.561   4.724   5.917 -0.1790 -0.7475  0.3678
  102SAPE  H13R10356   0.538   4.620   5.949  1.9414 -1.4565 -0.2313
  102SAPE  H13S10357   0.662   4.736   5.872  0.0323  1.3287  1.2932
  102SAPE  C21410358   0.458   4.756   5.815  0.4373  0.1197  0.2440
  102SAPE  H14R10359   0.358   4.785   5.851  0.7352  0.8287  0.5020
  102SAPE  C21510360   0.465   4.745   5.683 -0.5908 -1.2919 -0.5275
  102SAPE  H15R10361   0.373   4.770   5.627 -1.1221  0.7665  1.1513
  102SAPE  C21610362   0.590   4.689   5.613 -0.1179 -0.6107 -0.1266
  102SAPE  H16R10363   0.641   4.607   5.667  0.0964 -0.7195 -0.4865
  102SAPE  H16S10364   0.663   4.773   5.609 -2.2307  1.3250 -0.0825
  102SAPE  C21710365   0.560   4.640   5.476  0.2598 -0.7785 -0.2685
  102SAPE  H17R10366   0.465   4.582   5.473 -0.5281  0.4481  0.3616
  102SAPE  H17S10367   0.633   4.566   5.438 -0.9710 -1.4705 -1.3785
  102SAPE  C21810368   0.540   4.757   5.378 -0.1383 -0.0746  0.5705
  102SAPE  H18R10369   0.611   4.839   5.403 -1.4017  1.7813 -1.6112
  102SAPE  H18S10370   0.437   4.794   5.396 -0.3292 -0.1861 -0.2549
  102SAPE  C21910371   0.535   4.731   5.226 -0.5356  1.1432 -0.8216
  102SAPE  H19R10372   0.501   4.827   5.183  0.0495  2.2069  1.0141
  102SAPE  H19S10373   0.460   4.650   5.217  0.1863  0.0471  1.9314
  102SAPE  C22010374   0.659   4.686   5.164 -0.3978 -0.6675  0.0220
  102SAPE  H20R10375   0.644   4.662   5.057  1.5888 -1.6599 -0.0971
  102SAPE  H20S10376   0.705   4.592   5.203 -0.7133 -0.9375 -0.2506
  102SAPE  H20T10377   0.733   4.769   5.171 -1.8275  0.7177 -0.8124
  102SAPE   C3310378   1.739   5.027   6.938  0.5269  0.1629  0.4160
  102SAPE   H3X10379   1.765   4.940   6.874  0.5520  0.3154  0.2190
  102SAPE   H3Y10380   1.791   5.016   7.036 -0.1598  0.3324  0.8031
  102SAPE   C3410381   1.781   5.159   6.862 -0.4916  0.2689  0.2166
  102SAPE   H4X10382   1.891   5.144   6.865 -0.7692 -1.9205  1.6770
  102SAPE   H4Y10383   1.745   5.252   6.912 -0.9269 -0.2254  0.8341
  102SAPE   C3510384   1.747   5.166   6.716 -0.1816  0.5348 -0.1061
  102SAPE   H5X10385   1.638   5.163   6.698  0.2593  0.5790 -3.7029
  102SAPE   H5Y10386   1.781   5.067   6.679  0.3074 -0.3772  2.5557
  102SAPE   C3610387   1.817   5.280   6.644 -0.3537 -0.6286 -0.2253
  102SAPE   H6X10388   1.924   5.287   6.671 -0.5627  0.6717  0.3511
  102SAPE   H6Y10389   1.766   5.373   6.676 -0.8963 -0.5544 -1.2605
  102SAPE   C3710390   1.809   5.267   6.497 -0.2966 -0.2302  0.4622
  102SAPE   H7X10391   1.703   5.264   6.464  0.2238 -3.8606 -1.4261
  102SAPE   H7Y10392   1.845   5.170   6.456  1.1428  1.6071 -3.1005
  102SAPE   C3810393   1.870   5.391   6.430  0.0492  0.9038  0.6169
  102SAPE   H8X10394   1.976   5.383   6.462 -0.1137 -2.9609  0.6886
  102SAPE   H8Y10395   1.807   5.480   6.452 -2.3599 -0.7025  0.5563
  102SAPE   C3910396   1.876   5.372   6.274 -0.9388  0.1365 -0.1061
  102SAPE   H9X10397   1.908   5.268   6.252 -0.7219 -0.5942  3.1518
  102SAPE   H9Y10398   1.949   5.445   6.232 -0.9193  0.9933  1.3272
  102SAPE  C31010399   1.736   5.400   6.211  0.0553  0.3577 -0.7566
  102SAPE  H10X10400   1.703   5.492   6.264  0.1854 -0.4845  0.8517
  102SAPE  H10Y10401   1.647   5.333   6.220  0.9843 -1.7508 -4.9503
  102SAPE  C31110402   1.750   5.435   6.063  0.1533  0.0901  0.1118
  102SAPE  H11X10403   1.832   5.508   6.045 -0.5052  0.5989 -0.9015
  102SAPE  H11Y10404   1.657   5.484   6.026 -1.2165 -1.1459  1.7586
  102SAPE  C31210405   1.770   5.300   5.991  0.1191 -0.2366 -0.2280
  102SAPE  H12X10406   1.696   5.232   6.037  0.5702  1.3482  3.0980
  102SAPE  H12Y10407   1.869   5.258   6.021  0.5718  0.0632 -1.2446
  102SAPE  C31310408   1.758   5.310   5.836  0.5613 -0.2796  0.2785
  102SAPE  H13X10409   1.824   5.240   5.781  0.7687  1.6742 -2.1485
  102SAPE  H13Y10410   1.782   5.412   5.799 -1.5667 -0.9282 -3.4552
  102SAPE  C31410411   1.620   5.282   5.778 -0.0242  0.4552 -0.4506
  102SAPE  H14X10412   1.531   5.323   5.832  0.6524 -1.1881  2.0923
  102SAPE  H14Y10413   1.613   5.172   5.793 -0.7878  0.5081 -0.3480
  102SAPE  C31510414   1.615   5.318   5.635 -0.3884  0.2232 -0.0411
  102SAPE  H15X10415   1.538   5.253   5.590  0.6230 -1.3314  0.3757
  102SAPE  H15Y10416   1.710   5.286   5.586 -1.4473 -0.8889 -1.4380
  102SAPE  C31610417   1.592   5.468   5.597  0.5967 -0.5897 -0.2436
  102SAPE  H16X10418   1.674   5.518   5.652  0.3707 -1.3898  0.8405
  102SAPE  H16Y10419   1.495   5.506   5.634 -0.2402 -1.6882 -1.2187
  102SAPE  C31710420   1.596   5.484   5.447  0.7535  0.2898  0.0662
  102SAPE  H17X10421   1.517   5.555   5.413  0.4039 -0.4149 -0.6430
  102SAPE  H17Y10422   1.571   5.381   5.413 -1.6610  0.1135  2.0548
  102SAPE  C31810423   1.739   5.520   5.403  0.1766 -0.7414 -0.2551
  102SAPE  H18X10424   1.758   5.540   5.296 -0.8256 -1.2384 -0.5444
  102SAPE  H18Y10425   1.799   5.437   5.445  1.9757  0.5592 -0.1684
  102SAPE  H18Z10426   1.767   5.615   5.453  1.3485 -0.1592 -1.9559
  103SAPE     N10427   1.016   2.037   2.776 -0.0591  0.1950  0.3356
  103SAPE   HN110428   1.071   2.125   2.763  1.0430 -0.2510  1.7892
  103SAPE   HN210429   0.917   2.069   2.777  0.6583  3.0848 -2.3406
  103SAPE   HN310430   1.044   1.996   2.867 -0.7630  0.2756  0.5936
  103SAPE   C1210431   1.045   1.928   2.674 -0.2429 -0.4973 -0.0609
  103SAPE  H12A10432   1.151   1.899   2.684  0.1366  1.0094  0.4615
  103SAPE  H12B10433   1.030   1.973   2.573 -1.3785 -0.1307  0.2566
  103SAPE   C1110434   0.953   1.808   2.688 -0.1553 -0.2994 -0.3904
  103SAPE  H11A10435   0.998   1.750   2.771  2.5052  0.0970 -1.4517
  103SAPE  H11B10436   0.968   1.747   2.596  3.7320 -1.3210  0.7356
  103SAPE     P10437   0.706   1.744   2.734  0.5658 -0.4571 -0.2316
  103SAPE   O1310438   0.594   1.813   2.662 -0.0900  1.0184  0.5547
  103SAPE   O1410439   0.757   1.613   2.684  0.2887 -0.4363  0.0896
  103SAPE   O1210440   0.822   1.846   2.726  0.0533 -0.1716  0.3985
  103SAPE   O1110441   0.672   1.741   2.887 -0.3138  0.0584 -0.1004
  103SAPE    C110442   0.762   1.732   2.997 -0.0080 -0.0279 -0.1629
  103SAPE    HA10443   0.844   1.661   2.975  0.2896 -0.1652  1.3225
  103SAPE    HB10444   0.795   1.836   3.013 -1.5708  0.3896  0.5659
  103SAPE    C210445   0.685   1.683   3.122  0.5807  0.4552  0.3225
  103SAPE    HS10446   0.589   1.738   3.138 -0.1529 -0.8008  0.3325
  103SAPE   O2110447   0.779   1.695   3.232  0.0206  0.0845  0.6118
  103SAPE   C2110448   0.792   1.819   3.273  0.3405 -0.5353 -0.2998
  103SAPE   O2210449   0.725   1.916   3.239 -1.1922 -0.3144 -0.2904
  103SAPE   C2210450   0.903   1.823   3.379 -0.2706  0.1868  0.0458
  103SAPE   H2R10451   0.855   1.791   3.474 -0.2808 -1.4259 -0.4785
  103SAPE   H2S10452   0.982   1.750   3.352 -1.9793 -1.8046  0.2023
  103SAPE    C310453   0.653   1.527   3.112 -0.5721 -0.0600  0.1120
  103SAPE    HX10454   0.746   1.472   3.089 -1.5231 -1.5258 -0.3507
  103SAPE    HY10455   0.591   1.520   3.020  2.4340  3.7435 -2.5716
  103SAPE   O3110456   0.583   1.467   3.224  0.0254  0.3889  0.1115
  103SAPE   C3110457   0.664   1.417   3.318 -0.2314  0.0504  0.1975
  103SAPE   O3210458   0.783   1.392   3.320 -0.0950 -0.2685 -0.1632
  103SAPE   C3210459   0.573   1.408   3.447 -0.1350  0.3825  0.0397
  103SAPE   H2X10460   0.506   1.321   3.430 -0.0613 -0.7389  4.2647
  103SAPE   H2Y10461   0.516   1.503   3.450 -0.9782 -0.1267  0.4658
  103SAPE   C2310462   0.953   1.973   3.402 -0.5748 -0.4648 -0.3162
  103SAPE   H3R10463   0.862   2.021   3.446  0.2625  0.0551  0.8985
  103SAPE   H3S10464   0.965   2.020   3.302 -0.7055 -1.0406 -0.6031
  103SAPE   C2410465   1.082   1.995   3.477  0.6402  0.7981 -0.2185
  103SAPE   H4R10466   1.115   2.096   3.445 -0.5499  1.5000  0.6871
  103SAPE   H4S10467   1.161   1.923   3.448  0.9570  1.0029  0.1196
  103SAPE   C2510468   1.042   1.984   3.620 -0.6328  0.4697  0.0836
  103SAPE   H5R10469   0.946   2.027   3.650 -1.4670  0.3805 -2.2573
  103SAPE   C2610470   1.107   1.899   3.703 -0.5152 -0.5263 -0.0165
  103SAPE   H6R10471   1.069   1.878   3.804 -2.9654 -0.1419 -0.7884
  103SAPE   C2710472   1.242   1.833   3.678  0.1686 -0.2879 -0.0095
  103SAPE   H7R10473   1.306   1.843   3.769  0.4744 -0.6044 -0.1893
  103SAPE   H7S10474   1.315   1.876   3.606  0.4445 -0.0366  0.4105
  103SAPE   C2810475   1.213   1.694   3.631  0.4849 -0.2244 -0.3354
  103SAPE   H8R10476   1.218   1.684   3.522  0.6591 -1.8842 -0.2051
  103SAPE   C2910477   1.173   1.586   3.701 -0.2893 -0.5739 -0.5316
  103SAPE   H9R10478   1.144   1.497   3.644 -1.1798 -0.3983 -0.3783
  103SAPE  C21010479   1.158   1.589   3.850  0.3301  0.8655 -0.6991
  103SAPE  H10R10480   1.065   1.539   3.884  1.6514 -0.5689  0.9960
  103SAPE  H10S10481   1.154   1.693   3.889  0.0455  0.9461 -0.9422
  103SAPE  C21110482   1.274   1.518   3.905 -0.4806  0.1581 -0.1836
  103SAPE  H11R10483   1.349   1.486   3.830 -1.4681  0.5825 -1.3821
  103SAPE  C21210484   1.286   1.482   4.033  0.1889  0.1443 -0.3061
  103SAPE  H12R10485   1.377   1.426   4.060 -0.0024 -0.2949 -0.5622
  103SAPE  C21310486   1.193   1.527   4.144 -1.0691 -0.3669  0.1555
  103SAPE  H13R10487   1.094   1.479   4.124  0.1282 -2.9957  0.1322
  103SAPE  H13S10488   1.189   1.636   4.127 -0.1738 -0.3058  0.2778
  103SAPE  C21410489   1.254   1.483   4.272 -0.2155 -0.1209  0.0829
  103SAPE  H14R10490   1.289   1.379   4.282 -1.8600 -0.8633 -1.4023
  103SAPE  C21510491   1.247   1.560   4.383 -0.7027 -0.8458  0.6653
  103SAPE  H15R10492   1.304   1.529   4.471 -0.2850 -1.4419  0.1944
  103SAPE  C21610493   1.181   1.693   4.393 -0.2351 -0.3919  0.0487
  103SAPE  H16R10494   1.087   1.671   4.448  0.6957 -0.9940  1.4629
  103SAPE  H16S10495   1.171   1.749   4.298 -0.9760 -0.9001 -0.1774
  103SAPE  C21710496   1.263   1.781   4.485  0.3936  0.1419 -0.1071
  103SAPE  H17R10497   1.254   1.887   4.455  2.9524  0.7421  0.9419
  103SAPE  H17S10498   1.372   1.762   4.474  0.1938 -0.6469 -0.8793
  103SAPE  C21810499   1.228   1.770   4.636 -0.1594 -0.0818  0.4378
  103SAPE  H18R10500   1.260   1.671   4.673 -3.6964 -0.7924  2.0350
  103SAPE  H18S10501   1.119   1.790   4.647  0.1190  1.5020  0.6157
  103SAPE  C21910502   1.310   1.874   4.721  0.4642 -0.1233  0.0727
  103SAPE  H19R10503   1.417   1.876   4.692  0.6009 -2.0542  0.3472
  103SAPE  H19S10504   1.313   1.846   4.828 -0.1496 -0.0808  0.1082
  103SAPE  C22010505   1.261   2.022   4.714 -0.2313 -0.1275  0.6327
  103SAPE  H20R10506   1.320   2.088   4.781 -1.0563  0.3384  0.9144
  103SAPE  H20S10507   1.161   2.018   4.762  0.5316  0.3370  2.3426
  103SAPE  H20T10508   1.258   2.049   4.606 -0.0045 -2.7045 -0.0751
  103SAPE   C3310509   0.658   1.389   3.584  0.9746  0.4533  0.5996
  103SAPE   H3X10510   0.740   1.317   3.568  1.2705  1.0062 -0.4497
  103SAPE   H3Y10511   0.582   1.355   3.658  0.4686 -1.5980 -0.7913
  103SAPE   C3410512   0.716   1.528   3.620 -0.0006 -0.0078  0.6940
  103SAPE   H4X10513   0.641   1.610   3.616  0.8895  0.8098  0.6645
  103SAPE   H4Y10514   0.784   1.535   3.532 -0.2915  1.6490  0.5823
  103SAPE   C3510515   0.802   1.540   3.746  0.0778 -0.2352 -0.1471
  103SAPE   H5X10516   0.859   1.635   3.753 -1.4221  0.6265  1.1078
  103SAPE   H5Y10517   0.871   1.454   3.760 -0.2660 -0.6285 -0.8366
  103SAPE   C3610518   0.713   1.534   3.873 -0.0681  0.4921 -0.2895
  103SAPE   H6X10519   0.653   1.441   3.886 -1.2705  0.8479 -2.7157
  103SAPE   H6Y10520   0.639   1.615   3.857 -1.6802 -0.9491 -0.4013
  103SAPE   C3710521   0.803   1.538   3.997 -0.1293 -0.0750  0.1695
  103SAPE   H7X10522   0.871   1.621   3.967 -2.3095  1.6240 -0.3139
  103SAPE   H7Y10523   0.866   1.447   4.005  0.2951  0.1260 -0.7263
  103SAPE   C3810524   0.729   1.576   4.126  0.8823 -0.6099 -0.2758
  103SAPE   H8X10525   0.656   1.498   4.153  0.7538 -0.0091  1.1802
  103SAPE   H8Y10526   0.684   1.677   4.115 -0.1635 -0.9406  0.7970
  103SAPE   C3910527   0.820   1.593   4.248 -0.5155 -0.7531 -0.2250
  103SAPE   H9X10528   0.888   1.678   4.226 -0.3298 -0.5358  1.1195
  103SAPE   H9Y10529   0.884   1.504   4.263  0.6140  0.2852  1.5536
  103SAPE  C31010530   0.738   1.623   4.374 -0.2190  0.1129 -0.1523
  103SAPE  H10X10531   0.763   1.550   4.455  2.2482 -0.6498 -1.4834
  103SAPE  H10Y10532   0.629   1.607   4.366 -0.3512  1.3638 -0.9320
  103SAPE  C31110533   0.784   1.754   4.437  0.8929 -0.6310  0.0637
  103SAPE  H11X10534   0.759   1.833   4.362  2.6597 -0.4889 -0.4160
  103SAPE  H11Y10535   0.892   1.762   4.461  0.5890 -0.0568  1.3420
  103SAPE  C31210536   0.710   1.787   4.564  0.7498 -0.7693 -0.6010
  103SAPE  H12X10537   0.736   1.711   4.641 -1.0502  0.6679  1.5714
  103SAPE  H12Y10538   0.607   1.771   4.525 -0.5679  0.5167  2.1022
  103SAPE  C31310539   0.728   1.929   4.608 -0.4415 -0.4169  0.0425
  103SAPE  H13X10540   0.751   1.999   4.525  2.1833  0.0910  1.0834
  103SAPE  H13Y10541   0.826   1.926   4.660 -0.0932  0.0523 -0.5690
  103SAPE  C31410542   0.624   1.985   4.697  0.8485 -0.2059 -0.8714
  103SAPE  H14X10543   0.522   1.973   4.655 -0.0012 -1.5739  1.3818
  103SAPE  H14Y10544   0.639   2.094   4.711 -0.7115 -0.2855  2.4089
  103SAPE  C31510545   0.618   1.915   4.837  0.0879 -0.8340  0.1654
  103SAPE  H15X10546   0.718   1.923   4.884 -0.1280 -1.7479  0.8132
  103SAPE  H15Y10547   0.586   1.809   4.831 -2.7152 -0.0221 -0.4413
  103SAPE  C31610548   0.504   1.990   4.920  0.1293 -0.6800 -0.3282
  103SAPE  H16X10549   0.537   2.096   4.920  2.0322 -1.2377 -0.6075
  103SAPE  H16Y10550   0.511   1.951   5.024 -1.5927  0.1198  0.1264
  103SAPE  C31710551   0.362   1.974   4.868  0.2175 -0.1400 -0.2248
  103SAPE  H17X10552   0.342   2.044   4.784  0.6071  1.5502  1.0326
  103SAPE  H17Y10553   0.286   2.002   4.944  0.4942  0.8904 -0.3102
  103SAPE  C31810554   0.336   1.826   4.829 -0.8943  0.2806 -0.0290
  103SAPE  H18X10555   0.388   1.754   4.896  0.1356  1.2781  0.2756
  103SAPE  H18Y10556   0.370   1.808   4.725 -3.5309  2.6881 -1.4258
  103SAPE  H18Z10557   0.227   1.809   4.831 -0.8934 -0.3399 -2.2432
  104SAPE     N10558   3.342   1.208   2.696  0.3411 -0.2155 -0.5375
  104SAPE   HN110559   3.407   1.126   2.687  0.5484  0.0220 -1.2207
  104SAPE   HN210560   3.388   1.275   2.761  1.7404 -0.3848 -1.3010
  104SAPE   HN310561   3.256   1.175   2.743  0.2483  0.0141 -0.5504
  104SAPE   C1210562   3.333   1.272   2.562  1.1672  0.4045 -0.0502
  104SAPE  H12A10563   3.414   1.347   2.561 -1.5488  3.6364  2.0769
  104SAPE  H12B10564   3.238   1.330   2.565 -1.8138 -3.9728  0.1762
  104SAPE   C1110565   3.336   1.170   2.445 -0.2767  0.1906  1.0940
  104SAPE  H11A10566   3.441   1.148   2.417  0.2565  1.2577  2.1757
  104SAPE  H11B10567   3.299   1.222   2.354  2.3401  1.1907  0.5072
  104SAPE     P10568   3.109   1.060   2.486 -0.2985  0.3357 -0.1530
  104SAPE   O1310569   3.056   1.117   2.359 -0.6931  0.0761  0.1159
  104SAPE   O1410570   3.045   0.933   2.523  0.3167 -0.4316  0.2557
  104SAPE   O1210571   3.266   1.049   2.476 -0.4134  0.3786  0.0554
  104SAPE   O1110572   3.088   1.157   2.604 -0.0022  0.0459 -0.2174
  104SAPE    C110573   2.961   1.229   2.613  0.1078  0.1715  0.4809
  104SAPE    HA10574   2.968   1.329   2.566  1.7966  1.4117  3.1508
  104SAPE    HB10575   2.879   1.164   2.575 -1.0629  1.1636  1.2191
  104SAPE    C210576   2.922   1.254   2.756  0.5546 -1.0308  0.5312
  104SAPE    HS10577   2.986   1.330   2.805  1.7341 -1.1642 -0.7716
  104SAPE   O2110578   2.914   1.127   2.827 -0.4299  0.3569  0.2237
  104SAPE   C2110579   3.025   1.095   2.885  0.1133  0.1944  0.2146
  104SAPE   O2210580   3.134   1.149   2.878  0.3419 -0.5562 -0.4913
  104SAPE   C2210581   2.994   0.978   2.981 -0.3892 -0.4390  0.0343
  104SAPE   H2R10582   3.033   0.889   2.927 -1.4330 -0.2591 -1.0421
  104SAPE   H2S10583   3.071   0.989   3.061 -0.4038  0.2155 -0.0366
  104SAPE    C310584   2.776   1.312   2.757 -0.0923  0.0639  0.2732
  104SAPE    HX10585   2.698   1.234   2.741 -0.3536  0.4888 -0.5941
  104SAPE    HY10586   2.764   1.384   2.673  2.6174 -0.3935 -0.6011
  104SAPE   O3110587   2.738   1.369   2.884  0.4644 -1.1061  0.4918
  104SAPE   C3110588   2.765   1.497   2.898 -0.7909  0.1606  0.3409
  104SAPE   O3210589   2.842   1.555   2.816  0.1407  0.3016  0.9623
  104SAPE   C3210590   2.699   1.564   3.018 -0.7133  0.2186 -0.0431
  104SAPE   H2X10591   2.727   1.506   3.109 -1.6986  1.4646  1.0916
  104SAPE   H2Y10592   2.589   1.550   3.010 -1.1626  3.3179 -0.4533
  104SAPE   C2310593   2.851   0.961   3.036 -0.4555  0.4495 -0.3593
  104SAPE   H3R10594   2.843   0.851   3.044  0.1520  0.5146  1.4836
  104SAPE   H3S10595   2.765   0.994   2.975  0.4480  0.3988 -1.7081
  104SAPE   C2410596   2.851   1.013   3.183  0.7249  0.1557 -0.4878
  104SAPE   H4R10597   2.938   0.964   3.231  1.9195  0.9811 -1.7297
  104SAPE   H4S10598   2.764   0.971   3.237 -0.3795  0.7679 -1.7366
  104SAPE   C2510599   2.857   1.164   3.204 -0.2902  0.0530  0.2315
  104SAPE   H5R10600   2.897   1.218   3.117  0.2852 -0.9693 -0.1702
  104SAPE   C2610601   2.823   1.228   3.314 -0.2116  0.1214  0.1470
  104SAPE   H6R10602   2.838   1.337   3.320  3.0403 -0.2228 -0.0990
  104SAPE   C2710603   2.757   1.167   3.435  0.1292  0.2835 -0.2754
  104SAPE   H7R10604   2.786   1.060   3.442  0.3713  0.2133 -1.9345
  104SAPE   H7S10605   2.646   1.166   3.425  0.1671  0.3867 -0.7646
  104SAPE   C2810606   2.798   1.231   3.564  0.5737 -0.4510  0.4184
  104SAPE   H8R10607   2.869   1.175   3.627  0.8181  1.5055  1.9509
  104SAPE   C2910608   2.756   1.349   3.615  0.2788  0.4099  0.0593
  104SAPE   H9R10609   2.791   1.387   3.712 -0.9610  0.0496  0.6631
  104SAPE  C21010610   2.662   1.443   3.544  0.5648 -0.2538 -0.4226
  104SAPE  H10R10611   2.564   1.420   3.592  0.6119 -2.6251 -1.3416
  104SAPE  H10S10612   2.646   1.416   3.438 -1.6781 -0.6750 -0.0283
  104SAPE  C21110613   2.716   1.581   3.552  0.2532 -0.0591  0.0443
  104SAPE  H11R10614   2.770   1.616   3.463 -1.0229  0.0517 -0.7079
  104SAPE  C21210615   2.700   1.659   3.660  0.0158 -0.8372  0.7785
  104SAPE  H12R10616   2.733   1.762   3.643  0.0451 -0.9557  0.0827
  104SAPE  C21310617   2.627   1.624   3.790 -0.0702 -0.8990  0.8359
  104SAPE  H13R10618   2.708   1.621   3.866  1.6576 -0.4679 -0.9078
  104SAPE  H13S10619   2.594   1.518   3.791  0.9656 -1.3436 -2.2243
  104SAPE  C21410620   2.523   1.728   3.831 -0.1633 -0.0976  0.7308
  104SAPE  H14R10621   2.421   1.727   3.791 -0.0661  0.7413  0.4426
  104SAPE  C21510622   2.545   1.820   3.925 -0.5753 -0.0963  0.7227
  104SAPE  H15R10623   2.460   1.878   3.963  0.1310  0.9689  0.7379
  104SAPE  C21610624   2.670   1.849   4.012 -0.1477  0.5211 -0.3386
  104SAPE  H16R10625   2.687   1.959   4.005  3.9187  0.0085 -0.6272
  104SAPE  H16S10626   2.762   1.796   3.981  0.7763  2.6247 -1.4213
  104SAPE  C21710627   2.650   1.820   4.158 -0.0284  0.5959  0.3808
  104SAPE  H17R10628   2.746   1.825   4.215 -0.7112  0.0217  1.6268
  104SAPE  H17S10629   2.624   1.713   4.175  0.6495 -0.0207 -2.1078
  104SAPE  C21810630   2.563   1.920   4.229 -0.0147  0.3800 -0.6358
  104SAPE  H18R10631   2.469   1.938   4.173  0.2656  0.4633 -1.0852
  104SAPE  H18S10632   2.618   2.015   4.243  1.8688 -0.8492  0.8456
  104SAPE  C21910633   2.511   1.887   4.376 -0.5133 -0.3400  0.2204
  104SAPE  H19R10634   2.599   1.879   4.443  0.7277 -1.8376 -1.4799
  104SAPE  H19S10635   2.462   1.787   4.371  1.5247 -1.3169 -2.5046
  104SAPE  C22010636   2.401   1.980   4.428 -0.0652  0.0631 -0.0062
  104SAPE  H20R10637   2.439   2.083   4.442  0.1189 -0.0777  0.5716
  104SAPE  H20S10638   2.368   1.957   4.532  1.1178  0.4962  0.4893
  104SAPE  H20T10639   2.311   1.994   4.365 -0.8821  0.7840  1.2726
  104SAPE   C3310640   2.732   1.717   3.031 -1.2284  0.5199 -0.3120
  104SAPE   H3X10641   2.727   1.765   2.931  1.0781 -2.0699 -1.7928
  104SAPE   H3Y10642   2.837   1.730   3.063 -1.6271  1.2983  0.7469
  104SAPE   C3410643   2.627   1.789   3.117 -0.3213  0.1706  0.1963
  104SAPE   H4X10644   2.545   1.796   3.043  0.2997 -2.5616 -0.8616
  104SAPE   H4Y10645   2.666   1.890   3.141 -2.6915  0.8731  1.3180
  104SAPE   C3510646   2.591   1.716   3.245  0.8405 -0.5960  0.2155
  104SAPE   H5X10647   2.687   1.693   3.297  1.1220  0.9960  0.4773
  104SAPE   H5Y10648   2.543   1.618   3.224  1.2093 -0.7040 -0.1302
  104SAPE   C3610649   2.489   1.785   3.332  0.5635 -0.5799  0.3966
  104SAPE   H6X10650   2.464   1.734   3.428 -2.0528  0.0552  0.1289
  104SAPE   H6Y10651   2.389   1.802   3.286  0.0923 -0.2706  1.4915
  104SAPE   C3710652   2.539   1.925   3.380  0.0008 -0.4847  0.2193
  104SAPE   H7X10653   2.554   1.996   3.296  1.1797 -1.0751 -0.0889
  104SAPE   H7Y10654   2.643   1.913   3.418 -0.3687 -1.9926  0.8211
  104SAPE   C3810655   2.463   1.982   3.498 -0.2892  0.0751  0.1218
  104SAPE   H8X10656   2.460   1.918   3.589  0.5242  1.0295  0.8574
  104SAPE   H8Y10657   2.360   1.997   3.460  0.1212 -0.3968 -1.2200
  104SAPE   C3910658   2.517   2.112   3.543 -0.1494  0.2868  0.0677
  104SAPE   H9X10659   2.502   2.189   3.465 -1.4014  0.0456  0.0362
  104SAPE   H9Y10660   2.627   2.105   3.551 -0.1131 -1.0684 -1.1318
  104SAPE  C31010661   2.451   2.174   3.672  0.0993 -0.0021 -0.1703
  104SAPE  H10X10662   2.457   2.088   3.742  1.3305  1.6318  1.8308
  104SAPE  H10Y10663   2.351   2.217   3.651  0.8628  0.9861 -2.0051
  104SAPE  C31110664   2.534   2.289   3.719  0.0961  0.5933 -0.5991
  104SAPE  H11X10665   2.472   2.379   3.739 -0.1651  0.4582 -0.7986
  104SAPE  H11Y10666   2.601   2.321   3.636  1.6246 -2.0182 -0.4761
  104SAPE  C31210667   2.628   2.257   3.845  0.2786  0.2123  0.0085
  104SAPE  H12X10668   2.706   2.334   3.862 -1.9991  2.3913  1.2027
  104SAPE  H12Y10669   2.665   2.155   3.819 -0.6122  0.1143 -0.9136
  104SAPE  C31310670   2.553   2.229   3.980  0.1773  0.2926 -0.4265
  104SAPE  H13X10671   2.617   2.230   4.071 -0.4457  2.6401  0.0733
  104SAPE  H13Y10672   2.495   2.135   3.970  2.3004 -0.9411 -1.7395
  104SAPE  C31410673   2.455   2.342   4.007  0.4789  0.0336 -0.0165
  104SAPE  H14X10674   2.387   2.340   3.919  2.4836 -1.2759 -1.6045
  104SAPE  H14Y10675   2.515   2.435   3.995  0.0784 -0.0112 -3.0242
  104SAPE  C31510676   2.379   2.336   4.135 -0.2910  0.2897  0.5959
  104SAPE  H15X10677   2.324   2.239   4.137  0.8278 -0.4109 -0.9543
  104SAPE  H15Y10678   2.296   2.410   4.139 -0.7036 -0.1173 -0.1326
  104SAPE  C31610679   2.455   2.370   4.257 -0.4028 -0.7197 -0.3858
  104SAPE  H16X10680   2.483   2.478   4.253  0.5051 -0.8079  1.9906
  104SAPE  H16Y10681   2.550   2.314   4.266 -1.0948 -1.7919  0.4227
  104SAPE  C31710682   2.376   2.344   4.386 -0.0427 -0.5347  0.5392
  104SAPE  H17X10683   2.326   2.245   4.387  1.0767 -1.1114  1.3780
  104SAPE  H17Y10684   2.296   2.421   4.387  0.6346  0.1886  1.7951
  104SAPE  C31810685   2.452   2.366   4.512  0.1532  0.6361 -0.1123
  104SAPE  H18X10686   2.560   2.346   4.495  0.2565  1.8997 -1.1591
  104SAPE  H18Y10687   2.416   2.303   4.595  0.1373  1.2196  0.3301
  104SAPE  H18Z10688   2.450   2.473   4.541 -0.0512  0.9813 -1.3109
  105SAPE     N10689   4.212   5.971   3.070 -0.8866 -0.6203 -0.4079
  105SAPE   HN110690   4.212   6.074   3.087 -0.4961 -0.8961  1.5194
  105SAPE   HN210691   4.312   5.945   3.074  0.5591  3.9258 -1.1971
  105SAPE   HN310692   4.183   5.958   2.971 -2.1817  0.1683 -0.1581
  105SAPE   C1210693   4.122   5.904   3.160  0.0179 -0.3913 -0.4158
  105SAPE  H12A10694   4.022   5.947   3.142  0.2038  0.1554 -0.1588
  105SAPE  H12B10695   4.156   5.929   3.263  0.1210 -2.6017  0.1579
  105SAPE   C1110696   4.134   5.756   3.152 -0.6207  0.8596  0.1734
  105SAPE  H11A10697   4.148   5.733   3.044 -0.0706  1.3079  0.1431
  105SAPE  H11B10698   4.044   5.702   3.189  0.5704 -1.7675 -0.4925
  105SAPE     P10699   4.323   5.577   3.188 -0.5693 -0.4356  0.5663
  105SAPE   O1310700   4.340   5.568   3.039 -1.1861  0.0932 -0.3782
  105SAPE   O1410701   4.441   5.563   3.277  0.0837 -0.4803  0.1314
  105SAPE   O1210702   4.257   5.723   3.216  0.4266  0.4752 -0.5295
  105SAPE   O1110703   4.207   5.480   3.228  0.1028  0.7638  0.6887
  105SAPE    C110704   4.204   5.401   3.344  0.1477 -0.7546 -0.2549
  105SAPE    HA10705   4.276   5.317   3.330  0.1069 -0.5547 -1.8455
  105SAPE    HB10706   4.210   5.454   3.442 -1.5467 -1.7960  0.4666
  105SAPE    C210707   4.062   5.332   3.340  0.2110 -0.2508 -0.3555
  105SAPE    HS10708   4.037   5.291   3.240 -0.4762 -1.2261  0.2039
  105SAPE   O2110709   3.971   5.441   3.376  0.2794 -0.6298 -0.8757
  105SAPE   C2110710   3.851   5.430   3.323  0.0636 -0.6562 -0.0515
  105SAPE   O2210711   3.818   5.328   3.261  0.2631  0.4513 -0.2867
  105SAPE   C2210712   3.768   5.545   3.378  0.7170  0.0925  0.9167
  105SAPE   H2R10713   3.718   5.585   3.287  0.3079 -1.1251  0.5931
  105SAPE   H2S10714   3.692   5.485   3.432 -0.2457  0.4207 -0.0212
  105SAPE    C310715   4.051   5.218   3.440 -1.2389 -0.2583  0.0474
  105SAPE    HX10716   3.948   5.177   3.451 -0.1338 -2.9149  1.4585
  105SAPE    HY10717   4.072   5.263   3.540  2.7219 -0.7358 -0.4328
  105SAPE   O3110718   4.145   5.114   3.410  0.1193  0.2461  0.2784
  105SAPE   C3110719   4.088   5.017   3.333  0.6632  0.1635 -1.7057
  105SAPE   O3210720   3.976   5.029   3.285 -0.2484  0.5021  0.4378
  105SAPE   C3210721   4.183   4.901   3.310  0.1682 -0.4557 -0.0463
  105SAPE   H2X10722   4.265   4.900   3.384  0.9256  0.0176 -0.8501
  105SAPE   H2Y10723   4.223   4.913   3.207 -2.9620  2.4162 -1.1108
  105SAPE   C2310724   3.835   5.657   3.462  0.2966  0.6482 -0.5280
  105SAPE   H3R10725   3.872   5.719   3.378 -0.6082  0.3832 -1.1284
  105SAPE   H3S10726   3.912   5.615   3.531  0.6427 -0.8344 -1.7671
  105SAPE   C2410727   3.732   5.722   3.551  0.0293  0.2753  0.3458
  105SAPE   H4R10728   3.664   5.637   3.575 -0.1741  0.3126 -0.0943
  105SAPE   H4S10729   3.671   5.793   3.491  0.8523  1.5017  0.9181
  105SAPE   C2510730   3.781   5.803   3.666 -0.3220 -0.5594 -0.0523
  105SAPE   H5R10731   3.879   5.850   3.654 -1.1806  2.3035  2.7285
  105SAPE   C2610732   3.711   5.824   3.784 -0.4252 -0.2711  0.0936
  105SAPE   H6R10733   3.760   5.890   3.857 -0.5263  1.7853 -1.5992
  105SAPE   C2710734   3.573   5.777   3.814 -0.8478  0.0120 -0.2107
  105SAPE   H7R10735   3.579   5.678   3.864 -0.4840 -0.6409 -1.5131
  105SAPE   H7S10736   3.510   5.756   3.725  0.2415 -2.3285 -0.4998
  105SAPE   C2810737   3.500   5.873   3.904  0.2989 -0.0415  0.4085
  105SAPE   H8R10738   3.516   5.979   3.878  1.7612 -0.6114 -1.2623
  105SAPE   C2910739   3.436   5.844   4.019 -0.0872 -0.3717 -0.1959
  105SAPE   H9R10740   3.408   5.929   4.084  2.4790  0.3243  0.1090
  105SAPE  C21010741   3.404   5.707   4.072  0.0356 -0.1890  0.4174
  105SAPE  H10R10742   3.488   5.678   4.139  0.8215  3.1839  1.0698
  105SAPE  H10S10743   3.401   5.636   3.987 -1.0895  0.6296 -0.2603
  105SAPE  C21110744   3.280   5.690   4.155  0.3971  0.5170 -0.2120
  105SAPE  H11R10745   3.252   5.787   4.201  1.1032 -0.2361  1.8989
  105SAPE  C21210746   3.198   5.584   4.173  0.4943  0.3211 -0.2918
  105SAPE  H12R10747   3.120   5.576   4.250  0.3951 -0.8025 -0.4874
  105SAPE  C21310748   3.230   5.449   4.120 -0.3727  1.3419 -0.0170
  105SAPE  H13R10749   3.209   5.459   4.011  1.4261  1.5670 -0.3862
  105SAPE  H13S10750   3.154   5.378   4.159  0.4054  0.5407  0.1005
  105SAPE  C21410751   3.373   5.406   4.136  0.7032 -0.1225 -0.5337
  105SAPE  H14R10752   3.440   5.436   4.054 -0.7136 -0.6053 -1.9290
  105SAPE  C21510753   3.417   5.340   4.239  0.2921 -0.2602 -0.4419
  105SAPE  H15R10754   3.515   5.291   4.239 -0.1908 -1.2930 -1.2413
  105SAPE  C21610755   3.335   5.291   4.360  0.2449 -0.6022 -0.2399
  105SAPE  H16R10756   3.362   5.183   4.362 -0.0164 -0.7826 -2.7070
  105SAPE  H16S10757   3.228   5.293   4.329  0.3140  0.9204 -0.4507
  105SAPE  C21710758   3.339   5.377   4.494  0.4032  0.8235  0.6935
  105SAPE  H17R10759   3.291   5.476   4.483 -0.2118  0.4284 -0.2514
  105SAPE  H17S10760   3.448   5.395   4.508  0.1014  1.8224  1.9352
  105SAPE  C21810761   3.282   5.299   4.607 -0.0113  0.3517 -0.5983
  105SAPE  H18R10762   3.333   5.203   4.631 -0.9226 -0.1260 -0.5090
  105SAPE  H18S10763   3.174   5.291   4.583 -0.3057  2.0848  0.0190
  105SAPE  C21910764   3.301   5.379   4.738  0.8446 -0.3074  0.5242
  105SAPE  H19R10765   3.290   5.484   4.703 -0.8242 -0.5190  0.3163
  105SAPE  H19S10766   3.402   5.357   4.777  1.5188  0.2565 -0.8285
  105SAPE  C22010767   3.199   5.357   4.845 -0.1527 -1.1012  0.2576
  105SAPE  H20R10768   3.102   5.375   4.794  0.2302  0.1643 -0.0505
  105SAPE  H20S10769   3.198   5.434   4.925  0.8688  0.3251 -1.0384
  105SAPE  H20T10770   3.195   5.250   4.875 -2.8062 -0.6761  1.6660
  105SAPE   C3310771   4.111   4.770   3.317  1.0878 -0.2430  0.2431
  105SAPE   H3X10772   4.164   4.695   3.255  2.8388 -0.1105  1.5058
  105SAPE   H3Y10773   4.012   4.773   3.266  1.4421 -0.2814 -0.4491
  105SAPE   C3410774   4.088   4.710   3.460  0.0526  0.3109  0.4110
  105SAPE   H4X10775   4.193   4.707   3.498  0.0744 -2.0747  0.3451
  105SAPE   H4Y10776   4.044   4.608   3.455  3.0172 -1.0694 -0.4028
  105SAPE   C3510777   4.003   4.801   3.548  0.1092  0.3144  0.6035
  105SAPE   H5X10778   3.940   4.866   3.483  0.9683 -1.5596 -2.2758
  105SAPE   H5Y10779   4.071   4.866   3.608  2.0694 -0.7592 -0.3633
  105SAPE   C3610780   3.904   4.726   3.636  0.3857 -0.1931 -0.1964
  105SAPE   H6X10781   3.963   4.668   3.711  2.3484  1.2510 -0.5069
  105SAPE   H6Y10782   3.849   4.654   3.573  2.3241 -0.9491 -1.0908
  105SAPE   C3710783   3.802   4.819   3.711  0.6518 -0.0705 -0.0629
  105SAPE   H7X10784   3.744   4.885   3.643  0.5898 -1.2068 -1.1300
  105SAPE   H7Y10785   3.866   4.889   3.770 -1.4643  0.1586  2.0982
  105SAPE   C3810786   3.700   4.750   3.795 -0.4134 -0.2551  0.0485
  105SAPE   H8X10787   3.754   4.735   3.890 -1.8687 -3.3839  0.5228
  105SAPE   H8Y10788   3.670   4.649   3.758  0.2537 -0.8905  1.2022
  105SAPE   C3910789   3.572   4.831   3.809 -0.9029 -0.1782 -0.0324
  105SAPE   H9X10790   3.484   4.773   3.843 -2.8451  1.6384 -1.6680
  105SAPE   H9Y10791   3.538   4.869   3.711  0.0529  0.5496 -0.0976
  105SAPE  C31010792   3.587   4.947   3.910  0.1162  0.2748 -0.9351
  105SAPE  H10X10793   3.498   5.013   3.904 -0.1969  0.1800  1.5358
  105SAPE  H10Y10794   3.677   5.010   3.892  0.0267  0.9545  0.7423
  105SAPE  C31110795   3.584   4.900   4.062  0.1637  0.2523  0.3482
  105SAPE  H11X10796   3.656   4.816   4.070 -0.7605 -0.8284 -1.8351
  105SAPE  H11Y10797   3.481   4.860   4.072  1.1825 -3.2083 -1.6885
  105SAPE  C31210798   3.622   5.012   4.162  0.1078 -0.0908 -0.1110
  105SAPE  H12X10799   3.548   5.093   4.148 -1.1719 -0.9530  1.3177
  105SAPE  H12Y10800   3.727   5.041   4.144 -0.0443 -0.8726 -2.6000
  105SAPE  C31310801   3.610   4.965   4.307  0.2597  0.1888 -0.5135
  105SAPE  H13X10802   3.677   4.877   4.319 -0.9435 -0.9618 -1.8349
  105SAPE  H13Y10803   3.510   4.927   4.337  0.8812  0.2388  1.8196
  105SAPE  C31410804   3.650   5.074   4.409 -0.0614 -0.7361 -0.4512
  105SAPE  H14X10805   3.583   5.162   4.403 -0.8885 -1.2629  0.7955
  105SAPE  H14Y10806   3.756   5.104   4.395 -0.3392  0.8300  0.5646
  105SAPE  C31510807   3.629   5.023   4.554  0.3328 -0.9284  0.7595
  105SAPE  H15X10808   3.706   4.944   4.569  1.3441  0.2592  2.0959
  105SAPE  H15Y10809   3.528   4.979   4.575  0.3171 -0.0200  2.8972
  105SAPE  C31610810   3.659   5.125   4.667  0.1416 -0.6374 -0.1359
  105SAPE  H16X10811   3.590   5.211   4.655  0.4042 -0.3934  0.0795
  105SAPE  H16Y10812   3.762   5.164   4.656 -0.4501  1.2813  0.7628
  105SAPE  C31710813   3.639   5.067   4.809 -0.2467 -0.0929  0.4852
  105SAPE  H17X10814   3.704   5.118   4.883  1.4980  0.0923 -1.1240
  105SAPE  H17Y10815   3.686   4.967   4.801 -2.1947 -1.0037 -0.1587
  105SAPE  C31810816   3.500   5.040   4.863  0.0028 -0.1127 -0.1018
  105SAPE  H18X10817   3.501   4.978   4.955  0.6476  1.2213  0.8355
  105SAPE  H18Y10818   3.437   4.994   4.785 -1.5050 -0.1487  1.0986
  105SAPE  H18Z10819   3.443   5.130   4.895 -0.9846 -0.2904 -1.3171
  106SAPE     N10820   4.873   0.701   2.943 -0.9166  0.2479  0.0995
  106SAPE   HN110821   4.778   0.660   2.932 -0.1628 -2.5898  2.7160
  106SAPE   HN210822   4.881   0.711   3.046 -1.7110  1.4103  0.0773
  106SAPE   HN310823   4.853   0.799   2.915  0.6266  0.7660  0.7174
  106SAPE   C1210824   4.994   0.645   2.864  0.5261 -0.0121 -0.8364
  106SAPE  H12A10825   4.988   0.687   2.762  1.7668 -1.4411 -1.5355
  106SAPE  H12B10826   4.973   0.536   2.862  1.5868 -0.2094 -2.4348
  106SAPE   C1110827   5.124   0.685   2.918 -0.1507 -0.5263  0.1895
  106SAPE  H11A10828   5.202   0.643   2.851  0.6144  2.5120 -0.9738
  106SAPE  H11B10829   5.131   0.641   3.020 -1.9494  0.6452  0.8634
  106SAPE     P10830   5.255   0.917   2.888  0.4151  0.1344 -0.2025
  106SAPE   O1310831   5.302   0.866   2.757 -0.3856 -0.0130 -0.1076
  106SAPE   O1410832   5.236   1.064   2.903  0.6799  0.4226  1.0281
  106SAPE   O1210833   5.127   0.829   2.936 -0.1058 -0.4454 -0.3120
  106SAPE   O1110834   5.361   0.873   2.998  0.7381  0.3358  0.6573
  106SAPE    C110835   5.324   0.879   3.135 -0.3996 -0.5314 -0.1946
  106SAPE    HA10836   5.275   0.978   3.147 -2.1876 -1.5327  1.1402
  106SAPE    HB10837   5.255   0.796   3.159 -0.5195 -0.5700 -0.6605
  106SAPE    C210838   5.451   0.872   3.228 -0.3001 -0.4856  0.0076
  106SAPE    HS10839   5.485   0.767   3.236  3.0950  0.5613  1.6543
  106SAPE   O2110840   5.417   0.924   3.354 -0.1615 -0.2523 -0.3567
  106SAPE   C2110841   5.485   0.885   3.464 -0.1319  1.0401 -1.0548
  106SAPE   O2210842   5.567   0.790   3.465 -0.9694 -0.6957  0.1996
  106SAPE   C2210843   5.448   0.969   3.584  0.0222 -0.0689 -0.2961
  106SAPE   H2R10844   5.475   1.074   3.559 -1.1774  0.0503 -1.1954
  106SAPE   H2S10845   5.337   0.968   3.574 -0.2283  1.4993  1.5858
  106SAPE    C310846   5.571   0.949   3.173 -0.0849 -0.0609 -0.5947
  106SAPE    HX10847   5.527   1.050   3.161 -1.8075 -0.5102  1.3611
  106SAPE    HY10848   5.590   0.927   3.066 -1.4873  1.2314 -1.1293
  106SAPE   O3110849   5.685   0.957   3.257 -0.4822 -0.2780  0.4708
  106SAPE   C3110850   5.788   0.878   3.226 -0.1153 -0.4881  0.3075
  106SAPE   O3210851   5.800   0.810   3.128  0.4064 -1.0472  0.2210
  106SAPE   C3210852   5.889   0.875   3.345  0.7066  0.3181 -0.0197
  106SAPE   H2X10853   5.838   0.931   3.427 -0.5306  2.3767 -2.0816
  106SAPE   H2Y10854   5.983   0.920   3.307  0.1000 -0.7252 -2.9955
  106SAPE   C2310855   5.510   0.914   3.710  0.4892 -0.0648  0.1751
  106SAPE   H3R10856   5.620   0.926   3.701  0.8194 -2.0261  1.1061
  106SAPE   H3S10857   5.485   0.806   3.724 -0.7485  0.2204  0.3015
  106SAPE   C2410858   5.468   0.968   3.849  0.0630  0.4452  0.5531
  106SAPE   H4R10859   5.503   0.892   3.921 -1.3514 -0.9746 -0.1995
  106SAPE   H4S10860   5.358   0.953   3.851  0.2697 -1.3563 -0.1378
  106SAPE   C2510861   5.507   1.109   3.888  0.7426  0.4810  0.2202
  106SAPE   H5R10862   5.513   1.180   3.804 -0.8931 -0.6354 -0.8991
  106SAPE   C2610863   5.535   1.150   4.008  0.4294 -0.3642  0.1101
  106SAPE   H6R10864   5.554   1.258   4.004  0.6520 -0.3935  0.3889
  106SAPE   C2710865   5.529   1.067   4.133  0.0741  0.1173 -0.0665
  106SAPE   H7R10866   5.638   1.049   4.149 -0.0347  0.0252  0.6067
  106SAPE   H7S10867   5.475   0.971   4.126  1.6699 -0.8022 -0.1998
  106SAPE   C2810868   5.468   1.149   4.245  0.7308  0.5567 -0.2042
  106SAPE   H8R10869   5.363   1.181   4.241  0.5775  0.1093  0.1385
  106SAPE   C2910870   5.520   1.155   4.365  0.2150 -0.4276  0.0597
  106SAPE   H9R10871   5.462   1.209   4.442 -1.8007  2.7118 -3.3634
  106SAPE  C21010872   5.651   1.090   4.421 -0.3525  0.1711 -0.3078
  106SAPE  H10R10873   5.736   1.091   4.350  1.0477  2.1521  1.2845
  106SAPE  H10S10874   5.628   0.983   4.441 -1.4348  0.6303  1.0669
  106SAPE  C21110875   5.706   1.153   4.551 -0.3481  0.2410 -0.1723
  106SAPE  H11R10876   5.790   1.223   4.533 -0.0740 -0.1097 -0.2786
  106SAPE  C21210877   5.644   1.137   4.668  0.5158  0.7368 -0.4250
  106SAPE  H12R10878   5.673   1.188   4.760 -0.9384  0.8190  0.0124
  106SAPE  C21310879   5.521   1.050   4.698  0.2270  0.0530 -0.1474
  106SAPE  H13R10880   5.479   0.983   4.620 -0.9755 -2.0863  2.1948
  106SAPE  H13S10881   5.431   1.113   4.716 -0.7835 -0.6659 -2.3865
  106SAPE  C21410882   5.560   0.965   4.817  0.4532 -0.1226  0.1604
  106SAPE  H14R10883   5.608   0.873   4.781  0.3375  0.8477 -2.6774
  106SAPE  C21510884   5.547   0.994   4.948  0.1090 -0.3256 -0.2061
  106SAPE  H15R10885   5.552   0.916   5.026 -1.7992 -1.3249 -0.9981
  106SAPE  C21610886   5.493   1.118   5.009 -0.0850  0.4049 -0.2454
  106SAPE  H16R10887   5.395   1.098   5.058  0.1084 -1.9178 -0.6747
  106SAPE  H16S10888   5.481   1.201   4.936 -0.1230  0.7598  0.1584
  106SAPE  C21710889   5.589   1.183   5.114  0.1879 -0.0894 -0.0008
  106SAPE  H17R10890   5.568   1.291   5.127 -1.3255 -0.6309  3.2539
  106SAPE  H17S10891   5.696   1.165   5.093 -0.1610  0.5154 -2.6266
  106SAPE  C21810892   5.570   1.125   5.261  0.0992  0.2005 -0.5169
  106SAPE  H18R10893   5.628   1.030   5.268  1.7919  1.2694  1.2643
  106SAPE  H18S10894   5.463   1.097   5.267 -0.4505  1.5954 -2.8062
  106SAPE  C21910895   5.608   1.226   5.368 -0.4967  0.3238 -0.2965
  106SAPE  H19R10896   5.620   1.160   5.457 -1.5123 -1.0883 -1.1577
  106SAPE  H19S10897   5.519   1.290   5.388 -0.7840  0.5746 -2.2218
  106SAPE  C22010898   5.736   1.303   5.347  0.0871 -0.2629 -0.1219
  106SAPE  H20R10899   5.767   1.348   5.444  0.0637  0.6221 -0.5141
  106SAPE  H20S10900   5.711   1.385   5.277  0.5202 -1.3374 -1.5789
  106SAPE  H20T10901   5.813   1.242   5.296  0.0537  0.3919 -0.9816
  106SAPE   C3310902   5.914   0.734   3.388  0.1017  0.3384 -0.5085
  106SAPE   H3X10903   5.920   0.670   3.298  2.0250 -1.2216  0.6539
  106SAPE   H3Y10904   5.837   0.682   3.449 -0.4261 -1.6242 -2.7067
  106SAPE   C3410905   6.039   0.718   3.476  0.6953  0.1551 -0.4879
  106SAPE   H4X10906   6.131   0.735   3.415  1.5032  0.6540  0.8136
  106SAPE   H4Y10907   6.033   0.610   3.504  1.8365  1.0652  4.0887
  106SAPE   C3510908   6.044   0.810   3.597 -0.3774  0.1702 -0.4597
  106SAPE   H5X10909   5.942   0.828   3.639  0.5051  0.1354  1.8594
  106SAPE   H5Y10910   6.087   0.909   3.573  2.7041 -0.9431  0.0227
  106SAPE   C3610911   6.132   0.747   3.707 -1.0318 -0.7936  0.2895
  106SAPE   H6X10912   6.236   0.731   3.670 -0.2541 -1.0042  2.4257
  106SAPE   H6Y10913   6.106   0.641   3.727  0.5766 -1.1717  0.5585
  106SAPE   C3710914   6.144   0.829   3.837  0.2679 -0.0224 -0.5438
  106SAPE   H7X10915   6.050   0.805   3.891  0.4546 -4.7203 -1.8657
  106SAPE   H7Y10916   6.139   0.939   3.822  1.8945  0.1197 -0.2757
  106SAPE   C3810917   6.271   0.806   3.910  0.4044 -0.1046 -0.3499
  106SAPE   H8X10918   6.353   0.848   3.847 -0.9802  2.5440 -0.5163
  106SAPE   H8Y10919   6.287   0.697   3.926  0.1743  0.1948  2.2413
  106SAPE   C3910920   6.267   0.865   4.058  0.0226  0.0820 -0.7079
  106SAPE   H9X10921   6.172   0.835   4.107  0.4757 -0.5673 -0.2144
  106SAPE   H9Y10922   6.273   0.976   4.054 -1.9907  0.3536  1.6413
  106SAPE  C31010923   6.396   0.824   4.134  0.1327 -0.4683  0.4766
  106SAPE  H10X10924   6.480   0.873   4.081 -0.5382  0.4446  0.2463
  106SAPE  H10Y10925   6.417   0.715   4.143  1.7296 -0.0491  2.3729
  106SAPE  C31110926   6.387   0.877   4.279 -0.9023  0.7339 -0.7800
  106SAPE  H11X10927   6.316   0.810   4.332  1.5486 -1.5151 -0.1427
  106SAPE  H11Y10928   6.352   0.983   4.285  0.6758  1.2150  2.0570
  106SAPE  C31210929   6.522   0.860   4.346  0.3865  0.5296  0.6227
  106SAPE  H12X10930   6.591   0.930   4.295 -0.1473  0.2383 -0.5178
  106SAPE  H12Y10931   6.567   0.763   4.318  0.5557  1.5235 -3.0972
  106SAPE  C31310932   6.516   0.878   4.499 -0.3212 -0.1225  0.6403
  106SAPE  H13X10933   6.449   0.799   4.540 -1.6031  0.9943  0.7305
  106SAPE  H13Y10934   6.481   0.977   4.534 -0.8640  0.2527 -0.9109
  106SAPE  C31410935   6.655   0.873   4.568 -0.6537  0.1460 -0.0025
  106SAPE  H14X10936   6.708   0.969   4.553  1.2087 -0.9890 -1.0831
  106SAPE  H14Y10937   6.714   0.792   4.520 -3.6066 -1.2575 -1.6071
  106SAPE  C31510938   6.649   0.849   4.723  0.0674 -0.2671  0.3674
  106SAPE  H15X10939   6.581   0.928   4.763 -0.4619 -1.0201  0.9887
  106SAPE  H15Y10940   6.742   0.868   4.781 -0.0627 -0.0689  0.5123
  106SAPE  C31610941   6.603   0.716   4.768 -0.0130  0.3877  0.0080
  106SAPE  H16X10942   6.654   0.635   4.711  0.3893 -1.6127  2.9768
  106SAPE  H16Y10943   6.496   0.706   4.742  0.7767 -0.8144 -3.3093
  106SAPE  C31710944   6.614   0.681   4.924 -0.3948  0.7757  0.6677
  106SAPE  H17X10945   6.564   0.583   4.941  0.8189  0.0655  0.2484
  106SAPE  H17Y10946   6.564   0.768   4.971  0.0857  0.1970  2.3221
  106SAPE  C31810947   6.759   0.660   4.972 -0.1712  0.4391  0.2940
  106SAPE  H18X10948   6.754   0.651   5.082  0.0089  2.2723  0.4852
  106SAPE  H18Y10949   6.820   0.749   4.942  0.4517  0.1358  0.6378
  106SAPE  H18Z10950   6.803   0.572   4.921  0.8483  1.0395  0.1064
  107SAPE     N10951   5.847   4.316   2.483  0.1100  0.6985  0.9705
  107SAPE   HN110952   5.805   4.237   2.537  3.1329 -0.3965  1.8829
  107SAPE   HN210953   5.829   4.318   2.380 -0.4060 -2.4673  0.8969
  107SAPE   HN310954   5.948   4.295   2.477  0.3546  1.2258  2.6320
  107SAPE   C1210955   5.813   4.439   2.562  0.1656 -0.4718 -0.1868
  107SAPE  H12A10956   5.706   4.425   2.587 -0.4026 -0.6309 -2.4785
  107SAPE  H12B10957   5.843   4.526   2.499  2.7914  0.9121  2.6854
  107SAPE   C1110958   5.900   4.439   2.688 -0.2050  0.0912 -0.2604
  107SAPE  H11A10959   6.007   4.443   2.658 -0.5079 -0.1401 -1.4188
  107SAPE  H11B10960   5.881   4.338   2.731 -0.0218 -0.2376 -0.9362
  107SAPE     P10961   5.756   4.523   2.886  0.4349 -0.4794 -0.1420
  107SAPE   O1310962   5.754   4.640   2.978  0.0333 -0.3773  0.1297
  107SAPE   O1410963   5.633   4.474   2.819 -0.0750 -0.2590  0.1619
  107SAPE   O1210964   5.868   4.549   2.783  0.1625  0.0955  0.0549
  107SAPE   O1110965   5.811   4.399   2.968 -0.2277  0.6094 -0.1131
  107SAPE    C110966   5.900   4.424   3.072  0.0910 -0.4647  0.5674
  107SAPE    HA10967   5.981   4.495   3.049 -0.6294 -0.2575 -1.4684
  107SAPE    HB10968   5.847   4.464   3.161 -0.5195 -3.2555  1.5848
  107SAPE    C210969   5.977   4.302   3.117  0.6303  0.4004 -0.3641
  107SAPE    HS10970   6.009   4.259   3.019  1.0111 -0.1907  0.0123
  107SAPE   O2110971   5.888   4.215   3.193 -0.2627 -0.0576 -0.0506
  107SAPE   C2110972   5.935   4.098   3.226  0.2034  0.3361  0.1459
  107SAPE   O2210973   6.045   4.055   3.216  0.0352  0.1360  0.0555
  107SAPE   C2210974   5.824   4.021   3.302 -0.8132  0.2477  0.6311
  107SAPE   H2R10975   5.727   4.041   3.250 -0.1779 -0.8929 -1.1015
  107SAPE   H2S10976   5.857   3.917   3.280 -1.2614  0.4478 -1.1882
  107SAPE    C310977   6.107   4.346   3.203 -0.6329 -0.2780  0.0156
  107SAPE    HX10978   6.185   4.387   3.135  0.4627 -2.0527  0.1651
  107SAPE    HY10979   6.154   4.257   3.250 -0.1007 -0.6464 -1.1743
  107SAPE   O3110980   6.053   4.437   3.300  0.9722  0.0472  0.1043
  107SAPE   C3110981   6.145   4.488   3.384  0.2219  0.3914 -0.1312
  107SAPE   O3210982   6.267   4.462   3.375 -0.1486  0.6576 -0.2120
  107SAPE   C3210983   6.076   4.573   3.495 -0.1776 -0.1913  0.5765
  107SAPE   H2X10984   5.979   4.523   3.513 -1.0839  1.2055 -0.1775
  107SAPE   H2Y10985   6.039   4.671   3.459 -1.2822 -1.4281 -1.8847
  107SAPE   C2310986   5.826   4.053   3.449 -0.2931 -0.3775 -0.2579
  107SAPE   H3R10987   5.726   4.010   3.473 -0.8534  0.5937 -0.7614
  107SAPE   H3S10988   5.825   4.164   3.455 -2.7741 -0.2276 -1.7256
  107SAPE   C2410989   5.923   3.991   3.544  0.0804  0.0299 -0.0983
  107SAPE   H4R10990   6.018   4.048   3.534 -0.3003  0.4829 -1.2958
  107SAPE   H4S10991   5.942   3.884   3.523 -0.4026 -0.2559  0.8528
  107SAPE   C2510992   5.877   3.997   3.685 -0.0388 -0.2973 -0.6255
  107SAPE   H5R10993   5.794   3.928   3.704 -0.6073  0.7883  0.9923
  107SAPE   C2610994   5.911   4.089   3.778  0.0009 -0.3057 -0.1803
  107SAPE   H6R10995   5.877   4.083   3.882 -1.3171  1.6324 -0.4441
  107SAPE   C2710996   6.005   4.205   3.752  0.1435 -1.0590  0.1461
  107SAPE   H7R10997   5.966   4.256   3.662 -1.4687 -1.5666  0.5128
  107SAPE   H7S10998   6.107   4.166   3.733  0.1871 -0.9656  0.1901
  107SAPE   C2810999   5.986   4.309   3.858  0.4015  0.1470 -0.0040
  107SAPE   H8R11000   5.921   4.393   3.831 -1.6563 -0.3893  2.8779
  107SAPE   C2911001   6.074   4.310   3.963  0.0981  0.6029  0.0350
  107SAPE   H9R11002   6.074   4.379   4.049  0.9642 -0.2122  0.7220
  107SAPE  C21011003   6.176   4.200   3.997  0.1869  0.3851  0.8020
  107SAPE  H10R11004   6.275   4.227   3.955  0.8402 -0.3819  1.7925
  107SAPE  H10S11005   6.161   4.105   3.942  1.6927  0.5363  0.0781
  107SAPE  C21111006   6.187   4.158   4.142 -0.0539  0.0606 -0.1703
  107SAPE  H11R11007   6.110   4.085   4.171  0.1613  0.4670  1.5141
  107SAPE  C21211008   6.255   4.209   4.243 -0.7956  0.1801 -0.8181
  107SAPE  H12R11009   6.252   4.163   4.343 -0.5821  0.7468 -0.5487
  107SAPE  C21311010   6.344   4.329   4.229  0.0749  1.0342 -0.1257
  107SAPE  H13R11011   6.282   4.419   4.213 -0.8590  0.2467 -1.1412
  107SAPE  H13S11012   6.389   4.321   4.128 -1.8412  0.6879 -0.9841
  107SAPE  C21411013   6.457   4.352   4.332 -0.6273 -0.0845  0.1426
  107SAPE  H14R11014   6.539   4.279   4.339  1.6376  2.3969  1.4918
  107SAPE  C21511015   6.446   4.445   4.425 -0.8785 -0.5552 -0.1490
  107SAPE  H15R11016   6.534   4.460   4.490 -0.5656 -0.4644 -0.5907
  107SAPE  C21611017   6.337   4.550   4.463  0.1433  0.0055 -0.3653
  107SAPE  H16R11018   6.236   4.513   4.435  0.0774  1.0245 -1.5646
  107SAPE  H16S11019   6.362   4.648   4.418 -1.2648  0.7753  0.4641
  107SAPE  C21711020   6.339   4.573   4.616 -0.9077 -0.0209 -0.6938
  107SAPE  H17R11021   6.286   4.667   4.641 -1.8902 -0.6254 -0.4618
  107SAPE  H17S11022   6.442   4.592   4.655 -1.2722 -1.8349  1.3387
  107SAPE  C21811023   6.277   4.458   4.695  0.7608 -0.2939 -0.4867
  107SAPE  H18R11024   6.345   4.372   4.712 -0.0909 -0.6753  1.2687
  107SAPE  H18S11025   6.181   4.417   4.656  0.1887 -0.7737  1.3216
  107SAPE  C21911026   6.248   4.491   4.847 -0.5881  0.7709 -0.1428
  107SAPE  H19R11027   6.201   4.404   4.897  1.5174  0.2038  0.9610
  107SAPE  H19S11028   6.179   4.578   4.849 -0.1363  1.1167  1.3478
  107SAPE  C22011029   6.371   4.538   4.928  0.0656  0.6040  0.4348
  107SAPE  H20R11030   6.342   4.568   5.031  1.4649 -1.3317  1.4433
  107SAPE  H20S11031   6.425   4.619   4.873 -0.8469  0.5474 -0.5753
  107SAPE  H20T11032   6.439   4.454   4.950  2.0431  1.8056 -0.7504
  107SAPE   C3311033   6.148   4.591   3.631 -0.6912 -0.0240  0.7515
  107SAPE   H3X11034   6.249   4.631   3.607  1.2150 -4.2846  0.7848
  107SAPE   H3Y11035   6.169   4.499   3.690 -1.2086 -1.2568 -0.9070
  107SAPE   C3411036   6.064   4.685   3.722  0.0109  0.6424  0.7478
  107SAPE   H4X11037   5.990   4.613   3.763 -1.2612  1.5569  0.1238
  107SAPE   H4Y11038   6.010   4.766   3.668 -3.8338 -0.9131  1.9372
  107SAPE   C3511039   6.143   4.741   3.844 -0.9283  0.1208 -0.0957
  107SAPE   H5X11040   6.236   4.797   3.820 -0.4325  0.7570  2.8676
  107SAPE   H5Y11041   6.173   4.655   3.908 -1.5051 -0.0012  0.0140
  107SAPE   C3611042   6.054   4.822   3.935 -0.1380 -0.0470 -0.3520
  107SAPE   H6X11043   5.979   4.748   3.970 -0.9472 -0.8456 -3.4825
  107SAPE   H6Y11044   6.020   4.908   3.874  0.9254  0.2723 -0.5242
  107SAPE   C3711045   6.126   4.884   4.055 -0.1491 -0.0924  0.1524
  107SAPE   H7X11046   6.194   4.968   4.027  1.3740 -1.4604 -0.4085
  107SAPE   H7Y11047   6.187   4.802   4.099 -2.1789 -1.1151  1.1715
  107SAPE   C3811048   6.039   4.928   4.177 -0.2250 -0.4211  0.1118
  107SAPE   H8X11049   5.998   5.028   4.156  0.0526  0.5237  3.4252
  107SAPE   H8Y11050   6.109   4.934   4.264 -2.1064 -4.3369  2.1981
  107SAPE   C3911051   5.926   4.829   4.216  0.0542  0.5458 -0.4426
  107SAPE   H9X11052   5.854   4.803   4.136  0.8110 -0.1924 -0.9082
  107SAPE   H9Y11053   5.864   4.877   4.294  1.1030 -0.8090  1.2909
  107SAPE  C31011054   5.971   4.704   4.296  0.3490 -0.1635  0.1875
  107SAPE  H10X11055   6.018   4.737   4.391  0.1822  2.3138 -0.5024
  107SAPE  H10Y11056   6.056   4.661   4.239  0.3415 -2.1990  1.6233
  107SAPE  C31111057   5.859   4.596   4.294  0.0043  0.4657 -0.0746
  107SAPE  H11X11058   5.810   4.594   4.195 -0.0947 -0.4350 -0.0127
  107SAPE  H11Y11059   5.789   4.603   4.380  0.4130 -0.4486  0.3395
  107SAPE  C31211060   5.920   4.460   4.310 -0.4372  0.5483 -0.8976
  107SAPE  H12X11061   6.003   4.437   4.240  0.9396 -1.0715  1.1145
  107SAPE  H12Y11062   5.845   4.381   4.290 -0.8988  0.8067 -0.2228
  107SAPE  C31311063   5.958   4.442   4.461 -0.3820  0.2293 -0.0853
  107SAPE  H13X11064   6.011   4.525   4.512 -2.9765  0.4064  2.5633
  107SAPE  H13Y11065   6.030   4.357   4.469  0.7564  0.8863 -2.3580
  107SAPE  C31411066   5.831   4.398   4.538  0.6081  0.1827 -0.2031
  107SAPE  H14X11067   5.808   4.301   4.490  1.4170  0.5230 -1.3342
  107SAPE  H14Y11068   5.750   4.472   4.522 -0.7492 -1.0707  0.6651
  107SAPE  C31511069   5.869   4.388   4.689 -0.4252  0.4931  0.2720
  107SAPE  H15X11070   5.928   4.475   4.725  1.6238 -0.6183 -0.2276
  107SAPE  H15Y11071   5.924   4.291   4.694 -1.9382 -0.5854 -1.9432
  107SAPE  C31611072   5.755   4.365   4.791  0.2042 -0.0795 -0.4793
  107SAPE  H16X11073   5.682   4.297   4.742 -1.1025  0.3116  0.8519
  107SAPE  H16Y11074   5.709   4.466   4.798  1.5035  0.4473  0.9708
  107SAPE  C31711075   5.783   4.310   4.936 -0.3993 -0.2096  0.3468
  107SAPE  H17X11076   5.816   4.204   4.936 -0.3771 -0.2087  1.0073
  107SAPE  H17Y11077   5.689   4.307   4.995 -0.3138 -1.0168  0.4525
  107SAPE  C31811078   5.894   4.390   5.012 -0.0677 -0.0201  0.4316
  107SAPE  H18X11079   5.994   4.371   4.967 -0.5563 -1.4869 -0.1025
  107SAPE  H18Y11080   5.902   4.359   5.118  0.2559  0.4072  0.5327
  107SAPE  H18Z11081   5.856   4.493   5.026  1.5652  0.3195  2.8962
  108SAPE     N11082   6.179   0.614   3.011 -0.7767  0.2025 -0.3451
  108SAPE   HN111083   6.256   0.612   2.942 -0.7992 -0.5556 -0.3628
  108SAPE   HN211084   6.207   0.665   3.097 -0.5329 -0.4892 -0.0067
  108SAPE   HN311085   6.154   0.513   3.021  0.5833  0.0162  1.6776
  108SAPE   C1211086   6.066   0.693   2.966 -0.1121 -0.0354  0.0239
  108SAPE  H12A11087   6.087   0.801   2.976  1.4717  0.1595 -3.7856
  108SAPE  H12B11088   5.973   0.667   3.022 -0.5893 -0.3707 -0.8936
  108SAPE   C1111089   6.031   0.664   2.814  0.2321  0.0000 -0.2869
  108SAPE  H11A11090   5.941   0.720   2.779  0.4373  0.4549 -0.0994
  108SAPE  H11B11091   6.007   0.557   2.799  0.5846 -0.0729 -0.3480
  108SAPE     P11092   6.172   0.850   2.691 -0.0828 -0.0931  0.6212
  108SAPE   O1311093   6.191   0.869   2.546 -0.6338  0.6467  0.1385
  108SAPE   O1411094   6.081   0.940   2.760  0.1841  0.6264 -0.1570
  108SAPE   O1211095   6.138   0.704   2.729  0.3985  0.4876  0.1436
  108SAPE   O1111096   6.317   0.863   2.752 -0.0246  0.0850 -0.5139
  108SAPE    C111097   6.366   0.996   2.771  0.1658 -0.2424  0.1958
  108SAPE    HA11098   6.469   1.000   2.731  1.3238 -0.5262  2.9559
  108SAPE    HB11099   6.308   1.068   2.710 -0.3755 -2.3711 -1.9604
  108SAPE    C211100   6.357   1.037   2.914 -1.0623  0.4927 -0.2621
  108SAPE    HS11101   6.256   1.030   2.960 -1.7431 -1.2682 -1.8875
  108SAPE   O2111102   6.401   1.170   2.915 -0.3022  0.7627  1.1377
  108SAPE   C2111103   6.366   1.257   3.012  0.4708 -0.3154 -0.8245
  108SAPE   O2211104   6.283   1.231   3.098 -0.2214  0.0598 -0.6145
  108SAPE   C2211105   6.436   1.395   2.990 -0.0015  0.1737 -0.3554
  108SAPE   H2R11106   6.470   1.404   2.884  1.5305 -0.5369  0.0522
  108SAPE   H2S11107   6.368   1.480   3.010  0.7173  0.5440  0.5494
  108SAPE    C311108   6.443   0.938   3.002 -0.4831  0.2210 -0.2023
  108SAPE    HX11109   6.545   0.951   2.960 -0.5304 -0.3023 -0.4888
  108SAPE    HY11110   6.391   0.844   2.972 -2.0302  1.3306 -1.1726
  108SAPE   O3111111   6.429   0.970   3.149  0.0782 -0.1812  0.1325
  108SAPE   C3111112   6.313   0.924   3.204 -0.2102  0.1598 -0.0615
  108SAPE   O3211113   6.234   0.844   3.160 -0.3292 -0.3736  0.0974
  108SAPE   C3211114   6.292   0.998   3.338  0.7636  0.2258  0.2561
  108SAPE   H2X11115   6.231   0.927   3.398 -0.7399  0.8750 -0.4540
  108SAPE   H2Y11116   6.237   1.092   3.313 -0.0658 -0.3210 -0.0330
  108SAPE   C2311117   6.554   1.433   3.086 -0.3663 -0.9761 -0.8510
  108SAPE   H3R11118   6.598   1.527   3.048 -0.1049 -1.4112 -1.6526
  108SAPE   H3S11119   6.633   1.359   3.059  1.1116  0.2448  0.0027
  108SAPE   C2411120   6.533   1.462   3.240 -0.2139 -0.3667  0.2856
  108SAPE   H4R11121   6.626   1.424   3.288  1.6390  0.8593 -2.1859
  108SAPE   H4S11122   6.458   1.389   3.279  0.5594 -0.9922  0.6247
  108SAPE   C2511123   6.487   1.604   3.273  0.2467 -0.5459  0.3905
  108SAPE   H5R11124   6.398   1.641   3.221 -0.0255  0.8410  1.7487
  108SAPE   C2611125   6.549   1.696   3.353  0.3095  0.0544 -0.6425
  108SAPE   H6R11126   6.504   1.796   3.368  0.0524  0.4997 -3.7302
  108SAPE   C2711127   6.674   1.670   3.420 -0.7694 -0.2182  0.3091
  108SAPE   H7R11128   6.728   1.585   3.372 -1.4489  0.2971 -1.4443
  108SAPE   H7S11129   6.650   1.624   3.519 -0.2949  0.3595  0.7013
  108SAPE   C2811130   6.762   1.782   3.453  0.1851 -0.1820  0.3824
  108SAPE   H8R11131   6.718   1.879   3.425 -0.0922 -0.7443 -1.2694
  108SAPE   C2911132   6.884   1.774   3.497 -0.6298  0.2395 -0.2779
  108SAPE   H9R11133   6.956   1.856   3.506  1.7018 -1.4614 -2.2063
  108SAPE  C21011134   6.947   1.634   3.529  1.0441 -0.1200 -0.1939
  108SAPE  H10R11135   7.028   1.592   3.467  0.4857 -0.8389 -0.4534
  108SAPE  H10S11136   6.871   1.553   3.527 -0.7126  1.4368  0.2866
  108SAPE  C21111137   7.011   1.640   3.669  0.4481 -0.6037 -0.0308
  108SAPE  H11R11138   7.118   1.665   3.664 -0.1142  2.0745 -0.4239
  108SAPE  C21211139   6.955   1.646   3.793 -0.2173 -0.3045 -0.7716
  108SAPE  H12R11140   7.022   1.661   3.879 -0.3822  0.6722 -0.8006
  108SAPE  C21311141   6.816   1.596   3.822  0.6176 -0.0310 -0.3971
  108SAPE  H13R11142   6.775   1.518   3.755 -1.7497  0.3077  0.5588
  108SAPE  H13S11143   6.765   1.691   3.794  3.5972  1.1557 -2.3029
  108SAPE  C21411144   6.806   1.548   3.964  0.0970  0.0767 -0.5798
  108SAPE  H14R11145   6.869   1.461   3.990 -0.5671  0.3486  2.2460
  108SAPE  C21511146   6.721   1.590   4.056  0.8173 -0.1515 -1.0314
  108SAPE  H15R11147   6.723   1.545   4.156 -0.9577  0.7960 -0.5313
  108SAPE  C21611148   6.611   1.694   4.049  0.5292 -0.0946  0.2946
  108SAPE  H16R11149   6.616   1.758   3.959 -1.4266  0.4953  0.5746
  108SAPE  H16S11150   6.629   1.760   4.137 -2.5063  0.7965  0.3388
  108SAPE  C21711151   6.474   1.628   4.060  0.7993  0.8426 -0.0351
  108SAPE  H17R11152   6.464   1.575   3.963  3.1590  0.8401 -0.3185
  108SAPE  H17S11153   6.394   1.706   4.061  2.0927  2.2086  0.8460
  108SAPE  C21811154   6.463   1.520   4.165  0.3470 -0.1109 -0.9488
  108SAPE  H18R11155   6.544   1.445   4.163  0.6647  0.0273  2.3235
  108SAPE  H18S11156   6.370   1.461   4.147  0.6909 -1.4956  1.5025
  108SAPE  C21911157   6.465   1.582   4.308  0.1625 -0.0340  0.8268
  108SAPE  H19R11158   6.377   1.649   4.318 -0.5632 -0.6545 -0.9574
  108SAPE  H19S11159   6.561   1.635   4.326 -0.6846  2.1597 -0.7318
  108SAPE  C22011160   6.447   1.469   4.412 -0.1420  0.3085  0.5347
  108SAPE  H20R11161   6.360   1.405   4.389  0.0414  0.1741  0.2172
  108SAPE  H20S11162   6.433   1.515   4.513 -0.5579  0.5521  0.3664
  108SAPE  H20T11163   6.532   1.397   4.407 -0.9800 -0.5940 -1.6807
  108SAPE   C3311164   6.417   1.034   3.415  0.5804  0.2305  0.1278
  108SAPE   H3X11165   6.475   1.109   3.356  1.2006 -0.3857 -0.0595
  108SAPE   H3Y11166   6.480   0.942   3.416  0.0898 -0.0985  0.7028
  108SAPE   C3411167   6.389   1.098   3.555  0.1898  0.4170  0.0269
  108SAPE   H4X11168   6.329   1.031   3.620  0.9180  1.1723  1.5148
  108SAPE   H4Y11169   6.339   1.193   3.526 -0.0116  0.0076 -1.0043
  108SAPE   C3511170   6.509   1.140   3.635  0.2785 -0.1194 -0.4497
  108SAPE   H5X11171   6.549   1.039   3.658 -3.7205 -1.7064  0.4161
  108SAPE   H5Y11172   6.585   1.188   3.569  2.1916 -1.1203  0.9291
  108SAPE   C3611173   6.481   1.223   3.759  0.2450  0.0067  0.2518
  108SAPE   H6X11174   6.396   1.186   3.820  0.4461  3.5254  2.9525
  108SAPE   H6Y11175   6.443   1.322   3.726  2.8642  0.3480 -2.0766
  108SAPE   C3711176   6.600   1.247   3.854  0.1619 -0.2303 -0.5529
  108SAPE   H7X11177   6.555   1.294   3.944  1.7912 -1.2516  0.8506
  108SAPE   H7Y11178   6.662   1.326   3.807 -0.8273  1.3113  0.6476
  108SAPE   C3811179   6.678   1.125   3.895  0.2124  0.7396  0.4361
  108SAPE   H8X11180   6.750   1.098   3.814  1.5730  1.9299  1.1965
  108SAPE   H8Y11181   6.599   1.051   3.920 -1.4483  3.0015  2.2295
  108SAPE   C3911182   6.789   1.156   4.005  0.8965  0.7599 -0.0307
  108SAPE   H9X11183   6.864   1.230   3.970  2.0828  1.4355  3.4981
  108SAPE   H9Y11184   6.840   1.064   4.040  1.0773  1.2411  0.9910
  108SAPE  C31011185   6.727   1.210   4.137 -0.3642 -0.2966 -0.4638
  108SAPE  H10X11186   6.642   1.141   4.157  1.1202 -1.5989  1.9066
  108SAPE  H10Y11187   6.688   1.312   4.116  1.2103  0.5959  0.7115
  108SAPE  C31111188   6.833   1.207   4.248  0.1742  0.3585  0.3953
  108SAPE  H11X11189   6.928   1.243   4.202  0.7263 -1.5094 -0.0047
  108SAPE  H11Y11190   6.836   1.101   4.280  0.5230  0.1564 -0.2882
  108SAPE  C31211191   6.776   1.282   4.367  0.0158 -0.4507  0.0379
  108SAPE  H12X11192   6.689   1.225   4.407  0.2001 -0.7185  0.0539
  108SAPE  H12Y11193   6.731   1.378   4.333 -0.2951 -1.6084 -3.1031
  108SAPE  C31311194   6.874   1.310   4.479 -0.8255 -0.3733  0.3429
  108SAPE  H13X11195   6.966   1.358   4.438 -1.4883  1.5547  1.0180
  108SAPE  H13Y11196   6.903   1.216   4.532  0.6942  0.1923  0.5831
  108SAPE  C31411197   6.830   1.407   4.584  0.0675 -0.2397 -0.3817
  108SAPE  H14X11198   6.839   1.345   4.676 -0.7709 -0.5737 -0.5166
  108SAPE  H14Y11199   6.719   1.411   4.582 -0.0866 -2.1902  1.0103
  108SAPE  C31511200   6.891   1.550   4.578 -1.1716  0.3517  0.0255
  108SAPE  H15X11201   7.000   1.557   4.560 -1.0369  3.0221  1.3795
  108SAPE  H15Y11202   6.882   1.593   4.680 -0.0195  1.6455 -0.3966
  108SAPE  C31611203   6.822   1.643   4.485 -0.0215  0.2837  0.1816
  108SAPE  H16X11204   6.715   1.626   4.511  0.0864 -0.9849 -0.1418
  108SAPE  H16Y11205   6.847   1.620   4.379 -1.6370  0.5484 -0.2844
  108SAPE  C31711206   6.852   1.798   4.509 -0.1400  0.2947  0.7897
  108SAPE  H17X11207   6.793   1.852   4.432  0.0703 -1.2444 -0.4888
  108SAPE  H17Y11208   6.961   1.813   4.495 -0.2388  2.1508  1.6808
  108SAPE  C31811209   6.824   1.848   4.651 -0.1623 -0.0581  0.1499
  108SAPE  H18X11210   6.893   1.803   4.726 -0.8050  1.9918  2.0628
  108SAPE  H18Y11211   6.716   1.841   4.676 -0.3703  4.2426  1.2498
  108SAPE  H18Z11212   6.857   1.954   4.650  1.5743 -0.5694  0.0962
  109SAPE     N11213   2.930   3.527   2.578 -0.4050  0.1759 -0.2635
  109SAPE   HN111214   2.914   3.442   2.637  1.5204  0.0311  0.1259
  109SAPE   HN211215   2.969   3.589   2.651 -0.2520 -2.2305  1.8679
  109SAPE   HN311216   2.835   3.542   2.538 -0.8836  1.3369  1.2353
  109SAPE   C1211217   3.037   3.494   2.477  0.4839  0.0383  0.2168
  109SAPE  H12A11218   3.131   3.483   2.537 -0.0343  0.4417  1.1268
  109SAPE  H12B11219   3.043   3.584   2.412 -2.3990  1.7431  2.0641
  109SAPE   C1111220   3.010   3.369   2.386 -0.4317 -0.1360  0.5420
  109SAPE  H11A11221   3.064   3.389   2.290  0.0606 -1.3189  0.5556
  109SAPE  H11B11222   2.903   3.376   2.359  0.4461  2.8680 -2.9857
  109SAPE     P11223   3.176   3.179   2.452  0.0930  0.7946  0.2413
  109SAPE   O1311224   3.188   3.071   2.347  0.0045 -0.5728 -0.5681
  109SAPE   O1411225   3.282   3.279   2.441 -0.0918  0.0221  0.0248
  109SAPE   O1211226   3.029   3.244   2.452 -0.7464 -0.2145 -0.3576
  109SAPE   O1111227   3.211   3.106   2.591  0.1556 -0.1371 -0.3862
  109SAPE    C111228   3.121   3.005   2.638  0.9976 -0.1674  1.0903
  109SAPE    HA11229   3.028   3.055   2.671  0.3870 -0.5842  0.0751
  109SAPE    HB11230   3.082   2.935   2.561  0.1188  0.1789  1.2132
  109SAPE    C211231   3.167   2.914   2.765 -0.1350  0.0163  0.7927
  109SAPE    HS11232   3.081   2.846   2.778 -0.8602  0.3254 -1.8403
  109SAPE   O2111233   3.187   2.992   2.893 -0.3353  0.1949 -0.2143
  109SAPE   C2111234   3.080   3.052   2.953 -0.7986 -0.5077  0.0904
  109SAPE   O2211235   2.973   3.071   2.904  0.6901 -0.1656 -0.2035
  109SAPE   C2211236   3.112   3.085   3.100 -0.5271 -0.1645 -0.4779
  109SAPE   H2R11237   3.121   3.196   3.100 -0.4125 -0.1701 -1.3552
  109SAPE   H2S11238   3.026   3.046   3.159  0.6802 -2.4129 -0.1055
  109SAPE    C311239   3.287   2.814   2.745 -0.3332  0.0859 -0.1230
  109SAPE    HX11240   3.355   2.868   2.677  0.4021  2.9507  2.6498
  109SAPE    HY11241   3.241   2.725   2.697 -0.8828  0.1148  0.3443
  109SAPE   O3111242   3.355   2.771   2.865  0.6103  0.0108  0.0641
  109SAPE   C3111243   3.478   2.828   2.890  0.4490  0.0276 -0.1927
  109SAPE   O3211244   3.526   2.921   2.824  0.2414  0.2019 -0.4269
  109SAPE   C3211245   3.526   2.779   3.022 -0.2480 -0.1369  0.0725
  109SAPE   H2X11246   3.497   2.674   3.042  2.3640 -1.1588 -0.9888
  109SAPE   H2Y11247   3.481   2.848   3.096 -1.4855  0.0723 -0.8504
  109SAPE   C2311248   3.231   3.011   3.158  0.0403 -0.0524  0.0399
  109SAPE   H3R11249   3.321   3.044   3.101  0.1697  0.2351  0.4055
  109SAPE   H3S11250   3.226   2.900   3.158  1.8930 -0.1794  1.2161
  109SAPE   C2411251   3.260   3.040   3.307  0.5066  0.0519  0.4291
  109SAPE   H4R11252   3.171   3.009   3.366  0.6072  0.0966  0.6019
  109SAPE   H4S11253   3.274   3.149   3.319  1.9153 -0.3379  2.9531
  109SAPE   C2511254   3.397   2.989   3.351  0.0121  0.6841  0.4555
  109SAPE   H5R11255   3.481   3.049   3.313  2.3658  0.1283  4.2493
  109SAPE   C2611256   3.430   2.888   3.428 -0.0310 -0.0150 -0.5110
  109SAPE   H6R11257   3.539   2.876   3.445 -0.3469 -0.0213  1.7344
  109SAPE   C2711258   3.334   2.788   3.479 -0.7016 -0.3915  0.6619
  109SAPE   H7R11259   3.318   2.722   3.391  0.0646  0.5008 -0.1537
  109SAPE   H7S11260   3.239   2.833   3.515 -1.4917 -1.4982  0.0150
  109SAPE   C2811261   3.401   2.710   3.592  0.1783  0.3306  0.4880
  109SAPE   H8R11262   3.421   2.603   3.577  0.4139  0.2005  1.6324
  109SAPE   C2911263   3.415   2.749   3.718 -0.1005 -0.7676 -0.1254
  109SAPE   H9R11264   3.455   2.675   3.789 -1.1277 -1.9269 -0.7196
  109SAPE  C21011265   3.378   2.880   3.777  0.3956  0.1610 -0.1297
  109SAPE  H10R11266   3.403   2.961   3.705 -0.2163 -0.5544 -1.1604
  109SAPE  H10S11267   3.450   2.911   3.856 -1.1050  1.5414  0.7752
  109SAPE  C21111268   3.244   2.896   3.835  0.2304  1.2223  0.4517
  109SAPE  H11R11269   3.180   2.950   3.764 -0.1975 -0.8539 -0.8596
  109SAPE  C21211270   3.195   2.853   3.955  0.1739 -0.5675 -0.2749
  109SAPE  H12R11271   3.095   2.884   3.988  1.1920  3.0732 -0.1409
  109SAPE  C21311272   3.283   2.781   4.058 -0.5069  0.7917 -0.2277
  109SAPE  H13R11273   3.362   2.721   4.008 -0.2115  1.2553 -0.3267
  109SAPE  H13S11274   3.230   2.707   4.121 -2.2174  1.4014 -0.8634
  109SAPE  C21411275   3.353   2.879   4.145  0.5338 -0.7119  0.6896
  109SAPE  H14R11276   3.445   2.915   4.096  0.6656 -0.8907  0.8026
  109SAPE  C21511277   3.313   2.907   4.272 -0.3591  0.1567 -0.2458
  109SAPE  H15R11278   3.372   2.984   4.322 -1.0673  1.4834 -1.3836
  109SAPE  C21611279   3.194   2.848   4.350  0.1415  0.4101  0.4993
  109SAPE  H16R11280   3.119   2.793   4.289  0.0817  0.2306  0.7324
  109SAPE  H16S11281   3.136   2.929   4.398  0.8070  1.0712  0.2057
  109SAPE  C21711282   3.259   2.749   4.454  0.0078 -0.4966  0.0178
  109SAPE  H17R11283   3.344   2.800   4.506 -0.8988 -0.8570  1.9614
  109SAPE  H17S11284   3.306   2.660   4.406  1.1586  0.9181 -1.5867
  109SAPE  C21811285   3.159   2.692   4.558 -0.9719  0.1287 -0.1346
  109SAPE  H18R11286   3.213   2.602   4.595  0.6347  1.4705  0.9359
  109SAPE  H18S11287   3.071   2.667   4.494 -0.4582 -0.5518 -0.5831
  109SAPE  C21911288   3.115   2.787   4.671  0.1853  0.2520  0.0210
  109SAPE  H19R11289   3.031   2.738   4.725 -0.6841  1.7312  0.0386
  109SAPE  H19S11290   3.083   2.883   4.627 -0.9612 -0.0228  0.2336
  109SAPE  C22011291   3.239   2.825   4.756 -0.3559  1.0715  0.1532
  109SAPE  H20R11292   3.207   2.900   4.831 -1.2323 -1.8336  2.8564
  109SAPE  H20S11293   3.328   2.863   4.701 -0.4634  1.1881  0.0565
  109SAPE  H20T11294   3.281   2.734   4.803 -0.2982  0.8534 -0.3116
  109SAPE   C3311295   3.679   2.793   3.037 -0.4237 -0.3518 -0.4160
  109SAPE   H3X11296   3.718   2.894   3.014 -0.3684  0.0184  1.2134
  109SAPE   H3Y11297   3.726   2.725   2.963  0.1289 -1.6174  1.0390
  109SAPE   C3411298   3.730   2.762   3.179  0.4230  0.2718 -0.5769
  109SAPE   H4X11299   3.696   2.663   3.216  1.0631  0.4763  0.6475
  109SAPE   H4Y11300   3.675   2.840   3.236 -1.9469 -2.5832  1.3233
  109SAPE   C3511301   3.884   2.765   3.200 -0.3460 -0.1806  0.1473
  109SAPE   H5X11302   3.916   2.871   3.212  0.1577 -0.3679  0.5030
  109SAPE   H5Y11303   3.927   2.724   3.106 -1.9047  1.7370 -1.5001
  109SAPE   C3611304   3.933   2.699   3.320  0.2754  1.0621 -0.0396
  109SAPE   H6X11305   4.045   2.697   3.321  0.2878  0.6775 -0.9848
  109SAPE   H6Y11306   3.893   2.597   3.304 -1.5518  1.9831 -1.7634
  109SAPE   C3711307   3.889   2.772   3.448  0.4826 -0.0029 -0.0476
  109SAPE   H7X11308   3.778   2.773   3.446  0.3890 -2.8000 -0.2065
  109SAPE   H7Y11309   3.930   2.874   3.463 -0.2111  0.0891  1.4264
  109SAPE   C3811310   3.941   2.686   3.568 -0.0364  0.7211  0.1188
  109SAPE   H8X11311   4.051   2.672   3.565 -0.3543 -2.3116 -0.8167
  109SAPE   H8Y11312   3.895   2.587   3.547  1.7682 -0.0512 -0.4548
  109SAPE   C3911313   3.921   2.750   3.703 -0.4715  0.4028 -0.5688
  109SAPE   H9X11314   3.815   2.765   3.734 -0.1729  1.2926  0.0696
  109SAPE   H9Y11315   3.968   2.851   3.704 -0.4159  0.3811  0.7770
  109SAPE  C31011316   3.994   2.673   3.814  0.4996 -0.2196 -0.1502
  109SAPE  H10X11317   4.105   2.678   3.810  0.4750  3.2556  0.2317
  109SAPE  H10Y11318   3.967   2.566   3.802  0.2349 -0.2572  0.6794
  109SAPE  C31111319   3.957   2.715   3.955 -0.0508 -0.4832  0.4075
  109SAPE  H11X11320   3.955   2.826   3.966  0.3644 -0.3675 -0.5668
  109SAPE  H11Y11321   4.048   2.697   4.017  1.3241  1.1977 -1.0054
  109SAPE  C31211322   3.843   2.638   4.015  0.5091 -0.4216  0.3872
  109SAPE  H12X11323   3.867   2.530   4.006 -2.2859 -1.1059  0.0225
  109SAPE  H12Y11324   3.752   2.662   3.955  1.3193  1.5718 -0.1094
  109SAPE  C31311325   3.831   2.670   4.162 -0.5301 -0.1172  0.7884
  109SAPE  H13X11326   3.835   2.781   4.168 -0.4710  0.0085 -1.0563
  109SAPE  H13Y11327   3.922   2.647   4.221 -0.1760  0.7237  0.5899
  109SAPE  C31411328   3.693   2.623   4.211 -0.0806 -0.5114 -0.0312
  109SAPE  H14X11329   3.686   2.513   4.227 -0.9898 -0.2958  1.1539
  109SAPE  H14Y11330   3.614   2.663   4.145  0.4877 -1.0355 -1.0592
  109SAPE  C31511331   3.674   2.679   4.353  0.8176 -0.4921  0.6062
  109SAPE  H15X11332   3.571   2.720   4.349  1.4634  1.2506  0.7442
  109SAPE  H15Y11333   3.732   2.774   4.357 -0.3989  0.3082  0.0226
  109SAPE  C31611334   3.692   2.589   4.468  0.4124  0.0436 -0.2819
  109SAPE  H16X11335   3.799   2.561   4.476  0.2893 -0.1665  0.7206
  109SAPE  H16Y11336   3.642   2.493   4.447 -0.6752  0.2259  1.2870
  109SAPE  C31711337   3.646   2.643   4.609  0.1807 -0.3313 -0.3856
  109SAPE  H17X11338   3.541   2.674   4.587  0.7746  1.5754 -0.6977
  109SAPE  H17Y11339   3.696   2.739   4.635  2.8662 -1.3003 -1.5986
  109SAPE  C31811340   3.656   2.537   4.712  0.7257  0.5772  0.2173
  109SAPE  H18X11341   3.764   2.511   4.714 -0.1140 -3.9536 -1.5952
  109SAPE  H18Y11342   3.599   2.449   4.678  0.2119  1.4239 -1.2074
  109SAPE  H18Z11343   3.607   2.575   4.803 -2.1622 -0.8195 -0.6427
  110SAPE     N11344   4.918   0.711   2.459 -0.2139 -0.9105 -0.1912
  110SAPE   HN111345   4.860   0.755   2.385  0.2996  2.6248  1.3194
  110SAPE   HN211346   4.955   0.618   2.430  1.7708 -0.4187  0.6365
  110SAPE   HN311347   4.864   0.708   2.547 -0.0260  5.1753  0.5527
  110SAPE   C1211348   5.033   0.797   2.501  0.4983  0.0716 -0.1405
  110SAPE  H12A11349   5.106   0.806   2.418  0.0815  0.6562 -0.4487
  110SAPE  H12B11350   5.088   0.764   2.592 -0.4679  0.3552  0.5620
  110SAPE   C1111351   4.990   0.935   2.542 -0.7232  0.2775  0.0534
  110SAPE  H11A11352   4.938   0.987   2.458  0.0619  2.8617  1.0573
  110SAPE  H11B11353   5.077   0.999   2.567 -2.2036  1.8320  1.4231
  110SAPE     P11354   4.776   0.979   2.683 -0.0718 -0.1422  0.0780
  110SAPE   O1311355   4.703   0.975   2.556 -0.2356 -1.0681  0.0096
  110SAPE   O1411356   4.717   0.910   2.801 -0.1495  0.2387  0.7016
  110SAPE   O1211357   4.913   0.920   2.658  0.0569  0.1113 -0.4485
  110SAPE   O1111358   4.798   1.124   2.728  0.3412 -0.1925  0.9961
  110SAPE    C111359   4.886   1.174   2.833 -0.1262 -0.0873  0.1612
  110SAPE    HA11360   4.962   1.098   2.860  0.0886 -0.0586 -0.3528
  110SAPE    HB11361   4.937   1.271   2.814 -1.0971  0.5151  0.5380
  110SAPE    C211362   4.794   1.200   2.959  0.2831  0.0636  0.4814
  110SAPE    HS11363   4.745   1.103   2.983 -0.7946  0.0807 -1.4618
  110SAPE   O2111364   4.696   1.306   2.937 -0.4315 -0.7069 -0.0464
  110SAPE   C2111365   4.578   1.291   3.000 -0.0953  0.2716 -0.4104
  110SAPE   O2211366   4.544   1.188   3.057  0.0236  0.2462  1.1150
  110SAPE   C2211367   4.488   1.419   2.988 -0.0174 -0.9279  0.3966
  110SAPE   H2R11368   4.530   1.486   2.910 -1.7130 -2.0247 -1.5303
  110SAPE   H2S11369   4.388   1.383   2.957 -0.4561  0.1116  0.5383
  110SAPE    C311370   4.884   1.232   3.085 -0.0980  0.0525  0.7587
  110SAPE    HX11371   4.954   1.146   3.096 -0.7256 -0.7590 -1.1448
  110SAPE    HY11372   4.943   1.321   3.055 -0.8870  0.5393  0.6103
  110SAPE   O3111373   4.809   1.253   3.213 -0.8025  0.0252  0.1568
  110SAPE   C3111374   4.785   1.145   3.282 -0.2082  0.1070  0.0992
  110SAPE   O3211375   4.826   1.032   3.259 -0.4555 -0.1478  0.2687
  110SAPE   C3211376   4.717   1.189   3.411 -0.7664 -0.5176 -0.0553
  110SAPE   H2X11377   4.695   1.298   3.413  0.0737 -0.3484  0.7411
  110SAPE   H2Y11378   4.797   1.172   3.486  0.9846  3.2547 -0.8191
  110SAPE   C2311379   4.468   1.487   3.126  0.0501  0.6414  0.1478
  110SAPE   H3R11380   4.423   1.586   3.102 -0.2063  0.1671 -1.4147
  110SAPE   H3S11381   4.565   1.522   3.166 -0.0643  2.2614 -0.8872
  110SAPE   C2411382   4.385   1.414   3.230 -0.2667 -0.3206  0.4855
  110SAPE   H4R11383   4.394   1.474   3.323 -2.4105  0.6975  0.1135
  110SAPE   H4S11384   4.434   1.315   3.246  0.5033 -0.9300 -4.1746
  110SAPE   C2511385   4.241   1.409   3.197  0.0849  0.0009  1.1553
  110SAPE   H5R11386   4.217   1.382   3.093 -2.3393  1.0584  1.3670
  110SAPE   C2611387   4.149   1.408   3.292 -0.2141  0.1686  0.5241
  110SAPE   H6R11388   4.043   1.396   3.265 -0.1829  2.1703 -0.7246
  110SAPE   C2711389   4.163   1.440   3.435 -0.7263  0.2098 -0.5565
  110SAPE   H7R11390   4.263   1.485   3.454 -0.3558 -0.2217 -1.3961
  110SAPE   H7S11391   4.173   1.345   3.491  0.0889 -0.3631 -1.6168
  110SAPE   C2811392   4.054   1.524   3.490  0.0733 -0.3697 -0.2793
  110SAPE   H8R11393   4.003   1.583   3.413  2.6385  3.0499  0.4086
  110SAPE   C2911394   4.013   1.533   3.616  0.4832 -0.1458  0.5633
  110SAPE   H9R11395   3.940   1.614   3.626  1.3502  0.8324 -0.7273
  110SAPE  C21011396   4.077   1.470   3.737  0.3729  0.1370  0.7297
  110SAPE  H10R11397   4.169   1.529   3.757  0.6365 -0.0088 -0.0544
  110SAPE  H10S11398   4.106   1.363   3.726  1.1556  0.4210 -0.0162
  110SAPE  C21111399   3.991   1.478   3.866 -0.2294  0.1923  0.4219
  110SAPE  H11R11400   3.891   1.435   3.849  0.3429 -0.9647 -0.0607
  110SAPE  C21211401   4.018   1.526   3.983 -0.4993 -0.0566  0.3520
  110SAPE  H12R11402   3.942   1.512   4.061  0.3703 -0.8922  1.0873
  110SAPE  C21311403   4.154   1.585   4.019 -0.0261  0.7181  0.2024
  110SAPE  H13R11404   4.219   1.602   3.930 -0.1012  1.8118  0.3377
  110SAPE  H13S11405   4.203   1.520   4.094 -0.7384  0.3847  0.3870
  110SAPE  C21411406   4.114   1.717   4.075 -1.1411 -0.9897 -0.9680
  110SAPE  H14R11407   4.098   1.789   3.993  0.6866  0.0788 -0.4565
  110SAPE  C21511408   4.096   1.757   4.206 -0.5929  0.5430  0.9836
  110SAPE  H15R11409   4.066   1.862   4.217  0.4942  1.1355 -1.0794
  110SAPE  C21611410   4.129   1.673   4.330  0.1552 -0.4973  0.2815
  110SAPE  H16R11411   4.143   1.565   4.306 -1.6615 -0.8464  0.6650
  110SAPE  H16S11412   4.028   1.674   4.375 -0.9068 -0.8109 -1.9691
  110SAPE  C21711413   4.230   1.725   4.429 -0.6507 -0.0607 -0.0857
  110SAPE  H17R11414   4.210   1.832   4.452 -0.0419 -0.0563  0.4520
  110SAPE  H17S11415   4.330   1.718   4.381  0.0310  0.6845  1.1856
  110SAPE  C21811416   4.245   1.656   4.566  0.4826  0.6089 -0.0295
  110SAPE  H18R11417   4.320   1.696   4.637 -2.6588  1.3862  3.1849
  110SAPE  H18S11418   4.276   1.550   4.552  0.4633  0.2275  2.3396
  110SAPE  C21911419   4.117   1.654   4.648  0.3815 -0.6856  0.3568
  110SAPE  H19R11420   4.026   1.641   4.586  0.7760  1.3836 -0.7516
  110SAPE  H19S11421   4.109   1.761   4.676 -0.0160 -0.8434  0.8631
  110SAPE  C22011422   4.128   1.576   4.776 -0.3907  0.1589 -0.2808
  110SAPE  H20R11423   4.140   1.468   4.757  0.7317  0.2494 -0.1248
  110SAPE  H20S11424   4.032   1.587   4.832  0.0845  0.8345  0.4199
  110SAPE  H20T11425   4.208   1.617   4.842  1.2911 -1.7974 -1.0106
  110SAPE   C3311426   4.596   1.108   3.454 -0.4367  0.4832  0.5413
  110SAPE   H3X11427   4.591   1.002   3.422  2.5570  0.2660  0.5341
  110SAPE   H3Y11428   4.509   1.156   3.404  0.3629  0.6424 -0.7307
  110SAPE   C3411429   4.567   1.111   3.611 -0.3425 -0.1316 -0.2445
  110SAPE   H4X11430   4.648   1.043   3.644 -2.2098 -2.5173 -0.3366
  110SAPE   H4Y11431   4.474   1.056   3.636 -1.1153  0.5032 -1.6053
  110SAPE   C3511432   4.570   1.254   3.665 -0.5476  0.4356 -0.3311
  110SAPE   H5X11433   4.674   1.292   3.651  0.8380 -2.8178  0.3716
  110SAPE   H5Y11434   4.563   1.235   3.774  0.8653  0.2345 -0.2534
  110SAPE   C3611435   4.465   1.350   3.612  0.2301 -0.1795 -0.1997
  110SAPE   H6X11436   4.366   1.301   3.629  1.1590 -1.4208  2.0303
  110SAPE   H6Y11437   4.467   1.347   3.501 -0.6348 -0.6229 -0.2128
  110SAPE   C3711438   4.501   1.492   3.644 -0.2391 -0.1332 -0.7555
  110SAPE   H7X11439   4.428   1.562   3.597  0.2793  2.1317  1.5714
  110SAPE   H7Y11440   4.602   1.516   3.604  0.9742 -0.0492  2.1663
  110SAPE   C3811441   4.502   1.527   3.797 -0.6185  0.1599 -0.1532
  110SAPE   H8X11442   4.549   1.446   3.856  2.3685  0.3170 -2.1264
  110SAPE   H8Y11443   4.397   1.522   3.833 -0.4686 -0.8441  0.1674
  110SAPE   C3911444   4.547   1.672   3.830  0.5945 -0.4362  0.3732
  110SAPE   H9X11445   4.646   1.694   3.785  0.5455  2.6949  1.5540
  110SAPE   H9Y11446   4.561   1.691   3.938 -1.5077 -2.3366  1.0483
  110SAPE  C31011447   4.445   1.781   3.773  0.2242 -0.3211 -0.2130
  110SAPE  H10X11448   4.351   1.767   3.831  0.3592  1.5924  0.5367
  110SAPE  H10Y11449   4.430   1.750   3.667 -0.2361 -0.1421 -0.2000
  110SAPE  C31111450   4.512   1.920   3.769 -0.0155  0.0120  0.0717
  110SAPE  H11X11451   4.434   1.982   3.721  0.5446  0.0010 -0.8810
  110SAPE  H11Y11452   4.604   1.912   3.706  0.7921 -2.5382  1.4162
  110SAPE  C31211453   4.543   1.979   3.906 -0.7311 -0.5991  0.6476
  110SAPE  H12X11454   4.577   2.085   3.901 -0.2901 -0.7609  0.2315
  110SAPE  H12Y11455   4.628   1.924   3.953  0.3128 -0.4810 -1.0158
  110SAPE  C31311456   4.420   1.970   4.000  0.1213 -0.1166  0.1821
  110SAPE  H13X11457   4.401   1.871   4.048 -0.5416  0.2416  0.6632
  110SAPE  H13Y11458   4.338   1.989   3.927  1.1191 -0.1666 -0.9913
  110SAPE  C31411459   4.411   2.094   4.091 -0.3700 -0.4299  0.2909
  110SAPE  H14X11460   4.312   2.104   4.141 -0.9177  0.3959 -0.9232
  110SAPE  H14Y11461   4.425   2.185   4.030  0.8272 -1.1755 -0.5938
  110SAPE  C31511462   4.518   2.108   4.205 -0.0514 -0.1540 -0.9863
  110SAPE  H15X11463   4.500   2.210   4.246  0.8133 -0.1604 -0.5719
  110SAPE  H15Y11464   4.621   2.086   4.168 -0.5393 -1.2492 -1.7632
  110SAPE  C31611465   4.491   2.011   4.326 -0.6479  0.3230  0.2660
  110SAPE  H16X11466   4.529   1.910   4.297  0.0962  0.5447  0.4573
  110SAPE  H16Y11467   4.380   2.004   4.332 -0.6290  0.4341  0.7606
  110SAPE  C31711468   4.548   2.063   4.458  0.2801 -0.4530 -1.1825
  110SAPE  H17X11469   4.506   2.159   4.496 -1.6458 -1.8049  0.3082
  110SAPE  H17Y11470   4.657   2.080   4.451  0.3559 -0.4415 -0.1091
  110SAPE  C31811471   4.533   1.971   4.580  0.2519  0.6751 -0.0357
  110SAPE  H18X11472   4.566   1.871   4.547 -4.2695 -0.5284 -1.7409
  110SAPE  H18Y11473   4.426   1.946   4.596  0.2445 -0.1396 -1.2258
  110SAPE  H18Z11474   4.578   2.008   4.674 -1.8933 -2.0796  2.2319
  111SAPE     N11475   1.283   4.199   2.265  0.0819 -0.1377  0.1755
  111SAPE   HN111476   1.188   4.162   2.241  0.8046 -2.0898  0.1115
  111SAPE   HN211477   1.355   4.153   2.206  0.8994 -1.9097  2.4027
  111SAPE   HN311478   1.310   4.168   2.361  1.1014 -0.2081 -0.1330
  111SAPE   C1211479   1.266   4.350   2.248  0.2107 -0.3456 -0.0934
  111SAPE  H12A11480   1.196   4.376   2.165  2.1454  0.6438 -1.4759
  111SAPE  H12B11481   1.368   4.384   2.223  0.6199  2.3127  4.2346
  111SAPE   C1111482   1.219   4.414   2.383 -0.2674  0.1177  0.4564
  111SAPE  H11A11483   1.245   4.522   2.376  2.6104 -0.4463  1.2263
  111SAPE  H11B11484   1.292   4.385   2.461  3.1155  3.6481 -1.0002
  111SAPE     P11485   1.009   4.443   2.533  0.1397  0.0049 -0.0151
  111SAPE   O1311486   0.953   4.573   2.491  0.2793 -0.0131 -0.0312
  111SAPE   O1411487   0.922   4.349   2.603  0.1582  0.3646  0.0132
  111SAPE   O1211488   1.079   4.379   2.405  0.7073  0.1788 -0.8720
  111SAPE   O1111489   1.132   4.481   2.621  0.3411  0.3441 -0.3063
  111SAPE    C111490   1.191   4.393   2.715  1.3243  0.3065 -0.0372
  111SAPE    HA11491   1.169   4.288   2.689 -1.3627  1.4802 -3.1078
  111SAPE    HB11492   1.302   4.396   2.715  1.4616 -1.6477  2.7780
  111SAPE    C211493   1.149   4.437   2.859  0.2917 -0.4677  0.5410
  111SAPE    HS11494   1.042   4.412   2.874  0.5964 -0.8860  2.2713
  111SAPE   O2111495   1.178   4.573   2.882 -0.6852 -0.2873 -0.3239
  111SAPE   C2111496   1.101   4.642   2.963  0.4975 -0.1754  0.4020
  111SAPE   O2211497   0.994   4.601   3.008  0.2267  0.4454 -0.2731
  111SAPE   C2211498   1.150   4.784   2.972 -0.7114  0.3157 -0.4229
  111SAPE   H2R11499   1.261   4.788   2.963 -0.6532 -0.8160 -0.4283
  111SAPE   H2S11500   1.105   4.840   2.887  0.5965  1.6265 -0.2736
  111SAPE    C311501   1.235   4.356   2.963 -1.0295  0.1732 -0.2594
  111SAPE    HX11502   1.330   4.362   2.907 -1.1412  1.8527 -0.3184
  111SAPE    HY11503   1.198   4.252   2.970 -0.3479 -0.0517  0.0316
  111SAPE   O3111504   1.246   4.407   3.097 -0.2131 -0.6772  0.1851
  111SAPE   C3111505   1.358   4.393   3.163 -0.4574 -0.3382 -0.6873
  111SAPE   O3211506   1.459   4.342   3.126  0.6505  0.5914  0.8769
  111SAPE   C3211507   1.330   4.440   3.308 -1.2300 -0.2067  0.7618
  111SAPE   H2X11508   1.221   4.429   3.326 -1.4402 -1.1827 -0.8753
  111SAPE   H2Y11509   1.349   4.548   3.324 -1.6936 -0.0275  0.1382
  111SAPE   C2311510   1.101   4.858   3.099  0.3954  0.1476  0.1797
  111SAPE   H3R11511   0.994   4.833   3.111  0.3018 -0.1265 -1.0194
  111SAPE   H3S11512   1.112   4.967   3.081  2.3607 -0.1243 -0.5617
  111SAPE   C2411513   1.179   4.808   3.219  0.3905 -0.0684 -0.0669
  111SAPE   H4R11514   1.284   4.842   3.207 -0.6001  3.1192 -0.4859
  111SAPE   H4S11515   1.171   4.697   3.230  1.4039 -0.1425 -0.0037
  111SAPE   C2511516   1.125   4.872   3.342  0.4032 -0.2660  0.0889
  111SAPE   H5R11517   1.102   4.979   3.330  0.2126 -0.5433 -2.5736
  111SAPE   C2611518   1.106   4.830   3.467 -0.8434  0.1755  0.5169
  111SAPE   H6R11519   1.046   4.892   3.536  0.1653  1.8281 -0.0266
  111SAPE   C2711520   1.120   4.687   3.521  0.1790 -0.1867 -0.4602
  111SAPE   H7R11521   1.091   4.614   3.442  0.4437 -1.3282  0.4663
  111SAPE   H7S11522   1.045   4.669   3.601  1.2314 -0.0989  0.5691
  111SAPE   C2811523   1.256   4.660   3.576 -0.2712 -0.8059  0.4923
  111SAPE   H8R11524   1.338   4.650   3.504  0.2112 -1.9825  1.1794
  111SAPE   C2911525   1.293   4.675   3.708 -0.7712 -0.3534 -0.5038
  111SAPE   H9R11526   1.395   4.653   3.743 -1.1603  0.5585  1.3037
  111SAPE  C21011527   1.213   4.711   3.829 -0.0719  0.3409  0.3969
  111SAPE  H10R11528   1.135   4.784   3.800 -0.2486  0.0661  0.1739
  111SAPE  H10S11529   1.276   4.783   3.885  0.0877 -1.2596  2.4235
  111SAPE  C21111530   1.168   4.596   3.911  0.5664 -0.1269 -0.1893
  111SAPE  H11R11531   1.138   4.505   3.858 -0.1538  0.5380 -0.9603
  111SAPE  C21211532   1.153   4.595   4.046  0.1754 -0.1519  0.0652
  111SAPE  H12R11533   1.109   4.505   4.092 -0.6659  0.5233  0.6214
  111SAPE  C21311534   1.209   4.693   4.144 -0.1139  0.0268 -0.1527
  111SAPE  H13R11535   1.150   4.683   4.237  0.1849  1.0225  0.1581
  111SAPE  H13S11536   1.187   4.797   4.112  1.7482  0.4676 -0.0912
  111SAPE  C21411537   1.347   4.678   4.174 -0.7103  0.6282  0.1390
  111SAPE  H14R11538   1.408   4.613   4.110 -1.6360  0.6536 -0.7930
  111SAPE  C21511539   1.416   4.735   4.277 -0.2054  0.4865  0.5576
  111SAPE  H15R11540   1.523   4.711   4.278 -0.4210 -0.8182 -1.4877
  111SAPE  C21611541   1.369   4.828   4.384  0.0083  0.0817 -0.0902
  111SAPE  H16R11542   1.264   4.850   4.355  0.7222  1.6556 -1.7261
  111SAPE  H16S11543   1.433   4.919   4.392 -0.8945  0.6478  1.0448
  111SAPE  C21711544   1.369   4.767   4.527 -0.4480 -0.1853  0.2092
  111SAPE  H17R11545   1.466   4.717   4.548  0.1149  0.1653 -1.4906
  111SAPE  H17S11546   1.297   4.682   4.535 -0.4171 -0.5141 -2.4145
  111SAPE  C21811547   1.339   4.870   4.644  0.0448 -0.4311  0.3293
  111SAPE  H18R11548   1.429   4.935   4.636  1.3529 -1.9146  2.1598
  111SAPE  H18S11549   1.341   4.830   4.747  0.1789  1.8868  1.3016
  111SAPE  C21911550   1.208   4.960   4.632 -0.6207  0.6617  0.5686
  111SAPE  H19R11551   1.127   4.884   4.619 -0.0188  0.1989 -0.6516
  111SAPE  H19S11552   1.205   5.025   4.542 -1.4706  0.2751  0.3008
  111SAPE  C22011553   1.178   5.045   4.750  0.1682  0.3464  0.3382
  111SAPE  H20R11554   1.082   5.097   4.734  0.5014  0.6242 -0.8857
  111SAPE  H20S11555   1.267   5.110   4.768  1.8670 -1.3552 -1.4293
  111SAPE  H20T11556   1.163   4.981   4.839 -1.2267  0.3898  0.1581
  111SAPE   C3311557   1.427   4.371   3.407  0.1679  0.9005  0.6896
  111SAPE   H3X11558   1.448   4.421   3.504  0.7194  0.7103  0.6719
  111SAPE   H3Y11559   1.525   4.349   3.361 -0.4768  1.9180 -1.2790
  111SAPE   C3411560   1.367   4.237   3.455  0.7171  0.6824  0.6565
  111SAPE   H4X11561   1.373   4.159   3.375 -1.9079  1.2818 -0.2112
  111SAPE   H4Y11562   1.261   4.247   3.486  0.0713 -1.8745 -0.3894
  111SAPE   C3511563   1.447   4.178   3.573 -0.4531 -0.6779  0.6201
  111SAPE   H5X11564   1.439   4.252   3.657  2.1207  0.5330 -0.0998
  111SAPE   H5Y11565   1.555   4.167   3.552 -0.0320  0.0388  2.2574
  111SAPE   C3611566   1.409   4.037   3.610  0.4343 -0.2840  0.1475
  111SAPE   H6X11567   1.404   3.980   3.515  1.9109 -2.1145  1.0964
  111SAPE   H6Y11568   1.302   4.042   3.642  0.7127 -2.0968  1.5638
  111SAPE   C3711569   1.503   3.982   3.707 -0.1456  0.3597 -0.8382
  111SAPE   H7X11570   1.608   3.995   3.672  0.3549  1.6583  1.0005
  111SAPE   H7Y11571   1.480   3.874   3.707 -1.1075  0.5597 -0.9218
  111SAPE   C3811572   1.485   4.047   3.852  0.1109  0.3357 -0.3482
  111SAPE   H8X11573   1.538   4.145   3.849  3.5867 -1.3666  0.0205
  111SAPE   H8Y11574   1.545   3.984   3.922 -1.4384 -1.5682 -0.6345
  111SAPE   C3911575   1.342   4.042   3.909 -0.5448  0.6949 -0.1471
  111SAPE   H9X11576   1.296   3.943   3.887 -0.3939  0.8997 -1.4965
  111SAPE   H9Y11577   1.283   4.111   3.845 -1.1724  2.3858  2.1293
  111SAPE  C31011578   1.337   4.099   4.048  0.0417 -0.1419  0.1847
  111SAPE  H10X11579   1.403   4.032   4.106  1.4772  0.7389 -0.3953
  111SAPE  H10Y11580   1.229   4.098   4.075 -0.4074  2.4069 -1.1961
  111SAPE  C31111581   1.383   4.243   4.068 -0.6748 -0.0281 -0.5193
  111SAPE  H11X11582   1.323   4.321   4.016  1.5493  2.1686  0.0431
  111SAPE  H11Y11583   1.487   4.247   4.030 -0.7881 -1.3009 -1.0255
  111SAPE  C31211584   1.387   4.267   4.216  0.3336  0.6920 -0.3217
  111SAPE  H12X11585   1.426   4.371   4.219 -0.2834  0.9300 -0.4533
  111SAPE  H12Y11586   1.458   4.194   4.261 -1.6392 -1.4736 -0.5366
  111SAPE  C31311587   1.259   4.268   4.301  0.3110  0.2591 -0.3813
  111SAPE  H13X11588   1.230   4.160   4.302 -0.0009  0.2907  2.8965
  111SAPE  H13Y11589   1.176   4.320   4.249 -0.4546 -1.6271 -1.1187
  111SAPE  C31411590   1.284   4.322   4.444  0.3539 -0.2480  0.1245
  111SAPE  H14X11591   1.342   4.416   4.434  0.2991 -0.2320 -0.0630
  111SAPE  H14Y11592   1.350   4.246   4.492  0.3854 -0.5912 -0.4387
  111SAPE  C31511593   1.160   4.359   4.519 -0.2932 -0.3662 -0.1947
  111SAPE  H15X11594   1.109   4.428   4.448  1.2180 -1.6954 -2.7041
  111SAPE  H15Y11595   1.192   4.424   4.604  0.7311  0.2576 -1.0410
  111SAPE  C31611596   1.085   4.244   4.572 -0.3484 -0.3351  0.3180
  111SAPE  H16X11597   1.145   4.178   4.639 -0.5791  0.4387  1.3158
  111SAPE  H16Y11598   1.052   4.185   4.484 -3.2615 -1.5943  2.1233
  111SAPE  C31711599   0.959   4.286   4.658 -0.0718 -0.3086  0.3552
  111SAPE  H17X11600   0.896   4.196   4.675  0.7369 -0.3456  4.0386
  111SAPE  H17Y11601   0.904   4.362   4.598 -0.2050 -1.2126 -0.7000
  111SAPE  C31811602   1.001   4.341   4.799  0.4175 -0.4141 -0.8575
  111SAPE  H18X11603   0.917   4.380   4.861 -0.2724 -2.1452 -0.6530
  111SAPE  H18Y11604   1.077   4.422   4.789 -0.4125  0.4824 -0.0809
  111SAPE  H18Z11605   1.042   4.263   4.866 -0.3587  1.7624  2.3808
  112SAPE     N11606   5.735   2.260   2.801  0.1442 -0.0256 -0.1231
  112SAPE   HN111607   5.677   2.175   2.790  1.4309 -1.2423  1.8266
  112SAPE   HN211608   5.830   2.221   2.785  0.0338 -0.5440  0.4690
  112SAPE   HN311609   5.731   2.293   2.900 -0.0626  1.6368 -0.6504
  112SAPE   C1211610   5.708   2.383   2.711  0.5270 -0.2447  0.4531
  112SAPE  H12A11611   5.616   2.433   2.748  0.2488 -0.1155 -0.3785
  112SAPE  H12B11612   5.697   2.340   2.609  2.4534 -0.7996  0.4450
  112SAPE   C1111613   5.827   2.490   2.712 -0.5961 -0.5109 -0.6791
  112SAPE  H11A11614   5.820   2.547   2.806 -1.5343  0.2319 -1.1831
  112SAPE  H11B11615   5.806   2.550   2.620  1.3601 -1.0649 -1.5586
  112SAPE     P11616   6.082   2.495   2.685 -0.1430  0.0760  0.0662
  112SAPE   O1311617   6.141   2.458   2.557 -0.1005  0.1008  0.2503
  112SAPE   O1411618   6.054   2.641   2.713 -0.1798  0.0334 -0.2085
  112SAPE   O1211619   5.950   2.415   2.696 -0.5449 -0.0487 -0.2906
  112SAPE   O1111620   6.173   2.434   2.799 -0.2735  0.3083 -0.1796
  112SAPE    C111621   6.129   2.397   2.931 -0.1261  0.6233 -0.5678
  112SAPE    HA11622   6.027   2.353   2.929 -0.4844  1.3221  1.0468
  112SAPE    HB11623   6.207   2.332   2.976 -1.3031 -1.7728 -1.8307
  112SAPE    C211624   6.108   2.515   3.037  0.0146 -0.1426  0.2137
  112SAPE    HS11625   6.020   2.574   3.003  0.8491  1.0201  0.0003
  112SAPE   O2111626   6.229   2.600   3.028  0.1554 -0.1406  0.1839
  112SAPE   C2111627   6.205   2.731   3.028 -0.8741 -0.5242 -0.0250
  112SAPE   O2211628   6.105   2.796   3.017  0.0288  0.3802 -0.2921
  112SAPE   C2211629   6.341   2.805   3.042  0.9118  0.1752  0.2652
  112SAPE   H2R11630   6.391   2.796   2.943 -0.4970 -2.7375 -0.2819
  112SAPE   H2S11631   6.308   2.911   3.048 -2.7651 -0.5633 -2.8192
  112SAPE    C311632   6.089   2.473   3.182 -0.5284  0.7311  0.1724
  112SAPE    HX11633   6.172   2.424   3.237 -0.9016  0.0625  0.1430
  112SAPE    HY11634   6.008   2.398   3.173  0.2696 -0.0822 -0.3242
  112SAPE   O3111635   6.045   2.581   3.269 -0.0839 -0.4321 -0.1131
  112SAPE   C3111636   5.910   2.597   3.286  0.6515 -0.4079 -0.2826
  112SAPE   O3211637   5.826   2.552   3.207  0.4564 -0.2494  0.0075
  112SAPE   C3211638   5.879   2.683   3.406 -0.0361 -0.2183  0.1524
  112SAPE   H2X11639   5.883   2.791   3.378  1.5102 -0.5596 -1.1545
  112SAPE   H2Y11640   5.965   2.662   3.474  1.0689 -0.3093 -1.2199
  112SAPE   C2311641   6.432   2.749   3.160  0.1512  0.7009  0.1636
  112SAPE   H3R11642   6.448   2.639   3.149 -0.4490  0.6232  0.0459
  112SAPE   H3S11643   6.381   2.757   3.259 -0.4038  0.7068 -0.1226
  112SAPE   C2411644   6.559   2.840   3.155 -0.4642  0.0078 -0.4549
  112SAPE   H4R11645   6.591   2.850   3.049 -1.2854  0.2790 -0.6816
  112SAPE   H4S11646   6.638   2.787   3.214 -1.2870  1.0859  1.7367
  112SAPE   C2511647   6.525   2.972   3.208 -0.7692  0.1053  0.0110
  112SAPE   H5R11648   6.503   3.045   3.128 -0.4896 -0.2007 -0.3484
  112SAPE   C2611649   6.524   2.996   3.338 -0.2180  0.1941 -0.1443
  112SAPE   H6R11650   6.506   3.100   3.370 -1.5092 -0.2439  0.6608
  112SAPE   C2711651   6.545   2.909   3.457  0.2459  0.5284  0.2480
  112SAPE   H7R11652   6.587   2.813   3.422 -0.3680  0.8531 -1.5200
  112SAPE   H7S11653   6.448   2.881   3.503 -1.2268  1.8004 -1.8576
  112SAPE   C2811654   6.639   2.981   3.554 -0.4377  0.0287 -0.5286
  112SAPE   H8R11655   6.678   3.082   3.532 -2.4323  1.0977  0.5312
  112SAPE   C2911656   6.679   2.926   3.666  0.0254 -0.1543 -0.7991
  112SAPE   H9R11657   6.746   2.991   3.724  0.6028 -0.1259 -1.4823
  112SAPE  C21011658   6.635   2.793   3.715  0.2485  0.7870  0.2467
  112SAPE  H10R11659   6.630   2.717   3.634  3.0507  0.3296  0.3902
  112SAPE  H10S11660   6.532   2.796   3.757 -0.4767  0.3335 -1.4193
  112SAPE  C21111661   6.715   2.737   3.827 -0.3198 -0.0700  0.2128
  112SAPE  H11R11662   6.821   2.713   3.807 -0.1339  1.0320 -0.2137
  112SAPE  C21211663   6.681   2.715   3.954 -0.2576  0.4882 -0.8361
  112SAPE  H12R11664   6.759   2.676   4.021 -1.8611 -0.1141  0.7918
  112SAPE  C21311665   6.564   2.746   4.038  0.2693 -0.1627  0.2129
  112SAPE  H13R11666   6.507   2.829   3.991  2.2188 -0.6340 -3.2203
  112SAPE  H13S11667   6.603   2.777   4.137  0.4395 -1.4338  0.5653
  112SAPE  C21411668   6.480   2.618   4.041 -0.4976 -0.0051 -0.0870
  112SAPE  H14R11669   6.415   2.616   3.952  0.0957  1.0549 -0.5651
  112SAPE  C21511670   6.483   2.525   4.135  0.3827  0.9164 -0.1321
  112SAPE  H15R11671   6.416   2.438   4.130  1.3263  0.2351 -1.8612
  112SAPE  C21611672   6.575   2.521   4.258  0.0356  0.0682 -0.0749
  112SAPE  H16R11673   6.643   2.609   4.260  0.4166 -0.2108  1.9137
  112SAPE  H16S11674   6.637   2.431   4.240  0.1029  0.6877 -3.6909
  112SAPE  C21711675   6.478   2.529   4.383 -0.0055 -0.4576  0.3708
  112SAPE  H17R11676   6.418   2.436   4.386 -0.1478 -0.4484 -1.4571
  112SAPE  H17S11677   6.434   2.631   4.378  1.5946  0.3034  0.9957
  112SAPE  C21811678   6.562   2.513   4.510  0.2507  0.6831 -0.3483
  112SAPE  H18R11679   6.654   2.574   4.497 -0.9562  2.5913 -0.4714
  112SAPE  H18S11680   6.595   2.408   4.520  0.1084  0.7064  0.4489
  112SAPE  C21911681   6.485   2.548   4.634 -0.2645 -0.2758  0.3791
  112SAPE  H19R11682   6.548   2.520   4.720 -0.6111 -2.0089  0.0925
  112SAPE  H19S11683   6.394   2.485   4.639 -0.1353 -0.4138  1.0113
  112SAPE  C22011684   6.449   2.702   4.659 -0.4598  0.9813  0.1936
  112SAPE  H20R11685   6.371   2.743   4.591  1.9916  3.8768 -1.0506
  112SAPE  H20S11686   6.539   2.766   4.662  0.7149 -0.6366  1.4209
  112SAPE  H20T11687   6.387   2.714   4.750  0.3701  1.7795  0.6560
  112SAPE   C3311688   5.738   2.656   3.473 -0.5130 -0.3092  0.2789
  112SAPE   H3X11689   5.656   2.673   3.400 -2.8358 -1.1898  2.4995
  112SAPE   H3Y11690   5.722   2.737   3.547  0.2014  0.5911 -0.5278
  112SAPE   C3411691   5.727   2.520   3.541  0.3946  0.2466 -0.4309
  112SAPE   H4X11692   5.823   2.506   3.595  0.7425  0.3097 -1.0234
  112SAPE   H4Y11693   5.706   2.432   3.477  0.3401 -0.4199  0.4759
  112SAPE   C3511694   5.608   2.522   3.646 -0.2352  0.6372  1.2570
  112SAPE   H5X11695   5.583   2.421   3.684 -1.4853 -0.8820 -3.0275
  112SAPE   H5Y11696   5.520   2.558   3.589 -1.4272 -2.7746  0.7046
  112SAPE   C3611697   5.635   2.615   3.767  0.2764 -0.0123  0.3748
  112SAPE   H6X11698   5.611   2.719   3.737  0.5820  0.2030  0.8666
  112SAPE   H6Y11699   5.738   2.596   3.803  0.0965  0.2446  1.0553
  112SAPE   C3711700   5.539   2.587   3.875  0.3782  0.1697  0.4569
  112SAPE   H7X11701   5.437   2.585   3.831  0.0291 -2.2526  1.1946
  112SAPE   H7Y11702   5.549   2.668   3.950  2.5682 -1.0938  1.6144
  112SAPE   C3811703   5.577   2.463   3.955 -0.2929 -0.1176 -0.0124
  112SAPE   H8X11704   5.686   2.460   3.972 -0.5162 -2.6193  1.5157
  112SAPE   H8Y11705   5.539   2.373   3.902  0.7478 -0.7425  0.2986
  112SAPE   C3911706   5.499   2.452   4.093 -0.5847 -0.5693  0.3987
  112SAPE   H9X11707   5.490   2.346   4.124 -4.9446 -1.1342 -2.0152
  112SAPE   H9Y11708   5.391   2.470   4.074  0.2405  2.7293 -2.1854
  112SAPE  C31011709   5.572   2.527   4.197 -0.4873 -0.5987 -0.3716
  112SAPE  H10X11710   5.571   2.631   4.158 -0.9964 -0.9909 -1.4516
  112SAPE  H10Y11711   5.681   2.509   4.197 -0.3424  0.2328 -0.8892
  112SAPE  C31111712   5.538   2.514   4.349 -0.0455 -0.3242  0.3870
  112SAPE  H11X11713   5.435   2.550   4.369  0.7407  3.2444 -1.1849
  112SAPE  H11Y11714   5.595   2.588   4.410  1.1672 -1.3997  0.5989
  112SAPE  C31211715   5.563   2.374   4.395  0.1498 -0.7821  0.4173
  112SAPE  H12X11716   5.667   2.345   4.368  0.2702 -0.0859  0.1267
  112SAPE  H12Y11717   5.492   2.304   4.345  0.8797 -0.7197 -0.7379
  112SAPE  C31311718   5.550   2.371   4.548  0.1201 -0.2087 -0.4279
  112SAPE  H13X11719   5.634   2.434   4.584 -0.7710  1.2099 -0.7357
  112SAPE  H13Y11720   5.585   2.271   4.582  1.3542 -0.1785 -1.5480
  112SAPE  C31411721   5.422   2.402   4.626 -1.0999  0.4683  0.2749
  112SAPE  H14X11722   5.347   2.331   4.585  0.6156 -0.9379 -0.5623
  112SAPE  H14Y11723   5.392   2.508   4.610 -1.7725  0.4601  1.3717
  112SAPE  C31511724   5.449   2.395   4.779  0.0094 -0.8152 -0.5482
  112SAPE  H15X11725   5.534   2.463   4.801 -0.6866  0.2536 -1.0907
  112SAPE  H15Y11726   5.487   2.299   4.820 -0.2956 -0.2961  1.0093
  112SAPE  C31611727   5.321   2.436   4.854 -0.2221 -0.1093  0.4900
  112SAPE  H16X11728   5.319   2.396   4.958  0.1061  0.4570  0.7179
  112SAPE  H16Y11729   5.225   2.401   4.810  0.4458 -1.1642 -0.1640
  112SAPE  C31711730   5.317   2.588   4.880  0.2038  0.2120 -1.0077
  112SAPE  H17X11731   5.314   2.642   4.783  0.2311  1.8931 -0.1153
  112SAPE  H17Y11732   5.412   2.615   4.931 -0.3472  0.2917  0.0103
  112SAPE  C31811733   5.205   2.631   4.980 -0.1062  0.2059  0.2396
  112SAPE  H18X11734   5.241   2.586   5.076  4.6675  1.3050 -0.7776
  112SAPE  H18Y11735   5.109   2.593   4.940 -0.2906  2.2409 -1.3846
  112SAPE  H18Z11736   5.187   2.740   4.989  1.5125  0.5353 -0.3009
  113SAPE     N11737   0.658   2.718   2.408  0.0172  0.1853 -0.1501
  113SAPE   HN111738   0.582   2.790   2.403 -0.6941 -0.6177 -1.3160
  113SAPE   HN211739   0.738   2.754   2.463  0.5726  0.6527 -1.2364
  113SAPE   HN311740   0.693   2.695   2.313 -0.3255  2.6302 -0.9617
  113SAPE   C1211741   0.612   2.603   2.483 -0.1522 -0.4095  0.2975
  113SAPE  H12A11742   0.698   2.538   2.510 -1.6391 -3.1569 -1.1813
  113SAPE  H12B11743   0.537   2.547   2.424 -2.4247  1.2084  1.5000
  113SAPE   C1111744   0.530   2.652   2.607 -0.4890  0.5606  0.2718
  113SAPE  H11A11745   0.528   2.565   2.677 -0.6535  1.8115  1.8907
  113SAPE  H11B11746   0.429   2.680   2.573 -0.0018  0.8881 -0.9352
  113SAPE     P11747   0.534   2.828   2.795  0.1628  0.0742  0.0017
  113SAPE   O1311748   0.630   2.930   2.851 -0.0282 -0.6537  0.0795
  113SAPE   O1411749   0.393   2.874   2.763  0.1963  0.3738 -0.1026
  113SAPE   O1211750   0.600   2.757   2.670  0.1061  0.0207  0.3503
  113SAPE   O1111751   0.519   2.705   2.889 -0.2897 -0.0319  0.3437
  113SAPE    C111752   0.637   2.644   2.936 -0.3795 -0.4541  0.4613
  113SAPE    HA11753   0.628   2.540   2.897  0.1774 -0.2674 -0.1753
  113SAPE    HB11754   0.733   2.684   2.897  0.8354 -3.0945  0.5449
  113SAPE    C211755   0.649   2.656   3.091 -0.6113  0.5266 -0.7804
  113SAPE    HS11756   0.703   2.569   3.135 -0.1508  1.3463  0.3011
  113SAPE   O2111757   0.520   2.659   3.146 -0.1890  0.3829 -0.0762
  113SAPE   C2111758   0.446   2.555   3.130  0.2750 -0.0029  0.3057
  113SAPE   O2211759   0.470   2.450   3.074  0.0062  0.2388 -0.2166
  113SAPE   C2211760   0.315   2.575   3.208  0.1379  0.0264 -0.5592
  113SAPE   H2R11761   0.301   2.484   3.269  0.1482  2.0270  2.6296
  113SAPE   H2S11762   0.327   2.659   3.280 -1.0703 -2.2627  2.5347
  113SAPE    C311763   0.732   2.777   3.139  0.0651 -0.2843 -0.1433
  113SAPE    HX11764   0.670   2.869   3.144  0.1651 -0.2339  0.2260
  113SAPE    HY11765   0.802   2.788   3.054 -0.4010  1.6477 -0.3211
  113SAPE   O3111766   0.795   2.744   3.265 -0.1476 -0.1142  0.2800
  113SAPE   C3111767   0.886   2.825   3.308  0.7094  0.0419  0.2663
  113SAPE   O3211768   0.920   2.928   3.255  0.6405  0.4193  0.3113
  113SAPE   C3211769   0.962   2.750   3.414 -0.1071 -0.6276 -0.4249
  113SAPE   H2X11770   0.967   2.641   3.391 -0.9480 -0.4734 -1.4207
  113SAPE   H2Y11771   0.906   2.768   3.509  1.3928  0.4701  0.2914
  113SAPE   C2311772   0.204   2.599   3.110  0.3992  0.7577  0.0992
  113SAPE   H3R11773   0.192   2.521   3.032 -2.6290  1.6290 -0.4140
  113SAPE   H3S11774   0.218   2.688   3.045  0.1262 -0.3609 -1.5447
  113SAPE   C2411775   0.068   2.609   3.187  0.1799  0.7634 -0.3508
  113SAPE   H4R11776   0.045   2.505   3.219 -0.4982  0.6646 -1.1197
  113SAPE   H4S11777  -0.010   2.639   3.114  1.5088  1.8355 -1.3883
  113SAPE   C2511778   0.047   2.696   3.311 -0.0122  0.5332 -0.0491
  113SAPE   H5R11779   0.024   2.802   3.291  1.2585  0.5834 -1.4414
  113SAPE   C2611780   0.054   2.658   3.434  0.1751  0.3528 -0.9915
  113SAPE   H6R11781  -0.005   2.723   3.500  1.1656  0.0084  0.2853
  113SAPE   C2711782   0.081   2.517   3.485  0.3466  0.2557  0.1713
  113SAPE   H7R11783   0.188   2.498   3.507  0.5964 -1.1824 -1.9804
  113SAPE   H7S11784   0.073   2.444   3.401  0.3404 -0.9148  1.1536
  113SAPE   C2811785  -0.006   2.471   3.599  0.8408 -0.2699  0.2892
  113SAPE   H8R11786  -0.104   2.521   3.603  2.3008  2.8476  0.1069
  113SAPE   C2911787   0.021   2.370   3.682  0.1156  1.1563  0.2610
  113SAPE   H9R11788  -0.057   2.339   3.753 -1.1404  1.3196 -1.0053
  113SAPE  C21011789   0.147   2.282   3.681  0.5621 -0.5124  0.0716
  113SAPE  H10R11790   0.206   2.300   3.773  2.6119  1.2829 -1.5036
  113SAPE  H10S11791   0.216   2.306   3.598  1.9718 -1.0295  1.0612
  113SAPE  C21111792   0.111   2.135   3.669 -0.2400 -0.1564 -0.0774
  113SAPE  H11R11793   0.106   2.104   3.563 -0.0530 -0.5916  0.0385
  113SAPE  C21211794   0.093   2.045   3.773  0.3284 -0.0019  0.6813
  113SAPE  H12R11795   0.057   1.941   3.764 -0.8459  0.1503  2.9547
  113SAPE  C21311796   0.115   2.073   3.919  0.7950  0.8878 -0.0904
  113SAPE  H13R11797   0.026   2.137   3.937  1.3675  1.6979 -0.0797
  113SAPE  H13S11798   0.207   2.131   3.940  0.2988  1.9039 -0.6727
  113SAPE  C21411799   0.112   1.948   4.010  0.3552  0.1644 -0.1709
  113SAPE  H14R11800   0.054   1.858   3.984  1.1774 -0.5367  0.3790
  113SAPE  C21511801   0.194   1.930   4.117  0.1758  0.3306  0.3925
  113SAPE  H15R11802   0.198   1.837   4.176  1.4313 -0.1366 -0.4031
  113SAPE  C21611803   0.295   2.024   4.181 -0.2955  0.3323  0.1428
  113SAPE  H16R11804   0.265   2.128   4.156 -2.8269 -0.6034 -1.1765
  113SAPE  H16S11805   0.400   2.007   4.148  0.7380  2.7236  1.9621
  113SAPE  C21711806   0.291   2.004   4.327  0.1050 -0.7768 -0.2239
  113SAPE  H17R11807   0.323   1.905   4.365  1.0910  0.8018  3.5889
  113SAPE  H17S11808   0.186   2.017   4.361  0.7505  0.2591  1.4739
  113SAPE  C21811809   0.368   2.113   4.398 -0.4981  0.0845 -0.4478
  113SAPE  H18R11810   0.353   2.107   4.508 -0.1337  1.3023 -0.3176
  113SAPE  H18S11811   0.320   2.212   4.382 -0.2264  0.2256 -0.4009
  113SAPE  C21911812   0.510   2.138   4.348 -0.6729 -0.1583 -0.6100
  113SAPE  H19R11813   0.512   2.189   4.250  2.4626  1.8150  0.3338
  113SAPE  H19S11814   0.568   2.044   4.335 -2.6283 -1.2431 -1.9812
  113SAPE  C22011815   0.592   2.229   4.439  0.2510  0.4640  0.7745
  113SAPE  H20R11816   0.553   2.331   4.421 -1.2683 -0.3910 -1.1006
  113SAPE  H20S11817   0.701   2.229   4.416  0.3411  4.8798  0.3605
  113SAPE  H20T11818   0.578   2.189   4.542  0.5190 -1.7784  0.0089
  113SAPE   C3311819   1.113   2.803   3.437 -0.2889 -0.0538 -0.6518
  113SAPE   H3X11820   1.110   2.865   3.529  2.7068 -0.2879 -0.2887
  113SAPE   H3Y11821   1.145   2.874   3.357 -0.0613 -0.4265 -0.8954
  113SAPE   C3411822   1.221   2.697   3.446  0.3753 -0.7614 -0.4021
  113SAPE   H4X11823   1.320   2.745   3.463 -0.6304  1.4042 -0.3607
  113SAPE   H4Y11824   1.223   2.631   3.356 -1.7520 -2.6120  0.8152
  113SAPE   C3511825   1.198   2.603   3.567 -0.2279 -0.2265 -0.8580
  113SAPE   H5X11826   1.272   2.520   3.572  0.4769  0.3083 -2.0179
  113SAPE   H5Y11827   1.104   2.544   3.561  0.5604 -2.0099  2.2539
  113SAPE   C3611828   1.228   2.661   3.713 -0.0770  0.1072 -0.3539
  113SAPE   H6X11829   1.167   2.753   3.728  0.7708  0.4957  0.7671
  113SAPE   H6Y11830   1.329   2.706   3.709 -0.0953  0.1499 -0.3423
  113SAPE   C3711831   1.205   2.558   3.821 -0.8728  0.7827  1.1426
  113SAPE   H7X11832   1.281   2.481   3.796 -1.3888  0.3413  0.9180
  113SAPE   H7Y11833   1.104   2.519   3.797 -1.0044  1.9678 -0.3974
  113SAPE   C3811834   1.227   2.594   3.963 -0.5442  0.3713  0.3307
  113SAPE   H8X11835   1.334   2.603   3.989 -0.7652  0.9980  1.0786
  113SAPE   H8Y11836   1.178   2.690   3.990 -0.1638  0.8026 -0.5058
  113SAPE   C3911837   1.169   2.482   4.046 -0.1836  0.0164 -0.2732
  113SAPE   H9X11838   1.229   2.390   4.034  1.7810  1.1441  0.4166
  113SAPE   H9Y11839   1.060   2.465   4.036 -0.6540  1.1851  2.1517
  113SAPE  C31011840   1.196   2.528   4.194 -0.0144 -0.1094 -0.0167
  113SAPE  H10X11841   1.164   2.635   4.202  1.4623  0.2831  1.0971
  113SAPE  H10Y11842   1.307   2.524   4.202 -0.0269 -4.2232 -0.0247
  113SAPE  C31111843   1.129   2.437   4.294  0.1577 -0.3631  0.3830
  113SAPE  H11X11844   1.160   2.333   4.271  1.1104 -0.1114  0.4971
  113SAPE  H11Y11845   1.021   2.449   4.271  0.1638 -1.3697 -0.2544
  113SAPE  C31211846   1.157   2.457   4.447 -0.4669 -0.1417 -0.7701
  113SAPE  H12X11847   1.105   2.549   4.481  2.5809  2.2698 -2.1566
  113SAPE  H12Y11848   1.261   2.492   4.463 -0.6555  0.3280 -0.5586
  113SAPE  C31311849   1.122   2.330   4.523 -0.4865 -0.0879  0.2645
  113SAPE  H13X11850   1.194   2.246   4.510 -1.7812 -1.2701  0.4511
  113SAPE  H13Y11851   1.025   2.289   4.487  0.1674 -2.7937  1.3429
  113SAPE  C31411852   1.108   2.350   4.672 -0.6279 -0.0968 -0.2852
  113SAPE  H14X11853   1.106   2.459   4.695 -1.7037  0.0451 -0.9597
  113SAPE  H14Y11854   1.184   2.290   4.725 -1.7294 -0.5975  0.7700
  113SAPE  C31511855   0.979   2.285   4.733  0.1716 -1.1062  0.1592
  113SAPE  H15X11856   0.984   2.177   4.709  1.0085 -1.0177 -0.1061
  113SAPE  H15Y11857   0.889   2.333   4.688  1.2362  0.6772 -0.1842
  113SAPE  C31611858   0.962   2.307   4.887 -0.6531  0.3246 -0.0196
  113SAPE  H16X11859   0.959   2.417   4.903 -0.8764  0.4729 -1.0148
  113SAPE  H16Y11860   1.052   2.269   4.941 -1.1785 -0.0802  0.5794
  113SAPE  C31711861   0.838   2.240   4.946  0.0493  0.0714 -0.5490
  113SAPE  H17X11862   0.842   2.136   4.907 -0.1015 -0.5019  0.9185
  113SAPE  H17Y11863   0.749   2.296   4.909 -0.0107  0.2822 -0.0848
  113SAPE  C31811864   0.848   2.231   5.100 -0.4308 -0.9346 -0.5366
  113SAPE  H18X11865   0.840   2.325   5.158  2.7330 -0.7037 -0.2607
  113SAPE  H18Y11866   0.945   2.185   5.131  0.9078  2.0124  0.0327
  113SAPE  H18Z11867   0.773   2.158   5.135 -0.2127 -1.0631 -0.3332
  114SAPE     N11868   1.237   3.327   2.892  0.2175 -0.1734  0.7904
  114SAPE   HN111869   1.143   3.296   2.926  0.4734 -2.6005 -0.4151
  114SAPE   HN211870   1.220   3.402   2.822  0.7690 -0.3917  0.4158
  114SAPE   HN311871   1.285   3.241   2.856  0.8570  0.2040  0.7319
  114SAPE   C1211872   1.302   3.382   3.016  0.3952  0.2869 -0.4996
  114SAPE  H12A11873   1.407   3.347   3.011 -0.0644 -1.2814  0.1988
  114SAPE  H12B11874   1.265   3.338   3.111 -0.2416  1.5718 -0.1288
  114SAPE   C1111875   1.288   3.532   3.014 -0.4514 -0.4699 -0.2110
  114SAPE  H11A11876   1.348   3.573   2.930  1.1298 -1.8153  0.2056
  114SAPE  H11B11877   1.343   3.564   3.105 -0.1213 -1.1702 -0.1593
  114SAPE     P11878   1.094   3.709   2.953  0.2729  0.3354 -0.0840
  114SAPE   O1311879   1.098   3.689   2.809 -0.1330 -0.3729  0.3880
  114SAPE   O1411880   0.962   3.739   3.011 -0.1959  0.1763 -0.5582
  114SAPE   O1211881   1.148   3.572   3.021 -0.2287  0.3642  1.1829
  114SAPE   O1111882   1.204   3.820   2.982  0.0329 -0.1145 -0.5555
  114SAPE    C111883   1.201   3.910   3.092 -0.1537  0.2108  0.1917
  114SAPE    HA11884   1.233   4.004   3.043 -0.3490 -0.8774 -2.1670
  114SAPE    HB11885   1.098   3.930   3.130 -1.5021 -1.7120 -2.1169
  114SAPE    C211886   1.280   3.871   3.219  0.2937 -0.4632  0.7138
  114SAPE    HS11887   1.291   3.964   3.277 -0.4650 -0.6725  1.2097
  114SAPE   O2111888   1.406   3.818   3.178  0.5559 -0.0989  0.1725
  114SAPE   C2111889   1.502   3.904   3.160 -0.0266 -0.8095  0.3310
  114SAPE   O2211890   1.500   4.024   3.188 -0.0394 -0.3596  0.2970
  114SAPE   C2211891   1.617   3.834   3.096 -0.1715  0.4854  0.7342
  114SAPE   H2R11892   1.569   3.799   3.002  0.6996 -0.0745  0.4874
  114SAPE   H2S11893   1.705   3.900   3.078 -0.3657  0.6288  0.2835
  114SAPE    C311894   1.199   3.762   3.306  0.2442  0.3687  0.1629
  114SAPE    HX11895   1.199   3.666   3.251  1.0720 -0.3216  1.3115
  114SAPE    HY11896   1.099   3.809   3.310 -0.3170 -0.8118  0.1296
  114SAPE   O3111897   1.237   3.757   3.445 -0.7854  0.2990 -0.0055
  114SAPE   C3111898   1.310   3.648   3.470 -0.2530 -0.5494  0.6564
  114SAPE   O3211899   1.344   3.564   3.390 -0.8210  0.3984  0.3910
  114SAPE   C3211900   1.346   3.639   3.613 -0.3263  0.5016  0.5068
  114SAPE   H2X11901   1.352   3.743   3.653  1.7401  0.7079 -0.2241
  114SAPE   H2Y11902   1.446   3.592   3.614 -0.1584  0.8464  0.1257
  114SAPE   C2311903   1.659   3.702   3.166  0.1603  0.7133 -0.2081
  114SAPE   H3R11904   1.727   3.654   3.092  0.0498  2.8052 -1.7639
  114SAPE   H3S11905   1.570   3.638   3.187  1.2648 -0.8552 -0.1307
  114SAPE   C2411906   1.749   3.739   3.288  0.2547 -0.2338 -0.1361
  114SAPE   H4R11907   1.683   3.764   3.374 -1.0193 -1.1286 -0.8342
  114SAPE   H4S11908   1.803   3.836   3.283  0.3269 -0.2167  0.7494
  114SAPE   C2511909   1.831   3.613   3.318  0.2129  0.5500 -0.0949
  114SAPE   H5R11910   1.887   3.577   3.231  4.1858  0.2728  2.2823
  114SAPE   C2611911   1.825   3.546   3.434  0.0538 -0.0731  0.8114
  114SAPE   H6R11912   1.878   3.449   3.443  2.6298  1.3259  1.7768
  114SAPE   C2711913   1.751   3.585   3.564  0.4912 -0.5600  0.6849
  114SAPE   H7R11914   1.659   3.522   3.564  0.9039 -1.1799  1.6702
  114SAPE   H7S11915   1.744   3.695   3.567 -0.5909 -0.5626 -0.6788
  114SAPE   C2811916   1.833   3.538   3.685 -0.2459  0.5276 -0.4202
  114SAPE   H8R11917   1.930   3.489   3.665 -0.1363  0.3691  0.4818
  114SAPE   C2911918   1.802   3.538   3.816  0.0648  0.2498 -0.3324
  114SAPE   H9R11919   1.875   3.497   3.887  0.9629 -0.5321 -1.6839
  114SAPE  C21011920   1.668   3.572   3.876 -0.4235 -0.3351 -0.0314
  114SAPE  H10R11921   1.628   3.488   3.937 -3.4273  0.7908 -0.2883
  114SAPE  H10S11922   1.593   3.593   3.797  0.6369 -0.9443 -1.2326
  114SAPE  C21111923   1.663   3.696   3.960 -0.0884 -0.2814  0.3629
  114SAPE  H11R11924   1.695   3.779   3.894 -0.1542 -1.6989 -1.5419
  114SAPE  C21211925   1.600   3.717   4.078 -0.7324  0.1746 -0.0528
  114SAPE  H12R11926   1.612   3.818   4.120  1.9947 -0.1726  0.1812
  114SAPE  C21311927   1.553   3.609   4.174 -0.0392  0.2086 -0.0244
  114SAPE  H13R11928   1.554   3.511   4.121  2.2707  0.2370 -0.1353
  114SAPE  H13S11929   1.447   3.625   4.204  0.1782 -0.7580  1.3235
  114SAPE  C21411930   1.647   3.593   4.297 -0.0060  0.2860  0.2789
  114SAPE  H14R11931   1.744   3.556   4.261 -0.1958 -1.2624  1.2731
  114SAPE  C21511932   1.631   3.617   4.430 -0.2966  0.0673 -0.4837
  114SAPE  H15R11933   1.714   3.620   4.502 -1.1452  1.0258  0.4989
  114SAPE  C21611934   1.507   3.663   4.501  0.3169  0.3852 -0.3586
  114SAPE  H16R11935   1.475   3.569   4.551  1.3379  0.3892  0.3374
  114SAPE  H16S11936   1.433   3.706   4.431 -1.7855 -0.2922  1.3498
  114SAPE  C21711937   1.515   3.755   4.625  0.2728 -0.3125 -0.1807
  114SAPE  H17R11938   1.564   3.707   4.712  0.6428  2.3273  1.1563
  114SAPE  H17S11939   1.410   3.775   4.657  1.0764 -0.2416  2.6549
  114SAPE  C21811940   1.597   3.879   4.589  0.3524 -0.5096  0.0988
  114SAPE  H18R11941   1.575   3.917   4.487  1.5955 -0.0028  0.0127
  114SAPE  H18S11942   1.693   3.824   4.595  0.2850 -0.5010  1.7488
  114SAPE  C21911943   1.578   3.997   4.684 -0.6793  0.6971  0.0231
  114SAPE  H19R11944   1.649   4.082   4.668  0.2646  0.1390  1.0945
  114SAPE  H19S11945   1.593   3.962   4.788 -2.8603 -1.3312 -0.2570
  114SAPE  C22011946   1.436   4.048   4.674  0.0070  0.5147  0.2219
  114SAPE  H20R11947   1.422   4.072   4.566 -2.6223  0.8210  0.5686
  114SAPE  H20S11948   1.428   4.136   4.741  1.0578 -0.2248  1.3619
  114SAPE  H20T11949   1.365   3.967   4.699  1.7876 -1.4287 -0.7026
  114SAPE   C3311950   1.244   3.552   3.690  0.6048  0.2500 -0.7033
  114SAPE   H3X11951   1.291   3.533   3.790 -0.3622  1.9328  0.0993
  114SAPE   H3Y11952   1.235   3.454   3.638  0.9325 -0.0635 -0.1881
  114SAPE   C3411953   1.104   3.606   3.698  0.3767  0.6919 -0.4416
  114SAPE   H4X11954   1.030   3.542   3.750  0.5360 -0.4993 -1.6267
  114SAPE   H4Y11955   1.071   3.624   3.594  0.3259  0.3199 -0.4928
  114SAPE   C3511956   1.108   3.735   3.786  0.5421 -0.3199  0.2944
  114SAPE   H5X11957   1.010   3.788   3.786 -0.4638 -2.1176  0.1735
  114SAPE   H5Y11958   1.178   3.806   3.738  1.0402 -0.8957  0.1714
  114SAPE   C3611959   1.151   3.720   3.932 -0.0472  0.6640  1.0462
  114SAPE   H6X11960   1.262   3.724   3.928 -0.0271  2.6111  2.2658
  114SAPE   H6Y11961   1.105   3.622   3.959  0.7196 -0.5021 -1.5346
  114SAPE   C3711962   1.094   3.830   4.024  0.2337 -0.0286 -0.3381
  114SAPE   H7X11963   1.081   3.929   3.976 -3.5852  1.3201  2.9017
  114SAPE   H7Y11964   1.159   3.840   4.114  1.0495 -0.8810 -0.8108
  114SAPE   C3811965   0.950   3.803   4.064 -0.5767 -0.6680 -0.4277
  114SAPE   H8X11966   0.958   3.715   4.132  1.2282 -0.7437 -0.6960
  114SAPE   H8Y11967   0.885   3.775   3.978 -0.9779 -0.4307 -0.2077
  114SAPE   C3911968   0.896   3.920   4.150 -0.4129  1.0564  0.1234
  114SAPE   H9X11969   0.859   4.007   4.092 -1.3295  0.9838  0.5730
  114SAPE   H9Y11970   0.957   3.955   4.235 -0.4539  0.4696  0.3995
  114SAPE  C31011971   0.780   3.858   4.230  0.1945 -0.8803 -0.6156
  114SAPE  H10X11972   0.819   3.784   4.303  2.0255  0.6889  0.0750
  114SAPE  H10Y11973   0.709   3.807   4.162  1.6610  1.3778 -4.1516
  114SAPE  C31111974   0.701   3.969   4.309  0.0132 -0.1110 -0.7842
  114SAPE  H11X11975   0.635   4.030   4.243 -0.2507 -1.1451 -1.5032
  114SAPE  H11Y11976   0.781   4.041   4.336  1.1735 -0.1218 -3.8174
  114SAPE  C31211977   0.614   3.918   4.424 -0.8483 -0.6200  0.0934
  114SAPE  H12X11978   0.673   3.850   4.490  0.7120  1.6205  1.1517
  114SAPE  H12Y11979   0.532   3.854   4.385  1.4327 -2.8290 -1.4141
  114SAPE  C31311980   0.561   4.023   4.523  0.2727  0.8165  0.1313
  114SAPE  H13X11981   0.501   4.102   4.472  0.5730  0.5667 -0.6289
  114SAPE  H13Y11982   0.642   4.081   4.572  0.8589  0.2680 -0.1862
  114SAPE  C31411983   0.460   3.967   4.629 -0.2084 -0.0795  0.3783
  114SAPE  H14X11984   0.512   3.897   4.697  2.7891  0.7601 -0.9035
  114SAPE  H14Y11985   0.387   3.907   4.570  1.9442 -2.7117  0.1968
  114SAPE  C31511986   0.389   4.073   4.721 -0.2163 -0.7615  0.1537
  114SAPE  H15X11987   0.325   4.137   4.656 -1.4881  0.1604  2.2254
  114SAPE  H15Y11988   0.467   4.134   4.771  0.1426 -1.0242 -0.0822
  114SAPE  C31611989   0.286   4.013   4.817  0.1013 -0.2561 -0.6113
  114SAPE  H16X11990   0.342   3.933   4.870 -2.0518 -1.3197  0.2077
  114SAPE  H16Y11991   0.198   3.970   4.766  0.6919 -1.4107 -0.6884
  114SAPE  C31711992   0.226   4.109   4.914  0.3322  0.2044 -0.7671
  114SAPE  H17X11993   0.161   4.041   4.974  0.1964  0.8573 -0.1541
  114SAPE  H17Y11994   0.163   4.179   4.856 -0.8783 -1.7249 -1.9186
  114SAPE  C31811995   0.312   4.180   5.022 -0.1027 -0.4068 -0.1406
  114SAPE  H18X11996   0.380   4.252   4.970 -0.3675 -0.5646 -0.7117
  114SAPE  H18Y11997   0.367   4.118   5.095 -1.1932 -3.1546 -1.5341
  114SAPE  H18Z11998   0.239   4.243   5.077  1.2092 -0.1643  1.3811
  115SAPE     N11999   3.864   5.007   3.030  0.4140 -0.4459 -0.3239
  115SAPE   HN112000   3.960   5.022   2.993  0.3068 -0.3339 -0.5622
  115SAPE   HN212001   3.878   5.028   3.131  2.1845  2.1433 -1.0142
  115SAPE   HN312002   3.845   4.907   3.007 -1.1136 -0.4857  0.9221
  115SAPE   C1212003   3.761   5.096   2.964 -1.2806  0.0195  0.3000
  115SAPE  H12A12004   3.672   5.095   3.030 -1.6720 -3.2638 -0.0928
  115SAPE  H12B12005   3.732   5.046   2.869  1.6827  0.9342 -1.1993
  115SAPE   C1112006   3.800   5.241   2.941  0.6047 -0.1582  0.2524
  115SAPE  H11A12007   3.856   5.287   3.025  1.4585  0.1205 -0.4547
  115SAPE  H11B12008   3.712   5.304   2.916  0.6541  0.1284  0.7972
  115SAPE     P12009   4.036   5.251   2.813 -0.1981  0.2940  0.4331
  115SAPE   O1312010   4.074   5.179   2.692  0.0837  0.1151  0.0880
  115SAPE   O1412011   4.087   5.387   2.821 -0.2706  0.0513  0.3498
  115SAPE   O1212012   3.884   5.247   2.828 -0.2429  0.2875  0.4602
  115SAPE   O1112013   4.087   5.175   2.939 -0.0102  0.0850 -0.3765
  115SAPE    C112014   4.210   5.208   3.004  0.5440  0.4056 -0.2028
  115SAPE    HA12015   4.229   5.317   3.004 -1.3943  0.8290  2.3936
  115SAPE    HB12016   4.188   5.196   3.112 -2.2314  0.2220 -0.7042
  115SAPE    C212017   4.338   5.118   2.969  0.3963 -0.4653  0.4247
  115SAPE    HS12018   4.351   5.131   2.860  2.1303 -0.7011  0.5623
  115SAPE   O2112019   4.315   4.981   2.995  0.4796 -0.2345 -0.0101
  115SAPE   C2112020   4.408   4.903   2.938  0.3038  0.3142  0.2519
  115SAPE   O2212021   4.497   4.944   2.863  0.2235  0.0945  0.2065
  115SAPE   C2212022   4.393   4.755   2.982 -0.2939  0.2536  0.6274
  115SAPE   H2R12023   4.301   4.746   3.045  0.1903 -0.4721  1.2493
  115SAPE   H2S12024   4.380   4.693   2.892  1.3325  1.9251 -0.8426
  115SAPE    C312025   4.464   5.169   3.034 -0.6074  0.3493 -0.2741
  115SAPE    HX12026   4.470   5.277   3.011  0.0211  0.7891  1.7168
  115SAPE    HY12027   4.554   5.115   2.998 -0.2662 -0.3973  1.5717
  115SAPE   O3112028   4.454   5.164   3.179 -0.8220 -0.8757 -0.1324
  115SAPE   C3112029   4.555   5.232   3.243 -0.8571  0.7527  0.8353
  115SAPE   O3212030   4.655   5.275   3.178  0.5099 -0.1990 -0.8245
  115SAPE   C3212031   4.535   5.220   3.392  0.2634 -0.4400 -0.5262
  115SAPE   H2X12032   4.497   5.117   3.409  0.9650 -0.2966  2.3362
  115SAPE   H2Y12033   4.455   5.289   3.425 -0.4018 -1.7797  0.8246
  115SAPE   C2312034   4.518   4.709   3.064  0.4209  0.4378 -0.0808
  115SAPE   H3R12035   4.602   4.688   2.995 -0.1256  2.2693 -1.3792
  115SAPE   H3S12036   4.495   4.609   3.107  1.9908 -0.4446 -1.1524
  115SAPE   C2412037   4.574   4.808   3.169 -0.3763  0.0140  0.1590
  115SAPE   H4R12038   4.479   4.837   3.220  0.3150 -0.8009  1.9903
  115SAPE   H4S12039   4.614   4.898   3.118  0.1305 -0.3320 -0.0702
  115SAPE   C2512040   4.678   4.743   3.259  1.0384  0.7100 -0.4581
  115SAPE   H5R12041   4.779   4.733   3.216  2.4751 -1.5694  3.0248
  115SAPE   C2612042   4.660   4.699   3.385  0.6706  0.4435  0.3304
  115SAPE   H6R12043   4.745   4.654   3.438  1.7717 -0.5527 -2.1314
  115SAPE   C2712044   4.525   4.711   3.453  0.4508 -0.4454 -0.3500
  115SAPE   H7R12045   4.439   4.721   3.383  1.3178 -0.1470 -1.3943
  115SAPE   H7S12046   4.523   4.812   3.500 -0.6277  0.9910 -3.2002
  115SAPE   C2812047   4.492   4.600   3.547 -0.0067 -1.1171  0.8001
  115SAPE   H8R12048   4.490   4.505   3.492  2.6562 -0.7842 -0.0035
  115SAPE   C2912049   4.459   4.612   3.681 -0.2676  0.5648 -0.1614
  115SAPE   H9R12050   4.439   4.525   3.744  1.4812  1.2669  1.4652
  115SAPE  C21012051   4.455   4.734   3.763  0.3232 -0.3676 -0.1830
  115SAPE  H10R12052   4.369   4.792   3.725  0.0862 -0.5162  0.1273
  115SAPE  H10S12053   4.547   4.794   3.748 -0.0230 -0.1255 -1.4468
  115SAPE  C21112054   4.420   4.722   3.909 -0.0137 -0.2905 -0.2894
  115SAPE  H11R12055   4.342   4.789   3.948  0.2161  0.7046 -1.4740
  115SAPE  C21212056   4.480   4.638   3.998 -0.3346  0.2037 -0.1173
  115SAPE  H12R12057   4.450   4.647   4.103  1.3877  0.5270  0.3851
  115SAPE  C21312058   4.582   4.529   3.980  0.2273 -0.4409 -0.3411
  115SAPE  H13R12059   4.593   4.493   3.875  0.3199 -1.4176 -0.0022
  115SAPE  H13S12060   4.547   4.444   4.042  0.6333 -1.0050 -0.8713
  115SAPE  C21412061   4.723   4.565   4.023 -1.0287  0.3880  0.0968
  115SAPE  H14R12062   4.772   4.629   3.948 -2.4902 -1.6453 -2.8385
  115SAPE  C21512063   4.794   4.524   4.127 -0.2792 -0.5066  0.3060
  115SAPE  H15R12064   4.902   4.546   4.123 -0.0748 -1.5590 -3.5900
  115SAPE  C21612065   4.751   4.438   4.239 -0.4457 -0.1961 -0.2014
  115SAPE  H16R12066   4.794   4.339   4.215  0.3222  0.1102 -0.1189
  115SAPE  H16S12067   4.641   4.426   4.232 -0.4133 -2.3912  1.9242
  115SAPE  C21712068   4.804   4.488   4.374  0.8174  0.6454 -0.9397
  115SAPE  H17R12069   4.739   4.575   4.401  0.2497 -0.2938  0.8734
  115SAPE  H17S12070   4.908   4.518   4.348  0.5165  0.6218 -2.2200
  115SAPE  C21812071   4.808   4.379   4.483 -0.2022 -0.5901 -0.2836
  115SAPE  H18R12072   4.908   4.331   4.475  0.6591  1.3976 -3.2875
  115SAPE  H18S12073   4.718   4.317   4.462 -1.0811  1.2708 -2.4340
  115SAPE  C21912074   4.806   4.435   4.628  0.2307  0.7951 -0.1530
  115SAPE  H19R12075   4.706   4.482   4.637  0.1537  1.2834 -2.6057
  115SAPE  H19S12076   4.874   4.522   4.636 -0.6199  1.4730 -0.1118
  115SAPE  C22012077   4.837   4.352   4.745  0.6662 -0.3395  0.4178
  115SAPE  H20R12078   4.930   4.296   4.720  0.0823 -1.2910  0.3158
  115SAPE  H20S12079   4.758   4.278   4.768 -0.5032  1.2937  1.8312
  115SAPE  H20T12080   4.852   4.414   4.836 -0.6655  0.8581 -0.1277
  115SAPE   C3312081   4.664   5.248   3.474  0.7107  0.3943 -0.2543
  115SAPE   H3X12082   4.636   5.292   3.572 -0.1831  0.2242 -0.4203
  115SAPE   H3Y12083   4.727   5.324   3.423  1.4652  0.5631  0.9069
  115SAPE   C3412084   4.751   5.123   3.506  0.0713  0.1307  0.0583
  115SAPE   H4X12085   4.853   5.164   3.528  0.1087  0.4517 -0.6896
  115SAPE   H4Y12086   4.754   5.063   3.412 -0.0021 -0.5876  0.5053
  115SAPE   C3512087   4.699   5.038   3.623  0.8496 -0.0592 -1.0351
  115SAPE   H5X12088   4.718   4.930   3.603 -1.7070 -0.6290 -0.6823
  115SAPE   H5Y12089   4.589   5.038   3.637  1.0446 -3.4225  1.7341
  115SAPE   C3612090   4.757   5.072   3.758  0.1865  0.3358 -0.8800
  115SAPE   H6X12091   4.760   5.182   3.764 -1.7228  0.3317  1.5775
  115SAPE   H6Y12092   4.861   5.031   3.756  0.0791 -0.0204  0.0763
  115SAPE   C3712093   4.675   5.013   3.872  0.4319  0.0632  0.0749
  115SAPE   H7X12094   4.704   4.908   3.893 -0.5338  0.0921  1.7259
  115SAPE   H7Y12095   4.566   5.018   3.851  0.5114 -0.6777 -0.5618
  115SAPE   C3812096   4.715   5.095   3.997  0.0862 -0.4195 -0.2645
  115SAPE   H8X12097   4.677   5.198   4.008 -0.7383 -0.9100  2.0058
  115SAPE   H8Y12098   4.826   5.097   4.005 -0.0473  0.7733  1.8776
  115SAPE   C3912099   4.678   5.021   4.119 -0.0533 -0.0993 -0.7539
  115SAPE   H9X12100   4.711   4.916   4.109 -0.4217 -0.4905  1.4973
  115SAPE   H9Y12101   4.567   5.010   4.123  0.1030 -1.6656  0.0670
  115SAPE  C31012102   4.730   5.086   4.252 -0.4287 -0.0043  0.0895
  115SAPE  H10X12103   4.702   5.192   4.262 -2.8579 -0.7045  1.4811
  115SAPE  H10Y12104   4.841   5.073   4.251 -0.2351  0.3291  3.6617
  115SAPE  C31112105   4.678   5.025   4.381  0.2478  0.3116 -0.7936
  115SAPE  H11X12106   4.674   4.917   4.356  1.0517 -0.3688  1.6906
  115SAPE  H11Y12107   4.579   5.061   4.417  0.1082  0.7470 -1.5853
  115SAPE  C31212108   4.779   5.062   4.487 -0.4694 -0.0004 -0.0016
  115SAPE  H12X12109   4.810   5.168   4.473 -0.3480  0.3178  2.2600
  115SAPE  H12Y12110   4.868   4.998   4.471 -0.4646  0.3293 -1.4027
  115SAPE  C31312111   4.733   5.030   4.634  0.4156 -0.3461 -0.2111
  115SAPE  H13X12112   4.816   5.035   4.708  1.4000  1.7162 -1.3828
  115SAPE  H13Y12113   4.699   4.924   4.635  0.0292 -0.2177  0.8187
  115SAPE  C31412114   4.614   5.113   4.681 -0.0691 -1.5818 -0.1831
  115SAPE  H14X12115   4.584   5.088   4.785  0.6837 -1.5809  0.0385
  115SAPE  H14Y12116   4.525   5.098   4.616  0.3370  1.2715 -1.5710
  115SAPE  C31512117   4.645   5.271   4.672 -1.1877 -0.5907  0.1003
  115SAPE  H15X12118   4.660   5.295   4.565 -2.7077 -2.1071 -0.5010
  115SAPE  H15Y12119   4.739   5.270   4.732 -0.8217 -1.7164 -0.4558
  115SAPE  C31612120   4.544   5.356   4.746  0.1766 -0.2025  0.3773
  115SAPE  H16X12121   4.547   5.314   4.849 -1.6648  0.0997  0.5853
  115SAPE  H16Y12122   4.450   5.334   4.691  0.2794 -0.7832  0.4279
  115SAPE  C31712123   4.583   5.504   4.759  0.1491 -0.5564 -0.4434
  115SAPE  H17X12124   4.519   5.560   4.830 -0.5951 -2.0961  0.1349
  115SAPE  H17Y12125   4.575   5.552   4.659 -0.4515  0.3500  0.0308
  115SAPE  C31812126   4.727   5.527   4.789 -0.2250  0.3769 -0.0575
  115SAPE  H18X12127   4.739   5.636   4.808 -1.5275  0.0835  3.0996
  115SAPE  H18Y12128   4.794   5.509   4.703 -0.9212  2.4161 -1.0759
  115SAPE  H18Z12129   4.756   5.461   4.875  0.5570 -0.2704 -0.7948
  116SAPE     N12130   4.218   5.617   2.808  0.3871 -0.5402 -0.3274
  116SAPE   HN112131   4.168   5.526   2.799  2.0140 -1.4436 -0.7293
  116SAPE   HN212132   4.259   5.600   2.902 -0.9244 -3.1503 -0.1262
  116SAPE   HN312133   4.152   5.697   2.815 -0.1667 -1.0027 -0.1556
  116SAPE   C1212134   4.320   5.632   2.709  0.4915 -0.1450 -1.1137
  116SAPE  H12A12135   4.278   5.711   2.643 -1.1616  1.9286  2.1424
  116SAPE  H12B12136   4.338   5.537   2.655 -0.2506 -1.1849  0.4068
  116SAPE   C1112137   4.448   5.686   2.772  0.0856 -0.3097 -0.7399
  116SAPE  H11A12138   4.522   5.689   2.689 -0.6231 -2.9736 -1.5710
  116SAPE  H11B12139   4.493   5.614   2.844 -1.0236  0.4468  0.7634
  116SAPE     P12140   4.575   5.865   2.906 -0.0302 -0.7742  0.0289
  116SAPE   O1312141   4.685   5.766   2.897  0.5203 -0.0286 -0.5444
  116SAPE   O1412142   4.603   5.992   2.837  0.6040  0.4228  0.2912
  116SAPE   O1212143   4.443   5.811   2.838  0.7840  0.1687 -0.9130
  116SAPE   O1112144   4.517   5.896   3.043  0.5443 -0.2599 -0.0182
  116SAPE    C112145   4.607   5.906   3.159  0.5345  0.7630  0.5855
  116SAPE    HA12146   4.620   5.807   3.208 -0.5966  1.6442  2.8050
  116SAPE    HB12147   4.710   5.933   3.128  0.7679 -1.2289 -0.5124
  116SAPE    C212148   4.576   6.012   3.260 -0.3432  0.1333  0.4534
  116SAPE    HS12149   4.663   6.026   3.328 -1.3746 -2.0742  2.3732
  116SAPE   O2112150   4.452   5.982   3.329 -0.0281  0.6020  0.0140
  116SAPE   C2112151   4.466   5.937   3.452 -0.4212  0.4056  0.1038
  116SAPE   O2212152   4.574   5.944   3.517 -0.5935 -0.6188 -0.2068
  116SAPE   C2212153   4.333   5.882   3.500 -0.3245  0.0997  0.7977
  116SAPE   H2R12154   4.255   5.955   3.470 -0.9611 -1.0395 -0.3696
  116SAPE   H2S12155   4.306   5.791   3.443 -1.8498 -0.8753  2.9222
  116SAPE    C312156   4.546   6.152   3.192  0.3791  0.0495 -0.5880
  116SAPE    HX12157   4.442   6.159   3.154 -0.4599 -0.7339  1.4235
  116SAPE    HY12158   4.624   6.158   3.112  1.6418  1.2620  0.6610
  116SAPE   O3112159   4.582   6.259   3.287  0.0553 -0.0639 -0.6092
  116SAPE   C3112160   4.486   6.303   3.365 -0.1636  0.7337 -0.3936
  116SAPE   O3212161   4.366   6.268   3.352  0.5973 -0.7858 -0.2829
  116SAPE   C3212162   4.541   6.393   3.472 -0.7348  0.0202  0.5482
  116SAPE   H2X12163   4.537   6.498   3.436  0.2258  0.3302  1.2903
  116SAPE   H2Y12164   4.646   6.363   3.496 -0.8191  0.5814  1.6578
  116SAPE   C2312165   4.323   5.843   3.649 -0.9182 -0.5478  0.4677
  116SAPE   H3R12166   4.371   5.923   3.710 -3.0407 -0.8144  2.6495
  116SAPE   H3S12167   4.382   5.749   3.657 -0.0138 -0.6094 -4.2233
  116SAPE   C2412168   4.177   5.836   3.704 -0.0579  0.7132  0.3525
  116SAPE   H4R12169   4.127   5.761   3.640 -1.7256  2.6077 -0.6888
  116SAPE   H4S12170   4.133   5.934   3.675 -1.5401  0.3760  1.3639
  116SAPE   C2512171   4.167   5.793   3.842  0.7675 -0.1419 -0.3538
  116SAPE   H5R12172   4.147   5.685   3.851 -0.3533 -0.0573 -1.4522
  116SAPE   C2612173   4.163   5.872   3.954  0.0903 -0.2636  0.1637
  116SAPE   H6R12174   4.157   5.826   4.054  0.3347  0.3316  0.4572
  116SAPE   C2712175   4.156   6.025   3.959 -0.2605  0.0464  0.8052
  116SAPE   H7R12176   4.233   6.070   3.893 -0.9227  1.6262  1.0717
  116SAPE   H7S12177   4.198   6.056   4.057  0.2961 -0.1178  0.6248
  116SAPE   C2812178   4.024   6.098   3.927  0.5158 -0.2615 -0.1564
  116SAPE   H8R12179   4.017   6.123   3.820 -2.0310 -0.3522 -0.0643
  116SAPE   C2912180   3.922   6.116   4.011 -0.2704 -0.3707 -0.0566
  116SAPE   H9R12181   3.834   6.170   3.973 -0.5301 -1.2274 -0.7112
  116SAPE  C21012182   3.919   6.059   4.146 -0.1121  0.3057  0.1413
  116SAPE  H10R12183   4.003   6.101   4.204 -0.2993  1.6625 -0.5449
  116SAPE  H10S12184   3.950   5.953   4.137  0.5195  0.4095  1.0251
  116SAPE  C21112185   3.789   6.058   4.216  0.4858 -0.4540 -0.0307
  116SAPE  H11R12186   3.731   6.147   4.189  3.4338  2.4285  2.2918
  116SAPE  C21212187   3.746   5.975   4.315  0.0965 -0.3586  0.1154
  116SAPE  H12R12188   3.652   6.004   4.364  0.2099  2.7523 -1.2937
  116SAPE  C21312189   3.816   5.850   4.366 -0.4232  0.8128 -0.3658
  116SAPE  H13R12190   3.823   5.860   4.476 -0.7934 -0.7529 -0.1782
  116SAPE  H13S12191   3.921   5.831   4.334 -0.7234  1.3726 -1.7440
  116SAPE  C21412192   3.732   5.731   4.334  0.2945 -0.6931 -0.6163
  116SAPE  H14R12193   3.741   5.687   4.233  0.3478  1.3275 -1.5480
  116SAPE  C21512194   3.629   5.688   4.408  0.3168 -0.6442 -0.4487
  116SAPE  H15R12195   3.575   5.602   4.366  2.1967 -3.0837  1.7522
  116SAPE  C21612196   3.594   5.725   4.555  0.4707  0.2235 -0.1074
  116SAPE  H16R12197   3.484   5.735   4.568  0.6854  1.2058  1.1465
  116SAPE  H16S12198   3.629   5.829   4.571 -2.0157  1.2572 -0.8442
  116SAPE  C21712199   3.649   5.634   4.663 -0.3261 -0.0119  0.2133
  116SAPE  H17R12200   3.601   5.534   4.652 -2.2275  0.6423  1.8664
  116SAPE  H17S12201   3.623   5.683   4.760  0.2836  0.2253  0.2613
  116SAPE  C21812202   3.803   5.637   4.657  0.3057 -0.4245  0.5571
  116SAPE  H18R12203   3.842   5.740   4.668 -0.6923  0.2351 -1.6215
  116SAPE  H18S12204   3.840   5.592   4.562  1.0731 -3.4655  2.1429
  116SAPE  C21912205   3.856   5.559   4.777  0.0211 -0.7734  0.5748
  116SAPE  H19R12206   3.836   5.452   4.755  2.0241 -0.9335 -0.7412
  116SAPE  H19S12207   3.802   5.590   4.869 -1.6876  0.2429 -0.7128
  116SAPE  C22012208   4.006   5.574   4.798 -0.5819  0.4157  0.1626
  116SAPE  H20R12209   4.048   5.672   4.828  1.7334 -0.7069  0.8931
  116SAPE  H20S12210   4.057   5.548   4.703  0.8349  0.3018  0.9299
  116SAPE  H20T12211   4.047   5.496   4.867  0.5320  0.5286 -0.3582
  116SAPE   C3312212   4.458   6.406   3.604 -0.1799 -0.1151 -0.0946
  116SAPE   H3X12213   4.352   6.439   3.589  0.2419  1.8045  0.7228
  116SAPE   H3Y12214   4.509   6.487   3.662  1.4005 -0.0328 -1.5404
  116SAPE   C3412215   4.443   6.283   3.693  0.0864  0.7793  0.1770
  116SAPE   H4X12216   4.423   6.203   3.618 -0.5042  0.9599  0.1424
  116SAPE   H4Y12217   4.348   6.284   3.750 -0.2299  0.5235 -0.3426
  116SAPE   C3512218   4.559   6.227   3.767 -0.2877 -0.2169 -0.4466
  116SAPE   H5X12219   4.656   6.227   3.712  0.7388  0.6480  1.2748
  116SAPE   H5Y12220   4.537   6.120   3.783  1.0154 -0.4276  0.1076
  116SAPE   C3612221   4.586   6.291   3.907 -0.2193 -0.7324  0.4619
  116SAPE   H6X12222   4.490   6.294   3.963 -3.4194  1.5101 -4.4803
  116SAPE   H6Y12223   4.594   6.400   3.890 -1.4247 -0.6897  0.0395
  116SAPE   C3712224   4.700   6.228   3.983 -0.1467 -0.5471  0.1725
  116SAPE   H7X12225   4.795   6.235   3.925  1.3218  0.3889  2.5306
  116SAPE   H7Y12226   4.691   6.118   3.993 -0.6740 -0.7635 -2.0710
  116SAPE   C3812227   4.732   6.292   4.120  0.6092 -0.0929 -0.2609
  116SAPE   H8X12228   4.817   6.257   4.182 -0.4698 -1.8235  0.2922
  116SAPE   H8Y12229   4.641   6.283   4.182 -0.1188  1.2588 -1.0807
  116SAPE   C3912230   4.747   6.446   4.121 -0.9975 -0.8004 -0.3050
  116SAPE   H9X12231   4.646   6.491   4.113 -0.9078 -0.7211 -1.1221
  116SAPE   H9Y12232   4.807   6.488   4.037  1.6093 -0.3216  1.6549
  116SAPE  C31012233   4.811   6.504   4.240 -0.3754  0.8616 -0.6686
  116SAPE  H10X12234   4.912   6.461   4.259 -0.1387  1.5435 -0.3589
  116SAPE  H10Y12235   4.744   6.469   4.321 -2.4326  1.0339 -2.2161
  116SAPE  C31112236   4.830   6.653   4.239 -0.0520  0.4281 -0.1585
  116SAPE  H11X12237   4.835   6.685   4.345 -1.2781  0.6107 -0.1465
  116SAPE  H11Y12238   4.750   6.708   4.185  1.1333  2.2930 -0.0989
  116SAPE  C31212239   4.965   6.691   4.179  0.2022 -0.2025 -0.2728
  116SAPE  H12X12240   4.975   6.642   4.080 -1.5054  2.8744 -2.1427
  116SAPE  H12Y12241   5.049   6.669   4.248  0.5023  1.3110 -0.1076
  116SAPE  C31312242   4.957   6.842   4.156  0.2327 -0.4529 -0.0438
  116SAPE  H13X12243   4.954   6.886   4.258 -2.6794 -0.7833  0.1201
  116SAPE  H13Y12244   4.870   6.872   4.092  0.6906  2.4659  0.5374
  116SAPE  C31412245   5.086   6.895   4.083  0.5532 -0.0376  0.6259
  116SAPE  H14X12246   5.058   6.988   4.029  0.5856 -1.1612 -1.3910
  116SAPE  H14Y12247   5.108   6.821   4.004  0.6381  0.3414  0.2953
  116SAPE  C31512248   5.202   6.916   4.178  0.4998  0.1828  0.1903
  116SAPE  H15X12249   5.235   6.824   4.231 -1.0609 -0.1570  0.6294
  116SAPE  H15Y12250   5.182   6.990   4.258  0.7334  0.5582 -0.0953
  116SAPE  C31612251   5.332   6.964   4.100 -0.1298  0.2305 -0.6206
  116SAPE  H16X12252   5.298   7.046   4.034 -0.2724 -0.5221 -1.4963
  116SAPE  H16Y12253   5.374   6.877   4.046 -1.7025 -0.6611 -0.4592
  116SAPE  C31712254   5.448   6.989   4.196 -0.1474  0.6391 -0.5448
  116SAPE  H17X12255   5.530   7.005   4.123  1.1313  1.0037  0.9366
  116SAPE  H17Y12256   5.473   6.900   4.258 -1.3065  0.6757  0.0100
  116SAPE  C31812257   5.436   7.102   4.292  0.4336  0.1705 -0.7478
  116SAPE  H18X12258   5.372   7.064   4.375 -0.8211 -0.1853 -1.8525
  116SAPE  H18Y12259   5.386   7.195   4.259 -0.5506 -0.2907 -0.5878
  116SAPE  H18Z12260   5.535   7.135   4.332 -1.0604  1.3007  2.3971
  117SOPE     N12261   1.278   0.871   7.058 -0.1579 -0.1862 -0.0906
  117SOPE   HN112262   1.349   0.802   7.090  0.6294  0.0096 -1.3478
  117SOPE   HN212263   1.233   0.928   7.133  0.2355  3.0294 -2.1025
  117SOPE   HN312264   1.204   0.807   7.022 -1.0014 -0.8082  2.5285
  117SOPE   C1212265   1.307   0.962   6.943  0.2607  0.1561 -0.2237
  117SOPE  H12A12266   1.364   0.902   6.870 -0.2439 -1.6638  0.8116
  117SOPE  H12B12267   1.370   1.049   6.973  2.7514 -1.4804 -0.4200
  117SOPE   C1112268   1.184   1.006   6.874 -0.7287 -0.0832  0.8180
  117SOPE  H11A12269   1.153   0.923   6.806 -0.5252  0.2075  0.3627
  117SOPE  H11B12270   1.210   1.091   6.807  0.2363  1.0471  2.5528
  117SOPE     P12271   0.930   1.042   6.931  0.0719 -0.2898  0.3193
  117SOPE   O1312272   0.863   1.170   6.964  0.2631  0.7166 -0.7537
  117SOPE   O1412273   0.871   0.923   6.997  0.2375  0.6151 -0.1776
  117SOPE   O1212274   1.082   1.049   6.968 -0.4834 -0.0160 -0.3635
  117SOPE   O1112275   0.931   1.035   6.775 -0.0880  0.3155 -0.1033
  117SOPE    C112276   0.830   1.092   6.688 -0.1391  0.0983 -0.6273
  117SOPE    HA12277   0.765   1.160   6.747  0.4645 -0.6847  1.0161
  117SOPE    HB12278   0.763   1.015   6.646  1.1616 -0.1265 -2.3845
  117SOPE    C212279   0.881   1.182   6.570  0.0150 -0.1517  0.4231
  117SOPE    HS12280   0.794   1.244   6.536 -0.3797 -0.5947  0.6222
  117SOPE   O2112281   0.932   1.089   6.472 -0.0424 -0.0035 -0.0271
  117SOPE   C2112282   0.837   1.035   6.389 -0.3090 -0.1552  0.6782
  117SOPE   O2212283   0.722   1.072   6.393  0.1255  0.0065  0.4476
  117SOPE   C2212284   0.902   0.946   6.286 -0.0829  0.5066  0.3603
  117SOPE   H2R12285   0.824   0.872   6.257  2.0624 -0.4717 -3.7113
  117SOPE   H2S12286   0.986   0.889   6.329 -1.6964 -1.9974  0.4174
  117SOPE    C312287   0.988   1.283   6.609 -0.3826 -0.0829 -0.4418
  117SOPE    HX12288   1.082   1.226   6.596  0.1187  0.8182 -0.8718
  117SOPE    HY12289   0.975   1.315   6.714  0.1251  2.3520 -1.0529
  117SOPE   O3112290   0.987   1.393   6.518 -0.8284  0.3113 -0.6933
  117SOPE   C3112291   1.074   1.481   6.545 -0.6252 -0.1741  0.8613
  117SOPE   O3212292   1.158   1.493   6.629  0.1110 -0.2831 -0.0950
  117SOPE   C3212293   1.075   1.586   6.431  0.6077 -0.7205 -0.3585
  117SOPE   H2X12294   1.160   1.656   6.444 -1.3186  1.3756  1.8583
  117SOPE   H2Y12295   0.989   1.657   6.441  1.3566  0.1749 -0.1521
  117SOPE   C2312296   0.933   1.023   6.161  0.1472  0.6987  0.1703
  117SOPE   H3R12297   1.007   1.105   6.158  1.0058 -0.0468 -3.3043
  117SOPE   H3S12298   0.833   1.055   6.124 -0.3171 -0.3362  0.4753
  117SOPE   C2412299   0.958   0.927   6.042  0.0820  0.8337 -0.0617
  117SOPE   H4R12300   1.059   0.882   6.044 -0.0771  0.4322 -0.5680
  117SOPE   H4S12301   0.894   0.837   6.056 -1.7751  1.7875 -1.8157
  117SOPE   C2512302   0.929   0.997   5.907  0.2308 -0.1065 -0.3298
  117SOPE   H5R12303   0.837   1.059   5.906  0.6868  0.6242  0.8188
  117SOPE   H5S12304   1.003   1.077   5.891  1.1061 -0.3466  2.0849
  117SOPE   C2612305   0.941   0.904   5.783 -0.6328 -0.5993  0.2808
  117SOPE   H6R12306   1.044   0.863   5.787 -0.1612  0.3350 -1.2798
  117SOPE   H6S12307   0.873   0.818   5.794 -0.4210 -0.7554  0.3838
  117SOPE   C2712308   0.923   0.976   5.650 -0.1290 -0.9377 -0.2566
  117SOPE   H7R12309   0.821   1.016   5.630  0.0221 -0.1845  0.4327
  117SOPE   H7S12310   0.988   1.065   5.639  0.7993 -1.3401  1.6240
  117SOPE   C2812311   0.949   0.875   5.532  0.2711  0.2960 -0.0708
  117SOPE   H8R12312   1.060   0.866   5.532  0.1868 -1.0423  1.1430
  117SOPE   H8S12313   0.896   0.780   5.553  1.9604 -0.5435  0.5339
  117SOPE   C2912314   0.907   0.920   5.388 -0.4823 -1.0130 -0.7335
  117SOPE   H9112315   0.799   0.907   5.369 -0.9197 -0.1799  0.9524
  117SOPE  C21012316   0.978   0.944   5.284 -0.4336  0.1324  0.7765
  117SOPE  H10112317   0.931   0.976   5.190  0.8985  2.5561  0.8642
  117SOPE  C21112318   1.128   0.929   5.285  0.0739  0.0667  0.5473
  117SOPE  H11R12319   1.156   0.822   5.282 -0.0949  0.0493 -1.7670
  117SOPE  H11S12320   1.172   0.961   5.383  0.5681 -0.6709  0.5702
  117SOPE  C21212321   1.209   1.022   5.188  0.4182  0.6507  0.0791
  117SOPE  H12R12322   1.309   1.026   5.237  0.9100 -1.6116 -0.6222
  117SOPE  H12S12323   1.169   1.126   5.184 -0.1637  0.3905 -1.6830
  117SOPE  C21312324   1.219   0.966   5.041 -0.1997  0.9223 -0.7661
  117SOPE  H13R12325   1.121   0.977   4.989 -0.8308  1.9674  0.5884
  117SOPE  H13S12326   1.229   0.855   5.051  2.1657  1.0269 -1.4087
  117SOPE  C21412327   1.330   1.020   4.971 -0.1720  0.3650  0.3033
  117SOPE  H14R12328   1.416   1.021   5.041  0.1436  0.3217 -0.0773
  117SOPE  H14S12329   1.293   1.118   4.933  0.5270  0.3089 -0.5658
  117SOPE  C21512330   1.365   0.950   4.833  0.3739  0.0396  0.3538
  117SOPE  H15R12331   1.276   0.924   4.772  1.7303 -1.6130 -1.0628
  117SOPE  H15S12332   1.424   0.862   4.868  0.2791  0.0956  0.6596
  117SOPE  C21612333   1.466   1.042   4.756  0.5714 -0.6085 -0.0796
  117SOPE  H16R12334   1.571   1.021   4.786  0.1797 -0.6578  1.3445
  117SOPE  H16S12335   1.432   1.147   4.770 -1.9284 -1.5784  2.0194
  117SOPE  C21712336   1.447   1.023   4.604  0.3624  0.0213 -0.0035
  117SOPE  H17R12337   1.482   1.107   4.540 -0.4630 -0.5025 -1.1834
  117SOPE  H17S12338   1.338   1.009   4.583  0.4550 -0.7525 -0.0148
  117SOPE  C21812339   1.510   0.895   4.553  0.0315 -0.3344 -0.4713
  117SOPE  H18R12340   1.474   0.808   4.611 -1.6506  0.3439 -0.4320
  117SOPE  H18S12341   1.620   0.904   4.569  0.1309 -1.1136 -0.6942
  117SOPE  H18T12342   1.487   0.879   4.445  0.8926  0.1851 -0.7461
  117SOPE   C3312343   1.084   1.533   6.291 -0.3818 -0.4587  0.4529
  117SOPE   H3X12344   1.079   1.621   6.223 -2.0424 -1.0122 -0.1747
  117SOPE   H3Y12345   0.996   1.471   6.265 -1.3483  0.8841  0.3983
  117SOPE   C3412346   1.221   1.465   6.261  0.2596  0.2700 -0.6176
  117SOPE   H4X12347   1.266   1.439   6.359 -1.4591  0.9383  0.3920
  117SOPE   H4Y12348   1.284   1.551   6.230  0.1652  0.6195  0.1346
  117SOPE   C3512349   1.219   1.359   6.149  0.6001  0.4222 -0.9179
  117SOPE   H5X12350   1.136   1.286   6.160  0.9834  0.2236  1.0105
  117SOPE   H5Y12351   1.315   1.303   6.143  0.0348 -1.1236  2.3074
  117SOPE   C3612352   1.210   1.436   6.016  0.2427  0.1392  0.1544
  117SOPE   H6X12353   1.296   1.506   6.015 -1.4651  2.4529 -3.0929
  117SOPE   H6Y12354   1.117   1.495   6.004  1.5551  1.8947 -2.0707
  117SOPE   C3712355   1.234   1.349   5.887 -0.0645  0.1524  0.1822
  117SOPE   H7X12356   1.146   1.282   5.897 -1.1609  1.4859 -0.2768
  117SOPE   H7Y12357   1.330   1.299   5.912 -0.6094 -1.1513 -0.2349
  117SOPE   C3812358   1.221   1.430   5.758  0.1571  0.1246  0.5026
  117SOPE   H8X12359   1.304   1.504   5.756 -0.6622  1.0952  1.3943
  117SOPE   H8Y12360   1.123   1.482   5.759 -0.2198 -0.4880 -1.6860
  117SOPE   C3912361   1.236   1.349   5.628 -0.1620 -0.6387  0.0447
  117SOPE   H9X12362   1.150   1.279   5.635 -1.0974  0.5547  1.0297
  117SOPE   H9Y12363   1.327   1.286   5.615  0.8299  0.9079 -0.8137
  117SOPE  C31012364   1.203   1.443   5.512  0.7569  0.4379  0.0805
  117SOPE  H10X12365   1.242   1.545   5.536 -0.9589  1.7591 -2.3114
  117SOPE  H10Y12366   1.092   1.450   5.510  0.6969 -0.5712 -1.8042
  117SOPE  C31112367   1.244   1.402   5.373 -0.1877  0.8547  0.1447
  117SOPE  H11X12368   1.191   1.314   5.331  2.0313  0.6591 -2.6368
  117SOPE  H11Y12369   1.353   1.378   5.372 -0.4950 -0.6521  0.2129
  117SOPE  C31212370   1.224   1.502   5.266  0.0165 -0.3875  0.2785
  117SOPE  H12X12371   1.272   1.602   5.278 -0.7658  0.2188 -1.3406
  117SOPE  H12Y12372   1.114   1.520   5.270  0.0854  0.4806 -1.0739
  117SOPE  C31312373   1.271   1.439   5.128  0.6723  0.2726 -0.2165
  117SOPE  H13X12374   1.226   1.478   5.035  2.3405  0.0486 -1.1479
  117SOPE  H13Y12375   1.265   1.329   5.118  0.5247  0.2269  0.3215
  117SOPE  C31412376   1.419   1.474   5.105 -0.6979 -0.5579 -0.3353
  117SOPE  H14X12377   1.490   1.461   5.189  0.8811  0.4215 -1.4726
  117SOPE  H14Y12378   1.414   1.583   5.081 -3.3125 -0.6778 -0.6515
  117SOPE  C31512379   1.475   1.397   4.982 -0.3603 -0.8658  0.1049
  117SOPE  H15X12380   1.404   1.406   4.896 -0.5308 -0.0629  0.3201
  117SOPE  H15Y12381   1.501   1.292   5.006  4.2392 -0.0785 -0.5678
  117SOPE  C31612382   1.604   1.449   4.916 -0.2967 -0.2988 -0.4146
  117SOPE  H16X12383   1.632   1.356   4.861  1.6015 -1.2563  1.9858
  117SOPE  H16Y12384   1.668   1.472   5.004 -2.6205  0.9449  1.0465
  117SOPE  C31712385   1.583   1.571   4.826  0.3796 -0.0120 -0.2421
  117SOPE  H17X12386   1.683   1.618   4.812 -0.2379  1.0825 -1.1641
  117SOPE  H17Y12387   1.506   1.638   4.868 -1.6319 -2.8650  0.9205
  117SOPE  C31812388   1.528   1.532   4.684  0.6259 -0.5808 -0.3961
  117SOPE  H18X12389   1.494   1.625   4.633  0.1979 -0.4303  0.1524
  117SOPE  H18Y12390   1.448   1.454   4.679 -1.6958  1.7027 -4.0275
  117SOPE  H18Z12391   1.612   1.484   4.631  0.5866 -1.9370  0.7026
  118SOPE     N12392   3.147   3.837   7.174  0.4503 -0.0511 -0.4165
  118SOPE   HN112393   3.189   3.774   7.103  1.3020 -0.8348  0.7387
  118SOPE   HN212394   3.224   3.881   7.228  0.7277 -0.6169 -0.3385
  118SOPE   HN312395   3.109   3.764   7.237 -0.0766  0.1752 -0.4723
  118SOPE   C1212396   3.050   3.935   7.115 -0.1672 -0.2657 -0.2766
  118SOPE  H12A12397   2.962   3.874   7.088  0.3961 -1.1660 -0.1292
  118SOPE  H12B12398   3.094   3.983   7.024  0.3905  2.3267  1.2470
  118SOPE   C1112399   3.005   4.039   7.216  0.1181 -0.1683  0.5462
  118SOPE  H11A12400   2.973   3.988   7.309  1.5582 -0.3080  0.9929
  118SOPE  H11B12401   2.913   4.089   7.179 -0.7602 -1.2993  1.1550
  118SOPE     P12402   3.089   4.227   7.376  0.1434 -0.0048 -0.2656
  118SOPE   O1312403   3.211   4.218   7.455  0.1200  0.2004 -0.3840
  118SOPE   O1412404   2.960   4.184   7.438 -0.4142 -0.1930  0.5143
  118SOPE   O1212405   3.101   4.135   7.250 -0.6030 -0.6165 -0.2825
  118SOPE   O1112406   3.078   4.376   7.320  0.0662  0.1387 -0.0882
  118SOPE    C112407   3.189   4.451   7.278 -0.0200 -0.3267 -0.1361
  118SOPE    HA12408   3.288   4.411   7.310  0.1363  0.3015  0.1712
  118SOPE    HB12409   3.187   4.556   7.313  0.9608 -0.2145 -0.4038
  118SOPE    C212410   3.183   4.478   7.131  0.5816 -0.8566  0.8988
  118SOPE    HS12411   3.273   4.538   7.103 -1.4624  1.0534 -2.1765
  118SOPE   O2112412   3.064   4.546   7.099  0.5510 -0.4273 -0.1449
  118SOPE   C2112413   3.065   4.661   7.025  0.0721 -0.2373  0.2355
  118SOPE   O2212414   3.170   4.713   6.988 -0.3551  0.5256  0.2216
  118SOPE   C2212415   2.926   4.698   6.988 -0.6163 -0.3246 -0.7596
  118SOPE   H2R12416   2.879   4.768   7.061  0.0577 -2.3500  1.7789
  118SOPE   H2S12417   2.863   4.608   6.968 -1.0597 -0.2879  0.3936
  118SOPE    C312418   3.178   4.345   7.044 -0.5930  0.2155  0.6235
  118SOPE    HX12419   3.080   4.303   7.077 -0.0163 -0.7771  1.1100
  118SOPE    HY12420   3.255   4.271   7.075 -1.0800 -1.3627 -1.6295
  118SOPE   O3112421   3.181   4.376   6.900  0.5321  0.2419  0.4612
  118SOPE   C3112422   3.130   4.281   6.828  0.1988  0.6715 -0.4190
  118SOPE   O3212423   3.063   4.183   6.874  0.0087  0.2289 -0.3030
  118SOPE   C3212424   3.149   4.314   6.675  0.3322 -0.0668  0.1880
  118SOPE   H2X12425   3.253   4.285   6.650 -0.1938 -1.6856 -0.2638
  118SOPE   H2Y12426   3.142   4.423   6.656 -0.3755 -0.4430 -2.0021
  118SOPE   C2312427   2.923   4.778   6.852  0.2805 -0.0745  0.0737
  118SOPE   H3R12428   3.009   4.847   6.849 -0.1622  0.5084  0.4731
  118SOPE   H3S12429   2.831   4.841   6.849 -1.0010 -1.8652 -0.0214
  118SOPE   C2412430   2.926   4.686   6.730 -0.1098 -0.3296 -0.2866
  118SOPE   H4R12431   3.013   4.617   6.737  0.8767  0.8694 -0.3183
  118SOPE   H4S12432   2.841   4.615   6.724 -0.3994  0.0756 -1.3588
  118SOPE   C2512433   2.940   4.764   6.596 -0.3938  0.3604 -0.5026
  118SOPE   H5R12434   2.848   4.823   6.576 -1.5109 -0.9863  0.4385
  118SOPE   H5S12435   3.022   4.837   6.610 -1.7387  1.7819  0.3102
  118SOPE   C2612436   2.976   4.670   6.479  0.0332 -0.4352  0.1486
  118SOPE   H6R12437   3.045   4.591   6.514  1.6701  0.3976 -1.0648
  118SOPE   H6S12438   2.886   4.619   6.439 -2.4512  1.8456  2.4006
  118SOPE   C2712439   3.043   4.754   6.369 -0.7455  0.2461 -0.5109
  118SOPE   H7R12440   2.986   4.839   6.325  0.8817  2.1213  0.8260
  118SOPE   H7S12441   3.125   4.798   6.429 -1.0259 -0.8806  0.7223
  118SOPE   C2812442   3.123   4.669   6.260 -0.1364 -0.2855 -0.1721
  118SOPE   H8R12443   3.197   4.732   6.207 -0.2966 -1.1710 -1.5109
  118SOPE   H8S12444   3.185   4.602   6.323 -0.6571  1.6050  2.5151
  118SOPE   C2912445   3.032   4.586   6.170  0.2108  0.3836  0.0622
  118SOPE   H9112446   2.984   4.511   6.235  0.2453  1.9700  2.0231
  118SOPE  C21012447   3.004   4.595   6.040  0.2574  0.0929  0.6228
  118SOPE  H10112448   2.923   4.536   5.996  2.4838 -1.0844 -2.2286
  118SOPE  C21112449   3.062   4.699   5.951  0.0723  0.1142  0.5098
  118SOPE  H11R12450   3.156   4.660   5.906  0.9919  1.5777  1.0658
  118SOPE  H11S12451   3.097   4.792   6.002 -1.9985  0.5687  1.2195
  118SOPE  C21212452   2.959   4.723   5.843 -1.0814  0.0943  0.3489
  118SOPE  H12R12453   2.947   4.624   5.794  2.0160  0.0450 -0.5115
  118SOPE  H12S12454   3.003   4.793   5.770  0.1284 -2.1486 -1.1950
  118SOPE  C21312455   2.824   4.773   5.901 -0.1385 -0.3074  0.0071
  118SOPE  H13R12456   2.788   4.719   5.991 -0.8562  1.6180  0.9408
  118SOPE  H13S12457   2.745   4.750   5.826  0.8300 -0.9958 -0.8446
  118SOPE  C21412458   2.823   4.908   5.960 -0.1903  0.1686 -0.3786
  118SOPE  H14R12459   2.878   4.980   5.895  0.8886  1.8024  2.1933
  118SOPE  H14S12460   2.880   4.912   6.055 -1.4670 -1.7162  0.5201
  118SOPE  C21512461   2.685   4.975   5.969  0.4372  0.3291 -0.2592
  118SOPE  H15R12462   2.640   4.997   5.870  0.1333  2.3542  0.2858
  118SOPE  H15S12463   2.689   5.079   6.008  1.9786  0.8449 -1.6746
  118SOPE  C21612464   2.581   4.910   6.056  0.3859  0.9373  0.0590
  118SOPE  H16R12465   2.561   4.816   6.001 -0.3935  1.3538 -0.3927
  118SOPE  H16S12466   2.486   4.969   6.064  1.5915  2.7202  2.4433
  118SOPE  C21712467   2.617   4.878   6.200  0.2991 -0.3452 -0.3776
  118SOPE  H17R12468   2.704   4.809   6.202 -0.9168 -1.9798  2.3663
  118SOPE  H17S12469   2.528   4.825   6.239  0.5133  0.3892  1.2205
  118SOPE  C21812470   2.656   4.994   6.293 -0.5774  0.0843 -0.2194
  118SOPE  H18R12471   2.689   4.957   6.392 -0.9695 -2.5487 -1.0050
  118SOPE  H18S12472   2.588   5.080   6.310  0.3215  0.2808  3.0325
  118SOPE  H18T12473   2.748   5.029   6.241 -0.1032 -2.0971 -0.9637
  118SOPE   C3312474   3.057   4.251   6.571 -0.1569 -0.0646  0.2307
  118SOPE   H3X12475   2.962   4.308   6.571  1.0990  2.3274 -3.3168
  118SOPE   H3Y12476   3.041   4.145   6.600  1.0561 -0.2233  0.3929
  118SOPE   C3412477   3.109   4.260   6.426  0.1691 -0.2171 -0.6293
  118SOPE   H4X12478   3.201   4.198   6.416  0.3428 -0.0765  0.0188
  118SOPE   H4Y12479   3.126   4.367   6.403 -2.1284  0.1635 -0.7338
  118SOPE   C3512480   3.008   4.210   6.323  0.1697  0.0928  0.1611
  118SOPE   H5X12481   2.925   4.283   6.324 -0.4205 -0.4396 -2.1110
  118SOPE   H5Y12482   2.977   4.106   6.350 -2.1793  0.5512 -0.5111
  118SOPE   C3612483   3.062   4.206   6.178  0.2331 -0.9745  0.2186
  118SOPE   H6X12484   3.107   4.112   6.140  2.1338  1.4489 -4.3985
  118SOPE   H6Y12485   3.144   4.281   6.168 -2.4285  1.9113 -1.8265
  118SOPE   C3712486   2.954   4.233   6.071 -0.0735 -0.0023  0.1508
  118SOPE   H7X12487   2.918   4.337   6.082  0.3199  0.1385  0.1210
  118SOPE   H7Y12488   2.864   4.170   6.090 -1.9691  2.0410 -1.5811
  118SOPE   C3812489   3.000   4.222   5.918 -0.4268 -0.3337 -0.3259
  118SOPE   H8X12490   3.030   4.117   5.899 -0.1477 -0.3557  0.2234
  118SOPE   H8Y12491   3.084   4.294   5.904 -1.1467  0.9515  1.5724
  118SOPE   C3912492   2.878   4.247   5.833 -0.5676  0.0514 -0.2582
  118SOPE   H9X12493   2.867   4.356   5.851 -0.7389  0.0759 -0.5059
  118SOPE   H9Y12494   2.784   4.208   5.877 -0.6330  2.5144  2.0502
  118SOPE  C31012495   2.914   4.225   5.682 -0.2927 -0.3958 -0.2386
  118SOPE  H10X12496   2.862   4.135   5.644  0.7127 -0.5845 -1.2149
  118SOPE  H10Y12497   3.023   4.203   5.674 -0.0225  1.3226 -5.4427
  118SOPE  C31112498   2.885   4.352   5.594  0.2447 -0.5377 -0.3824
  118SOPE  H11X12499   2.927   4.431   5.660  0.3106  0.0628 -1.1358
  118SOPE  H11Y12500   2.775   4.366   5.582 -0.1718 -1.2785  1.9894
  118SOPE  C31212501   2.960   4.347   5.467  0.1113 -0.2025  0.3504
  118SOPE  H12X12502   3.060   4.300   5.480  0.1294  0.0297  1.0953
  118SOPE  H12Y12503   2.961   4.448   5.421  1.1681 -1.4873 -2.6884
  118SOPE  C31312504   2.885   4.265   5.356 -1.2896  0.1022 -0.0955
  118SOPE  H13X12505   2.805   4.334   5.319 -0.7329 -0.0096 -1.5900
  118SOPE  H13Y12506   2.840   4.175   5.402 -3.6984  1.8337  1.2103
  118SOPE  C31412507   2.969   4.229   5.230  0.1225 -0.3506  0.0398
  118SOPE  H14X12508   3.064   4.188   5.269  0.7576 -0.2396 -1.3527
  118SOPE  H14Y12509   3.001   4.312   5.163  1.4007 -1.0301 -0.2160
  118SOPE  C31512510   2.888   4.135   5.142  0.4765 -0.9871  0.0443
  118SOPE  H15X12511   2.805   4.194   5.099  1.5211  0.1549 -0.4715
  118SOPE  H15Y12512   2.833   4.052   5.190 -0.6807  0.1122  0.6758
  118SOPE  C31612513   2.963   4.077   5.026 -0.2671 -0.6081  0.2161
  118SOPE  H16X12514   3.070   4.058   5.050 -0.1473 -0.3875 -0.1464
  118SOPE  H16Y12515   2.972   4.145   4.938  0.3798  0.4842  1.0917
  118SOPE  C31712516   2.900   3.944   4.978 -1.1189  0.4848  0.1067
  118SOPE  H17X12517   2.903   3.934   4.868 -0.9868 -0.5901  0.1884
  118SOPE  H17Y12518   2.795   3.941   5.015 -0.4419 -1.2903  2.1491
  118SOPE  C31812519   2.983   3.830   5.043 -0.3046  0.2392  0.0050
  118SOPE  H18X12520   3.092   3.853   5.033 -0.7262  3.1159  1.0285
  118SOPE  H18Y12521   2.955   3.727   5.011 -2.7414  0.6696  0.5476
  118SOPE  H18Z12522   2.965   3.827   5.153  1.2186 -1.3949  0.2648
  119SOPE     N12523   0.315   4.898   7.447  0.2997  0.2758 -0.0888
  119SOPE   HN112524   0.273   4.818   7.395  1.1502 -0.2010 -0.0504
  119SOPE   HN212525   0.261   4.983   7.419  1.6374  2.0563  2.4024
  119SOPE   HN312526   0.414   4.910   7.418  0.8535  0.5621  1.8102
  119SOPE   C1212527   0.308   4.878   7.598  1.2286  0.3888 -0.1271
  119SOPE  H12A12528   0.375   4.956   7.638 -0.3924  1.2777  1.0005
  119SOPE  H12B12529   0.332   4.770   7.612 -1.6657 -0.3134  0.2347
  119SOPE   C1112530   0.161   4.910   7.653  0.0183 -0.2929  0.4743
  119SOPE  H11A12531   0.136   5.017   7.637  0.4972 -0.3651 -0.9294
  119SOPE  H11B12532   0.163   4.880   7.760 -1.5391 -0.4365  0.4914
  119SOPE     P12533  -0.091   4.848   7.666 -0.0565  0.0523 -0.4508
  119SOPE   O1312534  -0.078   4.966   7.762  0.0570 -0.1583  0.1160
  119SOPE   O1412535  -0.135   4.721   7.723  0.3132 -0.1173  0.3048
  119SOPE   O1212536   0.055   4.827   7.599  0.2038  0.2337  0.6698
  119SOPE   O1112537  -0.178   4.875   7.540  0.1159 -0.0073  0.7155
  119SOPE    C112538  -0.118   4.951   7.431 -0.8615  0.1010  0.3236
  119SOPE    HA12539  -0.009   4.935   7.417 -0.4673 -0.2838  3.2933
  119SOPE    HB12540  -0.130   5.059   7.455 -1.8820  0.5192 -1.7578
  119SOPE    C212541  -0.183   4.914   7.299  0.5421 -0.1884 -0.0942
  119SOPE    HS12542  -0.290   4.910   7.330  1.0624 -0.4205  1.8385
  119SOPE   O2112543  -0.130   4.781   7.259 -0.4101  0.1436 -0.3826
  119SOPE   C2112544  -0.217   4.721   7.180 -0.8053  0.1906 -0.5895
  119SOPE   O2212545  -0.337   4.752   7.165 -0.3776 -0.3815 -0.3321
  119SOPE   C2212546  -0.145   4.625   7.085  0.0593  1.0849  0.3137
  119SOPE   H2R12547  -0.104   4.552   7.158  0.3668  1.0296  0.0895
  119SOPE   H2S12548  -0.064   4.681   7.034 -0.4489  1.3196 -0.2468
  119SOPE    C312549  -0.145   5.020   7.194  0.1058  0.4604  1.0653
  119SOPE    HX12550  -0.040   4.992   7.170 -0.4412 -2.6900  1.9451
  119SOPE    HY12551  -0.140   5.122   7.239  0.2036  0.6834  0.5627
  119SOPE   O3112552  -0.233   5.018   7.078 -0.1223  0.4504 -0.6081
  119SOPE   C3112553  -0.354   5.083   7.103 -0.3944 -0.1601 -0.2104
  119SOPE   O3212554  -0.378   5.140   7.208 -0.3309  0.1454  0.2858
  119SOPE   C3212555  -0.447   5.068   6.982  0.3616  0.7685  0.6424
  119SOPE   H2X12556  -0.519   5.152   6.987 -0.2926  0.1603  2.0861
  119SOPE   H2Y12557  -0.489   4.966   6.999  1.4542  0.5479  2.3061
  119SOPE   C2312558  -0.230   4.556   6.973 -0.0743  0.8319 -0.7936
  119SOPE   H3R12559  -0.333   4.531   7.005  0.4627  0.3708  0.7056
  119SOPE   H3S12560  -0.188   4.454   6.960 -0.4052  0.2239  2.0841
  119SOPE   C2412561  -0.240   4.647   6.850  0.8691  0.3480  0.4240
  119SOPE   H4R12562  -0.290   4.737   6.890  2.3986  0.4328  2.2394
  119SOPE   H4S12563  -0.139   4.674   6.812  0.9008  0.0238  0.2712
  119SOPE   C2512564  -0.325   4.580   6.742  0.5752 -0.2404  0.2787
  119SOPE   H5R12565  -0.287   4.483   6.704 -2.4945 -0.8716 -1.4696
  119SOPE   H5S12566  -0.418   4.548   6.794  1.0640 -1.0507  0.6770
  119SOPE   C2612567  -0.344   4.667   6.614 -0.5745  0.0966 -0.7164
  119SOPE   H6R12568  -0.368   4.771   6.643  0.1785 -0.2814  1.4310
  119SOPE   H6S12569  -0.246   4.672   6.561  0.9087 -0.7053  1.7852
  119SOPE   C2712570  -0.450   4.618   6.513  0.2412  0.4104 -0.8079
  119SOPE   H7R12571  -0.417   4.513   6.499 -0.0398 -0.0620  1.7173
  119SOPE   H7S12572  -0.549   4.626   6.564  0.6683  0.2599  0.0616
  119SOPE   C2812573  -0.470   4.700   6.385 -0.2668  0.0432 -0.7343
  119SOPE   H8R12574  -0.550   4.655   6.322  0.6991  1.2846 -2.9892
  119SOPE   H8S12575  -0.495   4.802   6.422 -2.2814 -1.2484  1.8114
  119SOPE   C2912576  -0.355   4.695   6.292  0.5035  0.0308 -0.2654
  119SOPE   H9112577  -0.270   4.748   6.337  0.1552 -0.0434  0.4954
  119SOPE  C21012578  -0.343   4.638   6.174  0.7198 -0.4818  0.9728
  119SOPE  H10112579  -0.249   4.650   6.117  0.5171  0.2305  0.7760
  119SOPE  C21112580  -0.444   4.549   6.103  0.6074 -0.1940 -0.4644
  119SOPE  H11R12581  -0.526   4.522   6.173  2.6995 -2.1901  1.4180
  119SOPE  H11S12582  -0.402   4.449   6.078  1.8736 -0.0257  0.8672
  119SOPE  C21212583  -0.511   4.605   5.974  0.6312 -0.1797 -0.6480
  119SOPE  H12R12584  -0.564   4.700   5.996 -1.3655 -1.7514  1.9837
  119SOPE  H12S12585  -0.581   4.529   5.933  0.1367  0.0054 -0.1599
  119SOPE  C21312586  -0.414   4.629   5.858  0.9125  0.1570 -0.1855
  119SOPE  H13R12587  -0.362   4.531   5.848  1.1365  0.3541 -1.1493
  119SOPE  H13S12588  -0.332   4.696   5.892 -0.1249  1.6626 -0.5307
  119SOPE  C21412589  -0.477   4.674   5.724 -0.5961  1.1783 -1.2533
  119SOPE  H14R12590  -0.396   4.732   5.674  2.2982 -0.2825  1.3923
  119SOPE  H14S12591  -0.572   4.724   5.753 -0.5278 -0.3400  1.9888
  119SOPE  C21512592  -0.516   4.552   5.635 -0.1590 -0.5328  0.7607
  119SOPE  H15R12593  -0.586   4.491   5.697  1.8385 -2.1782  1.5383
  119SOPE  H15S12594  -0.423   4.495   5.615  0.2625  0.2841  0.3621
  119SOPE  C21612595  -0.585   4.594   5.504 -0.3619  0.6257  0.1972
  119SOPE  H16R12596  -0.510   4.663   5.460  1.6582  0.2538  2.7766
  119SOPE  H16S12597  -0.675   4.656   5.522 -0.5017 -0.1396  2.5161
  119SOPE  C21712598  -0.615   4.483   5.396 -0.0806 -0.1414 -0.7310
  119SOPE  H17R12599  -0.697   4.522   5.332  0.3295 -0.4190 -1.4384
  119SOPE  H17S12600  -0.660   4.403   5.459 -0.8912  1.1459  0.3860
  119SOPE  C21812601  -0.497   4.424   5.316 -0.1963  0.4566  0.3461
  119SOPE  H18R12602  -0.457   4.497   5.242 -1.5701  0.7940 -0.1114
  119SOPE  H18S12603  -0.527   4.339   5.250  1.5343  0.3523 -0.3584
  119SOPE  H18T12604  -0.410   4.389   5.375  0.1769  3.3545  1.6628
  119SOPE   C3312605  -0.378   5.062   6.844  0.2234  0.3674  0.0279
  119SOPE   H3X12606  -0.344   4.957   6.837 -0.4841  0.0793  0.8132
  119SOPE   H3Y12607  -0.286   5.125   6.842  0.3488  0.1887  0.1001
  119SOPE   C3412608  -0.465   5.098   6.722  0.0064  0.4663  0.0228
  119SOPE   H4X12609  -0.488   5.206   6.729 -2.3603  0.1975 -2.2325
  119SOPE   H4Y12610  -0.555   5.034   6.714  3.2453 -4.5520 -1.2840
  119SOPE   C3512611  -0.392   5.068   6.585 -0.1719 -0.0095 -0.5211
  119SOPE   H5X12612  -0.379   4.958   6.576  2.1881 -0.0320  1.9135
  119SOPE   H5Y12613  -0.287   5.103   6.594 -1.0391  2.3779  1.6328
  119SOPE   C3612614  -0.454   5.132   6.453  0.3932 -0.3737 -0.3571
  119SOPE   H6X12615  -0.428   5.240   6.457  0.3621 -0.3431 -0.9779
  119SOPE   H6Y12616  -0.565   5.125   6.454  0.3944 -0.4016 -0.4240
  119SOPE   C3712617  -0.397   5.072   6.324 -0.6150  0.1202 -0.3840
  119SOPE   H7X12618  -0.406   4.962   6.338 -1.3591  0.4080  1.7969
  119SOPE   H7Y12619  -0.290   5.099   6.307 -0.2189 -0.5559  0.8781
  119SOPE   C3812620  -0.481   5.102   6.204 -0.1723 -0.3631  0.0577
  119SOPE   H8X12621  -0.506   5.210   6.197 -3.4581 -0.9689  0.8659
  119SOPE   H8Y12622  -0.576   5.044   6.211 -0.9570  0.9748  0.7536
  119SOPE   C3912623  -0.398   5.066   6.077  0.9527  0.1189  0.5153
  119SOPE   H9X12624  -0.375   4.958   6.080  0.7320  0.0869  1.7292
  119SOPE   H9Y12625  -0.307   5.130   6.080  0.4136  0.8851  1.0283
  119SOPE  C31012626  -0.494   5.104   5.961  1.0197  0.2301  0.0706
  119SOPE  H10X12627  -0.462   5.205   5.927 -0.2840  0.0612 -1.7999
  119SOPE  H10Y12628  -0.591   5.129   6.009  0.1669 -1.2439 -0.8172
  119SOPE  C31112629  -0.510   5.005   5.851 -0.1624  1.1394  0.3769
  119SOPE  H11X12630  -0.523   4.904   5.893 -0.5452  0.5935 -1.0001
  119SOPE  H11Y12631  -0.408   5.013   5.806 -0.7823  1.6684 -1.0049
  119SOPE  C31212632  -0.602   5.057   5.738  0.7399  0.0241 -0.6891
  119SOPE  H12X12633  -0.574   5.157   5.697  0.7289 -0.3327 -1.5940
  119SOPE  H12Y12634  -0.705   5.061   5.779  0.0988  0.2939 -2.2264
  119SOPE  C31312635  -0.599   4.966   5.622  0.3125  0.0330 -0.0919
  119SOPE  H13X12636  -0.639   4.867   5.653 -2.0937  1.1519  0.6256
  119SOPE  H13Y12637  -0.495   4.972   5.585  0.9256  0.7886  1.6713
  119SOPE  C31412638  -0.687   5.015   5.507  0.3766 -0.3846 -0.1809
  119SOPE  H14X12639  -0.655   5.116   5.474  1.3712 -0.7050 -0.2209
  119SOPE  H14Y12640  -0.790   5.035   5.544  0.1448 -0.8742 -0.5566
  119SOPE  C31512641  -0.686   4.930   5.376  0.3566  0.3123  0.1868
  119SOPE  H15X12642  -0.764   4.978   5.313 -2.6305 -2.8518  1.1429
  119SOPE  H15Y12643  -0.727   4.829   5.401 -0.2036  0.3610 -0.4848
  119SOPE  C31612644  -0.558   4.921   5.287 -0.0201 -0.4364  0.8306
  119SOPE  H16X12645  -0.578   4.860   5.196 -1.4225  2.0444 -0.6542
  119SOPE  H16Y12646  -0.486   4.863   5.349 -1.6082  1.0601  4.3383
  119SOPE  C31712647  -0.503   5.059   5.245  0.5855 -0.4081  0.6370
  119SOPE  H17X12648  -0.426   5.026   5.173 -0.4874 -0.8067 -0.3513
  119SOPE  H17Y12649  -0.463   5.121   5.328 -0.0952  0.8149  0.0747
  119SOPE  C31812650  -0.600   5.146   5.161  0.0203  0.2649  0.1769
  119SOPE  H18X12651  -0.704   5.135   5.199 -0.1231  0.1061 -0.2552
  119SOPE  H18Y12652  -0.604   5.101   5.059  0.3090  0.8422 -0.0969
  119SOPE  H18Z12653  -0.578   5.255   5.156  0.0475  0.2344 -0.4421
  120SOPE     N12654   4.884   0.352   6.712  0.2502 -0.2763 -0.4648
  120SOPE   HN112655   4.915   0.282   6.641 -3.7577 -0.4651 -2.3673
  120SOPE   HN212656   4.785   0.323   6.728  0.5816 -1.4034 -0.3788
  120SOPE   HN312657   4.875   0.442   6.661 -1.0118 -0.9314 -1.4929
  120SOPE   C1212658   4.966   0.369   6.836  0.5799  0.4413  0.5574
  120SOPE  H12A12659   4.891   0.401   6.911  1.3973 -0.6849  1.8933
  120SOPE  H12B12660   5.038   0.454   6.839  0.2428  0.7123  1.0099
  120SOPE   C1112661   5.033   0.243   6.875  0.0710  0.2266 -0.2680
  120SOPE  H11A12662   5.088   0.269   6.968 -2.2421 -1.5682  1.7404
  120SOPE  H11B12663   5.104   0.202   6.800  0.9928  0.8633  0.2395
  120SOPE     P12664   4.963   0.009   6.997  0.4067  0.2314 -0.0029
  120SOPE   O1312665   4.829  -0.047   7.026 -1.1136 -0.1957 -0.0990
  120SOPE   O1412666   5.043   0.053   7.107 -0.4780  0.3301  0.0035
  120SOPE   O1212667   4.935   0.139   6.908  0.0970 -0.2355 -0.5165
  120SOPE   O1112668   5.058  -0.080   6.907  0.0448 -0.4880 -0.3511
  120SOPE    C112669   4.999  -0.136   6.793 -0.1473  0.5126 -0.0898
  120SOPE    HA12670   4.924  -0.067   6.750 -0.1762  0.3108 -0.3632
  120SOPE    HB12671   4.946  -0.232   6.811  1.9141 -1.1569 -2.2710
  120SOPE    C212672   5.114  -0.158   6.689 -0.1121  0.0418 -0.5056
  120SOPE    HS12673   5.172  -0.251   6.706  0.9482  0.4426 -1.7561
  120SOPE   O2112674   5.190  -0.033   6.684 -0.1782  0.1161  0.1270
  120SOPE   C2112675   5.315  -0.056   6.723 -0.3115 -0.2734 -0.4279
  120SOPE   O2212676   5.366  -0.164   6.757  0.0055  0.5499 -0.2490
  120SOPE   C2212677   5.379   0.084   6.740  0.3772 -0.0737  0.1267
  120SOPE   H2R12678   5.427   0.074   6.840  2.6755 -0.2544 -0.9457
  120SOPE   H2S12679   5.303   0.165   6.741  0.9982  0.5301 -0.6142
  120SOPE    C312680   5.058  -0.184   6.553 -1.0315  0.6138 -0.4320
  120SOPE    HX12681   4.980  -0.108   6.529 -3.6694 -0.3587  3.8814
  120SOPE    HY12682   4.993  -0.274   6.562  0.0613 -0.5469 -3.3171
  120SOPE   O3112683   5.152  -0.207   6.442 -0.0346  0.3211  0.5566
  120SOPE   C3112684   5.164  -0.108   6.352  0.3392  0.0538 -0.2775
  120SOPE   O3212685   5.104   0.002   6.359  0.0393  0.5641  0.4159
  120SOPE   C3212686   5.260  -0.151   6.243 -0.1811 -0.0277  0.3461
  120SOPE   H2X12687   5.222  -0.242   6.192 -0.4720  0.4372 -0.2782
  120SOPE   H2Y12688   5.363  -0.172   6.280  0.2839  0.1735 -0.7743
  120SOPE   C2312689   5.486   0.109   6.630 -0.0527 -0.5168  0.2978
  120SOPE   H3R12690   5.513   0.217   6.641  1.3336 -0.9373  1.4183
  120SOPE   H3S12691   5.444   0.092   6.529 -0.5529 -2.3326  0.7826
  120SOPE   C2412692   5.616   0.029   6.646 -0.6082  0.4021 -0.2323
  120SOPE   H4R12693   5.673   0.076   6.729 -1.1418  1.2100 -0.3125
  120SOPE   H4S12694   5.599  -0.077   6.675  3.7477 -0.4608 -0.1645
  120SOPE   C2512695   5.689   0.043   6.516 -0.4196 -0.3192  0.3572
  120SOPE   H5R12696   5.653  -0.013   6.428  0.8733 -1.5891  0.5944
  120SOPE   H5S12697   5.696   0.152   6.498  1.6206 -0.7071 -1.7015
  120SOPE   C2612698   5.839   0.013   6.536  0.1384  0.2590  0.0233
  120SOPE   H6R12699   5.867   0.067   6.629 -1.2936  2.7772 -0.9245
  120SOPE   H6S12700   5.846  -0.095   6.564  0.3065 -0.2313 -1.7770
  120SOPE   C2712701   5.920   0.058   6.415  0.0826 -0.2450 -0.2338
  120SOPE   H7R12702   6.005  -0.007   6.389  0.3776 -0.1700  0.5105
  120SOPE   H7S12703   5.857   0.046   6.324 -0.4528  0.5114  0.0195
  120SOPE   C2812704   5.974   0.202   6.423  0.4447  0.6339  0.6915
  120SOPE   H8R12705   5.884   0.267   6.420  1.8890  2.9381 -4.4306
  120SOPE   H8S12706   6.034   0.212   6.516  1.3858  1.5824  0.0192
  120SOPE   C2912707   6.055   0.245   6.303  0.7343  0.0060 -0.1252
  120SOPE   H9112708   6.151   0.191   6.294  0.7830 -0.0937  0.9061
  120SOPE  C21012709   6.022   0.346   6.219  0.3748  0.6040  0.0328
  120SOPE  H10112710   6.094   0.372   6.140 -0.6096  0.7816 -0.8299
  120SOPE  C21112711   5.888   0.426   6.219  0.0898 -0.1231 -0.3590
  120SOPE  H11R12712   5.902   0.524   6.269 -0.2898 -0.8664  1.2898
  120SOPE  H11S12713   5.809   0.373   6.277 -0.1095 -0.4942 -0.9621
  120SOPE  C21212714   5.825   0.459   6.082 -0.8737  0.1731  0.7991
  120SOPE  H12R12715   5.736   0.521   6.106  0.3071  1.9469  0.7376
  120SOPE  H12S12716   5.795   0.364   6.032 -0.9743  0.8467 -0.4594
  120SOPE  C21312717   5.931   0.535   5.997  0.1389  0.4745  0.1378
  120SOPE  H13R12718   5.999   0.470   5.939  0.0782 -1.8884  2.5372
  120SOPE  H13S12719   5.996   0.593   6.066 -2.0084  3.3742 -0.0436
  120SOPE  C21412720   5.885   0.633   5.887  0.5961  0.4797 -0.2499
  120SOPE  H14R12721   5.979   0.667   5.839  0.9696  0.8335  0.7216
  120SOPE  H14S12722   5.835   0.723   5.929  1.7899 -0.0316  2.4393
  120SOPE  C21512723   5.787   0.577   5.783  0.1528 -0.4773  0.3896
  120SOPE  H15R12724   5.721   0.506   5.837  0.2147  0.4104  1.6700
  120SOPE  H15S12725   5.840   0.522   5.702 -1.0288 -0.2171 -0.5963
  120SOPE  C21612726   5.691   0.680   5.712 -0.0641  0.8968  0.2267
  120SOPE  H16R12727   5.748   0.750   5.648  0.7481  1.7936  1.8684
  120SOPE  H16S12728   5.646   0.739   5.795  0.9963  1.1995  0.5926
  120SOPE  C21712729   5.583   0.605   5.623 -0.4224  1.4150 -0.7545
  120SOPE  H17R12730   5.518   0.542   5.688 -0.4266 -0.2446 -2.3072
  120SOPE  H17S12731   5.636   0.528   5.563 -0.2761  1.9905 -1.3765
  120SOPE  C21812732   5.503   0.698   5.534  0.4718 -0.0847 -0.3346
  120SOPE  H18R12733   5.478   0.792   5.588 -2.4858 -3.0201  4.1088
  120SOPE  H18S12734   5.418   0.650   5.481 -0.5504  3.1224 -1.8564
  120SOPE  H18T12735   5.578   0.719   5.455  0.6375 -2.2458 -0.8115
  120SOPE   C3312736   5.278  -0.041   6.129  0.1478 -0.7087 -0.1240
  120SOPE   H3X12737   5.338  -0.085   6.046 -1.9397  0.5523 -2.4719
  120SOPE   H3Y12738   5.349   0.040   6.156 -1.9538  1.4656 -0.6872
  120SOPE   C3412739   5.155   0.012   6.060 -0.2008 -0.0829  0.1625
  120SOPE   H4X12740   5.192   0.078   5.978  0.0941  1.0331  1.1679
  120SOPE   H4Y12741   5.097   0.080   6.126 -0.6756 -0.7339  0.4156
  120SOPE   C3512742   5.052  -0.098   6.006 -0.6109 -0.1197 -0.0422
  120SOPE   H5X12743   4.962  -0.042   5.972 -0.2244  1.2639  1.1036
  120SOPE   H5Y12744   5.005  -0.174   6.072 -1.1164 -0.9396 -1.3026
  120SOPE   C3612745   5.122  -0.170   5.879  0.2346  0.3760  0.3288
  120SOPE   H6X12746   5.213  -0.225   5.912  0.4665 -0.0480 -0.9466
  120SOPE   H6Y12747   5.158  -0.086   5.816  0.9324  0.0593  0.2911
  120SOPE   C3712748   5.039  -0.262   5.796  0.5924  0.1376  0.8212
  120SOPE   H7X12749   4.954  -0.204   5.755  1.1098 -0.0879 -0.6303
  120SOPE   H7Y12750   4.997  -0.348   5.853  0.2596 -0.9499 -0.9573
  120SOPE   C3812751   5.124  -0.320   5.682 -0.0737  0.2090  0.1953
  120SOPE   H8X12752   5.218  -0.366   5.717 -0.9079 -0.7756  1.2085
  120SOPE   H8Y12753   5.153  -0.228   5.627  0.7880  0.2852  0.7681
  120SOPE   C3912754   5.047  -0.415   5.587  1.0952 -0.2243  0.4378
  120SOPE   H9X12755   4.966  -0.355   5.539  0.6358 -0.3378  1.0585
  120SOPE   H9Y12756   4.989  -0.491   5.644 -1.4245 -0.9971 -2.8085
  120SOPE  C31012757   5.136  -0.497   5.495  0.1081  0.4120 -0.8667
  120SOPE  H10X12758   5.224  -0.526   5.556 -0.2030 -0.1050 -0.6499
  120SOPE  H10Y12759   5.168  -0.427   5.416 -0.1298 -0.0944 -1.4198
  120SOPE  C31112760   5.061  -0.619   5.443 -0.1096  0.1769 -0.6935
  120SOPE  H11X12761   4.958  -0.584   5.421  0.1703  1.7767  0.3928
  120SOPE  H11Y12762   5.050  -0.686   5.531  0.0957 -2.0501 -2.2740
  120SOPE  C31212763   5.125  -0.691   5.328  0.1829 -1.2274  0.5265
  120SOPE  H12X12764   5.055  -0.774   5.304 -0.5972 -0.8466  1.4303
  120SOPE  H12Y12765   5.216  -0.739   5.369  0.8803  0.5460  1.1465
  120SOPE  C31312766   5.157  -0.596   5.208 -0.6204  0.1652  0.2679
  120SOPE  H13X12767   5.205  -0.659   5.130 -0.5158  1.1228 -0.4605
  120SOPE  H13Y12768   5.234  -0.519   5.230 -1.6511  0.8205  1.7461
  120SOPE  C31412769   5.034  -0.537   5.136 -0.0397  1.2441 -0.5946
  120SOPE  H14X12770   4.984  -0.452   5.189  0.6472  0.7544  0.9130
  120SOPE  H14Y12771   4.960  -0.619   5.123  2.4175 -1.4017  0.9503
  120SOPE  C31512772   5.063  -0.495   4.991  0.0795  0.2776 -1.0489
  120SOPE  H15X12773   5.098  -0.586   4.939  0.7828  1.2423 -2.3392
  120SOPE  H15Y12774   5.143  -0.418   4.997  0.3699 -0.0694 -0.3307
  120SOPE  C31612775   4.951  -0.438   4.908  0.2561  0.1224 -0.6374
  120SOPE  H16X12776   4.860  -0.501   4.917 -0.7009  1.5648  0.0655
  120SOPE  H16Y12777   4.979  -0.422   4.801 -2.2056  1.1960 -1.2036
  120SOPE  C31712778   4.892  -0.311   4.968  1.1923 -0.6422  0.1201
  120SOPE  H17X12779   4.967  -0.229   4.969  1.2941 -0.7322  1.1062
  120SOPE  H17Y12780   4.864  -0.329   5.074 -0.5266  2.4362  0.2896
  120SOPE  C31812781   4.760  -0.266   4.903 -0.1593 -0.0658 -0.2263
  120SOPE  H18X12782   4.781  -0.243   4.796  0.0201 -1.8286 -0.5948
  120SOPE  H18Y12783   4.716  -0.177   4.955 -0.1711  0.5677 -1.2929
  120SOPE  H18Z12784   4.683  -0.346   4.901 -0.2463  0.0289 -0.7858
  121SOPE     N12785   0.595   3.359   6.971  0.8263  0.4077 -0.2032
  121SOPE   HN112786   0.687   3.314   6.988  0.8569  0.4599 -0.2315
  121SOPE   HN212787   0.591   3.460   6.949 -0.7024  1.1310  2.7850
  121SOPE   HN312788   0.532   3.333   7.051  0.1543 -1.9668 -1.4118
  121SOPE   C1212789   0.541   3.294   6.850  0.3473 -0.2447  0.0502
  121SOPE  H12A12790   0.601   3.336   6.767 -1.1304  1.8692 -0.0207
  121SOPE  H12B12791   0.435   3.320   6.830  1.2992  3.3430 -0.9541
  121SOPE   C1112792   0.554   3.138   6.868  0.3130  0.3249 -0.0902
  121SOPE  H11A12793   0.499   3.100   6.779  1.1868  1.1366 -0.9969
  121SOPE  H11B12794   0.502   3.107   6.961  0.5052  1.7648  0.5219
  121SOPE     P12795   0.735   2.975   6.809 -0.2593 -0.0103  0.3121
  121SOPE   O1312796   0.617   2.881   6.815  0.3214 -0.0020  0.3885
  121SOPE   O1412797   0.866   2.927   6.859  0.2490  0.8401  0.2615
  121SOPE   O1212798   0.691   3.103   6.882 -0.6187 -0.1679 -0.0971
  121SOPE   O1112799   0.752   3.014   6.653 -0.5038 -0.0497  0.1094
  121SOPE    C112800   0.821   3.132   6.603  0.9002 -0.2657 -0.3412
  121SOPE    HA12801   0.914   3.094   6.557  0.2704 -1.2473 -0.8641
  121SOPE    HB12802   0.860   3.198   6.683  0.9707  1.3307 -1.6511
  121SOPE    C212803   0.733   3.218   6.510 -1.1200  0.8248 -0.5633
  121SOPE    HS12804   0.631   3.220   6.554 -1.1857  1.0060 -0.7225
  121SOPE   O2112805   0.721   3.146   6.385 -0.6721 -0.3078  0.2426
  121SOPE   C2112806   0.598   3.129   6.329  0.2681 -0.2390  0.3017
  121SOPE   O2212807   0.489   3.157   6.371  0.3254  0.1853 -0.3459
  121SOPE   C2212808   0.628   3.063   6.195  0.8075 -0.4025  0.2650
  121SOPE   H2R12809   0.537   3.005   6.167  1.2083 -1.9636  1.9991
  121SOPE   H2S12810   0.720   3.001   6.206  1.2261  0.1328 -0.1921
  121SOPE    C312811   0.783   3.366   6.503  0.0220  0.3442 -0.4011
  121SOPE    HX12812   0.881   3.358   6.452  0.4845 -3.4088  0.7260
  121SOPE    HY12813   0.797   3.416   6.602  0.3511  1.6977 -1.1140
  121SOPE   O3112814   0.693   3.438   6.424 -0.1434 -0.0731 -0.6006
  121SOPE   C3112815   0.725   3.476   6.307 -0.3106 -0.9702 -0.3442
  121SOPE   O3212816   0.832   3.475   6.253  0.0376  0.2789 -0.2655
  121SOPE   C3212817   0.602   3.545   6.237  0.1094  0.3338 -0.5771
  121SOPE   H2X12818   0.576   3.632   6.302  2.1289  0.6175 -0.0712
  121SOPE   H2Y12819   0.519   3.473   6.223 -0.3692  1.3106 -3.5852
  121SOPE   C2312820   0.660   3.175   6.089 -0.6019  0.3233 -0.4075
  121SOPE   H3R12821   0.739   3.238   6.135  1.1897  0.0450 -2.8978
  121SOPE   H3S12822   0.566   3.232   6.086  0.7020  2.6716  0.6963
  121SOPE   C2412823   0.701   3.117   5.956 -0.7458  0.7438 -0.2697
  121SOPE   H4R12824   0.778   3.037   5.950 -1.0786  0.4857 -1.3812
  121SOPE   H4S12825   0.607   3.065   5.927 -1.7399  2.4171 -0.1868
  121SOPE   C2512826   0.742   3.225   5.857 -0.3213  0.4255 -0.3294
  121SOPE   H5R12827   0.692   3.323   5.872 -0.9791 -0.1112  1.2877
  121SOPE   H5S12828   0.851   3.243   5.867 -0.5279  0.5275  3.1582
  121SOPE   C2612829   0.720   3.196   5.708  0.4123 -0.0697 -0.8458
  121SOPE   H6R12830   0.755   3.287   5.654  2.2255 -0.6536 -0.7093
  121SOPE   H6S12831   0.783   3.110   5.681  1.5850  0.0776  1.2179
  121SOPE   C2712832   0.570   3.174   5.669  0.0108 -0.1195  0.7445
  121SOPE   H7R12833   0.532   3.086   5.724 -0.4729 -2.0551 -2.4452
  121SOPE   H7S12834   0.506   3.259   5.700  0.5921  0.3902  0.5700
  121SOPE   C2812835   0.555   3.141   5.525  0.6801 -0.1990  0.1848
  121SOPE   H8R12836   0.577   3.229   5.461 -2.0059  1.0819  0.8829
  121SOPE   H8S12837   0.626   3.062   5.494 -2.8139 -2.3137 -3.3829
  121SOPE   C2912838   0.415   3.094   5.491  0.5891 -0.3954  0.6905
  121SOPE   H9112839   0.334   3.110   5.563  0.7378  1.0988  0.5468
  121SOPE  C21012840   0.384   3.003   5.391 -0.0127 -0.7199 -0.4719
  121SOPE  H10112841   0.277   2.980   5.378 -0.3674  0.1039  0.7811
  121SOPE  C21112842   0.486   2.942   5.294  0.7241  0.4866 -0.0299
  121SOPE  H11R12843   0.555   3.021   5.258 -0.1196 -0.1475 -3.4266
  121SOPE  H11S12844   0.435   2.899   5.205 -1.1131  2.6982 -0.1427
  121SOPE  C21212845   0.561   2.826   5.352  0.6537  0.1668 -0.0930
  121SOPE  H12R12846   0.501   2.743   5.395 -0.8348  1.8374  1.2306
  121SOPE  H12S12847   0.619   2.871   5.435  1.9646 -0.5473 -0.6011
  121SOPE  C21312848   0.658   2.760   5.256 -0.0539  0.4312  0.2801
  121SOPE  H13R12849   0.600   2.684   5.199 -1.0454 -0.4887  2.4092
  121SOPE  H13S12850   0.733   2.715   5.326  1.7282  0.6413 -1.4152
  121SOPE  C21412851   0.746   2.844   5.159 -0.0188  0.5633 -0.0208
  121SOPE  H14R12852   0.812   2.907   5.221  1.9598 -0.2265 -1.2337
  121SOPE  H14S12853   0.687   2.910   5.092  2.3148  1.7469 -0.9923
  121SOPE  C21512854   0.834   2.771   5.057  0.0157  0.2027 -0.3922
  121SOPE  H15R12855   0.834   2.663   5.086  4.1960  0.5688  1.7289
  121SOPE  H15S12856   0.942   2.793   5.067  0.1312 -0.4621 -0.0721
  121SOPE  C21612857   0.790   2.783   4.911 -0.0297  0.0940 -0.2005
  121SOPE  H16R12858   0.871   2.752   4.842  0.1020 -0.5947  0.2595
  121SOPE  H16S12859   0.754   2.888   4.903  0.4822  0.2628 -0.3159
  121SOPE  C21712860   0.669   2.694   4.881 -0.6279 -0.1609  0.5112
  121SOPE  H17R12861   0.585   2.721   4.948 -0.2980  0.1722  0.7966
  121SOPE  H17S12862   0.703   2.592   4.911 -0.4829 -0.3577 -0.3116
  121SOPE  C21812863   0.634   2.697   4.731  0.7161  0.8092 -0.4042
  121SOPE  H18R12864   0.606   2.597   4.692  0.8997 -0.1455  1.7654
  121SOPE  H18S12865   0.726   2.730   4.677  0.7068  0.8911 -0.3702
  121SOPE  H18T12866   0.559   2.778   4.713 -0.2131  0.5311  1.8583
  121SOPE   C3312867   0.645   3.594   6.095  0.1455 -0.1713 -0.1810
  121SOPE   H3X12868   0.683   3.516   6.026  0.7109  0.4369 -0.5688
  121SOPE   H3Y12869   0.735   3.658   6.111  0.8396 -1.4129  1.0892
  121SOPE   C3412870   0.536   3.673   6.029 -0.2952 -0.2472  0.6121
  121SOPE   H4X12871   0.501   3.763   6.085  0.2986  1.8594 -2.1767
  121SOPE   H4Y12872   0.441   3.616   6.024 -1.1900  1.1102  1.4324
  121SOPE   C3512873   0.558   3.722   5.884 -0.9416 -0.4287  0.1735
  121SOPE   H5X12874   0.644   3.791   5.874 -0.1881 -1.3069  0.4866
  121SOPE   H5Y12875   0.466   3.776   5.854 -0.8646  0.4935  1.4940
  121SOPE   C3612876   0.572   3.611   5.777 -0.1343 -0.1584  0.3702
  121SOPE   H6X12877   0.480   3.549   5.766  1.5601 -2.6436 -0.8766
  121SOPE   H6Y12878   0.655   3.543   5.807 -1.2397 -1.7165  0.0432
  121SOPE   C3712879   0.610   3.679   5.635 -0.6140 -0.4484  0.1644
  121SOPE   H7X12880   0.689   3.619   5.585 -0.8251 -0.6725  0.0936
  121SOPE   H7Y12881   0.639   3.785   5.648 -2.9566  0.3962 -0.8794
  121SOPE   C3812882   0.485   3.676   5.543 -0.5186  0.3891 -0.3532
  121SOPE   H8X12883   0.497   3.759   5.471  0.0132  0.5871 -0.0395
  121SOPE   H8Y12884   0.400   3.689   5.614  0.9426  0.6002  1.4194
  121SOPE   C3912885   0.460   3.550   5.461 -0.6309 -0.4437 -0.2679
  121SOPE   H9X12886   0.366   3.567   5.405 -0.1937  1.4882 -0.4741
  121SOPE   H9Y12887   0.447   3.464   5.531 -0.6737 -1.0499 -1.0079
  121SOPE  C31012888   0.572   3.524   5.359 -0.0462 -0.0112 -0.2856
  121SOPE  H10X12889   0.543   3.430   5.307  0.4020 -1.0449  1.2823
  121SOPE  H10Y12890   0.672   3.505   5.402 -0.1372 -1.1483 -0.5402
  121SOPE  C31112891   0.584   3.641   5.256 -0.3689  1.2256  0.2463
  121SOPE  H11X12892   0.635   3.731   5.297 -0.1135  1.0523  0.3146
  121SOPE  H11Y12893   0.479   3.671   5.237 -0.5518 -0.4769 -1.7151
  121SOPE  C31212894   0.649   3.600   5.127 -0.3635  0.0782  0.6302
  121SOPE  H12X12895   0.587   3.532   5.064 -0.9291  3.1886 -2.4790
  121SOPE  H12Y12896   0.747   3.554   5.155  1.1227  2.0846 -0.9966
  121SOPE  C31312897   0.674   3.715   5.028  0.3368  0.2807 -0.4416
  121SOPE  H13X12898   0.720   3.797   5.087 -1.3584  0.1572  1.1435
  121SOPE  H13Y12899   0.580   3.759   4.987 -0.6419 -0.3373  1.0349
  121SOPE  C31412900   0.777   3.683   4.916  0.3600  0.2984 -0.3576
  121SOPE  H14X12901   0.743   3.607   4.843  1.2033  0.8218 -1.3216
  121SOPE  H14Y12902   0.861   3.621   4.954 -1.2909 -3.2557 -2.0616
  121SOPE  C31512903   0.821   3.799   4.844 -0.8368 -0.0138 -0.0708
  121SOPE  H15X12904   0.873   3.869   4.913  0.3076 -0.8516 -0.0517
  121SOPE  H15Y12905   0.738   3.864   4.809 -1.0588  0.5698  1.4549
  121SOPE  C31612906   0.920   3.763   4.735  0.0834  0.2703 -0.5266
  121SOPE  H16X12907   0.861   3.715   4.654 -1.2568  1.4163 -0.2598
  121SOPE  H16Y12908   0.999   3.692   4.769  1.8259  1.0156 -2.8036
  121SOPE  C31712909   0.994   3.878   4.659  0.3790 -0.6233 -0.0611
  121SOPE  H17X12910   1.030   3.952   4.734 -4.8918  0.8694  1.3918
  121SOPE  H17Y12911   0.908   3.924   4.605  1.6497  1.2703 -0.5765
  121SOPE  C31812912   1.089   3.835   4.552 -0.0490  1.0111  0.1734
  121SOPE  H18X12913   1.037   3.763   4.486 -0.1725 -0.5917  1.9269
  121SOPE  H18Y12914   1.184   3.789   4.586  0.4143  0.9015 -1.1873
  121SOPE  H18Z12915   1.125   3.929   4.506 -0.1737  1.1439  0.3470
  122SOPE     N12916   4.626   6.841   7.244 -0.4627  0.0900  0.8205
  122SOPE   HN112917   4.640   6.775   7.323 -3.7226 -1.8226 -0.0239
  122SOPE   HN212918   4.529   6.825   7.208  0.2078 -3.1818  0.1234
  122SOPE   HN312919   4.687   6.839   7.160 -0.9914 -1.2861  0.4444
  122SOPE   C1212920   4.654   6.981   7.284  0.3232 -0.1923  0.8234
  122SOPE  H12A12921   4.760   7.012   7.281 -0.2005  1.6564  0.0857
  122SOPE  H12B12922   4.608   7.001   7.384  0.3476  1.4074  0.5367
  122SOPE   C1112923   4.579   7.072   7.192  0.5540 -0.3470 -0.2979
  122SOPE  H11A12924   4.576   7.168   7.248 -0.2186 -0.2147 -0.5556
  122SOPE  H11B12925   4.475   7.036   7.185  0.5802 -0.8673  1.4867
  122SOPE     P12926   4.568   7.185   6.956 -0.2674  0.3161  0.0313
  122SOPE   O1312927   4.661   7.247   6.861  0.2075  0.5916  0.2452
  122SOPE   O1412928   4.477   7.274   7.027  0.4731 -0.4105  0.0214
  122SOPE   O1212929   4.645   7.101   7.068 -0.4577  0.0469 -0.7814
  122SOPE   O1112930   4.500   7.066   6.883 -0.0175  0.0278  0.3740
  122SOPE    C112931   4.592   6.958   6.831  0.1135 -0.9840 -0.0841
  122SOPE    HA12932   4.598   6.877   6.906  1.2626  0.6497  1.6926
  122SOPE    HB12933   4.696   6.996   6.822 -1.4414  4.0006  0.0279
  122SOPE    C212934   4.551   6.899   6.699  0.1999 -0.3690 -0.0017
  122SOPE    HS12935   4.646   6.891   6.641  1.3356  2.9183  1.1604
  122SOPE   O2112936   4.463   6.985   6.629 -0.7543 -0.1412  0.2093
  122SOPE   C2112937   4.514   7.095   6.575 -0.1199 -0.4361 -0.0597
  122SOPE   O2212938   4.633   7.101   6.539 -0.0996 -0.6210 -0.7922
  122SOPE   C2212939   4.408   7.204   6.550  0.6344 -0.3082 -0.0177
  122SOPE   H2R12940   4.408   7.252   6.650  1.4749 -0.4424  0.0545
  122SOPE   H2S12941   4.306   7.170   6.523 -0.0669  1.6101  0.0143
  122SOPE    C312942   4.498   6.751   6.701  0.1377  0.0617 -0.1053
  122SOPE    HX12943   4.392   6.757   6.735  1.1065 -0.0596  3.2481
  122SOPE    HY12944   4.555   6.686   6.771  2.0723  3.0837  1.3142
  122SOPE   O3112945   4.496   6.699   6.570 -0.1946 -0.7217 -0.1770
  122SOPE   C3112946   4.611   6.656   6.524  0.4828  0.0991  0.4079
  122SOPE   O3212947   4.716   6.646   6.581 -1.1035  0.2842 -0.2140
  122SOPE   C3212948   4.577   6.607   6.375 -0.7237 -0.7993 -0.9032
  122SOPE   H2X12949   4.488   6.658   6.334  0.6759  0.4828 -2.4728
  122SOPE   H2Y12950   4.553   6.499   6.390  0.8158 -0.9740  0.6662
  122SOPE   C2312951   4.454   7.302   6.446 -0.4730  0.0485  0.2028
  122SOPE   H3R12952   4.556   7.341   6.467 -0.5888 -0.2841  1.4337
  122SOPE   H3S12953   4.385   7.390   6.454 -1.7993 -1.0545  1.4610
  122SOPE   C2412954   4.436   7.251   6.301 -0.0869  0.0781 -0.2696
  122SOPE   H4R12955   4.471   7.146   6.292  0.7500  0.1098  1.8869
  122SOPE   H4S12956   4.329   7.265   6.278  0.1509  0.9934 -0.8672
  122SOPE   C2512957   4.522   7.336   6.206  0.1739  0.0083 -0.0225
  122SOPE   H5R12958   4.497   7.440   6.236 -2.8174 -0.6231 -0.0516
  122SOPE   H5S12959   4.633   7.330   6.214  0.1273  0.7774  1.4524
  122SOPE   C2612960   4.470   7.303   6.058  0.2902 -0.1909 -0.3111
  122SOPE   H6R12961   4.510   7.209   6.016 -0.0976 -0.8903  0.8582
  122SOPE   H6S12962   4.362   7.278   6.063  0.8144 -2.5676  0.3540
  122SOPE   C2712963   4.487   7.422   5.953  0.4048 -0.9967 -0.4754
  122SOPE   H7R12964   4.429   7.505   5.999 -0.6620 -2.1051  0.2510
  122SOPE   H7S12965   4.593   7.451   5.935  0.9010 -3.5178 -2.0436
  122SOPE   C2812966   4.430   7.388   5.812  0.2171  0.6079 -0.0024
  122SOPE   H8R12967   4.334   7.334   5.828  1.8063 -2.0750  1.3630
  122SOPE   H8S12968   4.409   7.486   5.766 -1.2303  0.4463  0.2665
  122SOPE   C2912969   4.527   7.304   5.737 -0.2151 -0.2692  0.7002
  122SOPE   H9112970   4.564   7.221   5.800 -2.5597 -0.0417  2.4942
  122SOPE  C21012971   4.551   7.313   5.607  0.2164 -0.4873 -0.2662
  122SOPE  H10112972   4.626   7.255   5.551  0.5969 -1.1128  0.8620
  122SOPE  C21112973   4.490   7.412   5.513 -0.4188 -0.3354 -0.1200
  122SOPE  H11R12974   4.572   7.444   5.445 -0.3687  0.0292  0.1064
  122SOPE  H11S12975   4.460   7.507   5.563  0.7908 -0.7982  1.5368
  122SOPE  C21212976   4.371   7.360   5.438  0.1403 -0.2939 -0.5349
  122SOPE  H12R12977   4.284   7.349   5.507 -0.5785  0.8367 -1.2117
  122SOPE  H12S12978   4.400   7.263   5.394 -0.4226 -0.7503  0.0747
  122SOPE  C21312979   4.315   7.454   5.336  0.7180 -0.1165  0.6854
  122SOPE  H13R12980   4.382   7.471   5.249 -0.9558  1.0365 -0.4503
  122SOPE  H13S12981   4.289   7.551   5.383  1.7375  0.2343  0.5520
  122SOPE  C21412982   4.178   7.405   5.267 -0.1751 -0.6506 -0.4602
  122SOPE  H14R12983   4.170   7.490   5.196 -0.6338  1.2232  1.6898
  122SOPE  H14S12984   4.090   7.398   5.335 -1.3291  2.0284 -1.5547
  122SOPE  C21512985   4.201   7.272   5.185  0.2300  0.4899 -0.6029
  122SOPE  H15R12986   4.211   7.197   5.266 -0.9358  2.1358  1.1326
  122SOPE  H15S12987   4.294   7.282   5.125  0.7932  2.0385  0.4671
  122SOPE  C21612988   4.072   7.249   5.107  0.3461 -0.0980  0.4188
  122SOPE  H16R12989   4.036   7.346   5.066 -1.5992 -1.5737 -1.5897
  122SOPE  H16S12990   3.993   7.214   5.177  0.7102 -2.6038 -0.3444
  122SOPE  C21712991   4.097   7.168   4.977  0.0449  0.5475 -0.5842
  122SOPE  H17R12992   4.181   7.219   4.924  0.1529  0.9375 -0.0401
  122SOPE  H17S12993   4.015   7.178   4.902 -0.0144  1.1434 -0.4417
  122SOPE  C21812994   4.120   7.014   4.995  0.0112  0.1782 -0.3813
  122SOPE  H18R12995   4.063   6.965   4.913 -0.9670 -0.2527  0.5199
  122SOPE  H18S12996   4.063   6.977   5.084 -0.5092  0.6598 -0.5056
  122SOPE  H18T12997   4.226   6.986   5.010  0.4744  1.1133 -1.6879
  122SOPE   C3312998   4.691   6.618   6.268 -0.1226  0.0943 -0.5689
  122SOPE   H3X12999   4.653   6.590   6.168 -1.0523 -1.4839  0.1793
  122SOPE   H3Y13000   4.768   6.542   6.293 -1.4652 -0.7796  1.1745
  122SOPE   C3413001   4.760   6.754   6.273 -0.6801 -0.2406  0.3764
  122SOPE   H4X13002   4.837   6.756   6.193 -1.3371  1.7188 -0.2690
  122SOPE   H4Y13003   4.813   6.757   6.370  1.3624  0.6429 -0.6908
  122SOPE   C3513004   4.664   6.883   6.253 -0.5165  0.1001  0.1653
  122SOPE   H5X13005   4.593   6.899   6.336  1.6963  0.7877  2.0343
  122SOPE   H5Y13006   4.605   6.850   6.165  0.8201 -1.9061 -0.0340
  122SOPE   C3613007   4.735   7.024   6.239 -0.2577  0.0341 -0.5024
  122SOPE   H6X13008   4.811   7.028   6.320 -0.6851 -0.5584 -0.0666
  122SOPE   H6Y13009   4.667   7.108   6.265  0.7826  1.2543 -1.5367
  122SOPE   C3713010   4.801   7.051   6.096  0.2832  0.1390 -0.2315
  122SOPE   H7X13011   4.723   7.027   6.020 -1.6839  1.0987  1.3766
  122SOPE   H7Y13012   4.877   6.971   6.096  0.5355  0.2352  3.1090
  122SOPE   C3813013   4.859   7.188   6.071 -0.5735 -0.3113 -0.6181
  122SOPE   H8X13014   4.934   7.200   6.152  0.6871 -1.2584 -1.6101
  122SOPE   H8Y13015   4.775   7.260   6.080 -1.3895 -1.3229  0.1291
  122SOPE   C3913016   4.912   7.218   5.932 -0.8456  0.2446  0.2599
  122SOPE   H9X13017   4.826   7.226   5.862 -1.1750  3.3362  0.8871
  122SOPE   H9Y13018   4.973   7.130   5.900 -0.8837  1.1575 -2.5837
  122SOPE  C31013019   4.969   7.356   5.910  0.5587 -0.3708  0.2494
  122SOPE  H10X13020   4.892   7.433   5.934 -1.1346 -1.7798 -0.4697
  122SOPE  H10Y13021   4.996   7.367   5.802  0.0315 -0.2825  0.1242
  122SOPE  C31113022   5.100   7.358   5.988  0.8870  0.5036 -0.3892
  122SOPE  H11X13023   5.179   7.303   5.934  1.6795  0.4844  0.7513
  122SOPE  H11Y13024   5.084   7.317   6.090  3.2730  1.3711  0.4189
  122SOPE  C31213025   5.159   7.500   6.008 -0.8275  0.4637 -0.0893
  122SOPE  H12X13026   5.244   7.495   6.081  0.9832 -2.7924 -2.1409
  122SOPE  H12Y13027   5.079   7.565   6.048 -2.9287 -2.3122  0.4990
  122SOPE  C31313028   5.225   7.561   5.889  0.1506  0.0489  0.1283
  122SOPE  H13X13029   5.140   7.605   5.833 -2.2339 -0.7405  2.9001
  122SOPE  H13Y13030   5.279   7.505   5.809 -1.2610  0.3167 -1.0447
  122SOPE  C31413031   5.311   7.683   5.921 -0.5701  0.1611 -0.3143
  122SOPE  H14X13032   5.418   7.661   5.942  0.4896  3.3166 -1.8653
  122SOPE  H14Y13033   5.275   7.739   6.010  1.3293  2.0265 -0.6452
  122SOPE  C31513034   5.296   7.788   5.804  0.1056 -0.1849 -0.5971
  122SOPE  H15X13035   5.189   7.817   5.801  0.1707  0.0434 -0.8201
  122SOPE  H15Y13036   5.322   7.740   5.707 -0.3849 -0.4459 -0.6025
  122SOPE  C31613037   5.392   7.907   5.824 -0.1450  0.4202  0.6042
  122SOPE  H16X13038   5.495   7.866   5.814  0.7684  2.6483  0.1169
  122SOPE  H16Y13039   5.384   7.941   5.929  3.1353  1.9005  0.5158
  122SOPE  C31713040   5.387   8.013   5.721 -0.5038 -0.1080 -0.2798
  122SOPE  H17X13041   5.294   8.074   5.726 -1.3275 -1.4269  3.2125
  122SOPE  H17Y13042   5.397   7.977   5.616  2.7497  0.2061 -0.1777
  122SOPE  C31813043   5.512   8.095   5.744 -0.3629  0.1901  0.4476
  122SOPE  H18X13044   5.516   8.140   5.846  1.2183  0.8015  0.1479
  122SOPE  H18Y13045   5.533   8.180   5.676  2.8327  0.3252  1.4394
  122SOPE  H18Z13046   5.606   8.037   5.731 -0.5071  0.1866 -0.6600
  123SOPE     N13047   1.289   6.240   2.252  1.0867  0.2509  0.0804
  123SOPE   HN113048   1.252   6.210   2.159 -0.3888 -0.1154  0.7458
  123SOPE   HN213049   1.297   6.344   2.251  0.8498  0.2754 -1.5146
  123SOPE   HN313050   1.387   6.208   2.263  0.5313 -1.9052 -0.7649
  123SOPE   C1213051   1.199   6.177   2.362 -2.0623  0.0796  0.3654
  123SOPE  H12A13052   1.217   6.069   2.346 -1.2536  0.2469  0.1153
  123SOPE  H12B13053   1.091   6.195   2.340 -2.0720  0.0943  0.4266
  123SOPE   C1113054   1.246   6.237   2.498  0.4268  0.0946  0.0291
  123SOPE  H11A13055   1.187   6.185   2.577  1.9186 -2.8469 -0.6690
  123SOPE  H11B13056   1.212   6.343   2.497 -2.7563 -0.6962  3.2213
  123SOPE     P13057   1.461   6.297   2.626 -0.3281 -0.1462 -0.3264
  123SOPE   O1313058   1.609   6.295   2.595  0.1619  0.0461  0.3211
  123SOPE   O1413059   1.415   6.245   2.754  0.0632  0.4255 -0.6671
  123SOPE   O1213060   1.384   6.216   2.519  0.6817 -0.0861 -0.1542
  123SOPE   O1113061   1.405   6.450   2.625  0.2965  0.1964  0.3945
  123SOPE    C113062   1.477   6.567   2.584 -0.6104  0.3276 -0.4037
  123SOPE    HA13063   1.402   6.649   2.587 -1.2552 -0.2778  0.6241
  123SOPE    HB13064   1.510   6.566   2.477 -1.0442  0.7192 -0.5435
  123SOPE    C213065   1.589   6.601   2.684  1.1534  0.7167  0.3053
  123SOPE    HS13066   1.670   6.526   2.686  2.0598  1.5183 -2.5244
  123SOPE   O2113067   1.520   6.630   2.813 -0.2356  0.3738 -0.0674
  123SOPE   C2113068   1.560   6.552   2.905 -0.0200  0.2574 -0.4218
  123SOPE   O2213069   1.654   6.471   2.898 -0.4054  0.0589  0.4417
  123SOPE   C2213070   1.475   6.567   3.040  0.8177  0.2428 -0.1475
  123SOPE   H2R13071   1.403   6.482   3.039 -1.2738  1.8952 -3.1967
  123SOPE   H2S13072   1.423   6.664   3.028 -0.6878 -0.5076  0.0619
  123SOPE    C313073   1.661   6.731   2.659 -0.1582  0.0252  0.8291
  123SOPE    HX13074   1.592   6.818   2.661  0.3976  0.5825 -1.1389
  123SOPE    HY13075   1.700   6.725   2.555 -1.4290 -0.4881  0.3609
  123SOPE   O3113076   1.766   6.747   2.753 -0.5704  0.0674  0.2722
  123SOPE   C3113077   1.884   6.705   2.716  0.5780  0.5304  0.1974
  123SOPE   O3213078   1.912   6.642   2.618  0.1288  0.2269  0.4739
  123SOPE   C3213079   1.990   6.746   2.823 -0.1312  0.2227  0.2300
  123SOPE   H2X13080   1.966   6.852   2.849  1.6230  0.5729  0.6087
  123SOPE   H2Y13081   2.096   6.736   2.789  0.3531 -0.4157  1.8239
  123SOPE   C2313082   1.556   6.566   3.171  0.1613 -0.0160  0.3512
  123SOPE   H3R13083   1.650   6.625   3.161  2.2324 -3.2673 -0.9559
  123SOPE   H3S13084   1.590   6.463   3.195  1.0955  0.0805 -0.5080
  123SOPE   C2413085   1.468   6.616   3.291  0.4963  0.8707 -0.0379
  123SOPE   H4R13086   1.448   6.725   3.277 -0.5475  0.5675 -1.0476
  123SOPE   H4S13087   1.369   6.567   3.299  1.1707 -0.1665  3.2579
  123SOPE   C2513088   1.546   6.613   3.415 -0.5408  0.8763 -0.3572
  123SOPE   H5R13089   1.565   6.506   3.439 -0.8463  0.8336 -0.3074
  123SOPE   H5S13090   1.645   6.664   3.408  0.5856 -1.2336 -0.6617
  123SOPE   C2613091   1.461   6.661   3.536 -0.0967 -0.2796 -0.5896
  123SOPE   H6R13092   1.414   6.761   3.527  2.6569  1.2313  0.6785
  123SOPE   H6S13093   1.376   6.590   3.544  1.1903 -1.7571  0.5791
  123SOPE   C2713094   1.542   6.657   3.672  1.1483 -0.3100  0.1008
  123SOPE   H7R13095   1.615   6.574   3.680  2.2938  0.1119 -3.7751
  123SOPE   H7S13096   1.601   6.749   3.692 -2.1976  1.4013  3.3562
  123SOPE   C2813097   1.431   6.661   3.781  0.0191 -0.7702  0.0595
  123SOPE   H8R13098   1.366   6.751   3.773 -0.4017 -0.5763  3.7290
  123SOPE   H8S13099   1.373   6.569   3.757  0.1307 -0.7190 -0.4195
  123SOPE   C2913100   1.487   6.656   3.919  0.2228 -0.5241 -0.0465
  123SOPE   H9113101   1.597   6.656   3.916  0.2806 -3.3820 -1.1488
  123SOPE  C21013102   1.415   6.656   4.037  0.3648 -0.3672  0.3783
  123SOPE  H10113103   1.472   6.656   4.131  0.1254  1.6036  0.5767
  123SOPE  C21113104   1.268   6.637   4.036  0.3284  0.2996 -0.3130
  123SOPE  H11R13105   1.222   6.621   3.936 -0.2476  0.2412 -0.0414
  123SOPE  H11S13106   1.226   6.730   4.079  1.2642  1.6091 -2.0969
  123SOPE  C21213107   1.229   6.512   4.125 -0.0454  0.3929  0.4131
  123SOPE  H12R13108   1.286   6.424   4.088  1.7428  0.1844  3.3664
  123SOPE  H12S13109   1.123   6.483   4.110  0.4817 -0.4583 -2.1691
  123SOPE  C21313110   1.246   6.533   4.279 -0.5035  0.3706  0.7439
  123SOPE  H13R13111   1.350   6.570   4.292 -0.0802 -0.7532  0.6229
  123SOPE  H13S13112   1.224   6.441   4.337  0.1516 -0.0845  0.2890
  123SOPE  C21413113   1.132   6.625   4.338  0.8072 -0.2528 -0.3687
  123SOPE  H14R13114   1.035   6.575   4.316  1.5537 -1.1390 -1.7316
  123SOPE  H14S13115   1.133   6.718   4.277  3.6354 -0.1196 -0.2489
  123SOPE  C21513116   1.149   6.671   4.484  0.5627  0.2315 -0.7776
  123SOPE  H15R13117   1.234   6.739   4.503 -1.0606  1.6440  2.0051
  123SOPE  H15S13118   1.179   6.583   4.545 -0.4258  0.9732  0.8147
  123SOPE  C21613119   1.015   6.711   4.555  0.4468 -0.2828 -0.4704
  123SOPE  H16R13120   0.948   6.622   4.565  2.9316 -2.2644 -0.3930
  123SOPE  H16S13121   0.959   6.770   4.480 -0.8191  0.3408  0.9213
  123SOPE  C21713122   1.048   6.778   4.686 -0.1154  0.6397 -0.7997
  123SOPE  H17R13123   0.959   6.810   4.744 -0.1400 -2.8741  1.3342
  123SOPE  H17S13124   1.107   6.867   4.654 -0.5658  1.1077 -0.3569
  123SOPE  C21813125   1.140   6.697   4.777  0.5016 -0.3933 -0.9660
  123SOPE  H18R13126   1.088   6.612   4.825 -0.8248 -0.2860 -2.1213
  123SOPE  H18S13127   1.176   6.765   4.857 -1.3030 -0.1918 -0.2742
  123SOPE  H18T13128   1.230   6.653   4.731  0.8535 -3.4655  2.2752
  123SOPE   C3313129   1.966   6.658   2.949  0.6118  0.0960 -0.0595
  123SOPE   H3X13130   2.003   6.555   2.931  2.6001  0.3278  2.1603
  123SOPE   H3Y13131   1.857   6.656   2.968  0.6292 -1.0994 -0.0184
  123SOPE   C3413132   2.036   6.719   3.074  0.6161  0.7183  0.1477
  123SOPE   H4X13133   2.010   6.826   3.093  0.9432  0.7174  0.6283
  123SOPE   H4Y13134   2.144   6.717   3.050  0.4456  0.8575 -0.6633
  123SOPE   C3513135   1.994   6.652   3.203  0.4526  0.3600  0.1688
  123SOPE   H5X13136   1.885   6.674   3.214  0.1498 -1.2919  0.6530
  123SOPE   H5Y13137   2.046   6.705   3.285  0.6430 -0.8016  0.8129
  123SOPE   C3613138   2.030   6.500   3.210 -0.0739 -0.1271 -0.3130
  123SOPE   H6X13139   2.135   6.475   3.188 -0.6070 -2.9818  0.0594
  123SOPE   H6Y13140   1.972   6.443   3.135  3.1753 -0.0344 -3.1067
  123SOPE   C3713141   2.002   6.437   3.350  0.3924  0.5466 -0.1833
  123SOPE   H7X13142   2.060   6.493   3.426 -0.6090 -0.1916  1.1634
  123SOPE   H7Y13143   2.033   6.330   3.355 -2.9490 -0.7172 -2.6943
  123SOPE   C3813144   1.852   6.439   3.384  0.1544 -0.2168  0.0217
  123SOPE   H8X13145   1.795   6.406   3.294  1.1301  2.3999 -1.6685
  123SOPE   H8Y13146   1.831   6.547   3.397  3.2123  0.3029  1.5264
  123SOPE   C3913147   1.815   6.359   3.507  0.3916  0.6132 -0.7634
  123SOPE   H9X13148   1.844   6.253   3.490  2.4162  1.3189 -1.9596
  123SOPE   H9Y13149   1.706   6.378   3.516  0.4192  1.2403 -1.6304
  123SOPE  C31013150   1.886   6.405   3.639 -0.2312  0.4203 -0.7090
  123SOPE  H10X13151   1.881   6.516   3.641  0.7373  0.5157 -2.1772
  123SOPE  H10Y13152   1.994   6.379   3.636 -0.7798 -2.7493  1.6020
  123SOPE  C31113153   1.812   6.349   3.763  0.0321  0.4803 -0.0659
  123SOPE  H11X13154   1.824   6.238   3.762 -0.5855  0.3880 -2.4331
  123SOPE  H11Y13155   1.703   6.366   3.750  0.5140  3.2496 -1.2015
  123SOPE  C31213156   1.863   6.399   3.904 -0.3137 -0.3231  0.4868
  123SOPE  H12X13157   1.861   6.510   3.908 -0.3506 -0.2446 -1.2313
  123SOPE  H12Y13158   1.969   6.368   3.915  0.6477  2.0074 -1.2623
  123SOPE  C31313159   1.785   6.340   4.021  0.1004  0.2904  0.3791
  123SOPE  H13X13160   1.791   6.229   4.016 -0.2317  0.2922 -0.0819
  123SOPE  H13Y13161   1.676   6.346   4.000  0.2574 -1.1252 -1.0295
  123SOPE  C31413162   1.824   6.392   4.155  0.4661 -0.1527 -0.2848
  123SOPE  H14X13163   1.800   6.498   4.180 -0.3847 -0.5196  0.4949
  123SOPE  H14Y13164   1.930   6.370   4.181  0.2693  0.5325  1.1915
  123SOPE  C31513165   1.753   6.315   4.278  0.6505  0.2899  0.1447
  123SOPE  H15X13166   1.823   6.322   4.364  0.0069  1.1361  0.6144
  123SOPE  H15Y13167   1.747   6.209   4.246  1.8306  0.0227  0.7472
  123SOPE  C31613168   1.622   6.386   4.328 -0.1691 -0.2236 -0.4295
  123SOPE  H16X13169   1.544   6.372   4.250 -1.9736  3.4746  0.5012
  123SOPE  H16Y13170   1.641   6.495   4.338  2.9458 -0.7431  0.4477
  123SOPE  C31713171   1.579   6.320   4.460  0.1838 -0.6727 -0.4124
  123SOPE  H17X13172   1.665   6.344   4.526 -0.9455  1.9694  0.2527
  123SOPE  H17Y13173   1.572   6.211   4.445  0.4872 -0.8566  0.7286
  123SOPE  C31813174   1.454   6.379   4.536 -0.5597 -0.0956  0.3544
  123SOPE  H18X13175   1.364   6.347   4.478 -1.2754 -1.9733  2.3676
  123SOPE  H18Y13176   1.463   6.490   4.547 -0.1947  0.0843 -1.4636
  123SOPE  H18Z13177   1.457   6.333   4.637 -0.0775  0.2595  0.5077
  124SOPE     N13178   1.738   2.701   2.543 -0.4957 -0.5705 -0.5920
  124SOPE   HN113179   1.742   2.597   2.538  0.8608 -0.5707 -0.1298
  124SOPE   HN213180   1.745   2.751   2.453  2.3689  0.2096 -0.0394
  124SOPE   HN313181   1.827   2.739   2.582 -1.4631  1.2565 -0.0606
  124SOPE   C1213182   1.630   2.753   2.633 -0.4121 -0.0302  0.3155
  124SOPE  H12A13183   1.541   2.755   2.566 -0.3860 -1.3771  0.2061
  124SOPE  H12B13184   1.666   2.854   2.662  0.8415 -0.3456 -0.0848
  124SOPE   C1113185   1.613   2.659   2.759  0.5789  0.2680  0.8099
  124SOPE  H11A13186   1.574   2.722   2.843  1.0453 -1.4688  2.4073
  124SOPE  H11B13187   1.709   2.622   2.801 -0.5185 -1.6980  1.7297
  124SOPE     P13188   1.411   2.491   2.819 -0.2565  0.4077  0.0343
  124SOPE   O1313189   1.414   2.345   2.827  0.1137 -0.2041 -0.2063
  124SOPE   O1413190   1.289   2.561   2.774  0.1500  0.0164  0.3325
  124SOPE   O1213191   1.531   2.540   2.728 -0.2666 -0.5052 -0.1953
  124SOPE   O1113192   1.454   2.550   2.966  0.0531  0.0487 -0.1655
  124SOPE    C113193   1.565   2.494   3.035  0.1270  0.6261  0.1835
  124SOPE    HA13194   1.662   2.536   3.001  0.7145 -0.9772 -0.1964
  124SOPE    HB13195   1.566   2.384   3.023 -1.0037  0.5821  0.4106
  124SOPE    C213196   1.561   2.520   3.189  0.3058 -0.2056  0.0549
  124SOPE    HS13197   1.663   2.502   3.229  0.4392 -2.5006 -1.1259
  124SOPE   O2113198   1.462   2.446   3.264  0.0417  0.0699  0.2868
  124SOPE   C2113199   1.496   2.320   3.297 -0.1457 -0.2396 -0.3316
  124SOPE   O2213200   1.598   2.265   3.267  0.1670  0.2499  0.0847
  124SOPE   C2213201   1.386   2.274   3.389 -1.0827  0.3326 -0.5086
  124SOPE   H2R13202   1.304   2.223   3.335 -0.0720 -0.8694 -0.9464
  124SOPE   H2S13203   1.345   2.355   3.453 -2.2036  0.3698 -1.2575
  124SOPE    C313204   1.535   2.671   3.213 -0.0774 -0.0720 -0.4591
  124SOPE    HX13205   1.433   2.703   3.182 -0.4285 -0.0785  0.6612
  124SOPE    HY13206   1.611   2.719   3.147 -0.2503 -2.2924 -2.3955
  124SOPE   O3113207   1.561   2.704   3.349 -0.2727  0.1732  0.2848
  124SOPE   C3113208   1.661   2.778   3.391  0.2138 -0.0325 -0.9193
  124SOPE   O3213209   1.745   2.822   3.311  0.3886  1.0583  0.4165
  124SOPE   C3213210   1.657   2.772   3.546 -0.8080  0.3107 -0.0268
  124SOPE   H2X13211   1.710   2.679   3.575 -1.4473  0.2842  1.1161
  124SOPE   H2Y13212   1.555   2.765   3.590  0.0734  2.2358  2.5284
  124SOPE   C2313213   1.439   2.163   3.486 -0.0560 -0.3490 -0.8805
  124SOPE   H3R13214   1.474   2.077   3.426  1.2057  0.0541 -0.7533
  124SOPE   H3S13215   1.349   2.132   3.544  1.4070  0.6905  2.1690
  124SOPE   C2413216   1.547   2.208   3.583 -0.6630  1.1042 -0.5087
  124SOPE   H4R13217   1.548   2.128   3.659  3.1807  1.5144  0.0599
  124SOPE   H4S13218   1.646   2.210   3.532 -0.3656  0.2178  0.0174
  124SOPE   C2513219   1.530   2.346   3.657 -0.2664  0.6141 -0.2173
  124SOPE   H5R13220   1.542   2.428   3.583 -1.7950 -1.1104 -2.5188
  124SOPE   H5S13221   1.421   2.353   3.682 -0.3625  1.0007 -0.7322
  124SOPE   C2613222   1.637   2.371   3.773  0.3664 -0.1335 -0.5268
  124SOPE   H6R13223   1.655   2.282   3.837  0.8826 -0.1739 -0.7174
  124SOPE   H6S13224   1.728   2.404   3.719 -0.6459  3.0869 -0.4893
  124SOPE   C2713225   1.590   2.486   3.867 -0.7645 -0.3625  0.3328
  124SOPE   H7R13226   1.557   2.568   3.800 -1.8506 -2.8555 -2.3774
  124SOPE   H7S13227   1.503   2.448   3.924 -2.1339  0.5045 -1.0804
  124SOPE   C2813228   1.711   2.526   3.964 -0.1891  0.6458  0.4530
  124SOPE   H8R13229   1.731   2.433   4.022 -2.1883 -1.0155 -1.3651
  124SOPE   H8S13230   1.794   2.545   3.894 -0.4824 -2.4910 -0.8931
  124SOPE   C2913231   1.689   2.647   4.047 -0.5379  0.4460 -0.6229
  124SOPE   H9113232   1.689   2.744   3.995  1.1625  0.6472 -0.2969
  124SOPE  C21013233   1.658   2.650   4.176  0.3411  0.6072  0.1595
  124SOPE  H10113234   1.637   2.743   4.232 -0.9754 -0.1620  0.9879
  124SOPE  C21113235   1.632   2.525   4.253 -0.6294  0.0823  0.3037
  124SOPE  H11R13236   1.714   2.450   4.241 -1.5291 -1.4796  3.0059
  124SOPE  H11S13237   1.540   2.464   4.244  0.3034 -1.5850  1.3547
  124SOPE  C21213238   1.630   2.565   4.399  0.4799 -0.1014  0.4124
  124SOPE  H12R13239   1.726   2.617   4.419  0.2804  0.6552 -0.5422
  124SOPE  H12S13240   1.629   2.472   4.461  2.5006 -0.4001  0.0729
  124SOPE  C21313241   1.512   2.660   4.433  0.1950 -0.4532  0.7574
  124SOPE  H13R13242   1.423   2.606   4.392  0.5315 -1.5985  1.4717
  124SOPE  H13S13243   1.509   2.753   4.372 -1.5112  0.4831  2.1756
  124SOPE  C21413244   1.499   2.683   4.583  0.1621  0.2893 -0.2616
  124SOPE  H14R13245   1.594   2.725   4.623 -0.6955  1.8190  0.2667
  124SOPE  H14S13246   1.472   2.583   4.624  0.7157 -0.2372 -1.1420
  124SOPE  C21513247   1.408   2.795   4.618  0.0301  0.4809  0.0634
  124SOPE  H15R13248   1.319   2.780   4.553  0.7548  3.9005 -1.9428
  124SOPE  H15S13249   1.451   2.892   4.585 -0.2978 -0.1318 -2.3876
  124SOPE  C21613250   1.367   2.808   4.764  0.3624  0.1084 -0.5301
  124SOPE  H16R13251   1.445   2.862   4.823  0.3133  0.0979 -0.4550
  124SOPE  H16S13252   1.349   2.710   4.814 -1.4674 -0.0280 -1.3842
  124SOPE  C21713253   1.219   2.861   4.773 -0.0277 -0.4622 -0.1995
  124SOPE  H17R13254   1.189   2.851   4.880 -0.0088  3.3629  0.2904
  124SOPE  H17S13255   1.153   2.803   4.705 -0.6081 -0.2646  0.1889
  124SOPE  C21813256   1.208   3.014   4.747 -0.3539 -0.0768  0.9488
  124SOPE  H18R13257   1.231   3.032   4.640 -0.2540  1.3487  1.1887
  124SOPE  H18S13258   1.276   3.073   4.812  1.3003 -0.0493 -0.7344
  124SOPE  H18T13259   1.106   3.052   4.771 -0.0837  0.4833  1.2164
  124SOPE   C3313260   1.737   2.896   3.601  0.5616 -0.7759 -0.5793
  124SOPE   H3X13261   1.693   2.993   3.568 -0.8183 -0.8270  0.9614
  124SOPE   H3Y13262   1.842   2.902   3.565  0.1477  0.6911 -1.6407
  124SOPE   C3413263   1.741   2.904   3.749 -1.1159 -0.4065 -0.5893
  124SOPE   H4X13264   1.808   2.828   3.796 -1.3564  0.6795  1.6379
  124SOPE   H4Y13265   1.645   2.883   3.801 -0.8944 -0.8223 -0.3430
  124SOPE   C3513266   1.792   3.038   3.793 -0.9091  0.1981 -0.4231
  124SOPE   H5X13267   1.725   3.117   3.753 -0.4574  2.8316  3.4096
  124SOPE   H5Y13268   1.890   3.045   3.742 -2.5262  0.5897 -3.6954
  124SOPE   C3613269   1.806   3.055   3.947 -0.2484  0.2541  0.8705
  124SOPE   H6X13270   1.856   2.961   3.979  1.0156  0.1455 -1.1923
  124SOPE   H6Y13271   1.707   3.060   3.996 -1.6505 -0.3192 -1.6905
  124SOPE   C3713272   1.894   3.180   3.979 -0.1271 -0.0411 -0.4973
  124SOPE   H7X13273   1.842   3.273   3.946 -0.1585  0.3679  0.6630
  124SOPE   H7Y13274   1.987   3.174   3.918 -0.7493 -0.6651 -1.4114
  124SOPE   C3813275   1.913   3.213   4.129  0.0805 -0.6862  0.6200
  124SOPE   H8X13276   1.976   3.304   4.139 -0.0334 -0.3541 -1.3920
  124SOPE   H8Y13277   1.973   3.128   4.166  0.6669 -0.8525 -0.6510
  124SOPE   C3913278   1.784   3.233   4.221  0.2806 -0.4810  0.4187
  124SOPE   H9X13279   1.731   3.135   4.221  0.3414 -0.5434  2.2740
  124SOPE   H9Y13280   1.712   3.308   4.183 -0.0746 -0.0298  1.9089
  124SOPE  C31013281   1.816   3.263   4.366  1.0414 -0.0402  0.6730
  124SOPE  H10X13282   1.719   3.268   4.420 -0.5136 -0.6645 -1.8765
  124SOPE  H10Y13283   1.879   3.355   4.376  0.2032  0.4450  1.6400
  124SOPE  C31113284   1.896   3.155   4.437  0.2679  0.2559 -0.1339
  124SOPE  H11X13285   1.990   3.148   4.379 -0.2790  2.7354 -1.4514
  124SOPE  H11Y13286   1.842   3.058   4.446 -2.0518  1.3796 -1.0184
  124SOPE  C31213287   1.946   3.195   4.579 -0.2573  0.0804 -0.2259
  124SOPE  H12X13288   2.009   3.285   4.564  0.4978 -0.6345 -1.6235
  124SOPE  H12Y13289   1.995   3.111   4.633 -2.3898 -0.5818  0.7784
  124SOPE  C31313290   1.830   3.225   4.678  0.1527  0.1300 -0.5731
  124SOPE  H13X13291   1.771   3.315   4.650 -1.3149 -0.3702  0.7707
  124SOPE  H13Y13292   1.856   3.238   4.786 -1.8570  1.2240 -0.1623
  124SOPE  C31413293   1.721   3.108   4.687  0.9281  0.6527 -0.1680
  124SOPE  H14X13294   1.750   3.002   4.699  0.5430  0.6996  1.3910
  124SOPE  H14Y13295   1.669   3.109   4.588  0.6835  1.9111 -0.0440
  124SOPE  C31513296   1.610   3.141   4.793 -1.0520 -0.2156  0.8818
  124SOPE  H15X13297   1.509   3.111   4.758 -0.1505 -1.3508 -0.8719
  124SOPE  H15Y13298   1.611   3.251   4.809  0.1479  0.3732 -2.5298
  124SOPE  C31613299   1.633   3.054   4.920  0.6889 -0.4832 -0.5716
  124SOPE  H16X13300   1.740   3.066   4.947  0.8359 -2.0652 -0.3407
  124SOPE  H16Y13301   1.604   2.951   4.888  0.5956 -1.3125  1.9244
  124SOPE  C31713302   1.545   3.088   5.038 -0.5990  0.0943 -0.1572
  124SOPE  H17X13303   1.440   3.065   5.011 -0.3052 -0.6809 -0.6930
  124SOPE  H17Y13304   1.554   3.196   5.060  1.4059  0.0819 -0.7731
  124SOPE  C31813305   1.576   3.007   5.170  0.0287 -0.4018  0.0442
  124SOPE  H18X13306   1.524   3.047   5.259  0.1150  0.5205 -0.3159
  124SOPE  H18Y13307   1.686   3.008   5.186  0.1600 -0.7328 -0.7752
  124SOPE  H18Z13308   1.545   2.902   5.151 -0.2773 -0.4166  0.6154
  125SOPE     N13309   1.168   2.805   2.872 -0.2226 -0.0905  0.3877
  125SOPE   HN113310   1.233   2.844   2.801  0.1344 -0.5239  0.4765
  125SOPE   HN213311   1.203   2.712   2.903  2.6406  0.5984 -0.5012
  125SOPE   HN313312   1.075   2.799   2.826 -0.0545 -0.8851  0.1462
  125SOPE   C1213313   1.148   2.906   2.981  0.5127 -1.6542 -0.5238
  125SOPE  H12A13314   1.056   2.884   3.039  1.1962  1.9018  2.3353
  125SOPE  H12B13315   1.142   3.006   2.932 -0.6161 -1.9049 -0.9031
  125SOPE   C1113316   1.273   2.913   3.082  0.3596  0.7342 -0.1110
  125SOPE  H11A13317   1.262   2.828   3.154 -1.1656 -1.2931 -2.5345
  125SOPE  H11B13318   1.255   3.005   3.141  0.9114 -0.5737  2.2109
  125SOPE     P13319   1.468   3.030   2.957  0.2703  0.3164 -0.0678
  125SOPE   O1313320   1.358   3.088   2.875 -0.9933  0.1789  0.5757
  125SOPE   O1413321   1.592   2.990   2.890 -0.0425 -0.6863  0.0971
  125SOPE   O1213322   1.406   2.903   3.029  0.0264 -0.1622 -0.2001
  125SOPE   O1113323   1.504   3.116   3.081  0.8465  0.1682 -0.7936
  125SOPE    C113324   1.572   3.066   3.199 -0.0557 -0.2194 -0.3941
  125SOPE    HA13325   1.656   2.998   3.173 -0.6425 -0.4988 -1.5971
  125SOPE    HB13326   1.502   3.009   3.263 -1.0662  1.1746 -0.2077
  125SOPE    C213327   1.635   3.184   3.272  0.4183 -0.0228  0.4550
  125SOPE    HS13328   1.662   3.260   3.197 -1.3359 -1.1791 -1.4649
  125SOPE   O2113329   1.752   3.153   3.349 -0.0788 -0.1740  0.0623
  125SOPE   C2113330   1.864   3.121   3.278 -0.5373  0.4165  0.1739
  125SOPE   O2213331   1.876   3.123   3.158  0.0039  0.1119 -0.5377
  125SOPE   C2213332   1.981   3.080   3.369 -0.0248 -0.1275  0.5424
  125SOPE   H2R13333   2.061   3.054   3.297 -2.1206  1.3219 -2.5124
  125SOPE   H2S13334   1.942   2.994   3.428 -1.4522 -0.5478 -0.9298
  125SOPE    C313335   1.522   3.245   3.359  0.3634 -0.2685 -0.6466
  125SOPE    HX13336   1.428   3.266   3.304 -1.6985  0.4375  2.7926
  125SOPE    HY13337   1.551   3.341   3.407  2.2100 -1.6035  1.0860
  125SOPE   O3113338   1.497   3.160   3.475  0.5221  0.2955  0.0457
  125SOPE   C3113339   1.370   3.141   3.511 -0.4135 -0.5429  0.0451
  125SOPE   O3213340   1.275   3.182   3.447 -0.5435 -0.1621 -0.6267
  125SOPE   C3213341   1.376   3.054   3.632 -0.5018 -0.1575  0.1382
  125SOPE   H2X13342   1.462   2.983   3.631  0.0662  0.5147  0.5504
  125SOPE   H2Y13343   1.290   2.983   3.630  1.1726 -2.3057 -1.8441
  125SOPE   C2313344   2.021   3.180   3.473 -0.2532  0.0743  0.2140
  125SOPE   H3R13345   1.935   3.212   3.535  1.2907  0.0597  2.5053
  125SOPE   H3S13346   2.068   3.270   3.427 -0.4970  0.5731  0.9268
  125SOPE   C2413347   2.133   3.108   3.561  0.2239  0.8472  0.7022
  125SOPE   H4R13348   2.108   3.004   3.592  0.3990  0.8015  0.6903
  125SOPE   H4S13349   2.215   3.092   3.488 -2.6433 -1.2384 -2.3434
  125SOPE   C2513350   2.166   3.191   3.681 -0.2358 -1.0385 -0.5004
  125SOPE   H5R13351   2.219   3.280   3.642 -1.5191  0.0390  0.1266
  125SOPE   H5S13352   2.073   3.222   3.734  1.1877  0.8464  1.0203
  125SOPE   C2613353   2.260   3.123   3.777 -1.0490  0.3633 -0.6569
  125SOPE   H6R13354   2.213   3.031   3.819 -0.7739  1.1262  1.4397
  125SOPE   H6S13355   2.356   3.097   3.727 -0.5280  3.1744 -1.3001
  125SOPE   C2713356   2.300   3.212   3.898 -0.2020 -0.0583 -0.4824
  125SOPE   H7R13357   2.357   3.298   3.858 -0.5220  1.8924  2.8420
  125SOPE   H7S13358   2.216   3.260   3.954  1.2200  1.0321  0.7863
  125SOPE   C2813359   2.386   3.142   3.999 -1.1139 -0.4492  0.1491
  125SOPE   H8R13360   2.452   3.064   3.955 -0.8317 -0.4380  0.5508
  125SOPE   H8S13361   2.441   3.228   4.045  1.7701 -0.1678 -3.3315
  125SOPE   C2913362   2.297   3.072   4.094  0.2596 -0.4866  0.1242
  125SOPE   H9113363   2.214   3.025   4.039  1.8118 -2.3280 -0.7589
  125SOPE  C21013364   2.293   3.082   4.225  0.2363 -0.4963 -0.8328
  125SOPE  H10113365   2.208   3.044   4.283 -0.4715  0.2729 -1.3539
  125SOPE  C21113366   2.389   3.168   4.303 -0.1657 -0.1556  0.2693
  125SOPE  H11R13367   2.385   3.277   4.280  1.1363  0.6192  3.2241
  125SOPE  H11S13368   2.496   3.139   4.293 -0.3042 -0.2033 -1.1845
  125SOPE  C21213369   2.364   3.156   4.455 -0.1482 -0.7103 -0.5033
  125SOPE  H12R13370   2.383   3.051   4.486  2.1628 -0.7095 -1.7057
  125SOPE  H12S13371   2.258   3.181   4.479 -0.1275 -1.5483  0.5190
  125SOPE  C21313372   2.456   3.255   4.532  1.1214  0.4630  0.6014
  125SOPE  H13R13373   2.424   3.358   4.504 -0.4348  0.3208  1.6891
  125SOPE  H13S13374   2.561   3.236   4.502 -0.2487 -1.9377 -3.5197
  125SOPE  C21413375   2.435   3.229   4.674  0.4441 -0.7654 -0.9303
  125SOPE  H14R13376   2.326   3.252   4.677  0.9547  1.9020 -0.5623
  125SOPE  H14S13377   2.479   3.314   4.730 -0.8811  0.8388 -2.2053
  125SOPE  C21513378   2.478   3.098   4.738 -0.2399  0.4771 -0.2971
  125SOPE  H15R13379   2.581   3.075   4.705 -1.0891 -1.2430 -1.9292
  125SOPE  H15S13380   2.405   3.015   4.722 -0.3127  0.2882  0.9138
  125SOPE  C21613381   2.479   3.102   4.896 -0.4987 -0.1830 -0.5672
  125SOPE  H16R13382   2.375   3.131   4.924 -2.2720 -1.5192 -4.8961
  125SOPE  H16S13383   2.545   3.181   4.937  2.7986 -2.7494 -0.5322
  125SOPE  C21713384   2.531   2.981   4.977 -0.0706 -0.0716  0.5971
  125SOPE  H17R13385   2.526   3.009   5.084  1.6426  0.6678  0.5189
  125SOPE  H17S13386   2.631   2.954   4.935 -0.0219  2.9560 -1.6457
  125SOPE  C21813387   2.442   2.855   4.963  0.5868  0.4898  0.2000
  125SOPE  H18R13388   2.339   2.876   5.000 -0.4620 -2.4547 -0.7899
  125SOPE  H18S13389   2.490   2.782   5.031  0.9123  1.6550  1.2632
  125SOPE  H18T13390   2.444   2.812   4.861  1.8521 -0.6664  0.6818
  125SOPE   C3313391   1.395   3.125   3.768 -0.1529  0.6335 -0.0747
  125SOPE   H3X13392   1.312   3.197   3.785 -1.7255 -1.0110 -0.4445
  125SOPE   H3Y13393   1.497   3.165   3.781  0.9809 -1.4181 -1.9967
  125SOPE   C3413394   1.377   3.015   3.877 -0.0477 -0.0079 -0.2068
  125SOPE   H4X13395   1.429   2.917   3.863 -1.1126 -0.4773 -1.0188
  125SOPE   H4Y13396   1.271   2.982   3.874  0.6583 -2.4693 -0.4835
  125SOPE   C3513397   1.416   3.075   4.011 -0.0133  0.1605 -0.2229
  125SOPE   H5X13398   1.348   3.160   4.034 -0.0736  0.1652 -0.4197
  125SOPE   H5Y13399   1.526   3.093   4.013  0.4080 -2.0973  0.0965
  125SOPE   C3613400   1.386   2.972   4.121 -0.6335 -0.8331  0.8475
  125SOPE   H6X13401   1.430   2.875   4.091  0.5208 -0.8366  2.4395
  125SOPE   H6Y13402   1.278   2.955   4.138 -0.8199  1.0375  1.8452
  125SOPE   C3713403   1.435   3.015   4.262 -0.1352 -0.4333 -0.1386
  125SOPE   H7X13404   1.544   3.010   4.281 -0.7063 -1.9001  3.5168
  125SOPE   H7Y13405   1.383   2.952   4.336  1.5035 -0.2923  1.1967
  125SOPE   C3813406   1.401   3.160   4.289 -0.0773  0.4309 -0.3361
  125SOPE   H8X13407   1.295   3.176   4.261  0.3122  0.0819 -2.1556
  125SOPE   H8Y13408   1.454   3.233   4.223 -0.4645  1.4869  0.4845
  125SOPE   C3913409   1.420   3.198   4.438  0.5573  0.6679 -0.0958
  125SOPE   H9X13410   1.528   3.211   4.463 -0.1848  1.7176  2.9919
  125SOPE   H9Y13411   1.381   3.110   4.494 -1.1939  0.5799 -1.3838
  125SOPE  C31013412   1.340   3.314   4.499  0.1205  0.6190 -0.4543
  125SOPE  H10X13413   1.233   3.289   4.482  0.6260 -2.0593 -0.0902
  125SOPE  H10Y13414   1.354   3.406   4.437 -0.9215  1.6977  0.8346
  125SOPE  C31113415   1.353   3.347   4.643  0.2721  0.4898  0.5224
  125SOPE  H11X13416   1.455   3.386   4.667  1.2112 -0.6252 -1.4323
  125SOPE  H11Y13417   1.339   3.251   4.697  0.3152 -0.6970 -1.4980
  125SOPE  C31213418   1.244   3.453   4.683 -0.2434 -0.2565  1.0390
  125SOPE  H12X13419   1.144   3.421   4.648  0.3438  0.2932 -1.3072
  125SOPE  H12Y13420   1.257   3.544   4.621 -0.0620 -2.6787 -2.7884
  125SOPE  C31313421   1.226   3.497   4.826 -0.3584  0.1153 -0.3925
  125SOPE  H13X13422   1.158   3.585   4.823  0.7091  1.0468  1.3209
  125SOPE  H13Y13423   1.332   3.523   4.849  0.1555  0.1983 -2.6423
  125SOPE  C31413424   1.180   3.379   4.915 -0.2078 -0.2710 -0.1896
  125SOPE  H14X13425   1.266   3.316   4.947  0.0337  0.1350 -0.0356
  125SOPE  H14Y13426   1.103   3.321   4.860  0.1710  0.2842 -1.3348
  125SOPE  C31513427   1.105   3.437   5.041  0.9472  0.0905 -0.9295
  125SOPE  H15X13428   1.047   3.531   5.027  2.5465  1.1204 -0.8304
  125SOPE  H15Y13429   1.178   3.452   5.123  1.7857  3.2214 -2.1327
  125SOPE  C31613430   1.001   3.342   5.111 -0.5209 -0.2616 -0.4137
  125SOPE  H16X13431   1.036   3.237   5.096 -1.4590 -0.6102 -0.2256
  125SOPE  H16Y13432   0.902   3.337   5.061 -0.6744  1.5433 -0.3304
  125SOPE  C31713433   0.974   3.373   5.256 -0.4880  0.6477  0.2407
  125SOPE  H17X13434   0.917   3.469   5.258 -1.1663  0.2585 -0.1797
  125SOPE  H17Y13435   1.064   3.386   5.320  1.5443 -1.6773 -1.9355
  125SOPE  C31813436   0.889   3.267   5.328  0.6339  0.3021 -0.7278
  125SOPE  H18X13437   0.860   3.300   5.430  2.0763  2.1422 -0.8474
  125SOPE  H18Y13438   0.951   3.175   5.335  0.3678  0.1767  0.0542
  125SOPE  H18Z13439   0.798   3.260   5.264  1.4551 -0.0210 -1.8989
  126SOPE     N13440   0.882   5.260   2.488  0.0020  0.1797  1.0820
  126SOPE   HN113441   0.865   5.237   2.588  1.2772 -1.1777  1.0265
  126SOPE   HN213442   0.836   5.186   2.432 -3.1550  0.2422  3.3069
  126SOPE   HN313443   0.983   5.265   2.462 -0.9102  2.6949 -2.8485
  126SOPE   C1213444   0.817   5.388   2.454 -0.0793  0.4235 -0.1080
  126SOPE  H12A13445   0.707   5.368   2.457  0.0296 -0.3614 -0.9258
  126SOPE  H12B13446   0.834   5.414   2.348  1.6567 -0.9692 -0.2166
  126SOPE   C1113447   0.865   5.508   2.545  0.7834  0.0680  0.4065
  126SOPE  H11A13448   0.843   5.475   2.649 -0.6706  1.3675  0.5610
  126SOPE  H11B13449   0.796   5.592   2.521  0.1674 -0.8156 -1.0834
  126SOPE     P13450   1.111   5.510   2.619  0.3707  0.3320  0.4951
  126SOPE   O1313451   1.237   5.561   2.559 -0.8023  0.0655  0.1104
  126SOPE   O1413452   1.093   5.366   2.625 -0.3369  0.4829 -0.2966
  126SOPE   O1213453   0.998   5.555   2.515  0.3221  0.1192  0.3868
  126SOPE   O1113454   1.081   5.587   2.750  0.2899  0.7925  0.2823
  126SOPE    C113455   1.080   5.726   2.744 -0.1222 -0.4309 -0.3352
  126SOPE    HA13456   0.997   5.770   2.803  0.5112  0.8110 -0.3354
  126SOPE    HB13457   1.063   5.769   2.643  0.6042  0.4549 -0.0987
  126SOPE    C213458   1.214   5.793   2.798 -0.1357 -0.2039 -0.6740
  126SOPE    HS13459   1.295   5.753   2.734 -0.6757 -2.0373 -0.2591
  126SOPE   O2113460   1.233   5.751   2.934  0.6831 -0.2932  0.0045
  126SOPE   C2113461   1.351   5.761   2.983 -0.9624  0.1640 -0.4451
  126SOPE   O2213462   1.452   5.812   2.933  0.0091  0.4995  0.4102
  126SOPE   C2213463   1.343   5.719   3.127  0.3775 -0.4791  0.3728
  126SOPE   H2R13464   1.277   5.629   3.132 -1.7515  1.0297  0.6034
  126SOPE   H2S13465   1.302   5.806   3.182  1.1546  1.0275 -1.3133
  126SOPE    C313466   1.192   5.948   2.786 -0.1705 -0.6208 -0.5203
  126SOPE    HX13467   1.177   5.973   2.679 -3.3019  0.1933  0.0282
  126SOPE    HY13468   1.282   6.001   2.826 -0.2202 -1.3433  0.6181
  126SOPE   O3113469   1.064   5.989   2.852 -0.6313 -0.0897  0.9609
  126SOPE   C3113470   1.060   6.009   2.979 -0.2182 -0.1147 -0.5154
  126SOPE   O3213471   1.155   6.014   3.058 -0.2632  0.2203 -0.6378
  126SOPE   C3213472   0.913   6.039   3.010  0.8837  0.1361 -0.5504
  126SOPE   H2X13473   0.862   5.941   3.002  2.7228 -0.7347 -2.3917
  126SOPE   H2Y13474   0.865   6.108   2.938 -2.1584 -1.8939 -0.6408
  126SOPE   C2313475   1.477   5.684   3.182 -0.6328  0.2042  0.6006
  126SOPE   H3R13476   1.560   5.751   3.151 -2.0302  1.6093 -0.2514
  126SOPE   H3S13477   1.513   5.586   3.144 -2.6995 -0.1289 -0.6262
  126SOPE   C2413478   1.480   5.680   3.332  0.3094 -0.6440  0.2904
  126SOPE   H4R13479   1.468   5.778   3.382  2.0241  0.4459 -1.2981
  126SOPE   H4S13480   1.406   5.603   3.364  1.1221 -1.6663 -0.2312
  126SOPE   C2513481   1.614   5.633   3.393  0.0156 -0.0928 -0.3820
  126SOPE   H5R13482   1.662   5.549   3.339 -0.1459 -1.1316  1.0338
  126SOPE   H5S13483   1.687   5.717   3.397 -0.4612  0.2933  2.6250
  126SOPE   C2613484   1.602   5.606   3.545 -0.2028 -0.3465 -0.1642
  126SOPE   H6R13485   1.601   5.708   3.590 -1.8620 -0.4291  0.0523
  126SOPE   H6S13486   1.505   5.561   3.575  0.6909 -1.8383  0.5964
  126SOPE   C2713487   1.730   5.532   3.591 -0.4543 -0.1989  0.3402
  126SOPE   H7R13488   1.721   5.429   3.550  0.6386 -0.0038 -0.4559
  126SOPE   H7S13489   1.817   5.579   3.539  0.2209 -0.5387  1.1455
  126SOPE   C2813490   1.772   5.542   3.747 -0.7823 -0.3453 -0.2360
  126SOPE   H8R13491   1.827   5.634   3.774 -1.6221  0.2211 -0.4046
  126SOPE   H8S13492   1.677   5.543   3.805 -0.8068  0.7857 -0.2757
  126SOPE   C2913493   1.857   5.421   3.786  0.4485  0.0574  0.1268
  126SOPE   H9113494   1.874   5.347   3.706  0.6845 -2.3579  2.2572
  126SOPE  C21013495   1.911   5.390   3.905 -0.0543 -0.3447  0.2014
  126SOPE  H10113496   1.963   5.295   3.922 -0.7530 -0.3026  3.0804
  126SOPE  C21113497   1.892   5.470   4.033 -0.3751 -0.0892 -0.4436
  126SOPE  H11R13498   1.846   5.567   4.004 -0.4550  0.1389  0.4067
  126SOPE  H11S13499   1.996   5.502   4.056 -1.3493  2.4703  0.8156
  126SOPE  C21213500   1.826   5.402   4.156 -0.2666 -0.4435  0.4622
  126SOPE  H12R13501   1.897   5.321   4.183 -1.8144 -2.0839 -0.2121
  126SOPE  H12S13502   1.729   5.356   4.128 -0.6391 -0.9426  2.4052
  126SOPE  C21313503   1.803   5.505   4.271  0.0582 -0.0084 -0.0886
  126SOPE  H13R13504   1.731   5.578   4.227  0.6517  0.5304 -0.1800
  126SOPE  H13S13505   1.891   5.565   4.301 -1.3625  0.7825  2.8779
  126SOPE  C21413506   1.732   5.429   4.385  0.4063 -0.2197  0.2804
  126SOPE  H14R13507   1.656   5.361   4.340  0.1342 -1.0576  1.9222
  126SOPE  H14S13508   1.682   5.513   4.438  0.5661  0.4058 -0.5371
  126SOPE  C21513509   1.823   5.349   4.467  0.0722  0.5069  0.2280
  126SOPE  H15R13510   1.887   5.413   4.532  0.8606 -0.8925  0.8897
  126SOPE  H15S13511   1.892   5.294   4.400  0.6192  0.9399  0.4270
  126SOPE  C21613512   1.753   5.252   4.565  0.4479 -0.5354 -0.6303
  126SOPE  H16R13513   1.692   5.180   4.507 -0.2807 -0.3750 -0.0714
  126SOPE  H16S13514   1.676   5.308   4.621  0.3656  1.4104 -2.5422
  126SOPE  C21713515   1.854   5.180   4.658 -0.8970 -0.1160 -0.2436
  126SOPE  H17R13516   1.913   5.249   4.721 -0.8434  1.7150 -2.1856
  126SOPE  H17S13517   1.925   5.122   4.597  0.6979  3.7389 -2.4133
  126SOPE  C21813518   1.780   5.102   4.767 -0.0174  0.2032 -0.1514
  126SOPE  H18R13519   1.736   5.008   4.726  0.1964  0.6763 -1.5077
  126SOPE  H18S13520   1.702   5.166   4.813  0.3413  2.1120 -2.0556
  126SOPE  H18T13521   1.844   5.087   4.856 -1.7752  1.2080  1.3589
  126SOPE   C3313522   0.904   6.096   3.150  0.0262  0.2521  0.1044
  126SOPE   H3X13523   0.963   6.190   3.156 -1.8034  1.5807 -1.4235
  126SOPE   H3Y13524   0.939   6.020   3.223 -0.6836 -0.2916 -0.1152
  126SOPE   C3413525   0.761   6.130   3.189 -0.3763 -0.1482 -0.2178
  126SOPE   H4X13526   0.694   6.042   3.173 -0.0309 -0.4585  0.0150
  126SOPE   H4Y13527   0.722   6.200   3.113  2.5301  2.0424  0.1652
  126SOPE   C3513528   0.756   6.194   3.331  0.6456 -1.6115  0.6059
  126SOPE   H5X13529   0.655   6.224   3.366  0.9449  0.4989 -0.1732
  126SOPE   H5Y13530   0.808   6.292   3.320 -1.1782 -0.6694 -0.0038
  126SOPE   C3613531   0.827   6.127   3.445  0.1238 -0.3372 -0.2490
  126SOPE   H6X13532   0.928   6.086   3.423  0.0427 -0.2854 -0.7200
  126SOPE   H6Y13533   0.764   6.042   3.480  0.3632 -0.4363 -0.0609
  126SOPE   C3713534   0.839   6.231   3.559 -0.2845 -0.1843 -0.2829
  126SOPE   H7X13535   0.735   6.271   3.567 -0.2151 -0.3970  2.4984
  126SOPE   H7Y13536   0.899   6.319   3.526 -0.3111 -0.2751 -0.5798
  126SOPE   C3813537   0.861   6.170   3.694  0.2616 -0.0131 -0.1912
  126SOPE   H8X13538   0.919   6.075   3.684 -0.2304 -0.2795 -0.5191
  126SOPE   H8Y13539   0.762   6.135   3.729  0.2238  0.6652  0.4101
  126SOPE   C3913540   0.925   6.266   3.793 -0.0658 -0.1894 -0.5580
  126SOPE   H9X13541   0.842   6.340   3.796  0.8610  0.8567  1.4753
  126SOPE   H9Y13542   1.023   6.299   3.752  0.0088 -0.2640 -0.4397
  126SOPE  C31013543   0.934   6.214   3.938  0.5442  0.5108 -0.4021
  126SOPE  H10X13544   1.011   6.264   4.001 -1.8327  0.3998  2.8283
  126SOPE  H10Y13545   0.970   6.109   3.929  0.9142  0.5489  0.5399
  126SOPE  C31113546   0.808   6.228   4.023  0.6640 -0.0908  0.2921
  126SOPE  H11X13547   0.738   6.146   3.996  0.5825 -0.1277  0.6108
  126SOPE  H11Y13548   0.755   6.322   3.996  1.8119  1.5991  3.3631
  126SOPE  C31213549   0.827   6.241   4.169 -0.2018  0.6365 -0.0482
  126SOPE  H12X13550   0.733   6.266   4.224  1.1879  1.2854  2.1641
  126SOPE  H12Y13551   0.900   6.319   4.198 -0.3611  0.6839  0.2326
  126SOPE  C31313552   0.877   6.117   4.243 -0.1849  0.3431 -0.5470
  126SOPE  H13X13553   0.988   6.122   4.243 -0.2044  1.7152 -2.0104
  126SOPE  H13Y13554   0.837   6.024   4.197 -1.1727  1.0993 -1.2844
  126SOPE  C31413555   0.838   6.125   4.394  0.5053 -0.2195 -0.1179
  126SOPE  H14X13556   0.838   6.018   4.425  1.3439 -0.6970 -1.6699
  126SOPE  H14Y13557   0.736   6.168   4.405  0.3882 -0.2583 -0.9931
  126SOPE  C31513558   0.952   6.187   4.478 -0.1882 -0.4481  0.2003
  126SOPE  H15X13559   0.958   6.293   4.445  1.1424 -0.5388  0.0986
  126SOPE  H15Y13560   1.050   6.136   4.462 -0.2585 -0.8219  0.9306
  126SOPE  C31613561   0.929   6.192   4.628 -0.3090 -0.0579 -0.2915
  126SOPE  H16X13562   1.017   6.238   4.677 -0.7338  0.4674 -0.0045
  126SOPE  H16Y13563   0.920   6.088   4.667  0.7256  0.7522  2.3738
  126SOPE  C31713564   0.810   6.267   4.682 -0.0048  0.0179  0.1559
  126SOPE  H17X13565   0.713   6.218   4.658 -0.2693  0.6174 -0.0418
  126SOPE  H17Y13566   0.807   6.368   4.634 -2.8706  0.8074  1.7451
  126SOPE  C31813567   0.812   6.286   4.832  0.1045  0.7578  0.1779
  126SOPE  H18X13568   0.805   6.186   4.880  0.3128 -0.1590 -1.6315
  126SOPE  H18Y13569   0.729   6.356   4.856 -0.2873  0.8792 -1.4285
  126SOPE  H18Z13570   0.901   6.341   4.870  0.3067 -0.6010  1.7858
  127SOPE     N13571   2.561   4.903   2.730  0.7144 -0.3635 -0.3583
  127SOPE   HN113572   2.565   4.851   2.820  0.8744 -0.6607 -0.5331
  127SOPE   HN213573   2.642   4.880   2.670  0.2592  0.0316 -1.1476
  127SOPE   HN313574   2.558   5.003   2.756 -0.2275 -0.7627  1.2186
  127SOPE   C1213575   2.433   4.866   2.662 -0.1138 -0.4134 -0.0220
  127SOPE  H12A13576   2.423   4.756   2.677  0.4528 -0.5094 -0.3111
  127SOPE  H12B13577   2.436   4.893   2.554  2.4385  2.1436  0.5610
  127SOPE   C1113578   2.318   4.930   2.738 -0.0481  0.3597  0.1922
  127SOPE  H11A13579   2.317   4.896   2.844 -0.9899  0.1377  0.1243
  127SOPE  H11B13580   2.230   4.892   2.682 -1.5874  0.4256  2.4335
  127SOPE     P13581   2.213   5.158   2.816 -0.1445 -0.4271  0.3733
  127SOPE   O1313582   2.073   5.148   2.769  0.7705 -0.0099 -0.1546
  127SOPE   O1413583   2.270   5.293   2.831 -0.6329 -0.3092  0.0692
  127SOPE   O1213584   2.306   5.072   2.726  0.1826  0.3683  0.4504
  127SOPE   O1113585   2.227   5.091   2.956 -0.3431 -0.2316  0.1046
  127SOPE    C113586   2.132   5.028   3.035 -0.6956  0.0585  0.8149
  127SOPE    HA13587   2.191   4.965   3.104  0.8245  0.7292  0.1671
  127SOPE    HB13588   2.078   4.954   2.971  0.2403  0.7195 -0.8252
  127SOPE    C213589   2.038   5.123   3.110 -0.1649  0.3584 -0.5151
  127SOPE    HS13590   1.992   5.193   3.037 -0.9897 -0.9833 -1.3335
  127SOPE   O2113591   2.126   5.200   3.199  0.5161  0.4835  0.1090
  127SOPE   C2113592   2.087   5.324   3.214 -0.2071 -0.2748 -0.3646
  127SOPE   O2213593   1.982   5.368   3.181  0.4932  0.3015 -0.0927
  127SOPE   C2213594   2.185   5.402   3.303  1.1422  0.8448  0.0837
  127SOPE   H2R13595   2.152   5.509   3.305 -0.1642  0.4576  0.5687
  127SOPE   H2S13596   2.285   5.407   3.257  1.0821 -0.4165 -0.2076
  127SOPE    C313597   1.920   5.064   3.175  0.1747 -0.6298  0.0711
  127SOPE    HX13598   1.874   5.006   3.092 -0.4632 -0.7682  0.5149
  127SOPE    HY13599   1.850   5.147   3.198 -1.7388 -0.7631 -4.2008
  127SOPE   O3113600   1.960   4.972   3.282 -0.1780 -0.3618 -0.0421
  127SOPE   C3113601   1.969   5.029   3.405  0.1206 -0.4523 -0.3477
  127SOPE   O3213602   1.912   5.129   3.441  0.4410  0.2155  0.0117
  127SOPE   C3213603   2.080   4.963   3.485  0.2912  0.1246  0.6092
  127SOPE   H2X13604   2.182   4.988   3.448  0.4826 -0.3304  0.8176
  127SOPE   H2Y13605   2.074   4.852   3.478 -1.2944  0.1609  1.0165
  127SOPE   C2313606   2.185   5.347   3.445 -0.3251 -0.5761  0.0716
  127SOPE   H3R13607   2.228   5.245   3.442  1.0258 -0.0270  0.2313
  127SOPE   H3S13608   2.080   5.334   3.477 -0.8895  1.3647 -0.8146
  127SOPE   C2413609   2.267   5.429   3.543  0.5447  0.2438 -0.3202
  127SOPE   H4R13610   2.377   5.437   3.532  1.0194  0.0175  3.0077
  127SOPE   H4S13611   2.247   5.538   3.541  0.3693  0.2191 -0.0335
  127SOPE   C2513612   2.229   5.387   3.688 -0.2383  0.0887 -0.4786
  127SOPE   H5R13613   2.140   5.442   3.725  1.7462  1.8758  2.0260
  127SOPE   H5S13614   2.210   5.278   3.698 -0.5213  0.2534  1.0689
  127SOPE   C2613615   2.337   5.422   3.786 -0.5331 -0.0443  0.2585
  127SOPE   H6R13616   2.311   5.384   3.887  2.3155  0.0572  1.1208
  127SOPE   H6S13617   2.437   5.383   3.757 -0.2453  1.3304 -0.7105
  127SOPE   C2713618   2.336   5.571   3.812 -0.5240 -0.5916  1.0434
  127SOPE   H7R13619   2.374   5.619   3.719  1.2218 -1.7332  1.1153
  127SOPE   H7S13620   2.234   5.602   3.844 -0.4852 -0.7933  1.3692
  127SOPE   C2813621   2.432   5.629   3.923  0.5672 -0.0142  0.4650
  127SOPE   H8R13622   2.416   5.557   4.006  0.2909 -0.5425 -0.0424
  127SOPE   H8S13623   2.540   5.640   3.897  0.5492  1.6853  0.9643
  127SOPE   C2913624   2.392   5.771   3.964 -0.9508  0.6569 -1.0485
  127SOPE   H9113625   2.458   5.848   3.922 -0.1094  0.9223  0.7138
  127SOPE  C21013626   2.300   5.812   4.044  0.5966 -0.2558  0.3561
  127SOPE  H10113627   2.287   5.921   4.050 -0.8735 -0.3710 -0.1942
  127SOPE  C21113628   2.204   5.725   4.120  0.7161 -0.4567 -0.1845
  127SOPE  H11R13629   2.257   5.656   4.190 -1.9225  0.0460  2.5007
  127SOPE  H11S13630   2.144   5.662   4.051 -3.9066  1.5233  1.6305
  127SOPE  C21213631   2.105   5.804   4.207  0.5339  0.5147 -0.3664
  127SOPE  H12R13632   2.035   5.728   4.249  1.8665  0.1518  1.2649
  127SOPE  H12S13633   2.050   5.862   4.130  1.3290  0.4562 -0.9945
  127SOPE  C21313634   2.161   5.882   4.324 -0.1274 -0.2369 -0.3985
  127SOPE  H13R13635   2.233   5.958   4.285 -0.1798 -0.1298 -0.2849
  127SOPE  H13S13636   2.225   5.829   4.398  0.8363  2.4763  0.8556
  127SOPE  C21413637   2.064   5.963   4.405  0.2226  0.3046  0.6294
  127SOPE  H14R13638   1.972   5.904   4.427  0.8056 -0.6399  0.5770
  127SOPE  H14S13639   2.042   6.056   4.347  1.4668  0.5031  0.4553
  127SOPE  C21513640   2.125   6.005   4.542  0.6595 -0.0502  0.1849
  127SOPE  H15R13641   2.227   6.037   4.510  0.7207  1.0990  1.4445
  127SOPE  H15S13642   2.139   5.915   4.606  0.6876 -1.1301 -1.2941
  127SOPE  C21613643   2.044   6.112   4.618  0.5887  0.7706  0.0862
  127SOPE  H16R13644   1.993   6.188   4.556 -0.0883 -1.4412 -2.2535
  127SOPE  H16S13645   2.122   6.165   4.676  0.6467  0.3293  0.4183
  127SOPE  C21713646   1.946   6.060   4.718 -1.1112  0.2180 -0.4082
  127SOPE  H17R13647   1.993   5.983   4.783 -0.8363  0.6219 -0.1179
  127SOPE  H17S13648   1.859   6.029   4.658 -0.9914  1.5814 -1.3283
  127SOPE  C21813649   1.888   6.170   4.798  0.4349  0.0877 -0.3462
  127SOPE  H18R13650   1.968   6.207   4.867  2.6504 -4.2443 -0.2425
  127SOPE  H18S13651   1.815   6.133   4.873  0.9934 -1.0413 -0.3396
  127SOPE  H18T13652   1.849   6.252   4.735 -0.0964  1.1567  1.2887
  127SOPE   C3313653   2.084   5.011   3.636  0.2799 -0.3520  0.5384
  127SOPE   H3X13654   1.991   4.975   3.687 -1.2898  0.8768 -1.3301
  127SOPE   H3Y13655   2.093   5.121   3.635 -1.5358 -0.1688  0.1473
  127SOPE   C3413656   2.206   4.959   3.720  0.4231  0.4277 -0.4444
  127SOPE   H4X13657   2.306   4.985   3.679  2.2339 -1.7714  2.2004
  127SOPE   H4Y13658   2.192   4.850   3.736 -1.4039  1.0071  2.8246
  127SOPE   C3513659   2.200   5.017   3.865  0.0627 -0.3625  0.0134
  127SOPE   H5X13660   2.099   4.990   3.904 -0.3443 -0.6719 -1.2223
  127SOPE   H5Y13661   2.207   5.127   3.855  0.9427 -0.5814 -2.1012
  127SOPE   C3613662   2.307   4.976   3.968  0.1006  0.2450  0.8102
  127SOPE   H6X13663   2.400   4.963   3.910 -0.1859 -0.9379  0.5755
  127SOPE   H6Y13664   2.291   4.875   4.013 -0.0715  0.4176  1.1408
  127SOPE   C3713665   2.332   5.084   4.071 -0.3061 -0.6061  0.6805
  127SOPE   H7X13666   2.320   5.187   4.031 -1.0977 -1.8869 -2.7996
  127SOPE   H7Y13667   2.431   5.062   4.115 -0.1647 -1.7466 -0.1505
  127SOPE   C3813668   2.224   5.075   4.176  0.2159 -0.1852 -0.7861
  127SOPE   H8X13669   2.206   4.969   4.205 -1.0715  0.4097  0.7786
  127SOPE   H8Y13670   2.124   5.114   4.148 -0.9178 -1.9756  0.5022
  127SOPE   C3913671   2.254   5.150   4.308 -0.1392 -0.9917  0.0635
  127SOPE   H9X13672   2.341   5.104   4.360  0.1279 -0.8956 -0.2995
  127SOPE   H9Y13673   2.176   5.146   4.387  0.6107 -0.4273  0.8494
  127SOPE  C31013674   2.298   5.292   4.277  0.6739 -0.8254  0.0834
  127SOPE  H10X13675   2.213   5.357   4.246  0.1310 -1.7514 -0.3883
  127SOPE  H10Y13676   2.372   5.313   4.197 -2.0782  0.5560 -2.2460
  127SOPE  C31113677   2.339   5.371   4.406  0.1495  0.3589 -0.4873
  127SOPE  H11X13678   2.402   5.453   4.363  4.9780 -2.3684  0.6468
  127SOPE  H11Y13679   2.411   5.304   4.457 -0.3232  0.3060  0.1227
  127SOPE  C31213680   2.233   5.422   4.500 -0.2928  0.3486 -0.0141
  127SOPE  H12X13681   2.177   5.338   4.545  0.9376  1.2052  3.3749
  127SOPE  H12Y13682   2.156   5.481   4.446 -0.4140  2.0242  1.9088
  127SOPE  C31313683   2.295   5.513   4.609 -0.2130 -0.4724 -0.6454
  127SOPE  H13X13684   2.347   5.602   4.569  2.0314  1.0195  4.7065
  127SOPE  H13Y13685   2.382   5.472   4.665 -0.8305  0.4638  1.1012
  127SOPE  C31413686   2.191   5.548   4.718 -0.5138  0.3534  0.4010
  127SOPE  H14X13687   2.172   5.453   4.771 -1.3883  1.2789  1.8148
  127SOPE  H14Y13688   2.092   5.585   4.683 -0.9634  1.3995  2.6462
  127SOPE  C31513689   2.241   5.664   4.810 -0.1696  0.7831 -0.4913
  127SOPE  H15X13690   2.148   5.700   4.859 -0.1088 -0.8365  0.8853
  127SOPE  H15Y13691   2.284   5.752   4.756 -0.5142  0.4121 -1.3927
  127SOPE  C31613692   2.338   5.600   4.907 -0.0800 -0.3301 -0.1223
  127SOPE  H16X13693   2.428   5.563   4.854 -1.0652 -1.2860 -1.1874
  127SOPE  H16Y13694   2.283   5.517   4.956  0.6932 -1.0377 -0.4285
  127SOPE  C31713695   2.384   5.689   5.026  0.3998 -0.6185  0.3121
  127SOPE  H17X13696   2.296   5.737   5.074  0.3397 -0.8294  0.4133
  127SOPE  H17Y13697   2.448   5.761   4.969  0.1220 -0.8767 -0.3358
  127SOPE  C31813698   2.458   5.623   5.140  0.2787  0.0539  0.7111
  127SOPE  H18X13699   2.561   5.602   5.106  1.6694  2.5219  2.9504
  127SOPE  H18Y13700   2.416   5.523   5.165 -0.0992 -0.7963 -2.8468
  127SOPE  H18Z13701   2.467   5.677   5.237  3.4149  1.3687 -0.2071
  128SOPE     N13702   5.562   3.728   2.589  0.0175 -0.7899 -0.0273
  128SOPE   HN113703   5.497   3.665   2.538 -0.5503 -0.5707  0.4062
  128SOPE   HN213704   5.523   3.822   2.569  2.0905  0.2855  0.7088
  128SOPE   HN313705   5.655   3.728   2.544  0.4727  0.0661  0.8802
  128SOPE   C1213706   5.577   3.691   2.735 -1.0019  0.1728 -0.3119
  128SOPE  H12A13707   5.475   3.674   2.778 -0.9540  0.3281 -0.1382
  128SOPE  H12B13708   5.641   3.764   2.789 -0.7136  1.6993 -2.5746
  128SOPE   C1113709   5.657   3.555   2.718  0.0400 -0.0176  0.7479
  128SOPE  H11A13710   5.591   3.492   2.655 -0.6599 -0.1739  1.6142
  128SOPE  H11B13711   5.671   3.506   2.817 -1.0007 -0.5003  0.6664
  128SOPE     P13712   5.917   3.517   2.697 -0.2592 -0.0321  0.4549
  128SOPE   O1313713   6.027   3.591   2.636  1.2057  0.2786  0.0086
  128SOPE   O1413714   5.910   3.374   2.663  0.4247  0.3298  0.0116
  128SOPE   O1213715   5.780   3.580   2.654 -0.3291 -0.1207 -0.4419
  128SOPE   O1113716   5.920   3.530   2.854 -0.6729  0.7505 -0.2323
  128SOPE    C113717   5.973   3.655   2.905  0.0828  0.0898  0.2724
  128SOPE    HA13718   5.928   3.745   2.858  2.9295  1.2795 -0.3996
  128SOPE    HB13719   6.082   3.669   2.888 -0.0177  0.4855 -0.0592
  128SOPE    C213720   5.961   3.681   3.059 -0.2848  0.7119 -0.3065
  128SOPE    HS13721   5.978   3.789   3.077  0.0861  0.4972  0.7244
  128SOPE   O2113722   6.059   3.597   3.127  0.4766  0.2033 -0.7125
  128SOPE   C2113723   6.181   3.655   3.136  0.8442 -0.4036 -0.0266
  128SOPE   O2213724   6.206   3.767   3.097  0.4484 -0.3833 -0.2849
  128SOPE   C2213725   6.287   3.555   3.189  0.6490 -0.1749  0.1155
  128SOPE   H2R13726   6.369   3.549   3.115  0.9774 -1.6254  0.5678
  128SOPE   H2S13727   6.232   3.459   3.198 -3.2974  1.8614 -0.2115
  128SOPE    C313728   5.821   3.642   3.117  0.4662 -0.8965 -0.0817
  128SOPE    HX13729   5.787   3.537   3.103 -0.0138 -0.3881 -3.3164
  128SOPE    HY13730   5.748   3.708   3.067 -1.1895  0.6712  4.0034
  128SOPE   O3113731   5.801   3.668   3.256  0.2775  0.9840 -0.2792
  128SOPE   C3113732   5.839   3.574   3.343  1.0285 -0.4047 -0.0116
  128SOPE   O3213733   5.857   3.457   3.317 -0.1113 -0.0920  0.6099
  128SOPE   C3213734   5.832   3.635   3.480 -0.1515 -0.7150 -0.2784
  128SOPE   H2X13735   5.778   3.731   3.466 -0.2080 -0.9295 -1.6173
  128SOPE   H2Y13736   5.932   3.653   3.525  0.0123  1.7244 -1.4448
  128SOPE   C2313737   6.339   3.593   3.327  0.2304  0.1575  0.6372
  128SOPE   H3R13738   6.404   3.680   3.304 -1.8990  1.5325 -0.5221
  128SOPE   H3S13739   6.403   3.512   3.368 -0.0817  0.6560  2.1475
  128SOPE   C2413740   6.226   3.639   3.426 -0.2631 -0.0772  0.1798
  128SOPE   H4R13741   6.173   3.727   3.385  1.5378  0.8332 -0.3156
  128SOPE   H4S13742   6.152   3.558   3.444  0.1805 -0.2125  1.4912
  128SOPE   C2513743   6.285   3.660   3.562  0.1161  0.2462  0.9303
  128SOPE   H5R13744   6.329   3.564   3.596 -0.2025 -0.8584 -1.6028
  128SOPE   H5S13745   6.368   3.734   3.558 -0.1450  0.5642  1.2604
  128SOPE   C2613746   6.184   3.730   3.663 -0.6867 -0.0223 -0.4606
  128SOPE   H6R13747   6.154   3.824   3.613  0.9436  0.4448 -0.6172
  128SOPE   H6S13748   6.095   3.665   3.681 -0.9953  0.4064 -0.4288
  128SOPE   C2713749   6.254   3.768   3.792  0.2503  0.0261  0.3731
  128SOPE   H7R13750   6.329   3.698   3.834  2.1576  1.3835 -0.6354
  128SOPE   H7S13751   6.317   3.858   3.777  1.1644 -0.1310  2.8127
  128SOPE   C2813752   6.160   3.808   3.909 -0.5604  0.3945 -0.0168
  128SOPE   H8R13753   6.212   3.896   3.954  1.6602 -1.2074  0.7179
  128SOPE   H8S13754   6.067   3.840   3.858 -1.5704 -2.4709 -0.1133
  128SOPE   C2913755   6.124   3.699   4.013 -0.3003 -0.0559  0.3807
  128SOPE   H9113756   6.158   3.598   3.988  1.5938  0.4818  0.5784
  128SOPE  C21013757   6.062   3.709   4.126 -0.0354 -0.6358 -0.0511
  128SOPE  H10113758   6.062   3.619   4.190  2.6057 -0.8047 -0.1716
  128SOPE  C21113759   6.013   3.834   4.184  0.1611 -0.0133 -0.1285
  128SOPE  H11R13760   5.906   3.829   4.213 -0.0710  0.4361 -0.8938
  128SOPE  H11S13761   6.010   3.910   4.103  1.1715 -0.0639 -0.2339
  128SOPE  C21213762   6.077   3.879   4.321 -0.3021  0.0419  0.4932
  128SOPE  H12R13763   6.018   3.972   4.340 -0.8142  0.1615 -1.4692
  128SOPE  H12S13764   6.180   3.917   4.305 -0.5022  0.3014 -0.2120
  128SOPE  C21313765   6.061   3.792   4.454 -1.6771  0.3534 -0.2072
  128SOPE  H13R13766   6.050   3.683   4.432 -0.1355  0.3287 -0.9766
  128SOPE  H13S13767   5.976   3.829   4.516 -0.2361  0.5228  1.7652
  128SOPE  C21413768   6.190   3.798   4.528  0.2069  0.3915  0.1150
  128SOPE  H14R13769   6.225   3.899   4.559 -0.7344  1.2133 -1.4197
  128SOPE  H14S13770   6.259   3.755   4.452  0.8379  4.6639 -2.0230
  128SOPE  C21513771   6.191   3.718   4.660 -0.2455  0.8699  0.7593
  128SOPE  H15R13772   6.150   3.616   4.645 -1.8870  1.4906  0.6929
  128SOPE  H15S13773   6.124   3.762   4.737 -2.8321  0.3816 -1.0608
  128SOPE  C21613774   6.348   3.710   4.694 -0.2339  0.6101  0.6241
  128SOPE  H16R13775   6.366   3.819   4.703 -1.9496  1.0070 -0.2238
  128SOPE  H16S13776   6.410   3.684   4.606  0.0323 -1.2415  1.3003
  128SOPE  C21713777   6.387   3.626   4.822 -0.0948 -0.0084  0.9481
  128SOPE  H17R13778   6.369   3.518   4.800  1.4524  0.1862 -1.6525
  128SOPE  H17S13779   6.313   3.658   4.898 -1.5108  0.9014 -0.7445
  128SOPE  C21813780   6.534   3.640   4.858 -0.1749 -0.5990  0.2111
  128SOPE  H18R13781   6.564   3.747   4.861 -0.0933 -0.5657 -1.2076
  128SOPE  H18S13782   6.598   3.610   4.771 -2.9118 -0.8326 -1.8449
  128SOPE  H18T13783   6.565   3.583   4.948 -1.4542 -2.7890 -0.6576
  128SOPE   C3313784   5.756   3.532   3.576  0.3767 -0.0296 -0.1345
  128SOPE   H3X13785   5.803   3.432   3.565  3.4863  1.3146  0.1136
  128SOPE   H3Y13786   5.648   3.534   3.548  0.3390 -3.2480 -0.6555
  128SOPE   C3413787   5.757   3.578   3.722  0.1474 -0.0720  0.1132
  128SOPE   H4X13788   5.671   3.642   3.751 -0.7444 -0.8325 -0.7819
  128SOPE   H4Y13789   5.854   3.630   3.738  0.4816 -0.5243 -0.4324
  128SOPE   C3513790   5.747   3.462   3.821  0.0173  0.0949 -0.1827
  128SOPE   H5X13791   5.827   3.390   3.793 -2.0817 -2.1311 -0.7889
  128SOPE   H5Y13792   5.649   3.413   3.803  0.3406 -0.3985 -0.6218
  128SOPE   C3613793   5.777   3.520   3.955 -0.0408  0.3976 -0.3444
  128SOPE   H6X13794   5.723   3.617   3.968 -0.5122  0.0763  0.1298
  128SOPE   H6Y13795   5.884   3.541   3.977 -0.4509  1.9051  0.3294
  128SOPE   C3713796   5.720   3.435   4.071 -0.7475 -0.3853  0.6481
  128SOPE   H7X13797   5.766   3.335   4.070  0.4840  0.1577  1.3687
  128SOPE   H7Y13798   5.612   3.422   4.048 -0.5073 -2.2865  0.5018
  128SOPE   C3813799   5.748   3.501   4.200  1.0234 -0.7368 -0.4911
  128SOPE   H8X13800   5.682   3.590   4.212  1.4789 -0.6539  2.1966
  128SOPE   H8Y13801   5.854   3.533   4.206  1.1099 -1.2906  1.9784
  128SOPE   C3913802   5.749   3.403   4.317 -0.6018  0.2839 -0.5244
  128SOPE   H9X13803   5.831   3.330   4.302 -1.7704 -1.4803  1.2193
  128SOPE   H9Y13804   5.657   3.341   4.321  0.6437 -1.6259 -0.0004
  128SOPE  C31013805   5.775   3.484   4.447  0.0044 -0.0951  0.3601
  128SOPE  H10X13806   5.699   3.564   4.461  0.3581  0.6794 -1.8471
  128SOPE  H10Y13807   5.869   3.542   4.436  0.4313 -0.4385  1.8688
  128SOPE  C31113808   5.784   3.400   4.574  0.3414  0.0094 -0.3274
  128SOPE  H11X13809   5.707   3.322   4.556 -0.0171  0.1884  0.3811
  128SOPE  H11Y13810   5.750   3.456   4.664 -0.1894 -0.3473 -0.2970
  128SOPE  C31213811   5.922   3.338   4.595  0.0131  0.2445 -0.0484
  128SOPE  H12X13812   5.993   3.423   4.603  0.1672  0.3112 -1.8473
  128SOPE  H12Y13813   5.945   3.263   4.516 -0.2496 -1.2122  1.2151
  128SOPE  C31313814   5.921   3.248   4.718 -0.3410  0.1524  0.0646
  128SOPE  H13X13815   5.845   3.169   4.704 -1.4435  1.2341 -0.3140
  128SOPE  H13Y13816   5.897   3.313   4.805  2.5538  0.8928  0.4211
  128SOPE  C31413817   6.055   3.182   4.751  0.3895 -0.1350  0.3772
  128SOPE  H14X13818   6.128   3.264   4.766 -0.3695  0.9201 -1.4061
  128SOPE  H14Y13819   6.081   3.124   4.660  0.5037  1.4769 -0.6324
  128SOPE  C31513820   6.047   3.078   4.865 -0.4493  0.4021 -0.2643
  128SOPE  H15X13821   6.148   3.045   4.897 -0.0840  2.6303  1.1692
  128SOPE  H15Y13822   5.987   2.993   4.828 -1.4569  0.3321  1.4087
  128SOPE  C31613823   5.988   3.119   4.997 -0.4508 -0.2978 -0.1297
  128SOPE  H16X13824   6.012   3.054   5.084 -1.9810  0.0824  0.6174
  128SOPE  H16Y13825   5.878   3.117   4.979 -0.3648 -0.7015 -0.6407
  128SOPE  C31713826   6.033   3.257   5.049 -0.4379 -0.4292  0.2203
  128SOPE  H17X13827   5.964   3.288   5.130 -0.0391 -1.8423  1.1290
  128SOPE  H17Y13828   6.032   3.326   4.962 -1.3159 -1.3406 -0.5199
  128SOPE  C31813829   6.174   3.265   5.101 -0.0266  0.0302 -0.2085
  128SOPE  H18X13830   6.250   3.210   5.041  0.3087  0.6946 -0.4024
  128SOPE  H18Y13831   6.178   3.241   5.209 -2.2359  3.5167  0.8204
  128SOPE  H18Z13832   6.196   3.374   5.097 -2.0250  0.4698 -0.6535
  129OSM      N13833   2.867   3.486   7.653 -0.1256  0.1296  0.4342
  129OSM    C1513834   2.894   3.352   7.576 -0.1274  0.6002  0.1295
  129OSM   H15A13835   2.831   3.276   7.618 -1.4466  0.7855 -1.4279
  129OSM   H15B13836   2.998   3.324   7.584  0.1037  1.0910 -0.9590
  129OSM   H15C13837   2.863   3.347   7.473  0.4372 -3.1134  0.0120
  129OSM    C1413838   2.721   3.503   7.658 -0.4117  0.6617  0.0097
  129OSM   H14A13839   2.689   3.592   7.711 -1.9573  0.4598 -0.5120
  129OSM   H14B13840   2.679   3.423   7.717  1.5541 -0.9701 -0.7139
  129OSM   H14C13841   2.680   3.491   7.558  1.3744  1.2736 -0.8425
  129OSM    C1313842   2.933   3.474   7.787 -0.0282  0.5393  0.1701
  129OSM   H13A13843   2.901   3.389   7.846  0.8597 -0.5032 -0.8097
  129OSM   H13B13844   2.921   3.562   7.848 -1.0622 -0.5009  1.5201
  129OSM   H13C13845   3.039   3.453   7.779 -0.3811 -1.3727  0.0013
  129OSM    C1213846   2.930   3.599   7.577 -0.2052  0.4693 -0.3673
  129OSM   H12A13847   3.031   3.566   7.556 -0.0867 -0.8923  1.9909
  129OSM   H12B13848   2.954   3.677   7.648  1.5867 -0.0393 -0.3730
  129OSM    C1113849   2.868   3.649   7.438 -0.5049 -0.0062 -0.0418
  129OSM   H11A13850   2.942   3.726   7.408 -0.2352 -0.5248 -0.7513
  129OSM   H11B13851   2.768   3.696   7.452 -1.4657 -1.1066 -2.6458
  129OSM      P13852   2.956   3.525   7.225 -0.0994 -0.4028  0.3675
  129OSM    O1313853   3.087   3.584   7.259  0.0651 -0.0557  0.2137
  129OSM    O1413854   2.957   3.381   7.181  1.1308 -0.0761 -0.5052
  129OSM    O1113855   2.889   3.611   7.115  0.4922  0.3355 -0.3893
  129OSM    O1213856   2.858   3.538   7.345  0.1409 -0.2057 -0.1499
  129OSM    C1S13857   2.758   3.668   7.127 -0.4291 -0.0514  0.5449
  129OSM    H1S13858   2.766   3.757   7.193  0.3452 -0.7743  1.4454
  129OSM    H1T13859   2.687   3.599   7.177  0.2732 -0.2375  1.3071
  129OSM     NF13860   2.582   3.784   7.001 -0.7942 -0.2524  0.6502
  129OSM    HNF13861   2.490   3.747   7.011 -0.6015 -1.4722 -1.4329
  129OSM    C2S13862   2.693   3.688   6.987 -0.1575  0.4066  0.4017
  129OSM    H2S13863   2.763   3.737   6.916 -1.5037  0.0682 -1.2210
  129OSM    C3S13864   2.656   3.556   6.923  0.2182  0.8747  0.1992
  129OSM    H3S13865   2.575   3.504   6.977  0.3515 -0.8873 -1.2017
  129OSM     O313866   2.760   3.461   6.941  0.2533 -0.3743  0.4044
  129OSM    HO313867   2.821   3.508   6.998  1.0102 -1.1908  0.2816
  129OSM    C4S13868   2.612   3.561   6.780  0.2581 -0.0577 -0.3761
  129OSM    H4S13869   2.687   3.617   6.722  1.6904  0.9263  2.2537
  129OSM    C5S13870   2.498   3.528   6.721 -0.0282  0.2815  0.2782
  129OSM    H5S13871   2.418   3.489   6.784 -0.7570  3.4030  1.4925
  129OSM    C6S13872   2.458   3.571   6.582  0.0132  0.0927  0.0954
  129OSM    H6S13873   2.453   3.681   6.574  3.1183  0.4001  0.8547
  129OSM    H6T13874   2.364   3.521   6.550  0.1893 -1.0845  1.3045
  129OSM    C7S13875   2.568   3.550   6.472 -0.7723 -0.3443  0.1549
  129OSM    H7S13876   2.582   3.440   6.460 -1.4545 -0.4988  0.7345
  129OSM    H7T13877   2.665   3.601   6.490  0.2560 -0.8495 -3.1571
  129OSM    C8S13878   2.517   3.599   6.339 -0.2050 -0.5568 -0.0226
  129OSM    H8S13879   2.545   3.706   6.334  1.8179 -1.0985 -2.6097
  129OSM    H8T13880   2.406   3.587   6.341 -0.1837 -2.0567 -2.5524
  129OSM    C9S13881   2.551   3.522   6.208 -0.1625  0.5936 -0.0243
  129OSM    H9S13882   2.511   3.419   6.205  0.5791  0.3112 -0.4695
  129OSM    H9T13883   2.660   3.509   6.196 -0.2388 -1.2710  0.9560
  129OSM   C10S13884   2.514   3.587   6.077  0.0754  0.2142 -0.0467
  129OSM   H10S13885   2.576   3.677   6.056  0.5628 -0.5158 -1.9046
  129OSM   H10T13886   2.409   3.626   6.079  0.4030  1.1946 -1.0233
  129OSM   C11S13887   2.550   3.499   5.951 -0.1335  0.1429 -0.3838
  129OSM   H11S13888   2.493   3.404   5.942 -1.1422  0.8519 -2.1934
  129OSM   H11T13889   2.653   3.472   5.979  0.3335  2.4508  0.3183
  129OSM   C12S13890   2.534   3.584   5.823  0.4152  0.1846 -0.4682
  129OSM   H12S13891   2.592   3.678   5.834 -0.3901  0.4763  1.7560
  129OSM   H12T13892   2.428   3.616   5.814  0.5339  1.2051  1.3439
  129OSM   C13S13893   2.580   3.508   5.698  0.4065  0.6976  0.1903
  129OSM   H13S13894   2.516   3.418   5.684  1.0525  0.4759 -1.5264
  129OSM   H13T13895   2.684   3.471   5.710  0.2716 -0.6103 -2.1058
  129OSM   C14S13896   2.575   3.591   5.573 -0.1986 -0.2853 -0.1042
  129OSM   H14S13897   2.633   3.686   5.576 -3.0281  1.5749 -0.3687
  129OSM   H14T13898   2.471   3.628   5.559 -0.5442 -0.4618  1.7635
  129OSM   C15S13899   2.627   3.503   5.452  0.2056  0.2238  0.0511
  129OSM   H15S13900   2.574   3.407   5.432  0.4938 -0.0043  0.3597
  129OSM   H15T13901   2.729   3.478   5.487 -0.1077  0.1371  0.9376
  129OSM   C16S13902   2.637   3.588   5.322  0.5880  0.9285 -0.4319
  129OSM   H16S13903   2.712   3.540   5.256 -0.4874 -1.4378 -0.0560
  129OSM   H16T13904   2.662   3.695   5.340  1.6172  0.9812 -2.0456
  129OSM   C17S13905   2.509   3.591   5.240  0.0444 -0.1122  0.3949
  129OSM   H17S13906   2.547   3.637   5.146 -0.2429  0.4317  0.5391
  129OSM   H17T13907   2.440   3.670   5.276  1.7722  1.6469  0.0361
  129OSM   C18S13908   2.444   3.458   5.216 -0.5581  0.3921  0.2765
  129OSM   H18S13909   2.391   3.441   5.120  0.2441  1.9926 -0.4920
  129OSM   H18T13910   2.385   3.433   5.307 -0.4836  0.5639  0.3738
  129OSM   H18U13911   2.525   3.382   5.210  0.8777  1.9724 -1.1283
  129OSM    C1F13912   2.610   3.910   7.021  0.3389 -0.5524 -0.3866
  129OSM     OF13913   2.721   3.957   7.036 -0.7572  0.2139  0.7766
  129OSM    C2F13914   2.481   3.996   7.047 -0.6119  0.7794 -0.2664
  129OSM    H2F13915   2.512   4.083   7.108 -1.3790  1.1710 -0.4165
  129OSM    H2G13916   2.417   3.931   7.111 -0.1934 -1.1979 -1.7558
  129OSM    C3F13917   2.398   4.033   6.919 -0.2287  0.2569 -0.9502
  129OSM    H3F13918   2.470   4.071   6.844 -0.2492 -0.1369 -1.1720
  129OSM    H3G13919   2.318   4.103   6.952 -1.4720 -2.4213  2.3391
  129OSM    C4F13920   2.320   3.909   6.868  0.0099 -0.5817 -0.6998
  129OSM    H4F13921   2.211   3.923   6.887 -0.0622 -1.9763  0.0065
  129OSM    H4G13922   2.332   3.820   6.933 -0.9990  1.7323  2.9393
  129OSM    C5F13923   2.340   3.865   6.726  0.3080 -0.3533  0.5497
  129OSM    H5F13924   2.308   3.759   6.720 -0.4237 -0.1013 -0.1046
  129OSM    H5G13925   2.446   3.878   6.695  0.0842 -0.4960 -0.2965
  129OSM    C6F13926   2.240   3.936   6.637  0.1830  0.2003  0.1462
  129OSM    H6F13927   2.286   4.024   6.587  0.0457 -0.7237 -1.6970
  129OSM    H6G13928   2.160   3.989   6.693  0.1082  2.4845 -1.9618
  129OSM    C7F13929   2.183   3.846   6.536  0.1553 -0.4502  0.3779
  129OSM    H7F13930   2.103   3.788   6.586  0.0566  0.0766  0.8320
  129OSM    H7G13931   2.271   3.789   6.498  2.2536  2.1906  0.9397
  129OSM    C8F13932   2.113   3.911   6.413  0.6058  0.0704  0.5379
  129OSM    H8F13933   2.193   3.963   6.355 -0.1055 -0.0116 -0.5660
  129OSM    H8G13934   2.025   3.976   6.435  0.1244  0.0290 -1.0586
  129OSM    C9F13935   2.071   3.804   6.318 -0.7108  0.6002  0.1603
  129OSM    H9F13936   2.024   3.720   6.372  2.4250 -0.6008  1.2253
  129OSM   C10F13937   2.085   3.799   6.184 -0.0775  0.1808  0.4695
  129OSM   H10F13938   2.053   3.706   6.135  0.4562 -0.1530  0.7442
  129OSM   C11F13939   2.154   3.902   6.090 -0.7553 -0.9012 -0.8437
  129OSM   H11F13940   2.263   3.880   6.086  0.3271  3.3764 -0.0197
  129OSM   H11G13941   2.152   4.002   6.138  1.5299 -1.2566  0.1358
  129OSM   C12F13942   2.096   3.917   5.950  0.2247  0.0485 -0.7067
  129OSM   H12F13943   2.134   4.009   5.902 -0.7736  1.8217  1.6496
  129OSM   H12G13944   1.986   3.930   5.963 -0.0667 -3.3528  1.4690
  129OSM   C13F13945   2.118   3.794   5.864 -0.6784  1.1641 -0.4331
  129OSM   H13F13946   2.032   3.724   5.867 -1.2738  1.9027  0.2208
  129OSM   H13G13947   2.210   3.741   5.897 -2.0497  0.3079  2.3267
  129OSM   C14F13948   2.118   3.825   5.710  0.1832 -0.1432 -0.4479
  129OSM   H14F13949   2.188   3.910   5.696  1.4481 -1.3738 -1.8658
  129OSM   H14G13950   2.016   3.860   5.683 -0.2886  0.4645  1.9262
  129OSM   C15F13951   2.167   3.707   5.626 -0.2901 -0.5273  0.6639
  129OSM   H15F13952   2.088   3.628   5.622  0.3075 -1.0717 -1.6405
  129OSM   H15G13953   2.254   3.658   5.673  0.0678  1.2191  1.9294
  129OSM   C16F13954   2.204   3.757   5.480  0.0002 -0.5269 -0.3307
  129OSM   H16F13955   2.244   3.673   5.419 -1.4799 -0.4827 -1.4386
  129OSM   H16G13956   2.291   3.823   5.498 -0.8863  0.3281  0.9516
  129OSM   C17F13957   2.100   3.847   5.415  0.1465 -0.4896  0.0128
  129OSM   H17F13958   2.089   3.936   5.481  1.3340 -1.4776  1.6044
  129OSM   H17G13959   2.003   3.794   5.411 -0.0106 -0.1575 -0.8932
  129OSM   C18F13960   2.126   3.897   5.272  0.1193  0.1635  0.0947
  129OSM   H18F13961   2.058   3.982   5.255  2.9496  2.9634  1.6322
  129OSM   H18G13962   2.120   3.818   5.194  0.9699 -2.3898  2.4060
  129OSM   H18H13963   2.226   3.945   5.263  0.4002 -0.7701 -2.7965
  130OSM      N13964   4.622   4.616   7.550 -0.4847 -0.3058 -0.7328
  130OSM    C1513965   4.482   4.645   7.565 -0.4387  0.8306 -0.3354
  130OSM   H15A13966   4.442   4.730   7.512 -1.2105  1.3165  0.9839
  130OSM   H15B13967   4.452   4.644   7.669 -2.0183 -2.3856 -0.6916
  130OSM   H15C13968   4.425   4.565   7.519  1.1617  0.1787 -1.2651
  130OSM    C1413969   4.702   4.726   7.615  0.7429  0.0368  0.2428
  130OSM   H14A13970   4.651   4.760   7.704 -0.3225 -1.4438  0.2323
  130OSM   H14B13971   4.713   4.815   7.554 -0.0962  0.1598  0.2648
  130OSM   H14C13972   4.802   4.693   7.638  2.1453  3.0219 -1.0819
  130OSM    C1313973   4.649   4.494   7.634 -0.3540  0.1802  0.4158
  130OSM   H13A13974   4.752   4.479   7.663 -0.7081 -1.7338  0.8181
  130OSM   H13B13975   4.613   4.395   7.613  2.7824 -0.8137 -0.7133
  130OSM   H13C13976   4.608   4.516   7.732  0.9304 -3.1723  1.8713
  130OSM    C1213977   4.676   4.592   7.411 -0.0003 -0.3162 -0.9547
  130OSM   H12A13978   4.641   4.499   7.371  3.6450 -1.4956 -1.7905
  130OSM   H12B13979   4.784   4.582   7.420 -0.2563 -2.2941  0.7252
  130OSM    C1113980   4.636   4.705   7.313 -0.4076  0.6763 -0.4495
  130OSM   H11A13981   4.698   4.720   7.222  0.1505 -0.6063 -0.3020
  130OSM   H11B13982   4.644   4.805   7.361  0.0573  0.0981  0.6957
  130OSM      P13983   4.468   4.564   7.170 -0.2110 -0.1365 -0.5691
  130OSM    O1313984   4.470   4.433   7.241 -0.3606  0.1444  0.3182
  130OSM    O1413985   4.341   4.605   7.101 -0.6662 -0.0757  0.2240
  130OSM    O1113986   4.598   4.565   7.075 -0.0830  0.0141 -0.1017
  130OSM    O1213987   4.495   4.675   7.275  0.1711  0.0731  0.7697
  130OSM    C1S13988   4.588   4.603   6.936 -0.0926 -0.1963 -0.8716
  130OSM    H1S13989   4.498   4.664   6.913  0.1671  0.2870 -0.6279
  130OSM    H1T13990   4.584   4.509   6.877  0.8873 -1.2333  0.6278
  130OSM     NF13991   4.706   4.713   6.748 -0.7115 -0.1653 -0.7054
  130OSM    HNF13992   4.776   4.679   6.685 -0.5902  1.5475 -1.5626
  130OSM    C2S13993   4.716   4.684   6.888 -0.6277  0.3541 -0.3624
  130OSM    H2S13994   4.717   4.776   6.950 -1.7853  1.2125 -1.5750
  130OSM    C3S13995   4.850   4.612   6.922 -0.0544 -0.0365 -0.4621
  130OSM    H3S13996   4.871   4.524   6.857  1.9223  1.0788 -1.4291
  130OSM     O313997   4.862   4.570   7.059  0.0461 -0.3758  0.0260
  130OSM    HO313998   4.774   4.580   7.097 -0.2799 -0.6636 -0.6318
  130OSM    C4S13999   4.962   4.712   6.893 -0.7056 -0.4703  0.2741
  130OSM    H4S14000   4.963   4.812   6.940 -1.5680 -0.5706  0.5240
  130OSM    C5S14001   5.057   4.690   6.804 -0.8189  0.3104 -0.0181
  130OSM    H5S14002   5.073   4.592   6.756 -1.1635  0.3330 -0.1784
  130OSM    C6S14003   5.146   4.805   6.779 -0.1550  0.8642  0.7172
  130OSM    H6S14004   5.254   4.778   6.776 -0.2114  0.6580  0.5234
  130OSM    H6T14005   5.140   4.883   6.858 -2.2454  2.9568 -1.3339
  130OSM    C7S14006   5.117   4.864   6.640  0.4450  0.3215  0.3882
  130OSM    H7S14007   5.010   4.895   6.644  0.4328  0.1770  3.9713
  130OSM    H7T14008   5.119   4.782   6.564  3.5464  0.6430 -0.0141
  130OSM    C8S14009   5.207   4.982   6.608 -0.3164  0.1548 -0.2908
  130OSM    H8S14010   5.314   4.955   6.615 -0.5395 -0.8367 -0.5436
  130OSM    H8T14011   5.185   5.069   6.673  0.9607  0.3474 -0.0879
  130OSM    C9S14012   5.187   5.029   6.461 -0.5193  0.4171 -0.9451
  130OSM    H9S14013   5.139   4.943   6.411  0.6309 -1.6661  1.3010
  130OSM    H9T14014   5.287   5.041   6.414  0.2271  3.2456  1.1058
  130OSM   C10S14015   5.119   5.169   6.446  0.0578  0.1460 -0.1981
  130OSM   H10S14016   5.190   5.247   6.478 -0.3654  0.1793  0.6984
  130OSM   H10T14017   5.035   5.162   6.518  0.1156  0.2157 -0.1239
  130OSM   C11S14018   5.069   5.201   6.311 -0.4076  0.1491 -0.5043
  130OSM   H11S14019   4.975   5.259   6.315 -1.8267 -1.9670 -1.5372
  130OSM   H11T14020   5.028   5.105   6.274 -1.9667 -0.8318  3.3831
  130OSM   C12S14021   5.165   5.268   6.216 -0.1375  0.0959 -0.1514
  130OSM   H12S14022   5.248   5.201   6.184 -0.7721  0.8502 -3.7764
  130OSM   H12T14023   5.213   5.359   6.258 -0.1615 -0.1481  0.4164
  130OSM   C13S14024   5.089   5.317   6.091 -0.1661  0.7997  0.5802
  130OSM   H13S14025   5.017   5.396   6.123 -0.4665  1.3870 -1.4053
  130OSM   H13T14026   5.038   5.232   6.041 -0.0797  1.1043 -0.0428
  130OSM   C14S14027   5.179   5.385   5.985  0.3357  0.1271 -0.5231
  130OSM   H14S14028   5.242   5.303   5.946 -0.6295 -0.0726 -1.7367
  130OSM   H14T14029   5.239   5.454   6.048  2.3621 -1.7439 -0.2880
  130OSM   C15S14030   5.097   5.455   5.878  0.3774  0.0295  0.0180
  130OSM   H15S14031   5.155   5.516   5.805 -3.1153 -0.1983 -3.2530
  130OSM   H15T14032   5.025   5.526   5.924 -1.0614 -1.6125  0.4408
  130OSM   C16S14033   5.022   5.354   5.788 -0.1450  1.0681  0.0963
  130OSM   H16S14034   4.953   5.415   5.727  0.7173  1.3151 -0.6656
  130OSM   H16T14035   4.964   5.283   5.850  0.6010  0.4225  0.0795
  130OSM   C17S14036   5.107   5.258   5.691  0.0994 -0.3072  0.4100
  130OSM   H17S14037   5.159   5.187   5.758  1.5627  0.6848  0.3715
  130OSM   H17T14038   5.176   5.328   5.638 -4.1957  2.1773 -2.5384
  130OSM   C18S14039   5.029   5.184   5.585  0.0411 -0.3276  0.7989
  130OSM   H18S14040   5.080   5.106   5.524 -2.3186 -1.0445 -0.4123
  130OSM   H18T14041   4.985   5.264   5.521 -0.3291 -0.4157  0.9400
  130OSM   H18U14042   4.944   5.125   5.627 -1.9158  1.6336 -0.1807
  130OSM    C1F14043   4.601   4.782   6.702 -0.3586  0.2274  0.5871
  130OSM     OF14044   4.533   4.853   6.777 -0.0260  0.1022  0.2213
  130OSM    C2F14045   4.580   4.777   6.552  0.5601 -0.0370 -0.1497
  130OSM    H2F14046   4.636   4.694   6.505  2.4728  2.1757 -2.0319
  130OSM    H2G14047   4.618   4.873   6.510 -2.3605  0.2516 -2.4209
  130OSM    C3F14048   4.439   4.771   6.498  0.8319 -0.1262 -0.2045
  130OSM    H3F14049   4.392   4.868   6.526  0.6534  0.3155 -1.9215
  130OSM    H3G14050   4.385   4.682   6.538  2.7698 -1.1129  0.3146
  130OSM    C4F14051   4.431   4.760   6.345  0.1220  0.1908 -0.0588
  130OSM    H4F14052   4.331   4.800   6.320 -0.4266  0.4385  2.3042
  130OSM    H4G14053   4.448   4.656   6.308  0.7227 -0.4763  1.9831
  130OSM    C5F14054   4.524   4.841   6.262  0.0192 -0.0096  0.9827
  130OSM    H5F14055   4.630   4.814   6.278  0.6977  2.1076  0.3929
  130OSM    H5G14056   4.516   4.951   6.275  1.0675  0.2608 -0.4379
  130OSM    C6F14057   4.495   4.829   6.111 -0.4405 -0.2351  0.3518
  130OSM    H6F14058   4.386   4.843   6.093 -0.0207 -1.2642 -4.0101
  130OSM    H6G14059   4.508   4.726   6.072  0.0568  0.0974 -0.3680
  130OSM    C7F14060   4.582   4.918   6.019  0.0223 -0.0325 -0.1023
  130OSM    H7F14061   4.549   5.024   6.025 -1.0041 -0.3033 -0.6509
  130OSM    H7G14062   4.553   4.882   5.918 -2.5889  0.6726  0.3301
  130OSM    C8F14063   4.734   4.901   6.043 -0.0089 -0.3053  0.5137
  130OSM    H8F14064   4.772   4.800   6.014 -0.7739 -0.1645 -1.0721
  130OSM    H8G14065   4.764   4.918   6.149 -2.0033  2.0656  0.7693
  130OSM    C9F14066   4.804   5.007   5.953 -0.4974  0.3704  0.5217
  130OSM    H9F14067   4.742   5.097   5.941 -0.1477  0.6549  0.8416
  130OSM   C10F14068   4.926   5.000   5.899 -0.4319  0.5160 -0.0570
  130OSM   H10F14069   4.969   5.089   5.850 -1.5334  0.7979 -0.5444
  130OSM   C11F14070   5.019   4.883   5.915  0.6135 -0.0313  0.6320
  130OSM   H11F14071   4.991   4.803   5.844  1.5182 -0.4562  0.7413
  130OSM   H11G14072   5.004   4.848   6.019  2.2036 -2.6773  0.0671
  130OSM   C12F14073   5.170   4.899   5.898 -0.8554 -0.3136 -0.5957
  130OSM   H12F14074   5.194   4.968   5.814  0.4864 -0.7203 -0.5766
  130OSM   H12G14075   5.228   4.805   5.887  0.1708  0.2971 -0.4947
  130OSM   C13F14076   5.241   4.965   6.011 -0.4044 -0.2208 -0.3129
  130OSM   H13F14077   5.232   4.903   6.102 -1.5825 -0.7093 -0.7359
  130OSM   H13G14078   5.215   5.071   6.034  3.1967  0.3772  1.6786
  130OSM   C14F14079   5.393   4.968   5.989 -0.2558  0.2678  0.1191
  130OSM   H14F14080   5.430   4.863   5.993 -0.5220  0.1753  0.1655
  130OSM   H14G14081   5.443   5.025   6.070 -1.7815  0.9073  0.6524
  130OSM   C15F14082   5.440   5.033   5.857  0.8962 -0.0928 -0.1247
  130OSM   H15F14083   5.403   5.137   5.846 -1.1701 -0.6726  0.8840
  130OSM   H15G14084   5.401   4.970   5.775  0.3742 -1.6306  1.2476
  130OSM   C16F14085   5.592   5.036   5.838  0.1528 -0.1065  0.1652
  130OSM   H16F14086   5.631   4.934   5.860 -1.5219 -0.8060  0.0196
  130OSM   H16G14087   5.635   5.096   5.920  3.4613 -2.7980  0.6311
  130OSM   C17F14088   5.638   5.086   5.706 -0.6909  0.7337 -0.5436
  130OSM   H17F14089   5.608   5.192   5.689  0.8433  1.1273 -1.0043
  130OSM   H17G14090   5.600   5.029   5.619 -1.7776 -0.0452  0.4119
  130OSM   C18F14091   5.791   5.094   5.698  0.0499 -1.0896 -0.0618
  130OSM   H18F14092   5.809   5.185   5.760 -2.3560 -2.6021  3.1511
  130OSM   H18G14093   5.805   5.110   5.589  0.4188 -1.3056 -0.0466
  130OSM   H18H14094   5.843   5.002   5.732  2.6520 -0.1810 -1.3016
  131OSM      N14095   5.671   0.235   7.147  0.7105 -0.1283 -0.0130
  131OSM    C1514096   5.815   0.288   7.159  0.4784 -0.4335  0.0112
  131OSM   H15A14097   5.809   0.396   7.157  1.4334 -0.3771 -1.5617
  131OSM   H15B14098   5.884   0.259   7.081  1.6312 -0.2191  0.9201
  131OSM   H15C14099   5.860   0.266   7.255 -3.6325  3.0958  3.1226
  131OSM    C1414100   5.671   0.084   7.160  0.3798  0.1443 -0.2006
  131OSM   H14A14101   5.571   0.049   7.143  1.2096 -0.6127 -4.7170
  131OSM   H14B14102   5.700   0.051   7.259 -0.0025  0.7590  0.1238
  131OSM   H14C14103   5.730   0.028   7.089  1.2317 -1.2892  1.5593
  131OSM    C1314104   5.586   0.301   7.254  0.9514  0.9967  0.2083
  131OSM   H13A14105   5.615   0.258   7.349  0.2288 -1.2073 -0.5111
  131OSM   H13B14106   5.480   0.288   7.243  1.1167 -1.4245  0.7692
  131OSM   H13C14107   5.600   0.407   7.271  1.0054  1.2427 -1.2393
  131OSM    C1214108   5.612   0.268   7.012 -0.1527 -0.2083 -0.3504
  131OSM   H12A14109   5.506   0.250   7.007 -0.2503 -0.7396  2.1948
  131OSM   H12B14110   5.656   0.223   6.924  0.9071  0.8114 -0.3677
  131OSM    C1114111   5.633   0.417   6.963 -0.4587 -0.1665 -0.0373
  131OSM   H11A14112   5.740   0.440   6.940  0.3387 -1.3221  2.1904
  131OSM   H11B14113   5.610   0.487   7.046  0.7607 -1.6948  1.6598
  131OSM      P14114   5.393   0.463   6.880 -0.1865 -0.1034 -0.1655
  131OSM    O1314115   5.343   0.343   6.942 -0.2238 -0.0490  0.5800
  131OSM    O1414116   5.371   0.600   6.939 -0.3199  0.5913 -0.0606
  131OSM    O1114117   5.333   0.459   6.735  0.1665  0.1357 -0.2238
  131OSM    O1214118   5.551   0.441   6.852  0.2920  0.5126 -0.1251
  131OSM    C1S14119   5.352   0.566   6.641  1.4230 -0.1568 -0.4137
  131OSM    H1S14120   5.419   0.645   6.683 -1.1591  1.1074  1.5878
  131OSM    H1T14121   5.256   0.616   6.617 -0.0483 -0.2158  4.3526
  131OSM     NF14122   5.475   0.647   6.428 -0.0509  0.4488  0.0434
  131OSM    HNF14123   5.430   0.675   6.343  1.7987  1.6702 -0.5829
  131OSM    C2S14124   5.415   0.529   6.500  0.0698 -0.1293  0.0805
  131OSM    H2S14125   5.495   0.453   6.513  0.0233 -0.2056 -0.0811
  131OSM    C3S14126   5.307   0.450   6.429 -0.6254  0.5952  0.5498
  131OSM    H3S14127   5.217   0.512   6.404 -0.2579  1.6948  1.8099
  131OSM     O314128   5.247   0.343   6.509  0.4472 -0.2434  0.1218
  131OSM    HO314129   5.278   0.364   6.598 -1.7167  1.0377  0.6424
  131OSM    C4S14130   5.360   0.387   6.302 -0.3402  0.5053  0.0480
  131OSM    H4S14131   5.312   0.425   6.211  0.0815  0.6528 -0.1152
  131OSM    C5S14132   5.467   0.297   6.284  0.4601 -0.4371 -0.2513
  131OSM    H5S14133   5.520   0.264   6.374  3.8690 -1.9162 -2.5921
  131OSM    C6S14134   5.523   0.252   6.153 -0.5558  0.1432  1.2227
  131OSM    H6S14135   5.502   0.149   6.117 -1.3621  0.5013  0.6209
  131OSM    H6T14136   5.633   0.245   6.168 -0.3196 -1.6673 -0.8678
  131OSM    C7S14137   5.493   0.348   6.032  0.1780  0.9048  0.6167
  131OSM    H7S14138   5.551   0.440   6.054 -1.2064  2.5526 -2.1203
  131OSM    H7T14139   5.385   0.368   6.018 -0.5326 -2.7923 -0.2505
  131OSM    C8S14140   5.531   0.289   5.899 -0.1786  0.3793  0.9401
  131OSM    H8S14141   5.637   0.264   5.879 -0.8906 -1.3980 -1.0610
  131OSM    H8T14142   5.533   0.371   5.824 -0.7066 -0.3991  0.0422
  131OSM    C9S14143   5.435   0.185   5.841 -0.0059  0.6725  0.6348
  131OSM    H9S14144   5.334   0.230   5.832 -0.0039  0.9498  1.7804
  131OSM    H9T14145   5.421   0.091   5.900  0.4628  0.3838  0.2917
  131OSM   C10S14146   5.465   0.144   5.697 -0.2412 -0.9464 -0.2430
  131OSM   H10S14147   5.389   0.067   5.671 -0.4818 -1.1225  0.9277
  131OSM   H10T14148   5.564   0.094   5.688 -0.8632 -2.0990 -0.8785
  131OSM   C11S14149   5.471   0.260   5.598  0.5190  0.4698 -0.6217
  131OSM   H11S14150   5.572   0.306   5.590  0.6691  0.0371 -1.3791
  131OSM   H11T14151   5.389   0.333   5.610  0.9825  0.7660  1.0052
  131OSM   C12S14152   5.452   0.208   5.454 -0.0823 -0.3961  0.5841
  131OSM   H12S14153   5.346   0.199   5.423  0.4027  0.5160 -1.5045
  131OSM   H12T14154   5.513   0.118   5.432  3.2710  1.5792  1.1184
  131OSM   C13S14155   5.512   0.318   5.350  0.1733  0.4673 -0.6089
  131OSM   H13S14156   5.620   0.304   5.372 -0.3848 -3.3715  0.6049
  131OSM   H13T14157   5.487   0.421   5.381  1.8927  0.4365  1.0954
  131OSM   C14S14158   5.476   0.284   5.205  0.4463 -0.4800  0.2578
  131OSM   H14S14159   5.366   0.268   5.197  0.6466 -3.1006  1.8839
  131OSM   H14T14160   5.517   0.186   5.173  0.5269  0.4272 -2.7328
  131OSM   C15S14161   5.522   0.387   5.104 -0.0002  0.6052 -0.4317
  131OSM   H15S14162   5.494   0.357   5.001 -1.5274 -1.6510  0.5620
  131OSM   H15T14163   5.631   0.401   5.121  0.0409  0.2180 -0.3736
  131OSM   C16S14164   5.454   0.532   5.115  0.1796 -0.0719  1.0891
  131OSM   H16S14165   5.483   0.554   5.220  0.0051 -1.2365  1.3989
  131OSM   H16T14166   5.345   0.520   5.095  0.3144  0.9928 -0.4568
  131OSM   C17S14167   5.513   0.631   5.019  0.2947 -0.4384  0.7803
  131OSM   H17S14168   5.614   0.607   4.982 -0.0131  0.3107 -0.6263
  131OSM   H17T14169   5.539   0.728   5.067  0.8568  1.1549 -2.4929
  131OSM   C18S14170   5.413   0.667   4.907 -0.3047 -0.0014 -0.2904
  131OSM   H18S14171   5.322   0.702   4.960 -0.2563 -0.7634  0.3144
  131OSM   H18T14172   5.400   0.588   4.830  0.5822 -0.1796 -0.2678
  131OSM   H18U14173   5.464   0.751   4.853  1.2537 -0.7260 -0.0129
  131OSM    C1F14174   5.585   0.709   6.472 -0.5619 -0.6234 -0.0700
  131OSM     OF14175   5.664   0.649   6.539 -0.7938  0.6583  0.1400
  131OSM    C2F14176   5.611   0.843   6.427 -0.5664  0.1301  0.3210
  131OSM    H2F14177   5.546   0.911   6.485 -2.3915 -0.7731 -0.6026
  131OSM    H2G14178   5.589   0.857   6.319  1.5585 -1.3358 -0.3740
  131OSM    C3F14179   5.767   0.883   6.422 -0.0015 -0.1061 -0.1312
  131OSM    H3F14180   5.813   0.828   6.338  0.0312 -1.1211  0.5353
  131OSM    H3G14181   5.815   0.849   6.517  1.0858 -1.1051 -1.0211
  131OSM    C4F14182   5.777   1.035   6.434  0.2271  1.0131  0.3103
  131OSM    H4F14183   5.878   1.075   6.456  1.2292  0.3036 -2.6321
  131OSM    H4G14184   5.722   1.069   6.525  1.4442 -0.9187  1.8412
  131OSM    C5F14185   5.746   1.117   6.306  0.0204  0.2729 -0.9482
  131OSM    H5F14186   5.753   1.227   6.321 -0.3493  0.5068 -2.3114
  131OSM    H5G14187   5.646   1.083   6.270  0.3709 -0.2284 -1.4687
  131OSM    C6F14188   5.838   1.087   6.183 -0.6755  0.3830 -0.4272
  131OSM    H6F14189   5.844   0.976   6.188 -0.6432  0.4332  1.7401
  131OSM    H6G14190   5.944   1.118   6.197 -0.4828 -0.9550  1.6990
  131OSM    C7F14191   5.778   1.129   6.049 -0.7982 -0.2980 -0.2573
  131OSM    H7F14192   5.723   1.223   6.072 -0.2322 -0.2157  0.8215
  131OSM    H7G14193   5.692   1.067   6.012 -0.6516  0.0656 -1.2366
  131OSM    C8F14194   5.882   1.146   5.932  0.4038 -0.0615 -0.4995
  131OSM    H8F14195   5.967   1.199   5.979  0.7924 -0.5623 -0.6299
  131OSM    H8G14196   5.852   1.225   5.859 -0.5195  0.3607  0.3205
  131OSM    C9F14197   5.909   1.008   5.879 -0.6727  0.0602 -0.4840
  131OSM    H9F14198   5.941   0.931   5.950 -0.7534 -0.4502 -0.9949
  131OSM   C10F14199   5.926   0.975   5.754  0.4983 -0.8699  0.0689
  131OSM   H10F14200   5.951   0.869   5.739 -0.9479 -1.2835  0.3452
  131OSM   C11F14201   5.914   1.075   5.638 -0.4469 -0.5707  0.0452
  131OSM   H11F14202   5.976   1.166   5.651 -0.9998 -0.1455 -0.2890
  131OSM   H11G14203   5.810   1.110   5.621 -0.0302  1.1963  0.8882
  131OSM   C12F14204   5.977   1.017   5.512 -0.5789 -0.6592  0.0431
  131OSM   H12F14205   6.081   0.987   5.535  0.5438  3.2618  0.8899
  131OSM   H12G14206   5.993   1.098   5.438 -0.0075 -0.3232  0.5319
  131OSM   C13F14207   5.889   0.908   5.435  0.6658 -0.0072 -0.6577
  131OSM   H13F14208   5.784   0.933   5.459  0.3467 -2.5626  0.9508
  131OSM   H13G14209   5.903   0.807   5.478  0.1609 -0.2121 -0.9621
  131OSM   C14F14210   5.911   0.909   5.285 -0.0888 -0.3569 -0.7516
  131OSM   H14F14211   6.019   0.917   5.260  0.3349  2.3708  1.3976
  131OSM   H14G14212   5.866   0.997   5.235 -1.8366  0.4114  1.9508
  131OSM   C15F14213   5.872   0.787   5.209  0.4940 -0.3925  0.1258
  131OSM   H15F14214   5.761   0.783   5.210  0.3903  0.0684  3.6415
  131OSM   H15G14215   5.905   0.688   5.248  0.6733 -1.0454 -1.5858
  131OSM   C16F14216   5.926   0.793   5.065 -0.3164  0.5502 -0.1384
  131OSM   H16F14217   5.885   0.886   5.020 -0.8166  0.3288 -0.1437
  131OSM   H16G14218   5.879   0.709   5.010 -0.6942 -0.1195  1.1554
  131OSM   C17F14219   6.080   0.777   5.047 -0.5965 -0.1027 -0.0007
  131OSM   H17F14220   6.115   0.680   5.088  0.8337  1.0794  1.7753
  131OSM   H17G14221   6.126   0.853   5.114 -1.2338 -0.5064  0.9252
  131OSM   C18F14222   6.126   0.798   4.902 -0.4076 -0.3159  0.3822
  131OSM   H18F14223   6.056   0.865   4.847  0.3571 -0.6507 -1.0726
  131OSM   H18G14224   6.115   0.706   4.840 -0.6492 -2.0721  2.8973
  131OSM   H18H14225   6.226   0.841   4.879 -0.4887 -0.7828 -0.9380
  132OSM      N14226   4.923   3.781   7.707  0.3417 -0.3512 -0.3624
  132OSM    C1514227   4.793   3.744   7.770  0.4601 -0.9036 -0.3591
  132OSM   H15A14228   4.723   3.815   7.727  2.4528  2.0445  0.9299
  132OSM   H15B14229   4.786   3.747   7.877 -0.1216  0.9986 -0.4111
  132OSM   H15C14230   4.760   3.650   7.728 -0.6041 -1.8633  2.3922
  132OSM    C1414231   4.948   3.924   7.728  0.1895 -0.1737  0.0791
  132OSM   H14A14232   5.051   3.943   7.704  0.5761  0.1341  1.8484
  132OSM   H14B14233   4.933   3.945   7.833  1.3745  0.0681  0.2117
  132OSM   H14C14234   4.872   3.989   7.687 -0.3778  0.6000  2.2149
  132OSM    C1314235   5.027   3.691   7.772  0.7182  0.0507  0.1780
  132OSM   H13A14236   5.125   3.707   7.729  0.6535  0.9626  0.3627
  132OSM   H13B14237   4.991   3.589   7.768 -1.7811  0.7734  2.0454
  132OSM   H13C14238   5.027   3.706   7.879  0.1764 -3.0535  0.7208
  132OSM    C1214239   4.906   3.761   7.555 -0.0048  0.3417 -0.1536
  132OSM   H12A14240   5.002   3.762   7.506 -0.6432 -2.1160 -1.6354
  132OSM   H12B14241   4.853   3.845   7.513 -0.5845  0.1652  0.2016
  132OSM    C1114242   4.857   3.625   7.505  0.3086  0.3069  0.6498
  132OSM   H11A14243   4.915   3.541   7.548  1.0601 -0.3473 -1.5055
  132OSM   H11B14244   4.888   3.616   7.398  1.0395 -1.5997  0.9803
  132OSM      P14245   4.613   3.697   7.437  0.2123  0.0331 -0.2132
  132OSM    O1314246   4.472   3.665   7.478  0.1004 -0.1207  0.0293
  132OSM    O1414247   4.649   3.837   7.434 -0.6139 -0.0657 -0.5718
  132OSM    O1114248   4.634   3.637   7.296 -0.5921  0.1071  0.1058
  132OSM    O1214249   4.716   3.607   7.529 -0.0695 -0.3700 -0.2178
  132OSM    C1S14250   4.583   3.706   7.183 -0.1580  0.2544  0.3641
  132OSM    H1S14251   4.635   3.804   7.171  1.7058 -0.4997  1.8201
  132OSM    H1T14252   4.472   3.712   7.179 -0.0820  1.5135 -0.1558
  132OSM     NF14253   4.599   3.731   6.938  0.3339 -0.3962  0.6721
  132OSM    HNF14254   4.503   3.729   6.909  0.5937 -1.9318 -0.2283
  132OSM    C2S14255   4.637   3.642   7.049  0.2695  0.2383  0.2647
  132OSM    H2S14256   4.747   3.637   7.055  0.2282 -2.5134 -0.0781
  132OSM    C3S14257   4.584   3.483   7.040  0.1692 -0.0801  0.4585
  132OSM    H3S14258   4.474   3.495   7.038  0.2859  1.3880 -1.9359
  132OSM     O314259   4.612   3.400   7.149 -0.1773 -0.0333  0.3963
  132OSM    HO314260   4.661   3.461   7.205  4.5488  0.2303 -3.3743
  132OSM    C4S14261   4.638   3.419   6.909  0.1317  0.2734 -0.0012
  132OSM    H4S14262   4.562   3.410   6.830  0.7786  1.4877 -0.8003
  132OSM    C5S14263   4.766   3.371   6.889  0.7857 -0.5690 -0.5367
  132OSM    H5S14264   4.843   3.358   6.967  1.0720 -1.7770 -1.0056
  132OSM    C6S14265   4.800   3.309   6.755 -0.2288  0.0576 -1.2099
  132OSM    H6S14266   4.891   3.247   6.769 -1.0400 -1.4929 -2.3972
  132OSM    H6T14267   4.823   3.389   6.681 -1.4574  0.5218 -1.1085
  132OSM    C7S14268   4.697   3.214   6.692  0.4126  0.4383  0.5125
  132OSM    H7S14269   4.612   3.274   6.655  1.4422  1.2451 -0.6009
  132OSM    H7T14270   4.646   3.152   6.769 -0.2407  1.2503  0.7525
  132OSM    C8S14271   4.738   3.128   6.578 -0.2344 -0.1772 -0.8840
  132OSM    H8S14272   4.684   3.031   6.576  0.4292 -0.5565 -3.0249
  132OSM    H8T14273   4.848   3.113   6.587  0.0583  2.2595  0.2517
  132OSM    C9S14274   4.740   3.207   6.449  0.1348 -0.2679  0.2990
  132OSM    H9S14275   4.810   3.292   6.460 -0.5585  0.3573  0.0439
  132OSM    H9T14276   4.642   3.258   6.434 -1.6672 -3.6252 -0.6138
  132OSM   C10S14277   4.774   3.123   6.320  0.2224  0.1218 -0.6484
  132OSM   H10S14278   4.715   3.029   6.325 -1.0617  0.9166 -0.3124
  132OSM   H10T14279   4.883   3.100   6.317  0.4056  0.9619 -0.5560
  132OSM   C11S14280   4.731   3.201   6.192  0.4131 -0.1299 -0.4366
  132OSM   H11S14281   4.776   3.302   6.190  0.4121 -0.1313 -0.5253
  132OSM   H11T14282   4.620   3.207   6.183  0.3467 -1.4923 -0.6919
  132OSM   C12S14283   4.779   3.141   6.051 -0.5710  0.3052  0.0337
  132OSM   H12S14284   4.749   3.034   6.044  0.6288 -0.0427 -0.0465
  132OSM   H12T14285   4.890   3.134   6.044 -0.6227 -1.8371  0.5542
  132OSM   C13S14286   4.738   3.228   5.937 -0.1778  0.3140 -0.0395
  132OSM   H13S14287   4.810   3.312   5.937  0.0828  0.1799  2.8403
  132OSM   H13T14288   4.639   3.273   5.958 -0.5304 -0.2133 -0.5331
  132OSM   C14S14289   4.732   3.147   5.809 -0.0521 -0.2445  0.3510
  132OSM   H14S14290   4.676   3.051   5.806 -0.0432 -0.2297 -1.1833
  132OSM   H14T14291   4.839   3.128   5.785  0.3636  1.5861  0.5806
  132OSM   C15S14292   4.674   3.234   5.695 -0.3473  0.6594  0.4680
  132OSM   H15S14293   4.727   3.332   5.695  0.6062  0.1747 -0.5863
  132OSM   H15T14294   4.563   3.232   5.692 -0.3243  0.6632 -0.6466
  132OSM   C16S14295   4.698   3.167   5.555 -0.1280 -0.0288  0.0628
  132OSM   H16S14296   4.673   3.059   5.557 -0.7555  0.1237  0.6692
  132OSM   H16T14297   4.808   3.172   5.544 -0.0217 -0.2355  1.0229
  132OSM   C17S14298   4.609   3.222   5.443  0.8722  0.0498  0.1194
  132OSM   H17S14299   4.541   3.297   5.488 -0.6574  0.2245 -2.3036
  132OSM   H17T14300   4.555   3.134   5.400 -0.5153  0.7246  0.4252
  132OSM   C18S14301   4.699   3.272   5.328 -0.5493  0.2751  0.2563
  132OSM   H18S14302   4.640   3.289   5.235  0.8485  1.3470 -0.4736
  132OSM   H18T14303   4.779   3.198   5.308 -0.8512 -0.0129  0.1029
  132OSM   H18U14304   4.747   3.366   5.361  0.3369 -0.0639 -0.0333
  132OSM    C1F14305   4.684   3.836   6.905  0.7333  0.9045  0.2412
  132OSM     OF14306   4.782   3.862   6.974  0.0973 -0.4171 -0.2931
  132OSM    C2F14307   4.650   3.920   6.786 -0.5046  0.2162  0.1448
  132OSM    H2F14308   4.689   4.020   6.812  0.5451 -0.0214 -0.4861
  132OSM    H2G14309   4.539   3.921   6.773 -0.5932  1.2378  0.8465
  132OSM    C3F14310   4.723   3.863   6.665  0.1460  0.2173  0.7953
  132OSM    H3F14311   4.705   3.754   6.662  1.5446 -0.0048 -0.8256
  132OSM    H3G14312   4.833   3.872   6.680  0.5151 -0.5282 -1.1775
  132OSM    C4F14313   4.706   3.945   6.534  0.0243  0.0233 -0.3952
  132OSM    H4F14314   4.760   4.041   6.551 -0.2752 -0.2340  2.4032
  132OSM    H4G14315   4.602   3.983   6.526 -0.2589 -0.4811  0.6994
  132OSM    C5F14316   4.759   3.885   6.407  0.8640 -0.0526  0.3764
  132OSM    H5F14317   4.704   3.794   6.376  0.9091  1.0469 -3.4303
  132OSM    H5G14318   4.868   3.867   6.422  0.8476  0.0529  0.6302
  132OSM    C6F14319   4.729   3.992   6.298 -0.5250 -0.2087 -0.2395
  132OSM    H6F14320   4.772   4.091   6.325 -1.2062  0.5009 -1.6440
  132OSM    H6G14321   4.618   3.998   6.295 -0.4758  1.1067 -0.2285
  132OSM    C7F14322   4.794   3.950   6.166 -0.0081  0.0970 -0.3544
  132OSM    H7F14323   4.763   3.849   6.130  1.5860 -0.6709  0.3218
  132OSM    H7G14324   4.903   3.948   6.185  0.3591  3.5115 -1.4935
  132OSM    C8F14325   4.770   4.047   6.055 -0.2264 -0.5054 -0.2291
  132OSM    H8F14326   4.793   4.152   6.085  2.3414 -0.7496 -1.0818
  132OSM    H8G14327   4.660   4.037   6.040 -0.4173 -2.8293  1.9773
  132OSM    C9F14328   4.852   4.022   5.935 -0.7248 -0.1718 -0.4463
  132OSM    H9F14329   4.957   3.994   5.955  0.0561  2.5279 -0.3895
  132OSM   C10F14330   4.818   4.045   5.807  0.2405  0.2051  0.8367
  132OSM   H10F14331   4.887   4.029   5.723 -2.2727 -0.4314 -1.2463
  132OSM   C11F14332   4.679   4.092   5.758  0.9416 -0.2850  0.0491
  132OSM   H11F14333   4.637   4.175   5.818  0.7117  0.3313 -0.9427
  132OSM   H11G14334   4.606   4.009   5.773  1.3088 -0.6123  0.0416
  132OSM   C12F14335   4.680   4.151   5.614  0.8715  0.4554 -0.4456
  132OSM   H12F14336   4.751   4.235   5.623 -1.3661  2.2438  2.0617
  132OSM   H12G14337   4.592   4.218   5.599  1.5667  1.9769  1.8306
  132OSM   C13F14338   4.713   4.061   5.504  0.0386 -1.0004  0.0166
  132OSM   H13F14339   4.645   3.978   5.477 -1.1419 -0.1859  0.4318
  132OSM   H13G14340   4.815   4.019   5.519 -0.0404 -0.9319  0.8372
  132OSM   C14F14341   4.728   4.147   5.371 -0.4287  0.3557 -0.2492
  132OSM   H14F14342   4.738   4.084   5.280 -3.6857  0.8282 -1.0574
  132OSM   H14G14343   4.827   4.196   5.374  1.5045 -3.2311  1.2328
  132OSM   C15F14344   4.611   4.246   5.339  0.0974 -0.3952  0.0667
  132OSM   H15F14345   4.615   4.342   5.394  1.4383  0.2427 -1.0665
  132OSM   H15G14346   4.517   4.205   5.382 -0.1118 -2.0924 -1.8246
  132OSM   C16F14347   4.598   4.275   5.190  0.6810 -0.1369 -0.1669
  132OSM   H16F14348   4.489   4.291   5.174  0.9068  1.4990 -0.2757
  132OSM   H16G14349   4.628   4.192   5.123  2.6445  0.2469  0.1812
  132OSM   C17F14350   4.661   4.408   5.152 -0.3774  0.1980 -0.3059
  132OSM   H17F14351   4.612   4.485   5.215  0.4247  0.4998 -0.0445
  132OSM   H17G14352   4.626   4.431   5.049 -0.2439  1.1384 -0.1472
  132OSM   C18F14353   4.815   4.414   5.153 -0.2164 -0.1420 -0.6517
  132OSM   H18F14354   4.849   4.372   5.250 -0.0970 -0.0798 -0.6668
  132OSM   H18G14355   4.816   4.525   5.150 -1.1419 -0.1575 -2.4589
  132OSM   H18H14356   4.870   4.374   5.065 -0.7065 -1.1012 -0.5280
  133OSM      N14357   2.042   4.949   7.573 -0.1691  0.3320 -1.0156
  133OSM    C1514358   2.107   4.873   7.685  0.1529 -0.1917 -0.6844
  133OSM   H15A14359   2.214   4.885   7.673  0.2502 -2.4104 -2.6258
  133OSM   H15B14360   2.090   4.768   7.667  0.9131 -0.2279 -1.2214
  133OSM   H15C14361   2.067   4.901   7.781 -2.0991  0.9918 -1.8843
  133OSM    C1414362   1.898   4.947   7.588 -0.2140 -1.0194  0.2133
  133OSM   H14A14363   1.869   5.000   7.677  1.9666 -0.9847  0.9741
  133OSM   H14B14364   1.849   4.851   7.582 -1.6907 -0.2243 -1.4752
  133OSM   H14C14365   1.855   5.003   7.507  0.7719  1.2029  1.1518
  133OSM    C1314366   2.097   5.093   7.582  0.5089 -0.2482  0.4128
  133OSM   H13A14367   2.061   5.153   7.499 -1.1445 -0.0538  1.2204
  133OSM   H13B14368   2.204   5.100   7.588  0.5139 -1.5882  2.4658
  133OSM   H13C14369   2.063   5.143   7.671  1.9905  0.6369  0.5204
  133OSM    C1214370   2.081   4.883   7.443  0.4455  0.4985  0.1252
  133OSM   H12A14371   2.187   4.868   7.449  0.3484 -0.5490 -0.4921
  133OSM   H12B14372   2.054   4.949   7.362  1.0050 -1.6014 -1.8764
  133OSM    C1114373   2.018   4.748   7.407  0.2522 -0.2250 -0.2426
  133OSM   H11A14374   2.048   4.717   7.305  1.1412  1.7289 -0.6275
  133OSM   H11B14375   1.909   4.769   7.403  0.4244  0.7852  0.1647
  133OSM      P14376   2.174   4.561   7.518 -0.2605 -0.4027  0.1047
  133OSM    O1314377   2.290   4.639   7.575  0.1442  0.1080  0.5081
  133OSM    O1414378   2.136   4.436   7.582 -0.1323 -0.2236 -0.2842
  133OSM    O1114379   2.202   4.520   7.371  0.2596  0.2598  0.1114
  133OSM    O1214380   2.047   4.649   7.508 -0.6371 -0.3538 -0.0290
  133OSM    C1S14381   2.303   4.555   7.281  0.6624 -0.3001  0.4920
  133OSM    H1S14382   2.399   4.564   7.337  0.4388  2.8177  0.5450
  133OSM    H1T14383   2.285   4.659   7.248  2.0853  0.0941  0.8667
  133OSM     NF14384   2.461   4.442   7.109 -0.4309 -0.1456  0.2984
  133OSM    HNF14385   2.495   4.514   7.049 -0.4599  1.1738  1.7879
  133OSM    C2S14386   2.328   4.446   7.168 -0.2686 -0.3602 -0.2448
  133OSM    H2S14387   2.312   4.350   7.221  1.5573 -0.2448  0.6020
  133OSM    C3S14388   2.210   4.476   7.072 -0.2442 -0.3907 -0.4795
  133OSM    H3S14389   2.218   4.586   7.060  2.0416  0.0318  3.2109
  133OSM     O314390   2.079   4.460   7.125  0.2602 -0.1048 -0.4439
  133OSM    HO314391   2.096   4.420   7.211 -2.2349  2.6040  1.5456
  133OSM    C4S14392   2.218   4.402   6.937  0.3782  0.2675 -0.4687
  133OSM    H4S14393   2.180   4.299   6.944  0.7359  0.2173  1.0405
  133OSM    C5S14394   2.246   4.457   6.816 -0.8794  0.8698 -0.4192
  133OSM    H5S14395   2.257   4.566   6.816  0.0936  0.8265  2.1701
  133OSM    C6S14396   2.254   4.384   6.690 -0.3629  0.2751 -0.1032
  133OSM    H6S14397   2.226   4.277   6.703 -1.0443  0.4668  0.0603
  133OSM    H6T14398   2.355   4.394   6.646 -0.8792 -0.0699 -1.4219
  133OSM    C7S14399   2.150   4.432   6.587 -0.0073  0.9840 -0.4339
  133OSM    H7S14400   2.165   4.539   6.562 -1.3791  1.2334 -0.3123
  133OSM    H7T14401   2.044   4.422   6.622  0.2532 -0.2289  0.0895
  133OSM    C8S14402   2.172   4.340   6.465  0.0772  0.6017 -1.0350
  133OSM    H8S14403   2.135   4.239   6.491 -2.4466  1.7533  0.3286
  133OSM    H8T14404   2.279   4.350   6.439 -0.0875  0.4696 -1.7869
  133OSM    C9S14405   2.091   4.402   6.348 -0.4223  0.2882 -0.5114
  133OSM    H9S14406   2.122   4.508   6.336  0.6901  0.1890  1.1803
  133OSM    H9T14407   1.981   4.400   6.365 -0.4858 -0.0801 -0.9371
  133OSM   C10S14408   2.127   4.320   6.225 -0.0142 -0.6950  0.1925
  133OSM   H10S14409   2.094   4.215   6.244  0.2359 -1.2359 -2.1036
  133OSM   H10T14410   2.235   4.312   6.203 -0.0479 -3.2778  0.6276
  133OSM   C11S14411   2.058   4.364   6.096  0.0624  0.4750 -0.0551
  133OSM   H11S14412   2.088   4.470   6.078 -1.7824  0.9725 -0.4967
  133OSM   H11T14413   1.947   4.368   6.110 -0.1541  0.1015 -1.5296
  133OSM   C12S14414   2.095   4.284   5.975 -0.2347  0.4020 -1.0759
  133OSM   H12S14415   2.085   4.175   5.994 -0.7752  0.4776 -0.8992
  133OSM   H12T14416   2.204   4.304   5.972  0.0711 -0.3317  1.7076
  133OSM   C13S14417   2.022   4.322   5.849 -0.0672  0.4939 -0.2990
  133OSM   H13S14418   2.037   4.432   5.836  0.0551  0.2639 -2.4569
  133OSM   H13T14419   1.914   4.301   5.863  0.2542 -1.1854 -0.1543
  133OSM   C14S14420   2.076   4.257   5.723 -0.6223 -0.3714 -0.0740
  133OSM   H14S14421   2.020   4.161   5.717  0.2266 -0.9621  1.1017
  133OSM   H14T14422   2.184   4.231   5.727 -0.5172  0.1483  0.5433
  133OSM   C15S14423   2.048   4.351   5.605 -0.4810  1.0188  0.0869
  133OSM   H15S14424   2.094   4.452   5.614 -1.0239  1.4894 -1.8298
  133OSM   H15T14425   1.941   4.366   5.581 -1.1237 -0.9642  1.4438
  133OSM   C16S14426   2.121   4.287   5.475  0.4679  0.1065 -0.6005
  133OSM   H16S14427   2.059   4.200   5.445 -1.4513  1.1889  0.0077
  133OSM   H16T14428   2.222   4.247   5.496  0.8880  0.8691 -1.1149
  133OSM   C17S14429   2.131   4.381   5.359 -0.2067 -0.4997  0.5651
  133OSM   H17S14430   2.171   4.482   5.382  0.8394 -0.0956 -2.4910
  133OSM   H17T14431   2.024   4.396   5.333 -0.3477 -1.8602  0.2719
  133OSM   C18S14432   2.201   4.319   5.238 -0.5402 -0.4286  0.4176
  133OSM   H18S14433   2.302   4.277   5.260 -0.4273  0.2867  1.3127
  133OSM   H18T14434   2.214   4.390   5.154  2.1003 -1.4080 -0.1021
  133OSM   H18U14435   2.141   4.234   5.198 -0.3399  0.1811 -1.2487
  133OSM    C1F14436   2.567   4.371   7.162 -0.3592  0.4443 -0.0220
  133OSM     OF14437   2.550   4.283   7.251 -0.2727 -0.1011  0.2044
  133OSM    C2F14438   2.704   4.408   7.119 -0.3534 -0.0847  0.5592
  133OSM    H2F14439   2.778   4.417   7.201  0.2092 -1.0069  0.1578
  133OSM    H2G14440   2.691   4.508   7.072  0.4862  0.0272  0.5572
  133OSM    C3F14441   2.753   4.313   7.011  0.5158 -0.0488 -0.0548
  133OSM    H3F14442   2.742   4.205   7.033 -2.3145  0.0120 -0.8934
  133OSM    H3G14443   2.855   4.343   6.978  0.3076  0.7063 -0.0381
  133OSM    C4F14444   2.674   4.326   6.883 -0.0112  0.0231  0.1754
  133OSM    H4F14445   2.684   4.430   6.845  1.9846 -0.2638 -0.2078
  133OSM    H4G14446   2.565   4.316   6.904  0.2508  1.3956  2.5771
  133OSM    C5F14447   2.729   4.242   6.768 -0.4024  0.2616 -0.5788
  133OSM    H5F14448   2.751   4.142   6.813  1.6767  0.5352 -0.8730
  133OSM    H5G14449   2.830   4.274   6.737 -0.8404  0.0465 -2.3013
  133OSM    C6F14450   2.636   4.220   6.647  0.1276  0.1438 -0.0952
  133OSM    H6F14451   2.664   4.294   6.570 -1.3261  2.0385  1.1223
  133OSM    H6G14452   2.527   4.229   6.666  0.0373  1.4714 -1.1089
  133OSM    C7F14453   2.651   4.086   6.583  0.2237 -0.2562  0.4228
  133OSM    H7F14454   2.628   4.009   6.659 -4.2935  0.6869  0.3197
  133OSM    H7G14455   2.754   4.077   6.543 -0.8824 -0.6665 -2.6241
  133OSM    C8F14456   2.583   4.060   6.446  0.0061  0.0104  0.3409
  133OSM    H8F14457   2.474   4.065   6.470  0.3920 -1.9299  2.9128
  133OSM    H8G14458   2.603   3.957   6.410  2.3143  0.8716 -1.0560
  133OSM    C9F14459   2.616   4.157   6.331 -0.0618  0.1138  0.5785
  133OSM    H9F14460   2.690   4.235   6.355  0.5900  1.0445 -3.6006
  133OSM   C10F14461   2.573   4.157   6.205  0.3782 -0.0990  0.8038
  133OSM   H10F14462   2.586   4.242   6.136  1.9137 -1.2618 -0.4214
  133OSM   C11F14463   2.480   4.050   6.147  0.4279 -0.1079 -0.0653
  133OSM   H11F14464   2.375   4.086   6.154  0.1938 -1.1041  4.2118
  133OSM   H11G14465   2.480   3.957   6.207 -3.1016 -0.0148  0.2515
  133OSM   C12F14466   2.502   4.013   5.997  1.0662 -0.0846 -0.4035
  133OSM   H12F14467   2.458   3.912   5.982 -2.0340  0.8885  1.3126
  133OSM   H12G14468   2.612   3.997   5.989  1.0212 -0.6577  0.0839
  133OSM   C13F14469   2.436   4.114   5.894 -0.4597  0.0923  0.4884
  133OSM   H13F14470   2.479   4.212   5.923 -0.4124 -0.2588  1.6788
  133OSM   H13G14471   2.326   4.109   5.909 -0.3517  2.0116  2.4559
  133OSM   C14F14472   2.462   4.074   5.744  0.5395 -0.5211 -0.2187
  133OSM   H14F14473   2.376   4.017   5.703  0.6161 -2.7463  2.4245
  133OSM   H14G14474   2.549   4.005   5.750 -1.4938 -3.2567 -0.2559
  133OSM   C15F14475   2.492   4.200   5.659 -0.3453  0.3796  0.3107
  133OSM   H15F14476   2.568   4.257   5.716  0.1440  0.1217 -0.0799
  133OSM   H15G14477   2.404   4.267   5.646 -0.6065  0.0326  0.2597
  133OSM   C16F14478   2.554   4.155   5.529  0.1081 -0.2366 -0.1794
  133OSM   H16F14479   2.660   4.121   5.534  0.3262  0.2320 -1.2964
  133OSM   H16G14480   2.558   4.248   5.468 -1.6100  0.1958  0.3225
  133OSM   C17F14481   2.477   4.048   5.447 -0.1787  0.1603 -0.0647
  133OSM   H17F14482   2.373   4.079   5.423 -0.2698 -0.0316  0.0795
  133OSM   H17G14483   2.476   3.955   5.509 -1.2388 -1.3980 -2.2526
  133OSM   C18F14484   2.533   4.001   5.313 -0.4495  0.1792  0.4692
  133OSM   H18F14485   2.570   4.080   5.244 -1.7752  1.3812  1.1006
  133OSM   H18G14486   2.458   3.935   5.264  0.7262  0.0341 -1.2238
  133OSM   H18H14487   2.621   3.933   5.327  1.1694  2.1607  0.3680
  134OSM      N14488   0.119   2.884   7.547 -1.0394  0.7308  0.3638
  134OSM    C1514489   0.250   2.799   7.554 -0.1368 -0.6217 -0.1520
  134OSM   H15A14490   0.242   2.717   7.623  1.1319 -0.7494 -0.1329
  134OSM   H15B14491   0.338   2.850   7.590  1.6627 -3.0366 -0.8277
  134OSM   H15C14492   0.296   2.759   7.465 -0.7099 -1.6618  0.0045
  134OSM    C1414493   0.076   2.892   7.693 -0.3301  0.2712 -0.0354
  134OSM   H14A14494   0.149   2.938   7.757 -1.7046 -0.2046  1.9749
  134OSM   H14B14495   0.042   2.797   7.732  0.0125 -0.2185 -0.8906
  134OSM   H14C14496  -0.002   2.967   7.692 -0.4280  0.1702 -1.0146
  134OSM    C1314497   0.155   3.017   7.491 -0.4352 -0.2966  0.0597
  134OSM   H13A14498   0.227   3.061   7.558 -2.4342  0.1782  1.9950
  134OSM   H13B14499   0.065   3.077   7.492 -0.8839 -0.9486  0.8314
  134OSM   H13C14500   0.200   3.013   7.393  2.0943  3.2845  0.8821
  134OSM    C1214501   0.026   2.805   7.467 -0.0828 -0.1327  0.6406
  134OSM   H12A14502  -0.071   2.851   7.481 -0.6796 -1.3422  0.5971
  134OSM   H12B14503   0.021   2.703   7.502 -1.1139 -0.4197 -0.2886
  134OSM    C1114504   0.048   2.805   7.313  0.4060  0.2654 -0.1352
  134OSM   H11A14505   0.038   2.912   7.281 -1.9692  0.0039 -0.4517
  134OSM   H11B14506  -0.039   2.750   7.271  1.7961 -1.1433 -1.2935
  134OSM      P14507   0.180   2.583   7.253  0.3478 -0.1617  0.1760
  134OSM    O1314508   0.327   2.565   7.238 -1.0844  0.0508 -0.1825
  134OSM    O1414509   0.114   2.520   7.366 -0.0729  0.2980  0.0820
  134OSM    O1114510   0.108   2.541   7.120  0.1041 -0.2334 -0.2679
  134OSM    O1214511   0.168   2.745   7.270  0.4972 -0.0683  0.4594
  134OSM    C1S14512   0.114   2.620   7.003 -0.0329 -0.4092  0.0609
  134OSM    H1S14513   0.199   2.573   6.948  2.3459  2.4851  1.0032
  134OSM    H1T14514   0.149   2.725   7.011  2.6090 -1.2448  0.6042
  134OSM     NF14515  -0.012   2.659   6.785 -0.2271  0.3764  0.2651
  134OSM    HNF14516  -0.056   2.746   6.764  0.6043  1.2358  1.9045
  134OSM    C2S14517  -0.019   2.613   6.919  0.0177  0.1942 -0.4908
  134OSM    H2S14518  -0.039   2.506   6.896  0.7663  0.1779 -1.0873
  134OSM    C3S14519  -0.154   2.642   6.992  0.3431 -0.2784 -0.1139
  134OSM    H3S14520  -0.142   2.746   7.030  0.9313 -0.3024 -0.2207
  134OSM     O314521  -0.177   2.567   7.115  0.2735  0.2815  0.0944
  134OSM    HO314522  -0.100   2.510   7.127 -1.2030 -1.3550  2.8778
  134OSM    C4S14523  -0.267   2.651   6.899 -0.5822  0.4841  0.4525
  134OSM    H4S14524  -0.292   2.756   6.877 -0.4514  0.0590 -1.9536
  134OSM    C5S14525  -0.345   2.548   6.852 -0.2578  0.1974  0.1134
  134OSM    H5S14526  -0.323   2.446   6.887  0.0432 -0.1273 -0.9774
  134OSM    C6S14527  -0.456   2.561   6.755  0.9136 -0.6393  0.1071
  134OSM    H6S14528  -0.549   2.556   6.816  0.2818 -3.4309 -0.9062
  134OSM    H6T14529  -0.473   2.473   6.690 -0.0190  0.7175 -1.5536
  134OSM    C7S14530  -0.464   2.691   6.673  0.6429 -0.3448 -0.1199
  134OSM    H7S14531  -0.458   2.783   6.735  0.0605  0.1070 -0.7291
  134OSM    H7T14532  -0.560   2.689   6.618  0.4684 -1.2767  0.2007
  134OSM    C8S14533  -0.358   2.697   6.555  0.5360 -0.7141  0.7464
  134OSM    H8S14534  -0.368   2.612   6.485 -1.8625 -0.2044  0.3796
  134OSM    H8T14535  -0.253   2.698   6.591  0.4989  0.1891  0.8561
  134OSM    C9S14536  -0.377   2.823   6.466  0.6276 -0.1501  0.4028
  134OSM    H9S14537  -0.350   2.915   6.522  0.1959  0.3189 -0.1471
  134OSM    H9T14538  -0.485   2.828   6.438  0.3211 -2.7463  0.8876
  134OSM   C10S14539  -0.293   2.815   6.337  0.1650  0.4037  0.1269
  134OSM   H10S14540  -0.197   2.765   6.359  1.1367  2.3068  0.3946
  134OSM   H10T14541  -0.276   2.920   6.307  0.1552  0.5910  0.7689
  134OSM   C11S14542  -0.363   2.737   6.225 -0.4297 -0.0116 -0.1034
  134OSM   H11S14543  -0.472   2.759   6.218 -0.8273 -2.1627 -1.6126
  134OSM   H11T14544  -0.370   2.627   6.240 -1.4530 -0.0716 -0.8746
  134OSM   C12S14545  -0.299   2.778   6.092 -0.6952  0.1741 -0.0964
  134OSM   H12S14546  -0.196   2.738   6.080  0.0474  2.2504 -1.1611
  134OSM   H12T14547  -0.297   2.888   6.073  0.6220  0.0138 -0.9480
  134OSM   C13S14548  -0.370   2.707   5.975  0.5455 -0.3145  0.5682
  134OSM   H13S14549  -0.477   2.735   5.982 -0.2416 -3.1300  0.7842
  134OSM   H13T14550  -0.370   2.596   5.966 -0.8352 -0.1604 -2.5905
  134OSM   C14S14551  -0.317   2.762   5.841 -0.2525 -0.0942  0.0721
  134OSM   H14S14552  -0.250   2.685   5.797 -0.5651 -1.3147  1.6651
  134OSM   H14T14553  -0.256   2.854   5.858  1.1149 -0.1751 -3.5051
  134OSM   C15S14554  -0.430   2.793   5.735 -0.2932  0.1224 -0.3454
  134OSM   H15S14555  -0.389   2.836   5.641 -0.7384 -1.1775 -1.1610
  134OSM   H15T14556  -0.490   2.873   5.785  0.4439  1.1511 -1.0517
  134OSM   C16S14557  -0.523   2.680   5.717  0.1641 -0.5670  0.2487
  134OSM   H16S14558  -0.539   2.619   5.808  1.9534  0.1982  1.1244
  134OSM   H16T14559  -0.475   2.611   5.644 -1.4938  0.7967 -2.3026
  134OSM   C17S14560  -0.655   2.728   5.652  0.3865 -0.0799 -0.2304
  134OSM   H17S14561  -0.629   2.781   5.558 -0.7357 -0.1773 -0.6177
  134OSM   H17T14562  -0.711   2.789   5.726 -0.0445 -1.8610  0.9913
  134OSM   C18S14563  -0.746   2.609   5.605 -0.2419 -1.1685 -0.2977
  134OSM   H18S14564  -0.819   2.648   5.531 -0.0269 -1.9907 -0.9669
  134OSM   H18T14565  -0.794   2.566   5.695  2.6274  1.0546  2.5094
  134OSM   H18U14566  -0.681   2.531   5.558 -0.2912 -1.6304  0.3947
  134OSM    C1F14567   0.082   2.626   6.699  0.1790 -0.1285  0.0249
  134OSM     OF14568   0.151   2.522   6.700 -0.0772 -0.2531  0.5667
  134OSM    C2F14569   0.116   2.732   6.594 -0.8573  0.4347 -0.5667
  134OSM    H2F14570   0.217   2.768   6.622  0.0307 -2.9561  1.0939
  134OSM    H2G14571   0.043   2.816   6.599 -1.1334  0.1694  0.0737
  134OSM    C3F14572   0.124   2.686   6.455 -0.3244  0.8772 -0.3942
  134OSM    H3F14573   0.032   2.663   6.398 -1.6617 -3.5363  2.9604
  134OSM    H3G14574   0.180   2.590   6.455 -1.0607  0.4144  1.2699
  134OSM    C4F14575   0.209   2.788   6.372  0.7830  0.1657  0.0947
  134OSM    H4F14576   0.310   2.806   6.416  0.1215  3.7934  0.4247
  134OSM    H4G14577   0.168   2.891   6.380  0.8485  0.3980 -2.1114
  134OSM    C5F14578   0.206   2.744   6.223 -0.2745 -0.0238  0.7487
  134OSM    H5F14579   0.100   2.718   6.203 -0.1639 -0.7065  1.0030
  134OSM    H5G14580   0.271   2.653   6.220  1.5013  1.1119  2.4996
  134OSM    C6F14581   0.251   2.848   6.122  0.0644  0.3212 -0.0179
  134OSM    H6F14582   0.357   2.872   6.143  0.2394 -0.9466  0.6452
  134OSM    H6G14583   0.194   2.943   6.132  0.9421  0.6423  3.2719
  134OSM    C7F14584   0.236   2.789   5.980  0.1420 -0.3845 -0.3451
  134OSM    H7F14585   0.133   2.749   5.968 -0.6056  1.4844 -0.3250
  134OSM    H7G14586   0.307   2.703   5.980  0.7231  0.0786 -0.9863
  134OSM    C8F14587   0.278   2.886   5.870  0.0814 -0.2536  0.2125
  134OSM    H8F14588   0.368   2.940   5.907  2.1341 -1.8780 -2.0695
  134OSM    H8G14589   0.203   2.962   5.840  0.7929  0.4871  0.2572
  134OSM    C9F14590   0.318   2.806   5.748  0.3258  0.5602  0.8377
  134OSM    H9F14591   0.426   2.798   5.733  0.0528  1.5009 -2.3656
  134OSM   C10F14592   0.229   2.748   5.661  0.1333 -0.4891  0.3275
  134OSM   H10F14593   0.274   2.702   5.572  0.3290 -1.7120  1.0402
  134OSM   C11F14594   0.080   2.764   5.657 -0.1486  0.7360  0.1525
  134OSM   H11F14595   0.038   2.856   5.703 -2.5188  0.6899 -1.7137
  134OSM   H11G14596   0.035   2.683   5.720  1.5485 -1.7142 -1.5908
  134OSM   C12F14597   0.025   2.767   5.510 -0.4313 -0.1290  0.1748
  134OSM   H12F14598   0.074   2.686   5.452  2.5734  0.7876  1.2664
  134OSM   H12G14599   0.062   2.864   5.472  1.2315 -1.3296 -1.4375
  134OSM   C13F14600  -0.124   2.761   5.494 -0.2309  0.5671 -0.3935
  134OSM   H13F14601  -0.160   2.864   5.513 -1.2865  0.3463 -1.1151
  134OSM   H13G14602  -0.177   2.696   5.567 -1.4769  3.2904  1.2805
  134OSM   C14F14603  -0.170   2.716   5.354  0.0596  0.1227 -0.2992
  134OSM   H14F14604  -0.138   2.610   5.348  0.1893 -0.0065  1.9907
  134OSM   H14G14605  -0.125   2.776   5.272  0.1058 -0.3621 -0.6359
  134OSM   C15F14606  -0.323   2.709   5.328  0.0472 -0.3871  0.4495
  134OSM   H15F14607  -0.351   2.812   5.358  0.6958 -0.7909  2.6761
  134OSM   H15G14608  -0.373   2.649   5.408 -0.5699 -3.1523 -1.8493
  134OSM   C16F14609  -0.378   2.673   5.190  0.1272 -0.3026 -0.4241
  134OSM   H16F14610  -0.345   2.567   5.182  1.5792 -0.0091  1.0168
  134OSM   H16G14611  -0.326   2.716   5.101  2.6904 -1.5722  0.3662
  134OSM   C17F14612  -0.533   2.680   5.181 -0.1381  0.0575  0.4283
  134OSM   H17F14613  -0.561   2.788   5.182  2.6180  1.0532 -3.4966
  134OSM   H17G14614  -0.582   2.623   5.262 -1.6252 -1.9957 -1.7562
  134OSM   C18F14615  -0.594   2.623   5.050  0.4693 -0.2042 -0.4206
  134OSM   H18F14616  -0.541   2.654   4.957 -1.3303 -0.2484 -1.5082
  134OSM   H18G14617  -0.695   2.664   5.029 -0.1754 -1.3568  0.3229
  134OSM   H18H14618  -0.605   2.512   5.053 -2.6604  0.0475  1.3160
  135OSM      N14619   1.944   0.751   7.045  0.1539  0.2576 -0.3211
  135OSM    C1514620   1.855   0.708   6.935  0.1879 -0.3429 -0.2359
  135OSM   H15A14621   1.893   0.615   6.896  0.8172  0.2777 -1.1344
  135OSM   H15B14622   1.852   0.779   6.854 -1.0036 -1.2735 -1.0501
  135OSM   H15C14623   1.748   0.701   6.950 -0.3969 -1.8383 -3.9995
  135OSM    C1414624   1.916   0.662   7.163 -0.1944  0.0386 -0.0137
  135OSM   H14A14625   1.814   0.672   7.196 -0.3886  1.1220 -0.8771
  135OSM   H14B14626   1.975   0.686   7.250 -0.4535 -1.3341  0.5631
  135OSM   H14C14627   1.923   0.557   7.138 -1.4088  0.1224 -0.7917
  135OSM    C1314628   2.088   0.740   7.002  0.2120 -0.3976  0.1006
  135OSM   H13A14629   2.114   0.637   6.982  4.3698  0.2413  1.2427
  135OSM   H13B14630   2.153   0.776   7.081 -1.8726 -0.5597  1.9960
  135OSM   H13C14631   2.109   0.802   6.916 -0.1719  0.2913  0.4870
  135OSM    C1214632   1.914   0.895   7.091  0.5843 -0.0422 -0.4830
  135OSM   H12A14633   1.970   0.921   7.180  0.0073  0.0068 -0.1296
  135OSM   H12B14634   1.815   0.899   7.135  2.0737  1.4162  3.2217
  135OSM    C1114635   1.937   0.997   6.990  0.3515 -0.4953  0.0209
  135OSM   H11A14636   1.867   1.079   7.018  0.1938 -0.2161 -1.1284
  135OSM   H11B14637   1.901   0.968   6.889  1.2420  0.1538 -0.4955
  135OSM      P14638   2.132   1.146   7.066  0.2082  0.1007 -0.0976
  135OSM    O1314639   2.094   1.119   7.205 -0.2468 -0.4835  0.1943
  135OSM    O1414640   2.277   1.161   7.047 -0.2436 -0.4548 -0.2644
  135OSM    O1114641   2.059   1.272   7.015 -0.1487  0.0428 -0.1170
  135OSM    O1214642   2.071   1.033   6.964 -0.0164 -0.3782 -0.8024
  135OSM    C1S14643   2.087   1.352   6.897  0.1589  0.8260  0.3125
  135OSM    H1S14644   2.173   1.310   6.842  0.2472  0.9864  0.3272
  135OSM    H1T14645   2.112   1.457   6.925  1.5063  0.6786 -0.2870
  135OSM     NF14646   1.980   1.394   6.666  0.0075 -1.1740  0.5454
  135OSM    HNF14647   1.967   1.492   6.648 -2.2914 -1.5671 -0.3537
  135OSM    C2S14648   1.953   1.345   6.799 -0.3056  0.6444 -0.1840
  135OSM    H2S14649   1.937   1.237   6.778  2.6428 -0.2011  1.3096
  135OSM    C3S14650   1.828   1.400   6.873 -0.0187 -0.5841 -0.0231
  135OSM    H3S14651   1.829   1.511   6.869 -1.8376 -0.5635 -1.8632
  135OSM     O314652   1.813   1.376   7.013  0.1979  0.5285  0.3125
  135OSM    HO314653   1.898   1.336   7.031 -0.1312 -0.6536 -0.6710
  135OSM    C4S14654   1.713   1.365   6.787  0.4481 -0.4918 -0.3885
  135OSM    H4S14655   1.683   1.437   6.709  1.5377 -0.3291 -0.6696
  135OSM    C5S14656   1.647   1.246   6.795  0.0748 -0.4042  0.4110
  135OSM    H5S14657   1.674   1.174   6.873 -0.3963 -1.1501 -0.1018
  135OSM    C6S14658   1.530   1.210   6.707  0.1681  0.8458 -0.1503
  135OSM    H6S14659   1.445   1.228   6.776 -0.2304  0.1031 -0.4329
  135OSM    H6T14660   1.515   1.102   6.687 -3.1152  1.5179 -2.2259
  135OSM    C7S14661   1.506   1.290   6.576  0.2053  0.5396  0.0479
  135OSM    H7S14662   1.500   1.400   6.594  3.1748  0.4727  2.2464
  135OSM    H7T14663   1.401   1.265   6.550 -0.7590  1.4308  2.7473
  135OSM    C8S14664   1.601   1.246   6.468  0.1601  0.3563 -0.0460
  135OSM    H8S14665   1.583   1.137   6.456  0.3398 -0.0638  2.9319
  135OSM    H8T14666   1.706   1.268   6.500 -0.4076 -0.0907  2.2747
  135OSM    C9S14667   1.572   1.326   6.344 -0.2917 -0.5780 -0.7554
  135OSM    H9S14668   1.580   1.435   6.364  0.1037 -0.3638 -2.0113
  135OSM    H9T14669   1.467   1.302   6.315 -0.6774 -0.8129  0.7623
  135OSM   C10S14670   1.657   1.280   6.228 -0.1641 -0.2541 -0.0996
  135OSM   H10S14671   1.629   1.173   6.218  2.8446 -1.1052 -0.4233
  135OSM   H10T14672   1.765   1.281   6.253 -0.4258  0.0283  1.0545
  135OSM   C11S14673   1.635   1.374   6.108  0.5729 -0.0425  0.0382
  135OSM   H11S14674   1.686   1.472   6.115 -0.9215  0.7881 -0.2319
  135OSM   H11T14675   1.526   1.395   6.111  0.6864  0.4182  1.5858
  135OSM   C12S14676   1.656   1.291   5.976  0.0004  0.1791  0.4939
  135OSM   H12S14677   1.589   1.202   5.981 -0.5772  0.4024 -2.1250
  135OSM   H12T14678   1.762   1.259   5.983 -0.3889 -0.9562  1.6121
  135OSM   C13S14679   1.645   1.366   5.844  0.0903 -1.6102 -0.0413
  135OSM   H13S14680   1.723   1.445   5.840  0.3661 -1.8629  0.2655
  135OSM   H13T14681   1.544   1.412   5.843  1.5973  1.9655 -0.2225
  135OSM   C14S14682   1.677   1.284   5.716  0.3495  0.0190 -0.4873
  135OSM   H14S14683   1.584   1.229   5.690  1.7575 -1.8083 -1.8688
  135OSM   H14T14684   1.755   1.211   5.745 -0.2124 -0.1940  0.5622
  135OSM   C15S14685   1.715   1.365   5.595 -0.0588 -0.2910  0.5260
  135OSM   H15S14686   1.794   1.440   5.617  0.0633 -0.0209 -0.7401
  135OSM   H15T14687   1.621   1.419   5.571 -0.3123 -1.1243 -0.4095
  135OSM   C16S14688   1.749   1.282   5.467  0.0550  0.2833 -0.1862
  135OSM   H16S14689   1.839   1.220   5.482  0.2160  0.4220 -0.5856
  135OSM   H16T14690   1.755   1.351   5.380 -1.4670 -1.1985 -1.5403
  135OSM   C17S14691   1.633   1.189   5.419  0.3367 -0.2549 -0.1552
  135OSM   H17S14692   1.536   1.243   5.426  0.3611  0.0250 -1.6164
  135OSM   H17T14693   1.635   1.107   5.494 -0.2883 -0.0694  0.0745
  135OSM   C18S14694   1.662   1.147   5.277 -0.5685 -0.2647  0.2519
  135OSM   H18S14695   1.753   1.083   5.276 -0.3393  0.0548  0.4409
  135OSM   H18T14696   1.690   1.241   5.225 -2.0637 -0.8037 -1.6517
  135OSM   H18U14697   1.572   1.098   5.235 -0.6015 -0.1651  0.2067
  135OSM    C1F14698   2.033   1.329   6.567 -0.1105  0.1037  0.0582
  135OSM     OF14699   2.069   1.216   6.590 -0.3919 -0.2316  0.3637
  135OSM    C2F14700   2.035   1.392   6.428 -0.2835  0.2149 -0.3343
  135OSM    H2F14701   2.086   1.489   6.442  0.6163 -0.2821 -0.0467
  135OSM    H2G14702   1.929   1.399   6.397 -0.3075 -1.7385 -0.8418
  135OSM    C3F14703   2.114   1.312   6.312 -0.1753 -0.2625 -0.7223
  135OSM    H3F14704   2.077   1.208   6.313  0.5851 -0.5414  0.7996
  135OSM    H3G14705   2.216   1.332   6.350 -0.0162  1.2231 -1.8333
  135OSM    C4F14706   2.094   1.390   6.182  0.2584  0.3766  0.3036
  135OSM    H4F14707   1.987   1.416   6.176 -0.1140 -0.8033  1.2417
  135OSM    H4G14708   2.153   1.484   6.185 -0.5896  0.9662 -1.0502
  135OSM    C5F14709   2.147   1.315   6.053  0.1533  0.6683 -0.3272
  135OSM    H5F14710   2.114   1.209   6.061 -2.3602  1.3901 -0.1262
  135OSM    H5G14711   2.258   1.308   6.053  0.1050 -0.2742  0.3522
  135OSM    C6F14712   2.091   1.364   5.919  0.8799 -0.5405  0.5796
  135OSM    H6F14713   2.119   1.471   5.902  1.5243 -1.0159 -1.7588
  135OSM    H6G14714   1.981   1.353   5.934  0.4214  1.3050 -0.9187
  135OSM    C7F14715   2.131   1.282   5.797  0.6893 -0.5024 -0.0014
  135OSM    H7F14716   2.058   1.199   5.801 -0.0798  0.1780  0.4469
  135OSM    H7G14717   2.234   1.240   5.795 -0.4125 -3.3645 -0.2776
  135OSM    C8F14718   2.108   1.354   5.660 -0.3586 -0.3057 -0.4046
  135OSM    H8F14719   2.140   1.459   5.678 -0.0151 -0.6578  1.2017
  135OSM    H8G14720   1.998   1.369   5.651 -0.6582  0.0585  2.7380
  135OSM    C9F14721   2.155   1.274   5.538  0.2314 -0.2395 -0.5533
  135OSM    H9F14722   2.134   1.166   5.539  2.9099 -0.8365  0.3878
  135OSM   C10F14723   2.231   1.319   5.432  0.2720  0.9920  0.1880
  135OSM   H10F14724   2.262   1.250   5.352 -0.4088  2.3771 -1.3300
  135OSM   C11F14725   2.256   1.466   5.410  0.0329  0.1038  0.5925
  135OSM   H11F14726   2.364   1.488   5.426 -0.3675  0.9075  2.4367
  135OSM   H11G14727   2.199   1.523   5.486 -2.0740 -1.2795  0.1380
  135OSM   C12F14728   2.216   1.515   5.270  0.4415 -0.0910 -0.4860
  135OSM   H12F14729   2.192   1.623   5.280 -1.5677 -0.3679 -1.7248
  135OSM   H12G14730   2.120   1.469   5.238  0.5513 -2.2414  1.9360
  135OSM   C13F14731   2.323   1.499   5.161  0.0382  0.8169  0.2386
  135OSM   H13F14732   2.322   1.400   5.109 -1.1470  1.9171 -1.9746
  135OSM   H13G14733   2.419   1.526   5.209 -0.0659  2.1445 -0.2760
  135OSM   C14F14734   2.287   1.588   5.045 -0.4730  0.1992 -0.4101
  135OSM   H14F14735   2.296   1.695   5.074 -2.8959  0.1798  0.6248
  135OSM   H14G14736   2.181   1.566   5.019 -1.8754  3.7313  1.6838
  135OSM   C15F14737   2.366   1.563   4.910  0.5051 -0.5695 -0.5924
  135OSM   H15F14738   2.320   1.633   4.837 -1.8417 -0.7801  0.5951
  135OSM   H15G14739   2.341   1.461   4.877 -2.4301  0.1406 -0.8113
  135OSM   C16F14740   2.522   1.588   4.915 -0.5282 -0.3912 -0.1921
  135OSM   H16F14741   2.582   1.505   4.960 -1.9701 -2.6209 -2.1056
  135OSM   H16G14742   2.541   1.676   4.979  1.6943 -0.7780 -0.2340
  135OSM   C17F14743   2.577   1.609   4.777  1.0358  0.5235 -0.4490
  135OSM   H17F14744   2.517   1.690   4.732  0.5956 -0.2141 -1.2045
  135OSM   H17G14745   2.567   1.513   4.722 -2.7056  1.0185 -0.8533
  135OSM   C18F14746   2.717   1.654   4.783  0.2225  0.0124  0.0358
  135OSM   H18F14747   2.780   1.566   4.811  0.0656 -1.9654 -4.7087
  135OSM   H18G14748   2.736   1.736   4.854  2.5092  0.4242 -0.9612
  135OSM   H18H14749   2.750   1.680   4.680 -0.0946  2.0724  0.4184
  136OSM      N14750   5.536   0.953   7.358 -0.3504 -0.2336 -0.3008
  136OSM    C1514751   5.561   0.919   7.215  0.6682 -0.5398  0.9058
  136OSM   H15A14752   5.464   0.882   7.186 -0.1841  1.7470  0.6800
  136OSM   H15B14753   5.636   0.843   7.197  0.1014 -1.1783  1.1903
  136OSM   H15C14754   5.577   1.011   7.160  0.7487 -0.6497  0.7446
  136OSM    C1414755   5.444   1.069   7.362 -0.1562  0.1402 -0.3240
  136OSM   H14A14756   5.440   1.101   7.465  5.0610  0.6587  0.0035
  136OSM   H14B14757   5.348   1.044   7.319 -1.5049  0.4235  2.3260
  136OSM   H14C14758   5.473   1.157   7.306 -1.3886  1.6003  1.2363
  136OSM    C1314759   5.473   0.838   7.416  0.0504  0.0623  0.0572
  136OSM   H13A14760   5.439   0.849   7.518  0.2622 -1.9357  0.3718
  136OSM   H13B14761   5.539   0.753   7.419  1.6440  1.2489  1.7864
  136OSM   H13C14762   5.382   0.807   7.367 -0.5559 -4.0359  3.1863
  136OSM    C1214763   5.664   0.983   7.430  0.2586 -0.2830  1.1492
  136OSM   H12A14764   5.647   1.006   7.534  0.6097 -0.6696  1.2945
  136OSM   H12B14765   5.710   1.064   7.375 -2.8228  0.4729 -0.5584
  136OSM    C1114766   5.777   0.875   7.424 -0.5238 -0.6543 -0.0326
  136OSM   H11A14767   5.736   0.791   7.484  0.1239  0.2889  1.7727
  136OSM   H11B14768   5.853   0.919   7.490  0.2836  0.9164 -1.9203
  136OSM      P14769   5.845   0.688   7.249 -0.1989  0.1371  0.2484
  136OSM    O1314770   5.900   0.600   7.358  0.1197 -0.4362  0.2462
  136OSM    O1414771   5.723   0.649   7.173  0.0603 -0.0682  0.8710
  136OSM    O1114772   5.961   0.707   7.147 -0.4457  0.3144 -0.3286
  136OSM    O1214773   5.829   0.839   7.301  0.3038 -0.6547  0.0479
  136OSM    C1S14774   5.959   0.812   7.052 -0.6516  0.2046 -0.0639
  136OSM    H1S14775   6.025   0.894   7.089 -1.1872  1.2002 -1.2202
  136OSM    H1T14776   5.858   0.855   7.040 -0.5215  0.5748  0.1497
  136OSM     NF14777   6.009   0.871   6.826 -0.4354 -0.2602  0.7712
  136OSM    HNF14778   5.922   0.870   6.777 -0.7297  1.1141  1.2240
  136OSM    C2S14779   6.020   0.767   6.915 -0.0895  0.0891 -0.4895
  136OSM    H2S14780   6.126   0.754   6.945 -0.2557 -1.5580 -0.5241
  136OSM    C3S14781   5.959   0.628   6.875  0.1871  0.2196  0.3081
  136OSM    H3S14782   5.848   0.632   6.878  0.1787  1.9038 -0.7977
  136OSM     O314783   6.003   0.522   6.962  0.4752 -0.4284  0.4492
  136OSM    HO314784   6.036   0.569   7.038 -1.6991  1.2817  0.4414
  136OSM    C4S14785   5.996   0.597   6.730 -0.0800  0.0490  0.7595
  136OSM    H4S14786   5.913   0.613   6.660  2.0437 -1.5184 -2.3209
  136OSM    C5S14787   6.116   0.551   6.683 -0.1185 -0.5388  0.2101
  136OSM    H5S14788   6.205   0.543   6.747 -1.5107 -1.5279  2.1075
  136OSM    C6S14789   6.107   0.522   6.529  0.7110  0.2777 -0.6471
  136OSM    H6S14790   6.010   0.546   6.482  0.0463 -0.5194  0.2820
  136OSM    H6T14791   6.115   0.412   6.520 -0.4051  0.1987 -0.8111
  136OSM    C7S14792   6.224   0.578   6.443  0.0176 -0.3357 -0.0784
  136OSM    H7S14793   6.214   0.533   6.342  1.5867  2.9188 -1.8329
  136OSM    H7T14794   6.332   0.564   6.467  1.1921  2.5964 -2.8132
  136OSM    C8S14795   6.192   0.725   6.424  0.1157 -0.1989 -0.0132
  136OSM    H8S14796   6.212   0.791   6.511 -0.0421  0.4938 -0.4885
  136OSM    H8T14797   6.085   0.750   6.406 -0.2766 -0.3440  1.9127
  136OSM    C9S14798   6.277   0.772   6.303 -0.0366  0.0067 -0.4966
  136OSM    H9S14799   6.378   0.730   6.325  0.5644  0.6643 -1.8622
  136OSM    H9T14800   6.278   0.883   6.304  1.0208  0.0115  0.8087
  136OSM   C10S14801   6.244   0.712   6.164  0.6109  0.1963 -0.6360
  136OSM   H10S14802   6.168   0.776   6.115  1.8585  0.2495 -2.6103
  136OSM   H10T14803   6.207   0.608   6.174  0.1161  0.5859  2.9889
  136OSM   C11S14804   6.359   0.708   6.067 -0.1583 -1.0425 -0.4837
  136OSM   H11S14805   6.450   0.661   6.111  0.3895  0.3248 -0.0817
  136OSM   H11T14806   6.392   0.812   6.046 -1.4774 -0.2589  1.0707
  136OSM   C12S14807   6.333   0.621   5.941 -0.4084  0.4998 -0.1507
  136OSM   H12S14808   6.264   0.540   5.973 -0.5508  0.9598  0.7226
  136OSM   H12T14809   6.426   0.578   5.898 -2.2132 -1.4546 -2.3508
  136OSM   C13S14810   6.273   0.702   5.826  0.0818 -0.4546 -0.3747
  136OSM   H13S14811   6.343   0.781   5.790  1.4430 -0.8270  1.3532
  136OSM   H13T14812   6.190   0.772   5.851  2.7751  3.4022 -1.1682
  136OSM   C14S14813   6.239   0.613   5.707  0.2798 -0.6370  0.1576
  136OSM   H14S14814   6.171   0.538   5.751  0.8295 -1.1875  0.0872
  136OSM   H14T14815   6.334   0.565   5.674  0.0757  0.7726 -2.7278
  136OSM   C15S14816   6.165   0.693   5.593 -0.3636 -0.0174  0.3975
  136OSM   H15S14817   6.196   0.799   5.590 -1.7702  0.4342  0.7970
  136OSM   H15T14818   6.059   0.708   5.626  0.5007  1.8059  2.5862
  136OSM   C16S14819   6.173   0.635   5.456 -0.0499  0.0648 -0.4641
  136OSM   H16S14820   6.275   0.632   5.412 -1.0223 -1.1146 -2.8038
  136OSM   H16T14821   6.118   0.697   5.382 -1.0005 -1.2837 -0.9298
  136OSM   C17S14822   6.121   0.489   5.455 -0.3968 -0.6262  0.1179
  136OSM   H17S14823   6.013   0.512   5.472 -0.2061  0.6253 -0.2625
  136OSM   H17T14824   6.162   0.418   5.530  0.1377 -0.7741 -0.3080
  136OSM   C18S14825   6.146   0.426   5.320  0.4778 -0.4444 -0.5762
  136OSM   H18S14826   6.123   0.317   5.322  2.3739 -0.8820 -0.4804
  136OSM   H18T14827   6.255   0.428   5.300  1.1140 -2.0005  2.3101
  136OSM   H18U14828   6.083   0.474   5.241 -0.2021  2.1772  1.4127
  136OSM    C1F14829   6.093   0.972   6.825  0.5248  0.5452  0.3259
  136OSM     OF14830   6.172   0.998   6.911 -0.5084 -0.1269  0.4698
  136OSM    C2F14831   6.079   1.054   6.700  0.4836 -0.2748  0.4378
  136OSM    H2F14832   6.021   1.147   6.714 -0.4089 -0.5808 -1.0666
  136OSM    H2G14833   6.050   1.000   6.608  0.6058  0.0669  0.1979
  136OSM    C3F14834   6.216   1.110   6.642 -0.1280 -0.5257  0.1996
  136OSM    H3F14835   6.289   1.026   6.646 -1.0584 -1.3102  0.9707
  136OSM    H3G14836   6.255   1.188   6.712 -1.8955 -0.8415  1.6047
  136OSM    C4F14837   6.204   1.162   6.500  0.0709 -0.0207 -0.3752
  136OSM    H4F14838   6.125   1.239   6.506 -1.2296 -1.2445 -1.2312
  136OSM    H4G14839   6.167   1.084   6.431  1.2524  0.0103 -1.0790
  136OSM    C5F14840   6.339   1.230   6.461  0.2777  0.2398 -0.1777
  136OSM    H5F14841   6.400   1.140   6.440 -1.7240 -0.7599 -2.1039
  136OSM    H5G14842   6.387   1.288   6.543  0.6544 -1.6321  0.9918
  136OSM    C6F14843   6.326   1.315   6.332 -0.1222 -0.4591  0.6502
  136OSM    H6F14844   6.406   1.392   6.337 -0.5872  0.0804 -0.1297
  136OSM    H6G14845   6.224   1.359   6.326  0.3403  0.6928  1.0238
  136OSM    C7F14846   6.347   1.240   6.201 -0.1714  1.1327  0.4364
  136OSM    H7F14847   6.260   1.172   6.191  1.1482 -0.5507 -0.1737
  136OSM    H7G14848   6.443   1.184   6.207 -0.0993  1.2520  0.3991
  136OSM    C8F14849   6.360   1.319   6.073 -0.5262  0.7828  0.2308
  136OSM    H8F14850   6.443   1.392   6.070  0.8077 -0.7087  0.0018
  136OSM    H8G14851   6.269   1.383   6.064 -2.2258 -1.1927  2.2422
  136OSM    C9F14852   6.368   1.222   5.953  0.2880  0.0716 -0.4213
  136OSM    H9F14853   6.422   1.130   5.979  1.5239  0.1362 -2.4508
  136OSM   C10F14854   6.288   1.224   5.841 -0.3723  0.1808  0.0098
  136OSM   H10F14855   6.303   1.146   5.765 -1.4026  0.0454 -0.0645
  136OSM   C11F14856   6.193   1.332   5.802 -0.4364  0.0686 -0.0571
  136OSM   H11F14857   6.177   1.420   5.868  0.6045  0.6879 -0.6210
  136OSM   H11G14858   6.092   1.288   5.787  0.1114 -0.1341 -4.1479
  136OSM   C12F14859   6.225   1.387   5.660 -0.1614  0.2300 -0.1844
  136OSM   H12F14860   6.139   1.434   5.608 -1.4038 -1.0627  0.6134
  136OSM   H12G14861   6.227   1.304   5.587 -0.1954  0.2888 -0.2526
  136OSM   C13F14862   6.365   1.454   5.646  0.4799 -0.0461 -0.1815
  136OSM   H13F14863   6.442   1.407   5.712  0.1083  1.1328  1.1349
  136OSM   H13G14864   6.345   1.549   5.699 -0.9427 -0.2579 -0.2966
  136OSM   C14F14865   6.414   1.472   5.506  0.0107 -0.1949 -0.4908
  136OSM   H14F14866   6.484   1.557   5.495 -1.6129  1.2396 -0.0263
  136OSM   H14G14867   6.329   1.507   5.444  0.2474 -1.9099 -1.8709
  136OSM   C15F14868   6.482   1.349   5.440  1.1025  0.4181  0.7121
  136OSM   H15F14869   6.409   1.267   5.427  1.3747  0.2851 -0.0028
  136OSM   H15G14870   6.558   1.306   5.509  0.9474  1.1662  1.3662
  136OSM   C16F14871   6.550   1.385   5.311 -0.0179 -0.3450  0.0640
  136OSM   H16F14872   6.630   1.311   5.288  1.3036  0.6896  1.1118
  136OSM   H16G14873   6.592   1.488   5.317 -1.1137  0.0317  2.8118
  136OSM   C17F14874   6.449   1.382   5.196  0.5048 -0.2088  0.6435
  136OSM   H17F14875   6.368   1.457   5.206 -1.0698 -1.5247 -1.3594
  136OSM   H17G14876   6.391   1.287   5.201 -1.0712  0.6348 -0.5617
  136OSM   C18F14877   6.512   1.410   5.058 -0.0011  0.2057  0.0941
  136OSM   H18F14878   6.443   1.380   4.976  2.8665 -1.3823 -1.9246
  136OSM   H18G14879   6.605   1.351   5.042  0.5477  0.6887  1.3625
  136OSM   H18H14880   6.541   1.516   5.042 -0.9819  0.4140 -0.3783
  137OSM      N14881   0.691   0.876   7.405 -0.1219  0.4349 -0.1683
  137OSM    C1514882   0.731   1.005   7.476 -0.4140 -0.2194 -0.3765
  137OSM   H15A14883   0.839   1.011   7.471 -0.2646 -2.0618 -0.2752
  137OSM   H15B14884   0.695   1.007   7.577  2.2460 -2.8345  0.7692
  137OSM   H15C14885   0.684   1.088   7.426 -0.2607 -0.2919 -0.6435
  137OSM    C1414886   0.544   0.859   7.422  0.8933  0.2137  0.5741
  137OSM   H14A14887   0.505   0.893   7.517 -3.4841  1.1980 -1.3095
  137OSM   H14B14888   0.512   0.757   7.412 -0.2445  0.6555 -0.5990
  137OSM   H14C14889   0.491   0.902   7.338  0.0069 -2.2685 -0.2374
  137OSM    C1314890   0.739   0.882   7.269 -0.1297 -0.4945 -0.2871
  137OSM   H13A14891   0.842   0.917   7.268 -0.7550  1.6082  1.1633
  137OSM   H13B14892   0.678   0.942   7.204 -1.2545 -1.1062  0.1831
  137OSM   H13C14893   0.746   0.783   7.228  0.4180 -1.9254  2.9659
  137OSM    C1214894   0.758   0.757   7.473  0.1439  0.2019 -0.2346
  137OSM   H12A14895   0.742   0.754   7.580  1.2776  0.6705 -0.0402
  137OSM   H12B14896   0.864   0.776   7.466  0.1881  0.3534  0.7072
  137OSM    C1114897   0.724   0.613   7.420 -0.3208 -0.3207 -0.4569
  137OSM   H11A14898   0.615   0.606   7.438 -0.2097  0.3385  0.6259
  137OSM   H11B14899   0.769   0.534   7.484 -2.2641 -0.9754  0.1494
  137OSM      P14900   0.810   0.464   7.213  0.4117  0.5167 -0.1609
  137OSM    O1314901   0.938   0.509   7.147 -0.9644  0.5833  0.8495
  137OSM    O1414902   0.821   0.349   7.309  0.0841 -0.0500  0.0534
  137OSM    O1114903   0.702   0.432   7.108  0.2201 -0.3700  0.4194
  137OSM    O1214904   0.751   0.595   7.281 -0.5995  0.3376  0.1895
  137OSM    C1S14905   0.661   0.534   7.014  0.0608  0.3161  0.2919
  137OSM    H1S14906   0.744   0.534   6.940  0.1103 -1.3713  0.3102
  137OSM    H1T14907   0.653   0.635   7.060 -2.1150 -0.2439  1.2648
  137OSM     NF14908   0.500   0.554   6.831 -0.1476 -0.0473  1.0084
  137OSM    HNF14909   0.415   0.607   6.831 -0.4519 -0.3303 -1.8987
  137OSM    C2S14910   0.527   0.501   6.955 -0.3232  0.2609 -0.3826
  137OSM    H2S14911   0.522   0.392   6.934 -2.6967  0.5223 -1.4254
  137OSM    C3S14912   0.419   0.532   7.048  0.1738  0.5512 -0.0485
  137OSM    H3S14913   0.409   0.641   7.066 -0.3379  0.8898 -2.1230
  137OSM     O314914   0.440   0.481   7.176 -0.4670 -0.0076 -0.2753
  137OSM    HO314915   0.534   0.461   7.176 -1.1394 -4.2551  1.6300
  137OSM    C4S14916   0.284   0.477   6.993 -0.1943 -0.3228 -0.1425
  137OSM    H4S14917   0.275   0.367   6.992 -0.4974 -0.3428  1.2808
  137OSM    C5S14918   0.195   0.556   6.939 -0.2593 -0.4533  0.3027
  137OSM    H5S14919   0.229   0.659   6.921  1.0780 -1.0604 -0.8655
  137OSM    C6S14920   0.057   0.526   6.881 -0.1624 -1.2593  0.4334
  137OSM    H6S14921  -0.022   0.577   6.941  0.1120  2.0344 -1.7353
  137OSM    H6T14922   0.027   0.419   6.877  0.1424 -1.3087 -1.1555
  137OSM    C7S14923   0.037   0.584   6.740  0.5322  0.0432  0.4197
  137OSM    H7S14924   0.043   0.695   6.737 -1.3939  0.3277  3.6554
  137OSM    H7T14925  -0.070   0.563   6.717  1.0053 -0.9415 -0.9936
  137OSM    C8S14926   0.126   0.515   6.638  0.2074  0.1312  0.8102
  137OSM    H8S14927   0.100   0.408   6.651  0.9466  0.0500  1.6587
  137OSM    H8T14928   0.231   0.530   6.671  0.2486  0.3768  0.5705
  137OSM    C9S14929   0.101   0.570   6.493 -0.2227  0.3953 -0.7095
  137OSM    H9S14930   0.134   0.676   6.502  1.1998 -0.1313  0.9045
  137OSM    H9T14931  -0.009   0.567   6.481 -0.5258  0.8638  1.4736
  137OSM   C10S14932   0.176   0.499   6.376 -0.1903 -0.3364  0.3478
  137OSM   H10S14933   0.141   0.395   6.364 -0.2538 -0.0569 -2.7838
  137OSM   H10T14934   0.280   0.495   6.415  0.1091  0.2365 -0.3698
  137OSM   C11S14935   0.158   0.560   6.237 -0.5548 -0.4952  0.0498
  137OSM   H11S14936   0.255   0.565   6.182  0.4689 -1.0227  1.7287
  137OSM   H11T14937   0.138   0.668   6.259  1.2513  0.0911 -0.9521
  137OSM   C12S14938   0.042   0.504   6.149 -0.7706  0.4947  0.7327
  137OSM   H12S14939  -0.048   0.531   6.208 -2.4861  0.8340 -1.8737
  137OSM   H12T14940   0.060   0.395   6.136 -0.9949  0.6743 -1.3464
  137OSM   C13S14941   0.023   0.567   6.007  0.1029  0.3611  0.7078
  137OSM   H13S14942   0.127   0.572   5.967 -0.5617 -3.0760 -1.9883
  137OSM   H13T14943  -0.032   0.663   6.011 -1.4821 -0.3815 -1.4490
  137OSM   C14S14944  -0.051   0.465   5.916 -0.0628 -0.5239  0.9366
  137OSM   H14S14945  -0.154   0.454   5.957 -0.2852 -0.6636  0.3487
  137OSM   H14T14946  -0.000   0.367   5.919 -1.6418 -1.3683  0.8598
  137OSM   C15S14947  -0.055   0.499   5.759  0.5410 -0.3124  0.7064
  137OSM   H15S14948   0.045   0.498   5.710  0.6090 -1.4027  0.8411
  137OSM   H15T14949  -0.095   0.601   5.746  0.5552 -0.5697 -1.9676
  137OSM   C16S14950  -0.150   0.406   5.682  0.7390  0.1914 -0.3985
  137OSM   H16S14951  -0.249   0.435   5.725  0.0669 -0.7890 -1.2595
  137OSM   H16T14952  -0.133   0.299   5.706 -1.9701 -0.1441  0.3918
  137OSM   C17S14953  -0.154   0.440   5.531  0.0344  0.0344 -0.6451
  137OSM   H17S14954  -0.077   0.395   5.465 -1.1785  1.3143 -3.0586
  137OSM   H17T14955  -0.159   0.549   5.511 -2.4472 -0.0560 -0.9228
  137OSM   C18S14956  -0.285   0.398   5.465  0.5608 -0.6176 -0.5721
  137OSM   H18S14957  -0.312   0.292   5.485 -1.6660  0.2254  1.4157
  137OSM   H18T14958  -0.289   0.421   5.357 -1.2622  1.3309 -0.1510
  137OSM   H18U14959  -0.362   0.465   5.508  0.8443 -0.8164  0.2843
  137OSM    C1F14960   0.583   0.563   6.717  0.7198  0.0566  0.5793
  137OSM     OF14961   0.682   0.496   6.707  0.3228 -0.0426  0.3011
  137OSM    C2F14962   0.528   0.650   6.611 -0.8099 -0.0103 -0.9062
  137OSM    H2F14963   0.542   0.758   6.635 -0.1167 -0.0326 -1.2039
  137OSM    H2G14964   0.418   0.645   6.626 -0.7652 -0.4344 -0.7125
  137OSM    C3F14965   0.563   0.608   6.468  0.1483  0.0195 -0.1477
  137OSM    H3F14966   0.530   0.506   6.439 -1.3438 -0.4652  2.8280
  137OSM    H3G14967   0.673   0.607   6.456 -0.0502  0.1956 -2.2354
  137OSM    C4F14968   0.512   0.699   6.357  0.0001  0.1418  0.4948
  137OSM    H4F14969   0.543   0.804   6.377 -0.3823  0.5267 -0.7957
  137OSM    H4G14970   0.402   0.713   6.348 -0.0632 -1.1443 -1.4821
  137OSM    C5F14971   0.578   0.659   6.217 -0.0114 -0.0104  0.4079
  137OSM    H5F14972   0.522   0.568   6.184 -0.8395  1.2082 -1.7643
  137OSM    H5G14973   0.686   0.636   6.228  0.1170 -0.0429 -0.7985
  137OSM    C6F14974   0.557   0.763   6.098 -0.7138  0.2137 -0.7530
  137OSM    H6F14975   0.629   0.747   6.015  0.5038 -0.0769  0.3275
  137OSM    H6G14976   0.573   0.870   6.124  0.0129 -0.3667  1.4079
  137OSM    C7F14977   0.426   0.745   6.036  0.2741  0.1341 -0.3514
  137OSM    H7F14978   0.350   0.791   6.102  1.4827  2.1597 -0.3017
  137OSM    H7G14979   0.400   0.637   6.030 -0.1197  0.2622 -1.1532
  137OSM    C8F14980   0.405   0.812   5.898  0.0243  0.3736 -0.0289
  137OSM    H8F14981   0.456   0.909   5.920  0.5634  0.4074 -1.3608
  137OSM    H8G14982   0.298   0.837   5.880 -0.3620 -1.3884 -0.3065
  137OSM    C9F14983   0.472   0.758   5.774 -0.1117 -0.4843 -0.6407
  137OSM    H9F14984   0.576   0.728   5.792 -0.0945 -1.7361 -2.4990
  137OSM   C10F14985   0.421   0.738   5.654 -0.8640 -0.3888  0.1876
  137OSM   H10F14986   0.492   0.718   5.573 -0.8440  0.7102 -0.0911
  137OSM   C11F14987   0.285   0.755   5.605  0.6397  0.2261 -0.1403
  137OSM   H11F14988   0.219   0.733   5.691 -0.0187 -0.8691 -0.8949
  137OSM   H11G14989   0.260   0.687   5.521  1.1721  0.3490 -0.4066
  137OSM   C12F14990   0.265   0.901   5.563  0.2138  0.2667 -0.2068
  137OSM   H12F14991   0.288   0.976   5.642 -0.1698  1.8870 -1.5781
  137OSM   H12G14992   0.156   0.899   5.544  0.2377  2.4942 -0.7858
  137OSM   C13F14993   0.351   0.944   5.445  0.8086  0.6733  0.2436
  137OSM   H13F14994   0.457   0.952   5.476  0.8917 -1.8940  0.9027
  137OSM   H13G14995   0.313   1.047   5.426 -0.4582  0.6376  2.3465
  137OSM   C14F14996   0.333   0.857   5.318  0.2934 -0.1335  0.5592
  137OSM   H14F14997   0.381   0.759   5.339  0.5477 -0.4800 -1.4343
  137OSM   H14G14998   0.405   0.887   5.239 -0.4248 -2.3474 -1.0551
  137OSM   C15F14999   0.188   0.836   5.276 -0.3669 -0.5991  0.1074
  137OSM   H15F15000   0.126   0.799   5.361 -0.8413  2.7258  1.3370
  137OSM   H15G15001   0.189   0.749   5.207 -0.1637 -2.4574  2.3371
  137OSM   C16F15002   0.132   0.962   5.209 -0.2989  0.2421 -0.2769
  137OSM   H16F15003   0.160   1.049   5.272 -2.4922  0.5190  0.4150
  137OSM   H16G15004   0.021   0.961   5.212 -0.3037 -0.4066 -0.5738
  137OSM   C17F15005   0.175   0.974   5.070 -0.2704  0.1684  0.1138
  137OSM   H17F15006   0.146   0.885   5.010 -2.4129  0.2481  0.9601
  137OSM   H17G15007   0.285   0.987   5.076 -0.3902  0.4258  2.8150
  137OSM   C18F15008   0.106   1.092   5.005  0.3357 -0.0677 -0.1341
  137OSM   H18F15009   0.156   1.121   4.910  1.1391 -2.4775 -0.5267
  137OSM   H18G15010   0.125   1.179   5.071  1.6783 -0.0410 -0.5255
  137OSM   H18H15011   0.002   1.064   4.978  0.3580 -0.0250 -0.2626
  138OSM      N15012   2.799   1.152   7.192  0.0453 -0.8673 -0.2453
  138OSM    C1515013   2.692   1.053   7.181  0.4014  0.3473  0.2735
  138OSM   H15A15014   2.597   1.078   7.225  0.8205  0.4025  1.1529
  138OSM   H15B15015   2.726   0.968   7.238 -0.7873 -0.7568 -0.6224
  138OSM   H15C15016   2.667   1.026   7.079  0.2546  0.3291  0.3151
  138OSM    C1415017   2.768   1.259   7.095 -0.0496 -0.1040 -0.2298
  138OSM   H14A15018   2.858   1.317   7.078 -0.3180  0.7244  1.0930
  138OSM   H14B15019   2.691   1.320   7.140 -1.1514  0.5704 -2.8190
  138OSM   H14C15020   2.723   1.232   7.000  0.5081 -0.4779 -0.3945
  138OSM    C1315021   2.797   1.204   7.334  0.7764 -0.5920  0.4531
  138OSM   H13A15022   2.822   1.120   7.397 -1.9191 -1.6818  0.1890
  138OSM   H13B15023   2.699   1.240   7.360  1.6397  3.4442 -0.9758
  138OSM   H13C15024   2.870   1.284   7.337 -0.2245  0.3491  0.2649
  138OSM    C1215025   2.936   1.088   7.149 -0.3104  0.1441 -0.1840
  138OSM   H12A15026   2.955   0.999   7.208 -0.9681 -0.3343 -0.6892
  138OSM   H12B15027   3.013   1.162   7.167 -0.4898 -0.0443  1.5058
  138OSM    C1115028   2.954   1.045   7.001  0.6114  0.3567  0.2387
  138OSM   H11A15029   3.058   1.011   6.977 -0.3665 -2.5346 -0.3144
  138OSM   H11B15030   2.949   1.134   6.935  1.3733  0.4952  0.3553
  138OSM      P15031   2.860   0.804   7.013 -0.0450  0.1795  0.2375
  138OSM    O1315032   2.935   0.789   7.141  0.9119  0.7736 -0.3819
  138OSM    O1415033   2.721   0.753   7.022  0.5536  0.0708  0.5265
  138OSM    O1115034   2.935   0.734   6.889 -0.0984 -0.0638  0.4591
  138OSM    O1215035   2.858   0.951   6.963 -0.1393 -0.0300  0.1075
  138OSM    C1S15036   2.890   0.748   6.755 -0.0854  0.2429 -0.0528
  138OSM    H1S15037   2.782   0.773   6.756  0.4454  2.7215  0.6998
  138OSM    H1T15038   2.902   0.651   6.702  1.0053  0.0857  0.4548
  138OSM     NF15039   2.884   0.878   6.540  0.3051  0.4261  0.2557
  138OSM    HNF15040   2.944   0.853   6.465  0.9416 -0.7159  1.1141
  138OSM    C2S15041   2.954   0.863   6.667  0.2323 -0.2211  0.1641
  138OSM    H2S15042   2.935   0.958   6.721  0.1766 -0.2257  0.1521
  138OSM    C3S15043   3.103   0.836   6.651 -0.0189 -0.4930  0.9808
  138OSM    H3S15044   3.129   0.739   6.604  1.8613  0.4339 -0.0250
  138OSM     O315045   3.172   0.827   6.781  0.4228  0.3451 -0.3394
  138OSM    HO315046   3.100   0.826   6.845  0.2590 -3.9524 -0.3215
  138OSM    C4S15047   3.175   0.932   6.552  0.4401 -0.3311  0.0140
  138OSM    H4S15048   3.166   0.910   6.444 -0.9240  2.0668 -0.4356
  138OSM    C5S15049   3.260   1.036   6.583  0.3477  0.1950 -0.1765
  138OSM    H5S15050   3.279   1.067   6.687 -1.0425 -0.9953  0.4782
  138OSM    C6S15051   3.338   1.118   6.482 -0.1148 -0.1639 -0.4952
  138OSM    H6S15052   3.442   1.083   6.499  0.8621  2.4742 -0.5207
  138OSM    H6T15053   3.337   1.228   6.500  1.5108  0.0280 -1.3726
  138OSM    C7S15054   3.308   1.079   6.337  0.3903 -0.4494 -0.1677
  138OSM    H7S15055   3.197   1.080   6.325  0.3832 -0.6372 -0.1206
  138OSM    H7T15056   3.340   0.975   6.313 -1.9685 -0.9705 -1.4007
  138OSM    C8S15057   3.374   1.172   6.234 -0.1025  0.0959 -0.3798
  138OSM    H8S15058   3.482   1.149   6.236  0.3054  1.6034 -2.0849
  138OSM    H8T15059   3.362   1.278   6.267  2.6997  1.3418 -2.8646
  138OSM    C9S15060   3.322   1.158   6.091  0.4665 -0.2058  0.1079
  138OSM    H9S15061   3.212   1.171   6.099  0.7185  1.9534  0.8596
  138OSM    H9T15062   3.353   1.058   6.055 -0.2538  0.7808 -3.6360
  138OSM   C10S15063   3.382   1.259   5.991  0.1531 -0.2576 -0.1369
  138OSM   H10S15064   3.491   1.264   6.009 -0.0010 -2.2067  1.7934
  138OSM   H10T15065   3.346   1.364   5.993 -0.7931 -0.5500 -0.9391
  138OSM   C11S15066   3.361   1.210   5.848 -0.5219  0.1042 -0.4697
  138OSM   H11S15067   3.252   1.198   5.829 -0.6475  0.7378 -0.1788
  138OSM   H11T15068   3.410   1.111   5.835  0.1746  0.0051  2.3455
  138OSM   C12S15069   3.415   1.308   5.746 -0.3172 -0.1900  0.8553
  138OSM   H12S15070   3.523   1.322   5.770 -0.4705 -0.2863  1.6355
  138OSM   H12T15071   3.367   1.404   5.773  1.3617  0.5101  1.5250
  138OSM   C13S15072   3.390   1.265   5.603 -0.1625  0.2521 -0.6326
  138OSM   H13S15073   3.281   1.269   5.587 -0.1878  1.2532 -0.3070
  138OSM   H13T15074   3.422   1.160   5.586 -0.0228  0.1338  0.2848
  138OSM   C14S15075   3.455   1.369   5.508 -0.2611 -0.1129  0.0086
  138OSM   H14S15076   3.566   1.363   5.518 -0.2491  1.2908  1.1272
  138OSM   H14T15077   3.436   1.471   5.547  0.5646  1.0246 -2.4119
  138OSM   C15S15078   3.412   1.356   5.366 -0.1165  0.3488 -0.0807
  138OSM   H15S15079   3.475   1.423   5.304  1.8637 -0.4589  0.9677
  138OSM   H15T15080   3.304   1.383   5.365 -0.4223 -0.8329  0.0946
  138OSM   C16S15081   3.443   1.210   5.318 -0.2998 -0.1192  0.4121
  138OSM   H16S15082   3.370   1.133   5.353  1.0439 -1.1574  1.0244
  138OSM   H16T15083   3.542   1.175   5.355 -0.0080  0.1467 -0.1114
  138OSM   C17S15084   3.457   1.197   5.167  0.1131  0.6329  0.2426
  138OSM   H17S15085   3.359   1.217   5.118  0.3295 -3.0455 -2.1341
  138OSM   H17T15086   3.477   1.092   5.135  0.5136  1.2463 -1.6620
  138OSM   C18S15087   3.582   1.262   5.110  0.2586  0.9902  0.4043
  138OSM   H18S15088   3.585   1.371   5.131  2.4507  2.1434 -4.4510
  138OSM   H18T15089   3.591   1.259   4.999 -0.8847  1.9512  0.2676
  138OSM   H18U15090   3.671   1.224   5.164  0.2492  2.0617  1.2081
  138OSM    C1F15091   2.760   0.897   6.517 -0.4480 -0.3229 -0.2034
  138OSM     OF15092   2.682   0.941   6.599 -0.0496 -0.3506  0.4390
  138OSM    C2F15093   2.724   0.856   6.376 -0.3838 -0.8826  0.1662
  138OSM    H2F15094   2.763   0.754   6.354  0.3430 -0.4977 -0.3959
  138OSM    H2G15095   2.784   0.926   6.313  0.9288  0.1943  2.4661
  138OSM    C3F15096   2.579   0.865   6.334  0.0996 -0.1161 -0.0824
  138OSM    H3F15097   2.541   0.962   6.370 -0.9303 -1.5397  2.9666
  138OSM    H3G15098   2.531   0.776   6.379  1.0676 -1.7221 -2.0096
  138OSM    C4F15099   2.563   0.841   6.181 -0.5156  0.2236  0.4780
  138OSM    H4F15100   2.606   0.745   6.144  0.6989  1.0208 -0.2969
  138OSM    H4G15101   2.638   0.909   6.134  1.6813 -2.0218  0.5335
  138OSM    C5F15102   2.420   0.844   6.138 -0.0806 -0.7389 -0.3901
  138OSM    H5F15103   2.386   0.949   6.152 -0.9175 -1.0057 -0.3716
  138OSM    H5G15104   2.360   0.763   6.185  0.8734 -0.9973  0.4194
  138OSM    C6F15105   2.393   0.826   5.985  0.6233 -0.2510  0.0686
  138OSM    H6F15106   2.284   0.820   5.964  0.6557  1.0564 -0.5622
  138OSM    H6G15107   2.436   0.733   5.942  0.7244 -0.5942  0.9132
  138OSM    C7F15108   2.453   0.938   5.895 -0.2882 -0.0027  0.2457
  138OSM    H7F15109   2.561   0.919   5.874 -0.5216 -0.2533 -0.8050
  138OSM    H7G15110   2.453   1.026   5.962 -1.5413  0.0067  0.2555
  138OSM    C8F15111   2.379   0.973   5.766  0.2000  0.3010  0.9432
  138OSM    H8F15112   2.285   1.022   5.799 -0.5012  0.5343 -1.2540
  138OSM    H8G15113   2.345   0.885   5.707 -2.7192  2.2224 -0.4430
  138OSM    C9F15114   2.453   1.067   5.685 -0.1369 -0.2238  0.6373
  138OSM    H9F15115   2.449   1.166   5.731  0.5334 -0.2930  0.8530
  138OSM   C10F15116   2.520   1.047   5.570 -0.2497 -0.7915 -0.0046
  138OSM   H10F15117   2.550   1.134   5.511 -0.6637 -0.0419  0.8662
  138OSM   C11F15118   2.545   0.915   5.504  1.5992  0.6906 -0.1026
  138OSM   H11F15119   2.516   0.839   5.579  1.2119 -0.1800 -1.1085
  138OSM   H11G15120   2.653   0.909   5.479  1.3992  0.5855 -0.9695
  138OSM   C12F15121   2.468   0.896   5.371 -0.4451 -0.3962  0.1945
  138OSM   H12F15122   2.489   0.793   5.334 -2.7529  0.2027 -3.3109
  138OSM   H12G15123   2.497   0.973   5.296 -0.6842 -0.9709 -0.5046
  138OSM   C13F15124   2.316   0.898   5.381  0.2664 -0.1016 -0.0759
  138OSM   H13F15125   2.291   1.001   5.414  1.0789 -0.7872  2.9741
  138OSM   H13G15126   2.285   0.833   5.466 -1.0709 -0.4884 -0.8386
  138OSM   C14F15127   2.249   0.841   5.258  0.3358  0.4552  0.0543
  138OSM   H14F15128   2.142   0.821   5.281  0.2667  0.4530 -0.2715
  138OSM   H14G15129   2.304   0.753   5.218  1.1238  0.7907  0.3834
  138OSM   C15F15130   2.242   0.943   5.142  0.5115 -0.2717 -0.3435
  138OSM   H15F15131   2.251   0.894   5.043 -0.8335 -0.0544 -0.5930
  138OSM   H15G15132   2.334   1.006   5.141  0.6802 -0.5222 -0.8710
  138OSM   C16F15133   2.110   1.023   5.141 -0.9258 -0.7320 -0.0879
  138OSM   H16F15134   2.108   1.062   5.245  1.9457  0.3318 -0.3384
  138OSM   H16G15135   2.027   0.956   5.112 -1.3634 -0.0491 -0.4547
  138OSM   C17F15136   2.121   1.142   5.041  0.3088  0.5002  0.6774
  138OSM   H17F15137   2.151   1.108   4.940 -1.5082  0.8672 -0.0291
  138OSM   H17G15138   2.196   1.218   5.074  0.4978  0.8968 -0.5868
  138OSM   C18F15139   1.981   1.222   5.043 -0.6112 -0.5408  0.6130
  138OSM   H18F15140   1.952   1.261   5.142  1.8831  1.0955  0.7737
  138OSM   H18G15141   1.897   1.156   5.013 -1.6847  1.1830 -0.3024
  138OSM   H18H15142   1.980   1.305   4.970 -1.4717 -0.6819  0.4590
  139OSM      N15143   5.687   3.750   7.568  0.3803 -0.8478  0.2100
  139OSM    C1515144   5.593   3.792   7.681  0.1854 -0.0814  0.0463
  139OSM   H15A15145   5.497   3.743   7.673  0.0081  0.2755 -0.0330
  139OSM   H15B15146   5.585   3.900   7.675 -0.4156 -0.0938  0.4852
  139OSM   H15C15147   5.636   3.768   7.778  0.6712  0.0054 -0.1427
  139OSM    C1415148   5.801   3.856   7.572  0.4368  0.1409  0.4740
  139OSM   H14A15149   5.852   3.838   7.665 -0.9349 -1.7999  0.9187
  139OSM   H14B15150   5.758   3.955   7.565 -3.0527 -1.1551  1.5810
  139OSM   H14C15151   5.874   3.837   7.495 -1.3717  0.2864 -1.3714
  139OSM    C1315152   5.744   3.614   7.584  0.0744  0.6693  0.3412
  139OSM   H13A15153   5.831   3.585   7.528  0.6152  0.6464  1.1792
  139OSM   H13B15154   5.670   3.535   7.577  0.3370  0.5547 -2.1094
  139OSM   H13C15155   5.793   3.616   7.680  1.4171  2.0012 -0.3384
  139OSM    C1215156   5.617   3.771   7.436  0.6457  0.3647 -0.1546
  139OSM   H12A15157   5.692   3.770   7.359  1.9235  0.0988  1.0447
  139OSM   H12B15158   5.592   3.877   7.435  1.5465  0.5979  0.4067
  139OSM    C1115159   5.486   3.702   7.410 -0.4930  0.3522 -0.0134
  139OSM   H11A15160   5.503   3.595   7.435  1.9679  0.4929 -0.8273
  139OSM   H11B15161   5.466   3.704   7.300  2.3217 -0.6229 -0.6394
  139OSM      P15162   5.282   3.872   7.471  0.0532 -0.0336 -0.0398
  139OSM    O1315163   5.234   3.916   7.605 -0.0434  0.5218 -0.1577
  139OSM    O1415164   5.352   3.971   7.381 -0.4599  0.0247 -0.4292
  139OSM    O1115165   5.150   3.811   7.403  0.0765 -0.4257  0.1508
  139OSM    O1215166   5.378   3.747   7.494  0.0847  0.2552 -0.9702
  139OSM    C1S15167   5.071   3.885   7.307  0.5070  0.3600 -0.5236
  139OSM    H1S15168   5.072   3.996   7.316  0.0315  0.5373 -2.2759
  139OSM    H1T15169   4.962   3.871   7.323  0.3489  2.6245  0.9080
  139OSM     NF15170   5.038   3.946   7.059  0.1422 -0.3008 -0.2776
  139OSM    HNF15171   4.949   3.923   7.021 -1.0631  0.0839  2.1658
  139OSM    C2S15172   5.096   3.849   7.154 -0.6431 -1.0368 -0.2142
  139OSM    H2S15173   5.206   3.851   7.139 -0.5066 -0.6160  0.8093
  139OSM    C3S15174   5.055   3.704   7.137 -0.6879  0.2786  0.3987
  139OSM    H3S15175   4.946   3.704   7.157 -0.9489  2.2691 -0.7514
  139OSM     O315176   5.116   3.611   7.229  0.8074 -0.0527 -0.2803
  139OSM    HO315177   5.148   3.669   7.298 -0.7249  0.3350  0.1329
  139OSM    C4S15178   5.087   3.651   6.998  0.4689  0.3009  0.2668
  139OSM    H4S15179   5.007   3.676   6.927  0.4798 -1.8780 -0.6001
  139OSM    C5S15180   5.178   3.570   6.945 -0.0139 -0.2219 -0.8071
  139OSM    H5S15181   5.270   3.533   6.992 -0.2850 -1.8355 -1.4823
  139OSM    C6S15182   5.174   3.515   6.804  0.4348 -0.5197 -0.2874
  139OSM    H6S15183   5.123   3.416   6.813 -2.0155  0.5629 -1.3227
  139OSM    H6T15184   5.278   3.491   6.774  1.4900  1.2117  1.7672
  139OSM    C7S15185   5.104   3.595   6.693  0.1699  0.3861  0.2408
  139OSM    H7S15186   5.160   3.688   6.668  0.7739 -0.0289  0.0496
  139OSM    H7T15187   5.000   3.624   6.721 -0.9169 -1.6267 -1.3690
  139OSM    C8S15188   5.090   3.519   6.563 -0.1929 -0.3476  0.5067
  139OSM    H8S15189   5.029   3.426   6.568  0.4599 -1.0426 -2.5050
  139OSM    H8T15190   5.195   3.491   6.539  0.3441  0.2715  1.9774
  139OSM    C9S15191   5.021   3.609   6.463 -0.2995  0.1230  0.0715
  139OSM    H9S15192   5.075   3.705   6.450 -0.9429  0.1984 -2.7721
  139OSM    H9T15193   4.925   3.643   6.506 -0.4864  0.2425 -0.4282
  139OSM   C10S15194   5.017   3.529   6.330  0.7449 -1.1331  0.5575
  139OSM   H10S15195   4.939   3.450   6.336 -0.7931  0.3330  0.3333
  139OSM   H10T15196   5.122   3.493   6.319  1.5915  1.8061 -2.5041
  139OSM   C11S15197   4.989   3.624   6.213  0.8143  0.9260 -0.8031
  139OSM   H11S15198   5.056   3.713   6.217  1.0330  0.8890 -2.7293
  139OSM   H11T15199   4.884   3.658   6.225  0.1320 -1.0827 -0.8221
  139OSM   C12S15200   4.992   3.559   6.073  0.2207 -0.0880  0.1594
  139OSM   H12S15201   4.898   3.501   6.070 -1.0575  1.7005  2.0471
  139OSM   H12T15202   5.078   3.492   6.052  0.2149 -0.1986  0.4843
  139OSM   C13S15203   4.978   3.667   5.966 -0.6926 -0.0336  0.3882
  139OSM   H13S15204   5.075   3.714   5.939  0.0904 -1.5659  0.3865
  139OSM   H13T15205   4.916   3.754   5.996  0.7804  1.4343 -0.6642
  139OSM   C14S15206   4.941   3.597   5.824  0.8148 -1.2900  0.1014
  139OSM   H14S15207   4.838   3.556   5.824  0.2694 -0.1687 -2.6905
  139OSM   H14T15208   5.018   3.517   5.820  3.4403  1.0176  1.0265
  139OSM   C15S15209   4.954   3.701   5.709  0.6044  0.4805  0.0146
  139OSM   H15S15210   5.058   3.715   5.674  0.1978  1.6578 -0.8123
  139OSM   H15T15211   4.919   3.798   5.752  0.5602  0.5521 -0.1783
  139OSM   C16S15212   4.854   3.677   5.594 -0.0849 -0.3928  0.1574
  139OSM   H16S15213   4.844   3.773   5.537 -1.1459 -0.0913  0.8202
  139OSM   H16T15214   4.748   3.669   5.627  0.8489 -0.5714  3.4717
  139OSM   C17S15215   4.866   3.560   5.496 -0.4754  1.1813 -0.0600
  139OSM   H17S15216   4.786   3.572   5.420 -1.1782  0.9559  0.6247
  139OSM   H17T15217   4.856   3.457   5.536  0.2749  0.8368 -0.7353
  139OSM   C18S15218   5.008   3.563   5.435  0.7404 -0.1241  0.3061
  139OSM   H18S15219   5.008   3.646   5.361  1.3971 -0.2356  0.1673
  139OSM   H18T15220   5.027   3.480   5.364 -1.4481 -0.8018  0.4643
  139OSM   H18U15221   5.085   3.566   5.515  1.6382  1.5543 -0.5640
  139OSM    C1F15222   5.090   4.074   7.047 -0.7259  1.0857 -0.3729
  139OSM     OF15223   5.187   4.110   7.112  0.4852 -0.1275 -0.0053
  139OSM    C2F15224   5.013   4.169   6.959 -0.4550 -0.1563  0.5665
  139OSM    H2F15225   5.001   4.260   7.020 -0.2485  0.8572 -0.8427
  139OSM    H2G15226   4.911   4.128   6.939  0.1819 -1.6170  0.1207
  139OSM    C3F15227   5.096   4.207   6.837 -0.6212  0.3379 -0.1660
  139OSM    H3F15228   5.201   4.233   6.865 -0.9134 -0.8359  2.2600
  139OSM    H3G15229   5.047   4.293   6.786 -1.2145  1.0426  1.5395
  139OSM    C4F15230   5.101   4.093   6.737 -0.1447 -0.3282  0.3666
  139OSM    H4F15231   4.997   4.074   6.705  0.8699 -3.4487 -1.6338
  139OSM    H4G15232   5.150   3.995   6.758 -0.4165 -0.9798 -1.7433
  139OSM    C5F15233   5.180   4.143   6.613  0.4649  0.3450  0.0406
  139OSM    H5F15234   5.287   4.157   6.641  0.5398 -0.3903  0.1573
  139OSM    H5G15235   5.147   4.246   6.589  0.7104  0.1855 -1.0323
  139OSM    C6F15236   5.165   4.047   6.493  0.0758  0.2883  0.4116
  139OSM    H6F15237   5.070   4.063   6.438  0.7877  0.4489 -0.8026
  139OSM    H6G15238   5.174   3.944   6.532  0.5373  0.4438  0.7199
  139OSM    C7F15239   5.272   4.066   6.373  0.4707  0.9192  0.3258
  139OSM    H7F15240   5.366   4.022   6.411 -0.2325 -0.5722  0.4144
  139OSM    H7G15241   5.294   4.175   6.365  0.6701  0.8428 -0.2115
  139OSM    C8F15242   5.221   4.013   6.235 -0.5071  0.1356 -0.0956
  139OSM    H8F15243   5.149   4.085   6.191 -0.2981 -0.1876 -0.9876
  139OSM    H8G15244   5.165   3.921   6.259 -0.3981  0.0754 -0.0717
  139OSM    C9F15245   5.336   3.979   6.135 -0.1530  0.4564 -0.2730
  139OSM    H9F15246   5.394   3.892   6.170 -0.8800 -0.6413 -1.7197
  139OSM   C10F15247   5.369   4.041   6.020  0.2270 -0.2682  0.1800
  139OSM   H10F15248   5.446   4.003   5.952 -0.1535 -0.1737 -0.3092
  139OSM   C11F15249   5.316   4.178   5.969 -0.4420  0.0237 -0.9423
  139OSM   H11F15250   5.407   4.241   5.958 -0.9823  1.7859  3.0144
  139OSM   H11G15251   5.244   4.231   6.034  1.6478  2.3440 -0.3760
  139OSM   C12F15252   5.238   4.160   5.835  0.3515  0.1617 -1.1577
  139OSM   H12F15253   5.201   4.258   5.798  0.2100  0.4091 -0.3724
  139OSM   H12G15254   5.150   4.096   5.854  0.6874 -0.8026 -2.6242
  139OSM   C13F15255   5.320   4.098   5.723 -0.4974 -0.7262 -0.1687
  139OSM   H13F15256   5.372   4.000   5.730 -0.4696 -0.7135 -0.1980
  139OSM   H13G15257   5.404   4.169   5.705 -1.1248 -0.4157 -2.0671
  139OSM   C14F15258   5.248   4.097   5.592 -0.1353 -0.1852 -0.2589
  139OSM   H14F15259   5.205   4.199   5.584 -1.2505 -0.7567 -2.4156
  139OSM   H14G15260   5.163   4.027   5.605  0.3711 -0.5779  1.0326
  139OSM   C15F15261   5.329   4.049   5.467 -0.3522  0.3980  0.1571
  139OSM   H15F15262   5.413   3.981   5.494  0.8436  1.6475 -0.2951
  139OSM   H15G15263   5.379   4.141   5.429 -0.9569  1.1255  1.0859
  139OSM   C16F15264   5.238   4.006   5.351  0.1266  0.9353  0.1805
  139OSM   H16F15265   5.178   4.091   5.314  0.3715  0.8071 -0.5293
  139OSM   H16G15266   5.169   3.927   5.388  1.0243 -0.9053 -1.7745
  139OSM   C17F15267   5.311   3.956   5.226  0.2758  0.3004  0.1936
  139OSM   H17F15268   5.399   4.023   5.212  2.2925 -1.3607  3.5150
  139OSM   H17G15269   5.239   3.973   5.143 -0.2085  3.0449  1.0830
  139OSM   C18F15270   5.362   3.814   5.241 -0.3601 -0.5611  0.2852
  139OSM   H18F15271   5.293   3.739   5.284  0.6594 -0.1222  2.9323
  139OSM   H18G15272   5.443   3.831   5.315 -1.5061  1.3942  1.1494
  139OSM   H18H15273   5.411   3.767   5.153 -0.1116 -0.7980  0.5477
  140OSM      N15274   6.147   0.786   7.627  0.1302  0.2558  0.8272
  140OSM    C1515275   6.190   0.641   7.635  0.5341  0.2692  0.4142
  140OSM   H15A15276   6.118   0.572   7.593  1.0438  1.3824 -2.5642
  140OSM   H15B15277   6.192   0.614   7.740 -1.6620  2.8493  1.2345
  140OSM   H15C15278   6.281   0.613   7.584 -1.3973 -2.4937 -1.8852
  140OSM    C1415279   6.019   0.810   7.699 -0.6058 -0.5630 -0.0108
  140OSM   H14A15280   6.027   0.755   7.792 -1.9894  0.2056  0.6050
  140OSM   H14B15281   5.932   0.771   7.648 -0.1604 -1.4154 -0.1272
  140OSM   H14C15282   5.991   0.911   7.728 -0.4262  0.0851 -1.9836
  140OSM    C1315283   6.252   0.865   7.698 -0.4751 -0.2317  0.5322
  140OSM   H13A15284   6.211   0.961   7.726 -0.8631 -0.0105 -0.7376
  140OSM   H13B15285   6.338   0.861   7.634 -1.5752  1.5334 -1.1824
  140OSM   H13C15286   6.271   0.821   7.795  1.5525  0.6518  0.5740
  140OSM    C1215287   6.140   0.832   7.479 -0.2880 -0.2435 -0.3305
  140OSM   H12A15288   6.142   0.940   7.483 -0.8225 -0.2695  1.8168
  140OSM   H12B15289   6.045   0.804   7.436 -0.0966  0.4326 -1.2296
  140OSM    C1115290   6.251   0.778   7.378  0.9887 -0.0515  0.5660
  140OSM   H11A15291   6.230   0.824   7.279  3.0461 -1.8814 -0.8266
  140OSM   H11B15292   6.228   0.671   7.361  1.2361  0.1909 -1.6676
  140OSM      P15293   6.492   0.688   7.396  0.0527  0.4964 -0.0182
  140OSM    O1315294   6.614   0.734   7.465 -0.2947  0.1292  0.2314
  140OSM    O1415295   6.430   0.560   7.452 -0.8024 -0.1331  0.3221
  140OSM    O1115296   6.512   0.686   7.242 -0.1388 -0.3347  0.5402
  140OSM    O1215297   6.389   0.795   7.414  0.5513 -0.4142  0.3349
  140OSM    C1S15298   6.535   0.819   7.184 -0.3809  0.4110  0.1508
  140OSM    H1S15299   6.615   0.882   7.230 -0.5716  0.8550 -0.1259
  140OSM    H1T15300   6.443   0.880   7.174  0.6310  2.2062  1.2241
  140OSM     NF15301   6.635   0.923   6.990  0.4180 -0.0031 -0.1708
  140OSM    HNF15302   6.574   0.977   6.933  0.6399 -0.5522 -0.9533
  140OSM    C2S15303   6.577   0.799   7.040 -0.1311  0.5747  0.9286
  140OSM    H2S15304   6.663   0.729   7.041  0.9254  1.7650 -0.6499
  140OSM    C3S15305   6.464   0.739   6.950 -0.1223 -0.4886 -0.2601
  140OSM    H3S15306   6.376   0.807   6.941 -0.9044 -1.6326 -1.8430
  140OSM     O315307   6.418   0.613   6.999 -0.2391  0.1280 -0.1911
  140OSM    HO315308   6.418   0.620   7.094 -0.3386 -0.1856 -0.1670
  140OSM    C4S15309   6.521   0.714   6.817  0.6730 -0.5348  0.4330
  140OSM    H4S15310   6.593   0.631   6.803 -0.2904 -1.5406  1.2847
  140OSM    C5S15311   6.496   0.791   6.710 -0.4625  0.2673 -0.0878
  140OSM    H5S15312   6.429   0.877   6.718 -2.2812 -0.8295 -2.3185
  140OSM    C6S15313   6.565   0.775   6.578 -1.2603 -0.1737  0.4347
  140OSM    H6S15314   6.487   0.763   6.499 -1.3445  0.0969  0.4749
  140OSM    H6T15315   6.628   0.684   6.577 -1.7799 -0.5377  0.3548
  140OSM    C7S15316   6.652   0.893   6.537  0.4608 -0.2936 -0.3339
  140OSM    H7S15317   6.749   0.875   6.590  0.5730  0.1888 -0.3774
  140OSM    H7T15318   6.611   0.993   6.560  0.0518 -0.7308  0.9555
  140OSM    C8S15319   6.663   0.887   6.380 -0.0660  0.3215  0.2913
  140OSM    H8S15320   6.560   0.886   6.340  0.0528  0.4186 -0.0161
  140OSM    H8T15321   6.697   0.784   6.357 -1.1120 -0.3501  1.5907
  140OSM    C9S15322   6.730   1.009   6.312 -0.3583  0.1719 -0.5085
  140OSM    H9S15323   6.824   1.055   6.348 -0.1255  0.9472 -2.0355
  140OSM    H9T15324   6.654   1.085   6.284 -0.4557 -0.1395 -1.1108
  140OSM   C10S15325   6.772   0.967   6.169  0.0614  0.3408  0.1065
  140OSM   H10S15326   6.680   0.925   6.124  0.5404 -0.3880 -0.2036
  140OSM   H10T15327   6.858   0.897   6.167 -1.0376 -1.0556  0.1520
  140OSM   C11S15328   6.807   1.084   6.072 -0.2244 -0.3698  0.4154
  140OSM   H11S15329   6.889   1.148   6.112 -0.5833  0.5132 -0.2207
  140OSM   H11T15330   6.720   1.154   6.061 -0.6141 -0.7319  1.1750
  140OSM   C12S15331   6.855   1.038   5.937  0.2431  0.3818 -0.6718
  140OSM   H12S15332   6.916   0.947   5.953 -1.8930 -0.7964  1.4612
  140OSM   H12T15333   6.919   1.121   5.900  0.1469 -0.0244 -1.7781
  140OSM   C13S15334   6.728   1.018   5.842 -0.0569 -0.2288  0.1004
  140OSM   H13S15335   6.696   1.121   5.816  0.5582 -0.1845 -0.4999
  140OSM   H13T15336   6.640   0.973   5.893 -1.1765 -0.3089 -1.7765
  140OSM   C14S15337   6.750   0.951   5.708  0.3034 -0.2282  0.7934
  140OSM   H14S15338   6.795   0.854   5.735 -1.1780 -0.7569  1.4952
  140OSM   H14T15339   6.807   1.006   5.630 -1.0579  0.6839  0.3847
  140OSM   C15S15340   6.618   0.925   5.628 -0.0053 -0.0545 -0.4221
  140OSM   H15S15341   6.572   1.024   5.607  0.4519 -0.0114 -1.2817
  140OSM   H15T15342   6.551   0.855   5.682 -1.5648  0.9628 -0.9587
  140OSM   C16S15343   6.647   0.848   5.501 -0.4527  0.0192  0.5423
  140OSM   H16S15344   6.716   0.763   5.519 -0.9149 -0.6442 -0.7211
  140OSM   H16T15345   6.699   0.912   5.427 -1.2704  0.3410  0.2239
  140OSM   C17S15346   6.517   0.786   5.438 -0.0667 -0.1636 -0.2390
  140OSM   H17S15347   6.429   0.851   5.457  0.4891  0.9966 -1.4492
  140OSM   H17T15348   6.494   0.694   5.495  0.5332  0.5158  1.1554
  140OSM   C18S15349   6.532   0.752   5.294  0.2336  0.0259 -0.1476
  140OSM   H18S15350   6.561   0.842   5.237  1.4902 -1.2900 -1.6692
  140OSM   H18T15351   6.436   0.708   5.257  0.8904 -1.3787 -0.2492
  140OSM   H18U15352   6.605   0.668   5.292 -1.2157 -1.3144  0.6463
  140OSM    C1F15353   6.749   0.982   7.036  0.1083 -0.0549  0.0280
  140OSM     OF15354   6.828   0.922   7.110 -0.0371  0.0610 -0.1440
  140OSM    C2F15355   6.773   1.121   6.986  0.8201  0.2747  0.1554
  140OSM    H2F15356   6.745   1.187   7.071 -2.8205 -0.8156 -0.0101
  140OSM    H2G15357   6.708   1.137   6.897 -0.5133  0.4307  1.1260
  140OSM    C3F15358   6.916   1.139   6.942 -0.2774  0.1872 -0.1915
  140OSM    H3F15359   6.980   1.122   7.031  0.0676  0.7145 -0.3384
  140OSM    H3G15360   6.920   1.247   6.915 -0.8202  0.0574 -0.8268
  140OSM    C4F15361   6.962   1.064   6.814  0.0175 -0.0539 -0.1056
  140OSM    H4F15362   6.895   1.072   6.726 -0.6947  1.0789  0.5159
  140OSM    H4G15363   6.975   0.960   6.848 -3.2268 -1.3788 -2.3922
  140OSM    C5F15364   7.091   1.121   6.753 -0.8809  0.2204 -0.5604
  140OSM    H5F15365   7.171   1.123   6.831  0.1220  0.2366 -1.5654
  140OSM    H5G15366   7.070   1.226   6.724  0.3690  0.9738  1.0565
  140OSM    C6F15367   7.142   1.034   6.631  0.2097 -0.2978 -0.4008
  140OSM    H6F15368   7.138   0.924   6.651  2.1180 -0.5287 -1.0720
  140OSM    H6G15369   7.243   1.073   6.606 -0.8698  2.0009 -1.4071
  140OSM    C7F15370   7.057   1.058   6.507  0.6137  0.5971  0.1072
  140OSM    H7F15371   7.038   1.165   6.483 -1.1502  0.2270 -0.3001
  140OSM    H7G15372   6.964   0.999   6.520  0.8812  0.3759  1.0511
  140OSM    C8F15373   7.126   0.985   6.385  0.7218  0.3739 -0.1702
  140OSM    H8F15374   7.045   0.996   6.309 -0.3044 -0.6427  0.7391
  140OSM    H8G15375   7.118   0.877   6.409  0.4721  0.7942  1.7918
  140OSM    C9F15376   7.258   1.040   6.347  0.8916 -0.7186  0.2868
  140OSM    H9F15377   7.330   1.035   6.430 -0.8339  2.5157  2.2039
  140OSM   C10F15378   7.292   1.112   6.243  0.1083 -0.1999 -0.0566
  140OSM   H10F15379   7.395   1.150   6.234 -0.6172  2.1663  0.7529
  140OSM   C11F15380   7.204   1.145   6.128 -0.4386  0.0055  0.6501
  140OSM   H11F15381   7.120   1.212   6.157 -0.4897 -0.0034  0.5208
  140OSM   H11G15382   7.138   1.061   6.098 -0.5494  0.4655 -0.4362
  140OSM   C12F15383   7.261   1.189   5.992 -0.0902  0.0445  0.4758
  140OSM   H12F15384   7.336   1.116   5.953  1.0891  2.1513 -1.4609
  140OSM   H12G15385   7.312   1.286   6.013 -0.7581  0.6020 -0.4232
  140OSM   C13F15386   7.155   1.206   5.885  0.1421 -0.0673 -0.2307
  140OSM   H13F15387   7.070   1.263   5.929 -0.0033  0.3464 -1.0363
  140OSM   H13G15388   7.115   1.107   5.856 -0.4322  0.3423 -0.8650
  140OSM   C14F15389   7.197   1.256   5.747 -0.7497 -0.1234  0.2750
  140OSM   H14F15390   7.274   1.188   5.705 -0.8924  0.7820 -1.5405
  140OSM   H14G15391   7.243   1.357   5.748  1.6750 -1.0813 -2.0937
  140OSM   C15F15392   7.076   1.262   5.653 -0.7663 -0.1724  0.4342
  140OSM   H15F15393   6.992   1.310   5.707  0.4416  2.6878 -0.0279
  140OSM   H15G15394   7.044   1.161   5.620 -0.2647  0.0684 -0.8853
  140OSM   C16F15395   7.104   1.338   5.524 -0.3722 -0.0207  0.2252
  140OSM   H16F15396   7.182   1.289   5.463 -1.6812 -1.8635 -0.0484
  140OSM   H16G15397   7.137   1.433   5.573 -1.1552 -0.4910  1.7331
  140OSM   C17F15398   6.965   1.362   5.466  0.4187 -0.3375  0.2813
  140OSM   H17F15399   6.901   1.420   5.535  3.4061  0.7935  2.2949
  140OSM   H17G15400   6.913   1.264   5.461 -1.8565  0.8505 -0.8983
  140OSM   C18F15401   6.965   1.420   5.323  0.1142 -0.3246  0.1103
  140OSM   H18F15402   7.007   1.361   5.239  0.1508  1.2057 -0.9941
  140OSM   H18G15403   7.028   1.511   5.330  0.2680 -0.3762 -0.5521
  140OSM   H18H15404   6.859   1.447   5.302 -0.9642 -2.4386  2.2262
  141OSM      N15405   4.590   2.192   7.348  0.2881 -0.2730  0.8323
  141OSM    C1515406   4.562   2.294   7.450 -0.0093  0.1467 -0.6200
  141OSM   H15A15407   4.557   2.256   7.551  1.2800  1.1838 -0.1471
  141OSM   H15B15408   4.466   2.343   7.449 -1.1393 -1.8865  0.6175
  141OSM   H15C15409   4.639   2.368   7.449 -0.3239  0.4746 -1.2499
  141OSM    C1415410   4.718   2.132   7.406 -0.7484 -0.2582 -0.2450
  141OSM   H14A15411   4.745   2.050   7.342  0.7102 -1.2851  1.5805
  141OSM   H14B15412   4.690   2.091   7.502 -0.8714  0.8161  0.1939
  141OSM   H14C15413   4.787   2.214   7.417 -1.8316  0.5205  1.1156
  141OSM    C1315414   4.492   2.081   7.331 -0.3672 -0.9027 -0.1652
  141OSM   H13A15415   4.516   2.009   7.254  0.8548 -2.2873  1.4215
  141OSM   H13B15416   4.398   2.123   7.299  0.2475  1.4131  0.8588
  141OSM   H13C15417   4.466   2.040   7.428 -2.2078  0.5313  0.0091
  141OSM    C1215418   4.614   2.266   7.209  0.0956 -0.0782 -0.2289
  141OSM   H12A15419   4.664   2.201   7.140  2.2590  3.1590 -1.9514
  141OSM   H12B15420   4.691   2.341   7.220  1.4469 -1.6600  1.8947
  141OSM    C1115421   4.488   2.327   7.149 -0.3213 -0.3918  0.4248
  141OSM   H11A15422   4.511   2.419   7.091 -0.6983  1.3279  2.8378
  141OSM   H11B15423   4.425   2.374   7.228 -1.1985  0.8604 -0.9704
  141OSM      P15424   4.431   2.162   6.949  0.1082 -0.0220 -0.0433
  141OSM    O1315425   4.487   2.028   6.974 -0.2519 -0.1453 -0.6639
  141OSM    O1415426   4.306   2.170   6.871 -0.3184 -0.2013 -0.1514
  141OSM    O1115427   4.540   2.249   6.891  0.0327  0.5511 -0.2656
  141OSM    O1215428   4.403   2.228   7.084  1.0473 -0.2908 -0.6474
  141OSM    C1S15429   4.581   2.214   6.754  0.6709  0.5649  0.2737
  141OSM    H1S15430   4.510   2.163   6.685  1.3891  1.7455 -1.4138
  141OSM    H1T15431   4.668   2.146   6.755 -0.0169 -0.3377  1.0833
  141OSM     NF15432   4.638   2.326   6.529 -0.2180  0.2358 -0.6387
  141OSM    HNF15433   4.733   2.325   6.499 -0.7122 -0.7179 -2.3096
  141OSM    C2S15434   4.611   2.347   6.676  0.0185 -0.0926  0.5255
  141OSM    H2S15435   4.514   2.402   6.680 -0.6611 -1.2261 -0.1373
  141OSM    C3S15436   4.715   2.430   6.757 -0.3567 -0.8757 -0.0501
  141OSM    H3S15437   4.805   2.368   6.777  0.9740  0.7157 -0.8823
  141OSM     O315438   4.669   2.473   6.888 -0.2871  0.4788  0.0690
  141OSM    HO315439   4.594   2.414   6.901 -0.5700  0.7714 -0.2180
  141OSM    C4S15440   4.760   2.553   6.683  0.0533 -0.3640 -0.5846
  141OSM    H4S15441   4.692   2.639   6.669 -0.8201 -1.1291 -1.1286
  141OSM    C5S15442   4.885   2.562   6.631 -0.0245  0.0104  0.1419
  141OSM    H5S15443   4.959   2.480   6.630 -1.0502 -0.9342  0.3440
  141OSM    C6S15444   4.935   2.691   6.566  0.5333 -0.0768 -0.1627
  141OSM    H6S15445   5.040   2.721   6.589  0.3787  0.7364 -0.5205
  141OSM    H6T15446   4.874   2.778   6.597 -1.5137 -0.7483 -2.0591
  141OSM    C7S15447   4.919   2.674   6.415 -0.4756 -0.5455 -0.2631
  141OSM    H7S15448   4.816   2.653   6.378 -0.5212 -1.4762  0.3399
  141OSM    H7T15449   4.980   2.596   6.365 -0.7647 -0.7442 -0.3101
  141OSM    C8S15450   4.944   2.809   6.343 -1.0245 -0.2858  0.0216
  141OSM    H8S15451   5.045   2.834   6.383 -0.4369 -0.7480 -1.1503
  141OSM    H8T15452   4.877   2.884   6.391 -1.5961 -2.5665  3.1017
  141OSM    C9S15453   4.959   2.799   6.189 -0.3420 -0.4903 -0.1532
  141OSM    H9S15454   5.027   2.715   6.162  0.7121  0.0612  0.7283
  141OSM    H9T15455   4.996   2.894   6.145  0.2945 -1.1846 -1.1660
  141OSM   C10S15456   4.821   2.758   6.120  0.1648 -0.4069 -0.4406
  141OSM   H10S15457   4.747   2.835   6.151 -1.8827 -2.1947 -0.6455
  141OSM   H10T15458   4.786   2.655   6.140 -0.9300  0.0803  0.2769
  141OSM   C11S15459   4.849   2.767   5.971  0.6829  0.5735 -0.2283
  141OSM   H11S15460   4.913   2.683   5.936 -2.1145 -0.9487 -2.0635
  141OSM   H11T15461   4.885   2.868   5.943 -0.4060  0.6429 -1.4431
  141OSM   C12S15462   4.716   2.741   5.895  0.5759  0.1609  0.2499
  141OSM   H12S15463   4.637   2.819   5.904 -0.4406 -1.0682  2.7308
  141OSM   H12T15464   4.669   2.650   5.936 -0.2239 -0.3605 -1.7128
  141OSM   C13S15465   4.737   2.713   5.739  0.3573 -0.2495 -0.6670
  141OSM   H13S15466   4.801   2.624   5.722 -0.1363 -0.4749 -1.3942
  141OSM   H13T15467   4.799   2.799   5.706  1.7313 -1.2790 -0.8542
  141OSM   C14S15468   4.604   2.694   5.672 -0.3915 -0.5146 -0.8864
  141OSM   H14S15469   4.547   2.784   5.704  0.2627 -0.0986 -0.8738
  141OSM   H14T15470   4.549   2.612   5.724  1.1956  0.0557  1.8633
  141OSM   C15S15471   4.608   2.682   5.518  0.5488 -0.3671 -0.6802
  141OSM   H15S15472   4.663   2.590   5.489  0.8901 -0.7980  1.1624
  141OSM   H15T15473   4.657   2.775   5.479  0.5445  1.7577  3.7312
  141OSM   C16S15474   4.467   2.667   5.462  0.2015  0.2956  0.0744
  141OSM   H16S15475   4.399   2.738   5.513  1.2773  0.3572  1.4961
  141OSM   H16T15476   4.432   2.564   5.485 -0.3757  0.1127 -1.4868
  141OSM   C17S15477   4.444   2.683   5.316  1.0339  0.0007  0.2086
  141OSM   H17S15478   4.524   2.626   5.264  2.6322 -0.1370  2.6408
  141OSM   H17T15479   4.466   2.791   5.299 -0.6440  0.2752 -0.4035
  141OSM   C18S15480   4.302   2.651   5.270 -0.4445 -0.5471  0.4846
  141OSM   H18S15481   4.296   2.683   5.164  2.5318  0.1930  0.4324
  141OSM   H18T15482   4.233   2.710   5.334 -1.5058 -1.8614  0.6023
  141OSM   H18U15483   4.281   2.542   5.277 -0.0330 -0.5665  1.7943
  141OSM    C1F15484   4.538   2.286   6.449  0.0264 -0.5492  0.6391
  141OSM     OF15485   4.425   2.275   6.496  0.4705 -0.5860  0.5430
  141OSM    C2F15486   4.575   2.269   6.298 -0.2006 -0.5136 -0.8827
  141OSM    H2F15487   4.663   2.200   6.299  0.1849 -0.0408  1.2378
  141OSM    H2G15488   4.619   2.363   6.257  0.5053 -1.4523 -2.3932
  141OSM    C3F15489   4.474   2.194   6.215 -0.0747 -0.2983  0.2429
  141OSM    H3F15490   4.396   2.272   6.203  0.2995  0.0276 -0.1329
  141OSM    H3G15491   4.443   2.092   6.246  0.4096 -0.0787  1.5162
  141OSM    C4F15492   4.522   2.171   6.070 -0.1601  0.1400 -0.1481
  141OSM    H4F15493   4.442   2.122   6.011  1.6448 -3.2314 -0.0163
  141OSM    H4G15494   4.606   2.098   6.071 -0.7219 -0.6751  3.7221
  141OSM    C5F15495   4.554   2.310   5.997  0.7660  0.7168  0.3571
  141OSM    H5F15496   4.619   2.376   6.059  2.1276 -2.1063  2.1374
  141OSM    H5G15497   4.456   2.359   5.978 -0.0366  0.2622  2.9768
  141OSM    C6F15498   4.620   2.294   5.855 -0.1058 -0.4275 -0.8465
  141OSM    H6F15499   4.728   2.269   5.859  0.1104  0.4440 -0.9611
  141OSM    H6G15500   4.617   2.397   5.814 -1.3157  0.1562  0.5999
  141OSM    C7F15501   4.542   2.205   5.767  0.2485 -0.2021 -0.6039
  141OSM    H7F15502   4.440   2.248   5.753  1.2178  2.6473  0.5624
  141OSM    H7G15503   4.536   2.103   5.811 -0.6842 -0.4015 -1.1509
  141OSM    C8F15504   4.608   2.191   5.629 -0.2405 -0.1866 -0.5051
  141OSM    H8F15505   4.639   2.291   5.591  0.5685 -1.7468 -4.4633
  141OSM    H8G15506   4.524   2.158   5.565 -0.6058  2.6755 -1.6514
  141OSM    C9F15507   4.723   2.095   5.609  0.9494  0.8821  0.0285
  141OSM    H9F15508   4.806   2.116   5.678  0.9329 -1.5754  0.8710
  141OSM   C10F15509   4.727   1.990   5.526  0.1783 -0.5084  0.6507
  141OSM   H10F15510   4.824   1.937   5.521  0.2719 -0.2580 -0.9104
  141OSM   C11F15511   4.623   1.949   5.424 -0.9314 -0.1399 -0.0340
  141OSM   H11F15512   4.521   1.953   5.467 -1.5163  0.5842 -1.3969
  141OSM   H11G15513   4.654   1.847   5.394  0.1337 -0.4458  1.9607
  141OSM   C12F15514   4.631   2.028   5.298  0.1210  0.2081  0.5895
  141OSM   H12F15515   4.729   2.010   5.248 -0.8900 -4.5638 -0.1273
  141OSM   H12G15516   4.620   2.138   5.311  2.0632  0.7223 -1.4282
  141OSM   C13F15517   4.521   1.976   5.192 -0.2925  0.3240 -0.3556
  141OSM   H13F15518   4.418   1.980   5.235 -1.0087 -0.4371 -1.9430
  141OSM   H13G15519   4.545   1.870   5.170 -1.2083 -0.2707  1.3271
  141OSM   C14F15520   4.522   2.045   5.053 -0.3618 -0.3503  0.3033
  141OSM   H14F15521   4.466   1.995   4.971 -0.1875  1.7493 -1.1847
  141OSM   H14G15522   4.630   2.036   5.027  0.1742  1.5188  1.7340
  141OSM   C15F15523   4.456   2.181   5.053  0.1278 -0.6908  0.4725
  141OSM   H15F15524   4.483   2.243   5.141  0.3998  0.7938 -0.6373
  141OSM   H15G15525   4.346   2.171   5.062  0.0308  0.9282  1.2680
  141OSM   C16F15526   4.482   2.260   4.927 -0.2529 -0.1875  0.3980
  141OSM   H16F15527   4.448   2.197   4.842  0.8951  1.8430 -1.7075
  141OSM   H16G15528   4.591   2.267   4.907 -0.1215 -0.1399  1.1282
  141OSM   C17F15529   4.416   2.399   4.921 -0.2549 -0.1383 -0.0687
  141OSM   H17F15530   4.466   2.470   4.991  1.6048 -0.0437 -1.4312
  141OSM   H17G15531   4.315   2.377   4.962 -0.3288 -1.8174 -1.0608
  141OSM   C18F15532   4.390   2.458   4.785  0.2259 -0.4228 -0.2040
  141OSM   H18F15533   4.318   2.392   4.731 -1.8056  1.6787 -0.2114
  141OSM   H18G15534   4.477   2.470   4.717  0.2458 -1.3687 -0.3722
  141OSM   H18H15535   4.333   2.553   4.791  0.3984 -0.1316 -2.4205
  142OSM      N15536   1.160   5.308   7.469 -0.0581 -0.6007  0.0752
  142OSM    C1515537   1.019   5.355   7.487 -0.6131  0.0404 -0.4117
  142OSM   H15A15538   0.993   5.416   7.402 -3.5979  2.3352  1.9211
  142OSM   H15B15539   1.011   5.415   7.577 -2.9269  1.3470 -1.4036
  142OSM   H15C15540   0.965   5.263   7.501  0.5932 -0.7282 -0.6348
  142OSM    C1415541   1.197   5.213   7.574  0.0463 -0.2052 -0.7983
  142OSM   H14A15542   1.292   5.167   7.551  1.1800  1.4407  0.3482
  142OSM   H14B15543   1.117   5.142   7.591  0.3802 -0.5459 -0.6294
  142OSM   H14C15544   1.205   5.263   7.670  0.8207 -1.0339 -0.4139
  142OSM    C1315545   1.160   5.236   7.337  0.8984  0.1953 -0.3308
  142OSM   H13A15546   1.141   5.317   7.267  0.3560  1.0850  0.8165
  142OSM   H13B15547   1.083   5.161   7.342  1.4156 -0.2655  0.9860
  142OSM   H13C15548   1.257   5.196   7.312  0.4219 -0.4510 -1.1880
  142OSM    C1215549   1.256   5.428   7.468  0.0401  0.1345 -0.4185
  142OSM   H12A15550   1.354   5.382   7.468 -0.9992 -2.1883  0.1475
  142OSM   H12B15551   1.247   5.478   7.563 -0.6641 -1.9892  0.6864
  142OSM    C1115552   1.257   5.521   7.349 -0.0437 -0.2672 -0.1371
  142OSM   H11A15553   1.318   5.612   7.368 -1.0336  0.6879 -1.3652
  142OSM   H11B15554   1.154   5.556   7.328 -1.2690 -2.1561  2.2838
  142OSM      P15555   1.464   5.435   7.226  0.0150 -0.1910  0.0043
  142OSM    O1315556   1.532   5.534   7.312 -0.6657  0.4248 -0.2404
  142OSM    O1415557   1.490   5.290   7.244  0.0719  0.3845 -0.3938
  142OSM    O1115558   1.510   5.467   7.076 -0.5191  0.1226  0.2145
  142OSM    O1215559   1.306   5.460   7.231  0.1185  0.8416  0.4982
  142OSM    C1S15560   1.464   5.581   7.010 -0.1661 -0.3863 -0.5567
  142OSM    H1S15561   1.527   5.658   7.061  0.4934 -1.5305  0.3983
  142OSM    H1T15562   1.358   5.607   7.031 -0.5089 -1.9795 -0.2412
  142OSM     NF15563   1.446   5.713   6.800 -0.0392 -0.1993  0.0463
  142OSM    HNF15564   1.365   5.716   6.742  0.4563  0.6873 -0.6110
  142OSM    C2S15565   1.486   5.580   6.855 -0.2562 -0.4648  0.3338
  142OSM    H2S15566   1.596   5.570   6.840  0.2067 -1.0529  3.4767
  142OSM    C3S15567   1.418   5.454   6.788 -0.7624 -0.7468  0.0722
  142OSM    H3S15568   1.309   5.471   6.797 -0.4485  2.2153 -0.7643
  142OSM     O315569   1.439   5.331   6.858  0.3215  0.3184  0.2349
  142OSM    HO315570   1.480   5.356   6.941  0.5388 -0.5636  0.3947
  142OSM    C4S15571   1.457   5.446   6.642 -0.0871  0.6222  0.5630
  142OSM    H4S15572   1.533   5.371   6.616 -0.0651  0.5524  0.8275
  142OSM    C5S15573   1.378   5.498   6.549  0.1650 -0.8569 -0.1045
  142OSM    H5S15574   1.279   5.539   6.576 -0.0147 -1.9119  0.9236
  142OSM    C6S15575   1.416   5.475   6.410 -0.8744  0.0292  1.1756
  142OSM    H6S15576   1.506   5.413   6.392 -1.0967  0.5593 -2.6392
  142OSM    H6T15577   1.444   5.571   6.361  2.5816 -2.0493 -1.4367
  142OSM    C7S15578   1.303   5.427   6.314  0.8461 -0.3203  0.3627
  142OSM    H7S15579   1.213   5.487   6.336  0.0735 -1.0381 -0.7728
  142OSM    H7T15580   1.280   5.321   6.341  0.2220  0.3543  2.7939
  142OSM    C8S15581   1.338   5.440   6.160  0.9202  0.6182 -1.0428
  142OSM    H8S15582   1.410   5.358   6.138  0.4396 -0.7923  2.0140
  142OSM    H8T15583   1.384   5.540   6.153  0.5434  0.8938  0.2145
  142OSM    C9S15584   1.216   5.448   6.069  0.1236  0.4176 -0.2274
  142OSM    H9S15585   1.135   5.494   6.129  1.4081 -1.0028  2.8214
  142OSM    H9T15586   1.178   5.345   6.049 -1.7186  1.3734 -2.0451
  142OSM   C10S15587   1.252   5.531   5.944  0.4807 -0.7563  0.2053
  142OSM   H10S15588   1.351   5.504   5.903  0.6781  0.3063 -0.0280
  142OSM   H10T15589   1.256   5.637   5.976 -0.7317 -0.2422 -1.2413
  142OSM   C11S15590   1.144   5.522   5.832  0.5151  0.1526 -0.8459
  142OSM   H11S15591   1.049   5.557   5.876  0.8209 -0.0022 -0.0501
  142OSM   H11T15592   1.136   5.415   5.803 -1.7996 -0.1770  0.7614
  142OSM   C12S15593   1.195   5.611   5.713 -0.1931  0.7270 -0.5943
  142OSM   H12S15594   1.301   5.584   5.697 -0.1271 -1.2828  2.5638
  142OSM   H12T15595   1.190   5.717   5.746  1.5854  0.8649 -0.6650
  142OSM   C13S15596   1.107   5.591   5.590  0.0372 -0.0669  0.8193
  142OSM   H13S15597   0.999   5.600   5.616  0.4224  0.1753  2.4531
  142OSM   H13T15598   1.125   5.487   5.555 -1.6309 -0.4490  1.0155
  142OSM   C14S15599   1.137   5.681   5.472 -0.5798  0.8520 -0.1327
  142OSM   H14S15600   1.246   5.681   5.452 -0.4826 -0.7243  0.3114
  142OSM   H14T15601   1.115   5.789   5.490 -0.5949  0.8671 -0.2387
  142OSM   C15S15602   1.055   5.631   5.350 -0.3043 -0.0581  0.2554
  142OSM   H15S15603   0.948   5.642   5.376 -0.1458 -1.8954  2.0533
  142OSM   H15T15604   1.078   5.522   5.342 -1.5202 -0.3221  0.1889
  142OSM   C16S15605   1.064   5.715   5.221 -0.2564 -0.2481 -0.0215
  142OSM   H16S15606   1.167   5.709   5.180 -0.3493 -1.3035 -0.1178
  142OSM   H16T15607   1.039   5.822   5.238 -0.2797 -0.6823  3.2677
  142OSM   C17S15608   0.972   5.666   5.106 -0.3200  0.5795  0.0864
  142OSM   H17S15609   0.866   5.663   5.141  0.0659 -1.2770  1.2188
  142OSM   H17T15610   0.987   5.559   5.078 -1.8579  0.9202 -2.4198
  142OSM   C18S15611   0.995   5.752   4.982  0.1967 -0.0420 -0.2228
  142OSM   H18S15612   1.105   5.761   4.968  0.0930 -0.5285 -1.4826
  142OSM   H18T15613   0.955   5.852   5.010  1.4789  0.0309  1.5333
  142OSM   H18U15614   0.939   5.724   4.890  0.0483  0.0663 -0.1652
  142OSM    C1F15615   1.483   5.835   6.849 -0.0597  0.7890  0.2157
  142OSM     OF15616   1.572   5.843   6.936  0.5322 -0.2305  0.1344
  142OSM    C2F15617   1.413   5.957   6.794  0.8079  0.5749  0.0072
  142OSM    H2F15618   1.305   5.937   6.809  1.5106 -1.8222  3.0293
  142OSM    H2G15619   1.430   5.974   6.686  0.8232 -0.5093 -0.1659
  142OSM    C3F15620   1.427   6.091   6.874  0.1356 -0.4124  0.0248
  142OSM    H3F15621   1.533   6.124   6.872 -0.0470  0.2757  0.9639
  142OSM    H3G15622   1.406   6.071   6.981  0.7100 -2.5696 -0.2277
  142OSM    C4F15623   1.347   6.201   6.802 -0.6030 -0.3641  0.8035
  142OSM    H4F15624   1.346   6.292   6.866  0.0403  0.9738 -1.0074
  142OSM    H4G15625   1.240   6.173   6.790 -0.2728 -1.0139 -0.7659
  142OSM    C5F15626   1.416   6.228   6.666 -0.1596  0.4367 -0.0880
  142OSM    H5F15627   1.405   6.143   6.595  0.8049 -1.3445  1.8135
  142OSM    H5G15628   1.522   6.256   6.685 -0.0464 -0.2697  0.3333
  142OSM    C6F15629   1.356   6.355   6.612  0.4965  0.2254  0.4083
  142OSM    H6F15630   1.361   6.440   6.683 -1.3015  1.7043 -1.1231
  142OSM    H6G15631   1.250   6.335   6.585  1.0791  0.3556 -2.3236
  142OSM    C7F15632   1.432   6.401   6.482 -0.6088 -0.1432 -0.5308
  142OSM    H7F15633   1.440   6.311   6.416 -1.9666  0.3386 -1.3810
  142OSM    H7G15634   1.535   6.431   6.513 -0.8980 -0.3236  0.6613
  142OSM    C8F15635   1.371   6.521   6.402  0.3294 -0.4991 -0.2192
  142OSM    H8F15636   1.446   6.559   6.330 -0.1443 -0.9742 -0.9810
  142OSM    H8G15637   1.358   6.599   6.480  3.5706 -0.4417  0.3908
  142OSM    C9F15638   1.245   6.473   6.341  0.4413  0.4349  0.2706
  142OSM    H9F15639   1.153   6.467   6.402 -0.7442  0.4815 -1.4308
  142OSM   C10F15640   1.236   6.437   6.207  0.2359  0.9531  0.0133
  142OSM   H10F15641   1.133   6.419   6.172  0.2587  0.3893  0.2278
  142OSM   C11F15642   1.340   6.434   6.094 -0.2213  0.0207 -0.0101
  142OSM   H11F15643   1.376   6.332   6.068  1.5522  0.9299 -1.3162
  142OSM   H11G15644   1.430   6.492   6.125 -0.4565 -0.0260  0.7886
  142OSM   C12F15645   1.278   6.500   5.973 -0.2295 -0.5573  0.0761
  142OSM   H12F15646   1.250   6.605   5.995  1.2511 -0.2263  0.5181
  142OSM   H12G15647   1.184   6.444   5.954 -1.4590  1.2972  0.4545
  142OSM   C13F15648   1.359   6.513   5.846  0.5375  0.3748 -0.2631
  142OSM   H13F15649   1.418   6.422   5.821  0.6258  0.8748 -2.0177
  142OSM   H13G15650   1.435   6.593   5.849  1.5621 -0.4478 -2.3170
  142OSM   C14F15651   1.269   6.540   5.720  0.6253  0.9205 -0.4519
  142OSM   H14F15652   1.207   6.630   5.740 -1.6579 -0.7693  0.6674
  142OSM   H14G15653   1.203   6.452   5.702  2.0261 -0.5331  1.1202
  142OSM   C15F15654   1.361   6.545   5.595  0.1791 -0.6453 -0.5549
  142OSM   H15F15655   1.444   6.471   5.601  1.2334  0.4522 -1.0285
  142OSM   H15G15656   1.417   6.641   5.590 -1.1623  0.2015  0.2329
  142OSM   C16F15657   1.298   6.535   5.462  0.5578 -0.3301  0.2470
  142OSM   H16F15658   1.209   6.602   5.464  0.5115 -0.2730 -1.7048
  142OSM   H16G15659   1.263   6.432   5.440 -2.3429  0.9206 -1.6625
  142OSM   C17F15660   1.389   6.593   5.349  0.4898  0.1484  0.0450
  142OSM   H17F15661   1.488   6.544   5.353 -0.0333 -0.9018  0.5457
  142OSM   H17G15662   1.401   6.702   5.368  1.2124  0.1828 -0.5618
  142OSM   C18F15663   1.339   6.567   5.202 -0.3271 -0.3935 -0.5684
  142OSM   H18F15664   1.329   6.457   5.197 -0.9076 -0.3227 -1.2468
  142OSM   H18G15665   1.407   6.611   5.126  0.7173  0.7863  0.9881
  142OSM   H18H15666   1.241   6.619   5.187  0.2402  1.2276  0.9581
  143OSM      N15667   0.439   4.054   7.390 -0.0657 -0.1433 -0.0811
  143OSM    C1515668   0.399   3.944   7.479 -0.5575  0.2233  0.2093
  143OSM   H15A15669   0.460   3.856   7.469 -2.1456 -0.7742 -1.5112
  143OSM   H15B15670   0.308   3.898   7.443 -0.0613 -1.0523  0.5561
  143OSM   H15C15671   0.390   3.970   7.583  0.1481 -0.1613  0.3676
  143OSM    C1415672   0.351   4.180   7.402  0.3485 -0.3292  0.4811
  143OSM   H14A15673   0.253   4.156   7.364  0.6773  1.2685 -1.5577
  143OSM   H14B15674   0.378   4.263   7.339 -1.2578 -1.2348 -1.5089
  143OSM   H14C15675   0.350   4.214   7.505 -2.8347  0.2706  0.3617
  143OSM    C1315676   0.577   4.096   7.420  0.2661 -0.0557  0.0532
  143OSM   H13A15677   0.615   4.145   7.332  0.1357 -1.2113 -0.6658
  143OSM   H13B15678   0.643   4.014   7.442  2.2082  1.4666  0.1878
  143OSM   H13C15679   0.580   4.164   7.504 -2.0114  1.6466 -1.1129
  143OSM    C1215680   0.445   3.989   7.250  0.2693 -0.2019  0.1470
  143OSM   H12A15681   0.522   3.913   7.247 -1.4290 -1.9763 -0.4686
  143OSM   H12B15682   0.482   4.067   7.185  0.3369  0.0098  0.4388
  143OSM    C1115683   0.317   3.916   7.189 -0.0931 -1.0866 -0.1965
  143OSM   H11A15684   0.357   3.873   7.095 -0.4837 -3.1572  0.5295
  143OSM   H11B15685   0.239   3.993   7.173  0.5923 -0.5936 -1.2597
  143OSM      P15686   0.313   3.660   7.231  0.4238  0.0126  0.2883
  143OSM    O1315687   0.457   3.658   7.201  0.5198  0.7561 -0.9864
  143OSM    O1415688   0.263   3.567   7.334  0.1829  0.2221  0.1226
  143OSM    O1115689   0.245   3.639   7.084  0.1918  0.2909 -0.0889
  143OSM    O1215690   0.272   3.806   7.272 -0.3700  0.3404  0.3377
  143OSM    C1S15691   0.109   3.675   7.062  0.0526  0.1947 -0.2846
  143OSM    H1S15692   0.069   3.740   7.143 -0.4888 -0.4922  0.0086
  143OSM    H1T15693   0.048   3.583   7.057  0.2845  0.0651 -0.8589
  143OSM     NF15694  -0.031   3.802   6.886  0.2496 -0.0927 -0.1765
  143OSM    HNF15695  -0.096   3.774   6.816 -4.2049  2.7376  2.3026
  143OSM    C2S15696   0.096   3.740   6.917  0.7669 -0.5107 -0.7225
  143OSM    H2S15697   0.174   3.819   6.923  0.9023 -0.7774  1.7828
  143OSM    C3S15698   0.151   3.645   6.802 -0.3042  0.4007  0.6253
  143OSM    H3S15699   0.070   3.570   6.788 -1.0946  1.2936  0.2348
  143OSM     O315700   0.273   3.582   6.831 -0.4206  0.2916  0.2955
  143OSM    HO315701   0.287   3.602   6.924 -0.4655  0.7662  0.2056
  143OSM    C4S15702   0.160   3.715   6.670 -0.0081  0.2787  0.6019
  143OSM    H4S15703   0.073   3.701   6.604  2.7158 -2.0297 -2.8087
  143OSM    C5S15704   0.254   3.794   6.622  0.3892 -0.5034 -0.7118
  143OSM    H5S15705   0.342   3.810   6.686 -1.6679 -1.3165  2.5055
  143OSM    C6S15706   0.255   3.864   6.485  0.3160 -0.8473 -0.2804
  143OSM    H6S15707   0.364   3.872   6.465  0.9015 -0.8502  2.5460
  143OSM    H6T15708   0.212   3.966   6.490 -0.7796 -1.3201  0.2346
  143OSM    C7S15709   0.175   3.791   6.377 -0.3688 -1.0516  0.2233
  143OSM    H7S15710   0.073   3.813   6.414 -0.7959  0.2596 -1.5882
  143OSM    H7T15711   0.201   3.683   6.380  0.2828 -1.0048 -2.0557
  143OSM    C8S15712   0.203   3.845   6.241  0.0687  0.1299 -0.4695
  143OSM    H8S15713   0.308   3.820   6.216 -0.0883 -1.1169  0.0639
  143OSM    H8T15714   0.194   3.956   6.249 -2.3824 -0.0286 -0.0637
  143OSM    C9S15715   0.112   3.803   6.128  0.2047  0.7306  0.1619
  143OSM    H9S15716   0.011   3.846   6.147 -0.4894  0.1955 -1.9664
  143OSM    H9T15717   0.113   3.692   6.125  2.0677  0.7163  0.0245
  143OSM   C10S15718   0.181   3.840   5.992 -0.5627  0.6314 -0.3833
  143OSM   H10S15719   0.269   3.779   5.963  0.0598  1.9482 -1.3785
  143OSM   H10T15720   0.219   3.944   5.988  2.0112 -0.2819 -1.3096
  143OSM   C11S15721   0.092   3.828   5.870 -0.3374 -0.3783 -0.4847
  143OSM   H11S15722   0.030   3.920   5.863  0.2931  0.2318  1.3352
  143OSM   H11T15723   0.027   3.739   5.877 -0.5859 -0.3387 -1.9106
  143OSM   C12S15724   0.173   3.828   5.743  0.1227  0.0401  0.3250
  143OSM   H12S15725   0.256   3.753   5.740  1.4056  1.4417 -0.2360
  143OSM   H12T15726   0.223   3.926   5.730 -0.7348  0.2546 -1.5713
  143OSM   C13S15727   0.091   3.791   5.616  0.3874 -0.0631 -1.3791
  143OSM   H13S15728  -0.019   3.810   5.618  0.5262  0.6908  0.8262
  143OSM   H13T15729   0.092   3.679   5.616  2.8227 -0.0933 -1.0556
  143OSM   C14S15730   0.149   3.846   5.486  0.6095  0.0417  0.1458
  143OSM   H14S15731   0.258   3.829   5.496  0.2848 -2.0940  0.4092
  143OSM   H14T15732   0.115   3.951   5.474  0.0338 -0.1145  0.3931
  143OSM   C15S15733   0.110   3.759   5.362 -0.3598  0.1322 -0.6843
  143OSM   H15S15734  -0.001   3.755   5.358 -0.5069 -3.3237  2.3248
  143OSM   H15T15735   0.134   3.651   5.373 -1.7904 -0.1889 -0.4200
  143OSM   C16S15736   0.174   3.821   5.239 -0.1672 -0.2346  0.9005
  143OSM   H16S15737   0.285   3.823   5.244 -0.1911 -0.6256  1.7734
  143OSM   H16T15738   0.138   3.926   5.239  0.2639 -0.0775  1.3576
  143OSM   C17S15739   0.136   3.750   5.108  0.0960  0.1672  0.1408
  143OSM   H17S15740   0.176   3.647   5.110  1.6333  0.7229 -0.3345
  143OSM   H17T15741   0.184   3.793   5.018 -0.7065  0.5370 -0.1245
  143OSM   C18S15742  -0.012   3.751   5.064  0.3486  0.3902 -0.4062
  143OSM   H18S15743  -0.056   3.671   5.127 -0.2654  0.1555 -1.1185
  143OSM   H18T15744  -0.023   3.704   4.964 -1.8843  0.0726 -0.0768
  143OSM   H18U15745  -0.062   3.850   5.073 -1.0550  0.3397 -4.8895
  143OSM    C1F15746  -0.073   3.903   6.964 -0.2177  0.0276  0.4891
  143OSM     OF15747   0.008   3.980   7.025  0.1178 -0.3721 -0.4175
  143OSM    C2F15748  -0.220   3.924   6.984  0.4254 -0.1246 -0.6880
  143OSM    H2F15749  -0.247   3.948   7.089 -0.6841 -3.3961 -0.0841
  143OSM    H2G15750  -0.274   3.829   6.961 -1.0602  0.3069  0.7853
  143OSM    C3F15751  -0.273   4.033   6.887 -0.4510  0.2583  0.0615
  143OSM    H3F15752  -0.206   4.121   6.892  1.8880 -1.2328 -2.3946
  143OSM    H3G15753  -0.369   4.063   6.933  0.4292  3.6577 -0.0988
  143OSM    C4F15754  -0.287   3.981   6.745  0.0459  0.0496 -0.3617
  143OSM    H4F15755  -0.352   3.891   6.755  1.1129 -0.5519  1.7950
  143OSM    H4G15756  -0.190   3.947   6.704  0.0711  1.6985 -1.7472
  143OSM    C5F15757  -0.331   4.093   6.650  0.4012  0.1072  0.3995
  143OSM    H5F15758  -0.266   4.182   6.665  0.9012 -0.0935 -0.5113
  143OSM    H5G15759  -0.433   4.130   6.675 -0.0632 -1.0600  0.2851
  143OSM    C6F15760  -0.332   4.049   6.507 -0.1644  0.3291 -0.2637
  143OSM    H6F15761  -0.410   3.972   6.490 -2.9282  2.4559  1.7327
  143OSM    H6G15762  -0.230   4.023   6.473 -0.1764 -0.1322  0.0613
  143OSM    C7F15763  -0.387   4.160   6.416 -0.3979 -0.2239  0.1393
  143OSM    H7F15764  -0.304   4.216   6.369  0.7646 -1.8951  0.1084
  143OSM    H7G15765  -0.450   4.230   6.475 -3.4476 -0.8385 -2.1372
  143OSM    C8F15766  -0.485   4.107   6.310 -0.2534  0.0888 -0.7791
  143OSM    H8F15767  -0.578   4.083   6.365 -1.0475  0.7873 -1.7842
  143OSM    H8G15768  -0.449   4.021   6.250  0.9920  1.5382 -2.2199
  143OSM    C9F15769  -0.532   4.216   6.220 -0.6155 -0.1703 -0.2952
  143OSM    H9F15770  -0.548   4.315   6.266  0.7337 -0.2236  0.3259
  143OSM   C10F15771  -0.577   4.208   6.095  0.4525 -0.5445 -0.2379
  143OSM   H10F15772  -0.603   4.301   6.043 -0.1818 -1.4917 -1.6673
  143OSM   C11F15773  -0.585   4.083   6.011 -0.3806 -1.1004  0.1169
  143OSM   H11F15774  -0.673   4.081   5.944 -0.2742 -0.7360 -0.0411
  143OSM   H11G15775  -0.577   3.990   6.070 -1.2423  0.7343  3.3896
  143OSM   C12F15776  -0.477   4.066   5.898  0.2140 -0.2771  0.6263
  143OSM   H12F15777  -0.477   3.955   5.887 -0.5619 -0.2692  0.5215
  143OSM   H12G15778  -0.381   4.099   5.944  1.2511 -0.8226 -1.0655
  143OSM   C13F15779  -0.506   4.163   5.779  0.3236  0.4445  1.3287
  143OSM   H13F15780  -0.534   4.267   5.804  3.3511  2.2589 -1.8504
  143OSM   H13G15781  -0.591   4.117   5.723  0.5918  0.9919  0.4433
  143OSM   C14F15782  -0.392   4.182   5.682  0.6699  0.9320 -0.2633
  143OSM   H14F15783  -0.312   4.238   5.735  1.5403 -1.3741  0.9867
  143OSM   H14G15784  -0.426   4.246   5.597 -1.5756 -2.2895 -1.9858
  143OSM   C15F15785  -0.342   4.055   5.609 -0.1442  0.0675 -0.7528
  143OSM   H15F15786  -0.435   4.011   5.568 -1.0908  1.2552  0.0538
  143OSM   H15G15787  -0.297   3.991   5.689  1.2545 -1.1718 -2.4432
  143OSM   C16F15788  -0.223   4.074   5.511 -0.3644 -0.1884  0.1975
  143OSM   H16F15789  -0.207   3.971   5.472 -2.2918 -1.1475  1.7251
  143OSM   H16G15790  -0.137   4.115   5.569 -1.2273  2.2445 -0.1262
  143OSM   C17F15791  -0.250   4.177   5.407 -0.2851 -0.2831  0.6753
  143OSM   H17F15792  -0.250   4.277   5.455 -1.3496 -0.4771  1.1220
  143OSM   H17G15793  -0.351   4.166   5.362 -0.9747 -1.6383  2.4160
  143OSM   C18F15794  -0.149   4.166   5.290  0.6164  0.4054 -0.5088
  143OSM   H18F15795  -0.149   4.061   5.256 -2.9523  0.3571 -0.7201
  143OSM   H18G15796  -0.048   4.192   5.330  0.3785  0.6134 -0.0365
  143OSM   H18H15797  -0.174   4.235   5.206 -0.7957  1.8718  1.0326
  144OSM      N15798   6.112   2.116   7.270 -0.1270 -0.0847  0.3197
  144OSM    C1515799   6.192   2.241   7.291  0.2766 -0.2237  0.3408
  144OSM   H15A15800   6.126   2.326   7.295 -1.4118 -1.2492 -2.5689
  144OSM   H15B15801   6.258   2.270   7.211 -0.6493  2.1275  0.3708
  144OSM   H15C15802   6.241   2.241   7.387 -2.1541  1.9939  1.7213
  144OSM    C1415803   6.006   2.098   7.369  0.5360 -0.4800  0.3542
  144OSM   H14A15804   5.944   2.012   7.350 -0.9419 -0.0722  2.7842
  144OSM   H14B15805   5.937   2.182   7.367 -0.7472 -1.5001  0.3183
  144OSM   H14C15806   6.045   2.082   7.469  2.2193 -0.2144 -0.2349
  144OSM    C1315807   6.060   2.123   7.131 -0.0441 -0.0102 -0.3786
  144OSM   H13A15808   6.001   2.036   7.108 -1.0694  0.8162 -1.0003
  144OSM   H13B15809   6.136   2.126   7.055  0.5654 -0.3577  0.2093
  144OSM   H13C15810   6.004   2.213   7.109 -0.1800 -0.3789 -1.6287
  144OSM    C1215811   6.217   2.003   7.282  0.0146 -0.7230  0.2434
  144OSM   H12A15812   6.251   2.007   7.384  1.5368 -2.3758 -0.1461
  144OSM   H12B15813   6.304   2.020   7.220 -1.5962  0.3728 -1.8714
  144OSM    C1115814   6.155   1.866   7.250  0.8782 -0.0194 -0.5967
  144OSM   H11A15815   6.049   1.871   7.283  1.1894  0.0886  0.4157
  144OSM   H11B15816   6.204   1.788   7.312  0.6196 -0.7898 -1.3375
  144OSM      P15817   6.294   1.772   7.049  0.3375 -0.0607  0.2939
  144OSM    O1315818   6.410   1.851   7.090  0.4402 -0.2034  0.3761
  144OSM    O1415819   6.299   1.628   7.062 -0.0429  0.0124 -0.5245
  144OSM    O1115820   6.256   1.810   6.899 -0.0784 -0.3157  0.0536
  144OSM    O1215821   6.163   1.833   7.112  0.0598  0.6831  0.1079
  144OSM    C1S15822   6.198   1.928   6.844 -0.0909  0.3516  0.1502
  144OSM    H1S15823   6.248   2.018   6.885 -0.8006  0.9268 -0.2079
  144OSM    H1T15824   6.088   1.934   6.857 -0.0732 -0.9217  1.0196
  144OSM     NF15825   6.160   2.073   6.642 -0.0250 -0.3793 -0.2661
  144OSM    HNF15826   6.072   2.074   6.595 -1.9729  1.8760  3.0306
  144OSM    C2S15827   6.206   1.947   6.688 -0.0444 -0.2010 -0.1122
  144OSM    H2S15828   6.310   1.933   6.654 -0.0240 -1.0458  0.2895
  144OSM    C3S15829   6.135   1.826   6.618 -0.4481  1.1666  0.2264
  144OSM    H3S15830   6.025   1.820   6.632 -0.2487 -0.3488  1.3358
  144OSM     O315831   6.178   1.703   6.676  0.3672 -0.6573  0.0014
  144OSM    HO315832   6.223   1.729   6.757  0.0283 -1.4239  0.4505
  144OSM    C4S15833   6.160   1.826   6.467  0.3892  0.0778 -0.2525
  144OSM    H4S15834   6.108   1.911   6.421 -1.0997 -0.4911  0.3209
  144OSM    C5S15835   6.219   1.735   6.385 -0.2280  0.2635 -0.0881
  144OSM    H5S15836   6.248   1.636   6.423  0.7498 -0.4302 -2.4399
  144OSM    C6S15837   6.230   1.740   6.235  1.1601 -0.0681 -0.6805
  144OSM    H6S15838   6.153   1.672   6.192 -0.1420  1.2141 -0.4638
  144OSM    H6T15839   6.326   1.694   6.205  1.4381  0.8622 -1.2665
  144OSM    C7S15840   6.210   1.874   6.177  0.0231 -0.2191  0.1286
  144OSM    H7S15841   6.293   1.932   6.222 -0.1053  0.5005 -0.5433
  144OSM    H7T15842   6.113   1.920   6.208 -0.4766 -2.2499  1.8712
  144OSM    C8S15843   6.218   1.883   6.020 -0.1998  0.5867 -0.6781
  144OSM    H8S15844   6.206   1.990   5.990 -2.5119  0.9837  1.3193
  144OSM    H8T15845   6.138   1.817   5.981 -1.5566  1.4497  0.5039
  144OSM    C9S15846   6.354   1.853   5.965 -0.0603 -0.2563 -0.6290
  144OSM    H9S15847   6.378   1.747   5.987 -3.0623 -0.8073  0.4084
  144OSM    H9T15848   6.428   1.916   6.019  0.0486  0.0227 -1.1012
  144OSM   C10S15849   6.363   1.851   5.813  0.2082 -0.2511  0.6733
  144OSM   H10S15850   6.305   1.940   5.782  1.9626  0.1328 -1.8145
  144OSM   H10T15851   6.307   1.761   5.780  2.7767 -1.4568 -0.7188
  144OSM   C11S15852   6.502   1.851   5.748  0.1195 -0.0464 -0.4097
  144OSM   H11S15853   6.564   1.770   5.791  2.0217  1.6760  0.2562
  144OSM   H11T15854   6.550   1.948   5.773 -2.8152  1.5760 -0.6413
  144OSM   C12S15855   6.490   1.837   5.594  0.4518  0.1054 -0.2758
  144OSM   H12S15856   6.424   1.919   5.558 -1.2509 -0.5496  1.1699
  144OSM   H12T15857   6.438   1.743   5.566  3.0655 -1.6281  0.4452
  144OSM   C13S15858   6.614   1.833   5.509  0.5293  0.5616  0.1981
  144OSM   H13S15859   6.689   1.753   5.531 -0.4764 -1.3347 -2.7590
  144OSM   H13T15860   6.656   1.936   5.516  1.2051  0.5183 -2.3989
  144OSM   C14S15861   6.589   1.793   5.363 -1.2794 -0.6505  0.1197
  144OSM   H14S15862   6.513   1.864   5.322 -0.2039  0.2042 -0.4301
  144OSM   H14T15863   6.555   1.689   5.347  1.1393 -1.2645 -1.4645
  144OSM   C15S15864   6.722   1.806   5.279 -0.2617 -0.2093 -0.1916
  144OSM   H15S15865   6.814   1.793   5.340 -0.4879  0.3161  0.2739
  144OSM   H15T15866   6.720   1.914   5.255 -0.9553 -0.0967  0.3497
  144OSM   C16S15867   6.714   1.747   5.144 -0.5478  0.2839  0.4277
  144OSM   H16S15868   6.625   1.790   5.093  0.4440  1.8256 -0.0587
  144OSM   H16T15869   6.698   1.637   5.145 -2.5930  0.5392  1.1212
  144OSM   C17S15870   6.842   1.771   5.064  0.2448  0.1460  0.1074
  144OSM   H17S15871   6.852   1.708   4.974  0.9599 -2.3123  1.8235
  144OSM   H17T15872   6.922   1.745   5.136 -0.4946 -0.3409  0.7701
  144OSM   C18S15873   6.850   1.913   5.011  0.2410  0.2213  0.1396
  144OSM   H18S15874   6.786   1.929   4.922 -2.1950 -2.6341  1.2104
  144OSM   H18T15875   6.954   1.925   4.972  1.1485  1.4352  2.6711
  144OSM   H18U15876   6.833   1.978   5.100  0.3367 -0.0457  0.3538
  144OSM    C1F15877   6.225   2.184   6.670 -0.0405 -0.5957 -0.2317
  144OSM     OF15878   6.343   2.183   6.715 -0.0698  0.8606  0.2606
  144OSM    C2F15879   6.141   2.311   6.675 -0.0171  0.5542 -0.5463
  144OSM    H2F15880   6.174   2.363   6.768  1.4903 -2.6149  0.8420
  144OSM    H2G15881   6.038   2.280   6.700  0.6133 -0.7047  0.6284
  144OSM    C3F15882   6.141   2.406   6.553  0.3412 -0.3107  0.5482
  144OSM    H3F15883   6.243   2.447   6.535 -0.0588  0.2600 -0.5073
  144OSM    H3G15884   6.092   2.503   6.579 -3.2402 -1.7458 -0.2600
  144OSM    C4F15885   6.068   2.351   6.419 -0.5305  0.3076 -0.3526
  144OSM    H4F15886   5.958   2.360   6.418 -0.5304  0.3118 -1.0395
  144OSM    H4G15887   6.105   2.247   6.408 -0.3900  0.3181 -0.0032
  144OSM    C5F15888   6.119   2.436   6.300  0.0309  0.1648  0.3925
  144OSM    H5F15889   6.228   2.446   6.320  0.0665 -1.1796  1.0288
  144OSM    H5G15890   6.068   2.534   6.287 -1.1379 -0.7454 -2.7320
  144OSM    C6F15891   6.105   2.354   6.172 -0.7148  0.6111  0.1387
  144OSM    H6F15892   5.999   2.323   6.165  0.2245 -3.6451  1.6215
  144OSM    H6G15893   6.158   2.256   6.176 -1.7779  0.0483  0.9492
  144OSM    C7F15894   6.154   2.434   6.054 -0.4100  0.6890 -0.1130
  144OSM    H7F15895   6.255   2.477   6.073 -0.2937  0.4549 -0.2066
  144OSM    H7G15896   6.076   2.513   6.044 -1.6773 -0.3884  0.8091
  144OSM    C8F15897   6.170   2.336   5.926  0.0697 -0.0124 -0.4603
  144OSM    H8F15898   6.173   2.396   5.833  0.9626  0.7514  0.0423
  144OSM    H8G15899   6.082   2.269   5.929 -0.5490  0.6917 -2.1041
  144OSM    C9F15900   6.300   2.259   5.941 -0.3004 -0.1556 -0.2258
  144OSM    H9F15901   6.321   2.248   6.048 -2.8912 -0.3007  0.3383
  144OSM   C10F15902   6.374   2.207   5.840 -1.3007  0.2211 -0.2327
  144OSM   H10F15903   6.463   2.153   5.876  0.5511  3.7431  1.0711
  144OSM   C11F15904   6.341   2.226   5.696  0.1221  1.0912 -0.2562
  144OSM   H11F15905   6.252   2.289   5.677 -1.7048 -0.0783  3.4588
  144OSM   H11G15906   6.320   2.122   5.663 -0.4491  1.0891  0.1015
  144OSM   C12F15907   6.471   2.281   5.619  0.6282 -0.4931 -0.2121
  144OSM   H12F15908   6.557   2.210   5.618  1.7741  0.8659 -1.2930
  144OSM   H12G15909   6.496   2.377   5.668 -2.5465  0.0584  0.5849
  144OSM   C13F15910   6.442   2.309   5.469  0.0739  0.4050  0.5656
  144OSM   H13F15911   6.409   2.415   5.463 -0.4121  0.2781  0.9162
  144OSM   H13G15912   6.360   2.243   5.435  1.7911 -0.1030 -2.9938
  144OSM   C14F15913   6.557   2.278   5.374  0.0969 -0.2786  0.0890
  144OSM   H14F15914   6.594   2.173   5.380 -0.2755 -0.3938  0.4805
  144OSM   H14G15915   6.630   2.361   5.381  0.1470 -0.4201  1.3724
  144OSM   C15F15916   6.502   2.268   5.226 -0.5841 -0.0822  0.0556
  144OSM   H15F15917   6.439   2.355   5.202 -1.0323  0.2370  2.1914
  144OSM   H15G15918   6.432   2.182   5.214 -0.4352 -0.4038  1.2983
  144OSM   C16F15919   6.606   2.259   5.120 -0.3315 -0.6625  0.2406
  144OSM   H16F15920   6.676   2.176   5.145  0.2829 -0.9301 -2.1207
  144OSM   H16G15921   6.663   2.352   5.098 -0.6014 -0.6571 -0.4813
  144OSM   C17F15922   6.547   2.226   4.977 -0.3428  0.2920 -0.4358
  144OSM   H17F15923   6.503   2.124   4.980  0.6864 -0.1768 -0.6862
  144OSM   H17G15924   6.629   2.217   4.902 -0.2698  0.0150 -0.3231
  144OSM   C18F15925   6.435   2.315   4.927  0.0669  0.1657 -0.1931
  144OSM   H18F15926   6.347   2.313   4.995  0.3298  0.5323  0.1578
  144OSM   H18G15927   6.407   2.286   4.823 -0.9834  2.2710 -0.5422
  144OSM   H18H15928   6.467   2.420   4.913  2.1131  0.0280  2.6617
  145OSM      N15929   2.732   4.884   7.551  0.6858  0.0115  0.2837
  145OSM    C1515930   2.747   4.824   7.686 -0.1227 -0.7409 -0.2086
  145OSM   H15A15931   2.653   4.788   7.724 -1.2935  0.8528 -1.4639
  145OSM   H15B15932   2.800   4.893   7.750  0.6509 -0.2448 -1.3528
  145OSM   H15C15933   2.795   4.728   7.676 -1.9577 -1.6215 -0.8924
  145OSM    C1415934   2.682   5.024   7.570 -0.0440 -0.2815  0.1923
  145OSM   H14A15935   2.605   5.031   7.645 -0.4845 -2.6006  0.0319
  145OSM   H14B15936   2.645   5.056   7.474  1.2858  0.2633 -0.1660
  145OSM   H14C15937   2.758   5.096   7.598 -1.5293  1.9990 -1.2848
  145OSM    C1315938   2.862   4.879   7.476  0.1972  0.0333 -0.2568
  145OSM   H13A15939   2.936   4.940   7.526 -1.9263  1.6494  1.1229
  145OSM   H13B15940   2.838   4.912   7.376 -1.8325 -0.2506  0.0942
  145OSM   H13C15941   2.905   4.780   7.478 -0.8200 -0.4317  2.3721
  145OSM    C1215942   2.626   4.802   7.469  0.2685  0.1869 -0.0967
  145OSM   H12A15943   2.526   4.807   7.511 -1.0697 -1.2579 -2.7661
  145OSM   H12B15944   2.652   4.697   7.471  2.5232  0.6957 -0.4303
  145OSM    C1115945   2.609   4.825   7.315 -0.1662  0.4309  0.0694
  145OSM   H11A15946   2.535   4.749   7.278 -0.1859  0.3625  0.2501
  145OSM   H11B15947   2.703   4.790   7.267 -1.8313 -2.8343 -1.1215
  145OSM      P15948   2.436   5.019   7.305  0.0022 -0.2290  0.4841
  145OSM    O1315949   2.388   4.985   7.444  0.5454 -0.2865  0.6685
  145OSM    O1415950   2.439   5.161   7.261  0.1918 -0.6152  0.3388
  145OSM    O1115951   2.349   4.936   7.194 -0.6538 -0.5159 -0.3229
  145OSM    O1215952   2.576   4.958   7.277 -0.5366  0.0268 -0.1856
  145OSM    C1S15953   2.391   4.938   7.062  0.0659  0.1990 -0.4751
  145OSM    H1S15954   2.486   4.881   7.059  0.5859  0.9358  1.1615
  145OSM    H1T15955   2.412   5.036   7.014 -0.1148  1.2523  1.5283
  145OSM     NF15956   2.349   4.837   6.838 -0.2054 -0.0479  0.2136
  145OSM    HNF15957   2.301   4.881   6.762 -2.3998  0.0455  1.5622
  145OSM    C2S15958   2.289   4.861   6.967 -0.4899 -0.2722  0.4044
  145OSM    H2S15959   2.288   4.759   7.011  3.3753 -1.3576 -1.5900
  145OSM    C3S15960   2.144   4.912   6.987 -0.0483 -0.2098  0.6602
  145OSM    H3S15961   2.144   5.017   6.950 -0.2743 -1.4604 -3.3622
  145OSM     O315962   2.110   4.939   7.128 -0.2464 -0.2648 -0.4005
  145OSM    HO315963   2.195   4.947   7.171 -0.8396  1.7325  0.5058
  145OSM    C4S15964   2.043   4.825   6.917  0.7750  0.0481  0.8312
  145OSM    H4S15965   2.022   4.866   6.817  4.0099 -1.1570 -0.4779
  145OSM    C5S15966   1.973   4.722   6.967  0.2308 -0.5249 -0.6098
  145OSM    H5S15967   1.993   4.690   7.070 -3.1115  0.0367  0.3547
  145OSM    C6S15968   1.863   4.657   6.881  0.4763  0.1581  0.0870
  145OSM    H6S15969   1.759   4.690   6.904 -0.0943 -0.6768 -1.1625
  145OSM    H6T15970   1.868   4.548   6.898  1.3489 -0.1498 -1.8422
  145OSM    C7S15971   1.880   4.666   6.728  0.3893  0.3552  0.4836
  145OSM    H7S15972   1.979   4.623   6.705  0.0887 -0.2436  0.2800
  145OSM    H7T15973   1.882   4.768   6.685  0.5969 -0.1430 -0.7181
  145OSM    C8S15974   1.775   4.578   6.637 -0.5525 -0.9516  0.0754
  145OSM    H8S15975   1.680   4.614   6.681  1.1238  1.1927  2.2506
  145OSM    H8T15976   1.785   4.468   6.655 -1.8954 -0.6943  2.8576
  145OSM    C9S15977   1.799   4.616   6.487  0.2232 -0.4066  0.3472
  145OSM    H9S15978   1.899   4.570   6.471 -0.0780 -1.0663  0.3307
  145OSM    H9T15979   1.805   4.727   6.481  0.6301 -0.2019  3.0502
  145OSM   C10S15980   1.691   4.558   6.400 -0.2588 -0.1250 -0.5018
  145OSM   H10S15981   1.599   4.620   6.413 -0.2897  0.3442 -2.5571
  145OSM   H10T15982   1.658   4.457   6.433 -1.3801  0.7599  1.2301
  145OSM   C11S15983   1.736   4.557   6.252  0.0410 -0.1648  0.3014
  145OSM   H11S15984   1.823   4.488   6.242  0.6151  0.6747 -0.7339
  145OSM   H11T15985   1.775   4.657   6.222 -0.2120 -0.6010 -1.5762
  145OSM   C12S15986   1.626   4.511   6.156  0.6021 -0.6442  0.4998
  145OSM   H12S15987   1.548   4.590   6.167  1.1749  0.2713 -1.6270
  145OSM   H12T15988   1.577   4.420   6.198 -2.5267  0.7068  0.0784
  145OSM   C13S15989   1.664   4.500   6.007 -0.1119 -0.2339 -0.2613
  145OSM   H13S15990   1.729   4.413   5.982  0.7921  0.1020  0.8275
  145OSM   H13T15991   1.728   4.581   5.965  0.1432 -1.3955 -2.2317
  145OSM   C14S15992   1.553   4.482   5.911 -0.2615 -0.3451  0.3085
  145OSM   H14S15993   1.497   4.577   5.928 -0.5451 -0.8105  2.3035
  145OSM   H14T15994   1.486   4.398   5.940 -0.8762 -0.2201 -0.6882
  145OSM   C15S15995   1.586   4.476   5.764  0.0127  0.1525 -0.4828
  145OSM   H15S15996   1.609   4.368   5.748  0.4017 -0.0800  1.4184
  145OSM   H15T15997   1.673   4.541   5.739  0.7466  0.1163  1.8075
  145OSM   C16S15998   1.465   4.510   5.669 -1.5022  0.6330  1.1236
  145OSM   H16S15999   1.447   4.618   5.686  0.5093  2.2525 -4.7749
  145OSM   H16T16000   1.374   4.448   5.685  0.6784 -3.3890 -0.5117
  145OSM   C17S16001   1.504   4.512   5.515  0.5106 -0.8646 -0.0568
  145OSM   H17S16002   1.413   4.546   5.461  2.1635 -0.9563 -3.0887
  145OSM   H17T16003   1.528   4.409   5.482 -0.0687 -1.7517  2.0896
  145OSM   C18S16004   1.617   4.607   5.480 -0.2649 -0.8867  0.2834
  145OSM   H18S16005   1.603   4.712   5.514  1.5905 -0.8941  1.1998
  145OSM   H18T16006   1.627   4.632   5.372  1.7617  0.5652  0.7613
  145OSM   H18U16007   1.715   4.579   5.524  0.1832  1.3979  0.8758
  145OSM    C1F16008   2.465   4.766   6.829 -0.4795  0.6105 -0.0377
  145OSM     OF16009   2.500   4.677   6.913 -0.2838 -0.7294  0.5127
  145OSM    C2F16010   2.530   4.781   6.697  0.2736 -0.9804 -0.3561
  145OSM    H2F16011   2.632   4.819   6.717 -0.7212  0.5794  2.2831
  145OSM    H2G16012   2.480   4.852   6.628  0.6400  0.2988  0.6382
  145OSM    C3F16013   2.546   4.640   6.626 -0.4840 -0.5382 -0.7715
  145OSM    H3F16014   2.453   4.580   6.637 -1.3937  0.8687 -0.6222
  145OSM    H3G16015   2.626   4.581   6.676  0.1804  1.8996  1.2719
  145OSM    C4F16016   2.568   4.651   6.474  0.0266 -0.5856  0.5757
  145OSM    H4F16017   2.641   4.733   6.454  0.1787 -0.2485  2.3689
  145OSM    H4G16018   2.466   4.680   6.440  1.1459  1.9054 -1.0057
  145OSM    C5F16019   2.619   4.527   6.407 -0.2627  0.5925 -0.0936
  145OSM    H5F16020   2.557   4.439   6.433 -0.0835  0.7218  0.7863
  145OSM    H5G16021   2.721   4.516   6.449 -1.1655  0.4819  2.1888
  145OSM    C6F16022   2.633   4.527   6.248 -0.8933 -0.1978 -0.3414
  145OSM    H6F16023   2.695   4.439   6.221 -1.3358 -0.9610  1.0695
  145OSM    H6G16024   2.694   4.612   6.211  1.0045 -0.5446  1.7936
  145OSM    C7F16025   2.498   4.517   6.183  0.0700  0.3147  0.6866
  145OSM    H7F16026   2.429   4.600   6.211  0.3468  1.6950 -2.3714
  145OSM    H7G16027   2.445   4.427   6.221 -0.9495  0.2829 -0.7242
  145OSM    C8F16028   2.505   4.521   6.028 -0.5394 -0.1926 -0.9087
  145OSM    H8F16029   2.569   4.436   5.997 -0.7764 -0.5307 -0.4787
  145OSM    H8G16030   2.570   4.610   6.007 -1.1569  0.3066 -0.7394
  145OSM    C9F16031   2.368   4.543   5.971  0.2507 -0.6780  0.2337
  145OSM    H9F16032   2.284   4.528   6.041  0.5001  1.3191  1.0491
  145OSM   C10F16033   2.349   4.570   5.840  0.9053  0.4256 -0.1540
  145OSM   H10F16034   2.243   4.586   5.813  1.4407  0.4217 -2.4202
  145OSM   C11F16035   2.450   4.583   5.725  0.3770  0.2770 -0.2743
  145OSM   H11F16036   2.528   4.504   5.728 -1.0290 -1.2075 -1.0708
  145OSM   H11G16037   2.496   4.680   5.754  0.5778 -0.3517  1.6342
  145OSM   C12F16038   2.390   4.576   5.585  0.4676 -0.4262  0.1432
  145OSM   H12F16039   2.310   4.651   5.563  0.3829 -0.8753 -1.1420
  145OSM   H12G16040   2.337   4.480   5.574 -0.3328  0.1530 -1.3828
  145OSM   C13F16041   2.491   4.591   5.472  0.2370 -0.3657 -0.0443
  145OSM   H13F16042   2.429   4.581   5.380  0.8989 -0.1442 -0.5223
  145OSM   H13G16043   2.558   4.503   5.475  1.3357  0.3609 -1.8051
  145OSM   C14F16044   2.563   4.725   5.464 -0.4074  0.1512  0.9220
  145OSM   H14F16045   2.624   4.740   5.556  0.1445  0.6771  0.4805
  145OSM   H14G16046   2.480   4.799   5.473 -1.0251 -0.6934  2.4543
  145OSM   C15F16047   2.659   4.761   5.358  0.6614 -0.6284  0.3994
  145OSM   H15F16048   2.612   4.745   5.258  1.6341  0.5362 -0.2712
  145OSM   H15G16049   2.743   4.689   5.364  0.5789 -0.9718 -1.5770
  145OSM   C16F16050   2.709   4.912   5.366  0.4097  0.4067  0.1332
  145OSM   H16F16051   2.627   4.980   5.332  1.2299  1.5155  0.3097
  145OSM   H16G16052   2.778   4.923   5.279 -0.5954  0.0725 -0.7277
  145OSM   C17F16053   2.771   4.970   5.492  0.1843 -0.0790 -0.4117
  145OSM   H17F16054   2.696   4.963   5.573 -0.2744  0.0238 -0.8240
  145OSM   H17G16055   2.786   5.074   5.458  1.6406 -0.7111 -1.8863
  145OSM   C18F16056   2.898   4.894   5.534 -0.4325 -0.2556 -0.3133
  145OSM   H18F16057   2.957   4.955   5.606 -1.7102  0.0817  0.4754
  145OSM   H18G16058   2.958   4.885   5.441  0.4387  4.1525 -0.3813
  145OSM   H18H16059   2.873   4.800   5.588 -0.6622  0.5234  0.9910
  146OSM      N16060   0.610   5.339   7.229  0.3159 -0.7476 -0.2772
  146OSM    C1516061   0.483   5.300   7.157  0.7599 -0.1581  0.0303
  146OSM   H15A16062   0.469   5.194   7.145 -3.0583 -0.1097  2.3659
  146OSM   H15B16063   0.474   5.344   7.058 -2.0114 -1.0001 -0.1879
  146OSM   H15C16064   0.395   5.332   7.211  0.4176  1.2111 -1.2593
  146OSM    C1416065   0.641   5.243   7.343 -0.0466 -0.6258  0.5619
  146OSM   H14A16066   0.556   5.244   7.410 -0.3140 -1.3872  0.2433
  146OSM   H14B16067   0.732   5.278   7.391  0.0688  2.1267 -1.4512
  146OSM   H14C16068   0.658   5.146   7.299  3.1756  0.4338 -0.8207
  146OSM    C1316069   0.715   5.323   7.125  0.4523 -0.2430 -0.1814
  146OSM   H13A16070   0.811   5.363   7.155 -0.1728  2.4828 -1.5118
  146OSM   H13B16071   0.685   5.378   7.037  2.0499  1.6750  0.4050
  146OSM   H13C16072   0.731   5.217   7.105  2.1632  0.0078 -0.3265
  146OSM    C1216073   0.592   5.477   7.284 -0.6771 -0.0337 -0.5053
  146OSM   H12A16074   0.517   5.469   7.361  1.8211 -3.3033  1.9227
  146OSM   H12B16075   0.563   5.548   7.209  0.1262  1.4540  0.5503
  146OSM    C1116076   0.720   5.523   7.356  0.1137 -0.3616  0.0008
  146OSM   H11A16077   0.742   5.457   7.442  0.4864 -0.5393 -0.2281
  146OSM   H11B16078   0.701   5.627   7.391  2.1240  0.7050 -1.8067
  146OSM      P16079   0.884   5.666   7.207 -0.1749  0.2062  0.3201
  146OSM    O1316080   0.769   5.754   7.182  0.3825  0.0452 -0.1458
  146OSM    O1416081   1.000   5.715   7.283 -0.0866  0.1129 -0.4149
  146OSM    O1116082   0.936   5.622   7.065 -0.0766 -0.1203  0.5464
  146OSM    O1216083   0.843   5.529   7.278 -0.0808 -0.8572 -0.1458
  146OSM    C1S16084   1.027   5.505   7.055  0.5618  0.1994  1.1185
  146OSM    H1S16085   1.024   5.429   7.136  1.3354 -1.1100 -0.0288
  146OSM    H1T16086   1.131   5.543   7.063  0.9229 -0.8363  1.5494
  146OSM     NF16087   1.104   5.317   6.903 -0.1937 -0.2854 -0.1713
  146OSM    HNF16088   1.181   5.339   6.844 -0.5330  0.8802 -0.2117
  146OSM    C2S16089   1.009   5.429   6.914 -0.7202  0.5143 -0.5815
  146OSM    H2S16090   0.909   5.382   6.912  0.4895 -2.2205 -2.3767
  146OSM    C3S16091   1.015   5.528   6.792  0.0168  0.6718 -0.7580
  146OSM    H3S16092   1.120   5.562   6.779  0.1256 -0.1225 -2.1871
  146OSM     O316093   0.929   5.639   6.810 -0.4184 -0.2855 -0.3714
  146OSM    HO316094   0.908   5.631   6.903  1.0032 -1.6072 -0.1251
  146OSM    C4S16095   0.977   5.448   6.662 -0.2031 -0.6975 -0.6010
  146OSM    H4S16096   1.064   5.407   6.609  2.0559  0.9509  1.5443
  146OSM    C5S16097   0.859   5.447   6.599 -0.0133 -0.1414 -1.1027
  146OSM    H5S16098   0.780   5.510   6.643  0.2361  0.5637 -1.6530
  146OSM    C6S16099   0.830   5.396   6.457 -0.7050 -0.1627 -0.1047
  146OSM    H6S16100   0.828   5.481   6.387  0.7118  0.9572  1.1452
  146OSM    H6T16101   0.735   5.341   6.442  0.0798 -1.5822 -0.0742
  146OSM    C7S16102   0.941   5.303   6.393 -0.0681 -0.4028 -0.4148
  146OSM    H7S16103   0.962   5.216   6.460  1.4464 -0.6689 -1.1924
  146OSM    H7T16104   1.040   5.350   6.379  1.1940 -1.9032  2.5036
  146OSM    C8S16105   0.893   5.232   6.264 -0.1219 -0.1758  0.3184
  146OSM    H8S16106   0.869   5.317   6.196 -0.9832  1.4739  2.5501
  146OSM    H8T16107   0.804   5.171   6.289  1.4688 -2.9076 -0.3114
  146OSM    C9S16108   1.007   5.150   6.210 -0.7625  0.0022 -0.4030
  146OSM    H9S16109   1.059   5.101   6.294  0.6282  0.7201 -0.8179
  146OSM    H9T16110   1.088   5.214   6.170  0.2117  0.1286  1.6821
  146OSM   C10S16111   0.961   5.056   6.100 -0.3462  0.5080 -0.4557
  146OSM   H10S16112   0.857   5.016   6.103  0.5919 -2.5132 -3.0446
  146OSM   H10T16113   1.017   4.961   6.092 -0.0892 -0.0987  4.7703
  146OSM   C11S16114   0.975   5.126   5.963  0.5330  0.6675 -0.3068
  146OSM   H11S16115   1.073   5.168   5.934 -0.1054  1.3176 -1.5966
  146OSM   H11T16116   0.909   5.213   5.981  0.4092  0.1540  2.0799
  146OSM   C12S16117   0.925   5.042   5.846  0.3721 -0.5100  0.4101
  146OSM   H12S16118   0.824   5.008   5.877  0.6259 -1.4657  0.2220
  146OSM   H12T16119   0.995   4.955   5.845 -1.2125 -1.8107 -0.9587
  146OSM   C13S16120   0.940   5.110   5.711 -0.0645  0.3130 -0.2259
  146OSM   H13S16121   1.045   5.146   5.710  0.2379 -0.4423  1.2976
  146OSM   H13T16122   0.872   5.198   5.698 -0.8389  0.0090  1.4565
  146OSM   C14S16123   0.944   5.019   5.593 -0.1366 -0.5733  0.3543
  146OSM   H14S16124   0.847   4.968   5.574 -0.7773  0.5703  0.4718
  146OSM   H14T16125   1.021   4.939   5.581  1.5722  1.0309  0.1368
  146OSM   C15S16126   0.959   5.099   5.461 -0.4953 -0.8328 -0.5079
  146OSM   H15S16127   1.054   5.153   5.446  0.0509 -2.0712 -1.7003
  146OSM   H15T16128   0.880   5.177   5.456  0.6021  0.3376 -0.1353
  146OSM   C16S16129   0.953   5.016   5.335  0.5893  0.8632  0.2072
  146OSM   H16S16130   0.857   4.966   5.312 -0.1008  2.6496 -1.0044
  146OSM   H16T16131   1.022   4.929   5.342 -0.7354 -0.3540 -1.2126
  146OSM   C17S16132   0.999   5.094   5.213 -0.1262 -0.0293 -0.2467
  146OSM   H17S16133   1.109   5.108   5.222 -0.2483 -0.1425  1.7953
  146OSM   H17T16134   0.946   5.191   5.215 -0.0148  0.0354  1.7556
  146OSM   C18S16135   0.968   5.026   5.083 -0.3296  1.0642 -0.3575
  146OSM   H18S16136   1.013   5.081   4.997 -0.4661 -0.2079 -1.2620
  146OSM   H18T16137   0.860   5.007   5.068 -0.4084 -1.2374  2.2865
  146OSM   H18U16138   1.007   4.922   5.087 -0.7403  0.9429  0.9088
  146OSM    C1F16139   1.097   5.215   6.987  0.5655  0.2647  0.6500
  146OSM     OF16140   1.003   5.206   7.065  0.4505 -0.6444  0.2705
  146OSM    C2F16141   1.206   5.114   6.986 -0.6107  0.3010 -0.2727
  146OSM    H2F16142   1.204   5.052   7.079 -1.3125 -0.0088 -0.4853
  146OSM    H2G16143   1.306   5.160   6.976 -0.5807  0.0970 -0.9331
  146OSM    C3F16144   1.203   5.012   6.868 -0.0807  0.2741 -0.4469
  146OSM    H3F16145   1.105   4.960   6.877 -0.4510  0.7182 -1.7022
  146OSM    H3G16146   1.281   4.935   6.886 -0.3605  0.0198 -0.3108
  146OSM    C4F16147   1.210   5.084   6.731 -1.1901  0.2616 -1.3182
  146OSM    H4F16148   1.309   5.134   6.728  0.3620 -2.6183 -2.3789
  146OSM    H4G16149   1.129   5.160   6.723 -2.6766 -0.9700  0.9724
  146OSM    C5F16150   1.195   4.990   6.613 -0.6655 -0.0500  0.7141
  146OSM    H5F16151   1.086   4.973   6.597 -0.6864  1.3339 -0.8373
  146OSM    H5G16152   1.243   4.894   6.641  0.2974 -0.4385 -1.9887
  146OSM    C6F16153   1.270   5.034   6.485  0.3190  0.2310  0.1499
  146OSM    H6F16154   1.241   5.138   6.460 -1.0175 -0.5241 -1.7330
  146OSM    H6G16155   1.242   4.968   6.400 -2.1182  0.9493  0.3161
  146OSM    C7F16156   1.415   5.023   6.501 -0.8573 -0.0008  0.2805
  146OSM    H7F16157   1.437   4.934   6.564 -1.2980  0.0006  0.4366
  146OSM    H7G16158   1.461   5.100   6.566  0.5699  0.1922 -0.8963
  146OSM    C8F16159   1.498   5.021   6.363 -0.5281 -0.0684 -0.2985
  146OSM    H8F16160   1.604   5.033   6.393 -0.5427  0.1351 -0.3322
  146OSM    H8G16161   1.479   5.118   6.313 -2.0603  0.8578  1.9163
  146OSM    C9F16162   1.475   4.901   6.277  0.2434 -0.6398 -0.8477
  146OSM    H9F16163   1.533   4.812   6.307  1.1028 -0.1492 -1.0238
  146OSM   C10F16164   1.401   4.902   6.166  0.5391  0.0543 -0.2217
  146OSM   H10F16165   1.404   4.810   6.106  1.2858 -1.1521  1.6110
  146OSM   C11F16166   1.312   5.018   6.115 -0.2283  0.2032 -0.0237
  146OSM   H11F16167   1.305   5.099   6.190  0.8193  0.0611  0.2383
  146OSM   H11G16168   1.208   4.981   6.105 -1.2069  2.2661  1.6435
  146OSM   C12F16169   1.356   5.079   5.980  0.2448 -0.2635 -1.0363
  146OSM   H12F16170   1.452   5.134   5.980 -0.1028  0.3543 -0.5588
  146OSM   H12G16171   1.276   5.152   5.955  0.0734 -0.2472 -0.4425
  146OSM   C13F16172   1.375   4.975   5.863  0.3495  0.1883  0.4785
  146OSM   H13F16173   1.316   4.882   5.874  0.5037 -0.1906 -1.5431
  146OSM   H13G16174   1.480   4.942   5.876 -0.0995 -0.4813  2.7999
  146OSM   C14F16175   1.336   5.042   5.726 -0.0454  0.1446 -0.0223
  146OSM   H14F16176   1.226   5.050   5.715 -0.3147  4.3363  3.1843
  146OSM   H14G16177   1.377   5.144   5.717  1.6382 -0.3727  1.0595
  146OSM   C15F16178   1.406   4.964   5.618  0.0169 -0.0345 -0.2497
  146OSM   H15F16179   1.377   4.858   5.634  1.4754 -0.3645  0.3733
  146OSM   H15G16180   1.515   4.985   5.629  0.2640 -0.6199 -1.3855
  146OSM   C16F16181   1.364   5.022   5.485  0.4445 -0.1487 -0.0362
  146OSM   H16F16182   1.366   5.133   5.494 -2.4733 -0.0465  0.3525
  146OSM   H16G16183   1.261   4.989   5.458  0.0374  2.0333 -1.3911
  146OSM   C17F16184   1.457   4.974   5.372 -0.0112  0.9138 -0.4257
  146OSM   H17F16185   1.457   4.864   5.388  2.1136  1.0221  0.6550
  146OSM   H17G16186   1.560   5.015   5.380 -0.0183  0.9519 -0.5276
  146OSM   C18F16187   1.402   5.015   5.226 -0.3772  0.6687 -0.3569
  146OSM   H18F16188   1.452   4.956   5.146 -0.9024 -0.0714 -0.1508
  146OSM   H18G16189   1.402   5.123   5.203 -0.9440  0.6230 -0.5947
  146OSM   H18H16190   1.296   4.980   5.222  0.8299 -3.4308 -0.8064
  147OSM      N16191   1.474   5.212   2.478 -0.4679  1.0309  0.2170
  147OSM    C1516192   1.442   5.273   2.610 -0.9014  0.2699 -0.3367
  147OSM   H15A16193   1.535   5.285   2.664 -1.9791  1.3888  1.3880
  147OSM   H15B16194   1.374   5.215   2.670 -2.5410  1.3793 -1.0474
  147OSM   H15C16195   1.394   5.370   2.607 -0.7939  0.3270 -0.2370
  147OSM    C1416196   1.565   5.096   2.475 -0.4090  0.2362  0.3310
  147OSM   H14A16197   1.580   5.058   2.375  1.0107  1.5580  0.0075
  147OSM   H14B16198   1.530   5.014   2.537  1.3922 -0.1187  0.9407
  147OSM   H14C16199   1.663   5.119   2.513 -0.2592  2.1082 -1.0659
  147OSM    C1316200   1.341   5.159   2.423  0.0704 -0.3720  0.0838
  147OSM   H13A16201   1.263   5.234   2.423 -0.8148 -1.2645  0.5033
  147OSM   H13B16202   1.306   5.080   2.487  2.7665 -3.6727 -2.1865
  147OSM   H13C16203   1.342   5.111   2.327  2.6234  0.7500 -0.5416
  147OSM    C1216204   1.520   5.321   2.385 -0.1577 -0.6056  0.0698
  147OSM   H12A16205   1.437   5.390   2.375  2.3268  2.3506 -1.9683
  147OSM   H12B16206   1.536   5.292   2.282  2.1077 -0.8831  0.4514
  147OSM    C1116207   1.635   5.419   2.430 -0.2572  0.1557 -0.1510
  147OSM   H11A16208   1.689   5.452   2.339  2.1811 -2.4294  0.2015
  147OSM   H11B16209   1.700   5.354   2.493 -1.1083 -1.3412 -0.7644
  147OSM      P16210   1.681   5.613   2.589  0.0236 -0.1600  0.1723
  147OSM    O1316211   1.784   5.676   2.502  0.4259  1.0422 -0.4067
  147OSM    O1416212   1.604   5.697   2.685  1.5258 -0.6109  0.1243
  147OSM    O1116213   1.768   5.506   2.672 -0.0130 -0.0412 -0.3592
  147OSM    O1216214   1.578   5.528   2.507  0.4556 -0.1604 -0.2733
  147OSM    C1S16215   1.847   5.541   2.787  0.3730 -0.5984 -1.0704
  147OSM    H1S16216   1.883   5.646   2.779 -0.7277 -0.0015  0.9885
  147OSM    H1T16217   1.936   5.477   2.770  0.8519  0.3859 -2.5733
  147OSM     NF16218   1.832   5.569   3.033 -0.6987 -0.3256 -0.0349
  147OSM    HNF16219   1.895   5.510   3.083  2.1706  2.0998 -0.5031
  147OSM    C2S16220   1.766   5.512   2.918  0.4872  0.2050 -0.6566
  147OSM    H2S16221   1.665   5.558   2.923  0.3737  0.0055 -1.0751
  147OSM    C3S16222   1.745   5.363   2.926  0.4830 -0.2583 -0.1708
  147OSM    H3S16223   1.841   5.307   2.933  0.5582 -0.1825 -0.5701
  147OSM     O316224   1.693   5.301   2.805 -0.2674  0.2910 -0.4126
  147OSM    HO316225   1.722   5.362   2.736  2.2344  0.8336  0.9645
  147OSM    C4S16226   1.659   5.328   3.053  0.7446  0.6399 -0.2785
  147OSM    H4S16227   1.716   5.324   3.147  1.6982  1.6995 -0.7942
  147OSM    C5S16228   1.527   5.284   3.052  0.3792  0.4575  0.1309
  147OSM    H5S16229   1.469   5.281   2.959  2.8863  0.2956 -1.5172
  147OSM    C6S16230   1.455   5.241   3.179  0.0284  0.1558  0.1292
  147OSM    H6S16231   1.398   5.147   3.163  0.8981 -0.4019  0.2202
  147OSM    H6T16232   1.384   5.322   3.209  0.5312  1.2281 -1.4193
  147OSM    C7S16233   1.544   5.208   3.292 -0.2159 -0.7793 -0.0698
  147OSM    H7S16234   1.608   5.292   3.326  0.2978 -1.4149  0.5608
  147OSM    H7T16235   1.615   5.131   3.254 -0.8290 -1.7119  0.6513
  147OSM    C8S16236   1.465   5.167   3.415  0.0676 -0.0493 -0.1096
  147OSM    H8S16237   1.381   5.101   3.382 -1.1238  1.8724 -1.0954
  147OSM    H8T16238   1.412   5.257   3.453  0.4975 -0.4066  1.3931
  147OSM    C9S16239   1.562   5.114   3.523  0.2027  0.0939  0.3093
  147OSM    H9S16240   1.634   5.192   3.553  0.8269 -0.4087  0.1367
  147OSM    H9T16241   1.614   5.026   3.479  2.9109  1.2017  1.1013
  147OSM   C10S16242   1.495   5.085   3.652  0.2781 -0.4256 -0.2814
  147OSM   H10S16243   1.415   5.013   3.626  0.8280 -0.5378 -1.7356
  147OSM   H10T16244   1.450   5.181   3.688 -0.9237 -0.4999 -1.5291
  147OSM   C11S16245   1.584   5.035   3.768 -0.1715  0.0370  0.3816
  147OSM   H11S16246   1.667   5.108   3.763  0.2835 -0.5414 -3.1786
  147OSM   H11T16247   1.623   4.934   3.741 -1.5364 -0.6930  1.0155
  147OSM   C12S16248   1.509   5.047   3.902  0.1106  0.5394  0.2267
  147OSM   H12S16249   1.410   4.996   3.890 -1.5635  3.9193 -1.8250
  147OSM   H12T16250   1.496   5.154   3.927  4.3375  1.5218 -0.9720
  147OSM   C13S16251   1.581   4.987   4.027  0.3562  0.7931  0.3307
  147OSM   H13S16252   1.586   4.877   4.015 -2.3973  0.8260 -2.4465
  147OSM   H13T16253   1.520   5.016   4.115  1.0339 -1.0523  1.4670
  147OSM   C14S16254   1.722   5.042   4.051  0.0569  0.1232 -0.6653
  147OSM   H14S16255   1.710   5.152   4.038  0.2738 -0.0141 -2.2870
  147OSM   H14T16256   1.789   5.009   3.968 -1.3823 -2.5397 -0.8657
  147OSM   C15S16257   1.774   5.009   4.186  0.3234 -0.1004 -0.1322
  147OSM   H15S16258   1.703   5.012   4.271  1.8592  1.8888  1.1582
  147OSM   H15T16259   1.859   5.074   4.214 -0.7690  1.0042  0.7158
  147OSM   C16S16260   1.828   4.864   4.197  0.1483  0.2581 -0.5943
  147OSM   H16S16261   1.905   4.849   4.119  1.9290 -0.1435  1.1664
  147OSM   H16T16262   1.752   4.783   4.183  0.8955 -0.1955 -2.3308
  147OSM   C17S16263   1.894   4.845   4.338 -0.7228 -0.6459  0.0709
  147OSM   H17S16264   1.973   4.919   4.363 -0.7808 -0.4381 -0.3556
  147OSM   H17T16265   1.944   4.745   4.342 -0.5708 -0.6771 -1.7741
  147OSM   C18S16266   1.798   4.854   4.459 -0.1915  0.0326 -0.3437
  147OSM   H18S16267   1.778   4.962   4.477  0.2121  0.0028  0.3182
  147OSM   H18T16268   1.844   4.826   4.556 -0.6273  2.0364  0.4899
  147OSM   H18U16269   1.702   4.804   4.433 -1.4768  2.2661 -0.1365
  147OSM    C1F16270   1.846   5.700   3.059  0.1028  0.2329  0.2292
  147OSM     OF16271   1.801   5.782   2.980 -0.7679 -0.0706  0.1969
  147OSM    C2F16272   1.922   5.728   3.181  0.1248 -0.0887  0.5640
  147OSM    H2F16273   2.025   5.691   3.166 -0.4498 -1.2909 -0.5971
  147OSM    H2G16274   1.879   5.668   3.264 -1.2204 -0.6246 -0.4762
  147OSM    C3F16275   1.917   5.878   3.217  0.4878 -1.3303  0.5965
  147OSM    H3F16276   1.818   5.902   3.261 -0.3492 -2.4883 -0.5932
  147OSM    H3G16277   1.936   5.937   3.125 -3.0225 -1.9872 -0.6839
  147OSM    C4F16278   2.027   5.908   3.321  0.2260 -0.6132  0.1728
  147OSM    H4F16279   2.122   5.891   3.267  0.0560  1.9166 -1.0909
  147OSM    H4G16280   2.011   5.828   3.396  1.8134 -1.1739 -0.0678
  147OSM    C5F16281   2.022   6.048   3.378  0.3097 -0.2996 -0.1670
  147OSM    H5F16282   1.924   6.065   3.430  1.6663  0.7812  2.2137
  147OSM    H5G16283   2.018   6.111   3.287 -0.8004 -1.3295 -0.8703
  147OSM    C6F16284   2.117   6.074   3.498 -0.5875  0.4893  0.1414
  147OSM    H6F16285   2.127   6.180   3.527  1.1474 -0.0612  1.8273
  147OSM    H6G16286   2.215   6.024   3.478 -0.3318  1.0356  0.0145
  147OSM    C7F16287   2.052   6.004   3.625  0.1283 -0.1677 -0.4877
  147OSM    H7F16288   2.027   5.899   3.599 -1.1253  0.5272 -2.2156
  147OSM    H7G16289   1.962   6.065   3.647  0.2419 -0.2007  0.0818
  147OSM    C8F16290   2.147   5.999   3.745 -0.0912 -0.7053  0.1741
  147OSM    H8F16291   2.216   6.084   3.729 -1.4312  0.4746  0.4506
  147OSM    H8G16292   2.210   5.909   3.727  0.4855 -0.5953  1.4976
  147OSM    C9F16293   2.081   6.011   3.882  0.5965 -0.2208  0.2511
  147OSM    H9F16294   2.000   5.941   3.908 -1.0300  1.7431  0.7264
  147OSM   C10F16295   2.103   6.108   3.972  0.3952  0.4173 -0.5630
  147OSM   H10F16296   2.034   6.120   4.057  3.0381  0.9273  1.6443
  147OSM   C11F16297   2.219   6.207   3.946  0.4166  0.2827  0.4275
  147OSM   H11F16298   2.194   6.261   3.852  0.6273  3.3308  1.9939
  147OSM   H11G16299   2.317   6.157   3.933 -0.3832 -1.3354  0.3694
  147OSM   C12F16300   2.238   6.313   4.050  0.3598  0.5820 -0.4106
  147OSM   H12F16301   2.149   6.376   4.071  1.0114  1.2525  0.4134
  147OSM   H12G16302   2.321   6.381   4.021 -0.5872  2.1865  0.4458
  147OSM   C13F16303   2.279   6.270   4.196 -0.5906  0.1363 -0.2917
  147OSM   H13F16304   2.386   6.237   4.198 -1.0661 -1.4327  0.6244
  147OSM   H13G16305   2.213   6.190   4.234  1.8496 -1.4379  0.9169
  147OSM   C14F16306   2.283   6.386   4.296 -0.5927  0.0493 -0.6840
  147OSM   H14F16307   2.343   6.468   4.251  1.2046 -1.4066 -1.0793
  147OSM   H14G16308   2.352   6.356   4.378 -0.9497  1.1054  0.0225
  147OSM   C15F16309   2.145   6.435   4.350  0.0735 -0.6379 -0.5410
  147OSM   H15F16310   2.083   6.344   4.366 -1.4541  0.5851  1.0314
  147OSM   H15G16311   2.095   6.490   4.267  0.3592 -1.9114 -1.5976
  147OSM   C16F16312   2.146   6.513   4.482 -0.4503  0.3769  0.6714
  147OSM   H16F16313   2.212   6.602   4.473 -0.0993  0.0187 -0.6347
  147OSM   H16G16314   2.183   6.453   4.567  0.2589 -0.6121 -0.3089
  147OSM   C17F16315   2.007   6.550   4.515  0.8416  0.0637  0.5613
  147OSM   H17F16316   1.952   6.455   4.534  0.7959  0.2418  1.3747
  147OSM   H17G16317   1.959   6.596   4.426  0.4459  0.4037  0.9430
  147OSM   C18F16318   1.988   6.646   4.636  0.4635 -0.6205  0.6721
  147OSM   H18F16319   2.028   6.609   4.732  0.3890 -0.8185  0.6266
  147OSM   H18G16320   1.877   6.654   4.636 -0.0115 -4.4194 -1.9879
  147OSM   H18H16321   2.030   6.744   4.605 -1.5516  0.1699  0.2588
  148OSM      N16322   3.480   0.731   2.329 -0.8734  0.2107 -0.6624
  148OSM    C1516323   3.455   0.872   2.301 -0.3351 -0.3998 -0.0251
  148OSM   H15A16324   3.356   0.896   2.266  0.3244  2.5039 -0.1576
  148OSM   H15B16325   3.524   0.893   2.220  2.2331 -3.6525  1.1134
  148OSM   H15C16326   3.467   0.933   2.389 -1.0944 -0.1911 -0.0613
  148OSM    C1416327   3.399   0.675   2.440  0.7044  0.2740 -0.2207
  148OSM   H14A16328   3.430   0.718   2.534  3.9131 -1.3118 -0.4396
  148OSM   H14B16329   3.413   0.568   2.450  0.8865  0.2943 -0.2663
  148OSM   H14C16330   3.292   0.692   2.432  0.7076  0.5784  0.2987
  148OSM    C1316331   3.448   0.647   2.209  0.0977  0.5254  0.3604
  148OSM   H13A16332   3.525   0.680   2.141  1.2484 -1.6190  0.5248
  148OSM   H13B16333   3.349   0.666   2.171  0.7582 -1.2485 -2.6283
  148OSM   H13C16334   3.457   0.540   2.221 -3.5259 -0.0782 -1.0895
  148OSM    C1216335   3.623   0.711   2.368 -0.2944  0.3884  0.3592
  148OSM   H12A16336   3.680   0.777   2.304 -1.7887  0.0351 -1.4335
  148OSM   H12B16337   3.645   0.610   2.340 -0.2706  0.3926  0.3625
  148OSM    C1116338   3.670   0.744   2.513 -0.4620  0.2784 -0.3204
  148OSM   H11A16339   3.780   0.738   2.504 -0.3466 -1.9843  1.6705
  148OSM   H11B16340   3.642   0.660   2.580  0.1718 -2.5959 -3.3987
  148OSM      P16341   3.554   0.892   2.697  0.0735  0.0658 -0.0651
  148OSM    O1316342   3.529   1.038   2.724 -0.4136 -0.0797 -0.6071
  148OSM    O1416343   3.440   0.801   2.709 -0.3903  0.5095 -0.2432
  148OSM    O1116344   3.662   0.840   2.798  0.5060 -0.1734 -0.2681
  148OSM    O1216345   3.620   0.873   2.555  0.0189  0.3262  0.0964
  148OSM    C1S16346   3.782   0.909   2.828 -0.0176  0.8641  0.3374
  148OSM    H1S16347   3.764   1.015   2.854 -0.7232  0.1843  2.8903
  148OSM    H1T16348   3.841   0.914   2.734 -1.9944  0.7652 -0.9645
  148OSM     NF16349   3.955   0.919   3.004  0.6046  0.1204 -0.5280
  148OSM    HNF16350   4.047   0.885   2.987 -0.3447 -3.3920  0.6367
  148OSM    C2S16351   3.849   0.841   2.952 -0.6796 -0.6009  0.2970
  148OSM    H2S16352   3.770   0.834   3.029  0.6824 -0.5832  1.7451
  148OSM    C3S16353   3.891   0.695   2.917 -0.2510 -0.2211 -0.2436
  148OSM    H3S16354   3.980   0.713   2.854 -0.8084 -0.4980 -1.1273
  148OSM     O316355   3.800   0.616   2.839  0.5243 -0.5652 -0.1043
  148OSM    HO316356   3.732   0.679   2.812  1.0674 -0.2195 -0.6888
  148OSM    C4S16357   3.915   0.622   3.048  0.0548  0.4968  0.3371
  148OSM    H4S16358   3.826   0.605   3.111  1.3119 -0.4756  1.9396
  148OSM    C5S16359   4.029   0.556   3.081  0.4957  0.3388  0.0118
  148OSM    H5S16360   4.114   0.559   3.012 -0.1973  0.5173 -0.8623
  148OSM    C6S16361   4.047   0.463   3.195 -0.8974 -0.5134  0.1414
  148OSM    H6S16362   4.150   0.471   3.236 -1.9686  0.4024  2.8859
  148OSM    H6T16363   4.036   0.358   3.162  0.9826 -1.2367  1.6193
  148OSM    C7S16364   3.945   0.494   3.306  0.3710 -0.4254 -0.3403
  148OSM    H7S16365   3.846   0.461   3.268  0.5951  0.6097 -1.9196
  148OSM    H7T16366   3.939   0.604   3.320 -0.2508 -0.5888  0.7924
  148OSM    C8S16367   3.966   0.446   3.444  0.4479  0.1808 -0.4771
  148OSM    H8S16368   3.946   0.337   3.438  0.8898  0.1683 -2.6331
  148OSM    H8T16369   3.886   0.476   3.515 -0.3871 -2.2828 -0.2848
  148OSM    C9S16370   4.102   0.468   3.501  0.0575 -0.3640  0.0728
  148OSM    H9S16371   4.132   0.575   3.497 -1.6588  0.1384 -0.5464
  148OSM    H9T16372   4.171   0.408   3.438  0.5200  0.1201  0.1052
  148OSM   C10S16373   4.117   0.410   3.645 -0.5102  0.0090  0.4722
  148OSM   H10S16374   4.218   0.386   3.683 -0.9720 -1.2175  1.0105
  148OSM   H10T16375   4.060   0.314   3.638  0.0025 -0.3400  1.0284
  148OSM   C11S16376   4.047   0.495   3.751 -0.1196 -0.4180 -0.1765
  148OSM   H11S16377   3.947   0.525   3.713  0.3477  0.5138 -0.7102
  148OSM   H11T16378   4.110   0.586   3.761  2.1032 -2.0989  2.3103
  148OSM   C12S16379   4.047   0.424   3.884 -0.8113 -0.1113  0.2088
  148OSM   H12S16380   4.152   0.405   3.914  0.0883  0.7410 -2.2065
  148OSM   H12T16381   4.003   0.322   3.876  0.8304 -0.8396  0.0573
  148OSM   C13S16382   3.989   0.515   4.000 -0.3448 -0.0239 -0.1467
  148OSM   H13S16383   3.888   0.546   3.967 -0.3884  0.9786  0.8511
  148OSM   H13T16384   4.047   0.609   3.990  0.4567 -0.3964  0.7672
  148OSM   C14S16385   3.985   0.454   4.140  0.0804 -0.4140 -0.0369
  148OSM   H14S16386   3.907   0.375   4.144 -0.9143  0.5385 -0.2453
  148OSM   H14T16387   3.938   0.531   4.205 -1.0093  0.2958 -1.6039
  148OSM   C15S16388   4.118   0.416   4.193  0.1785  0.5544  0.3085
  148OSM   H15S16389   4.149   0.332   4.127 -2.7594  0.2250 -0.7970
  148OSM   H15T16390   4.117   0.369   4.294  1.2935  1.1227  0.5960
  148OSM   C16S16391   4.228   0.526   4.207  0.0272 -0.3773 -0.4432
  148OSM   H16S16392   4.191   0.609   4.271 -0.8427 -0.4757 -0.8134
  148OSM   H16T16393   4.236   0.565   4.103  1.2633 -0.4160 -0.3836
  148OSM   C17S16394   4.369   0.477   4.266 -0.1570 -0.1764 -0.3241
  148OSM   H17S16395   4.384   0.386   4.204 -2.5209 -1.1217  0.3886
  148OSM   H17T16396   4.352   0.456   4.373 -0.4407  0.0403 -0.3254
  148OSM   C18S16397   4.475   0.591   4.267  0.0549  0.6781  0.4629
  148OSM   H18S16398   4.433   0.684   4.313 -2.2296  0.1982 -0.5603
  148OSM   H18T16399   4.519   0.611   4.167 -1.3677 -2.1243 -0.8248
  148OSM   H18U16400   4.561   0.558   4.329 -0.5697 -0.2242  0.8638
  148OSM    C1F16401   3.936   1.022   3.083  0.5678 -0.7004  0.6326
  148OSM     OF16402   3.821   1.062   3.100  0.0498  0.1521  0.6056
  148OSM    C2F16403   4.057   1.080   3.148  0.1634  0.6767 -0.3921
  148OSM    H2F16404   4.064   1.189   3.126  0.7137  1.3035  2.4412
  148OSM    H2G16405   4.156   1.035   3.123 -0.3613 -1.6339  1.3091
  148OSM    C3F16406   4.057   1.066   3.301  0.5778 -0.6878  0.3238
  148OSM    H3F16407   3.964   1.113   3.337  0.3155 -1.6748  0.9802
  148OSM    H3G16408   4.146   1.116   3.347 -0.8685  1.9274  0.4772
  148OSM    C4F16409   4.045   0.918   3.340  0.3634 -0.2773  0.0074
  148OSM    H4F16410   4.138   0.875   3.299  0.6493  0.5664 -0.2513
  148OSM    H4G16411   3.959   0.867   3.293  1.3508 -1.9363 -0.0634
  148OSM    C5F16412   4.026   0.897   3.492 -0.1910  0.6182 -0.2221
  148OSM    H5F16413   4.013   0.786   3.494 -3.2687  0.8752 -1.2905
  148OSM    H5G16414   3.923   0.930   3.514 -1.0447  1.7943 -4.9170
  148OSM    C6F16415   4.143   0.937   3.586  0.8541  0.7546  0.1088
  148OSM    H6F16416   4.240   0.939   3.531  0.9766 -1.7394  0.1224
  148OSM    H6G16417   4.156   0.855   3.660 -1.1593 -0.4549 -0.8093
  148OSM    C7F16418   4.109   1.059   3.671  0.4293 -0.0061  0.6886
  148OSM    H7F16419   4.093   1.145   3.604  1.1830  0.3036  0.8934
  148OSM    H7G16420   4.191   1.081   3.743  2.5223  1.4407 -1.9304
  148OSM    C8F16421   3.972   1.041   3.747 -0.4342  0.5955  0.9554
  148OSM    H8F16422   3.968   0.932   3.766  1.2230 -0.5047 -3.6664
  148OSM    H8G16423   3.889   1.074   3.680 -0.2982  0.8855  0.9273
  148OSM    C9F16424   3.979   1.117   3.876 -0.3829  0.1939  0.1922
  148OSM    H9F16425   4.046   1.204   3.878  0.0947 -0.1785  1.5096
  148OSM   C10F16426   3.941   1.070   3.995 -0.1277 -0.3772 -0.1384
  148OSM   H10F16427   3.947   1.137   4.082 -0.4074 -0.8943  0.2809
  148OSM   C11F16428   3.877   0.943   4.037 -0.7434 -0.3771  0.4766
  148OSM   H11F16429   3.876   0.878   3.947 -0.0780  0.9372 -0.5131
  148OSM   H11G16430   3.771   0.952   4.067 -1.4306  0.0469 -1.9122
  148OSM   C12F16431   3.971   0.871   4.138  0.3847  0.3959  0.4395
  148OSM   H12F16432   4.073   0.872   4.094 -0.9056  1.5861 -2.7565
  148OSM   H12G16433   3.933   0.766   4.147  2.3575 -0.2196  2.6636
  148OSM   C13F16434   3.969   0.929   4.275 -0.1828  0.2092  0.1936
  148OSM   H13F16435   3.866   0.934   4.316  0.1905  0.2043  1.1497
  148OSM   H13G16436   4.010   1.032   4.277  0.5912 -0.0889  0.0479
  148OSM   C14F16437   4.054   0.835   4.370 -0.2199  0.3313  0.0881
  148OSM   H14F16438   4.159   0.852   4.336 -0.4983  1.4204 -0.2606
  148OSM   H14G16439   4.028   0.729   4.349  0.0773 -0.0219  1.4373
  148OSM   C15F16440   4.048   0.858   4.523  0.0601 -0.8244 -0.3214
  148OSM   H15F16441   3.943   0.839   4.554 -0.7918 -1.1487 -3.1725
  148OSM   H15G16442   4.068   0.964   4.549  0.0978 -1.2758  1.7034
  148OSM   C16F16443   4.149   0.772   4.600  0.9360  0.1509 -0.3415
  148OSM   H16F16444   4.143   0.822   4.699 -3.4098 -1.2743  0.3148
  148OSM   H16G16445   4.249   0.795   4.557 -0.0328  0.9876 -2.2523
  148OSM   C17F16446   4.130   0.622   4.606 -0.9296  0.2154 -0.2876
  148OSM   H17F16447   4.146   0.579   4.505  3.1060  1.4560 -0.3575
  148OSM   H17G16448   4.026   0.596   4.634 -0.5164 -1.6471 -0.3794
  148OSM   C18F16449   4.231   0.551   4.694 -0.1960 -0.8485  0.0327
  148OSM   H18F16450   4.227   0.440   4.692 -0.0143 -0.9271  2.0032
  148OSM   H18G16451   4.236   0.588   4.799  0.7585 -2.2782  0.5349
  148OSM   H18H16452   4.330   0.575   4.649 -0.5753  0.3280 -0.1840
  149OSM      N16453   1.954   4.530   2.231  0.2735  0.3048 -0.2541
  149OSM    C1516454   1.952   4.618   2.110 -0.0876 -0.1349 -0.3130
  149OSM   H15A16455   1.850   4.638   2.083 -0.4266 -1.3788 -0.0598
  149OSM   H15B16456   2.004   4.561   2.034  2.2054  0.0826  0.9818
  149OSM   H15C16457   1.997   4.715   2.126 -0.4350 -0.0327  0.0346
  149OSM    C1416458   1.885   4.400   2.188  0.6372  0.5059 -0.0670
  149OSM   H14A16459   1.784   4.420   2.155  0.3946 -0.7833 -0.1686
  149OSM   H14B16460   1.879   4.324   2.265 -0.1806  0.2637 -0.3593
  149OSM   H14C16461   1.941   4.366   2.102 -0.0920 -0.3557 -0.2177
  149OSM    C1316462   2.094   4.493   2.257  0.1814 -0.4399 -0.6598
  149OSM   H13A16463   2.092   4.418   2.334 -1.3584  1.1895  1.0030
  149OSM   H13B16464   2.145   4.579   2.297  2.3456 -0.7723 -2.4704
  149OSM   H13C16465   2.146   4.460   2.169  1.0572 -0.7476 -0.0337
  149OSM    C1216466   1.879   4.586   2.351 -1.3027 -0.5611 -0.1003
  149OSM   H12A16467   1.777   4.613   2.327 -0.5750  2.9304  0.2660
  149OSM   H12B16468   1.921   4.685   2.361 -1.2726 -0.3541 -1.8659
  149OSM    C1116469   1.887   4.510   2.485  0.2355  0.1373  0.8057
  149OSM   H11A16470   1.865   4.592   2.558 -1.2801  0.6815 -0.2117
  149OSM   H11B16471   1.987   4.468   2.508  0.8161  0.8421 -0.3544
  149OSM      P16472   1.637   4.413   2.491 -0.3115 -0.3069  0.3957
  149OSM    O1316473   1.602   4.496   2.379  0.3163 -0.0102  0.3995
  149OSM    O1416474   1.577   4.278   2.497  0.2916 -0.6642 -0.2632
  149OSM    O1116475   1.623   4.491   2.623  0.1863 -0.1569 -1.0527
  149OSM    O1216476   1.791   4.389   2.494  0.0868 -0.0597  0.2049
  149OSM    C1S16477   1.639   4.425   2.754 -0.0895 -0.3297 -0.2866
  149OSM    H1S16478   1.718   4.348   2.746  1.8298  1.4769  0.2615
  149OSM    H1T16479   1.545   4.372   2.780 -0.4972 -0.2658 -1.5733
  149OSM     NF16480   1.698   4.423   2.986 -0.2230  0.0414 -0.0993
  149OSM    HNF16481   1.630   4.416   3.058  0.2808  0.0448  0.3779
  149OSM    C2S16482   1.669   4.514   2.874 -0.3020  0.0266 -1.3311
  149OSM    H2S16483   1.756   4.581   2.856 -0.0215 -0.0143 -0.1693
  149OSM    C3S16484   1.551   4.609   2.913  0.1239  0.6008  0.0249
  149OSM    H3S16485   1.460   4.554   2.943  0.2960  1.1829  1.7230
  149OSM     O316486   1.498   4.690   2.805 -0.8189  0.5305 -0.1376
  149OSM    HO316487   1.550   4.658   2.731  0.8549 -0.5548  1.4031
  149OSM    C4S16488   1.587   4.707   3.017  0.0984 -0.5127 -0.4355
  149OSM    H4S16489   1.654   4.791   2.992 -0.6226  0.3032  0.2968
  149OSM    C5S16490   1.567   4.692   3.149  0.3713 -0.2514  0.4677
  149OSM    H5S16491   1.510   4.604   3.182 -1.5131 -0.2679 -2.4691
  149OSM    C6S16492   1.625   4.777   3.260 -0.7095  0.4891  0.3782
  149OSM    H6S16493   1.548   4.844   3.305 -1.5065 -0.8156  1.0129
  149OSM    H6T16494   1.706   4.848   3.230  1.6218 -1.4571  1.6823
  149OSM    C7S16495   1.679   4.687   3.370  0.1067  0.3885 -0.1106
  149OSM    H7S16496   1.769   4.634   3.331 -0.0716  0.7738 -1.0737
  149OSM    H7T16497   1.607   4.605   3.389 -1.4033  1.1250 -2.2670
  149OSM    C8S16498   1.703   4.757   3.504 -0.2371 -0.0879 -0.7552
  149OSM    H8S16499   1.609   4.797   3.546 -0.6100 -1.1416 -0.5625
  149OSM    H8T16500   1.769   4.845   3.485 -2.7363  1.7600 -1.4039
  149OSM    C9S16501   1.776   4.658   3.600  0.3046  0.3971 -0.5840
  149OSM    H9S16502   1.801   4.714   3.693 -1.8742  1.6417 -0.6669
  149OSM    H9T16503   1.877   4.632   3.563  0.0168 -2.6155  0.4502
  149OSM   C10S16504   1.704   4.526   3.626  0.2885 -0.5453  0.7477
  149OSM   H10S16505   1.705   4.465   3.533 -1.1763 -0.1225  0.4271
  149OSM   H10T16506   1.598   4.542   3.655 -0.3765 -0.6115 -1.4212
  149OSM   C11S16507   1.749   4.443   3.745  0.4657  0.3136 -0.2117
  149OSM   H11S16508   1.854   4.407   3.736 -0.1833 -2.0473  0.6622
  149OSM   H11T16509   1.678   4.358   3.755 -0.2639  0.9792  0.4225
  149OSM   C12S16510   1.728   4.521   3.881 -0.1226 -0.5202  0.1698
  149OSM   H12S16511   1.629   4.570   3.874  0.2248  0.0212 -1.3824
  149OSM   H12T16512   1.819   4.584   3.891 -1.3440  1.0989  1.7036
  149OSM   C13S16513   1.739   4.423   3.994 -0.2082  0.2909 -0.3362
  149OSM   H13S16514   1.836   4.368   3.993 -0.8126 -0.8151 -1.5243
  149OSM   H13T16515   1.660   4.347   3.974 -0.8706  1.6856 -3.7943
  149OSM   C14S16516   1.700   4.488   4.127  0.2054 -0.0037 -0.3718
  149OSM   H14S16517   1.591   4.507   4.136  0.1677 -0.4677  0.2107
  149OSM   H14T16518   1.762   4.580   4.140  3.3998 -1.4646 -3.4249
  149OSM   C15S16519   1.739   4.391   4.241 -0.2942 -0.3528 -0.2914
  149OSM   H15S16520   1.842   4.347   4.237  0.4834  1.0807  1.8818
  149OSM   H15T16521   1.683   4.295   4.232  2.8560 -2.2860 -1.0189
  149OSM   C16S16522   1.714   4.457   4.373  0.0628 -0.0011 -0.8251
  149OSM   H16S16523   1.609   4.493   4.382  0.1386 -0.1456  1.1411
  149OSM   H16T16524   1.772   4.552   4.367 -1.1078  0.6384 -3.4926
  149OSM   C17S16525   1.766   4.382   4.494  0.0248 -0.0173 -0.4411
  149OSM   H17S16526   1.863   4.338   4.464 -0.4153 -0.9923 -0.4935
  149OSM   H17T16527   1.695   4.298   4.512 -1.1330  0.5586 -2.0607
  149OSM   C18S16528   1.787   4.457   4.619 -0.0284 -0.4692 -0.0591
  149OSM   H18S16529   1.790   4.403   4.716  0.7429  2.5868  1.7591
  149OSM   H18T16530   1.704   4.530   4.629  0.7371  0.3627  0.3501
  149OSM   H18U16531   1.878   4.521   4.611  0.9363 -1.5083  2.0661
  149OSM    C1F16532   1.788   4.326   2.996 -0.0897  0.0755  0.2920
  149OSM     OF16533   1.872   4.297   2.908  0.3145 -0.2147 -0.3045
  149OSM    C2F16534   1.784   4.239   3.114 -0.7983 -0.3078 -0.8329
  149OSM    H2F16535   1.810   4.135   3.085  0.4536 -0.6856  1.4154
  149OSM    H2G16536   1.680   4.239   3.153 -0.1201  1.5728  1.1681
  149OSM    C3F16537   1.881   4.276   3.230  0.1143 -0.1487 -0.8324
  149OSM    H3F16538   1.860   4.379   3.267  3.5796 -0.0966  1.4351
  149OSM    H3G16539   1.988   4.274   3.201  0.1544  0.7695 -0.7622
  149OSM    C4F16540   1.851   4.191   3.350 -0.4716 -0.4756 -0.6705
  149OSM    H4F16541   1.859   4.084   3.320 -0.8955 -0.4363 -0.9389
  149OSM    H4G16542   1.749   4.207   3.389  0.4122 -0.7486  1.9274
  149OSM    C5F16543   1.949   4.217   3.461  0.3160 -0.1218 -0.6127
  149OSM    H5F16544   1.933   4.321   3.494  3.4842 -0.2473  1.8682
  149OSM    H5G16545   2.057   4.215   3.432  0.8832  0.1442  1.3479
  149OSM    C6F16546   1.918   4.125   3.587  0.2810  0.2246  0.1392
  149OSM    H6F16547   1.918   4.024   3.542  1.2921  0.1308  0.3221
  149OSM    H6G16548   1.817   4.152   3.623  0.5449  1.4545  0.0030
  149OSM    C7F16549   2.028   4.137   3.693 -0.8468  0.5963 -0.6674
  149OSM    H7F16550   2.027   4.242   3.729  0.2475  0.2925  0.3165
  149OSM    H7G16551   2.126   4.108   3.649  0.0323 -0.6340  1.8922
  149OSM    C8F16552   2.014   4.046   3.813  0.5764  0.6079 -0.6252
  149OSM    H8F16553   2.106   4.026   3.873  0.3046  0.4550 -0.2615
  149OSM    H8G16554   2.008   3.949   3.759  0.4919  1.2636 -1.8465
  149OSM    C9F16555   1.891   4.084   3.893  0.5808  0.9847  0.6786
  149OSM    H9F16556   1.806   4.078   3.824  1.0153  0.9437  0.1419
  149OSM   C10F16557   1.872   4.108   4.025 -0.3643 -0.9853  0.0329
  149OSM   H10F16558   1.769   4.100   4.063  0.4645 -0.8972  2.4251
  149OSM   C11F16559   1.986   4.101   4.119  0.6550  0.7786 -0.8512
  149OSM   H11F16560   2.049   4.192   4.128  2.4960 -0.3772 -1.6058
  149OSM   H11G16561   2.063   4.027   4.091  0.2275  0.1494 -0.3976
  149OSM   C12F16562   1.944   4.064   4.264 -0.4072 -0.2858  0.0946
  149OSM   H12F16563   1.893   3.965   4.261 -3.1494  1.0774 -1.3074
  149OSM   H12G16564   1.876   4.134   4.317  0.6549  1.0380 -0.2228
  149OSM   C13F16565   2.062   4.046   4.363 -0.0834 -0.4375  0.1809
  149OSM   H13F16566   2.121   4.140   4.366  0.3757 -0.7367  1.7960
  149OSM   H13G16567   2.133   3.968   4.326  0.6576 -0.9015  2.3907
  149OSM   C14F16568   2.008   4.015   4.504 -0.2968  0.0519  0.4203
  149OSM   H14F16569   1.941   3.927   4.495 -2.7982  1.9828 -1.2957
  149OSM   H14G16570   1.931   4.089   4.535 -1.1485 -1.0034  0.8645
  149OSM   C15F16571   2.119   4.002   4.613 -0.6102 -0.6105  0.4273
  149OSM   H15F16572   2.166   4.103   4.612 -1.8805  0.0912  2.6391
  149OSM   H15G16573   2.197   3.933   4.575  1.0890  1.1290  0.6123
  149OSM   C16F16574   2.061   3.967   4.752  0.6101 -0.8419  0.6666
  149OSM   H16F16575   2.150   3.952   4.816  0.3181 -1.1009  1.0189
  149OSM   H16G16576   2.009   3.869   4.753 -2.6616  0.7506 -0.1517
  149OSM   C17F16577   1.959   4.064   4.824  0.5059 -0.5126  0.5517
  149OSM   H17F16578   1.941   4.017   4.923 -1.5797 -0.3199  0.3028
  149OSM   H17G16579   1.863   4.072   4.769  0.0271 -1.2882  1.2504
  149OSM   C18F16580   2.013   4.207   4.845 -0.3835 -0.1884 -0.7873
  149OSM   H18F16581   1.947   4.267   4.911 -1.1007 -0.8182 -0.9211
  149OSM   H18G16582   2.001   4.259   4.748  0.2576 -1.7596 -1.7413
  149OSM   H18H16583   2.119   4.231   4.870 -0.9018 -0.1290  1.6418
  150OSM      N16584   2.150   2.707   2.250 -0.2167 -0.1347  0.5455
  150OSM    C1516585   2.062   2.754   2.363  0.3398  1.0718  0.5353
  150OSM   H15A16586   1.957   2.753   2.339  0.3547  1.8402  0.4130
  150OSM   H15B16587   2.081   2.857   2.388 -1.8907  1.4611  0.8664
  150OSM   H15C16588   2.082   2.688   2.446  2.3050  0.9776  0.0368
  150OSM    C1416589   2.121   2.769   2.123 -0.3517  0.4236  0.3438
  150OSM   H14A16590   2.180   2.731   2.041  1.0937  0.0214  1.5429
  150OSM   H14B16591   2.141   2.875   2.128 -3.7380  1.2250 -0.2112
  150OSM   H14C16592   2.015   2.765   2.099 -0.5902  0.7594  1.3082
  150OSM    C1316593   2.292   2.734   2.287  0.1222  0.2510  0.6480
  150OSM   H13A16594   2.322   2.838   2.289  0.9202  0.0254  0.7765
  150OSM   H13B16595   2.363   2.683   2.223 -0.9324  0.5097 -0.7797
  150OSM   H13C16596   2.304   2.690   2.385  0.9547  0.6249  0.7255
  150OSM    C1216597   2.128   2.554   2.230  0.2990 -0.7201  0.5555
  150OSM   H12A16598   2.197   2.525   2.151  0.7854  0.7731  0.3907
  150OSM   H12B16599   2.031   2.548   2.183  0.0359  1.2421  0.7708
  150OSM    C1116600   2.136   2.466   2.346  0.0984  0.0239 -0.4035
  150OSM   H11A16601   2.226   2.490   2.406 -0.4626 -0.2797  0.5714
  150OSM   H11B16602   2.149   2.359   2.316 -1.0553 -0.2152 -0.1119
  150OSM      P16603   1.912   2.380   2.468  0.0460  0.1757  0.4249
  150OSM    O1316604   1.783   2.451   2.496  0.2898  0.4039  0.7893
  150OSM    O1416605   1.919   2.264   2.372  0.5573 -0.5046  0.6432
  150OSM    O1116606   1.987   2.334   2.600  0.3759 -0.3315  0.2430
  150OSM    O1216607   2.022   2.484   2.426 -0.3934 -0.4558 -0.0746
  150OSM    C1S16608   2.017   2.433   2.702 -0.5513 -0.0893  0.3804
  150OSM    H1S16609   1.919   2.463   2.745  0.2095  1.2176  1.2408
  150OSM    H1T16610   2.062   2.524   2.656 -1.8057  0.7135  0.6956
  150OSM     NF16611   2.133   2.445   2.935 -0.0386  0.1254  0.2421
  150OSM    HNF16612   2.215   2.502   2.935  1.9875 -2.5465  0.4627
  150OSM    C2S16613   2.125   2.376   2.806  0.6095  0.2352  0.1481
  150OSM    H2S16614   2.088   2.272   2.823 -1.1613  0.6360 -1.0541
  150OSM    C3S16615   2.264   2.360   2.728 -0.0495 -0.3892  0.1982
  150OSM    H3S16616   2.321   2.455   2.724  3.1977 -2.1927  0.7655
  150OSM     O316617   2.263   2.293   2.599 -0.2193 -0.2288  0.3215
  150OSM    HO316618   2.172   2.307   2.571  0.3684  0.0307 -1.5670
  150OSM    C4S16619   2.353   2.283   2.827  0.3153 -0.3556  0.8230
  150OSM    H4S16620   2.423   2.354   2.874 -1.9739  2.4768  0.3008
  150OSM    C5S16621   2.354   2.155   2.857 -0.0073  0.3290 -0.0829
  150OSM    H5S16622   2.297   2.083   2.796 -0.9924  0.7628  0.3156
  150OSM    C6S16623   2.452   2.089   2.958 -1.0758  0.4045  0.2003
  150OSM    H6S16624   2.534   2.029   2.913  0.8173  2.0234  1.3603
  150OSM    H6T16625   2.400   2.022   3.030 -0.4231  0.2384  0.5181
  150OSM    C7S16626   2.531   2.185   3.054 -0.4036 -0.6725  0.2881
  150OSM    H7S16627   2.583   2.261   2.992  0.9922 -0.6257  1.4667
  150OSM    H7T16628   2.614   2.128   3.099  0.6951  0.6881  0.0462
  150OSM    C8S16629   2.433   2.258   3.154 -0.4177  0.6955 -0.8739
  150OSM    H8S16630   2.416   2.189   3.239  1.9790  0.7472 -0.2774
  150OSM    H8T16631   2.340   2.287   3.100  0.0263  0.5156 -1.7440
  150OSM    C9S16632   2.503   2.387   3.196  0.2490 -1.1489  0.0969
  150OSM    H9S16633   2.547   2.444   3.111  1.6703 -3.3958 -0.7552
  150OSM    H9T16634   2.596   2.367   3.253  0.4724  1.2782  0.7213
  150OSM   C10S16635   2.412   2.485   3.275  0.9515 -0.7882  0.4441
  150OSM   H10S16636   2.377   2.439   3.369 -0.3659 -1.3510 -0.3022
  150OSM   H10T16637   2.323   2.508   3.212 -1.1165 -2.6585  2.5195
  150OSM   C11S16638   2.495   2.602   3.323  0.4419  0.0847  0.8957
  150OSM   H11S16639   2.533   2.665   3.240  0.1805 -0.0827  0.6514
  150OSM   H11T16640   2.582   2.564   3.381  3.0863 -0.5541 -3.1158
  150OSM   C12S16641   2.412   2.700   3.413 -0.7792  0.4233  0.2416
  150OSM   H12S16642   2.377   2.644   3.503  0.4628 -1.0847 -0.1693
  150OSM   H12T16643   2.325   2.737   3.354 -1.4726 -0.6338  0.5576
  150OSM   C13S16644   2.503   2.812   3.480  0.2907  0.7224  0.4023
  150OSM   H13S16645   2.511   2.893   3.404 -2.4009  0.4699 -0.2396
  150OSM   H13T16646   2.606   2.781   3.508  0.1612 -0.0870 -0.0177
  150OSM   C14S16647   2.442   2.875   3.611 -0.6929  0.4105 -0.8516
  150OSM   H14S16648   2.332   2.888   3.600 -0.9687 -0.3689  0.6959
  150OSM   H14T16649   2.496   2.970   3.627  1.9429 -0.9754 -0.8378
  150OSM   C15S16650   2.453   2.791   3.739 -0.0569  0.1793 -0.5764
  150OSM   H15S16651   2.401   2.694   3.725  0.0979 -0.0046  0.0966
  150OSM   H15T16652   2.406   2.847   3.823 -0.8178 -1.2255 -0.0405
  150OSM   C16S16653   2.598   2.773   3.776  0.2204 -0.0245 -0.3148
  150OSM   H16S16654   2.653   2.865   3.805  1.3242 -0.5365 -0.7260
  150OSM   H16T16655   2.656   2.720   3.698 -0.3708 -0.3594 -0.5277
  150OSM   C17S16656   2.611   2.679   3.899  0.1252  0.3197 -0.0551
  150OSM   H17S16657   2.722   2.671   3.910  0.5182  0.5845 -2.9337
  150OSM   H17T16658   2.559   2.590   3.857 -0.6965  0.3777  0.8213
  150OSM   C18S16659   2.546   2.727   4.031 -0.6634  0.2648 -0.1751
  150OSM   H18S16660   2.600   2.690   4.121 -3.5121 -1.7093  0.8488
  150OSM   H18T16661   2.439   2.702   4.042 -0.1189 -1.4186  2.0799
  150OSM   H18U16662   2.560   2.837   4.030  1.9152  0.1248  2.6384
  150OSM    C1F16663   2.023   2.442   3.012 -0.8644 -0.1079 -0.5290
  150OSM     OF16664   1.929   2.365   2.987  0.2342 -0.0255  0.0304
  150OSM    C2F16665   2.019   2.535   3.135  0.6208  0.2551 -0.6177
  150OSM    H2F16666   1.930   2.601   3.129  0.5347  0.5381  2.1212
  150OSM    H2G16667   2.116   2.590   3.140  0.6123  0.1872  0.6021
  150OSM    C3F16668   2.003   2.454   3.271 -0.0243 -0.1072 -0.5885
  150OSM    H3F16669   2.107   2.420   3.293  0.9151  0.9355 -3.0037
  150OSM    H3G16670   1.939   2.365   3.255 -0.8632  0.0759  1.5586
  150OSM    C4F16671   1.935   2.545   3.374 -0.0775 -0.4922  0.1952
  150OSM    H4F16672   1.824   2.545   3.369 -0.0947  2.0517 -2.1855
  150OSM    H4G16673   1.986   2.640   3.347 -0.4876 -0.5637 -0.8970
  150OSM    C5F16674   1.977   2.521   3.527 -0.2224  0.0583 -0.4591
  150OSM    H5F16675   1.946   2.419   3.559 -1.2156  0.3604 -0.4153
  150OSM    H5G16676   1.922   2.600   3.582  2.2568  0.3821  1.7197
  150OSM    C6F16677   2.126   2.533   3.545  0.6725  0.1079  0.3208
  150OSM    H6F16678   2.164   2.634   3.522  0.1221  0.5645  1.3297
  150OSM    H6G16679   2.183   2.463   3.480  1.0138 -0.6382  1.3901
  150OSM    C7F16680   2.166   2.492   3.691  0.6024  0.1775  0.5303
  150OSM    H7F16681   2.275   2.508   3.703  0.9244  0.4680 -2.1817
  150OSM    H7G16682   2.162   2.381   3.688 -0.8982  0.2238 -0.7278
  150OSM    C8F16683   2.079   2.536   3.805 -0.0882  0.0250  0.5219
  150OSM    H8F16684   2.113   2.493   3.901 -0.1682  1.2186  1.1022
  150OSM    H8G16685   1.975   2.501   3.789  0.2462 -1.6534  1.7183
  150OSM    C9F16686   2.063   2.689   3.821 -0.3032  0.1936  0.2732
  150OSM    H9F16687   2.022   2.735   3.730  2.3165  2.8623  0.2907
  150OSM   C10F16688   2.099   2.768   3.919 -0.0671 -0.5611 -0.2769
  150OSM   H10F16689   2.087   2.876   3.904 -0.1867 -0.3068  1.4152
  150OSM   C11F16690   2.160   2.734   4.054  0.0465  0.0659 -0.8973
  150OSM   H11F16691   2.235   2.802   4.099  0.9415 -3.1862  3.1462
  150OSM   H11G16692   2.214   2.637   4.054 -0.0621 -0.0100  0.2826
  150OSM   C12F16693   2.046   2.703   4.153  0.0685  0.2888 -0.4174
  150OSM   H12F16694   1.963   2.651   4.100  2.3525 -2.6557 -1.3433
  150OSM   H12G16695   2.008   2.797   4.200  0.6687  0.1771  0.3101
  150OSM   C13F16696   2.101   2.622   4.272  0.0761 -0.3938 -0.2852
  150OSM   H13F16697   2.199   2.662   4.303 -0.8113 -0.2900  2.7283
  150OSM   H13G16698   2.118   2.519   4.236  0.5587 -0.1282 -0.8274
  150OSM   C14F16699   2.005   2.616   4.395 -1.1004 -0.5682  0.0790
  150OSM   H14F16700   2.037   2.543   4.472  0.1025  2.3105  2.5129
  150OSM   H14G16701   1.917   2.579   4.339 -0.6777  0.5014 -1.3673
  150OSM   C15F16702   1.971   2.756   4.464 -0.9519  0.2320 -0.3179
  150OSM   H15F16703   1.900   2.725   4.543  0.6776 -0.9245  0.7810
  150OSM   H15G16704   1.925   2.826   4.392 -0.5944  0.0412 -0.7422
  150OSM   C16F16705   2.083   2.829   4.526 -0.3273 -0.2963 -0.2841
  150OSM   H16F16706   2.043   2.919   4.577 -2.0955  0.0240 -2.1108
  150OSM   H16G16707   2.152   2.868   4.448  1.2480  0.4019  1.4022
  150OSM   C17F16708   2.174   2.744   4.623  0.3706  0.0311  0.6833
  150OSM   H17F16709   2.261   2.805   4.657  0.6372  0.6088 -0.9567
  150OSM   H17G16710   2.210   2.652   4.573  0.4547 -0.3546  1.4445
  150OSM   C18F16711   2.101   2.705   4.752  0.5297 -0.4757 -0.7648
  150OSM   H18F16712   2.003   2.664   4.719  0.7817 -1.0139 -0.8374
  150OSM   H18G16713   2.078   2.789   4.822 -0.5472 -1.1759 -0.2415
  150OSM   H18H16714   2.164   2.630   4.804  0.9643  0.0734 -0.4886
  151OSM      N16715   1.912   1.989   2.657  0.0428  0.0253 -0.2990
  151OSM    C1516716   2.022   2.034   2.566 -0.5329  0.2029 -0.5418
  151OSM   H15A16717   2.028   2.142   2.570  0.3058  0.2217 -1.8073
  151OSM   H15B16718   2.006   2.005   2.464  1.4772  1.7538 -1.3508
  151OSM   H15C16719   2.123   2.010   2.594  0.0526  1.8742 -1.1010
  151OSM    C1416720   1.940   1.849   2.698  0.2649  0.0541  0.2578
  151OSM   H14A16721   1.866   1.805   2.763  0.1610 -0.7951 -0.4117
  151OSM   H14B16722   2.039   1.841   2.740  0.1929  0.6525  0.5526
  151OSM   H14C16723   1.951   1.789   2.608  1.8867  0.1029  0.3989
  151OSM    C1316724   1.908   2.075   2.783 -0.1851  0.2023 -0.0453
  151OSM   H13A16725   1.934   2.176   2.755 -1.4407  1.0774  1.7722
  151OSM   H13B16726   1.978   2.043   2.858  0.5274  2.8570  0.5218
  151OSM   H13C16727   1.810   2.068   2.828 -0.3926 -0.9805 -0.6185
  151OSM    C1216728   1.783   2.008   2.587  0.5043  0.1551  0.2735
  151OSM   H12A16729   1.788   2.108   2.546 -1.2730 -0.0310 -0.5088
  151OSM   H12B16730   1.707   2.005   2.663  1.6404  0.4661  1.4543
  151OSM    C1116731   1.731   1.912   2.468  0.4047 -0.4200 -0.5532
  151OSM   H11A16732   1.824   1.925   2.408 -0.8069  0.2350 -2.3709
  151OSM   H11B16733   1.642   1.946   2.411  0.6846  0.8615 -0.2522
  151OSM      P16734   1.582   1.726   2.578 -0.0489 -0.2049  0.1540
  151OSM    O1316735   1.586   1.746   2.723  0.1732 -0.0335  0.1597
  151OSM    O1416736   1.471   1.779   2.505 -0.2835  0.3547  0.4996
  151OSM    O1116737   1.595   1.570   2.557  0.5092 -0.0786 -0.0786
  151OSM    O1216738   1.712   1.780   2.519  1.2126 -0.8111 -0.0144
  151OSM    C1S16739   1.714   1.501   2.605  0.1999 -0.3335  0.6039
  151OSM    H1S16740   1.800   1.572   2.603  0.3664 -0.3669 -4.1458
  151OSM    H1T16741   1.751   1.412   2.550  1.8014 -1.3912  3.2246
  151OSM     NF16742   1.798   1.379   2.797  0.2749  0.2399  0.1867
  151OSM    HNF16743   1.818   1.286   2.768  0.2989  0.2895  0.0398
  151OSM    C2S16744   1.683   1.435   2.738  0.1767 -0.1049  0.2140
  151OSM    H2S16745   1.645   1.520   2.800 -1.3928 -0.9748  0.5020
  151OSM    C3S16746   1.569   1.338   2.725 -0.0622 -0.4542  0.2331
  151OSM    H3S16747   1.612   1.258   2.661 -0.2204 -0.2638 -0.1152
  151OSM     O316748   1.445   1.392   2.664 -0.1855  0.7797  0.1589
  151OSM    HO316749   1.468   1.478   2.628 -1.6386  1.9721  1.9085
  151OSM    C4S16750   1.543   1.268   2.854 -0.5671  0.5299  0.3269
  151OSM    H4S16751   1.605   1.177   2.853  0.4220  1.1928 -0.9590
  151OSM    C5S16752   1.459   1.286   2.961  0.0673 -0.2420 -0.8722
  151OSM    H5S16753   1.399   1.378   2.960 -4.1579 -2.7448 -1.3127
  151OSM    C6S16754   1.464   1.207   3.094  0.1152  0.4444  0.0951
  151OSM    H6S16755   1.571   1.183   3.111  0.5364 -0.6817 -3.3725
  151OSM    H6T16756   1.412   1.110   3.079  1.5316 -0.1105 -1.6217
  151OSM    C7S16757   1.409   1.285   3.210 -0.3252 -0.1279  0.2805
  151OSM    H7S16758   1.299   1.287   3.195 -0.7605 -2.3037  2.4321
  151OSM    H7T16759   1.450   1.388   3.212  1.2395 -0.6749 -1.4142
  151OSM    C8S16760   1.416   1.201   3.343  0.6024  0.6013 -0.2935
  151OSM    H8S16761   1.515   1.192   3.392  0.2531  0.1122  0.3349
  151OSM    H8T16762   1.383   1.096   3.326 -1.0224  1.0234  0.0910
  151OSM    C9S16763   1.312   1.252   3.440 -0.7117  0.6776 -0.3671
  151OSM    H9S16764   1.213   1.240   3.391 -0.5763  0.6531 -0.6367
  151OSM    H9T16765   1.334   1.359   3.457 -1.5327  0.6395  1.0306
  151OSM   C10S16766   1.319   1.179   3.582 -0.0383  0.3283 -0.6785
  151OSM   H10S16767   1.314   1.068   3.587 -0.0188  0.3285 -0.6542
  151OSM   H10T16768   1.232   1.219   3.638  0.0109  0.1941 -0.5058
  151OSM   C11S16769   1.449   1.215   3.662 -0.6387 -0.4942  0.7480
  151OSM   H11S16770   1.454   1.326   3.656  2.0589 -0.4789  1.7822
  151OSM   H11T16771   1.539   1.166   3.618 -1.4631 -0.3308 -1.2523
  151OSM   C12S16772   1.436   1.174   3.815 -0.5476  0.3511  0.5077
  151OSM   H12S16773   1.417   1.065   3.814 -0.3347  0.3120  0.6993
  151OSM   H12T16774   1.345   1.213   3.864  1.5413  2.4153  3.0606
  151OSM   C13S16775   1.547   1.222   3.907 -0.0068 -0.4474 -0.3455
  151OSM   H13S16776   1.548   1.333   3.904 -0.0889 -0.2243  3.1879
  151OSM   H13T16777   1.641   1.183   3.864  0.3758  0.9223 -0.7883
  151OSM   C14S16778   1.538   1.168   4.050  0.4055  0.6505 -0.2105
  151OSM   H14S16779   1.548   1.057   4.053  0.2641  0.5354 -2.4738
  151OSM   H14T16780   1.436   1.173   4.094 -0.1643  0.7695 -1.4942
  151OSM   C15S16781   1.618   1.251   4.147  0.6982 -0.2922 -0.3481
  151OSM   H15S16782   1.587   1.357   4.131 -1.2135 -1.0919 -2.6900
  151OSM   H15T16783   1.726   1.247   4.121  0.3647 -0.4418 -1.8294
  151OSM   C16S16784   1.600   1.206   4.293  0.0898 -0.0425  0.2938
  151OSM   H16S16785   1.631   1.100   4.302 -2.4386 -0.7836  1.2176
  151OSM   H16T16786   1.492   1.210   4.318  0.0662  1.7206  0.0191
  151OSM   C17S16787   1.696   1.261   4.406 -0.4116 -0.4251  0.7745
  151OSM   H17S16788   1.680   1.210   4.503 -0.2420 -0.5625  0.7324
  151OSM   H17T16789   1.660   1.366   4.413 -1.8879 -0.9320  1.0057
  151OSM   C18S16790   1.846   1.265   4.376 -0.0255  0.7709  0.5238
  151OSM   H18S16791   1.893   1.166   4.358 -3.0450 -0.3253 -2.4806
  151OSM   H18T16792   1.886   1.314   4.467  0.8965 -0.5218  0.8471
  151OSM   H18U16793   1.859   1.320   4.280 -4.8917 -1.6721 -1.8962
  151OSM    C1F16794   1.892   1.455   2.854 -0.2097  0.1910  0.6348
  151OSM     OF16795   1.886   1.575   2.857 -0.0516 -0.2186 -0.5163
  151OSM    C2F16796   2.006   1.373   2.920  0.2562  0.9954  0.1719
  151OSM    H2F16797   2.100   1.430   2.902  0.7390  0.6681  1.5224
  151OSM    H2G16798   2.014   1.276   2.867 -0.2361  0.4264  1.1057
  151OSM    C3F16799   1.977   1.376   3.072 -0.6071  0.9254 -0.3082
  151OSM    H3F16800   2.005   1.478   3.108  1.2303  0.2367  0.2959
  151OSM    H3G16801   2.047   1.314   3.131 -1.7045 -0.5758 -0.5333
  151OSM    C4F16802   1.834   1.343   3.117 -1.2980  0.3029 -0.3098
  151OSM    H4F16803   1.809   1.243   3.076  1.5554  0.2600 -2.2593
  151OSM    H4G16804   1.763   1.421   3.083 -0.1751  0.8119 -1.5854
  151OSM    C5F16805   1.822   1.338   3.269 -0.0256  0.4681  0.2063
  151OSM    H5F16806   1.861   1.240   3.306  0.2376  1.0046  1.4020
  151OSM    H5G16807   1.716   1.341   3.300  0.2883 -1.8376  1.8108
  151OSM    C6F16808   1.887   1.463   3.333  0.2003 -0.3438 -0.2550
  151OSM    H6F16809   1.834   1.556   3.305  0.1715 -0.7553 -1.6336
  151OSM    H6G16810   1.991   1.478   3.297  0.2501 -1.5473 -0.6640
  151OSM    C7F16811   1.889   1.460   3.489  0.2805 -0.2516 -0.2500
  151OSM    H7F16812   1.958   1.540   3.526  1.8080 -2.1860  1.3484
  151OSM    H7G16813   1.940   1.371   3.531 -0.4932 -0.1001  1.0466
  151OSM    C8F16814   1.747   1.475   3.555  0.9305  0.4120  0.1447
  151OSM    H8F16815   1.758   1.460   3.664 -0.4007  3.4401  0.7920
  151OSM    H8G16816   1.696   1.381   3.524  1.2976 -0.5323  2.2103
  151OSM    C9F16817   1.676   1.602   3.525 -0.1541 -0.8329 -1.1270
  151OSM    H9F16818   1.696   1.646   3.426  1.9015 -1.1447 -0.8924
  151OSM   C10F16819   1.604   1.678   3.610  0.2058 -0.3374  0.2263
  151OSM   H10F16820   1.551   1.763   3.566 -0.8006 -1.4349 -0.7771
  151OSM   C11F16821   1.568   1.644   3.751 -0.2791 -0.1556 -0.2469
  151OSM   H11F16822   1.524   1.543   3.757 -1.3927  0.2131 -1.5557
  151OSM   H11G16823   1.493   1.720   3.783 -0.6967 -1.6659  2.5781
  151OSM   C12F16824   1.680   1.659   3.858 -0.5227 -0.2453  1.1321
  151OSM   H12F16825   1.725   1.760   3.846  0.3804 -0.6018  1.5246
  151OSM   H12G16826   1.759   1.583   3.842 -0.5116  0.0695 -0.4380
  151OSM   C13F16827   1.612   1.637   3.993 -0.7714 -0.8013  0.1156
  151OSM   H13F16828   1.545   1.548   3.993 -2.2301  0.2472  1.3788
  151OSM   H13G16829   1.540   1.722   4.002  1.1605  1.0037 -0.6918
  151OSM   C14F16830   1.695   1.652   4.118 -0.2611 -0.3207  0.1178
  151OSM   H14F16831   1.745   1.750   4.107 -2.5847  0.8182 -1.0717
  151OSM   H14G16832   1.780   1.582   4.132  1.8817  1.8234 -1.4724
  151OSM   C15F16833   1.602   1.648   4.243  0.5602  0.3798  0.5929
  151OSM   H15F16834   1.587   1.544   4.280 -2.9990 -0.1988 -1.9165
  151OSM   H15G16835   1.502   1.684   4.212  1.1720  1.2478 -0.4392
  151OSM   C16F16836   1.668   1.735   4.350  0.0819 -0.3001 -0.2782
  151OSM   H16F16837   1.594   1.740   4.433  2.2268  0.3113  1.6855
  151OSM   H16G16838   1.691   1.843   4.331 -1.3135  0.5156  2.1949
  151OSM   C17F16839   1.795   1.678   4.408  0.4280 -0.1725 -0.2651
  151OSM   H17F16840   1.880   1.696   4.338  1.7617 -0.6944  1.1672
  151OSM   H17G16841   1.785   1.569   4.428  2.0335  0.0105  1.8336
  151OSM   C18F16842   1.840   1.736   4.545  0.6557 -0.0479 -0.3173
  151OSM   H18F16843   1.754   1.736   4.615  2.0541  1.1547  1.4668
  151OSM   H18G16844   1.861   1.844   4.533 -0.0885  0.1692  0.2689
  151OSM   H18H16845   1.934   1.687   4.577  1.5337  2.3340  0.9567
  152OSM      N16846   5.323   2.879   2.781 -0.4867  0.2467  0.2255
  152OSM    C1516847   5.187   2.932   2.766 -0.5437 -0.1829  0.1475
  152OSM   H15A16848   5.175   3.026   2.818  0.9221 -0.1807  0.5361
  152OSM   H15B16849   5.114   2.878   2.823 -1.9962  3.4290  2.0759
  152OSM   H15C16850   5.165   2.950   2.662  0.6438  1.1591  0.0890
  152OSM    C1416851   5.339   2.748   2.697 -0.4849  0.1313 -0.4991
  152OSM   H14A16852   5.312   2.774   2.596  0.0822  0.3221 -0.6029
  152OSM   H14B16853   5.286   2.668   2.748 -0.5017  0.6122  0.2566
  152OSM   H14C16854   5.445   2.729   2.697 -0.5560 -0.2757 -0.7215
  152OSM    C1316855   5.424   2.980   2.729  0.2373  0.1655 -0.3882
  152OSM   H13A16856   5.424   3.063   2.798  0.0671 -0.3929  0.2937
  152OSM   H13B16857   5.395   3.008   2.629 -1.2202 -0.4602 -0.1756
  152OSM   H13C16858   5.521   2.934   2.720 -0.7011 -1.6783 -1.7518
  152OSM    C1216859   5.350   2.850   2.928 -0.2616  0.1308  0.3330
  152OSM   H12A16860   5.337   2.945   2.977 -1.4407  0.9806 -1.5123
  152OSM   H12B16861   5.452   2.823   2.951 -0.4577 -0.8051  0.1564
  152OSM    C1116862   5.253   2.750   2.999 -0.5742 -0.3719 -0.0996
  152OSM   H11A16863   5.149   2.787   2.985  0.2751  2.5306  0.5224
  152OSM   H11B16864   5.284   2.754   3.105 -1.0478 -1.5785  0.0946
  152OSM      P16865   5.368   2.516   3.029 -0.0384  0.0725  0.3266
  152OSM    O1316866   5.323   2.381   2.986 -0.1620 -0.7337 -0.2196
  152OSM    O1416867   5.510   2.549   2.997 -0.2151 -0.6332 -0.6940
  152OSM    O1116868   5.340   2.535   3.180  0.4719  0.4396  0.2052
  152OSM    O1216869   5.269   2.616   2.955  0.0771 -0.0104 -0.3772
  152OSM    C1S16870   5.275   2.441   3.268 -0.5100  0.3089  0.4933
  152OSM    H1S16871   5.315   2.341   3.240 -0.8802  1.1377 -3.6549
  152OSM    H1T16872   5.164   2.433   3.259 -0.5215  0.5450  0.4179
  152OSM     NF16873   5.247   2.373   3.509 -0.8804  0.0107  0.4089
  152OSM    HNF16874   5.164   2.387   3.563 -0.8986 -0.7362  0.5862
  152OSM    C2S16875   5.298   2.480   3.422 -0.5534 -0.1688 -0.2116
  152OSM    H2S16876   5.408   2.486   3.437 -0.7621 -0.8188  2.0944
  152OSM    C3S16877   5.238   2.619   3.455  0.0886 -0.1767  0.7168
  152OSM    H3S16878   5.133   2.611   3.421  0.6801 -2.3940 -0.8003
  152OSM     O316879   5.317   2.723   3.395 -0.2585  0.0447  0.2219
  152OSM    HO316880   5.347   2.682   3.314 -0.7271  1.1046 -0.4949
  152OSM    C4S16881   5.242   2.654   3.598  0.5128 -0.4503 -0.1177
  152OSM    H4S16882   5.337   2.687   3.643  0.4063  0.2603 -0.3932
  152OSM    C5S16883   5.135   2.640   3.677  0.4882  0.9415  0.0764
  152OSM    H5S16884   5.045   2.593   3.634 -0.1316  2.6796 -0.5998
  152OSM    C6S16885   5.129   2.699   3.819 -0.6069 -0.4424 -0.2630
  152OSM    H6S16886   5.050   2.776   3.821  0.1620  0.3772 -0.9025
  152OSM    H6T16887   5.218   2.760   3.843 -0.7976 -0.1392 -0.3255
  152OSM    C7S16888   5.109   2.598   3.934 -0.3072 -0.1370  0.0791
  152OSM    H7S16889   5.204   2.549   3.966 -0.2252 -0.9522 -1.3233
  152OSM    H7T16890   5.034   2.519   3.910 -1.5508  1.6116 -2.2456
  152OSM    C8S16891   5.054   2.658   4.061  0.7596  0.0176  0.0521
  152OSM    H8S16892   5.042   2.569   4.126 -0.0929  0.2902  0.2831
  152OSM    H8T16893   4.949   2.691   4.045  0.0847 -2.4397 -1.1370
  152OSM    C9S16894   5.154   2.754   4.128  0.1733  0.2546 -0.0329
  152OSM    H9S16895   5.149   2.854   4.078 -0.8772  0.8277  1.1469
  152OSM    H9T16896   5.255   2.709   4.120  0.0868 -0.0892  0.7212
  152OSM   C10S16897   5.113   2.780   4.281  0.1728 -0.3075  0.2336
  152OSM   H10S16898   5.110   2.687   4.342 -1.4925 -0.0914  0.5388
  152OSM   H10T16899   5.009   2.817   4.296  0.3858  0.0282  0.9718
  152OSM   C11S16900   5.190   2.882   4.366 -0.0407 -0.1910 -0.6308
  152OSM   H11S16901   5.133   2.902   4.459 -0.0699  0.4614 -0.7799
  152OSM   H11T16902   5.198   2.979   4.311 -1.3458  1.6149  2.1473
  152OSM   C12S16903   5.327   2.828   4.418 -0.2899 -0.7694 -0.2951
  152OSM   H12S16904   5.392   2.833   4.328 -1.8812  1.1024 -1.4238
  152OSM   H12T16905   5.312   2.723   4.453  1.7699 -1.4620 -1.3149
  152OSM   C13S16906   5.375   2.914   4.535 -0.5585  0.2047  0.5712
  152OSM   H13S16907   5.476   2.880   4.565 -0.6210 -0.7517 -0.2541
  152OSM   H13T16908   5.303   2.896   4.618 -1.0864  0.6315  0.2164
  152OSM   C14S16909   5.387   3.073   4.509 -0.5556 -0.0815 -0.0239
  152OSM   H14S16910   5.286   3.110   4.481  0.0835  0.1363 -2.2815
  152OSM   H14T16911   5.461   3.093   4.428  1.1548 -0.0286  1.4848
  152OSM   C15S16912   5.450   3.150   4.627 -0.3869  0.1166 -0.0367
  152OSM   H15S16913   5.554   3.117   4.650  0.2645  2.6879  1.0882
  152OSM   H15T16914   5.384   3.121   4.712 -0.0104  0.5656  0.4184
  152OSM   C16S16915   5.445   3.303   4.605  0.1107 -0.0055 -0.1662
  152OSM   H16S16916   5.342   3.341   4.595  0.9618  3.0069  1.3865
  152OSM   H16T16917   5.499   3.334   4.513  0.3619 -0.5723 -0.2129
  152OSM   C17S16918   5.485   3.374   4.735  0.1910  1.2439  0.1763
  152OSM   H17S16919   5.587   3.347   4.769 -0.2686 -0.4106  0.3122
  152OSM   H17T16920   5.418   3.331   4.812  0.2286  1.2732  0.2256
  152OSM   C18S16921   5.459   3.525   4.738 -0.5317 -0.2650 -1.1444
  152OSM   H18S16922   5.350   3.546   4.733 -0.2632  2.2425  1.0995
  152OSM   H18T16923   5.508   3.576   4.653 -0.9554 -1.9332 -2.4299
  152OSM   H18U16924   5.479   3.569   4.838 -0.6398 -2.0019 -0.3089
  152OSM    C1F16925   5.283   2.245   3.505  1.1090  0.4603 -0.1226
  152OSM     OF16926   5.378   2.217   3.436  0.9217  0.3746  0.5794
  152OSM    C2F16927   5.209   2.137   3.582 -0.1830  0.7687  0.5469
  152OSM    H2F16928   5.187   2.051   3.516  2.6773  0.1507  0.2647
  152OSM    H2G16929   5.115   2.179   3.625 -1.4468 -0.4507 -0.9164
  152OSM    C3F16930   5.299   2.079   3.697 -0.3462 -0.1484  0.1418
  152OSM    H3F16931   5.383   2.023   3.652  0.4532  0.3296  1.0005
  152OSM    H3G16932   5.228   2.014   3.752 -0.6058  1.2523  1.5442
  152OSM    C4F16933   5.354   2.189   3.773  0.2141 -0.5567  0.2724
  152OSM    H4F16934   5.412   2.258   3.708  0.5163 -0.8281  0.2503
  152OSM    H4G16935   5.430   2.147   3.843  0.9874  0.4838  0.0840
  152OSM    C5F16936   5.265   2.263   3.860 -0.4524  0.7881 -0.0698
  152OSM    H5F16937   5.164   2.262   3.814 -0.1289 -0.2079 -0.7754
  152OSM    H5G16938   5.296   2.369   3.870  0.5394  0.7035 -1.8596
  152OSM    C6F16939   5.255   2.195   3.996  0.6832  0.0674 -0.6651
  152OSM    H6F16940   5.350   2.207   4.052 -0.1278  3.0436  0.2470
  152OSM    H6G16941   5.228   2.090   3.972  0.3607  0.0276 -0.1514
  152OSM    C7F16942   5.130   2.243   4.075  0.6387 -0.4112 -0.3710
  152OSM    H7F16943   5.048   2.252   4.000  0.2444  0.0818  0.1124
  152OSM    H7G16944   5.151   2.344   4.117 -0.6301 -0.4139  0.3065
  152OSM    C8F16945   5.070   2.145   4.180 -0.2648  0.2307 -0.5368
  152OSM    H8F16946   5.051   2.044   4.138 -2.7335 -0.2072  1.3303
  152OSM    H8G16947   4.980   2.182   4.235 -0.4932 -0.6013 -0.3311
  152OSM    C9F16948   5.176   2.128   4.289 -0.3783  0.7363  0.0254
  152OSM    H9F16949   5.272   2.180   4.272  0.3573 -1.2220 -2.3835
  152OSM   C10F16950   5.149   2.064   4.404 -0.2487 -0.5562 -0.3932
  152OSM   H10F16951   5.239   2.056   4.466  0.7407  0.9668 -1.5670
  152OSM   C11F16952   5.020   1.994   4.440 -0.0041  0.5976 -0.2040
  152OSM   H11F16953   5.034   1.885   4.458  0.7451  1.1788  3.6079
  152OSM   H11G16954   4.938   2.025   4.373  0.0071  1.3945  0.1429
  152OSM   C12F16955   4.971   2.039   4.581  0.0047  0.3436  0.2571
  152OSM   H12F16956   4.879   1.980   4.603  0.8407 -1.0091  0.1951
  152OSM   H12G16957   4.946   2.148   4.579 -0.3234  0.2592 -1.0414
  152OSM   C13F16958   5.069   2.016   4.698 -0.0845  0.0297 -0.8949
  152OSM   H13F16959   5.156   2.084   4.688  1.3192 -1.8132 -1.8642
  152OSM   H13G16960   5.108   1.912   4.686  1.0428  0.6499 -3.0011
  152OSM   C14F16961   5.005   2.043   4.836  0.7696 -0.3098 -0.2523
  152OSM   H14F16962   4.919   1.974   4.854 -1.3940  1.2450 -3.5263
  152OSM   H14G16963   4.951   2.140   4.835  0.8959 -0.0965  3.1483
  152OSM   C15F16964   5.101   2.056   4.954 -0.4415  0.9985 -0.6036
  152OSM   H15F16965   5.185   2.128   4.949  1.9502 -1.4225  1.5294
  152OSM   H15G16966   5.145   1.954   4.953 -1.3868  0.4818 -4.4809
  152OSM   C16F16967   5.032   2.080   5.092 -0.5071  0.5963  0.5426
  152OSM   H16F16968   5.109   2.110   5.166  3.0106 -1.1000 -2.0891
  152OSM   H16G16969   4.990   1.984   5.129  0.9872 -0.9950 -1.6180
  152OSM   C17F16970   4.925   2.196   5.101 -0.2353  0.0503  0.1049
  152OSM   H17F16971   4.895   2.205   5.208 -0.6410  1.8691 -0.1338
  152OSM   H17G16972   4.834   2.180   5.040 -1.1109  2.2932  0.7282
  152OSM   C18F16973   4.982   2.326   5.057 -0.2633 -0.2547  0.1106
  152OSM   H18F16974   4.891   2.389   5.052 -0.0564 -0.0441 -1.2339
  152OSM   H18G16975   5.018   2.325   4.952  0.2714  0.1789  0.2823
  152OSM   H18H16976   5.062   2.366   5.124  0.8259 -2.4693  0.2239
  153OSM      N16977   2.825   1.972   1.909 -0.4587 -0.6714  0.1389
  153OSM    C1516978   2.864   2.062   1.794  0.5639  0.1065  0.2316
  153OSM   H15A16979   2.945   2.027   1.732  2.6795 -1.1375  3.4365
  153OSM   H15B16980   2.887   2.162   1.829  1.8685 -0.2346  0.3944
  153OSM   H15C16981   2.778   2.071   1.729  2.0801 -0.8440 -2.0514
  153OSM    C1416982   2.710   2.039   1.978 -1.2946 -0.0606  0.5386
  153OSM   H14A16983   2.735   2.140   2.006 -1.8328  1.3870 -3.6280
  153OSM   H14B16984   2.683   1.977   2.063 -0.2959  1.3708  1.9496
  153OSM   H14C16985   2.626   2.046   1.911 -0.0129  1.7311 -0.9435
  153OSM    C1316986   2.771   1.844   1.861  0.2739  0.0714  0.5043
  153OSM   H13A16987   2.679   1.852   1.805  0.1482  0.5012  0.7642
  153OSM   H13B16988   2.757   1.777   1.944 -2.1878  0.5249  0.5421
  153OSM   H13C16989   2.840   1.798   1.793  0.6175 -2.2335  2.2992
  153OSM    C1216990   2.946   1.959   2.002  0.3438  0.3443  0.4230
  153OSM   H12A16991   3.002   2.049   2.024  0.3161  0.2282  0.9689
  153OSM   H12B16992   3.018   1.896   1.951 -1.3951 -0.8020 -0.7385
  153OSM    C1116993   2.908   1.883   2.128  0.1271 -0.3583 -0.9018
  153OSM   H11A16994   2.866   1.787   2.091 -1.6036  0.2683 -0.6832
  153OSM   H11B16995   2.834   1.931   2.196  1.2390  0.5607 -0.3138
  153OSM      P16996   3.076   1.740   2.276 -0.6856  0.5000 -0.5126
  153OSM    O1316997   3.019   1.623   2.207 -0.3811 -0.2353  0.3428
  153OSM    O1416998   3.223   1.732   2.306 -0.3119 -0.3040 -0.2533
  153OSM    O1116999   2.993   1.761   2.410  0.0802 -0.0227  0.2905
  153OSM    O1217000   3.036   1.871   2.193  0.7479 -0.0680 -0.1105
  153OSM    C1S17001   3.029   1.683   2.521  0.4216 -0.7076  0.5822
  153OSM    H1S17002   3.088   1.590   2.503  3.9784  1.4469  0.1020
  153OSM    H1T17003   2.934   1.642   2.560  0.1998 -2.0081 -1.1878
  153OSM     NF17004   3.084   1.692   2.763  0.6663  0.7344  0.2042
  153OSM    HNF17005   2.994   1.691   2.807 -0.2284  3.0238 -1.4222
  153OSM    C2S17006   3.084   1.771   2.641  0.1021  0.2620 -0.5827
  153OSM    H2S17007   3.189   1.788   2.609  0.8658 -0.1225  1.5624
  153OSM    C3S17008   3.003   1.911   2.650  0.0298 -0.4574  0.3106
  153OSM    H3S17009   2.902   1.885   2.613  0.4091 -1.9608  0.2445
  153OSM     O317010   3.052   2.012   2.557 -0.0500  0.3603  0.1775
  153OSM    HO317011   3.130   1.976   2.515  0.6398  2.0110 -0.0364
  153OSM    C4S17012   3.003   1.976   2.781 -0.2188  0.2149  0.4869
  153OSM    H4S17013   3.098   1.975   2.837 -1.3823  1.5704  2.6319
  153OSM    C5S17014   2.892   2.016   2.844 -0.2649  0.0248 -1.0187
  153OSM    H5S17015   2.792   1.988   2.810 -0.7458  0.7434 -0.2336
  153OSM    C6S17016   2.910   2.072   2.989 -0.0987  0.4153 -0.3366
  153OSM    H6S17017   2.815   2.062   3.045  0.0745  0.2351 -0.0734
  153OSM    H6T17018   2.945   2.177   2.990  0.9110  0.1050  1.2423
  153OSM    C7S17019   3.019   2.004   3.079  0.2718 -0.7102 -0.3132
  153OSM    H7S17020   3.119   2.042   3.051  1.4863 -1.0889  3.0486
  153OSM    H7T17021   3.027   1.895   3.061 -1.0052 -1.0067  0.7292
  153OSM    C8S17022   2.975   2.023   3.223 -0.1496 -0.8702 -0.1900
  153OSM    H8S17023   2.873   1.983   3.242 -1.2836  0.9134 -2.1245
  153OSM    H8T17024   2.971   2.131   3.247 -0.8492 -0.6950 -1.0369
  153OSM    C9S17025   3.069   1.949   3.326  0.7098 -0.5694  0.6080
  153OSM    H9S17026   3.169   1.996   3.314 -0.1816  1.6230  1.1453
  153OSM    H9T17027   3.082   1.839   3.324  0.7724 -0.5904  1.7201
  153OSM   C10S17028   3.013   1.990   3.465 -0.1978 -0.0539 -0.4705
  153OSM   H10S17029   2.903   1.993   3.476 -0.4808  3.2949 -2.6057
  153OSM   H10T17030   3.046   2.096   3.478 -0.3344  0.0599 -1.0174
  153OSM   C11S17031   3.077   1.889   3.565  0.1108 -0.7852  0.2973
  153OSM   H11S17032   3.186   1.902   3.547  0.1034 -1.1548 -0.0169
  153OSM   H11T17033   3.056   1.783   3.540 -2.5713 -0.3009  0.2175
  153OSM   C12S17034   3.034   1.901   3.715  0.5893  0.3883 -0.2803
  153OSM   H12S17035   3.110   1.849   3.777 -0.5332 -1.9418 -0.7688
  153OSM   H12T17036   2.937   1.854   3.740  1.2527 -1.6717 -1.3191
  153OSM   C13S17037   3.030   2.049   3.760 -0.6991  0.7719 -0.2426
  153OSM   H13S17038   2.964   2.114   3.700  0.6619  1.7838 -0.6866
  153OSM   H13T17039   3.135   2.083   3.756  0.2278 -1.7431  0.5243
  153OSM   C14S17040   2.994   2.058   3.909 -0.8856 -0.0226 -0.0997
  153OSM   H14S17041   2.894   2.012   3.926  0.0478 -1.1044  3.2193
  153OSM   H14T17042   2.986   2.165   3.941 -2.5835 -0.7399  2.1538
  153OSM   C15S17043   3.096   2.000   4.008 -0.3706 -0.0343  0.1735
  153OSM   H15S17044   3.186   2.056   3.977  1.1698 -3.6020 -2.5774
  153OSM   H15T17045   3.114   1.894   3.978  0.4154  0.4682 -1.2148
  153OSM   C16S17046   3.061   2.020   4.151  0.4387 -0.1185 -0.2687
  153OSM   H16S17047   2.976   1.955   4.181 -0.3240  1.2662  0.6924
  153OSM   H16T17048   3.012   2.118   4.167  1.5306  0.5932 -1.1409
  153OSM   C17S17049   3.164   2.001   4.266 -0.1311 -0.2544  0.1444
  153OSM   H17S17050   3.254   2.059   4.238 -1.5696  1.5986 -0.9116
  153OSM   H17T17051   3.203   1.899   4.286  2.0670  0.7760  1.4418
  153OSM   C18S17052   3.102   2.044   4.399  0.3645 -0.2999  0.0937
  153OSM   H18S17053   3.158   2.012   4.489 -1.0147  0.4052  1.2331
  153OSM   H18T17054   3.003   1.995   4.408  0.6499 -0.7492  0.9223
  153OSM   H18U17055   3.098   2.155   4.397 -0.1963 -0.3237 -0.3873
  153OSM    C1F17056   3.162   1.594   2.788 -0.6052  0.3828  0.3925
  153OSM     OF17057   3.234   1.552   2.696 -0.0038  0.4113 -0.2259
  153OSM    C2F17058   3.162   1.533   2.926 -0.5428 -0.2323 -0.2135
  153OSM    H2F17059   3.226   1.443   2.920 -0.0944  0.1300 -1.2582
  153OSM    H2G17060   3.057   1.508   2.953 -0.3236 -0.3397  0.5589
  153OSM    C3F17061   3.212   1.632   3.035  0.3345 -0.3930 -0.3225
  153OSM    H3F17062   3.137   1.711   3.055  0.2074 -1.0814  2.3462
  153OSM    H3G17063   3.303   1.690   3.008  0.0226  0.6425  0.7730
  153OSM    C4F17064   3.238   1.560   3.169  0.4385 -0.1617 -0.9131
  153OSM    H4F17065   3.255   1.634   3.250 -1.7130  0.3500 -0.8650
  153OSM    H4G17066   3.334   1.505   3.177  0.7067  0.5092  1.0560
  153OSM    C5F17067   3.129   1.465   3.212 -0.0941 -0.2564 -0.1907
  153OSM    H5F17068   3.119   1.384   3.137 -1.5716  0.4343 -0.7718
  153OSM    H5G17069   3.029   1.513   3.210 -1.0083 -1.7925 -5.4841
  153OSM    C6F17070   3.145   1.394   3.343 -0.2682 -0.0770  0.0522
  153OSM    H6F17071   3.245   1.349   3.361 -0.3530 -0.4368 -0.3699
  153OSM    H6G17072   3.082   1.303   3.342 -0.0869 -0.2010 -0.1857
  153OSM    C7F17073   3.109   1.479   3.460  0.0423 -0.7168  0.3642
  153OSM    H7F17074   3.002   1.508   3.447  0.6555  1.2616 -0.7389
  153OSM    H7G17075   3.161   1.577   3.461 -1.7251  0.2635  2.0623
  153OSM    C8F17076   3.134   1.403   3.593 -0.2177 -0.7187  0.2641
  153OSM    H8F17077   3.160   1.296   3.582 -2.0485 -1.1007 -0.6868
  153OSM    H8G17078   3.041   1.398   3.652 -1.0038  1.3657 -0.6782
  153OSM    C9F17079   3.234   1.477   3.682 -0.0146 -0.4095 -0.2108
  153OSM    H9F17080   3.340   1.476   3.651 -0.1810 -0.6048 -0.7747
  153OSM   C10F17081   3.200   1.543   3.796  0.0267 -0.8812  0.0812
  153OSM   H10F17082   3.283   1.591   3.851 -2.8380  3.3453  1.1816
  153OSM   C11F17083   3.062   1.563   3.853 -0.2517 -0.2891 -0.5133
  153OSM   H11F17084   2.990   1.572   3.769  0.8477 -0.2158 -1.4680
  153OSM   H11G17085   3.048   1.662   3.903  0.2021 -0.4452 -0.0677
  153OSM   C12F17086   3.019   1.435   3.934  0.9505  1.4812 -0.4408
  153OSM   H12F17087   3.101   1.417   4.006 -0.3642 -1.7391  0.3859
  153OSM   H12G17088   2.998   1.347   3.869  1.3380 -0.0537  1.4287
  153OSM   C13F17089   2.886   1.456   4.009  0.3851 -0.4622  0.6982
  153OSM   H13F17090   2.810   1.475   3.929  2.9023  0.2046 -1.7043
  153OSM   H13G17091   2.886   1.555   4.058  2.7850  0.1042 -0.3148
  153OSM   C14F17092   2.857   1.341   4.109 -0.2121  0.9194 -0.3923
  153OSM   H14F17093   2.933   1.343   4.189 -0.1732  2.5554 -0.4504
  153OSM   H14G17094   2.870   1.243   4.057  0.5439  0.1081  1.2436
  153OSM   C15F17095   2.721   1.345   4.177 -0.5887  0.1737  0.1887
  153OSM   H15F17096   2.697   1.243   4.214 -0.8149  0.4210  0.7381
  153OSM   H15G17097   2.653   1.362   4.090  0.0938 -2.1657 -0.8808
  153OSM   C16F17098   2.697   1.448   4.289  0.0329 -0.1846  0.3921
  153OSM   H16F17099   2.600   1.490   4.252  1.6833  1.1830 -2.7279
  153OSM   H16G17100   2.775   1.526   4.273 -0.3521 -0.0296 -0.8349
  153OSM   C17F17101   2.692   1.391   4.431  0.4174  0.3922  0.3605
  153OSM   H17F17102   2.597   1.334   4.434 -0.6791  1.9212 -2.0839
  153OSM   H17G17103   2.671   1.470   4.505 -1.2292 -1.2231  1.7197
  153OSM   C18F17104   2.805   1.298   4.477  0.9052 -0.3462 -0.2442
  153OSM   H18F17105   2.766   1.251   4.569 -1.3388  3.1799  0.8034
  153OSM   H18G17106   2.900   1.355   4.488 -1.0271  2.7838  1.7921
  153OSM   H18H17107   2.821   1.222   4.398 -0.3080 -2.7804  1.7322
  154OSM      N17108   5.941   4.952   2.825 -0.2312 -0.0648 -0.3641
  154OSM    C1517109   5.800   4.921   2.862 -0.6706  0.3302  0.3350
  154OSM   H15A17110   5.728   4.928   2.782 -1.7377 -0.8658  1.1702
  154OSM   H15B17111   5.763   4.988   2.938 -0.7669 -0.5046  1.0348
  154OSM   H15C17112   5.780   4.821   2.897 -0.6100 -0.5126 -1.8893
  154OSM    C1417113   5.940   5.084   2.750  1.0714  0.1501 -0.0821
  154OSM   H14A17114   5.839   5.103   2.716  0.5273  0.9165  1.8085
  154OSM   H14B17115   6.014   5.077   2.672 -0.3673 -3.0247 -1.3328
  154OSM   H14C17116   5.970   5.171   2.807  1.6561  0.4607 -0.8434
  154OSM    C1317117   6.012   4.978   2.956 -0.1064  0.1194  0.5608
  154OSM   H13A17118   5.958   5.055   3.011 -2.8416 -0.9487 -0.4361
  154OSM   H13B17119   6.111   5.012   2.931 -0.8391 -0.0511 -3.1492
  154OSM   H13C17120   6.014   4.884   3.008 -0.5425  0.4237  1.1546
  154OSM    C1217121   6.001   4.836   2.749  0.2035 -0.0766 -0.1406
  154OSM   H12A17122   5.936   4.820   2.664 -1.1103  1.2339  0.5674
  154OSM   H12B17123   5.993   4.748   2.810 -4.4826 -1.8861 -2.8790
  154OSM    C1117124   6.140   4.846   2.683 -0.5598  0.8922 -0.4079
  154OSM   H11A17125   6.142   4.752   2.624 -0.4759 -1.6771  3.3369
  154OSM   H11B17126   6.222   4.833   2.757  1.5374 -0.4811 -2.8052
  154OSM      P17127   6.264   5.069   2.618 -0.2828 -0.0128  0.5758
  154OSM    O1317128   6.372   5.042   2.522 -0.5558 -0.4907 -0.0817
  154OSM    O1417129   6.209   5.208   2.618 -0.0417  0.2573 -0.6131
  154OSM    O1117130   6.332   5.041   2.762  0.0220 -0.9192 -0.4109
  154OSM    O1217131   6.149   4.965   2.602 -0.2123  0.2352 -0.1579
  154OSM    C1S17132   6.412   5.135   2.823  0.1666  0.0749 -1.0354
  154OSM    H1S17133   6.419   5.228   2.763 -0.5805 -0.0822 -1.3797
  154OSM    H1T17134   6.512   5.087   2.831  0.0510 -0.2623 -1.5329
  154OSM     NF17135   6.426   5.289   3.024  0.3759 -0.2688 -0.2315
  154OSM    HNF17136   6.489   5.275   3.100  1.6454 -0.3331 -1.2743
  154OSM    C2S17137   6.366   5.169   2.976  0.4490 -0.0441 -0.0248
  154OSM    H2S17138   6.260   5.196   2.958  0.0273 -1.8570 -0.3954
  154OSM    C3S17139   6.384   5.043   3.071  0.8936 -0.2766  0.3692
  154OSM    H3S17140   6.492   5.021   3.061  1.3175  1.9121 -0.5140
  154OSM     O317141   6.314   4.932   3.020 -0.3748 -0.1113 -0.0372
  154OSM    HO317142   6.301   4.962   2.929 -2.1516  2.5014  0.9284
  154OSM    C4S17143   6.335   5.070   3.210 -0.2566  0.9613 -0.1497
  154OSM    H4S17144   6.412   5.111   3.277  0.6444 -0.5847 -0.1845
  154OSM    C5S17145   6.225   5.025   3.269  0.1608 -0.3148 -0.4054
  154OSM    H5S17146   6.154   4.962   3.213 -0.4358 -0.0038 -0.0189
  154OSM    C6S17147   6.194   5.031   3.416 -0.5836 -0.3101  0.0284
  154OSM    H6S17148   6.252   4.953   3.469  0.1365 -1.6260 -2.5197
  154OSM    H6T17149   6.090   4.998   3.436 -0.7455 -0.6762 -1.3355
  154OSM    C7S17150   6.206   5.164   3.494 -0.0954 -0.3266  0.9055
  154OSM    H7S17151   6.133   5.236   3.452  1.8342  0.9470 -0.4837
  154OSM    H7T17152   6.303   5.215   3.473 -0.4342  0.4740  1.2570
  154OSM    C8S17153   6.171   5.140   3.642 -0.8057  0.2030 -0.1784
  154OSM    H8S17154   6.243   5.071   3.691 -0.9875 -0.0364 -0.2470
  154OSM    H8T17155   6.074   5.086   3.641  0.9818 -3.2550 -0.6794
  154OSM    C9S17156   6.155   5.263   3.718  0.5131 -0.5184  0.3520
  154OSM    H9S17157   6.075   5.328   3.676  0.0289 -1.5138 -0.2846
  154OSM    H9T17158   6.251   5.318   3.708  0.9701 -1.6553 -2.1546
  154OSM   C10S17159   6.130   5.245   3.867  0.1190  0.4961 -0.0294
  154OSM   H10S17160   6.196   5.160   3.896 -0.5070 -0.0626 -0.2194
  154OSM   H10T17161   6.025   5.214   3.882  0.2794  1.2883  4.0700
  154OSM   C11S17162   6.167   5.357   3.957  0.1752  0.0573 -0.0439
  154OSM   H11S17163   6.097   5.440   3.935  0.0886  0.0526  0.2162
  154OSM   H11T17164   6.276   5.379   3.947  1.2373 -3.4486  1.9924
  154OSM   C12S17165   6.160   5.328   4.111  0.3614 -0.4150  0.1548
  154OSM   H12S17166   6.227   5.240   4.121 -0.3864 -1.2666 -1.8285
  154OSM   H12T17167   6.057   5.291   4.125  0.7980 -1.6087  0.3789
  154OSM   C13S17168   6.193   5.436   4.207 -0.5629  0.2392 -0.4715
  154OSM   H13S17169   6.129   5.526   4.194  0.5615  0.7932 -2.9377
  154OSM   H13T17170   6.298   5.469   4.189 -1.1141  1.5050 -1.5551
  154OSM   C14S17171   6.171   5.387   4.350  0.0976 -0.6789 -0.3666
  154OSM   H14S17172   6.181   5.468   4.426  0.9338 -0.4129 -0.7466
  154OSM   H14T17173   6.256   5.319   4.372 -0.2956 -0.5674  1.7169
  154OSM   C15S17174   6.036   5.328   4.379  0.8817 -0.1430 -0.4959
  154OSM   H15S17175   6.014   5.230   4.332 -3.1076  1.2090 -1.8304
  154OSM   H15T17176   5.949   5.383   4.337 -1.0422 -2.5406  0.1583
  154OSM   C16S17177   6.016   5.313   4.535  0.5598 -0.4536  0.2173
  154OSM   H16S17178   5.916   5.268   4.556  0.6287 -1.4163 -1.3559
  154OSM   H16T17179   6.012   5.414   4.581 -2.5644  0.3886 -1.6078
  154OSM   C17S17180   6.112   5.215   4.597  0.7143  0.8622 -0.6087
  154OSM   H17S17181   6.214   5.256   4.588  1.2635  0.6839  3.2079
  154OSM   H17T17182   6.111   5.118   4.542 -0.3680 -0.1095  1.0296
  154OSM   C18S17183   6.088   5.194   4.746  0.7342 -0.1171  0.3877
  154OSM   H18S17184   6.170   5.134   4.791 -0.4710 -0.9497  1.5275
  154OSM   H18T17185   5.991   5.142   4.761  0.6789  0.4336  2.1362
  154OSM   H18U17186   6.080   5.288   4.804 -1.9705 -0.0620  0.0593
  154OSM    C1F17187   6.401   5.410   2.981  0.8469  0.2943  0.4419
  154OSM     OF17188   6.315   5.436   2.895 -0.5222 -0.1389 -0.0525
  154OSM    C2F17189   6.503   5.513   3.037 -0.2378 -0.4815  0.1500
  154OSM    H2F17190   6.539   5.585   2.961 -1.1482  1.0719  1.1237
  154OSM    H2G17191   6.597   5.456   3.052 -0.9820 -1.8855 -0.4385
  154OSM    C3F17192   6.464   5.575   3.169 -0.0982 -0.1847 -0.9499
  154OSM    H3F17193   6.456   5.492   3.242  1.0339  0.5602  0.0645
  154OSM    H3G17194   6.372   5.637   3.156 -0.0468  0.5945  1.7632
  154OSM    C4F17195   6.579   5.654   3.233  0.2366  0.2678 -0.5042
  154OSM    H4F17196   6.585   5.749   3.176 -1.6150 -1.7454 -4.4832
  154OSM    H4G17197   6.678   5.606   3.219  0.1214  0.3874 -1.8817
  154OSM    C5F17198   6.545   5.674   3.382 -0.5423 -0.4057  0.4175
  154OSM    H5F17199   6.532   5.571   3.422  1.0693  0.0943  2.3933
  154OSM    H5G17200   6.445   5.721   3.384 -0.9412 -1.1912 -0.4015
  154OSM    C6F17201   6.645   5.752   3.465 -0.4269  0.2761  0.6819
  154OSM    H6F17202   6.637   5.862   3.451  0.2838 -0.0095 -3.0004
  154OSM    H6G17203   6.748   5.715   3.448 -0.5348 -0.9878  2.5451
  154OSM    C7F17204   6.616   5.727   3.613 -0.0798 -0.8855 -0.2380
  154OSM    H7F17205   6.609   5.618   3.630  0.2540 -1.0944 -1.3637
  154OSM    H7G17206   6.518   5.766   3.647 -0.1258 -0.9908 -0.2515
  154OSM    C8F17207   6.732   5.785   3.701  0.1361  0.2783 -0.2653
  154OSM    H8F17208   6.826   5.748   3.656  0.0075 -0.0424 -0.2696
  154OSM    H8G17209   6.719   5.730   3.797 -0.5138  1.6911  0.4963
  154OSM    C9F17210   6.735   5.934   3.708  0.6690  0.3216 -0.6734
  154OSM    H9F17211   6.775   5.976   3.615  0.2652  3.4202  0.4491
  154OSM   C10F17212   6.732   6.014   3.815 -0.3833 -0.0111 -0.3926
  154OSM   H10F17213   6.758   6.121   3.807 -2.0397  0.3563 -1.2516
  154OSM   C11F17214   6.732   5.961   3.959  0.1503 -0.2460 -0.0997
  154OSM   H11F17215   6.683   5.862   3.968 -2.1775  0.8012 -0.3304
  154OSM   H11G17216   6.662   6.030   4.012  0.5238 -2.1750  3.1068
  154OSM   C12F17217   6.867   5.956   4.018  0.1274 -0.0542 -0.3447
  154OSM   H12F17218   6.922   6.052   4.008  2.7067 -1.4233 -0.1262
  154OSM   H12G17219   6.943   5.893   3.967  0.3986 -0.1801  0.2075
  154OSM   C13F17220   6.880   5.920   4.169  0.0265  0.0211  0.0922
  154OSM   H13F17221   6.987   5.904   4.193  0.0427  0.8044  0.6027
  154OSM   H13G17222   6.816   5.832   4.192  2.2291 -1.6131  0.2480
  154OSM   C14F17223   6.830   6.026   4.260  0.3242 -0.0833 -0.3802
  154OSM   H14F17224   6.729   6.067   4.242  1.6199  2.7046 -1.8926
  154OSM   H14G17225   6.890   6.119   4.250  0.2403  0.0528  0.3750
  154OSM   C15F17226   6.844   5.964   4.403 -0.0364 -0.3051  0.2932
  154OSM   H15F17227   6.953   5.952   4.414 -0.1440 -1.7805 -0.1155
  154OSM   H15G17228   6.801   5.862   4.412 -0.0469 -0.2232  1.2813
  154OSM   C16F17229   6.783   6.058   4.523  0.6925  0.1466  0.1295
  154OSM   H16F17230   6.680   6.098   4.508  0.4363 -0.3948  0.4405
  154OSM   H16G17231   6.850   6.147   4.528  2.4168 -1.1068  0.0980
  154OSM   C17F17232   6.793   6.005   4.667  0.5563  0.1348 -0.3822
  154OSM   H17F17233   6.757   6.092   4.727 -2.4709  0.3377 -2.2805
  154OSM   H17G17234   6.902   5.995   4.690  0.1574  1.7655  2.7436
  154OSM   C18F17235   6.703   5.891   4.701 -0.0479 -0.0932  0.0169
  154OSM   H18F17236   6.710   5.814   4.621 -2.5222 -1.7667  1.2586
  154OSM   H18G17237   6.598   5.928   4.705 -0.3324 -0.6252 -1.8330
  154OSM   H18H17238   6.739   5.860   4.802 -0.1390  2.4618  0.9132
  155OSM      N17239   2.717   4.361   2.383  0.4923 -0.9148  0.1017
  155OSM    C1517240   2.852   4.404   2.418 -0.1522 -0.1914  0.5194
  155OSM   H15A17241   2.918   4.404   2.332 -1.6823  1.5973 -0.7362
  155OSM   H15B17242   2.887   4.338   2.497 -0.2212 -0.3985  0.3794
  155OSM   H15C17243   2.838   4.504   2.455 -1.3715  0.5515 -1.7442
  155OSM    C1417244   2.676   4.460   2.279  0.1494  0.6274 -0.0897
  155OSM   H14A17245   2.592   4.424   2.221 -1.5882  1.8296  1.5120
  155OSM   H14B17246   2.756   4.466   2.208  1.8485  1.0447  1.7842
  155OSM   H14C17247   2.648   4.557   2.319 -1.9806  0.7912 -1.8033
  155OSM    C1317248   2.725   4.221   2.325 -0.6979 -0.6397 -0.0785
  155OSM   H13A17249   2.781   4.155   2.389  0.2563 -2.2140 -2.4202
  155OSM   H13B17250   2.772   4.221   2.228 -0.7654 -0.0321 -0.1165
  155OSM   H13C17251   2.625   4.182   2.310 -0.8981  0.1015 -0.7567
  155OSM    C1217252   2.627   4.354   2.502  0.4077 -0.2390  0.4591
  155OSM   H12A17253   2.673   4.283   2.568 -1.3750 -1.0781  0.8530
  155OSM   H12B17254   2.529   4.320   2.473 -1.1001  4.0909 -0.2503
  155OSM    C1117255   2.607   4.485   2.572  0.2847  0.0416 -0.0131
  155OSM   H11A17256   2.700   4.543   2.589  1.0128 -1.2813  0.6625
  155OSM   H11B17257   2.565   4.470   2.674 -0.3128 -1.6180 -0.4783
  155OSM      P17258   2.366   4.528   2.488  0.1724 -0.0186  0.2759
  155OSM    O1317259   2.302   4.638   2.420  0.1815  0.2801  0.1778
  155OSM    O1417260   2.361   4.391   2.420 -0.2855  0.0908  0.2870
  155OSM    O1117261   2.317   4.518   2.643 -0.7448  0.3146 -0.4065
  155OSM    O1217262   2.516   4.568   2.501  0.2287  0.3906 -0.0868
  155OSM    C1S17263   2.241   4.404   2.691 -0.3398 -0.0011  0.3107
  155OSM    H1S17264   2.310   4.318   2.686  0.4179  0.5406  1.2912
  155OSM    H1T17265   2.149   4.378   2.633 -1.7863  2.4851  1.3093
  155OSM     NF17266   2.145   4.313   2.910 -0.0272  0.0584 -0.2608
  155OSM    HNF17267   2.047   4.301   2.923 -0.2084  1.6202 -0.0186
  155OSM    C2S17268   2.185   4.436   2.837 -0.0056 -0.7903  0.7729
  155OSM    H2S17269   2.274   4.480   2.887  0.5226 -0.5347 -0.3649
  155OSM    C3S17270   2.076   4.551   2.831 -0.3816 -0.4205  0.0091
  155OSM    H3S17271   1.987   4.499   2.790  0.0983 -0.5813 -0.8721
  155OSM     O317272   2.109   4.676   2.762 -0.1515  0.6425  0.4407
  155OSM    HO317273   2.185   4.662   2.706 -1.0395 -0.8034 -0.4935
  155OSM    C4S17274   2.046   4.584   2.972  0.0997 -0.0654 -0.6704
  155OSM    H4S17275   1.956   4.533   3.010 -0.2867 -1.3507 -3.1260
  155OSM    C5S17276   2.121   4.662   3.057  0.0070  0.3336 -0.3655
  155OSM    H5S17277   2.221   4.692   3.021  1.2937 -1.4526  1.5136
  155OSM    C6S17278   2.080   4.683   3.207 -0.0125 -0.4181 -1.1064
  155OSM    H6S17279   1.971   4.665   3.210  0.1923 -1.7707 -1.1382
  155OSM    H6T17280   2.097   4.791   3.227  1.3421 -0.5823 -1.2645
  155OSM    C7S17281   2.163   4.582   3.284  0.2113 -0.2620  0.2619
  155OSM    H7S17282   2.267   4.617   3.270  0.5271 -2.1071 -2.7928
  155OSM    H7T17283   2.149   4.482   3.238  1.3389 -1.3636  2.1785
  155OSM    C8S17284   2.130   4.573   3.436 -0.4304 -0.3699  0.1547
  155OSM    H8S17285   2.029   4.539   3.465 -1.9066  0.1682 -3.7100
  155OSM    H8T17286   2.125   4.677   3.474  1.1165 -0.4543  0.6652
  155OSM    C9S17287   2.247   4.501   3.516 -0.0810 -0.1909 -0.1802
  155OSM    H9S17288   2.338   4.563   3.501 -0.4137  1.8121  4.3687
  155OSM    H9T17289   2.266   4.399   3.476 -1.3176 -0.3352 -0.4576
  155OSM   C10S17290   2.192   4.487   3.663 -0.5656 -0.4239 -0.2311
  155OSM   H10S17291   2.103   4.421   3.653 -0.0953 -0.9730 -0.8701
  155OSM   H10T17292   2.153   4.584   3.702  0.6035 -0.3275  0.7761
  155OSM   C11S17293   2.288   4.421   3.766  0.2583 -0.2287 -0.4445
  155OSM   H11S17294   2.381   4.482   3.763 -0.0360  0.2434 -0.1089
  155OSM   H11T17295   2.305   4.316   3.734 -3.0881 -1.2418  0.6570
  155OSM   C12S17296   2.230   4.403   3.913  0.1237 -0.4650 -0.1729
  155OSM   H12S17297   2.307   4.346   3.970 -1.2020 -2.8040 -0.5822
  155OSM   H12T17298   2.145   4.330   3.908 -1.1346  1.0157 -1.2094
  155OSM   C13S17299   2.188   4.533   3.980 -0.6426  0.1928  0.1228
  155OSM   H13S17300   2.121   4.599   3.921  0.6552  1.5487  0.1054
  155OSM   H13T17301   2.277   4.599   3.987 -2.0717  2.3192 -0.6260
  155OSM   C14S17302   2.116   4.525   4.117 -0.1067  0.2924 -0.3580
  155OSM   H14S17303   2.019   4.471   4.120 -0.5380  1.1073  1.2876
  155OSM   H14T17304   2.094   4.631   4.141 -1.3863 -0.2151  0.7919
  155OSM   C15S17305   2.209   4.467   4.234  0.0005  0.4574  0.2392
  155OSM   H15S17306   2.314   4.481   4.201 -0.2057  1.2453 -0.0996
  155OSM   H15T17307   2.185   4.360   4.253 -1.2622  1.2105  3.5258
  155OSM   C16S17308   2.185   4.532   4.370 -0.0857  0.5556 -0.7351
  155OSM   H16S17309   2.081   4.544   4.405  0.0177 -0.4226 -0.0505
  155OSM   H16T17310   2.219   4.637   4.374 -2.1373  1.2413  2.4405
  155OSM   C17S17311   2.274   4.461   4.481  0.1948 -0.5668  0.2115
  155OSM   H17S17312   2.381   4.461   4.451 -0.4925 -2.4143 -2.5801
  155OSM   H17T17313   2.231   4.359   4.479 -1.9755  0.2909 -0.6360
  155OSM   C18S17314   2.245   4.523   4.617  0.2789 -0.1237 -0.3155
  155OSM   H18S17315   2.266   4.632   4.613  0.0392 -0.0781 -0.3761
  155OSM   H18T17316   2.307   4.476   4.696 -2.9962 -1.9219  1.4448
  155OSM   H18U17317   2.136   4.515   4.638  0.1945 -0.0473 -0.7140
  155OSM    C1F17318   2.236   4.226   2.943  0.6240 -0.6937  0.5360
  155OSM     OF17319   2.354   4.253   2.930 -0.1639  0.1636 -0.1294
  155OSM    C2F17320   2.182   4.105   3.012 -0.2610  0.4793  0.7316
  155OSM    H2F17321   2.099   4.062   2.952  0.7692 -2.2740  1.1292
  155OSM    H2G17322   2.165   4.150   3.112  0.3055  2.9183 -0.2171
  155OSM    C3F17323   2.291   3.996   3.022  0.1234 -0.5311  0.0338
  155OSM    H3F17324   2.382   4.045   3.063  0.0541  0.3160 -0.7873
  155OSM    H3G17325   2.314   3.959   2.920  1.6922  2.3899 -0.7911
  155OSM    C4F17326   2.258   3.881   3.114 -0.5554  0.0128  0.7937
  155OSM    H4F17327   2.340   3.805   3.113  0.2104  0.6714  3.7119
  155OSM    H4G17328   2.165   3.839   3.070  0.0050  0.0232 -0.4375
  155OSM    C5F17329   2.241   3.918   3.257 -0.0083  0.2581 -0.8745
  155OSM    H5F17330   2.152   3.983   3.275 -0.2596 -0.6086  1.3018
  155OSM    H5G17331   2.325   3.985   3.282 -0.9382  1.7788 -1.6779
  155OSM    C6F17332   2.243   3.794   3.352 -0.2406  0.1117  0.3171
  155OSM    H6F17333   2.350   3.781   3.381 -0.0262  1.7274  0.3146
  155OSM    H6G17334   2.209   3.702   3.299  0.2512  0.3067 -0.3589
  155OSM    C7F17335   2.152   3.807   3.477  0.2356  0.1386  0.2970
  155OSM    H7F17336   2.046   3.831   3.453 -0.4382 -1.2422  1.7181
  155OSM    H7G17337   2.179   3.891   3.545 -1.0242  2.0545 -1.4495
  155OSM    C8F17338   2.143   3.681   3.561  0.0575 -0.1967  0.6847
  155OSM    H8F17339   2.115   3.602   3.489  0.5360 -1.8450  2.2378
  155OSM    H8G17340   2.056   3.689   3.630  0.7585  2.0647  1.4162
  155OSM    C9F17341   2.279   3.660   3.629 -0.2650  0.2272  0.2084
  155OSM    H9F17342   2.366   3.696   3.572 -0.3899 -0.5276 -0.4845
  155OSM   C10F17343   2.283   3.615   3.756  0.2097  0.0217  0.3979
  155OSM   H10F17344   2.375   3.633   3.813 -0.3145  0.8949  0.9848
  155OSM   C11F17345   2.160   3.578   3.848  0.2242  0.2972  0.0900
  155OSM   H11F17346   2.129   3.472   3.837 -0.1725  0.4575 -0.3825
  155OSM   H11G17347   2.068   3.631   3.816 -0.8758 -1.5701  0.0381
  155OSM   C12F17348   2.180   3.609   4.002  0.0770  0.1583  0.0369
  155OSM   H12F17349   2.218   3.714   4.009  0.1390  0.1868 -0.6575
  155OSM   H12G17350   2.255   3.535   4.035  0.2649  1.1767  2.0661
  155OSM   C13F17351   2.059   3.596   4.097  0.1836  0.1179 -0.2155
  155OSM   H13F17352   2.049   3.486   4.111 -3.2072  0.4492  0.8680
  155OSM   H13G17353   1.962   3.631   4.055  0.3519 -0.3862 -1.0555
  155OSM   C14F17354   2.096   3.650   4.236 -0.2214 -0.0222 -0.4921
  155OSM   H14F17355   2.009   3.643   4.305 -0.0465  0.2985 -0.2432
  155OSM   H14G17356   2.118   3.759   4.231 -1.4853  0.2247 -1.5211
  155OSM   C15F17357   2.218   3.575   4.309  0.1897 -0.6818 -0.0859
  155OSM   H15F17358   2.307   3.590   4.243  0.2833 -2.6994 -0.5110
  155OSM   H15G17359   2.201   3.466   4.325  0.7970 -0.7985 -0.2005
  155OSM   C16F17360   2.252   3.641   4.443 -0.1717  0.5132 -0.4336
  155OSM   H16F17361   2.249   3.751   4.435  0.1434  0.4876 -1.0225
  155OSM   H16G17362   2.352   3.604   4.474  0.1285  0.9246 -0.8916
  155OSM   C17F17363   2.158   3.589   4.552  0.2668  0.1654 -0.7052
  155OSM   H17F17364   2.166   3.479   4.540 -0.5544 -0.4551  3.1112
  155OSM   H17G17365   2.054   3.624   4.533 -0.8219 -2.7454 -0.4900
  155OSM   C18F17366   2.198   3.615   4.703 -0.0432 -0.1534  0.2170
  155OSM   H18F17367   2.133   3.574   4.784 -0.4939  0.3381  0.1103
  155OSM   H18G17368   2.202   3.724   4.727 -0.2875  0.2111 -1.3276
  155OSM   H18H17369   2.297   3.565   4.715 -0.0677  0.2798  2.8763
  156OSM      N17370   4.989   3.369   3.014 -0.9526 -0.3063  0.0884
  156OSM    C1517371   4.910   3.440   2.904 -0.1188  0.5727  0.7015
  156OSM   H15A17372   4.917   3.548   2.899 -0.7161  0.5763 -0.3503
  156OSM   H15B17373   4.805   3.414   2.900  0.2646 -1.8246 -5.6549
  156OSM   H15C17374   4.948   3.413   2.806 -2.1170 -0.7563  0.2308
  156OSM    C1417375   5.137   3.412   2.996  0.1948 -0.2059 -0.5553
  156OSM   H14A17376   5.177   3.372   2.904  1.7980 -1.2642  0.5454
  156OSM   H14B17377   5.208   3.374   3.068  0.2713  0.4079 -0.3016
  156OSM   H14C17378   5.144   3.520   2.989 -0.4331 -0.1927 -1.1268
  156OSM    C1317379   4.943   3.417   3.149  0.6458 -0.7250  0.5648
  156OSM   H13A17380   5.001   3.383   3.233  0.0042 -0.1495  1.2616
  156OSM   H13B17381   4.837   3.397   3.161  0.6007 -0.8969 -0.1162
  156OSM   H13C17382   4.956   3.524   3.158 -0.6862 -0.4838 -0.0076
  156OSM    C1217383   4.975   3.219   3.000 -0.5536 -0.2237  0.0303
  156OSM   H12A17384   5.054   3.176   3.060  0.4508 -0.1369 -1.1743
  156OSM   H12B17385   5.000   3.205   2.896  2.3064 -0.1243  0.6104
  156OSM    C1117386   4.837   3.154   3.019  0.1903 -0.4266  0.0753
  156OSM   H11A17387   4.821   3.158   3.129  0.3368 -0.4747  0.0995
  156OSM   H11B17388   4.832   3.045   2.999  0.0776 -0.6378  1.1870
  156OSM      P17389   4.596   3.186   2.986  0.4313 -0.1796 -0.0013
  156OSM    O1317390   4.507   3.249   2.892  0.1721 -0.0820  0.4254
  156OSM    O1417391   4.588   3.041   3.009  0.3013  0.0185  0.4562
  156OSM    O1117392   4.585   3.263   3.126  0.6022  0.1195 -0.8653
  156OSM    O1217393   4.735   3.221   2.936 -0.0610 -0.3928 -0.1605
  156OSM    C1S17394   4.491   3.377   3.126 -0.6964 -0.1833 -0.1744
  156OSM    H1S17395   4.395   3.340   3.084 -0.7364  0.6408 -0.8318
  156OSM    H1T17396   4.523   3.456   3.055  0.8949  0.8918  1.6643
  156OSM     NF17397   4.370   3.546   3.252 -0.3790  0.0244 -0.3494
  156OSM    HNF17398   4.407   3.634   3.282 -0.7230 -0.2530  0.9283
  156OSM    C2S17399   4.460   3.436   3.271  0.0208 -0.0581  0.9052
  156OSM    H2S17400   4.411   3.349   3.319 -0.4971  1.0646  2.4895
  156OSM    C3S17401   4.593   3.466   3.345  0.8855 -0.4849 -0.4299
  156OSM    H3S17402   4.628   3.549   3.280  0.0771 -0.3135 -0.6524
  156OSM     O317403   4.690   3.366   3.347  0.0978 -0.0381 -0.4113
  156OSM    HO317404   4.663   3.294   3.290 -0.8615 -0.4240  0.4954
  156OSM    C4S17405   4.567   3.516   3.485 -0.8761 -0.6923 -0.4214
  156OSM    H4S17406   4.533   3.442   3.558 -0.2815  0.3307  0.9491
  156OSM    C5S17407   4.602   3.642   3.524  0.3730 -0.3796 -0.3762
  156OSM    H5S17408   4.663   3.707   3.461  1.8683 -1.2341  0.1427
  156OSM    C6S17409   4.583   3.699   3.662  0.5460 -0.3145  0.0429
  156OSM    H6S17410   4.490   3.759   3.673  1.8427  1.4886  1.9655
  156OSM    H6T17411   4.670   3.764   3.683  2.8468 -2.2430 -2.6350
  156OSM    C7S17412   4.572   3.587   3.770  0.0229  0.5410  0.1432
  156OSM    H7S17413   4.658   3.517   3.764  0.0254  0.5840 -0.3275
  156OSM    H7T17414   4.482   3.525   3.750  0.5705 -0.1188 -0.3437
  156OSM    C8S17415   4.562   3.635   3.916 -0.1066  0.2124  0.4381
  156OSM    H8S17416   4.502   3.727   3.926 -0.1995  0.3354 -1.0762
  156OSM    H8T17417   4.662   3.668   3.953 -0.4281  2.0891 -0.2934
  156OSM    C9S17418   4.508   3.530   4.016  0.0298 -0.0666  0.2805
  156OSM    H9S17419   4.577   3.443   4.015 -0.3133 -0.3808 -2.7930
  156OSM    H9T17420   4.413   3.496   3.969 -0.5185  0.3695  1.0428
  156OSM   C10S17421   4.488   3.572   4.159  0.0847  0.1935  0.5457
  156OSM   H10S17422   4.398   3.637   4.160  0.1004  0.2141  0.6268
  156OSM   H10T17423   4.575   3.633   4.190  1.3689 -1.7998  1.0005
  156OSM   C11S17424   4.464   3.465   4.267  0.6953 -0.3004 -0.8170
  156OSM   H11S17425   4.532   3.380   4.242  1.4964 -0.0531  0.4010
  156OSM   H11T17426   4.359   3.432   4.254  0.3132  0.1330  0.9354
  156OSM   C12S17427   4.484   3.518   4.406  0.1484  0.2774  0.0354
  156OSM   H12S17428   4.586   3.561   4.415  0.5277  0.9438 -4.6138
  156OSM   H12T17429   4.477   3.426   4.468 -0.2945  0.3953  0.1612
  156OSM   C13S17430   4.380   3.623   4.453  0.4634 -0.2922 -0.0518
  156OSM   H13S17431   4.287   3.568   4.478 -0.7504  0.6639 -2.1961
  156OSM   H13T17432   4.349   3.690   4.370 -2.2303 -2.1783 -0.7219
  156OSM   C14S17433   4.425   3.696   4.582 -0.1381  0.6017  0.0553
  156OSM   H14S17434   4.535   3.708   4.575  0.0609 -1.4924 -1.1687
  156OSM   H14T17435   4.413   3.633   4.673  2.0456  0.6611  0.4373
  156OSM   C15S17436   4.334   3.816   4.615 -0.5698  0.1103  0.2915
  156OSM   H15S17437   4.232   3.776   4.634 -1.0937  0.4886 -1.6108
  156OSM   H15T17438   4.324   3.879   4.525 -3.3772 -0.6156  0.0205
  156OSM   C16S17439   4.373   3.895   4.735  0.0530 -0.0410  0.2453
  156OSM   H16S17440   4.484   3.905   4.737  0.1444  0.4809 -2.8495
  156OSM   H16T17441   4.341   3.836   4.823 -0.0728 -3.1360 -1.7227
  156OSM   C17S17442   4.317   4.038   4.733 -0.5639  0.6304 -0.6347
  156OSM   H17S17443   4.214   4.021   4.771  0.9012 -1.3278  2.8556
  156OSM   H17T17444   4.310   4.081   4.631 -0.3003  0.6841 -0.6313
  156OSM   C18S17445   4.390   4.138   4.817 -0.9571 -0.0063 -0.2009
  156OSM   H18S17446   4.486   4.173   4.773  0.7549 -2.2160  1.5557
  156OSM   H18T17447   4.419   4.088   4.911 -1.4326 -0.5647 -0.3468
  156OSM   H18U17448   4.325   4.228   4.821  1.7572  2.0275  1.5706
  156OSM    C1F17449   4.237   3.539   3.223 -0.6921 -0.0964 -1.2514
  156OSM     OF17450   4.186   3.430   3.207 -0.1949  0.7549  0.5092
  156OSM    C2F17451   4.161   3.673   3.233 -0.3476  0.1717 -0.0056
  156OSM    H2F17452   4.114   3.702   3.137 -3.1718  1.5999  1.6730
  156OSM    H2G17453   4.226   3.756   3.268  1.2371 -1.4565  1.1093
  156OSM    C3F17454   4.039   3.655   3.329  0.4782  0.4838 -0.3146
  156OSM    H3F17455   3.985   3.568   3.285  2.1064 -0.8585  0.2196
  156OSM    H3G17456   3.988   3.754   3.326 -0.8241 -0.1816 -1.6689
  156OSM    C4F17457   4.083   3.621   3.470 -0.2797  0.5347  0.0084
  156OSM    H4F17458   4.150   3.533   3.473 -1.0477 -0.0311  1.7125
  156OSM    H4G17459   3.990   3.584   3.518  0.4417 -1.9634 -0.3804
  156OSM    C5F17460   4.136   3.737   3.551  0.3205 -0.1862  0.1552
  156OSM    H5F17461   4.047   3.802   3.568  0.0304 -0.8045  1.0777
  156OSM    H5G17462   4.219   3.799   3.512 -1.4557  1.2264 -1.5540
  156OSM    C6F17463   4.180   3.684   3.689 -0.5778 -0.6194  0.3581
  156OSM    H6F17464   4.283   3.644   3.672 -0.6736 -0.3049 -1.0938
  156OSM    H6G17465   4.110   3.602   3.715  0.1414 -0.9561  1.3445
  156OSM    C7F17466   4.166   3.794   3.800 -0.2103  0.6231 -0.8732
  156OSM    H7F17467   4.075   3.858   3.795 -0.9557 -0.2824  0.4258
  156OSM    H7G17468   4.261   3.851   3.797 -0.9881  1.9188 -2.3276
  156OSM    C8F17469   4.168   3.732   3.947  0.1997  0.4719  0.3067
  156OSM    H8F17470   4.180   3.810   4.025  1.5896 -0.3598  0.9652
  156OSM    H8G17471   4.262   3.674   3.956 -0.9942 -2.0508 -1.9975
  156OSM    C9F17472   4.042   3.650   3.971  0.7141  0.3638  0.4512
  156OSM    H9F17473   3.988   3.612   3.883  1.3499 -0.4037  0.3816
  156OSM   C10F17474   3.990   3.629   4.097 -0.1082 -0.5215 -0.3066
  156OSM   H10F17475   3.889   3.590   4.118  0.0087 -0.9772 -0.5647
  156OSM   C11F17476   4.065   3.665   4.224 -0.3578  0.2993  0.2035
  156OSM   H11F17477   4.094   3.770   4.243  0.6048 -0.5438  4.7719
  156OSM   H11G17478   4.162   3.610   4.217  0.0047  0.9956 -0.3395
  156OSM   C12F17479   3.984   3.604   4.344 -0.3426  0.1034 -0.6211
  156OSM   H12F17480   4.036   3.607   4.442 -1.7639  1.1929  0.1461
  156OSM   H12G17481   3.960   3.497   4.326  0.3805 -0.0792 -0.5299
  156OSM   C13F17482   3.857   3.668   4.378 -0.1207  0.1297  0.3359
  156OSM   H13F17483   3.781   3.650   4.300 -1.0812 -0.0758  1.2930
  156OSM   H13G17484   3.870   3.778   4.376 -0.3268  0.1444 -0.2844
  156OSM   C14F17485   3.799   3.625   4.515 -0.3910  0.0559 -0.2036
  156OSM   H14F17486   3.857   3.656   4.605 -0.8094  1.5403 -0.4220
  156OSM   H14G17487   3.787   3.515   4.527 -1.7507  0.3442  1.4396
  156OSM   C15F17488   3.660   3.685   4.542  0.3838 -0.0058 -0.1076
  156OSM   H15F17489   3.590   3.644   4.466 -2.4160  0.0306  2.2634
  156OSM   H15G17490   3.668   3.794   4.525  0.8880  0.0230  0.3153
  156OSM   C16F17491   3.595   3.659   4.682  0.7800 -0.5562  0.7237
  156OSM   H16F17492   3.552   3.559   4.664 -0.9270  0.7192 -3.4854
  156OSM   H16G17493   3.509   3.730   4.685  2.4777  1.8342 -1.5372
  156OSM   C17F17494   3.685   3.680   4.801  0.3046  0.0876 -0.3517
  156OSM   H17F17495   3.742   3.774   4.783 -1.2214  1.4399  1.4997
  156OSM   H17G17496   3.762   3.603   4.823 -0.7755 -0.8635  0.1863
  156OSM   C18F17497   3.607   3.692   4.932  0.4496  0.1597  0.3691
  156OSM   H18F17498   3.541   3.781   4.934  0.1051 -0.0751 -0.2755
  156OSM   H18G17499   3.670   3.696   5.023 -2.0005 -0.8501  2.2403
  156OSM   H18H17500   3.543   3.601   4.938 -1.5924  1.4076 -1.2381
  157OSM      N17501   5.161   6.534   2.617  1.0193  0.2161  0.2713
  157OSM    C1517502   5.202   6.676   2.638  0.4598 -0.8027 -0.6485
  157OSM   H15A17503   5.112   6.731   2.662  0.5459 -0.3250 -1.3867
  157OSM   H15B17504   5.240   6.709   2.543 -0.2041 -0.4993 -0.8139
  157OSM   H15C17505   5.278   6.686   2.714 -0.6499 -2.0648  0.6901
  157OSM    C1417506   5.282   6.460   2.572 -0.1312 -0.2073  0.6915
  157OSM   H14A17507   5.300   6.469   2.465  3.2378  0.5341  1.2054
  157OSM   H14B17508   5.268   6.354   2.583  0.1767 -0.5897 -1.9625
  157OSM   H14C17509   5.366   6.495   2.629 -1.3019  2.3166  1.0318
  157OSM    C1317510   5.138   6.478   2.754 -0.0759  0.1580 -0.1761
  157OSM   H13A17511   5.190   6.383   2.754 -0.1305  0.0572  2.1831
  157OSM   H13B17512   5.034   6.457   2.779 -0.2723 -1.0607 -1.8516
  157OSM   H13C17513   5.184   6.541   2.829 -0.5298 -1.1420  1.2549
  157OSM    C1217514   5.040   6.515   2.521  0.5905  0.3652 -0.2333
  157OSM   H12A17515   5.029   6.408   2.512  2.6464  0.1150 -0.3684
  157OSM   H12B17516   5.072   6.545   2.422  0.6207 -1.2290 -0.7230
  157OSM    C1117517   4.902   6.582   2.552  0.0929  0.5113  0.1937
  157OSM   H11A17518   4.833   6.553   2.469 -0.1544 -0.3356  0.6833
  157OSM   H11B17519   4.905   6.693   2.555  3.7842  0.5730 -1.2508
  157OSM      P17520   4.783   6.395   2.690 -0.0134 -0.6754 -0.3067
  157OSM    O1317521   4.638   6.400   2.667  0.6782 -0.6068  0.5530
  157OSM    O1417522   4.864   6.297   2.615 -0.0426  0.1550 -0.0166
  157OSM    O1117523   4.793   6.371   2.850 -0.2077  0.2550 -0.0043
  157OSM    O1217524   4.843   6.540   2.673  0.2915 -0.8941  0.5727
  157OSM    C1S17525   4.798   6.485   2.935 -0.5084 -0.2792 -0.0800
  157OSM    H1S17526   4.714   6.557   2.923 -0.3628  0.2402  1.7818
  157OSM    H1T17527   4.889   6.543   2.905 -1.2191  1.9371  1.7577
  157OSM     NF17528   4.797   6.565   3.171 -0.1190  0.0592  0.3931
  157OSM    HNF17529   4.884   6.596   3.207 -0.3973  2.1642 -0.6193
  157OSM    C2S17530   4.806   6.450   3.087 -0.0569 -0.1702  0.0204
  157OSM    H2S17531   4.726   6.373   3.094  0.8233 -1.5437 -3.0182
  157OSM    C3S17532   4.931   6.362   3.125  0.1515 -0.3415 -0.1207
  157OSM    H3S17533   5.022   6.420   3.097  1.6556 -1.6219  1.7850
  157OSM     O317534   4.949   6.250   3.044  0.1479 -0.0897 -0.3344
  157OSM    HO317535   4.884   6.257   2.974 -0.8800 -2.6432  0.2363
  157OSM    C4S17536   4.939   6.335   3.278  0.3788 -0.3815  0.9518
  157OSM    H4S17537   4.977   6.422   3.333  0.4949  0.2269 -0.0578
  157OSM    C5S17538   4.902   6.224   3.348  0.2402  0.1947  1.2092
  157OSM    H5S17539   4.855   6.137   3.300  0.5337  0.2478  0.8174
  157OSM    C6S17540   4.905   6.219   3.504 -0.5990  0.1628  0.6730
  157OSM    H6S17541   4.811   6.174   3.542 -0.8921 -0.4399 -0.6886
  157OSM    H6T17542   4.921   6.316   3.554 -1.5065  0.1482  1.0004
  157OSM    C7S17543   5.015   6.121   3.549  0.0321 -0.2617 -0.1577
  157OSM    H7S17544   5.120   6.156   3.541 -0.2646  0.4750 -0.9178
  157OSM    H7T17545   5.013   6.031   3.483 -0.8748  0.3671 -1.0024
  157OSM    C8S17546   4.987   6.076   3.695  0.1582 -0.1808 -0.2684
  157OSM    H8S17547   4.905   6.001   3.698 -0.8471  0.8540 -0.9327
  157OSM    H8T17548   4.959   6.165   3.756 -0.9777 -0.0638 -0.9404
  157OSM    C9S17549   5.103   6.003   3.759 -0.8441  0.2321 -0.0646
  157OSM    H9S17550   5.193   6.066   3.773 -0.8114  0.0371  0.6880
  157OSM    H9T17551   5.131   5.938   3.675  0.8634  1.0451 -0.1616
  157OSM   C10S17552   5.074   5.918   3.886  0.3108 -0.0415 -0.9241
  157OSM   H10S17553   5.121   5.819   3.872  1.6314  0.6107 -1.2918
  157OSM   H10T17554   4.964   5.913   3.904  0.5628 -0.0185  0.8650
  157OSM   C11S17555   5.119   5.987   4.014 -0.7012 -0.3247 -0.3003
  157OSM   H11S17556   5.227   6.014   4.010 -0.0727 -2.5899  0.2491
  157OSM   H11T17557   5.108   5.918   4.100 -2.6639  0.3705  0.0645
  157OSM   C12S17558   5.027   6.105   4.047 -0.1254 -0.3301 -1.0251
  157OSM   H12S17559   4.919   6.078   4.043 -0.9747  2.7090 -1.6975
  157OSM   H12T17560   5.042   6.185   3.971  3.2329 -0.0921 -0.2463
  157OSM   C13S17561   5.055   6.154   4.187 -0.2292 -0.0951 -0.2953
  157OSM   H13S17562   5.027   6.261   4.190 -0.9159 -0.2675 -0.4497
  157OSM   H13T17563   5.165   6.157   4.203 -0.4714 -0.0051  1.5020
  157OSM   C14S17564   4.973   6.079   4.293 -0.6130  0.4492 -0.2709
  157OSM   H14S17565   5.009   5.974   4.306  0.7882  1.1328  1.8953
  157OSM   H14T17566   4.872   6.042   4.265 -0.7877  1.1164 -0.5408
  157OSM   C15S17567   4.980   6.135   4.432  0.4018 -0.0955 -0.6512
  157OSM   H15S17568   4.937   6.237   4.437  0.3457 -0.1459 -0.0151
  157OSM   H15T17569   5.086   6.137   4.465  0.4183 -1.5727 -0.5656
  157OSM   C16S17570   4.910   6.055   4.546 -0.4103  0.0461  0.7506
  157OSM   H16S17571   4.806   6.026   4.518 -0.0690 -0.1598 -0.3798
  157OSM   H16T17572   4.900   6.116   4.637  1.3434  1.3492  0.1237
  157OSM   C17S17573   4.988   5.922   4.570  0.3863  0.5844  0.9448
  157OSM   H17S17574   5.098   5.935   4.580  0.3719  0.8294  0.7813
  157OSM   H17T17575   4.970   5.862   4.479 -0.8641  0.1801  1.4435
  157OSM   C18S17576   4.945   5.833   4.687  0.1787  0.7465  0.9934
  157OSM   H18S17577   4.835   5.817   4.682  0.5461 -1.9845  0.4060
  157OSM   H18T17578   4.981   5.882   4.781 -0.9288  0.4972  1.5606
  157OSM   H18U17579   4.996   5.735   4.686 -3.5552 -1.3874  2.0356
  157OSM    C1F17580   4.693   6.634   3.184 -0.6843 -0.0977  0.8092
  157OSM     OF17581   4.582   6.582   3.156  0.3115  0.1695 -0.5110
  157OSM    C2F17582   4.716   6.770   3.241  1.0709 -0.4576  0.1572
  157OSM    H2F17583   4.647   6.836   3.186  0.6756 -0.4131  0.7012
  157OSM    H2G17584   4.816   6.809   3.211  0.3046  0.1747 -1.6853
  157OSM    C3F17585   4.694   6.789   3.392  0.4809 -0.5089 -0.1020
  157OSM    H3F17586   4.590   6.771   3.427 -0.3316 -1.5018 -2.7825
  157OSM    H3G17587   4.726   6.894   3.406 -1.2775  0.5194 -3.0271
  157OSM    C4F17588   4.783   6.700   3.479 -0.3149  0.2763 -0.8947
  157OSM    H4F17589   4.889   6.704   3.446  0.2213 -2.4180  0.2153
  157OSM    H4G17590   4.743   6.597   3.464 -1.9601  0.9901 -1.6711
  157OSM    C5F17591   4.782   6.727   3.633 -0.4523  0.1735  0.2789
  157OSM    H5F17592   4.683   6.762   3.669 -0.5769  1.8503 -1.5208
  157OSM    H5G17593   4.850   6.812   3.655  2.3407 -1.4124 -1.6467
  157OSM    C6F17594   4.832   6.603   3.717 -0.1782  0.3161  1.1552
  157OSM    H6F17595   4.775   6.509   3.700  0.4423  0.2070 -0.5095
  157OSM    H6G17596   4.820   6.610   3.827 -1.5350 -2.6038  1.3090
  157OSM    C7F17597   4.980   6.574   3.695  0.4906  0.5741  0.1173
  157OSM    H7F17598   5.039   6.662   3.664 -0.0409  1.1988  0.8453
  157OSM    H7G17599   4.985   6.510   3.603 -0.9631 -0.5511  0.7795
  157OSM    C8F17600   5.056   6.501   3.803 -0.3678 -0.2833  0.1421
  157OSM    H8F17601   4.994   6.431   3.863  0.1034 -0.4270  0.4698
  157OSM    H8G17602   5.086   6.582   3.873 -1.8706 -0.3390  0.8881
  157OSM    C9F17603   5.170   6.413   3.756  0.4238  0.0961 -0.4136
  157OSM    H9F17604   5.136   6.323   3.703  0.0934  0.4329 -0.7877
  157OSM   C10F17605   5.299   6.455   3.758  0.3500 -0.5526 -0.0644
  157OSM   H10F17606   5.378   6.384   3.727  0.9786 -0.6163  1.5770
  157OSM   C11F17607   5.364   6.583   3.799 -0.9897  0.1625  0.4816
  157OSM   H11F17608   5.291   6.666   3.802  0.7391  1.7978 -0.4115
  157OSM   H11G17609   5.447   6.611   3.730  0.3972 -0.7071  1.7313
  157OSM   C12F17610   5.423   6.568   3.939 -0.7846  0.3755  0.1755
  157OSM   H12F17611   5.478   6.661   3.965 -0.6369 -0.1966  2.0458
  157OSM   H12G17612   5.492   6.480   3.943 -3.1991 -1.6394 -0.1827
  157OSM   C13F17613   5.322   6.541   4.052 -0.3757  0.0850 -0.3034
  157OSM   H13F17614   5.309   6.431   4.061  2.8776 -0.2072  3.0586
  157OSM   H13G17615   5.227   6.595   4.030 -0.1194  0.9659  0.7005
  157OSM   C14F17616   5.376   6.574   4.187  0.5257  0.3914 -0.3134
  157OSM   H14F17617   5.365   6.683   4.210  0.4251  0.3429 -0.1249
  157OSM   H14G17618   5.483   6.545   4.185  0.0263 -1.7140  0.9600
  157OSM   C15F17619   5.304   6.495   4.295 -0.1744  0.2568  0.6894
  157OSM   H15F17620   5.320   6.389   4.264 -1.4158  0.4121 -0.6148
  157OSM   H15G17621   5.194   6.509   4.297 -0.4594 -1.4187 -0.5960
  157OSM   C16F17622   5.349   6.522   4.443  0.0427 -0.0578 -0.3339
  157OSM   H16F17623   5.300   6.617   4.473  1.6861  0.3993  1.0660
  157OSM   H16G17624   5.460   6.526   4.450  0.1200 -0.4710 -1.2635
  157OSM   C17F17625   5.293   6.398   4.520 -0.6498  0.3741 -0.2936
  157OSM   H17F17626   5.348   6.308   4.485 -3.0585 -0.9511 -0.8786
  157OSM   H17G17627   5.184   6.393   4.500 -0.5875  0.1988 -0.5929
  157OSM   C18F17628   5.317   6.412   4.670 -0.2292 -0.5280  0.3482
  157OSM   H18F17629   5.417   6.398   4.716 -0.1368  1.2689  0.7924
  157OSM   H18G17630   5.240   6.350   4.721 -1.5463  0.5248 -0.2935
  157OSM   H18H17631   5.285   6.517   4.690 -1.3903 -1.1335  1.8994
  158OSM      N17632   4.081   1.929   2.716  0.0993 -0.0608  0.2089
  158OSM    C1517633   4.050   2.080   2.718 -0.0440  0.4786  0.6969
  158OSM   H15A17634   3.943   2.092   2.706 -0.0006 -0.6576 -1.0678
  158OSM   H15B17635   4.090   2.117   2.625  3.1755  1.3893  2.2937
  158OSM   H15C17636   4.103   2.132   2.797  0.1572  2.3512 -0.6147
  158OSM    C1417637   4.020   1.879   2.592  0.2852  0.9640  0.6240
  158OSM   H14A17638   4.010   1.771   2.592 -2.0252  1.1214  0.9915
  158OSM   H14B17639   4.073   1.907   2.502  1.0130 -0.1604  0.6859
  158OSM   H14C17640   3.916   1.907   2.588 -0.4555 -1.6735 -2.2157
  158OSM    C1317641   4.233   1.918   2.713  0.3130  0.3155 -0.0150
  158OSM   H13A17642   4.271   1.943   2.811  3.6914  1.8475 -1.5906
  158OSM   H13B17643   4.277   1.991   2.648 -1.8778  0.0055 -1.9847
  158OSM   H13C17644   4.263   1.816   2.693  0.8045  0.0460  1.8978
  158OSM    C1217645   4.039   1.858   2.844  0.7302 -0.8101 -0.5726
  158OSM   H12A17646   4.045   1.926   2.927 -0.5391 -1.6539  0.2468
  158OSM   H12B17647   4.105   1.780   2.879  1.1467 -0.9584 -1.6305
  158OSM    C1117648   3.897   1.790   2.848  0.1038  0.0229 -0.3089
  158OSM   H11A17649   3.822   1.862   2.811 -1.2236 -0.6890  0.8630
  158OSM   H11B17650   3.866   1.761   2.951  0.6519 -0.1889 -0.2000
  158OSM      P17651   3.782   1.570   2.757  0.0631 -0.0892  0.1674
  158OSM    O1317652   3.701   1.637   2.652  0.1230 -0.2359 -0.1735
  158OSM    O1417653   3.847   1.438   2.737  0.1768 -0.2555  0.0523
  158OSM    O1117654   3.699   1.570   2.895  0.2237 -0.4924 -0.3408
  158OSM    O1217655   3.897   1.676   2.773 -0.3500 -0.2041  0.3147
  158OSM    C1S17656   3.742   1.484   3.006  0.9880  0.4480  0.2698
  158OSM    H1S17657   3.778   1.543   3.093 -1.5898  3.1747 -0.3229
  158OSM    H1T17658   3.817   1.410   2.972  1.9753  1.5234  0.0413
  158OSM     NF17659   3.667   1.319   3.183 -0.2473  0.9967 -0.0593
  158OSM    HNF17660   3.679   1.221   3.179  0.4258  0.9787  1.6761
  158OSM    C2S17661   3.623   1.399   3.067  0.5277 -0.6431  0.2855
  158OSM    H2S17662   3.557   1.481   3.101  0.6132  0.7654 -2.6203
  158OSM    C3S17663   3.546   1.312   2.965  0.1867  1.5176  0.6295
  158OSM    H3S17664   3.617   1.248   2.908 -1.9266 -0.1408 -0.3288
  158OSM     O317665   3.479   1.374   2.858 -0.0711  0.5148  0.8711
  158OSM    HO317666   3.504   1.467   2.864  1.4488  0.0788  1.5570
  158OSM    C4S17667   3.443   1.229   3.032 -0.0080 -0.4193  0.3996
  158OSM    H4S17668   3.345   1.276   3.043  0.7386  1.3451 -0.1319
  158OSM    C5S17669   3.466   1.102   3.081 -0.1657  0.5442  0.1002
  158OSM    H5S17670   3.569   1.064   3.078 -1.0194 -2.2980  2.5060
  158OSM    C6S17671   3.371   1.026   3.164 -0.0737  0.0083  0.7715
  158OSM    H6S17672   3.379   0.919   3.137  1.8985  0.6191 -1.3670
  158OSM    H6T17673   3.265   1.047   3.135  0.3904  0.3086 -0.7894
  158OSM    C7S17674   3.398   1.063   3.311  0.3503  0.1604  0.3403
  158OSM    H7S17675   3.361   1.168   3.308 -0.1389  0.0864  2.2684
  158OSM    H7T17676   3.504   1.052   3.341  0.0475 -0.1237  1.3679
  158OSM    C8S17677   3.300   0.986   3.402  0.1060 -0.2777  0.4742
  158OSM    H8S17678   3.316   0.877   3.389  1.5232 -0.0447  0.1121
  158OSM    H8T17679   3.197   1.002   3.363  0.4064 -3.7547 -2.2564
  158OSM    C9S17680   3.310   1.033   3.551  0.0217  0.3874 -0.1658
  158OSM    H9S17681   3.317   1.144   3.560 -0.2685  0.3781  0.1795
  158OSM    H9T17682   3.410   1.000   3.587 -0.3847  0.3927  1.0371
  158OSM   C10S17683   3.202   0.986   3.645  0.6593 -0.2363 -0.3579
  158OSM   H10S17684   3.200   0.875   3.655 -1.0065 -0.1452  0.6676
  158OSM   H10T17685   3.111   1.026   3.597  0.2495 -1.3653 -0.5447
  158OSM   C11S17686   3.222   1.047   3.790  0.0894  0.5867  0.0220
  158OSM   H11S17687   3.229   1.157   3.804 -1.4007  0.7406 -0.2175
  158OSM   H11T17688   3.307   0.996   3.839 -0.4866 -1.0413 -0.5926
  158OSM   C12S17689   3.093   1.000   3.865 -0.1882 -0.7176  0.3944
  158OSM   H12S17690   3.061   0.899   3.830 -0.7864  0.1959 -1.8471
  158OSM   H12T17691   3.008   1.069   3.846  1.1444  0.8778 -0.0238
  158OSM   C13S17692   3.117   1.008   4.020  0.1983  0.6210 -0.3090
  158OSM   H13S17693   3.147   1.109   4.054  0.2257  0.2197  0.9127
  158OSM   H13T17694   3.205   0.946   4.047 -0.6385 -0.8264 -0.7508
  158OSM   C14S17695   2.997   0.936   4.090  0.6778 -0.0748  0.2008
  158OSM   H14S17696   2.982   0.832   4.052  0.7203  0.3292 -0.9437
  158OSM   H14T17697   2.908   0.998   4.068  1.5920  1.2705  0.2223
  158OSM   C15S17698   3.013   0.944   4.242 -0.0170 -0.1726  0.1789
  158OSM   H15S17699   3.046   1.044   4.279  1.2501 -0.5730  0.1803
  158OSM   H15T17700   3.097   0.878   4.274 -0.5879 -2.0567 -1.9467
  158OSM   C16S17701   2.883   0.896   4.308  0.3022 -0.6575  0.1088
  158OSM   H16S17702   2.804   0.965   4.272  0.7232 -0.1325  0.1778
  158OSM   H16T17703   2.899   0.907   4.418  3.3153 -0.3904 -0.2606
  158OSM   C17S17704   2.828   0.755   4.284  0.1863 -0.5804 -0.0043
  158OSM   H17S17705   2.911   0.682   4.299  0.7319 -0.0042 -0.1922
  158OSM   H17T17706   2.786   0.751   4.181  1.0774  1.2372 -0.4774
  158OSM   C18S17707   2.718   0.733   4.383  0.7031  0.0146 -0.2616
  158OSM   H18S17708   2.752   0.723   4.489 -1.4633  1.7862  0.6799
  158OSM   H18T17709   2.659   0.643   4.356 -0.9543  0.3174  2.0492
  158OSM   H18U17710   2.649   0.820   4.379  1.5439  0.7170  0.1966
  158OSM    C1F17711   3.659   1.367   3.307 -0.4057 -0.2192  0.6869
  158OSM     OF17712   3.636   1.486   3.331 -0.2032  0.6900  0.1161
  158OSM    C2F17713   3.688   1.288   3.423  0.8397  0.0226 -0.4411
  158OSM    H2F17714   3.783   1.320   3.470  0.8282 -0.3418 -0.1710
  158OSM    H2G17715   3.690   1.181   3.393  0.5418  0.0440 -0.5454
  158OSM    C3F17716   3.586   1.295   3.534  0.4838  0.4589  0.1871
  158OSM    H3F17717   3.490   1.242   3.515 -0.8272  2.5832  0.4102
  158OSM    H3G17718   3.564   1.402   3.559 -1.1004  0.2247 -0.0703
  158OSM    C4F17719   3.641   1.245   3.663 -0.6924  0.4672 -0.6544
  158OSM    H4F17720   3.731   1.298   3.702 -0.8110 -0.5223  1.0882
  158OSM    H4G17721   3.676   1.141   3.651  0.8003  0.9221 -0.4388
  158OSM    C5F17722   3.536   1.232   3.785 -1.2427 -0.8177 -0.2173
  158OSM    H5F17723   3.454   1.163   3.757 -3.2465  1.4955 -0.3840
  158OSM    H5G17724   3.481   1.328   3.798 -0.4081 -0.0549 -1.8959
  158OSM    C6F17725   3.596   1.190   3.918 -0.3804 -0.1753 -0.8444
  158OSM    H6F17726   3.691   1.134   3.904  0.1410  0.3421  0.4697
  158OSM    H6G17727   3.523   1.118   3.961  0.0389 -0.2994 -0.3216
  158OSM    C7F17728   3.607   1.311   4.010 -0.5014  1.0608 -0.3573
  158OSM    H7F17729   3.510   1.365   4.008 -0.6647  0.7837  0.0901
  158OSM    H7G17730   3.694   1.369   3.971 -0.3325  0.0147 -1.5934
  158OSM    C8F17731   3.626   1.271   4.159  0.0250 -0.0139  0.2845
  158OSM    H8F17732   3.703   1.193   4.180  1.2251  1.5716  2.1747
  158OSM    H8G17733   3.532   1.221   4.190 -0.1905 -1.9039 -2.9940
  158OSM    C9F17734   3.645   1.397   4.242 -0.3478 -0.5428  0.3042
  158OSM    H9F17735   3.558   1.463   4.239 -0.0366 -0.1259  0.3882
  158OSM   C10F17736   3.747   1.441   4.311  0.0246 -0.1045 -1.0196
  158OSM   H10F17737   3.734   1.537   4.363 -2.2196 -1.0126  0.2136
  158OSM   C11F17738   3.871   1.361   4.342  0.4849  0.1883 -0.1265
  158OSM   H11F17739   3.962   1.413   4.304  0.0192 -0.1507 -1.7882
  158OSM   H11G17740   3.869   1.260   4.295  0.5814  0.7875 -1.4736
  158OSM   C12F17741   3.893   1.320   4.493 -0.2472 -0.1474 -0.1067
  158OSM   H12F17742   3.818   1.242   4.516  0.7951 -1.4860 -1.0491
  158OSM   H12G17743   3.871   1.404   4.562 -1.3076 -0.0389 -0.5670
  158OSM   C13F17744   4.035   1.268   4.534  0.3623 -0.0966  0.5064
  158OSM   H13F17745   4.097   1.351   4.495 -1.8616  1.5755  0.3528
  158OSM   H13G17746   4.049   1.177   4.472 -2.0946 -1.0744  1.2603
  158OSM   C14F17747   4.044   1.244   4.686  0.1885  0.4544  0.8648
  158OSM   H14F17748   3.984   1.155   4.713  1.2831 -0.0279  1.7746
  158OSM   H14G17749   4.006   1.328   4.749 -0.4802  0.7641  0.0751
  158OSM   C15F17750   4.190   1.211   4.733 -0.2070  0.2035 -0.2614
  158OSM   H15F17751   4.250   1.304   4.727 -0.1035  0.0481 -4.2170
  158OSM   H15G17752   4.225   1.137   4.658  1.5180  1.0328 -0.3284
  158OSM   C16F17753   4.194   1.156   4.874 -1.0455  0.0537 -0.4050
  158OSM   H16F17754   4.293   1.108   4.887 -1.0594 -0.3863 -1.7309
  158OSM   H16G17755   4.123   1.070   4.875  0.1488 -0.9959  2.1412
  158OSM   C17F17756   4.165   1.246   4.993 -0.3876 -0.0935 -0.3412
  158OSM   H17F17757   4.067   1.294   4.976  0.4924  1.9456  0.0020
  158OSM   H17G17758   4.241   1.327   4.994  0.6221 -1.0178  0.3811
  158OSM   C18F17759   4.172   1.174   5.129 -0.0458 -0.2725  0.0166
  158OSM   H18F17760   4.113   1.080   5.122 -2.6096  1.3340 -3.5832
  158OSM   H18G17761   4.134   1.230   5.217  0.1441 -1.0808  0.6250
  158OSM   H18H17762   4.276   1.143   5.150 -0.2533 -2.2115 -1.4767
  159OSM      N17763   3.287   4.920   2.581 -0.2156  0.3118 -0.0122
  159OSM    C1517764   3.178   4.958   2.487 -0.6992  0.2876  0.0268
  159OSM   H15A17765   3.173   5.064   2.507 -0.0236  0.0925  1.3789
  159OSM   H15B17766   3.083   4.917   2.517 -1.1185  0.8309 -0.5427
  159OSM   H15C17767   3.198   4.918   2.389 -0.8971 -0.7785  0.4025
  159OSM    C1417768   3.335   4.781   2.556  0.9634 -0.6797  0.6624
  159OSM   H14A17769   3.425   4.774   2.615  0.9805 -2.4176  0.4835
  159OSM   H14B17770   3.366   4.766   2.453 -1.4579 -1.4844 -0.0075
  159OSM   H14C17771   3.268   4.701   2.582  1.0394 -0.6734  0.8749
  159OSM    C1317772   3.400   5.019   2.568  0.6165  0.0629  0.6446
  159OSM   H13A17773   3.378   5.123   2.588 -0.8018  0.3328 -1.8334
  159OSM   H13B17774   3.429   5.007   2.465 -0.0075  0.2210  0.4454
  159OSM   H13C17775   3.484   5.000   2.634  2.3631 -0.3583 -1.5770
  159OSM    C1217776   3.233   4.919   2.724  0.5097 -0.0358 -0.0898
  159OSM   H12A17777   3.178   5.012   2.738  0.5044  0.0011 -0.3536
  159OSM   H12B17778   3.304   4.938   2.804 -1.7582  1.8076  1.6574
  159OSM    C1117779   3.139   4.806   2.762 -0.6067  0.3186  0.1060
  159OSM   H11A17780   3.139   4.800   2.873  0.8585 -2.2108  0.0339
  159OSM   H11B17781   3.168   4.702   2.738  1.2200  0.2425  2.3050
  159OSM      P17782   2.905   4.747   2.653 -0.0909  0.1826  0.2286
  159OSM    O1317783   2.786   4.833   2.635 -0.4708  0.4474  0.9172
  159OSM    O1417784   2.962   4.688   2.526 -0.4097  0.0733  0.6709
  159OSM    O1117785   2.869   4.633   2.761 -0.6296  0.5459 -0.3807
  159OSM    O1217786   3.009   4.846   2.722  0.4881 -0.1174  0.2979
  159OSM    C1S17787   2.847   4.681   2.895 -0.5092 -0.3382 -0.0304
  159OSM    H1S17788   2.802   4.782   2.901  0.5825  0.1694 -0.3269
  159OSM    H1T17789   2.943   4.691   2.950 -0.7799  0.5987  0.2921
  159OSM     NF17790   2.681   4.643   3.096  0.2798  0.0255 -0.2052
  159OSM    HNF17791   2.704   4.614   3.188  0.3317 -1.7073 -0.7371
  159OSM    C2S17792   2.748   4.587   2.978 -0.3815 -0.3261 -0.1303
  159OSM    H2S17793   2.665   4.562   2.908 -1.5267  2.3494  0.1657
  159OSM    C3S17794   2.807   4.448   3.005  0.4647 -0.2776 -0.3829
  159OSM    H3S17795   2.888   4.465   3.079  0.2421  0.7822 -0.3593
  159OSM     O317796   2.866   4.386   2.889 -0.7670 -0.2414  0.3420
  159OSM    HO317797   2.868   4.464   2.833  0.3069 -0.6867 -0.2539
  159OSM    C4S17798   2.705   4.345   3.060  0.2703 -0.7419  0.2296
  159OSM    H4S17799   2.644   4.293   2.984 -1.6347 -0.1659  1.2919
  159OSM    C5S17800   2.690   4.296   3.184 -0.2859  0.3433 -0.7714
  159OSM    H5S17801   2.754   4.326   3.268 -0.9656 -1.7568  0.5718
  159OSM    C6S17802   2.596   4.191   3.233  0.8615  0.1454  0.1078
  159OSM    H6S17803   2.590   4.108   3.159  3.5799  1.0097 -1.2351
  159OSM    H6T17804   2.490   4.222   3.226  1.0833  0.6899 -1.1847
  159OSM    C7S17805   2.618   4.131   3.372  0.1732  0.0213 -0.3547
  159OSM    H7S17806   2.717   4.083   3.389  0.4238  0.9494  0.9153
  159OSM    H7T17807   2.549   4.044   3.373 -0.3529  0.4137 -1.1883
  159OSM    C8S17808   2.577   4.220   3.490 -0.8150  0.3436 -0.4142
  159OSM    H8S17809   2.468   4.242   3.488 -0.5899  1.4277 -1.7133
  159OSM    H8T17810   2.633   4.312   3.461  1.2495 -0.7794 -0.1851
  159OSM    C9S17811   2.625   4.176   3.626  0.2500 -0.4995  0.1565
  159OSM    H9S17812   2.615   4.262   3.695 -0.0213 -0.9150  0.6403
  159OSM    H9T17813   2.731   4.141   3.623  0.8860  1.3393 -0.6438
  159OSM   C10S17814   2.532   4.065   3.677 -0.0427  0.2328  0.4363
  159OSM   H10S17815   2.538   3.979   3.608 -1.5296 -1.1746  1.9701
  159OSM   H10T17816   2.427   4.104   3.680  0.8749  3.0621 -0.6315
  159OSM   C11S17817   2.578   4.022   3.815  0.4343  0.0379 -0.1498
  159OSM   H11S17818   2.688   4.017   3.828  0.3933 -0.1081  0.1532
  159OSM   H11T17819   2.530   3.924   3.838 -0.9128  0.4341 -1.1021
  159OSM   C12S17820   2.524   4.119   3.927 -0.2430 -0.2675  0.6193
  159OSM   H12S17821   2.421   4.153   3.904 -1.2869 -1.6536  2.9248
  159OSM   H12T17822   2.592   4.207   3.926 -0.1344 -0.3473 -0.1716
  159OSM   C13S17823   2.519   4.043   4.054 -0.6594 -0.7461 -0.1335
  159OSM   H13S17824   2.612   3.983   4.055  0.0796  0.2671 -2.1883
  159OSM   H13T17825   2.431   3.975   4.056 -1.1893 -0.0834 -0.5512
  159OSM   C14S17826   2.511   4.143   4.177 -0.4222 -0.3678 -0.2010
  159OSM   H14S17827   2.433   4.221   4.167  1.9252  1.8565 -3.4223
  159OSM   H14T17828   2.610   4.193   4.187 -0.6618  0.5992 -2.1442
  159OSM   C15S17829   2.486   4.067   4.307 -0.4216  0.0295 -0.0725
  159OSM   H15S17830   2.569   3.994   4.319  0.2455  1.0436  1.8667
  159OSM   H15T17831   2.391   4.012   4.290 -1.1862  1.4482 -0.5099
  159OSM   C16S17832   2.486   4.160   4.428  0.2360  0.3264  0.7141
  159OSM   H16S17833   2.383   4.201   4.423 -1.0484 -2.5284  1.6826
  159OSM   H16T17834   2.544   4.254   4.424 -0.6607  0.8614 -0.1549
  159OSM   C17S17835   2.486   4.084   4.557 -0.1678  0.0902  0.7920
  159OSM   H17S17836   2.587   4.039   4.569  0.3630  0.8019 -0.8124
  159OSM   H17T17837   2.403   4.012   4.571  0.5114 -0.3217  3.3135
  159OSM   C18S17838   2.475   4.179   4.673  0.3920 -0.2998 -0.0730
  159OSM   H18S17839   2.577   4.220   4.690 -0.0321  0.4430  0.7270
  159OSM   H18T17840   2.435   4.126   4.762 -0.2469  1.1936  0.5568
  159OSM   H18U17841   2.401   4.261   4.662  1.2610  0.6181  0.7536
  159OSM    C1F17842   2.596   4.748   3.080 -0.1213  0.8433  0.4990
  159OSM     OF17843   2.562   4.771   2.967  0.2167 -0.3823  0.5985
  159OSM    C2F17844   2.570   4.826   3.203  0.3325 -0.3451 -0.3943
  159OSM    H2F17845   2.665   4.874   3.236  1.3391 -1.3850 -1.6837
  159OSM    H2G17846   2.538   4.748   3.274  0.2980  0.5475  0.6050
  159OSM    C3F17847   2.469   4.943   3.202 -0.3524 -0.1347  0.2666
  159OSM    H3F17848   2.383   4.894   3.151  1.0258 -1.0311 -1.2978
  159OSM    H3G17849   2.505   5.019   3.130  1.7409 -1.4281 -0.1402
  159OSM    C4F17850   2.429   4.999   3.342  0.2203  0.2880  0.1962
  159OSM    H4F17851   2.361   4.934   3.401 -0.2329  0.7722  0.2259
  159OSM    H4G17852   2.375   5.096   3.329 -0.9411 -0.4402 -0.6430
  159OSM    C5F17853   2.545   5.055   3.426  0.0826 -0.0812 -0.1456
  159OSM    H5F17854   2.633   5.073   3.361  0.1480 -1.9874 -0.6540
  159OSM    H5G17855   2.573   4.972   3.495 -0.0204 -0.4525 -0.5408
  159OSM    C6F17856   2.516   5.182   3.496  0.3055 -0.4387 -0.2837
  159OSM    H6F17857   2.431   5.168   3.566 -1.1785 -0.5954 -2.0338
  159OSM    H6G17858   2.495   5.255   3.415 -1.4548 -1.3005 -0.6369
  159OSM    C7F17859   2.631   5.245   3.571 -0.3795 -0.3469 -0.4515
  159OSM    H7F17860   2.597   5.349   3.593 -1.9992 -1.1785  1.3258
  159OSM    H7G17861   2.714   5.259   3.499  0.3922  1.5616  0.7293
  159OSM    C8F17862   2.678   5.163   3.692 -0.2399 -0.3339  0.0800
  159OSM    H8F17863   2.785   5.187   3.704 -0.0200 -0.0514 -2.0132
  159OSM    H8G17864   2.680   5.062   3.644 -1.7078  1.1731 -3.5329
  159OSM    C9F17865   2.585   5.176   3.809 -0.2815  0.1323 -0.3471
  159OSM    H9F17866   2.484   5.138   3.792 -0.0502  0.2473 -2.1794
  159OSM   C10F17867   2.623   5.223   3.929 -0.5012 -0.0661 -0.0215
  159OSM   H10F17868   2.558   5.221   4.018  1.3851  1.2228  1.4510
  159OSM   C11F17869   2.763   5.265   3.967  0.1436  0.3276  0.3287
  159OSM   H11F17870   2.776   5.364   3.918  1.1790 -0.1933 -0.4811
  159OSM   H11G17871   2.836   5.194   3.923 -0.6441 -0.5492  0.4082
  159OSM   C12F17872   2.791   5.282   4.111  0.2775 -0.4651 -0.2840
  159OSM   H12F17873   2.900   5.302   4.108  0.6003 -2.1786 -1.2979
  159OSM   H12G17874   2.768   5.190   4.168  0.7380  0.8215  2.0811
  159OSM   C13F17875   2.712   5.402   4.168 -0.6115 -0.5934 -0.2394
  159OSM   H13F17876   2.604   5.379   4.181 -1.6426  4.1045  1.3917
  159OSM   H13G17877   2.716   5.488   4.097 -1.3595  0.0424  0.4725
  159OSM   C14F17878   2.778   5.458   4.296 -0.1626  0.4873  0.4673
  159OSM   H14F17879   2.707   5.539   4.326  1.2251  1.2519  1.8308
  159OSM   H14G17880   2.875   5.507   4.271  0.7298 -1.7038 -0.5653
  159OSM   C15F17881   2.811   5.352   4.404 -0.1649  0.6168  0.2875
  159OSM   H15F17882   2.884   5.278   4.365 -1.8903 -1.4054  0.6858
  159OSM   H15G17883   2.721   5.286   4.408  0.5683 -0.4104  0.1794
  159OSM   C16F17884   2.832   5.408   4.542  0.2728 -0.4361 -0.1864
  159OSM   H16F17885   2.905   5.492   4.536 -0.4183  0.1758 -0.0874
  159OSM   H16G17886   2.879   5.318   4.588  1.0484  0.0072 -0.0917
  159OSM   C17F17887   2.708   5.451   4.618 -0.2344  0.4947 -0.6117
  159OSM   H17F17888   2.623   5.391   4.580 -0.6444  0.6534  0.0459
  159OSM   H17G17889   2.693   5.558   4.591 -0.9163  1.1877  2.1831
  159OSM   C18F17890   2.721   5.438   4.772 -0.2378  0.2935  0.1878
  159OSM   H18F17891   2.749   5.539   4.810 -1.8879  0.9804 -0.3242
  159OSM   H18G17892   2.791   5.357   4.802 -1.6014 -1.3868 -0.9747
  159OSM   H18H17893   2.624   5.411   4.818 -0.4118  1.1746  0.3686
  160OSM      N17894   0.319   5.085   2.528 -0.2496 -0.6593 -0.1743
  160OSM    C1517895   0.362   4.954   2.594  0.3201 -0.3654 -0.2562
  160OSM   H15A17896   0.397   4.883   2.521  0.7791 -0.3901 -0.0165
  160OSM   H15B17897   0.273   4.908   2.635 -0.4528 -0.2207 -1.7213
  160OSM   H15C17898   0.445   4.971   2.661 -0.0932  0.7722 -0.0021
  160OSM    C1417899   0.417   5.120   2.414 -0.4556  0.0334  0.2029
  160OSM   H14A17900   0.517   5.121   2.454 -0.8114 -0.0287  1.1214
  160OSM   H14B17901   0.406   5.225   2.391  1.6543  0.2049 -0.1969
  160OSM   H14C17902   0.409   5.046   2.336 -0.7071  2.2541 -2.0238
  160OSM    C1317903   0.183   5.063   2.463  0.0280 -0.5506 -0.3992
  160OSM   H13A17904   0.144   5.159   2.433  4.0823  2.3023  2.3743
  160OSM   H13B17905   0.118   5.019   2.537  0.2836 -2.5915 -1.3122
  160OSM   H13C17906   0.194   4.994   2.381  2.0038 -3.5804  2.1922
  160OSM    C1217907   0.319   5.202   2.640 -0.0398  0.3431 -0.7399
  160OSM   H12A17908   0.220   5.213   2.679  0.7841  0.1906  1.5243
  160OSM   H12B17909   0.335   5.292   2.582 -0.7495  0.2850 -1.0309
  160OSM    C1117910   0.421   5.201   2.760  0.2423 -0.1121  0.8111
  160OSM   H11A17911   0.399   5.105   2.811 -4.0350 -0.3014 -0.9827
  160OSM   H11B17912   0.396   5.286   2.827  0.0954  1.4283 -1.0990
  160OSM      P17913   0.679   5.127   2.744  0.1401  0.2546  0.0185
  160OSM    O1317914   0.674   5.015   2.652  0.1105 -0.0150  0.0626
  160OSM    O1417915   0.796   5.218   2.738 -0.4519  0.2463 -0.6734
  160OSM    O1117916   0.654   5.067   2.889  0.3309 -0.0184 -0.0694
  160OSM    O1217917   0.554   5.222   2.716  0.6708  0.0294 -0.5891
  160OSM    C1S17918   0.648   5.158   3.000 -0.8173  0.4281 -0.2721
  160OSM    H1S17919   0.558   5.222   2.999 -0.9616  0.4310  2.8801
  160OSM    H1T17920   0.741   5.218   2.997  1.4690 -2.7369  1.0223
  160OSM     NF17921   0.670   5.177   3.238 -0.4583  0.2891  0.3770
  160OSM    HNF17922   0.742   5.168   3.306  0.0036  1.8945  0.1257
  160OSM    C2S17923   0.642   5.088   3.133 -0.1166 -0.5017 -0.5534
  160OSM    H2S17924   0.542   5.043   3.151 -0.8697  1.4587  0.4421
  160OSM    C3S17925   0.742   4.961   3.138  0.1278  0.6213 -0.3630
  160OSM    H3S17926   0.845   4.999   3.122  0.7181 -0.8232 -0.0823
  160OSM     O317927   0.724   4.864   3.033 -0.2765  0.2424 -0.2097
  160OSM    HO317928   0.694   4.928   2.968 -1.8002  1.4317  1.5657
  160OSM    C4S17929   0.742   4.887   3.264  0.2449  0.3346 -0.3841
  160OSM    H4S17930   0.828   4.919   3.324  0.0632 -1.1274  0.7227
  160OSM    C5S17931   0.659   4.788   3.301 -0.0898  0.4242 -0.2919
  160OSM    H5S17932   0.590   4.739   3.231  0.8465 -2.8675  0.8610
  160OSM    C6S17933   0.665   4.714   3.433  0.0750  0.7245  0.0642
  160OSM    H6S17934   0.711   4.613   3.425 -0.6250  0.2926  1.3110
  160OSM    H6T17935   0.563   4.689   3.467 -0.2152  0.0996 -1.2099
  160OSM    C7S17936   0.742   4.791   3.547 -0.6439  0.2929  0.5818
  160OSM    H7S17937   0.690   4.889   3.551 -0.4140  0.5788 -1.8294
  160OSM    H7T17938   0.842   4.805   3.500 -1.7229  0.9775 -1.6627
  160OSM    C8S17939   0.746   4.727   3.685 -0.3004 -0.6170 -0.3081
  160OSM    H8S17940   0.788   4.625   3.675 -0.2567 -0.4529 -2.0830
  160OSM    H8T17941   0.644   4.712   3.727  0.0111 -1.8915  0.0553
  160OSM    C9S17942   0.826   4.811   3.787 -0.6824 -0.1642 -0.3021
  160OSM    H9S17943   0.776   4.910   3.799 -0.0143  0.0021  1.3763
  160OSM    H9T17944   0.926   4.819   3.739  0.5671 -2.1491  1.7748
  160OSM   C10S17945   0.829   4.758   3.936  0.0706  0.0966 -0.0953
  160OSM   H10S17946   0.890   4.665   3.940 -0.7361 -0.4647 -0.6798
  160OSM   H10T17947   0.731   4.721   3.973  0.6823 -1.1829  0.3104
  160OSM   C11S17948   0.866   4.862   4.041 -0.3568  0.7160  0.4933
  160OSM   H11S17949   0.798   4.949   4.029 -1.7597 -0.6029 -1.7376
  160OSM   H11T17950   0.972   4.891   4.026 -0.3432  0.4882  0.1344
  160OSM   C12S17951   0.845   4.817   4.181  0.0409  0.1465 -0.3992
  160OSM   H12S17952   0.914   4.732   4.201 -0.9871 -0.1647  2.2734
  160OSM   H12T17953   0.740   4.791   4.205 -0.2340  1.2560 -0.3087
  160OSM   C13S17954   0.887   4.922   4.284 -0.0476  0.0533  0.2899
  160OSM   H13S17955   0.809   5.001   4.277  0.6167  0.7024  0.1989
  160OSM   H13T17956   0.983   4.966   4.252  0.9120 -2.3148 -0.3515
  160OSM   C14S17957   0.898   4.871   4.425  0.0023  0.7908 -0.5775
  160OSM   H14S17958   0.943   4.957   4.480  0.4153  0.7480 -0.8440
  160OSM   H14T17959   0.972   4.787   4.429 -0.0910  0.6540 -1.5419
  160OSM   C15S17960   0.765   4.834   4.490  0.0572 -0.2517  0.3688
  160OSM   H15S17961   0.739   4.732   4.456 -1.0750  0.6789 -1.8147
  160OSM   H15T17962   0.681   4.902   4.462 -0.2616 -0.3802  0.9873
  160OSM   C16S17963   0.780   4.831   4.646  0.7757 -0.3267  0.3908
  160OSM   H16S17964   0.838   4.917   4.687 -0.0857  0.5888 -0.2859
  160OSM   H16T17965   0.828   4.732   4.661 -1.1770 -1.0967  2.0004
  160OSM   C17S17966   0.645   4.847   4.718  0.0486  0.3909  0.1579
  160OSM   H17S17967   0.575   4.761   4.703 -1.3505  1.2314  1.5450
  160OSM   H17T17968   0.590   4.929   4.666 -1.8913 -0.9411 -0.0243
  160OSM   C18S17969   0.646   4.882   4.862 -0.2570  0.2086  0.1221
  160OSM   H18S17970   0.708   4.807   4.916 -0.5703  0.3190  0.6339
  160OSM   H18T17971   0.546   4.881   4.910  0.1311 -1.8752  0.9869
  160OSM   H18U17972   0.701   4.977   4.877 -1.0396  0.8303 -0.8697
  160OSM    C1F17973   0.576   5.271   3.267 -1.0029 -0.6238 -0.1482
  160OSM     OF17974   0.475   5.273   3.204 -0.2938  0.2459  0.0519
  160OSM    C2F17975   0.611   5.364   3.380 -0.3868  0.3738 -0.0471
  160OSM    H2F17976   0.708   5.408   3.351 -0.2447  0.2830  0.2812
  160OSM    H2G17977   0.628   5.305   3.473  0.3503  0.3310 -0.2053
  160OSM    C3F17978   0.500   5.469   3.412  0.2567  0.0007 -0.4819
  160OSM    H3F17979   0.406   5.413   3.435  0.6745  0.2494  2.0677
  160OSM    H3G17980   0.485   5.527   3.318 -2.7167  1.5033  0.7846
  160OSM    C4F17981   0.531   5.567   3.531  0.8626  0.5108  0.4339
  160OSM    H4F17982   0.621   5.631   3.519 -0.0072  1.3225 -2.2955
  160OSM    H4G17983   0.550   5.493   3.612  0.5627 -0.2514 -0.1791
  160OSM    C5F17984   0.408   5.656   3.551 -0.7796 -0.2632  1.0583
  160OSM    H5F17985   0.328   5.579   3.545 -0.1832 -0.8604  0.6591
  160OSM    H5G17986   0.397   5.731   3.470  2.7352 -0.0743  0.6094
  160OSM    C6F17987   0.398   5.710   3.697  0.6548 -0.0596 -0.2077
  160OSM    H6F17988   0.317   5.785   3.694  0.9719  0.2726 -1.7826
  160OSM    H6G17989   0.485   5.774   3.721 -1.1603  2.9319 -1.0727
  160OSM    C7F17990   0.389   5.610   3.812 -0.7279 -0.4845 -0.2016
  160OSM    H7F17991   0.470   5.534   3.805 -0.6941 -0.4025 -0.7425
  160OSM    H7G17992   0.292   5.557   3.812 -0.2277 -1.5452  2.3093
  160OSM    C8F17993   0.398   5.693   3.953 -0.1617  0.4227  0.2459
  160OSM    H8F17994   0.357   5.613   4.019 -0.7275 -0.3030 -0.9581
  160OSM    H8G17995   0.318   5.770   3.943  0.3313  0.7104 -1.9070
  160OSM    C9F17996   0.534   5.749   4.009  0.3076  0.0613  0.9446
  160OSM    H9F17997   0.573   5.832   3.948 -0.2724  0.4958  1.1522
  160OSM   C10F17998   0.589   5.719   4.126 -0.2799  0.4004  0.2294
  160OSM   H10F17999   0.684   5.766   4.155  0.4937  2.0850 -4.1231
  160OSM   C11F18000   0.535   5.624   4.227  0.2036 -0.0423  0.3316
  160OSM   H11F18001   0.617   5.561   4.269 -1.3939 -2.5430 -0.1008
  160OSM   H11G18002   0.459   5.564   4.174  1.1354  0.1302 -1.2617
  160OSM   C12F18003   0.460   5.709   4.338  0.5923 -0.1033 -0.0761
  160OSM   H12F18004   0.386   5.643   4.389 -0.2262  1.5848  0.9950
  160OSM   H12G18005   0.408   5.794   4.289 -2.8156 -2.0631 -0.1909
  160OSM   C13F18006   0.550   5.769   4.445 -0.5376 -0.0161  0.5011
  160OSM   H13F18007   0.614   5.845   4.395  1.1840 -0.2014  2.2988
  160OSM   H13G18008   0.617   5.690   4.485 -0.3644  0.4703  1.1849
  160OSM   C14F18009   0.483   5.847   4.547  0.6084  0.1063 -0.1975
  160OSM   H14F18010   0.400   5.788   4.592  1.3637 -1.1205 -0.3841
  160OSM   H14G18011   0.423   5.924   4.493 -0.5912 -1.5593 -1.3598
  160OSM   C15F18012   0.572   5.908   4.654 -0.1787 -0.0760 -0.7920
  160OSM   H15F18013   0.512   5.958   4.734 -0.9325 -1.0192 -0.7546
  160OSM   H15G18014   0.630   5.989   4.606 -0.3979 -1.1323 -2.9396
  160OSM   C16F18015   0.654   5.809   4.735 -0.2311  0.3320 -0.4359
  160OSM   H16F18016   0.724   5.883   4.780  0.1647  0.7974 -1.7673
  160OSM   H16G18017   0.724   5.755   4.667  0.9460  1.9224 -0.5411
  160OSM   C17F18018   0.589   5.725   4.845  0.1440  0.4501  0.1381
  160OSM   H17F18019   0.663   5.645   4.866 -0.6833 -0.2942  0.3338
  160OSM   H17G18020   0.502   5.672   4.800  0.9288  0.6921 -1.7537
  160OSM   C18F18021   0.557   5.807   4.971 -0.0284  0.6490  0.0859
  160OSM   H18F18022   0.651   5.856   5.004  1.5776 -1.5162 -1.0780
  160OSM   H18G18023   0.518   5.738   5.048 -1.1167  0.8038 -0.3030
  160OSM   H18H18024   0.482   5.885   4.944  0.1038  0.3227 -1.3065
  161OSM      N18025   6.028   3.198   3.011 -0.0569  0.4312  1.2352
  161OSM    C1518026   6.175   3.194   3.050  0.3393 -0.1719  0.1623
  161OSM   H15A18027   6.188   3.185   3.157  0.0760  1.5721  0.3729
  161OSM   H15B18028   6.217   3.290   3.024  0.2994 -0.8046 -2.5841
  161OSM   H15C18029   6.216   3.108   2.999  1.1791  0.1615  0.2553
  161OSM    C1418030   5.974   3.332   3.054 -0.6621  0.9289 -0.3799
  161OSM   H14A18031   5.988   3.342   3.160  1.2960 -4.0588  0.0759
  161OSM   H14B18032   5.869   3.322   3.027 -0.0987 -0.8236 -2.2115
  161OSM   H14C18033   6.015   3.410   2.992  1.4190 -0.7229 -1.2015
  161OSM    C1318034   6.028   3.185   2.861 -0.2949  0.5705  0.7854
  161OSM   H13A18035   6.058   3.086   2.830 -1.2489  0.0532  1.4590
  161OSM   H13B18036   6.089   3.259   2.811 -0.3415  0.2118  0.1942
  161OSM   H13C18037   5.923   3.202   2.841 -0.3387 -0.4871  0.0636
  161OSM    C1218038   5.944   3.094   3.074  0.3679 -1.2049  0.2113
  161OSM   H12A18039   5.956   3.105   3.180  2.9858  1.1601 -0.2059
  161OSM   H12B18040   5.993   3.000   3.056 -0.9648 -2.4471  2.6668
  161OSM    C1118041   5.788   3.087   3.038 -0.7316  0.6362  0.9328
  161OSM   H11A18042   5.741   2.991   3.071 -0.9372  0.6666  0.7325
  161OSM   H11B18043   5.786   3.070   2.928  0.0726  0.8826  0.8768
  161OSM      P18044   5.559   3.219   3.029  0.0344  0.1093  0.3768
  161OSM    O1318045   5.495   3.331   3.106  0.0109  0.2501  0.1207
  161OSM    O1418046   5.553   3.224   2.880 -0.5899 -0.6475 -0.1393
  161OSM    O1118047   5.476   3.092   3.068  0.0255  0.1644 -0.1272
  161OSM    O1218048   5.712   3.201   3.068  0.3289  0.0981 -0.3915
  161OSM    C1S18049   5.486   3.021   3.196 -0.3321  0.3160 -0.1971
  161OSM    H1S18050   5.583   3.042   3.246  0.2915 -1.5976 -0.5218
  161OSM    H1T18051   5.463   2.912   3.187  1.7975 -0.2934  0.9283
  161OSM     NF18052   5.405   3.038   3.437 -0.0212 -0.0446 -0.0648
  161OSM    HNF18053   5.353   2.960   3.471  0.0845 -0.9333 -1.8307
  161OSM    C2S18054   5.374   3.068   3.297 -0.3317 -0.4466  0.2600
  161OSM    H2S18055   5.373   3.179   3.291  0.9210 -0.3159  1.9273
  161OSM    C3S18056   5.233   3.028   3.245 -0.6097  0.5087 -0.3401
  161OSM    H3S18057   5.229   2.919   3.229  0.8992  0.6637 -2.1788
  161OSM     O318058   5.217   3.079   3.115 -0.9436 -0.0151 -0.0913
  161OSM    HO318059   5.305   3.113   3.098  0.2062 -2.3484  0.7196
  161OSM    C4S18060   5.127   3.074   3.339  0.7593 -0.2293 -0.4099
  161OSM    H4S18061   5.127   3.182   3.361 -0.2773 -0.4213  0.6516
  161OSM    C5S18062   5.032   2.989   3.393 -0.6844  0.4103  1.1478
  161OSM    H5S18063   5.043   2.882   3.374  2.7609  0.3199  2.7944
  161OSM    C6S18064   4.923   3.032   3.486 -0.5458  0.1470  0.4351
  161OSM    H6S18065   4.826   2.993   3.448 -0.3396 -0.3625  0.4242
  161OSM    H6T18066   4.905   3.142   3.487  2.3729  0.7186 -0.2398
  161OSM    C7S18067   4.933   2.979   3.629 -1.0330 -0.3446 -0.0615
  161OSM    H7S18068   5.036   2.996   3.666 -0.9833  0.4085 -0.5255
  161OSM    H7T18069   4.912   2.870   3.624  2.1887 -1.0503 -0.3959
  161OSM    C8S18070   4.832   3.043   3.724  0.0762 -0.7916  0.1901
  161OSM    H8S18071   4.732   2.996   3.712 -0.0816  0.1609 -3.6378
  161OSM    H8T18072   4.816   3.150   3.700  3.6319  0.0371  0.9085
  161OSM    C9S18073   4.878   3.043   3.868  0.3904  0.1904  0.0736
  161OSM    H9S18074   4.966   3.110   3.882  0.7887 -0.5092  1.0280
  161OSM    H9T18075   4.905   2.938   3.892  3.6032  0.9459  0.2882
  161OSM   C10S18076   4.781   3.081   3.974 -0.5394  0.0921  0.3893
  161OSM   H10S18077   4.677   3.046   3.955  0.6563 -3.8156  0.3774
  161OSM   H10T18078   4.782   3.192   3.970 -1.8296  0.1655  1.2740
  161OSM   C11S18079   4.814   3.043   4.116 -0.5608 -0.0857  0.1191
  161OSM   H11S18080   4.917   3.083   4.129 -0.7456  0.2762  0.4888
  161OSM   H11T18081   4.816   2.933   4.131 -2.2942 -0.1771 -0.1185
  161OSM   C12S18082   4.719   3.095   4.218  0.2392 -0.0669 -0.8868
  161OSM   H12S18083   4.635   3.022   4.213 -0.6168  0.7935  0.3497
  161OSM   H12T18084   4.690   3.199   4.193  1.1122  0.7547  1.2600
  161OSM   C13S18085   4.770   3.090   4.368 -0.2647  0.2312  0.0273
  161OSM   H13S18086   4.879   3.114   4.372 -0.6244  2.6301 -2.0457
  161OSM   H13T18087   4.758   2.984   4.399 -1.2404  0.5398  0.7465
  161OSM   C14S18088   4.693   3.178   4.464  0.0317 -0.8627 -0.1308
  161OSM   H14S18089   4.587   3.147   4.460  0.2601 -1.7372  0.4290
  161OSM   H14T18090   4.692   3.286   4.438 -0.4957 -1.1002 -1.1689
  161OSM   C15S18091   4.741   3.163   4.607  0.4584 -0.4469 -0.4854
  161OSM   H15S18092   4.849   3.191   4.609  0.0190  1.3845 -0.3838
  161OSM   H15T18093   4.742   3.057   4.639  0.1883 -0.7341 -1.4120
  161OSM   C16S18094   4.672   3.252   4.713  0.3557 -0.8142 -0.2984
  161OSM   H16S18095   4.685   3.361   4.694  0.0833 -0.0850  3.0334
  161OSM   H16T18096   4.723   3.245   4.812  2.5695  0.4685 -1.2681
  161OSM   C17S18097   4.518   3.216   4.732 -0.3422 -0.4902 -0.1978
  161OSM   H17S18098   4.511   3.117   4.781  0.2225  0.0650  1.0730
  161OSM   H17T18099   4.465   3.229   4.635 -1.6659 -0.6248  0.4718
  161OSM   C18S18100   4.458   3.321   4.834 -0.3844 -0.3002  0.2270
  161OSM   H18S18101   4.515   3.317   4.929  0.6608 -2.2614 -0.4463
  161OSM   H18T18102   4.350   3.296   4.839 -0.1817 -1.0333  1.1228
  161OSM   H18U18103   4.463   3.425   4.794 -0.6324 -0.2755  0.2575
  161OSM    C1F18104   5.502   3.096   3.502 -0.3395  0.0972 -0.5793
  161OSM     OF18105   5.554   3.202   3.462 -0.0370 -0.0330  0.3394
  161OSM    C2F18106   5.545   3.028   3.631 -0.3118  0.1232  0.0999
  161OSM    H2F18107   5.551   2.918   3.615  2.4210  0.2040  0.1125
  161OSM    H2G18108   5.473   3.055   3.712  0.7057 -0.1445  1.1171
  161OSM    C3F18109   5.692   3.064   3.667  0.1425 -0.0589 -0.4203
  161OSM    H3F18110   5.695   3.175   3.673 -2.2251 -0.0238  1.5747
  161OSM    H3G18111   5.745   3.019   3.580 -0.6363 -0.1655 -0.8483
  161OSM    C4F18112   5.749   2.997   3.789 -0.3770  0.2554 -0.7639
  161OSM    H4F18113   5.859   3.007   3.799 -0.5510  0.0392  2.0359
  161OSM    H4G18114   5.725   2.890   3.776 -0.5487  0.1596  0.3230
  161OSM    C5F18115   5.678   3.045   3.914  0.4537 -0.2826 -0.0325
  161OSM    H5F18116   5.571   3.070   3.896  0.4701  0.0254  0.2801
  161OSM    H5G18117   5.734   3.136   3.945 -0.6583  1.1684 -2.1074
  161OSM    C6F18118   5.691   2.940   4.030  0.0607  0.1639  0.6239
  161OSM    H6F18119   5.791   2.894   4.017  0.5020  1.1220  0.6007
  161OSM    H6G18120   5.611   2.865   4.009  0.4920 -0.1205 -0.0716
  161OSM    C7F18121   5.665   2.992   4.167 -0.5030 -0.2852 -0.3736
  161OSM    H7F18122   5.561   3.031   4.161 -1.3492 -2.3448  0.0335
  161OSM    H7G18123   5.737   3.072   4.196 -1.5151  0.9781 -1.2570
  161OSM    C8F18124   5.665   2.892   4.285  0.1879 -0.4145 -0.3048
  161OSM    H8F18125   5.590   2.815   4.258  0.1934 -0.1260 -1.1734
  161OSM    H8G18126   5.637   2.951   4.375 -2.5960  1.5312 -2.2976
  161OSM    C9F18127   5.799   2.828   4.305 -0.9072  0.4645  0.4635
  161OSM    H9F18128   5.828   2.753   4.231  0.2000  1.1833  0.1397
  161OSM   C10F18129   5.877   2.855   4.405 -0.3994  0.4083 -0.0780
  161OSM   H10F18130   5.977   2.809   4.401 -0.4153  0.4251 -1.1134
  161OSM   C11F18131   5.859   2.940   4.525 -0.8003  0.0130  0.3014
  161OSM   H11F18132   5.809   3.029   4.482 -1.4508 -0.7817 -0.6446
  161OSM   H11G18133   5.955   2.976   4.567  0.1524 -3.0482  1.0510
  161OSM   C12F18134   5.781   2.867   4.633  0.0573 -0.4340 -0.1546
  161OSM   H12F18135   5.689   2.827   4.587 -0.6285  1.4050 -0.4502
  161OSM   H12G18136   5.756   2.940   4.713  1.0001 -0.0823 -0.1692
  161OSM   C13F18137   5.864   2.756   4.694 -0.1029  0.7489 -0.4879
  161OSM   H13F18138   5.970   2.783   4.714  0.3758 -1.0204 -0.4457
  161OSM   H13G18139   5.875   2.676   4.618 -2.1848  1.7133 -1.8857
  161OSM   C14F18140   5.802   2.708   4.825 -0.6862 -0.3431 -0.0216
  161OSM   H14F18141   5.694   2.684   4.810 -0.5480 -1.2829  0.3837
  161OSM   H14G18142   5.798   2.791   4.899 -0.5970  0.0129 -0.4119
  161OSM   C15F18143   5.866   2.583   4.889  0.7289  0.0882 -0.2548
  161OSM   H15F18144   5.978   2.584   4.887  1.1508  0.6180  5.6014
  161OSM   H15G18145   5.834   2.492   4.834 -1.1413  1.2153 -1.0953
  161OSM   C16F18146   5.831   2.564   5.040 -0.3880  0.0772  0.1545
  161OSM   H16F18147   5.724   2.533   5.048 -0.3607 -0.0256  0.1196
  161OSM   H16G18148   5.852   2.668   5.075 -1.4081  0.3337  0.0393
  161OSM   C17F18149   5.930   2.471   5.115 -0.2325 -0.6521  0.2656
  161OSM   H17F18150   6.030   2.519   5.110 -0.5839  0.2386  1.3821
  161OSM   H17G18151   5.925   2.374   5.060 -1.3399  0.1250 -1.0603
  161OSM   C18F18152   5.902   2.443   5.265 -0.0996  0.3641 -0.2153
  161OSM   H18F18153   5.885   2.533   5.328 -3.4611  1.7306 -2.7951
  161OSM   H18G18154   5.985   2.378   5.300 -0.3541  0.5385  0.7295
  161OSM   H18H18155   5.814   2.378   5.281  1.5463 -1.3441  2.7730
  162OSM      N18156   6.439   4.025   2.581  0.0469 -0.4513  0.1273
  162OSM    C1518157   6.407   3.905   2.503 -0.8309  0.2346  0.5766
  162OSM   H15A18158   6.469   3.820   2.525  0.4273  0.5178 -1.6544
  162OSM   H15B18159   6.400   3.919   2.396 -0.8630 -3.4454 -0.0321
  162OSM   H15C18160   6.308   3.873   2.534  0.1155 -0.7663  2.7402
  162OSM    C1418161   6.334   4.128   2.557 -0.1748 -0.1827  0.1744
  162OSM   H14A18162   6.347   4.217   2.617 -1.0433 -0.9795  1.5648
  162OSM   H14B18163   6.240   4.082   2.583 -1.6328  0.7026 -2.9882
  162OSM   H14C18164   6.327   4.149   2.451  2.1386 -3.2590 -0.7165
  162OSM    C1318165   6.442   3.990   2.727 -0.9726 -0.0533  0.1284
  162OSM   H13A18166   6.530   3.933   2.757 -1.0931 -1.9100 -2.6821
  162OSM   H13B18167   6.353   3.937   2.757 -0.9676  0.1888  0.5880
  162OSM   H13C18168   6.436   4.083   2.781 -2.0247  0.2912 -0.5682
  162OSM    C1218169   6.577   4.074   2.544 -0.0976  0.0013 -0.3285
  162OSM   H12A18170   6.584   4.080   2.437 -1.5319 -2.4076 -0.6447
  162OSM   H12B18171   6.651   3.997   2.563 -0.2544 -0.3729 -1.2046
  162OSM    C1118172   6.631   4.208   2.602 -0.1837 -1.0435 -0.0232
  162OSM   H11A18173   6.557   4.286   2.576 -0.8442 -2.2755 -2.0899
  162OSM   H11B18174   6.720   4.254   2.555  0.1040  1.1307  2.4215
  162OSM      P18175   6.789   4.113   2.779 -0.1394 -0.2418  0.2147
  162OSM    O1318176   6.777   3.967   2.747 -0.3034 -0.1886  0.3087
  162OSM    O1418177   6.905   4.184   2.721  1.1711  0.1761 -0.2571
  162OSM    O1118178   6.780   4.135   2.931 -0.2192  0.1992 -0.4563
  162OSM    O1218179   6.661   4.195   2.737  0.1625  0.3662  0.5497
  162OSM    C1S18180   6.664   4.097   3.016 -0.3138  0.1991 -0.7702
  162OSM    H1S18181   6.620   4.007   2.969 -0.7527  0.0034 -0.0038
  162OSM    H1T18182   6.588   4.177   3.003 -0.5629  0.0809 -0.0822
  162OSM     NF18183   6.572   4.099   3.252 -0.5554 -0.2877 -0.2642
  162OSM    HNF18184   6.549   4.189   3.287  1.7493 -0.1516  1.1327
  162OSM    C2S18185   6.696   4.083   3.175  0.1184 -0.5025  0.1855
  162OSM    H2S18186   6.752   3.990   3.200 -0.9130 -0.6434  2.1396
  162OSM    C3S18187   6.804   4.202   3.215 -0.6128  1.2205  1.3529
  162OSM    H3S18188   6.746   4.293   3.192 -1.8694 -0.0838 -1.0644
  162OSM     O318189   6.918   4.214   3.131  0.3155 -0.0888 -0.0004
  162OSM    HO318190   6.878   4.180   3.051 -0.2733 -1.5434  0.8508
  162OSM    C4S18191   6.842   4.212   3.359 -0.0396 -0.5264  0.2046
  162OSM    H4S18192   6.792   4.293   3.415  0.5924 -1.1571  1.7299
  162OSM    C5S18193   6.933   4.140   3.430  0.2735  0.8886 -0.8145
  162OSM    H5S18194   6.993   4.064   3.377  0.6674  1.6009 -1.4101
  162OSM    C6S18195   6.968   4.161   3.576 -0.4569 -0.0273  0.4483
  162OSM    H6S18196   7.076   4.153   3.598 -0.3516  0.3135  0.0489
  162OSM    H6T18197   6.919   4.078   3.631  0.8635 -0.8136  0.4863
  162OSM    C7S18198   6.927   4.291   3.652  0.4508 -0.1667 -0.5044
  162OSM    H7S18199   6.822   4.312   3.619  0.3847 -1.0780 -0.8851
  162OSM    H7T18200   6.975   4.387   3.621 -0.3522  0.7415  0.9317
  162OSM    C8S18201   6.923   4.269   3.805  0.7490  0.2778  0.5628
  162OSM    H8S18202   7.029   4.242   3.824  1.3982  0.9492 -1.8053
  162OSM    H8T18203   6.855   4.185   3.829  0.6559  1.1557  3.8388
  162OSM    C9S18204   6.867   4.384   3.885 -0.4753  0.1573 -0.0426
  162OSM    H9S18205   6.757   4.400   3.880 -0.5494  0.0103  0.8478
  162OSM    H9T18206   6.923   4.473   3.851  1.7599 -0.7790  1.0136
  162OSM   C10S18207   6.907   4.370   4.033  0.0389 -0.1525  0.0831
  162OSM   H10S18208   7.018   4.378   4.038  0.1382 -0.1869 -1.4818
  162OSM   H10T18209   6.875   4.264   4.042 -0.3898  0.0611  1.1964
  162OSM   C11S18210   6.860   4.470   4.140 -0.5181 -0.0839  0.9325
  162OSM   H11S18211   6.750   4.466   4.127 -0.5377  2.5001 -0.2896
  162OSM   H11T18212   6.891   4.568   4.098  3.1181 -1.4801  0.0079
  162OSM   C12S18213   6.899   4.444   4.281  0.2496  0.1954  0.8492
  162OSM   H12S18214   7.009   4.454   4.295  0.3716 -0.2076  0.2326
  162OSM   H12T18215   6.878   4.337   4.301 -0.4914  0.0162 -0.7130
  162OSM   C13S18216   6.843   4.531   4.390  0.2091  0.3840 -0.0435
  162OSM   H13S18217   6.735   4.540   4.367 -0.2441 -2.0957  0.8222
  162OSM   H13T18218   6.880   4.633   4.366  2.4516 -0.3545  0.0525
  162OSM   C14S18219   6.863   4.495   4.541  0.4743 -0.5758  0.7819
  162OSM   H14S18220   6.972   4.508   4.558  0.9624 -0.3887 -2.0446
  162OSM   H14T18221   6.826   4.393   4.564  1.4701 -0.9171  0.9129
  162OSM   C15S18222   6.779   4.589   4.624  0.0271  0.1483  0.4073
  162OSM   H15S18223   6.673   4.569   4.597  0.6105 -2.1102 -0.4071
  162OSM   H15T18224   6.796   4.698   4.610 -2.4820  0.6233  0.5918
  162OSM   C16S18225   6.791   4.569   4.779  0.3873 -0.2225 -0.5585
  162OSM   H16S18226   6.734   4.648   4.832  1.4737  1.2817 -1.5535
  162OSM   H16T18227   6.898   4.589   4.802  0.4090 -0.9843  0.0535
  162OSM   C17S18228   6.738   4.431   4.830  0.2333 -0.2724  0.3177
  162OSM   H17S18229   6.792   4.357   4.767 -0.7923  1.5455 -2.9871
  162OSM   H17T18230   6.629   4.424   4.808  0.2675  0.4711 -0.1115
  162OSM   C18S18231   6.750   4.421   4.979 -0.2691  0.7641  0.1677
  162OSM   H18S18232   6.738   4.320   5.023 -5.0858  0.2843 -1.7035
  162OSM   H18T18233   6.673   4.482   5.031 -2.7313 -2.3179  0.4321
  162OSM   H18U18234   6.854   4.453   5.004 -0.3202  0.8235  0.3086
  162OSM    C1F18235   6.477   4.006   3.262 -0.0775 -0.3764 -0.4104
  162OSM     OF18236   6.494   3.896   3.210  0.1487  0.2486  0.6509
  162OSM    C2F18237   6.347   4.041   3.330  0.1940 -0.0377 -0.1980
  162OSM    H2F18238   6.274   3.962   3.303  0.5800 -0.7104  0.6622
  162OSM    H2G18239   6.308   4.139   3.297 -1.2738 -0.8432 -0.9320
  162OSM    C3F18240   6.358   4.030   3.480 -0.4342  0.1806  0.1473
  162OSM    H3F18241   6.423   3.942   3.499  0.5348  0.3945 -1.8676
  162OSM    H3G18242   6.256   4.017   3.521 -0.8817 -0.1418 -1.0413
  162OSM    C4F18243   6.396   4.163   3.545 -0.1146  0.0285  0.3651
  162OSM    H4F18244   6.329   4.248   3.521  0.5230  0.6000  0.5640
  162OSM    H4G18245   6.499   4.184   3.508  0.3933 -1.4280  0.8714
  162OSM    C5F18246   6.395   4.151   3.696  0.2880  0.5416  0.1591
  162OSM    H5F18247   6.304   4.092   3.720  0.8326 -0.8108 -0.9310
  162OSM    H5G18248   6.370   4.250   3.741  0.6462  0.0124  1.5777
  162OSM    C6F18249   6.521   4.085   3.750  0.2728 -0.3955 -0.5822
  162OSM    H6F18250   6.616   4.137   3.728  0.5201 -1.4082 -2.0574
  162OSM    H6G18251   6.533   3.982   3.708  0.0571 -0.4393 -0.5398
  162OSM    C7F18252   6.523   4.081   3.911 -0.1521 -0.2186 -0.2616
  162OSM    H7F18253   6.421   4.050   3.940  0.8346 -2.3143  1.2489
  162OSM    H7G18254   6.538   4.187   3.943  1.5507  0.2911 -2.4523
  162OSM    C8F18255   6.629   3.983   3.965  0.3013  0.3410  0.0862
  162OSM    H8F18256   6.658   4.012   4.068 -0.1803 -1.4998  0.7715
  162OSM    H8G18257   6.726   4.003   3.914 -0.6207  2.0568 -1.0918
  162OSM    C9F18258   6.588   3.836   3.961 -0.3189  0.3283  0.3451
  162OSM    H9F18259   6.607   3.781   3.868  2.1437 -0.5334  1.2655
  162OSM   C10F18260   6.538   3.761   4.066 -0.2020  0.2290 -0.2577
  162OSM   H10F18261   6.546   3.652   4.055 -1.5627  0.0085  0.6229
  162OSM   C11F18262   6.492   3.803   4.199  0.2077  0.4406 -0.2792
  162OSM   H11F18263   6.393   3.758   4.223 -0.3004  1.4389 -0.4615
  162OSM   H11G18264   6.482   3.914   4.198  0.4436  0.5094 -3.4177
  162OSM   C12F18265   6.592   3.758   4.307  0.4153  0.4606 -0.1083
  162OSM   H12F18266   6.552   3.790   4.406 -0.7281 -2.1796  0.3848
  162OSM   H12G18267   6.677   3.827   4.288 -0.9551  2.7558  1.5819
  162OSM   C13F18268   6.623   3.611   4.312 -0.1655  0.3210  0.3564
  162OSM   H13F18269   6.695   3.597   4.228  1.8570  2.7948  1.5280
  162OSM   H13G18270   6.538   3.539   4.306  2.0762 -2.4025 -1.7159
  162OSM   C14F18271   6.705   3.575   4.440 -0.6249 -0.4419  0.5188
  162OSM   H14F18272   6.643   3.565   4.532  0.7720  0.1371  1.5566
  162OSM   H14G18273   6.784   3.650   4.457 -0.6105 -0.5089  0.7461
  162OSM   C15F18274   6.774   3.439   4.430  0.5349 -0.5484 -0.0425
  162OSM   H15F18275   6.845   3.430   4.344  2.0021  1.7940  0.8325
  162OSM   H15G18276   6.698   3.360   4.412  0.3380 -0.5594  0.8362
  162OSM   C16F18277   6.858   3.402   4.558 -0.3384 -0.3064 -0.3702
  162OSM   H16F18278   6.888   3.298   4.535  2.0335  0.2762 -0.1868
  162OSM   H16G18279   6.787   3.395   4.643  0.7590 -1.0961  0.5069
  162OSM   C17F18280   6.992   3.476   4.578  0.5886  0.1673  0.1890
  162OSM   H17F18281   6.980   3.568   4.639  0.2445 -0.7347  1.5231
  162OSM   H17G18282   7.035   3.515   4.483 -1.3486  0.1717 -0.7228
  162OSM   C18F18283   7.093   3.384   4.651 -0.4158 -0.1093  0.0071
  162OSM   H18F18284   7.053   3.362   4.752 -0.0990 -2.8218 -0.3718
  162OSM   H18G18285   7.193   3.428   4.668 -0.2761 -1.0615  1.9496
  162OSM   H18H18286   7.102   3.293   4.587  0.8873  0.6970 -0.9902
  163OSM      N18287   4.308   3.646   2.619  0.1275  0.7009  0.6938
  163OSM    C1518288   4.349   3.781   2.580  0.3710  0.2816  0.6055
  163OSM   H15A18289   4.373   3.790   2.475  1.2100 -1.9995  0.5597
  163OSM   H15B18290   4.444   3.805   2.625  1.0650 -1.8118  0.3807
  163OSM   H15C18291   4.267   3.845   2.611 -0.4328 -0.0006 -0.8293
  163OSM    C1418292   4.175   3.612   2.550 -0.4480  0.0777 -0.2945
  163OSM   H14A18293   4.146   3.509   2.564 -1.3037  0.2597 -0.6287
  163OSM   H14B18294   4.191   3.629   2.445  0.7887  1.4559  0.0856
  163OSM   H14C18295   4.089   3.663   2.592 -0.6038  0.2287 -0.7949
  163OSM    C1318296   4.409   3.546   2.576 -0.4778  0.0763  0.2239
  163OSM   H13A18297   4.497   3.549   2.639 -0.2413 -1.0404 -0.0211
  163OSM   H13B18298   4.438   3.553   2.472 -0.3713 -1.6150  0.0988
  163OSM   H13C18299   4.374   3.444   2.582 -2.5416  0.6844 -0.6135
  163OSM    C1218300   4.278   3.629   2.772 -0.1592 -0.0140 -0.0782
  163OSM   H12A18301   4.218   3.540   2.780  0.2209 -0.2903 -0.2755
  163OSM   H12B18302   4.214   3.712   2.799 -1.2537 -0.8482 -0.0499
  163OSM    C1118303   4.394   3.614   2.876  0.1775  0.6931 -0.1769
  163OSM   H11A18304   4.444   3.516   2.857 -1.5696 -0.1325 -0.6903
  163OSM   H11B18305   4.346   3.609   2.976  2.8678  1.5731  1.2595
  163OSM      P18306   4.627   3.728   2.817 -0.0225  0.1161 -0.0934
  163OSM    O1318307   4.674   3.596   2.762  0.6104 -0.3740 -0.2559
  163OSM    O1418308   4.634   3.852   2.737 -0.4885  0.2999  0.3263
  163OSM    O1118309   4.700   3.760   2.953 -0.2631 -0.5328  0.2670
  163OSM    O1218310   4.477   3.728   2.872 -0.5471  0.0108 -0.1448
  163OSM    C1S18311   4.684   3.883   3.025 -0.5075  0.6097  0.0651
  163OSM    H1S18312   4.578   3.911   3.042 -0.5365 -0.5035  2.0470
  163OSM    H1T18313   4.729   3.971   2.974 -1.2420 -0.2690 -2.2588
  163OSM     NF18314   4.683   3.967   3.262 -0.2684  0.6289 -0.1345
  163OSM    HNF18315   4.736   4.052   3.262  1.1041 -0.1701  1.9692
  163OSM    C2S18316   4.738   3.863   3.175  0.6665 -0.3161 -0.3135
  163OSM    H2S18317   4.689   3.772   3.217  1.4850 -0.1834  1.0131
  163OSM    C3S18318   4.892   3.845   3.172  0.3836  0.8196 -0.4558
  163OSM    H3S18319   4.947   3.927   3.122 -0.9149  1.0707 -1.5222
  163OSM     O318320   4.929   3.728   3.098  0.0266 -0.0783 -0.9694
  163OSM    HO318321   4.847   3.696   3.060  0.1645  0.7201 -2.0203
  163OSM    C4S18322   4.935   3.830   3.311 -0.6643  0.1416 -0.6434
  163OSM    H4S18323   4.884   3.750   3.365 -0.6390  0.5625  0.0152
  163OSM    C5S18324   5.034   3.898   3.369 -0.3729  1.1748  0.0619
  163OSM    H5S18325   5.094   3.957   3.299 -0.7204  1.1219 -0.2840
  163OSM    C6S18326   5.086   3.886   3.507  0.1788  0.0268  0.1975
  163OSM    H6S18327   5.108   3.991   3.535  1.2714  0.3544 -1.7496
  163OSM    H6T18328   5.169   3.812   3.513 -0.1054 -0.2122  1.3158
  163OSM    C7S18329   4.972   3.834   3.597  0.4206  0.8425  0.4624
  163OSM    H7S18330   4.939   3.731   3.571 -1.9704  1.4513  0.8876
  163OSM    H7T18331   4.883   3.900   3.603  1.1745  2.0848 -1.1923
  163OSM    C8S18332   5.030   3.833   3.743 -0.4842  0.7432 -0.2775
  163OSM    H8S18333   5.078   3.931   3.761 -0.0190  0.3498  0.6918
  163OSM    H8T18334   5.111   3.759   3.758 -0.6743  0.8834  1.7733
  163OSM    C9S18335   4.920   3.816   3.852 -0.2860 -0.0774 -0.6196
  163OSM    H9S18336   4.881   3.713   3.860 -0.6824 -0.0855 -2.3501
  163OSM    H9T18337   4.846   3.888   3.813 -2.2483 -1.4946  0.3502
  163OSM   C10S18338   4.959   3.850   4.000 -0.4149  0.0546  0.6418
  163OSM   H10S18339   5.023   3.940   4.015 -1.2314  0.6118  0.8966
  163OSM   H10T18340   5.022   3.765   4.033 -0.3288 -0.6943 -1.3377
  163OSM   C11S18341   4.841   3.850   4.099  0.0255  0.0755  0.3210
  163OSM   H11S18342   4.782   3.756   4.099  0.2264 -0.0735  1.6764
  163OSM   H11T18343   4.767   3.927   4.069  1.5670  2.1690  1.6037
  163OSM   C12S18344   4.889   3.878   4.240  0.0344 -0.1021  0.1495
  163OSM   H12S18345   4.961   3.963   4.245  1.3700 -1.2456  1.2028
  163OSM   H12T18346   4.958   3.804   4.286  1.7743  1.2184 -0.2153
  163OSM   C13S18347   4.783   3.916   4.347 -0.1771  0.6231 -0.2788
  163OSM   H13S18348   4.717   3.828   4.368  1.8415 -0.9706 -0.2426
  163OSM   H13T18349   4.734   4.013   4.326 -1.1013  0.4310  0.9022
  163OSM   C14S18350   4.845   3.923   4.488  0.3231 -0.2065 -0.5604
  163OSM   H14S18351   4.923   4.002   4.482 -2.3161  2.5887 -1.1412
  163OSM   H14T18352   4.889   3.823   4.507 -0.5171 -0.2000  1.7119
  163OSM   C15S18353   4.752   3.974   4.598 -0.7453  0.1037 -0.8636
  163OSM   H15S18354   4.660   3.912   4.606 -0.2424 -0.8388 -2.0725
  163OSM   H15T18355   4.705   4.070   4.567 -1.5433 -0.6947 -2.2152
  163OSM   C16S18356   4.835   3.978   4.725  0.8458 -0.6099  0.4011
  163OSM   H16S18357   4.902   4.066   4.714  1.0073 -0.7346  0.3737
  163OSM   H16T18358   4.898   3.887   4.722  3.0758  0.8698 -0.7208
  163OSM   C17S18359   4.764   3.971   4.857  0.2840  0.6142 -0.2309
  163OSM   H17S18360   4.694   3.886   4.872  2.1380 -1.2009 -1.3268
  163OSM   H17T18361   4.706   4.066   4.857 -0.7935  0.0643 -2.8634
  163OSM   C18S18362   4.851   3.985   4.983  0.2460 -0.0010 -0.3329
  163OSM   H18S18363   4.796   4.012   5.075 -0.2182 -2.5194  0.2093
  163OSM   H18T18364   4.922   4.070   4.975  3.1641 -2.1495  0.9472
  163OSM   H18U18365   4.916   3.896   4.998  2.6437  1.8652  0.9691
  163OSM    C1F18366   4.548   3.966   3.282 -0.4073  0.2696 -0.3753
  163OSM     OF18367   4.480   3.864   3.261 -0.4046 -0.0174 -0.6669
  163OSM    C2F18368   4.478   4.095   3.322  0.2633  0.5613 -0.1562
  163OSM    H2F18369   4.368   4.079   3.321  0.1654  0.4987 -4.1565
  163OSM    H2G18370   4.505   4.172   3.247  2.0826 -0.1572 -0.2867
  163OSM    C3F18371   4.518   4.136   3.462 -0.6723 -0.3772  0.6791
  163OSM    H3F18372   4.457   4.223   3.493  0.7190  1.2344 -0.8353
  163OSM    H3G18373   4.627   4.155   3.472 -0.3405 -1.5186 -0.4756
  163OSM    C4F18374   4.494   4.015   3.556 -0.3860 -0.4582 -0.3313
  163OSM    H4F18375   4.572   3.938   3.547  0.1870  0.2277 -1.5375
  163OSM    H4G18376   4.403   3.969   3.512 -1.7474  0.2383  1.5998
  163OSM    C5F18377   4.454   4.055   3.695 -0.1544 -0.5112 -0.5403
  163OSM    H5F18378   4.408   3.968   3.746  0.9128 -0.1457  1.1216
  163OSM    H5G18379   4.374   4.133   3.698  0.2485 -0.1245  0.8672
  163OSM    C6F18380   4.573   4.096   3.787  0.6797 -0.0587  0.3474
  163OSM    H6F18381   4.578   4.207   3.783  0.9292  0.1411  3.6344
  163OSM    H6G18382   4.662   4.046   3.743  0.6265  1.0692 -1.1072
  163OSM    C7F18383   4.552   4.053   3.935 -0.5731  0.1892 -0.1739
  163OSM    H7F18384   4.641   4.089   3.990 -1.5320  0.0064  1.5508
  163OSM    H7G18385   4.542   3.942   3.944 -0.3556  0.2667  1.2418
  163OSM    C8F18386   4.421   4.110   4.000 -0.7990  0.3627 -0.4587
  163OSM    H8F18387   4.333   4.079   3.939  0.0086 -3.5043  0.1236
  163OSM    H8G18388   4.430   4.221   3.999  0.8246  0.2554 -0.2926
  163OSM    C9F18389   4.409   4.042   4.135 -0.0299  0.5918  0.3081
  163OSM    H9F18390   4.387   3.934   4.128 -0.9755  0.8858 -1.6994
  163OSM   C10F18391   4.421   4.093   4.249 -0.0330  0.1036 -0.5549
  163OSM   H10F18392   4.404   4.028   4.336 -2.0438  3.3196  1.7097
  163OSM   C11F18393   4.460   4.233   4.282  0.9950  0.4085  0.3901
  163OSM   H11F18394   4.460   4.301   4.194  2.7588 -0.4278 -0.3057
  163OSM   H11G18395   4.566   4.217   4.312  1.2767 -2.0241 -1.5806
  163OSM   C12F18396   4.378   4.278   4.404 -0.4018  0.0532  0.3202
  163OSM   H12F18397   4.418   4.224   4.491  2.7063  0.5713 -0.6630
  163OSM   H12G18398   4.269   4.263   4.387 -0.3257  2.3942 -3.5557
  163OSM   C13F18399   4.386   4.426   4.439  0.0726  0.5659  0.1211
  163OSM   H13F18400   4.366   4.482   4.345 -1.4324 -1.4949 -0.8671
  163OSM   H13G18401   4.490   4.447   4.473 -0.7032  2.3252  1.6367
  163OSM   C14F18402   4.289   4.466   4.553  0.6391 -0.3875  0.0227
  163OSM   H14F18403   4.272   4.384   4.626 -1.3210 -0.3205 -0.2891
  163OSM   H14G18404   4.198   4.475   4.490  0.7757 -0.8506 -0.2523
  163OSM   C15F18405   4.333   4.598   4.620  1.2633 -0.4556 -0.1154
  163OSM   H15F18406   4.316   4.677   4.544 -0.3149 -0.8991 -0.2691
  163OSM   H15G18407   4.444   4.599   4.629  1.2124 -0.7388  0.6388
  163OSM   C16F18408   4.259   4.628   4.758 -0.0738 -0.3805 -0.1393
  163OSM   H16F18409   4.313   4.718   4.795 -2.3272  1.6935 -1.5277
  163OSM   H16G18410   4.255   4.536   4.820 -3.5146  2.0773  3.7726
  163OSM   C17F18411   4.112   4.678   4.749  0.4824 -0.5165  0.3424
  163OSM   H17F18412   4.096   4.720   4.851  0.6861  1.3387 -0.3456
  163OSM   H17G18413   4.044   4.593   4.728 -1.6742  1.2106 -0.0572
  163OSM   C18F18414   4.079   4.784   4.639  0.1244  0.6801 -0.1023
  163OSM   H18F18415   3.980   4.824   4.671  0.2689  1.7138 -0.8989
  163OSM   H18G18416   4.053   4.725   4.549 -0.2318  0.1495  0.3405
  163OSM   H18H18417   4.151   4.868   4.633  0.9402  0.0941  1.0257
  164OSM      N18418   6.728   4.534   2.946 -0.2063  0.5253  0.3581
  164OSM    C1518419   6.843   4.437   2.962 -0.5965 -0.7199 -0.1935
  164OSM   H15A18420   6.812   4.334   2.948 -0.4144 -0.5735 -1.8430
  164OSM   H15B18421   6.888   4.432   3.060 -0.5061  0.2527 -0.1796
  164OSM   H15C18422   6.931   4.462   2.905 -0.8927 -0.5766 -0.5969
  164OSM    C1418423   6.714   4.546   2.794  0.5715 -0.7847 -0.0131
  164OSM   H14A18424   6.804   4.593   2.756  1.6426 -2.1834  0.7054
  164OSM   H14B18425   6.631   4.605   2.757 -1.2399 -2.0704  1.7864
  164OSM   H14C18426   6.704   4.451   2.744  1.7850  0.6403 -3.2434
  164OSM    C1318427   6.611   4.459   3.000  0.4628  0.9237 -0.4754
  164OSM   H13A18428   6.602   4.361   2.956  1.1336  0.8110 -0.3797
  164OSM   H13B18429   6.517   4.507   2.978 -1.0942 -2.2170 -1.2359
  164OSM   H13C18430   6.606   4.445   3.107 -2.0161  0.5664 -0.5747
  164OSM    C1218431   6.754   4.669   3.017  0.5896  0.4908  0.0194
  164OSM   H12A18432   6.855   4.702   2.997  0.9925  0.5708  1.9988
  164OSM   H12B18433   6.753   4.660   3.125  0.1339  1.8134  0.1379
  164OSM    C1118434   6.659   4.779   2.970 -0.4014  0.2565 -0.5135
  164OSM   H11A18435   6.654   4.869   3.035  0.2151  0.1898 -0.3724
  164OSM   H11B18436   6.556   4.738   2.966 -0.4307  0.3109 -0.3479
  164OSM      P18437   6.817   4.920   2.806  0.0055 -0.4756  0.2660
  164OSM    O1318438   6.911   4.835   2.732  0.3234 -0.0813  0.8580
  164OSM    O1418439   6.771   5.043   2.737 -0.9864 -0.0968  0.5638
  164OSM    O1118440   6.877   4.948   2.951 -0.0418  0.0520  0.1006
  164OSM    O1218441   6.694   4.824   2.841  0.0431 -1.0967  0.2144
  164OSM    C1S18442   6.951   5.069   2.970 -0.0401 -0.2563  0.6089
  164OSM    H1S18443   6.894   5.161   2.946  2.9982  1.5783 -0.1162
  164OSM    H1T18444   7.042   5.074   2.905 -1.7697  2.0944 -1.8751
  164OSM     NF18445   7.053   5.231   3.129  0.4707  0.0216 -0.3171
  164OSM    HNF18446   7.151   5.246   3.124  0.6788 -1.0608  0.2527
  164OSM    C2S18447   7.005   5.095   3.115  0.2207  0.2776 -0.2163
  164OSM    H2S18448   6.919   5.082   3.183  0.8599  0.5725  0.6565
  164OSM    C3S18449   7.105   4.973   3.137 -0.1142 -0.2237 -0.1838
  164OSM    H3S18450   7.203   4.977   3.085 -0.3725  0.4029 -0.6204
  164OSM     O318451   7.061   4.841   3.105 -0.3027 -0.1376  0.0016
  164OSM    HO318452   6.984   4.850   3.049 -0.6912  0.7671  0.6616
  164OSM    C4S18453   7.154   4.986   3.282  0.0471  0.2991 -0.7117
  164OSM    H4S18454   7.212   5.077   3.305 -1.5161  2.1285 -3.4280
  164OSM    C5S18455   7.129   4.902   3.380 -0.1360  0.3840 -0.1828
  164OSM    H5S18456   7.071   4.811   3.358  1.0356 -0.5188  0.3220
  164OSM    C6S18457   7.162   4.920   3.526 -0.0446  0.4176  0.8356
  164OSM    H6S18458   7.212   4.829   3.566  1.2087 -0.3632 -2.2511
  164OSM    H6T18459   7.072   4.944   3.587 -1.0643  1.9564 -1.1579
  164OSM    C7S18460   7.256   5.043   3.568  0.0757 -0.5109 -0.2566
  164OSM    H7S18461   7.201   5.138   3.549 -2.0838 -1.1334  2.2384
  164OSM    H7T18462   7.348   5.044   3.506 -1.4739  0.8662 -2.7125
  164OSM    C8S18463   7.283   5.033   3.726  0.6503 -0.1272 -0.3363
  164OSM    H8S18464   7.333   4.936   3.748  0.0191 -0.6678 -1.2267
  164OSM    H8T18465   7.181   5.031   3.769  0.0710 -1.4950 -1.7003
  164OSM    C9S18466   7.356   5.160   3.775 -0.1619  0.0460  0.1821
  164OSM    H9S18467   7.272   5.230   3.794 -0.6950 -0.7054  0.6437
  164OSM    H9T18468   7.423   5.204   3.698  2.2839  1.1443  2.7490
  164OSM   C10S18469   7.439   5.143   3.904  0.0707 -0.7248 -0.4940
  164OSM   H10S18470   7.491   5.238   3.928  1.5141 -2.1640  2.6978
  164OSM   H10T18471   7.516   5.064   3.888  2.2556  0.7745  1.7386
  164OSM   C11S18472   7.341   5.093   4.014 -0.3101 -0.0574 -0.3135
  164OSM   H11S18473   7.304   4.991   3.991 -1.3583 -0.3139  2.2202
  164OSM   H11T18474   7.251   5.158   4.017 -0.6302 -0.4540 -1.2966
  164OSM   C12S18475   7.400   5.095   4.155 -0.1673  0.2842 -0.4004
  164OSM   H12S18476   7.461   5.004   4.174 -2.1133 -1.0801 -0.3720
  164OSM   H12T18477   7.310   5.089   4.220  1.0806  0.7245  1.4399
  164OSM   C13S18478   7.474   5.223   4.205 -0.3854  0.3566 -0.3808
  164OSM   H13S18479   7.420   5.310   4.163 -0.9928 -0.0928 -0.5380
  164OSM   H13T18480   7.575   5.216   4.158 -0.4517  0.3336 -0.5219
  164OSM   C14S18481   7.499   5.212   4.356  0.1280  0.0602  0.1771
  164OSM   H14S18482   7.563   5.126   4.383 -1.9725 -1.9230 -0.8184
  164OSM   H14T18483   7.395   5.200   4.392 -0.1040 -0.1437 -0.5449
  164OSM   C15S18484   7.561   5.336   4.424  0.4122  0.4254  0.4846
  164OSM   H15S18485   7.493   5.423   4.412  0.5342  0.5328  0.5779
  164OSM   H15T18486   7.656   5.346   4.367  0.1011 -2.4690 -0.7163
  164OSM   C16S18487   7.587   5.311   4.575 -0.3020  0.2283 -0.1512
  164OSM   H16S18488   7.643   5.217   4.591  0.0474 -0.1843 -3.2024
  164OSM   H16T18489   7.489   5.298   4.626  0.5214 -1.5919  1.0652
  164OSM   C17S18490   7.652   5.442   4.628  0.3553  0.9070  0.4831
  164OSM   H17S18491   7.593   5.530   4.597 -0.8691  0.0967  0.4553
  164OSM   H17T18492   7.753   5.452   4.584 -0.3936  2.2389 -0.9939
  164OSM   C18S18493   7.663   5.436   4.789 -0.2092 -0.0252 -0.4342
  164OSM   H18S18494   7.719   5.344   4.816 -2.8929 -1.9088 -0.9371
  164OSM   H18T18495   7.562   5.443   4.834 -0.2991 -0.2154 -0.6052
  164OSM   H18U18496   7.712   5.528   4.827 -0.6972 -1.4500  4.2907
  164OSM    C1F18497   6.975   5.338   3.140 -0.1403  0.4083  0.0021
  164OSM     OF18498   6.853   5.331   3.116 -0.6473  0.1125  0.1870
  164OSM    C2F18499   7.046   5.466   3.167  0.6640  0.6234 -0.7058
  164OSM    H2F18500   7.086   5.497   3.068 -2.5377  2.1949 -1.6443
  164OSM    H2G18501   7.121   5.458   3.249  0.1406 -1.2994 -0.3726
  164OSM    C3F18502   6.961   5.586   3.209  0.3124 -0.2037 -0.1867
  164OSM    H3F18503   6.923   5.573   3.312  0.0608 -1.9257 -0.4590
  164OSM    H3G18504   6.868   5.591   3.148 -1.1984  0.1130  2.0221
  164OSM    C4F18505   7.037   5.717   3.183  0.5248  0.3121  0.0720
  164OSM    H4F18506   7.008   5.730   3.076 -0.5099 -0.6163  0.2291
  164OSM    H4G18507   7.147   5.706   3.175  0.5067 -1.3739  1.5468
  164OSM    C5F18508   6.991   5.830   3.263 -0.0872  0.3677 -0.5595
  164OSM    H5F18509   6.991   5.800   3.370 -1.5793 -0.4580 -0.7653
  164OSM    H5G18510   6.884   5.851   3.242 -0.8350 -0.9500  1.5668
  164OSM    C6F18511   7.081   5.949   3.265 -0.1965 -0.5974 -0.0085
  164OSM    H6F18512   7.085   6.002   3.167 -0.3948 -0.0069  0.2948
  164OSM    H6G18513   7.175   5.897   3.291 -0.1345 -0.0769  0.8431
  164OSM    C7F18514   7.043   6.057   3.374  0.3041 -0.1619 -0.0044
  164OSM    H7F18515   6.933   6.070   3.363  0.2106  1.1576  1.9908
  164OSM    H7G18516   7.078   6.160   3.350 -2.1011  0.8753  0.5283
  164OSM    C8F18517   7.084   6.026   3.522 -0.2008 -0.0279 -0.3267
  164OSM    H8F18518   7.045   5.925   3.546 -0.4483 -0.1261 -1.1198
  164OSM    H8G18519   7.039   6.108   3.581  1.4583  0.8178 -0.1771
  164OSM    C9F18520   7.237   6.031   3.522 -0.4835 -0.2557  0.2691
  164OSM    H9F18521   7.280   5.958   3.453  1.7744 -0.2654  1.6033
  164OSM   C10F18522   7.324   6.100   3.605 -0.2031 -0.2075 -0.0004
  164OSM   H10F18523   7.431   6.076   3.601 -0.6346 -2.4587  0.7770
  164OSM   C11F18524   7.276   6.184   3.718 -0.1756 -0.5797  0.3157
  164OSM   H11F18525   7.167   6.177   3.739 -0.3908  1.0529 -0.1594
  164OSM   H11G18526   7.300   6.288   3.689 -2.1234  0.3142  1.6223
  164OSM   C12F18527   7.343   6.157   3.849  0.0148  0.6890 -0.6358
  164OSM   H12F18528   7.447   6.195   3.846  0.0586  0.9081  1.7794
  164OSM   H12G18529   7.333   6.049   3.870  1.7315  0.9067  1.6187
  164OSM   C13F18530   7.267   6.228   3.965 -0.4663 -0.0664 -0.1339
  164OSM   H13F18531   7.157   6.240   3.956 -0.5087  0.6966  1.2403
  164OSM   H13G18532   7.304   6.332   3.964  0.1891 -0.2958 -0.1461
  164OSM   C14F18533   7.291   6.174   4.107  0.4315 -0.1129  0.1180
  164OSM   H14F18534   7.400   6.191   4.123  0.5052  0.9276 -1.2851
  164OSM   H14G18535   7.265   6.066   4.107 -0.7823  0.1517 -1.1848
  164OSM   C15F18536   7.201   6.244   4.210  0.3935  0.4194 -0.3768
  164OSM   H15F18537   7.095   6.217   4.188  0.5202  0.5192 -1.1292
  164OSM   H15G18538   7.198   6.355   4.202  1.9416  0.8677  3.3387
  164OSM   C16F18539   7.249   6.210   4.351 -0.2203  1.0049 -0.6158
  164OSM   H16F18540   7.356   6.241   4.355  0.3113 -0.7448 -0.7038
  164OSM   H16G18541   7.231   6.103   4.374 -1.4909  1.2239 -0.5340
  164OSM   C17F18542   7.170   6.275   4.462 -0.1291  0.0152  0.2144
  164OSM   H17F18543   7.065   6.239   4.462 -0.1455  0.0519  0.7227
  164OSM   H17G18544   7.175   6.386   4.458 -1.1501  0.0509 -0.6023
  164OSM   C18F18545   7.206   6.228   4.603 -0.6443 -0.1733 -0.0630
  164OSM   H18F18546   7.310   6.263   4.621 -0.1220 -0.8708 -1.5720
  164OSM   H18G18547   7.208   6.117   4.610  0.3008 -0.1518  0.2734
  164OSM   H18H18548   7.132   6.254   4.682 -2.9925 -2.4265 -1.3884
  165SAPS     N18549   4.790   5.810   7.175 -0.0714 -0.5744 -0.0860
  165SAPS   HN118550   4.740   5.783   7.087  1.3396 -0.6967 -0.8678
  165SAPS   HN218551   4.716   5.832   7.245 -1.0523  0.1667 -1.3110
  165SAPS   HN318552   4.846   5.894   7.154  0.9335 -0.2634  3.2946
  165SAPS   C1218553   4.877   5.708   7.224 -0.3854 -0.3197 -0.1998
  165SAPS  H12A18554   4.914   5.745   7.319 -1.1493 -0.2798  0.0898
  165SAPS   C1318555   4.817   5.564   7.238 -0.5159 -0.1329 -0.1204
  165SAPS  O13A18556   4.700   5.548   7.201  0.4006 -0.3298  0.0267
  165SAPS  O13B18557   4.882   5.472   7.289 -1.0181 -0.3697  0.2009
  165SAPS   C1118558   5.002   5.700   7.134  0.0171  0.1526 -0.2605
  165SAPS  H11A18559   4.971   5.646   7.042 -3.1335 -0.1217  0.8574
  165SAPS  H11B18560   5.071   5.635   7.191  2.3350  2.6061 -0.0635
  165SAPS     P18561   5.212   5.821   7.066  0.1031 -0.2387 -0.0633
  165SAPS   O1318562   5.295   5.915   7.144 -0.2061 -0.2978 -0.4417
  165SAPS   O1418563   5.270   5.685   7.056 -0.4291  0.2845 -0.3540
  165SAPS   O1218564   5.068   5.823   7.118  0.1700 -0.6032 -0.2938
  165SAPS   O1118565   5.195   5.871   6.918 -0.2806 -0.2505  0.5399
  165SAPS    C118566   5.070   5.924   6.873  0.0743  0.5584  0.0945
  165SAPS    HA18567   5.017   5.973   6.957  1.0445  0.2557  0.9057
  165SAPS    HB18568   5.081   6.011   6.805 -0.7708 -0.2093 -1.0867
  165SAPS    C218569   4.996   5.817   6.794  0.0614  0.4317 -0.1253
  165SAPS    HS18570   4.971   5.736   6.866 -0.8813  0.9310  0.1232
  165SAPS   O2118571   5.081   5.761   6.693  0.0938  0.2411  0.0356
  165SAPS   C2118572   5.058   5.636   6.660 -0.1038 -0.6056  0.4412
  165SAPS   O2218573   4.995   5.558   6.722  0.4181  0.7720  0.4804
  165SAPS   C2218574   5.129   5.606   6.523  0.0619  0.1988  0.2628
  165SAPS   H2R18575   5.207   5.685   6.516  1.2134 -0.9896 -0.7451
  165SAPS   H2S18576   5.195   5.520   6.545  1.1311  1.1599  0.9482
  165SAPS    C318577   4.858   5.869   6.740 -0.4222  0.7626 -0.4364
  165SAPS    HX18578   4.866   5.910   6.637 -1.6891  2.1775 -0.0115
  165SAPS    HY18579   4.816   5.956   6.795 -0.5458  0.4024  0.0432
  165SAPS   O3118580   4.762   5.762   6.714  0.4332  0.6171 -0.7913
  165SAPS   C3118581   4.707   5.693   6.811  0.0019 -0.0914 -0.5774
  165SAPS   O3218582   4.712   5.721   6.931  0.4484 -0.3884 -0.5733
  165SAPS   C3218583   4.623   5.579   6.763 -0.6275 -0.9102  0.1431
  165SAPS   H2X18584   4.596   5.608   6.659  0.5488 -1.3134 -0.2994
  165SAPS   H2Y18585   4.527   5.588   6.818  0.1326  1.5078  1.2091
  165SAPS   C2318586   5.028   5.588   6.396  0.1397  0.6428 -0.6271
  165SAPS   H3R18587   4.987   5.486   6.413 -0.1059  1.0866  1.7989
  165SAPS   H3S18588   5.097   5.578   6.309  1.0236  1.2833 -0.0148
  165SAPS   C2418589   4.929   5.698   6.381  0.0158 -0.4512  0.0088
  165SAPS   H4R18590   4.863   5.694   6.470 -0.5542  1.1600 -0.3031
  165SAPS   H4S18591   4.863   5.670   6.295  0.6674  1.5136 -1.1973
  165SAPS   C2518592   4.984   5.833   6.355 -0.4060 -0.4144 -0.0188
  165SAPS   H5R18593   5.002   5.885   6.450 -4.4700  0.5846  0.4219
  165SAPS   C2618594   5.019   5.889   6.236  0.7289  0.7162 -0.4783
  165SAPS   H6R18595   5.064   5.989   6.230 -1.1342  1.5244 -2.1983
  165SAPS   C2718596   5.000   5.822   6.102 -0.5669  0.0751  0.0114
  165SAPS   H7R18597   5.004   5.711   6.112 -0.8523  0.0513 -0.1557
  165SAPS   H7S18598   5.086   5.840   6.034  0.2199 -1.2041  0.6225
  165SAPS   C2818599   4.876   5.852   6.032 -0.1501 -0.9235  0.2559
  165SAPS   H8R18600   4.789   5.882   6.092  0.7111  1.9367  0.2458
  165SAPS   C2918601   4.862   5.871   5.898  0.3611 -0.7000  0.4837
  165SAPS   H9R18602   4.757   5.873   5.865  0.2217 -2.1036  0.7843
  165SAPS  C21018603   4.971   5.861   5.791  0.2754 -0.8457 -0.2216
  165SAPS  H10R18604   5.071   5.844   5.836  0.1072  2.1380  1.5520
  165SAPS  H10S18605   4.973   5.949   5.722  1.2444  0.0469  0.9137
  165SAPS  C21118606   4.948   5.736   5.707  0.1627 -0.2365  0.5510
  165SAPS  H11R18607   4.942   5.646   5.771  1.4857  1.7967  3.7683
  165SAPS  C21218608   4.924   5.718   5.571  0.1004  0.0243 -0.6728
  165SAPS  H12R18609   4.901   5.617   5.535  0.6056 -0.0991 -0.6576
  165SAPS  C21318610   4.917   5.816   5.458 -0.3585  0.1613  0.6359
  165SAPS  H13R18611   4.913   5.765   5.360 -0.6247  1.0202  0.1907
  165SAPS  H13S18612   5.016   5.867   5.464  0.0780 -0.6182  0.1819
  165SAPS  C21418613   4.795   5.906   5.471 -0.3034  0.2468  0.0467
  165SAPS  H14R18614   4.798   5.953   5.571  2.5971  1.4239 -0.4821
  165SAPS  C21518615   4.693   5.938   5.380  0.3294 -0.1258 -0.5759
  165SAPS  H15R18616   4.626   6.019   5.412  1.0248  0.1972  0.0877
  165SAPS  C21618617   4.703   5.892   5.237 -0.6222 -0.1269  0.0532
  165SAPS  H16R18618   4.606   5.857   5.196 -0.1099 -1.1846 -0.2973
  165SAPS  H16S18619   4.774   5.810   5.211  2.0102  2.2800 -0.8864
  165SAPS  C21718620   4.749   5.999   5.135  0.7121  0.1008 -0.0995
  165SAPS  H17R18621   4.860   6.000   5.134  0.7557  2.1178  1.0210
  165SAPS  H17S18622   4.731   6.101   5.175  0.1872  1.1124 -2.7076
  165SAPS  C21818623   4.691   5.988   4.998 -0.2980  0.2754 -0.1532
  165SAPS  H18R18624   4.723   5.893   4.951  0.5484  0.3134  0.3346
  165SAPS  H18S18625   4.740   6.071   4.943 -1.6067  1.0388 -0.2107
  165SAPS  C21918626   4.546   6.017   4.983  0.0541  0.8581  0.1083
  165SAPS  H19R18627   4.522   6.104   5.048 -0.5343  0.5918  0.2624
  165SAPS  H19S18628   4.490   5.933   5.031  0.8666 -0.2048 -0.7676
  165SAPS  C22018629   4.521   6.027   4.827 -0.4162  0.3501 -0.1219
  165SAPS  H20R18630   4.581   6.107   4.780  2.0075 -0.2037  1.8049
  165SAPS  H20S18631   4.411   6.027   4.809 -0.3416 -0.2400 -0.6058
  165SAPS  H20T18632   4.545   5.922   4.799 -4.3082 -0.7744  0.0678
  165SAPS   C3318633   4.688   5.442   6.759  0.2462 -0.9376 -0.1742
  165SAPS   H3X18634   4.748   5.443   6.852  1.1089  0.4480 -0.7162
  165SAPS   H3Y18635   4.770   5.439   6.684  1.1034 -1.4363  0.7758
  165SAPS   C3418636   4.589   5.325   6.728  0.0196 -0.2103  0.4235
  165SAPS   H4X18637   4.484   5.361   6.729  0.0208 -0.1658 -0.5056
  165SAPS   H4Y18638   4.597   5.256   6.815 -0.3957 -0.8501 -0.0371
  165SAPS   C3518639   4.613   5.230   6.598 -0.4655 -0.6396  0.7020
  165SAPS   H5X18640   4.543   5.145   6.585 -1.9930  0.6291  0.3502
  165SAPS   H5Y18641   4.708   5.174   6.609 -0.4090 -0.8141 -0.5174
  165SAPS   C3618642   4.614   5.314   6.471  0.4317  0.3041 -0.3912
  165SAPS   H6X18643   4.708   5.372   6.480  0.1353  0.7676 -0.2106
  165SAPS   H6Y18644   4.524   5.379   6.482 -0.4547 -1.1418  1.8058
  165SAPS   C3718645   4.604   5.234   6.344 -0.1204 -0.4152 -0.0623
  165SAPS   H7X18646   4.518   5.164   6.354 -2.7495  2.8664  2.8761
  165SAPS   H7Y18647   4.700   5.177   6.344 -0.3529 -0.8378 -1.6468
  165SAPS   C3818648   4.580   5.308   6.214 -0.1250  0.5673  0.0758
  165SAPS   H8X18649   4.488   5.369   6.210 -0.2136  0.3981 -0.7070
  165SAPS   H8Y18650   4.570   5.230   6.135 -1.2222  0.1166  0.6370
  165SAPS   C3918651   4.692   5.411   6.178  0.7529  0.3011 -0.2770
  165SAPS   H9X18652   4.785   5.357   6.206  0.3401 -0.4286 -0.2822
  165SAPS   H9Y18653   4.683   5.498   6.246  1.0835  0.7963 -0.8583
  165SAPS  C31018654   4.715   5.448   6.032 -0.1505  0.0012 -0.0210
  165SAPS  H10X18655   4.712   5.354   5.972 -0.6767  0.2115 -0.3258
  165SAPS  H10Y18656   4.809   5.507   6.027  1.0050 -1.7252  0.2332
  165SAPS  C31118657   4.606   5.555   5.977  0.0678  0.4701  0.4436
  165SAPS  H11X18658   4.614   5.645   6.042  1.3612  1.7329 -1.3440
  165SAPS  H11Y18659   4.511   5.499   5.987  0.1477  0.2651  0.0829
  165SAPS  C31218660   4.622   5.589   5.823  0.5712 -0.3324 -0.5980
  165SAPS  H12X18661   4.726   5.622   5.806  1.1016 -2.6012 -2.2151
  165SAPS  H12Y18662   4.542   5.665   5.808  1.1958  0.6601  0.8659
  165SAPS  C31318663   4.584   5.462   5.745 -0.9521 -0.2427 -1.0378
  165SAPS  H13X18664   4.480   5.430   5.767 -1.1252  0.6776 -0.4576
  165SAPS  H13Y18665   4.651   5.377   5.772  1.1308  2.1199  1.9525
  165SAPS  C31418666   4.611   5.486   5.600  0.2933  0.0013  0.4815
  165SAPS  H14X18667   4.715   5.502   5.564  0.3029  0.0902  0.5498
  165SAPS  H14Y18668   4.543   5.568   5.570  1.7800  0.2706 -2.5034
  165SAPS  C31518669   4.567   5.361   5.515 -0.6809 -0.4267 -0.7989
  165SAPS  H15X18670   4.470   5.323   5.553 -0.5451  0.2321  0.2340
  165SAPS  H15Y18671   4.638   5.281   5.542  0.3124  0.7863  0.3443
  165SAPS  C31618672   4.557   5.385   5.370 -0.3037  0.4557  0.8908
  165SAPS  H16X18673   4.634   5.451   5.326 -0.7308  0.2473 -0.1840
  165SAPS  H16Y18674   4.463   5.444   5.359 -0.6570 -0.2351  0.0762
  165SAPS  C31718675   4.560   5.257   5.286  0.5280  0.4371 -0.8784
  165SAPS  H17X18676   4.513   5.176   5.345 -1.5777  2.2268  0.0519
  165SAPS  H17Y18677   4.669   5.234   5.286  0.2666 -0.9271  0.6632
  165SAPS  C31818678   4.520   5.264   5.141  0.7257  0.4614 -1.1572
  165SAPS  H18X18679   4.555   5.356   5.089 -0.4275  1.3639 -0.4122
  165SAPS  H18Y18680   4.410   5.254   5.128  0.6680  1.0430 -1.1717
  165SAPS  H18Z18681   4.563   5.175   5.092  3.3515 -0.0717  1.8308
  166SAPS     N18682   1.225   3.605   7.226  0.1045  0.1060  0.2072
  166SAPS   HN118683   1.270   3.520   7.263 -0.7465 -0.0713  0.8639
  166SAPS   HN218684   1.259   3.616   7.129  0.6679  1.0455  0.4953
  166SAPS   HN318685   1.273   3.685   7.273  0.9103 -0.7804  0.9389
  166SAPS   C1218686   1.081   3.613   7.239 -0.0456 -0.1791  0.6603
  166SAPS  H12A18687   1.046   3.602   7.340 -1.1035  2.3063  0.6281
  166SAPS   C1318688   1.017   3.741   7.186 -0.3065  0.0921 -0.0330
  166SAPS  O13A18689   1.088   3.827   7.123 -0.0339  0.2972 -0.4891
  166SAPS  O13B18690   0.894   3.758   7.189 -0.5627 -0.1017  0.3611
  166SAPS   C1118691   1.020   3.488   7.161 -0.6177 -0.6238  0.8334
  166SAPS  H11A18692   0.910   3.497   7.173 -0.5730  0.9130  0.2002
  166SAPS  H11B18693   1.059   3.399   7.215  0.1160  0.2592  1.8060
  166SAPS     P18694   0.971   3.410   6.918  0.2953 -0.2678 -0.1781
  166SAPS   O1318695   0.878   3.317   6.990 -0.2699 -0.3925  0.1460
  166SAPS   O1418696   0.910   3.512   6.835  0.5462 -0.3097 -0.2513
  166SAPS   O1218697   1.063   3.480   7.028  0.4341  0.3942 -0.0714
  166SAPS   O1118698   1.068   3.335   6.820  0.3946 -0.0136  0.7920
  166SAPS    C118699   1.203   3.363   6.803  0.7649 -0.1235 -0.6817
  166SAPS    HA18700   1.260   3.382   6.897  1.3739  0.9204 -1.2409
  166SAPS    HB18701   1.242   3.261   6.783 -2.9910 -1.9626  0.4203
  166SAPS    C218702   1.245   3.461   6.689  0.5843  0.0492 -0.3074
  166SAPS    HS18703   1.356   3.463   6.684  0.7513  2.1027  1.8890
  166SAPS   O2118704   1.187   3.593   6.724  0.5034 -0.7479  0.1611
  166SAPS   C2118705   1.280   3.673   6.773  0.7286 -0.0007  0.4554
  166SAPS   O2218706   1.380   3.635   6.826 -0.7979 -0.4681  0.4243
  166SAPS   C2218707   1.235   3.815   6.741 -0.0819  0.5106 -0.6860
  166SAPS   H2R18708   1.140   3.842   6.791  1.1268  0.8011  1.5922
  166SAPS   H2S18709   1.309   3.884   6.788  1.2574  0.1639 -2.1945
  166SAPS    C318710   1.189   3.407   6.555  0.1786 -0.7288 -0.5535
  166SAPS    HX18711   1.079   3.386   6.555  0.4305 -2.1421 -0.3489
  166SAPS    HY18712   1.233   3.307   6.535  1.1122 -0.9710  2.2995
  166SAPS   O3118713   1.204   3.496   6.444 -0.4057  0.1980 -0.1038
  166SAPS   C3118714   1.332   3.497   6.395 -0.4522 -0.0742 -0.4300
  166SAPS   O3218715   1.420   3.430   6.447  0.6425 -0.2012 -0.2259
  166SAPS   C3218716   1.340   3.565   6.265  0.0064  0.1672  0.1381
  166SAPS   H2X18717   1.312   3.672   6.280  0.3232  0.6463 -2.3125
  166SAPS   H2Y18718   1.259   3.529   6.198  0.1890 -1.3111  0.6807
  166SAPS   C2318719   1.234   3.841   6.587 -0.0340  0.2227 -0.8132
  166SAPS   H3R18720   1.186   3.755   6.536  3.2742 -2.9910  0.9859
  166SAPS   H3S18721   1.336   3.837   6.543 -0.8367 -0.4121 -2.7425
  166SAPS   C2418722   1.196   3.986   6.550  0.1326  0.8461 -0.2213
  166SAPS   H4R18723   1.258   4.055   6.611  1.5557 -0.1537 -0.5006
  166SAPS   H4S18724   1.090   4.003   6.580 -0.0003  1.7265 -1.1214
  166SAPS   C2518725   1.221   4.024   6.400 -0.3339 -1.4243  0.3428
  166SAPS   H5R18726   1.303   4.094   6.374  0.0372 -2.5247 -1.6841
  166SAPS   C2618727   1.152   3.993   6.289 -1.1345 -0.6835 -0.1746
  166SAPS   H6R18728   1.187   4.035   6.193  1.3868  0.0118  0.9502
  166SAPS   C2718729   1.027   3.914   6.285 -0.0544  0.0654  0.0546
  166SAPS   H7R18730   0.954   3.963   6.218  0.2277 -1.4292 -1.4140
  166SAPS   H7S18731   0.969   3.916   6.380 -0.8122  1.8614 -0.4049
  166SAPS   C2818732   1.046   3.774   6.243  0.2868  0.3418 -0.5383
  166SAPS   H8R18733   1.065   3.701   6.324 -0.3021  0.7031 -0.0655
  166SAPS   C2918734   1.061   3.719   6.121 -0.6341 -0.2494 -0.0474
  166SAPS   H9R18735   1.085   3.613   6.106  0.3544  0.0125 -0.3817
  166SAPS  C21018736   1.054   3.800   5.996  0.1719 -0.4617 -0.2127
  166SAPS  H10R18737   1.145   3.768   5.939  0.1514 -0.8575 -0.0308
  166SAPS  H10S18738   1.061   3.908   6.018 -0.7901 -0.4357 -0.0228
  166SAPS  C21118739   0.939   3.758   5.910 -0.1879  0.3710  0.4673
  166SAPS  H11R18740   0.867   3.685   5.950  0.2286  0.1836  0.8921
  166SAPS  C21218741   0.934   3.796   5.781  0.0766 -0.4921 -0.5696
  166SAPS  H12R18742   0.869   3.734   5.717  0.3036 -1.0367 -0.2842
  166SAPS  C21318743   1.040   3.871   5.704  0.3797  0.0150  0.3713
  166SAPS  H13R18744   1.094   3.936   5.776  0.9955  0.7516 -0.7425
  166SAPS  H13S18745   0.980   3.934   5.635  1.2563 -2.0188 -2.4353
  166SAPS  C21418746   1.128   3.769   5.637  0.8747  0.2625  0.4838
  166SAPS  H14R18747   1.199   3.731   5.711  1.6903  1.2058  0.2145
  166SAPS  C21518748   1.121   3.731   5.511 -0.4338 -0.4242  1.3145
  166SAPS  H15R18749   1.185   3.652   5.469 -0.7878  0.1739 -0.4582
  166SAPS  C21618750   1.017   3.779   5.409  0.4239 -0.4546 -0.6719
  166SAPS  H16R18751   1.001   3.889   5.415  1.0954 -0.3826  0.0291
  166SAPS  H16S18752   0.919   3.741   5.443 -1.5259  3.9243 -0.7051
  166SAPS  C21718753   1.046   3.742   5.264 -0.6145 -0.6297 -0.3785
  166SAPS  H17R18754   0.956   3.765   5.202 -0.0127 -1.2930 -1.5362
  166SAPS  H17S18755   1.054   3.631   5.261 -1.9579 -0.8149  1.2303
  166SAPS  C21818756   1.170   3.811   5.209  0.9562  0.0512 -0.2146
  166SAPS  H18R18757   1.251   3.771   5.273  0.2880  1.1953  1.4253
  166SAPS  H18S18758   1.157   3.918   5.237 -0.4217 -0.3142  0.6144
  166SAPS  C21918759   1.181   3.790   5.054  0.2895 -0.4357 -0.7824
  166SAPS  H19R18760   1.082   3.753   5.020 -0.9774  0.7495  1.4123
  166SAPS  H19S18761   1.263   3.716   5.043  0.4195 -0.2624 -0.9722
  166SAPS  C22018762   1.214   3.915   4.987  0.1629  0.4246  0.6899
  166SAPS  H20R18763   1.317   3.950   5.012  0.3599  0.3450 -0.0037
  166SAPS  H20S18764   1.140   3.995   5.003  0.3809  1.4251 -2.6001
  166SAPS  H20T18765   1.209   3.896   4.878 -1.2125 -0.9242  0.9419
  166SAPS   C3318766   1.483   3.567   6.203 -0.3604 -0.0805 -0.4405
  166SAPS   H3X18767   1.519   3.465   6.177 -1.2420 -0.4027 -0.4161
  166SAPS   H3Y18768   1.557   3.607   6.276 -0.9554  0.6856 -0.2383
  166SAPS   C3418769   1.489   3.656   6.082  0.6777  0.0092 -0.6345
  166SAPS   H4X18770   1.467   3.759   6.118 -0.4714 -0.2538 -0.5416
  166SAPS   H4Y18771   1.416   3.618   6.008  1.1824 -0.0088 -1.1270
  166SAPS   C3518772   1.614   3.664   5.999  0.1002 -0.4090 -0.3960
  166SAPS   H5X18773   1.661   3.563   6.004  0.7518 -0.1441 -0.9181
  166SAPS   H5Y18774   1.690   3.728   6.047 -1.1912  0.2920  0.7778
  166SAPS   C3618775   1.594   3.709   5.851  0.4909 -0.3281  0.4295
  166SAPS   H6X18776   1.537   3.805   5.854  2.2086  0.7684 -0.6770
  166SAPS   H6Y18777   1.526   3.635   5.804  0.9081 -1.5375  1.6926
  166SAPS   C3718778   1.711   3.733   5.763  0.2999  0.5353  0.2050
  166SAPS   H7X18779   1.744   3.631   5.734 -2.2269 -0.7937  1.6422
  166SAPS   H7Y18780   1.790   3.780   5.826 -1.9669  0.7764  3.0754
  166SAPS   C3818781   1.699   3.828   5.640 -0.3107  0.3465  0.4681
  166SAPS   H8X18782   1.652   3.776   5.554  0.5193 -3.5311  2.1139
  166SAPS   H8Y18783   1.802   3.853   5.607 -0.5303  0.8224  0.1427
  166SAPS   C3918784   1.630   3.964   5.663  0.4399 -0.3160 -0.1837
  166SAPS   H9X18785   1.672   4.010   5.755 -0.8186  1.9589 -0.6938
  166SAPS   H9Y18786   1.519   3.955   5.666  0.4529 -0.4514 -0.0947
  166SAPS  C31018787   1.679   4.068   5.556  0.0972  0.6097 -0.4560
  166SAPS  H10X18788   1.790   4.066   5.568  0.4109  3.1554 -2.1330
  166SAPS  H10Y18789   1.639   4.170   5.577 -0.4301  0.2532  0.3341
  166SAPS  C31118790   1.654   4.035   5.408  1.0613 -0.2095  0.0856
  166SAPS  H11X18791   1.546   4.037   5.385  1.0121  0.4090  0.3617
  166SAPS  H11Y18792   1.697   3.932   5.404 -1.0088 -1.1670  0.8822
  166SAPS  C31218793   1.732   4.139   5.327  0.3371  0.3768  0.0302
  166SAPS  H12X18794   1.832   4.162   5.369  1.4071  0.9257 -2.6428
  166SAPS  H12Y18795   1.691   4.243   5.332 -1.3334 -0.2157 -0.4478
  166SAPS  C31318796   1.752   4.090   5.186  0.9764 -0.0757  0.2472
  166SAPS  H13X18797   1.819   4.002   5.191  4.0271  1.7989 -2.5041
  166SAPS  H13Y18798   1.784   4.169   5.114 -2.5236 -0.4478 -1.9851
  166SAPS  C31418799   1.617   4.051   5.113  1.0914 -0.3084  0.1382
  166SAPS  H14X18800   1.568   3.960   5.155 -0.6704  0.9578  0.9530
  166SAPS  H14Y18801   1.636   4.032   5.005  2.1789 -2.1600  0.5998
  166SAPS  C31518802   1.507   4.166   5.115 -0.3951  0.2651  0.0989
  166SAPS  H15X18803   1.479   4.205   5.215  0.1219  1.3846 -0.1826
  166SAPS  H15Y18804   1.425   4.127   5.050  2.7128 -1.9080 -2.8228
  166SAPS  C31618805   1.558   4.290   5.044  0.0583  0.2957 -0.7051
  166SAPS  H16X18806   1.591   4.267   4.940 -1.3902  4.3820 -2.2849
  166SAPS  H16Y18807   1.647   4.338   5.089 -0.1404  0.2858 -0.2982
  166SAPS  C31718808   1.452   4.402   5.019  0.0314  0.4659 -0.1699
  166SAPS  H17X18809   1.500   4.500   5.035  0.7783  0.4660 -2.1134
  166SAPS  H17Y18810   1.371   4.396   5.095  0.1353 -1.7249 -0.1576
  166SAPS  C31818811   1.385   4.390   4.882 -0.1334  0.5121  0.5975
  166SAPS  H18X18812   1.305   4.467   4.876 -0.2461  0.4806  1.5915
  166SAPS  H18Y18813   1.339   4.290   4.863  0.6511  0.1723  0.4640
  166SAPS  H18Z18814   1.454   4.401   4.796 -2.1831  0.9681 -1.0622
  167SAPS     N18815   3.121   5.537   7.456  0.2877 -0.3516 -0.1731
  167SAPS   HN118816   3.024   5.509   7.479  0.1807  0.2708  0.1481
  167SAPS   HN218817   3.116   5.638   7.431  1.6520  0.1382  1.3647
  167SAPS   HN318818   3.153   5.496   7.366  3.8658  3.4297 -0.9893
  167SAPS   C1218819   3.204   5.507   7.576 -0.4353  0.2236 -0.0852
  167SAPS  H12A18820   3.306   5.535   7.556 -0.3920  1.5850  1.7890
  167SAPS   C1318821   3.166   5.598   7.701  0.5731  0.5632  0.7539
  167SAPS  O13A18822   3.058   5.657   7.697 -0.2689 -0.0941  0.3169
  167SAPS  O13B18823   3.259   5.627   7.781 -0.3572  0.9971  0.3241
  167SAPS   C1118824   3.180   5.359   7.611 -0.7782  0.1865 -0.3921
  167SAPS  H11A18825   3.083   5.341   7.663 -1.4346 -0.0183 -1.6634
  167SAPS  H11B18826   3.262   5.334   7.683 -0.1833  3.7517  0.3380
  167SAPS     P18827   3.312   5.179   7.470 -0.3813 -0.3072  0.0728
  167SAPS   O1318828   3.438   5.250   7.477 -0.3862  0.1012  0.0971
  167SAPS   O1418829   3.304   5.054   7.555  0.2449 -0.2413  0.1192
  167SAPS   O1218830   3.191   5.275   7.496  0.3539 -0.1623 -0.2198
  167SAPS   O1118831   3.289   5.132   7.312 -0.4481 -0.3369 -0.9499
  167SAPS    C118832   3.165   5.064   7.281  0.2202 -0.0057  0.0588
  167SAPS    HA18833   3.129   4.990   7.357  0.4306 -0.0318  0.1318
  167SAPS    HB18834   3.083   5.138   7.270  1.8622  1.7875 -0.6395
  167SAPS    C218835   3.176   4.988   7.142 -0.4513 -0.3858 -0.4446
  167SAPS    HS18836   3.092   4.916   7.135 -2.1651  1.3906  0.8818
  167SAPS   O2118837   3.308   4.926   7.131 -0.1117  0.2403  0.2381
  167SAPS   C2118838   3.315   4.823   7.199 -0.2747  0.4463  0.0314
  167SAPS   O2218839   3.227   4.780   7.274 -0.5175  0.0087 -0.7664
  167SAPS   C2218840   3.450   4.750   7.178  0.0846 -1.3316 -0.3005
  167SAPS   H2R18841   3.432   4.642   7.199  0.6340 -0.9635  2.4286
  167SAPS   H2S18842   3.494   4.765   7.078 -0.6756 -1.3047 -0.6375
  167SAPS    C318843   3.165   5.100   7.037  0.4583 -0.4371  0.7097
  167SAPS    HX18844   3.233   5.185   7.058 -0.0622  0.7409 -1.9054
  167SAPS    HY18845   3.063   5.145   7.044  0.3245 -0.8463  1.4984
  167SAPS   O3118846   3.180   5.045   6.904  0.4033 -0.5342 -0.8511
  167SAPS   C3118847   3.296   5.029   6.854 -0.0692 -0.7589  0.1947
  167SAPS   O3218848   3.398   5.063   6.911  0.3331 -0.2570 -0.1754
  167SAPS   C3218849   3.290   4.946   6.732  0.1300 -0.2707 -0.1627
  167SAPS   H2X18850   3.195   4.970   6.681  0.7791  1.9575 -0.4431
  167SAPS   H2Y18851   3.300   4.837   6.754  1.2103 -0.5275 -1.8165
  167SAPS   C2318852   3.563   4.795   7.283 -0.7564 -0.0014 -0.3004
  167SAPS   H3R18853   3.534   4.794   7.390 -0.1108 -4.9784  0.0991
  167SAPS   H3S18854   3.581   4.901   7.257 -3.2520  0.5960  0.2211
  167SAPS   C2418855   3.678   4.704   7.272 -0.8733 -0.0336  1.0724
  167SAPS   H4R18856   3.769   4.749   7.317  0.2539 -0.6964 -0.4533
  167SAPS   H4S18857   3.707   4.695   7.165 -0.4551 -1.7610  1.3096
  167SAPS   C2518858   3.652   4.572   7.326  0.0827 -0.1156 -0.8334
  167SAPS   H5R18859   3.624   4.577   7.432  2.7970 -0.2417 -0.0367
  167SAPS   C2618860   3.663   4.446   7.272 -0.0600 -0.2972  0.2316
  167SAPS   H6R18861   3.622   4.362   7.331  0.9217  0.4814  2.0892
  167SAPS   C2718862   3.696   4.415   7.132  0.1297  1.6276 -0.1631
  167SAPS   H7R18863   3.786   4.350   7.133 -1.8654 -1.4163  2.4539
  167SAPS   H7S18864   3.734   4.507   7.083  1.5028  0.9831 -0.3603
  167SAPS   C2818865   3.586   4.349   7.062 -0.5558  0.4239  0.2770
  167SAPS   H8R18866   3.558   4.254   7.108 -1.7024  0.1400 -0.9326
  167SAPS   C2918867   3.519   4.387   6.947  0.0217 -0.2945  0.1436
  167SAPS   H9R18868   3.444   4.316   6.910 -0.8970  0.1069  1.1856
  167SAPS  C21018869   3.544   4.510   6.866 -1.0725 -0.0921  0.2591
  167SAPS  H10R18870   3.633   4.498   6.802 -0.7123  1.4601  0.4316
  167SAPS  H10S18871   3.570   4.599   6.928  0.9262 -0.2561 -0.2928
  167SAPS  C21118872   3.434   4.551   6.772 -0.5752 -0.5160 -0.2279
  167SAPS  H11R18873   3.343   4.578   6.829  0.6123  3.3590  0.1234
  167SAPS  C21218874   3.437   4.558   6.641  0.0300 -0.2742 -0.1983
  167SAPS  H12R18875   3.345   4.599   6.596  0.3432  2.2168  1.2001
  167SAPS  C21318876   3.560   4.516   6.559  0.8400  0.4452  0.5184
  167SAPS  H13R18877   3.653   4.503   6.617 -0.1507 -0.3300  2.0004
  167SAPS  H13S18878   3.566   4.596   6.482 -1.2171  1.2089  1.0778
  167SAPS  C21418879   3.530   4.385   6.495  0.1522  0.4381  0.2123
  167SAPS  H14R18880   3.545   4.297   6.559  1.1480  0.8873  0.6175
  167SAPS  C21518881   3.480   4.352   6.372 -0.3530 -0.1704  0.7857
  167SAPS  H15R18882   3.465   4.246   6.345 -0.3568  0.2589 -1.0158
  167SAPS  C21618883   3.448   4.448   6.257  0.3962 -0.2445 -0.5634
  167SAPS  H16R18884   3.460   4.554   6.289  2.5069 -0.8112  0.7861
  167SAPS  H16S18885   3.343   4.425   6.231  0.7866 -1.3019 -1.2806
  167SAPS  C21718886   3.539   4.451   6.137 -0.1237 -0.0956  0.6128
  167SAPS  H17R18887   3.564   4.346   6.112 -3.1493 -1.3337  2.2694
  167SAPS  H17S18888   3.634   4.504   6.161 -1.1226  1.1105  2.1209
  167SAPS  C21818889   3.483   4.518   6.009 -0.0199 -0.3865 -0.6844
  167SAPS  H18R18890   3.573   4.519   5.944 -0.7502 -2.4402 -1.8152
  167SAPS  H18S18891   3.434   4.616   6.030 -5.9208 -2.9116 -0.6921
  167SAPS  C21918892   3.368   4.430   5.952 -0.1569 -0.2669  0.3228
  167SAPS  H19R18893   3.271   4.475   5.982 -0.6351 -0.0417 -1.4481
  167SAPS  H19S18894   3.382   4.327   5.991 -1.5906 -1.6099 -2.4455
  167SAPS  C22018895   3.383   4.434   5.800  0.1481  0.4702  0.6006
  167SAPS  H20R18896   3.486   4.412   5.764 -0.0791  0.1474  0.1562
  167SAPS  H20S18897   3.363   4.539   5.769 -2.8287 -1.0455 -3.2681
  167SAPS  H20T18898   3.317   4.364   5.746 -0.7592  1.0387  0.9551
  167SAPS   C3318899   3.395   4.993   6.630 -0.2934  0.0022 -0.3785
  167SAPS   H3X18900   3.495   5.011   6.673  0.6020 -0.4860 -2.1622
  167SAPS   H3Y18901   3.355   5.089   6.592 -0.0405  0.3554  0.2225
  167SAPS   C3418902   3.405   4.908   6.505  0.4864  0.6198 -0.0342
  167SAPS   H4X18903   3.309   4.904   6.448 -0.4641 -0.4783  1.5568
  167SAPS   H4Y18904   3.442   4.807   6.532 -1.4439  0.0843  0.8100
  167SAPS   C3518905   3.513   4.972   6.417  0.5092  0.4007  0.0372
  167SAPS   H5X18906   3.601   4.967   6.485  0.0187  0.4673  0.6937
  167SAPS   H5Y18907   3.489   5.079   6.397  1.3916  0.3557 -1.3816
  167SAPS   C3618908   3.517   4.906   6.277 -0.5610  0.5648 -0.7499
  167SAPS   H6X18909   3.411   4.899   6.243 -0.7220 -1.1883 -0.0135
  167SAPS   H6Y18910   3.550   4.802   6.296 -0.7789  0.5533 -0.4332
  167SAPS   C3718911   3.606   4.983   6.184  0.2876  0.6957 -0.3639
  167SAPS   H7X18912   3.702   4.991   6.239  0.6144 -0.8782 -0.6615
  167SAPS   H7Y18913   3.560   5.083   6.169 -1.8185 -0.0934  0.5601
  167SAPS   C3818914   3.619   4.916   6.047  0.5918  0.2511 -0.4599
  167SAPS   H8X18915   3.637   4.807   6.058  0.3703  0.2188 -0.4161
  167SAPS   H8Y18916   3.713   4.953   6.001  2.0149  0.3716  2.3017
  167SAPS   C3918917   3.497   4.930   5.949 -0.8411 -0.8279 -0.6793
  167SAPS   H9X18918   3.481   5.039   5.930 -0.4123 -0.1505  2.3404
  167SAPS   H9Y18919   3.407   4.902   6.008 -1.1961 -0.2979 -0.9658
  167SAPS  C31018920   3.510   4.842   5.821  0.8340 -1.1750  0.0667
  167SAPS  H10X18921   3.514   4.733   5.840 -1.7153 -1.0892  1.5341
  167SAPS  H10Y18922   3.600   4.885   5.771 -1.3195  1.6363 -1.6923
  167SAPS  C31118923   3.396   4.877   5.725  0.0467  0.0576 -0.6619
  167SAPS  H11X18924   3.407   4.986   5.706  0.6473 -0.0296 -0.8209
  167SAPS  H11Y18925   3.294   4.848   5.758 -1.0397  1.5225 -2.4994
  167SAPS  C31218926   3.423   4.803   5.596  0.9524 -0.3409  0.2603
  167SAPS  H12X18927   3.410   4.693   5.601  2.1354 -0.5023 -0.0213
  167SAPS  H12Y18928   3.528   4.822   5.567  0.0775  2.9369 -1.2511
  167SAPS  C31318929   3.337   4.849   5.470 -0.7079  0.5941  0.0102
  167SAPS  H13X18930   3.230   4.843   5.499 -0.2123 -1.8505  1.6489
  167SAPS  H13Y18931   3.351   4.776   5.388 -1.4762  1.5082 -0.9662
  167SAPS  C31418932   3.374   4.989   5.429  0.1467  0.2055  0.2096
  167SAPS  H14X18933   3.484   4.974   5.418 -0.1636 -1.0473 -1.8709
  167SAPS  H14Y18934   3.354   5.052   5.518 -0.3550  0.3194  0.0220
  167SAPS  C31518935   3.321   5.059   5.307 -0.3107 -0.2835  0.2911
  167SAPS  H15X18936   3.371   5.015   5.218  0.1828  2.5212 -0.9064
  167SAPS  H15Y18937   3.365   5.160   5.311  2.9154 -1.5325 -0.7617
  167SAPS  C31618938   3.167   5.069   5.286 -0.1245 -0.0775 -0.0260
  167SAPS  H16X18939   3.106   5.107   5.371  0.0598 -0.2585  0.1859
  167SAPS  H16Y18940   3.121   4.969   5.273 -0.8462  0.5218 -2.8192
  167SAPS  C31718941   3.135   5.143   5.156 -0.4956  0.0196 -0.4402
  167SAPS  H17X18942   3.190   5.114   5.064 -0.4368 -0.9351 -0.1118
  167SAPS  H17Y18943   3.164   5.249   5.175  2.9792 -1.0504  1.0766
  167SAPS  C31818944   2.989   5.144   5.119  0.7429  0.3970  0.1675
  167SAPS  H18X18945   2.944   5.042   5.123  0.2929  0.6008  0.4730
  167SAPS  H18Y18946   2.967   5.196   5.023  2.8716  2.3480  0.6764
  167SAPS  H18Z18947   2.927   5.190   5.199 -1.7351 -1.3667 -0.6183
  168SAPS     N18948   2.335   5.374   7.394 -0.2670 -0.5234  0.3877
  168SAPS   HN118949   2.394   5.292   7.370  0.9526  0.5160 -0.2728
  168SAPS   HN218950   2.235   5.353   7.415 -0.5276 -0.2113 -0.5174
  168SAPS   HN318951   2.338   5.436   7.311 -1.1897  1.2583  1.6165
  168SAPS   C1218952   2.394   5.446   7.503  0.2762  0.2720  0.3364
  168SAPS  H12A18953   2.347   5.541   7.522  0.7710  0.5656  0.1132
  168SAPS   C1318954   2.375   5.380   7.647  0.5648  0.0751  0.4099
  168SAPS  O13A18955   2.321   5.265   7.650  0.3333 -0.3672 -0.7087
  168SAPS  O13B18956   2.422   5.434   7.749  0.3619 -0.2556  0.1054
  168SAPS   C1118957   2.542   5.483   7.467 -0.3664 -0.2558  0.1753
  168SAPS  H11A18958   2.587   5.531   7.556  1.1835  1.1265 -1.2965
  168SAPS  H11B18959   2.537   5.552   7.380 -1.5788  1.5201  1.5778
  168SAPS     P18960   2.763   5.377   7.376  0.3393 -0.0111  0.0489
  168SAPS   O1318961   2.842   5.479   7.448 -0.7623 -0.5515  0.2408
  168SAPS   O1418962   2.822   5.241   7.357 -0.3249 -0.3062  0.4723
  168SAPS   O1218963   2.618   5.361   7.436 -0.0120 -0.2364  0.3281
  168SAPS   O1118964   2.735   5.444   7.232 -0.2266  0.7936 -0.5942
  168SAPS    C118965   2.698   5.363   7.121  0.0233 -0.1870  0.0488
  168SAPS    HA18966   2.641   5.275   7.159 -0.5664  1.0764  2.3109
  168SAPS    HB18967   2.630   5.419   7.053  0.3111  1.8958  1.3924
  168SAPS    C218968   2.812   5.338   7.025 -0.5046  0.1929 -0.4868
  168SAPS    HS18969   2.902   5.310   7.084 -0.9246  0.2934  0.2136
  168SAPS   O2118970   2.823   5.464   6.958 -0.5555 -0.3191  0.0060
  168SAPS   C2118971   2.950   5.496   6.930  0.3166  0.1070 -0.5928
  168SAPS   O2218972   3.046   5.435   6.971  0.2220  0.1639 -0.5572
  168SAPS   C2218973   2.971   5.619   6.837  0.4334  0.6400 -0.5171
  168SAPS   H2R18974   2.943   5.708   6.897  1.6545  1.0380 -0.5091
  168SAPS   H2S18975   3.079   5.634   6.813  0.2290  0.8451 -1.3190
  168SAPS    C318976   2.792   5.220   6.931 -0.0473 -0.5483 -0.0886
  168SAPS    HX18977   2.687   5.227   6.895 -0.2914  0.0314  0.6980
  168SAPS    HY18978   2.795   5.122   6.981 -1.1367 -0.7944 -0.4798
  168SAPS   O3118979   2.884   5.222   6.822  0.1684  0.0910 -0.5472
  168SAPS   C3118980   2.865   5.153   6.710 -0.2495 -0.6472 -0.4791
  168SAPS   O3218981   2.781   5.065   6.695  0.4913  0.2611  0.0657
  168SAPS   C3218982   2.960   5.199   6.603 -0.2026 -0.8000  0.4593
  168SAPS   H2X18983   3.069   5.176   6.614 -0.3159 -0.2816  3.8241
  168SAPS   H2Y18984   2.962   5.309   6.597  1.8541 -0.8013  0.2666
  168SAPS   C2318985   2.880   5.616   6.712  0.6486  0.0588  0.3426
  168SAPS   H3R18986   2.774   5.632   6.740  0.8933  0.2128  1.2303
  168SAPS   H3S18987   2.872   5.515   6.666  1.0704  0.6974 -1.1743
  168SAPS   C2418988   2.916   5.720   6.604  1.3310  0.0259  0.2136
  168SAPS   H4R18989   2.932   5.820   6.650 -1.5297  0.8058 -0.2783
  168SAPS   H4S18990   2.832   5.737   6.533  0.6689 -1.7260  0.5185
  168SAPS   C2518991   3.041   5.691   6.517  0.6662  0.0639  0.3811
  168SAPS   H5R18992   3.119   5.646   6.580  0.1653 -0.5796  0.5548
  168SAPS   C2618993   3.063   5.691   6.386  0.9566  0.5645 -0.4050
  168SAPS   H6R18994   3.151   5.639   6.347 -0.1052 -1.5159 -0.1655
  168SAPS   C2718995   2.964   5.719   6.276  0.0597 -0.2794 -0.5358
  168SAPS   H7R18996   3.010   5.813   6.238  1.2466 -0.5066  0.2940
  168SAPS   H7S18997   2.860   5.735   6.314  0.7247  1.1790  0.8034
  168SAPS   C2818998   2.969   5.627   6.159 -0.3022  0.1022 -0.3370
  168SAPS   H8R18999   2.967   5.521   6.188 -1.7244  0.1846 -0.0542
  168SAPS   C2919000   2.970   5.652   6.026  0.2564  0.4448 -0.1757
  168SAPS   H9R19001   2.982   5.567   5.957  2.4855  0.3849  0.2390
  168SAPS  C21019002   2.927   5.788   5.979 -0.0322 -0.0103 -0.0646
  168SAPS  H10R19003   2.994   5.862   6.028  1.1035 -1.6898  1.0332
  168SAPS  H10S19004   2.824   5.801   6.016 -1.2597 -1.4632 -2.6968
  168SAPS  C21119005   2.934   5.819   5.832 -0.1770 -0.5293  0.7610
  168SAPS  H11R19006   3.025   5.871   5.798 -0.9350 -0.3031 -1.0295
  168SAPS  C21219007   2.828   5.826   5.759  0.1675  0.5394 -0.0059
  168SAPS  H12R19008   2.837   5.841   5.650 -0.6961  1.1207 -0.0130
  168SAPS  C21319009   2.684   5.785   5.797 -0.4024  0.1656  0.2048
  168SAPS  H13R19010   2.669   5.760   5.904 -0.2709  3.5939  1.1562
  168SAPS  H13S19011   2.649   5.698   5.738  2.4130 -1.4297  0.7450
  168SAPS  C21419012   2.596   5.904   5.771  0.1030 -0.1146  0.4810
  168SAPS  H14R19013   2.555   5.958   5.857 -1.4923 -1.6021  0.7219
  168SAPS  C21519014   2.547   5.939   5.647 -0.3628  0.1115 -0.2726
  168SAPS  H15R19015   2.493   6.033   5.634  1.2290  0.9288 -1.2159
  168SAPS  C21619016   2.578   5.868   5.518 -0.5535  0.0382  0.0885
  168SAPS  H16R19017   2.487   5.848   5.458  0.6459  1.9808 -2.5888
  168SAPS  H16S19018   2.646   5.781   5.530  2.3528  1.6340 -3.0524
  168SAPS  C21719019   2.666   5.958   5.422 -0.5256 -0.0278  0.6156
  168SAPS  H17R19020   2.748   5.991   5.489 -0.2594 -2.8157  1.8017
  168SAPS  H17S19021   2.597   6.035   5.382 -1.8677 -1.5999 -0.2491
  168SAPS  C21819022   2.720   5.870   5.308 -0.5186 -0.1158  0.0639
  168SAPS  H18R19023   2.643   5.807   5.258  0.7705  0.5202 -2.9599
  168SAPS  H18S19024   2.797   5.803   5.351 -0.4623 -0.8524 -1.1267
  168SAPS  C21919025   2.779   5.960   5.203  0.1171  0.7193  0.4242
  168SAPS  H19R19026   2.852   6.026   5.256  1.4856  0.5237 -1.1542
  168SAPS  H19S19027   2.695   6.025   5.171 -1.9837 -2.1432 -0.3172
  168SAPS  C22019028   2.836   5.886   5.078 -0.4522  0.7227 -0.3916
  168SAPS  H20R19029   2.892   5.957   5.013  1.3906  1.4640  1.8895
  168SAPS  H20S19030   2.759   5.835   5.016  0.0663  1.1224 -1.3930
  168SAPS  H20T19031   2.904   5.805   5.111 -2.1407 -1.3849 -1.7956
  168SAPS   C3319032   2.925   5.141   6.464  0.2380 -0.2828 -0.3801
  168SAPS   H3X19033   2.828   5.187   6.434  0.4239  0.3772  0.0083
  168SAPS   H3Y19034   2.909   5.031   6.471 -2.2877  0.0466 -0.1470
  168SAPS   C3419035   3.015   5.177   6.348 -0.0995 -0.4788 -0.3492
  168SAPS   H4X19036   3.014   5.285   6.325  0.3349 -0.1608  1.0462
  168SAPS   H4Y19037   2.953   5.137   6.264 -2.6359 -0.4390  1.3851
  168SAPS   C3519038   3.155   5.130   6.365 -0.4796 -0.1153  0.5239
  168SAPS   H5X19039   3.152   5.035   6.422  0.7613  1.5701  3.6066
  168SAPS   H5Y19040   3.234   5.195   6.406 -1.1365  0.8871  0.2326
  168SAPS   C3619041   3.200   5.109   6.216 -0.0720 -0.0808  0.9046
  168SAPS   H6X19042   3.148   5.021   6.173  0.8422  0.3385 -1.1600
  168SAPS   H6Y19043   3.306   5.076   6.219  0.4691  1.4201 -0.3347
  168SAPS   C3719044   3.189   5.229   6.115 -0.3899  0.2487 -0.3616
  168SAPS   H7X19045   3.244   5.313   6.163  2.0629 -1.8837  0.8068
  168SAPS   H7Y19046   3.081   5.251   6.103 -0.2675  0.9505 -0.1853
  168SAPS   C3819047   3.251   5.204   5.982  0.2160  0.2662 -0.1186
  168SAPS   H8X19048   3.239   5.096   5.961 -0.4308 -0.4409  3.3513
  168SAPS   H8Y19049   3.361   5.224   5.987  0.5182 -1.3683  0.3811
  168SAPS   C3919050   3.189   5.276   5.862  0.3530  0.0296 -0.6110
  168SAPS   H9X19051   3.197   5.386   5.878 -1.1955 -0.0966  1.6842
  168SAPS   H9Y19052   3.079   5.256   5.864  0.6285 -1.5548 -0.3660
  168SAPS  C31019053   3.252   5.245   5.729  0.0085 -0.9900  0.0070
  168SAPS  H10X19054   3.237   5.135   5.733 -0.1007 -0.9476  1.2672
  168SAPS  H10Y19055   3.360   5.267   5.746 -0.5409  0.2404  2.4636
  168SAPS  C31119056   3.195   5.306   5.592 -0.3326  0.2783 -0.6218
  168SAPS  H11X19057   3.090   5.268   5.592  0.1901 -1.2865 -2.3936
  168SAPS  H11Y19058   3.240   5.256   5.505  1.7016  2.0090 -0.6424
  168SAPS  C31219059   3.203   5.451   5.574 -0.6448  0.5060 -0.5090
  168SAPS  H12X19060   3.306   5.481   5.605 -0.8817 -0.0631  0.9224
  168SAPS  H12Y19061   3.141   5.496   5.654  0.0604 -1.8422  1.4807
  168SAPS  C31319062   3.180   5.498   5.429 -0.2958 -0.0542  0.5735
  168SAPS  H13X19063   3.259   5.458   5.362  0.8165  1.3237  1.0175
  168SAPS  H13Y19064   3.202   5.607   5.436 -1.9078  0.2347  1.8036
  168SAPS  C31419065   3.043   5.467   5.367  0.0171 -0.0000  0.0144
  168SAPS  H14X19066   3.021   5.359   5.372 -0.0176  0.0587  1.7706
  168SAPS  H14Y19067   3.051   5.488   5.258 -0.3148  0.1180  0.0101
  168SAPS  C31519068   2.925   5.548   5.426 -0.0535  0.1449 -0.6773
  168SAPS  H15X19069   2.935   5.659   5.420 -1.1740  0.3840  1.1032
  168SAPS  H15Y19070   2.918   5.532   5.536 -0.3511 -1.3380 -0.8901
  168SAPS  C31619071   2.788   5.511   5.362  0.2085 -0.1059 -0.7623
  168SAPS  H16X19072   2.791   5.523   5.252  0.9796  0.7857 -0.6566
  168SAPS  H16Y19073   2.703   5.573   5.398  0.7498 -0.1597  0.7031
  168SAPS  C31719074   2.754   5.360   5.385 -0.8177 -0.6320 -0.0436
  168SAPS  H17X19075   2.751   5.342   5.494  0.5362  0.0008  0.1189
  168SAPS  H17Y19076   2.829   5.284   5.354  0.3612  0.6551 -0.4414
  168SAPS  C31819077   2.618   5.322   5.323  0.6298  0.6351  0.4077
  168SAPS  H18X19078   2.535   5.373   5.377  0.3042  0.1572  0.3676
  168SAPS  H18Y19079   2.600   5.212   5.321 -0.0884  0.7555 -0.6815
  168SAPS  H18Z19080   2.614   5.350   5.216  1.5508 -0.4130  0.0750
  169SAPS     N19081   5.120   1.863   7.171  0.2682  0.4668  0.0169
  169SAPS   HN119082   5.059   1.802   7.113 -3.0278  1.5878  2.0533
  169SAPS   HN219083   5.157   1.937   7.109  0.7097  0.8861  0.7698
  169SAPS   HN319084   5.195   1.812   7.222 -0.3963  0.6516  1.2127
  169SAPS   C1219085   5.051   1.942   7.274 -0.0865 -0.4149 -0.0146
  169SAPS  H12A19086   4.950   1.956   7.237  0.0154 -0.5253 -0.3379
  169SAPS   C1319087   5.056   1.878   7.413  0.6468 -0.6517  0.3456
  169SAPS  O13A19088   5.103   1.765   7.427  0.3451  0.1374  0.3311
  169SAPS  O13B19089   4.983   1.934   7.499  0.1737 -0.3800 -0.3644
  169SAPS   C1119090   5.120   2.087   7.289  0.2020 -0.8101 -0.5090
  169SAPS  H11A19091   5.224   2.091   7.326 -0.3052  2.5486  0.9116
  169SAPS  H11B19092   5.063   2.140   7.368 -1.9816 -1.4802 -1.5360
  169SAPS     P19093   4.977   2.235   7.124 -0.3877  0.2268  0.4946
  169SAPS   O1319094   4.882   2.138   7.085  0.1862 -0.3023 -0.1538
  169SAPS   O1419095   4.941   2.326   7.232 -0.3312  0.3573 -0.3875
  169SAPS   O1219096   5.105   2.156   7.165 -0.4770 -0.4230  0.3743
  169SAPS   O1119097   5.013   2.323   6.994 -0.3760 -0.1405  0.1603
  169SAPS    C119098   5.130   2.298   6.916 -0.3607  0.3331  0.7150
  169SAPS    HA19099   5.195   2.388   6.903 -0.2694  0.3757  1.4251
  169SAPS    HB19100   5.196   2.219   6.958  1.0130 -0.8342 -3.2087
  169SAPS    C219101   5.095   2.241   6.772 -0.1365 -0.5300  0.4355
  169SAPS    HS19102   5.006   2.288   6.725  0.8940 -0.5396 -1.6430
  169SAPS   O2119103   5.078   2.098   6.784  0.9503 -0.7776 -0.1222
  169SAPS   C2119104   5.017   2.037   6.682 -0.3715 -0.0389  0.3054
  169SAPS   O2219105   4.975   2.093   6.581  0.4882 -0.4714  0.2855
  169SAPS   C2219106   5.015   1.885   6.716 -0.6596 -0.5849 -0.2943
  169SAPS   H2R19107   5.066   1.865   6.812  1.6982  1.7594 -0.9560
  169SAPS   H2S19108   4.908   1.854   6.717 -1.7577  2.6857 -1.8796
  169SAPS    C319109   5.216   2.267   6.679  0.7181  0.7517  0.4692
  169SAPS    HX19110   5.184   2.232   6.578  1.9247  1.5499 -0.2181
  169SAPS    HY19111   5.302   2.208   6.718  1.4853  1.2576 -0.4152
  169SAPS   O3119112   5.256   2.399   6.664  0.4000 -0.4114  0.0013
  169SAPS   C3119113   5.358   2.413   6.576  0.1689 -0.1899  0.1882
  169SAPS   O3219114   5.430   2.328   6.528  0.4141  0.4327 -0.4921
  169SAPS   C3219115   5.352   2.560   6.529 -0.7417  0.0336  0.0042
  169SAPS   H2X19116   5.369   2.617   6.622  0.0662  0.1836 -0.2264
  169SAPS   H2Y19117   5.249   2.582   6.493 -0.0636 -0.1401 -2.2137
  169SAPS   C2319118   5.067   1.801   6.604 -0.4642 -0.3343 -0.0216
  169SAPS   H3R19119   5.023   1.831   6.506 -0.7380 -0.2111  0.1388
  169SAPS   H3S19120   5.028   1.697   6.611 -2.1389  0.2639  0.0017
  169SAPS   C2419121   5.221   1.785   6.598  0.5927 -0.0467 -0.6775
  169SAPS   H4R19122   5.233   1.695   6.535  0.7547  0.7687 -1.8510
  169SAPS   H4S19123   5.274   1.766   6.694 -0.1412  2.8648  0.4068
  169SAPS   C2519124   5.299   1.896   6.541  0.1225 -0.7942 -0.0760
  169SAPS   H5R19125   5.294   1.989   6.601 -0.9246 -0.0322 -1.3081
  169SAPS   C2619126   5.355   1.903   6.415  0.4472 -0.7771 -0.6170
  169SAPS   H6R19127   5.410   1.997   6.396  0.0318 -0.6173 -1.0408
  169SAPS   C2719128   5.347   1.799   6.299  0.3438 -0.1710  0.1044
  169SAPS   H7R19129   5.333   1.700   6.348 -0.5288  0.3847  1.0146
  169SAPS   H7S19130   5.450   1.786   6.260 -0.1258 -2.3109 -0.5973
  169SAPS   C2819131   5.234   1.819   6.208 -0.0129 -0.7742  0.6805
  169SAPS   H8R19132   5.143   1.863   6.251 -0.8871  2.4619 -3.6688
  169SAPS   C2919133   5.242   1.793   6.073  0.3692  0.7546  0.7499
  169SAPS   H9R19134   5.158   1.807   6.004  0.8452 -1.1404 -0.2948
  169SAPS  C21019135   5.356   1.740   5.987  0.9129 -0.0179 -0.4865
  169SAPS  H10R19136   5.439   1.696   6.046  0.4467 -2.3405 -1.4403
  169SAPS  H10S19137   5.400   1.815   5.919  1.6652 -1.1708 -1.3267
  169SAPS  C21119138   5.302   1.630   5.898 -0.4741  0.0739  0.5428
  169SAPS  H11R19139   5.224   1.564   5.940  0.7654 -2.1500 -0.4322
  169SAPS  C21219140   5.340   1.610   5.768  0.2830  0.2990  0.2502
  169SAPS  H12R19141   5.277   1.536   5.716  1.8454  0.5820 -2.2020
  169SAPS  C21319142   5.433   1.685   5.680  0.0928  0.2149  0.6875
  169SAPS  H13R19143   5.510   1.619   5.632 -0.1549  0.9559 -0.7977
  169SAPS  H13S19144   5.496   1.764   5.726 -1.6302  1.5821  0.7748
  169SAPS  C21419145   5.356   1.755   5.568  0.3323  0.1138  0.0943
  169SAPS  H14R19146   5.265   1.803   5.608 -0.2108 -1.2593  0.5408
  169SAPS  C21519147   5.377   1.759   5.432 -1.0351  0.1161 -0.5797
  169SAPS  H15R19148   5.287   1.791   5.377 -0.4432  2.3918 -0.3447
  169SAPS  C21619149   5.483   1.683   5.362 -1.2185  0.1086 -0.6522
  169SAPS  H16R19150   5.546   1.612   5.419 -0.9488  0.6219 -0.3069
  169SAPS  H16S19151   5.555   1.759   5.327 -3.0300  1.4935 -1.5390
  169SAPS  C21719152   5.433   1.614   5.230  0.7244  0.5581  0.0737
  169SAPS  H17R19153   5.520   1.568   5.180 -0.0223 -0.5720 -0.2246
  169SAPS  H17S19154   5.389   1.686   5.158  1.5418  0.3283 -0.6622
  169SAPS  C21819155   5.328   1.505   5.254  0.1148 -0.2121  0.1243
  169SAPS  H18R19156   5.251   1.556   5.316 -0.4466  1.9044 -2.1541
  169SAPS  H18S19157   5.376   1.419   5.305  1.8141  0.5543 -0.1184
  169SAPS  C21919158   5.272   1.434   5.131 -0.7104 -0.0051  0.0997
  169SAPS  H19R19159   5.249   1.328   5.158 -1.6351 -0.0173 -0.6591
  169SAPS  H19S19160   5.336   1.436   5.040  0.7520 -0.4647  1.0899
  169SAPS  C22019161   5.137   1.493   5.092  0.0961  0.2646 -0.2186
  169SAPS  H20R19162   5.133   1.590   5.037 -0.1680 -0.8030 -2.1406
  169SAPS  H20S19163   5.081   1.500   5.188  1.3002 -0.4579  0.5508
  169SAPS  H20T19164   5.078   1.430   5.022  1.5766  0.9010 -2.1220
  169SAPS   C3319165   5.455   2.604   6.422 -0.4284 -0.0056  0.1361
  169SAPS   H3X19166   5.542   2.536   6.428 -0.8379 -0.4805  0.9791
  169SAPS   H3Y19167   5.503   2.700   6.450 -0.8531 -0.3935  2.3980
  169SAPS   C3419168   5.390   2.607   6.284  0.0073 -1.3355 -1.0009
  169SAPS   H4X19169   5.322   2.693   6.296  1.4614 -0.3909  1.1466
  169SAPS   H4Y19170   5.335   2.513   6.261 -0.7080 -0.9547 -0.8532
  169SAPS   C3519171   5.490   2.623   6.164  0.5185  0.2910  0.2961
  169SAPS   H5X19172   5.569   2.545   6.165 -0.8580 -1.1610  0.1149
  169SAPS   H5Y19173   5.533   2.725   6.175 -1.8749  1.3967  0.0106
  169SAPS   C3619174   5.412   2.616   6.037  0.7845 -0.2204  0.0545
  169SAPS   H6X19175   5.362   2.517   6.043  0.2362 -0.1719 -2.5614
  169SAPS   H6Y19176   5.489   2.617   5.957  1.4035 -0.7410  0.6307
  169SAPS   C3719177   5.316   2.732   6.017  0.6182 -0.4931  0.0981
  169SAPS   H7X19178   5.326   2.827   6.074 -2.0926 -0.2797  0.3430
  169SAPS   H7Y19179   5.210   2.709   6.042  0.2853  1.5183  0.7598
  169SAPS   C3819180   5.303   2.756   5.864  0.0164 -0.0898  0.6623
  169SAPS   H8X19181   5.307   2.659   5.810  0.0591  0.6694 -0.7422
  169SAPS   H8Y19182   5.395   2.815   5.841 -0.7047  0.9644  0.3857
  169SAPS   C3919183   5.172   2.836   5.832  0.0697 -0.2067 -0.0067
  169SAPS   H9X19184   5.164   2.916   5.908 -0.2135 -0.9186  0.7192
  169SAPS   H9Y19185   5.081   2.774   5.843  0.1691  0.0585  3.1584
  169SAPS  C31019186   5.163   2.906   5.697  0.5287 -0.3457 -0.4668
  169SAPS  H10X19187   5.130   2.821   5.633 -1.1442 -2.5060  2.9639
  169SAPS  H10Y19188   5.258   2.956   5.670  0.6835 -0.3072  0.1386
  169SAPS  C31119189   5.057   3.021   5.688 -0.0849 -0.3345 -0.7184
  169SAPS  H11X19190   5.069   3.087   5.776  1.9199 -0.0354 -1.1633
  169SAPS  H11Y19191   4.960   2.967   5.677 -0.9153  1.3719 -2.1644
  169SAPS  C31219192   5.074   3.104   5.560 -0.2396  0.4874 -0.1375
  169SAPS  H12X19193   5.172   3.156   5.566  0.1356 -0.1332 -0.7030
  169SAPS  H12Y19194   5.013   3.196   5.555 -0.9410  0.0336 -0.0997
  169SAPS  C31319195   5.061   3.028   5.425 -0.0940  0.8605  0.7945
  169SAPS  H13X19196   4.953   3.004   5.414  0.6334 -2.4300 -0.3678
  169SAPS  H13Y19197   5.112   2.930   5.436  0.9123  1.3372  0.4441
  169SAPS  C31419198   5.109   3.108   5.305 -0.2189  0.4328  0.4904
  169SAPS  H14X19199   5.218   3.115   5.322 -0.3469  0.6160  1.2939
  169SAPS  H14Y19200   5.061   3.208   5.306  0.1689  0.6330 -0.2990
  169SAPS  C31519201   5.090   3.033   5.172  0.2081  0.7068  0.1130
  169SAPS  H15X19202   4.981   3.018   5.157  0.6297 -0.2942 -2.3427
  169SAPS  H15Y19203   5.136   2.932   5.180 -4.0890 -1.6852 -1.7226
  169SAPS  C31619204   5.131   3.104   5.041  0.1645  0.0405 -0.0016
  169SAPS  H16X19205   5.242   3.102   5.040  0.1866 -3.3794 -0.5204
  169SAPS  H16Y19206   5.093   3.209   5.040  0.7010  0.2312 -0.4758
  169SAPS  C31719207   5.065   3.038   4.921 -0.0204  0.4856 -0.5648
  169SAPS  H17X19208   4.971   2.995   4.960  1.1773  0.3113  2.4116
  169SAPS  H17Y19209   5.135   2.953   4.906  0.1612  0.3625  0.8971
  169SAPS  C31819210   5.059   3.122   4.791  0.3449  0.3193  0.2543
  169SAPS  H18X19211   5.161   3.152   4.761  0.4188 -0.9039 -0.7989
  169SAPS  H18Y19212   5.005   3.218   4.803  0.4142  0.3263  0.5175
  169SAPS  H18Z19213   5.011   3.064   4.709  0.9253 -1.6739  1.2541
  170SAPS     N19214   0.009   5.465   7.838  0.2143  0.3667 -0.2193
  170SAPS   HN119215  -0.012   5.538   7.909 -2.2247 -1.9651  1.6711
  170SAPS   HN219216  -0.001   5.503   7.742 -0.9925  1.1227  0.1798
  170SAPS   HN319217  -0.055   5.383   7.848  0.0283  0.6252  0.9422
  170SAPS   C1219218   0.150   5.411   7.850  0.4865  0.8222 -0.0811
  170SAPS  H12A19219   0.211   5.500   7.859  0.5685  0.6006  1.9276
  170SAPS   C1319220   0.171   5.328   7.975 -0.2337 -0.5970  0.1105
  170SAPS  O13A19221   0.085   5.317   8.067  0.0820 -0.2082  0.1945
  170SAPS  O13B19222   0.291   5.321   8.006 -0.0039 -0.1542 -0.4740
  170SAPS   C1119223   0.192   5.316   7.733 -0.2679 -0.6186  0.3517
  170SAPS  H11A19224   0.122   5.232   7.718  0.6387 -0.9439 -2.9704
  170SAPS  H11B19225   0.291   5.278   7.765 -0.5982  0.8264  3.4354
  170SAPS     P19226   0.281   5.374   7.490  0.3053 -0.5264  0.3647
  170SAPS   O1319227   0.392   5.479   7.493 -0.2345  0.6432 -0.3566
  170SAPS   O1419228   0.320   5.232   7.472  0.3740 -0.5616 -0.3070
  170SAPS   O1219229   0.186   5.392   7.613  0.0503  0.4955 -0.2207
  170SAPS   O1119230   0.180   5.411   7.372 -0.1471 -0.6618  0.0874
  170SAPS    C119231   0.069   5.504   7.390  0.1817  0.9517 -0.1409
  170SAPS    HA19232  -0.019   5.439   7.413  0.6913  0.2865 -0.0448
  170SAPS    HB19233   0.080   5.581   7.469 -0.5997  0.9829 -0.0532
  170SAPS    C219234   0.044   5.594   7.270  0.2979  0.2244  0.0501
  170SAPS    HS19235  -0.007   5.684   7.310 -0.4226  0.2571 -0.9178
  170SAPS   O2119236  -0.025   5.514   7.160  0.1462  0.6327  0.0760
  170SAPS   C2119237  -0.153   5.506   7.173  0.2296 -0.8437  0.2039
  170SAPS   O2219238  -0.218   5.552   7.264 -0.4622  0.0188 -0.5347
  170SAPS   C2219239  -0.211   5.438   7.049 -0.4908 -0.4309 -0.3273
  170SAPS   H2R19240  -0.161   5.471   6.955 -1.4565  1.0183 -0.3561
  170SAPS   H2S19241  -0.198   5.329   7.068  1.3171  0.1938  2.7088
  170SAPS    C319242   0.178   5.645   7.214  0.9726 -0.2561 -0.1308
  170SAPS    HX19243   0.243   5.558   7.191  0.3937 -0.8216  0.3242
  170SAPS    HY19244   0.230   5.705   7.291 -0.8244  4.5294 -2.2675
  170SAPS   O3119245   0.158   5.737   7.107  0.3180 -0.6235 -0.6067
  170SAPS   C3119246   0.157   5.676   6.988  0.1611  0.3722  0.8940
  170SAPS   O3219247   0.170   5.555   6.975  0.6849  0.0950 -0.5558
  170SAPS   C3219248   0.128   5.764   6.863 -0.6598 -0.0991 -0.3017
  170SAPS   H2X19249   0.159   5.709   6.772  0.9687 -1.0148  0.7496
  170SAPS   H2Y19250   0.199   5.847   6.882 -2.0042  1.0615 -0.1781
  170SAPS   C2319251  -0.364   5.462   7.033  0.4929  0.3636 -0.4151
  170SAPS   H3R19252  -0.397   5.565   7.058 -0.9424 -0.3471  0.7498
  170SAPS   H3S19253  -0.413   5.406   7.115  0.3544  1.0856  0.0037
  170SAPS   C2419254  -0.403   5.435   6.890 -0.0019 -0.3104  0.5597
  170SAPS   H4R19255  -0.512   5.411   6.882 -0.3792  1.2365  0.7498
  170SAPS   H4S19256  -0.349   5.350   6.843 -0.8681 -0.5974  0.0528
  170SAPS   C2519257  -0.381   5.553   6.805  0.5336 -0.0034 -0.2626
  170SAPS   H5R19258  -0.420   5.650   6.839 -0.5105 -0.5256  0.0437
  170SAPS   C2619259  -0.312   5.562   6.687 -0.0723 -0.1761 -0.5875
  170SAPS   H6R19260  -0.302   5.658   6.635 -0.7377  0.3517  0.2505
  170SAPS   C2719261  -0.249   5.447   6.613  0.0495 -0.5143  0.2630
  170SAPS   H7R19262  -0.325   5.426   6.534  0.2978  2.0472 -0.7396
  170SAPS   H7S19263  -0.232   5.349   6.664 -1.5323 -2.6491 -2.9777
  170SAPS   C2819264  -0.111   5.498   6.573  0.0888  0.7549 -0.1548
  170SAPS   H8R19265  -0.039   5.488   6.656 -0.1473 -0.4294 -0.0804
  170SAPS   C2919266  -0.062   5.536   6.452  0.0445 -0.4818 -0.4288
  170SAPS   H9R19267   0.042   5.570   6.444 -0.1740 -0.0079 -1.4906
  170SAPS  C21019268  -0.138   5.539   6.323  0.0119 -0.2383  0.3456
  170SAPS  H10R19269  -0.099   5.611   6.248 -1.1627 -0.7526 -0.7907
  170SAPS  H10S19270  -0.237   5.572   6.359  0.8966  0.1495  2.5993
  170SAPS  C21119271  -0.155   5.396   6.270 -0.1460  0.5444  0.6075
  170SAPS  H11R19272  -0.164   5.321   6.350  1.4058 -1.0585 -0.6435
  170SAPS  C21219273  -0.166   5.351   6.142  0.2056  0.1105  0.6158
  170SAPS  H12R19274  -0.160   5.243   6.122  2.0919  0.3376 -0.3364
  170SAPS  C21319275  -0.155   5.435   6.020  0.1038 -0.5325 -0.2491
  170SAPS  H13R19276  -0.207   5.532   6.035  1.9600  0.4809 -0.0556
  170SAPS  H13S19277  -0.209   5.383   5.938 -1.1241  1.6375 -0.8720
  170SAPS  C21419278  -0.015   5.470   5.981 -0.4114 -0.8742 -0.2998
  170SAPS  H14R19279   0.039   5.505   6.070 -0.4335  0.2439 -0.7200
  170SAPS  C21519280   0.050   5.479   5.863 -0.6267  0.6349  0.3248
  170SAPS  H15R19281   0.160   5.487   5.864 -0.6552  1.0523  0.6755
  170SAPS  C21619282  -0.018   5.469   5.727 -0.3447  0.0822  0.6985
  170SAPS  H16R19283  -0.003   5.559   5.664  1.8672 -1.0946 -0.5712
  170SAPS  H16S19284  -0.128   5.454   5.724 -1.1366  4.4433 -2.8045
  170SAPS  C21719285   0.049   5.354   5.648 -0.5559  0.4777  0.4207
  170SAPS  H17R19286   0.048   5.271   5.722 -0.7908  0.5767  0.5304
  170SAPS  H17S19287   0.153   5.381   5.619 -0.4174 -1.9942 -1.7505
  170SAPS  C21819288  -0.028   5.304   5.528  0.6042  0.0916  0.6666
  170SAPS  H18R19289  -0.135   5.286   5.553  0.5328  0.3320  0.5350
  170SAPS  H18S19290   0.030   5.216   5.493 -0.6266  0.3039 -2.2246
  170SAPS  C21919291  -0.023   5.405   5.403 -0.5393  0.5539  0.5415
  170SAPS  H19R19292   0.083   5.435   5.393 -0.0254 -1.1118  0.6594
  170SAPS  H19S19293  -0.074   5.500   5.425 -1.0862  0.1589  1.0027
  170SAPS  C22019294  -0.064   5.341   5.271  0.4768  0.5770  0.7144
  170SAPS  H20R19295  -0.006   5.252   5.240 -1.1585 -0.3646  0.2494
  170SAPS  H20S19296  -0.035   5.409   5.188  1.1108 -2.9597 -2.1705
  170SAPS  H20T19297  -0.174   5.324   5.267  0.8423 -1.9984  0.1686
  170SAPS   C3319298  -0.013   5.823   6.867 -0.1213 -0.0707  0.1754
  170SAPS   H3X19299  -0.042   5.865   6.966 -0.1373  1.6536 -0.5235
  170SAPS   H3Y19300  -0.082   5.746   6.827  0.4967 -0.5125 -0.0519
  170SAPS   C3419301  -0.019   5.935   6.758 -0.2846  0.9407 -0.0987
  170SAPS   H4X19302   0.049   6.021   6.776  0.1375  0.5414  0.2793
  170SAPS   H4Y19303  -0.117   5.986   6.768 -0.9170 -0.2579 -0.0592
  170SAPS   C3519304  -0.003   5.889   6.618  0.2544  0.0125  0.1890
  170SAPS   H5X19305  -0.077   5.807   6.600  2.1623 -1.9246  0.7120
  170SAPS   H5Y19306   0.100   5.854   6.596  0.5057  0.6756  0.2980
  170SAPS   C3619307  -0.038   5.997   6.510  0.2505  0.1598  0.0188
  170SAPS   H6X19308   0.039   6.077   6.499 -1.5860  2.1229  0.7417
  170SAPS   H6Y19309  -0.124   6.046   6.560  0.3157 -0.3074  0.6017
  170SAPS   C3719310  -0.067   5.938   6.373  0.0636  0.3232  0.2144
  170SAPS   H7X19311  -0.136   6.007   6.320 -1.4643  1.5977  3.5632
  170SAPS   H7Y19312  -0.124   5.844   6.385  0.8560 -0.0332  1.2700
  170SAPS   C3819313   0.060   5.900   6.291 -0.3051 -0.6574 -0.4192
  170SAPS   H8X19314   0.096   5.800   6.322 -0.9930 -0.6472  0.4781
  170SAPS   H8Y19315   0.137   5.975   6.320  0.3373 -1.3786 -0.2179
  170SAPS   C3919316   0.032   5.918   6.144 -0.1029  0.3244  0.4313
  170SAPS   H9X19317   0.030   6.024   6.109  0.4748 -0.3169 -1.7208
  170SAPS   H9Y19318  -0.069   5.875   6.129  0.2850 -0.2293 -0.6568
  170SAPS  C31019319   0.136   5.850   6.057 -0.4988 -0.1851  1.0837
  170SAPS  H10X19320   0.135   5.743   6.084 -2.3991 -0.4669  0.0454
  170SAPS  H10Y19321   0.239   5.893   6.067 -0.7532  0.5439  0.6621
  170SAPS  C31119322   0.107   5.841   5.906 -0.2165  0.4289 -0.1461
  170SAPS  H11X19323   0.077   5.938   5.863  1.0966  1.0518  0.2741
  170SAPS  H11Y19324   0.034   5.763   5.877  0.8108  0.1698 -2.2052
  170SAPS  C31219325   0.243   5.818   5.838 -0.6359  0.5074 -0.2612
  170SAPS  H12X19326   0.287   5.734   5.896  0.6207  1.5874  0.3994
  170SAPS  H12Y19327   0.306   5.907   5.860  1.4130 -0.5060 -1.6519
  170SAPS  C31319328   0.226   5.789   5.694 -0.0310 -0.1701  0.1039
  170SAPS  H13X19329   0.180   5.688   5.691 -0.8715  0.1998  0.3878
  170SAPS  H13Y19330   0.327   5.798   5.648  0.6971 -1.3382  1.4194
  170SAPS  C31419331   0.129   5.882   5.619  0.1253 -0.7736  0.5564
  170SAPS  H14X19332   0.167   5.986   5.624  0.0568 -0.7770  1.2636
  170SAPS  H14Y19333   0.029   5.875   5.666 -1.1833  2.6794 -1.3804
  170SAPS  C31519334   0.099   5.831   5.475  0.4998 -0.5791 -0.0805
  170SAPS  H15X19335   0.070   5.725   5.462  0.5766 -0.9055  2.0430
  170SAPS  H15Y19336   0.191   5.849   5.416 -0.2797  1.6748 -0.6808
  170SAPS  C31619337  -0.002   5.919   5.397  0.3981 -0.0958  0.1429
  170SAPS  H16X19338   0.048   6.018   5.387 -0.9759  0.9457  2.5757
  170SAPS  H16Y19339  -0.094   5.937   5.457 -1.7935 -0.7787 -2.7889
  170SAPS  C31719340  -0.028   5.864   5.263  0.5831 -0.0788 -0.0780
  170SAPS  H17X19341   0.064   5.861   5.201  0.3336 -1.0315 -0.4191
  170SAPS  H17Y19342  -0.084   5.941   5.207 -0.1276 -1.2958 -1.0818
  170SAPS  C31819343  -0.104   5.732   5.242  0.1001  0.5442  0.6350
  170SAPS  H18X19344  -0.144   5.716   5.140  1.5992  0.5480  0.0142
  170SAPS  H18Y19345  -0.200   5.732   5.298 -0.3705 -0.6675 -0.1269
  170SAPS  H18Z19346  -0.033   5.647   5.255  0.5413  0.5982 -1.2126
  171SAPS     N19347   0.604   6.206   7.411 -0.2968  0.2329 -0.7916
  171SAPS   HN119348   0.525   6.144   7.384 -0.9442 -0.1166  1.6429
  171SAPS   HN219349   0.563   6.301   7.416 -0.3602  0.1853 -0.3426
  171SAPS   HN319350   0.681   6.207   7.341 -0.3352 -0.9961 -0.8773
  171SAPS   C1219351   0.648   6.168   7.551  0.1976  0.1062  0.6478
  171SAPS  H12A19352   0.708   6.080   7.538 -1.9446 -1.3152 -0.1871
  171SAPS   C1319353   0.733   6.275   7.613 -0.0992  0.0793 -0.6648
  171SAPS  O13A19354   0.772   6.382   7.554 -0.1811  0.5185 -0.3876
  171SAPS  O13B19355   0.775   6.256   7.730 -0.1158 -0.0204 -0.4259
  171SAPS   C1119356   0.533   6.146   7.652 -0.3002 -0.0854 -0.0077
  171SAPS  H11A19357   0.475   6.241   7.647 -0.0593  0.0350 -4.0038
  171SAPS  H11B19358   0.572   6.130   7.755 -2.5412 -0.6845  0.8144
  171SAPS     P19359   0.314   6.043   7.561  0.0025  0.1800  0.0751
  171SAPS   O1319360   0.260   5.908   7.539  0.7403 -0.2517 -0.5480
  171SAPS   O1419361   0.225   6.131   7.631 -0.1714 -0.9358 -0.4173
  171SAPS   O1219362   0.457   6.033   7.616  0.4928  0.4883  0.2455
  171SAPS   O1119363   0.334   6.114   7.420  0.2764  0.2055 -0.1734
  171SAPS    C119364   0.236   6.129   7.317 -0.6428 -0.1982 -0.5739
  171SAPS    HA19365   0.137   6.089   7.348  0.2178 -1.5217  0.5736
  171SAPS    HB19366   0.225   6.237   7.294  1.3578  0.1660  0.0142
  171SAPS    C219367   0.275   6.059   7.188 -0.5544  0.0370  0.4057
  171SAPS    HS19368   0.286   5.958   7.232 -0.3945  1.0619  2.8732
  171SAPS   O2119369   0.405   6.115   7.137 -0.1306  0.5953  0.0262
  171SAPS   C2119370   0.459   6.030   7.039 -0.5674  0.8350 -0.5495
  171SAPS   O2219371   0.409   5.922   7.013 -0.3696  0.9471 -0.1600
  171SAPS   C2219372   0.596   6.075   6.991  0.1616 -0.2374  0.3322
  171SAPS   H2R19373   0.583   6.179   6.955  0.2930 -0.4898 -0.4736
  171SAPS   H2S19374   0.662   6.085   7.080 -2.0702  2.2628  1.8421
  171SAPS    C319375   0.156   6.079   7.082 -0.7467 -0.2235 -1.0112
  171SAPS    HX19376   0.183   6.025   6.989 -0.2501 -0.5218 -0.6996
  171SAPS    HY19377   0.160   6.186   7.053 -0.6882 -0.0406 -0.3600
  171SAPS   O3119378   0.026   6.027   7.138  0.0679  0.3402  0.3979
  171SAPS   C3119379  -0.074   6.111   7.129  0.4144  0.4511  0.6988
  171SAPS   O3219380  -0.073   6.215   7.066  0.4573 -0.2295 -0.6561
  171SAPS   C3219381  -0.181   6.064   7.226 -0.2009 -0.6773 -0.1205
  171SAPS   H2X19382  -0.159   6.130   7.312 -3.0314  0.6979 -0.3483
  171SAPS   H2Y19383  -0.158   5.958   7.252 -1.3796 -1.2497 -1.2895
  171SAPS   C2319384   0.660   5.985   6.880 -0.3022  0.5833 -0.0680
  171SAPS   H3R19385   0.675   5.886   6.928 -1.0231  0.0673 -0.8816
  171SAPS   H3S19386   0.762   6.021   6.856  0.6523 -1.1212  1.2378
  171SAPS   C2419387   0.589   5.962   6.751  0.3909 -0.5909 -0.4264
  171SAPS   H4R19388   0.540   6.053   6.711 -0.3788 -1.2609 -1.0527
  171SAPS   H4S19389   0.502   5.899   6.778 -0.2591  0.2847 -0.4274
  171SAPS   C2519390   0.660   5.888   6.643 -0.4125  0.8692  0.2239
  171SAPS   H5R19391   0.745   5.826   6.673  0.7532  1.2672 -1.9861
  171SAPS   C2619392   0.639   5.890   6.503  0.2640 -0.3436 -0.6046
  171SAPS   H6R19393   0.698   5.828   6.434  2.1971  1.0202 -0.2729
  171SAPS   C2719394   0.532   5.974   6.444 -0.0862  0.1033  0.5850
  171SAPS   H7R19395   0.577   6.039   6.365 -1.4917 -1.0755 -1.2787
  171SAPS   H7S19396   0.476   6.048   6.504 -2.3036 -0.9944 -0.0270
  171SAPS   C2819397   0.436   5.885   6.359  0.3669 -0.0645 -0.6430
  171SAPS   H8R19398   0.342   5.846   6.401  1.4973 -1.6535  0.5500
  171SAPS   C2919399   0.474   5.838   6.237 -0.6823  0.0307  0.4917
  171SAPS   H9R19400   0.400   5.781   6.179 -1.7868 -1.0041  2.7626
  171SAPS  C21019401   0.599   5.853   6.153 -0.9372  0.2968 -0.3004
  171SAPS  H10R19402   0.669   5.924   6.202 -2.3464  2.8763 -1.7785
  171SAPS  H10S19403   0.570   5.901   6.057  1.7514 -0.6706 -1.6757
  171SAPS  C21119404   0.672   5.726   6.123 -0.1700 -0.4972 -0.4549
  171SAPS  H11R19405   0.749   5.701   6.197 -0.4565 -1.3746 -0.4421
  171SAPS  C21219406   0.672   5.645   6.015 -0.4106 -0.3947 -0.4113
  171SAPS  H12R19407   0.727   5.550   6.009  2.9060  1.4341 -4.9392
  171SAPS  C21319408   0.595   5.670   5.885  0.7444  0.0762 -0.0282
  171SAPS  H13R19409   0.511   5.741   5.899  0.9547  0.1400  0.9911
  171SAPS  H13S19410   0.545   5.575   5.856 -0.5006  0.5241  0.6018
  171SAPS  C21419411   0.674   5.713   5.762  0.4880 -0.9969 -0.0850
  171SAPS  H14R19412   0.722   5.812   5.769 -1.6348  0.0417  0.4630
  171SAPS  C21519413   0.712   5.642   5.653 -0.5918 -0.3802  0.1474
  171SAPS  H15R19414   0.767   5.693   5.572  0.2444 -1.0523  0.2729
  171SAPS  C21619415   0.674   5.504   5.615 -0.2272  0.5140 -0.6388
  171SAPS  H16R19416   0.590   5.467   5.678  0.1810 -0.5056 -0.6640
  171SAPS  H16S19417   0.761   5.438   5.637  0.2865  1.6311  0.8660
  171SAPS  C21719418   0.642   5.487   5.469  0.6292  0.0637  0.4052
  171SAPS  H17R19419   0.614   5.381   5.451 -1.4177  0.5661  0.4272
  171SAPS  H17S19420   0.735   5.498   5.409 -0.1269  2.0502 -0.4668
  171SAPS  C21819421   0.529   5.580   5.424 -0.1056  0.3198  0.1809
  171SAPS  H18R19422   0.561   5.686   5.420  0.2531  0.1931 -0.2768
  171SAPS  H18S19423   0.453   5.581   5.505  0.9206 -1.1165  1.2193
  171SAPS  C21919424   0.470   5.535   5.291  0.0421 -0.0433  1.1430
  171SAPS  H19R19425   0.446   5.429   5.313  0.3733 -0.4921 -0.5624
  171SAPS  H19S19426   0.539   5.535   5.204 -0.9825  0.0343  0.3127
  171SAPS  C22019427   0.341   5.603   5.258 -0.1999 -0.0359  0.1585
  171SAPS  H20R19428   0.352   5.713   5.263 -1.2117  0.0897 -0.1579
  171SAPS  H20S19429   0.256   5.572   5.323 -3.1566  1.4655 -2.6622
  171SAPS  H20T19430   0.304   5.585   5.154 -1.7855  2.1639  0.2649
  171SAPS   C3319431  -0.324   6.082   7.178 -0.2292 -0.8437  0.1484
  171SAPS   H3X19432  -0.339   6.187   7.143  0.0207 -0.6275  0.6702
  171SAPS   H3Y19433  -0.388   6.068   7.267 -1.8792 -2.8014 -1.2680
  171SAPS   C3419434  -0.364   5.977   7.073 -0.3078 -0.2082  0.2681
  171SAPS   H4X19435  -0.384   5.882   7.126 -0.3891 -0.0217  0.5766
  171SAPS   H4Y19436  -0.279   5.956   7.004  1.2117 -0.2775  2.0923
  171SAPS   C3519437  -0.493   6.023   6.988 -0.0063 -0.3785 -0.0206
  171SAPS   H5X19438  -0.497   6.126   6.948 -2.3209 -0.0492  0.8780
  171SAPS   H5Y19439  -0.580   6.027   7.057 -1.1966  2.5675 -1.5128
  171SAPS   C3619440  -0.543   5.933   6.872 -0.0495 -0.1555  0.0505
  171SAPS   H6X19441  -0.642   5.956   6.827 -0.3633  0.4994  1.0443
  171SAPS   H6Y19442  -0.543   5.828   6.909 -1.4070  0.1641  1.0107
  171SAPS   C3719443  -0.441   5.941   6.750  0.1892 -0.2324 -0.1016
  171SAPS   H7X19444  -0.343   5.897   6.780  0.3236  0.7616  0.9616
  171SAPS   H7Y19445  -0.420   6.047   6.727  2.0163 -0.4120  0.5923
  171SAPS   C3819446  -0.499   5.876   6.618  0.1017 -0.2263 -0.8474
  171SAPS   H8X19447  -0.604   5.912   6.619  0.3889  1.0498  2.9895
  171SAPS   H8Y19448  -0.502   5.767   6.638 -0.9151 -0.0139  0.2830
  171SAPS   C3919449  -0.430   5.905   6.491 -0.3200 -0.0509 -0.5381
  171SAPS   H9X19450  -0.324   5.871   6.488 -1.1547 -2.9114 -0.6290
  171SAPS   H9Y19451  -0.440   6.012   6.463  2.0387  0.6397  0.9828
  171SAPS  C31019452  -0.500   5.821   6.382 -0.8897 -0.0341  1.1485
  171SAPS  H10X19453  -0.610   5.841   6.379 -0.9862 -0.6013 -1.3664
  171SAPS  H10Y19454  -0.484   5.712   6.397  2.7294  0.3437  0.7679
  171SAPS  C31119455  -0.447   5.853   6.239  0.3501  0.1974 -0.1701
  171SAPS  H11X19456  -0.337   5.836   6.239  0.1222 -1.6403 -1.3892
  171SAPS  H11Y19457  -0.465   5.961   6.219 -1.9760 -0.0261  0.4768
  171SAPS  C31219458  -0.504   5.756   6.131  0.2587 -0.2083 -1.6711
  171SAPS  H12X19459  -0.613   5.774   6.120  0.7195  4.4408 -0.9741
  171SAPS  H12Y19460  -0.484   5.653   6.166  0.2643  0.3308 -0.0057
  171SAPS  C31319461  -0.447   5.776   5.988  0.1503 -0.0058  0.3132
  171SAPS  H13X19462  -0.337   5.785   6.003 -0.0585  0.2397  1.8177
  171SAPS  H13Y19463  -0.506   5.863   5.952  0.6497  0.1408 -0.1604
  171SAPS  C31419464  -0.488   5.671   5.886  0.1662  0.3314  0.0254
  171SAPS  H14X19465  -0.598   5.664   5.869 -0.0118 -0.0566  1.2574
  171SAPS  H14Y19466  -0.468   5.572   5.930 -1.0591 -0.0738 -0.2780
  171SAPS  C31519467  -0.413   5.689   5.753 -0.1573 -0.0437 -0.3939
  171SAPS  H15X19468  -0.309   5.666   5.784 -0.6305  0.6513  1.9735
  171SAPS  H15Y19469  -0.429   5.793   5.720  2.4169  0.8885  0.9929
  171SAPS  C31619470  -0.455   5.579   5.646 -0.0287  0.4636 -0.2866
  171SAPS  H16X19471  -0.559   5.596   5.612 -0.1808 -0.4993 -0.3262
  171SAPS  H16Y19472  -0.458   5.473   5.679  1.3315 -0.1413 -1.9739
  171SAPS  C31719473  -0.351   5.587   5.535  0.6701 -0.4067  0.2265
  171SAPS  H17X19474  -0.256   5.538   5.565  1.4112  1.0364  0.3393
  171SAPS  H17Y19475  -0.324   5.691   5.506  0.5160  0.1821  2.0829
  171SAPS  C31819476  -0.404   5.516   5.409 -0.3397 -0.1957  0.3947
  171SAPS  H18X19477  -0.464   5.426   5.436 -1.4639  1.0757  2.4300
  171SAPS  H18Y19478  -0.317   5.483   5.347 -0.8128 -1.6866  0.4823
  171SAPS  H18Z19479  -0.482   5.575   5.357 -1.6799 -0.6515  1.8286
  172SAPS     N19480   0.847   4.454   7.428 -0.5513 -0.2979  0.6654
  172SAPS   HN119481   0.934   4.398   7.421 -0.2455  0.3661 -3.4689
  172SAPS   HN219482   0.786   4.407   7.357 -1.6274 -0.9550  1.9578
  172SAPS   HN319483   0.877   4.548   7.397 -1.0250 -1.1804 -2.9025
  172SAPS   C1219484   0.778   4.450   7.560 -0.1447 -0.1674 -0.1892
  172SAPS  H12A19485   0.770   4.343   7.572 -0.7548 -0.0558  0.4811
  172SAPS   C1319486   0.855   4.507   7.680  0.4977 -0.2987  0.1360
  172SAPS  O13A19487   0.974   4.538   7.659 -0.3816  0.0494 -0.0082
  172SAPS  O13B19488   0.809   4.520   7.796  0.1041 -0.0860 -0.3188
  172SAPS   C1119489   0.639   4.510   7.552 -0.3136  0.2772 -0.4481
  172SAPS  H11A19490   0.642   4.621   7.545 -1.3118  0.3055 -0.5371
  172SAPS  H11B19491   0.593   4.480   7.648  2.8834  1.3280  1.5616
  172SAPS     P19492   0.435   4.532   7.384 -0.1534  0.1875 -0.4304
  172SAPS   O1319493   0.388   4.442   7.280  0.0875  0.3762 -0.1362
  172SAPS   O1419494   0.343   4.564   7.497 -0.3209  0.3056 -0.0228
  172SAPS   O1219495   0.562   4.455   7.443 -0.1480  0.5127 -0.1695
  172SAPS   O1119496   0.500   4.666   7.323  1.3937  0.3965  0.0613
  172SAPS    C119497   0.606   4.662   7.237  0.8793 -0.2564  0.1710
  172SAPS    HA19498   0.701   4.668   7.294  1.0430  2.6897 -0.2822
  172SAPS    HB19499   0.610   4.566   7.180  1.3052 -0.3461  0.3440
  172SAPS    C219500   0.605   4.774   7.142  0.3395  0.2859  1.1603
  172SAPS    HS19501   0.614   4.875   7.187 -3.1815  0.2310  2.2637
  172SAPS   O2119502   0.489   4.752   7.058  0.4835 -0.6149 -0.0160
  172SAPS   C2119503   0.381   4.833   7.086 -0.2233 -0.2970 -0.3461
  172SAPS   O2219504   0.383   4.916   7.175 -0.1594 -0.2247  0.0374
  172SAPS   C2219505   0.259   4.801   7.002 -0.4591 -0.5262  0.3801
  172SAPS   H2R19506   0.235   4.693   7.003 -0.6008 -0.5065 -0.3578
  172SAPS   H2S19507   0.169   4.852   7.044 -1.0202 -1.1171 -0.0907
  172SAPS    C319508   0.729   4.764   7.049  0.1755 -0.3614 -0.0290
  172SAPS    HX19509   0.735   4.656   7.024 -0.0145 -0.6729  1.2060
  172SAPS    HY19510   0.821   4.789   7.107 -0.6666 -1.3193  1.8054
  172SAPS   O3119511   0.707   4.839   6.929  0.0579 -0.5125  0.0664
  172SAPS   C3119512   0.723   4.965   6.950 -0.4677 -0.4978  1.0871
  172SAPS   O3219513   0.767   5.013   7.052 -0.0384  0.3809  0.0090
  172SAPS   C3219514   0.689   5.047   6.832  0.0553 -0.4262  0.3715
  172SAPS   H2X19515   0.769   5.123   6.818 -1.4382  0.7760 -2.3503
  172SAPS   H2Y19516   0.588   5.087   6.855 -0.4602 -1.8944  0.7835
  172SAPS   C2319517   0.271   4.850   6.851  0.4249 -0.3346  0.1403
  172SAPS   H3R19518   0.352   4.787   6.809 -0.5138 -1.6006  0.1530
  172SAPS   H3S19519   0.301   4.956   6.866  0.2600 -0.4873  1.7098
  172SAPS   C2419520   0.147   4.822   6.756 -0.9543  0.1048  0.3224
  172SAPS   H4R19521   0.114   4.719   6.784 -1.6656  0.5138  1.0144
  172SAPS   H4S19522   0.183   4.809   6.652 -0.3492  0.1666  0.5219
  172SAPS   C2519523   0.042   4.922   6.771  0.4885  0.1500  0.0051
  172SAPS   H5R19524   0.028   4.957   6.874 -1.3463  3.3627 -1.1962
  172SAPS   C2619525  -0.042   4.972   6.678  0.0193  0.9087  0.2742
  172SAPS   H6R19526  -0.116   5.042   6.721  1.4998  3.7650 -1.4544
  172SAPS   C2719527  -0.043   4.933   6.527  1.0315 -0.4969 -0.2415
  172SAPS   H7R19528  -0.152   4.912   6.520  0.8080 -0.1306  1.5822
  172SAPS   H7S19529   0.020   4.843   6.513  1.3421 -0.0954 -1.4719
  172SAPS   C2819530  -0.001   5.046   6.436 -0.3951  0.1141  0.5667
  172SAPS   H8R19531   0.002   5.148   6.478  3.7811 -0.0616  1.1501
  172SAPS   C2919532   0.030   5.038   6.306 -0.1502  0.4046  0.3223
  172SAPS   H9R19533   0.062   5.132   6.259  0.3870  0.0196 -0.0788
  172SAPS  C21019534   0.026   4.916   6.222  0.8746  0.2898  0.2530
  172SAPS  H10R19535  -0.076   4.894   6.183  1.6533  0.6941 -2.2077
  172SAPS  H10S19536   0.036   4.820   6.278 -2.1613 -0.7885 -0.8017
  172SAPS  C21119537   0.128   4.935   6.111 -0.7133 -0.0099 -0.0870
  172SAPS  H11R19538   0.232   4.938   6.145 -0.7026  1.5406 -0.1651
  172SAPS  C21219539   0.104   4.946   5.980 -0.6956 -0.6116  0.0240
  172SAPS  H12R19540   0.189   4.961   5.912 -0.4508 -0.9623  0.2498
  172SAPS  C21319541  -0.035   4.955   5.917  0.2497 -0.3091  0.2261
  172SAPS  H13R19542  -0.039   5.045   5.853 -0.1931 -1.6698 -1.7576
  172SAPS  H13S19543  -0.112   4.962   5.996  0.3523 -2.0669  0.5275
  172SAPS  C21419544  -0.077   4.833   5.839  0.0396  0.1418  0.0082
  172SAPS  H14R19545  -0.049   4.737   5.887 -1.5539 -0.8639 -0.9764
  172SAPS  C21519546  -0.157   4.826   5.730  0.2610 -0.1210 -0.6343
  172SAPS  H15R19547  -0.179   4.731   5.680  0.5614 -0.6197  0.1623
  172SAPS  C21619548  -0.195   4.945   5.643 -0.3557 -0.5501  1.0644
  172SAPS  H16R19549  -0.120   5.025   5.658 -1.1114  0.4434 -0.2296
  172SAPS  H16S19550  -0.300   4.980   5.646 -1.1389 -2.7135  0.7189
  172SAPS  C21719551  -0.189   4.916   5.490  0.1577  0.1576 -0.4485
  172SAPS  H17R19552  -0.204   5.012   5.436  0.1627 -0.5526 -1.7451
  172SAPS  H17S19553  -0.268   4.840   5.470  0.3801 -0.1471 -0.1635
  172SAPS  C21819554  -0.053   4.859   5.449 -0.3460 -0.2248 -0.2463
  172SAPS  H18R19555  -0.056   4.753   5.482 -1.0628  0.5074  2.2228
  172SAPS  H18S19556   0.038   4.906   5.492 -0.7518  0.1949  0.1665
  172SAPS  C21919557  -0.036   4.849   5.298  0.0774 -0.1795  0.0275
  172SAPS  H19R19558  -0.051   4.946   5.245  1.2048 -0.6736 -1.2321
  172SAPS  H19S19559  -0.123   4.790   5.263  1.1544 -0.8013 -1.7230
  172SAPS  C22019560   0.087   4.786   5.238  0.4309  0.8324 -0.3602
  172SAPS  H20R19561   0.057   4.759   5.134  0.4593  0.2111 -0.2092
  172SAPS  H20S19562   0.118   4.701   5.303 -1.9381  0.4794  0.4305
  172SAPS  H20T19563   0.164   4.864   5.220  0.2270  1.0563 -0.2784
  172SAPS   C3319564   0.686   4.973   6.693 -0.4160 -0.7607 -0.1768
  172SAPS   H3X19565   0.637   4.874   6.706 -0.0665 -0.8874  0.2167
  172SAPS   H3Y19566   0.792   4.963   6.658 -0.0471 -0.1298  0.7181
  172SAPS   C3419567   0.607   5.040   6.578  0.1672 -0.5977  0.0661
  172SAPS   H4X19568   0.632   4.997   6.479 -0.5653  0.5295 -0.6263
  172SAPS   H4Y19569   0.635   5.147   6.570  2.1157 -1.0969 -0.3707
  172SAPS   C3519570   0.455   5.023   6.609 -0.6198 -0.0440 -0.1331
  172SAPS   H5X19571   0.447   5.029   6.720 -2.2250  2.2390 -0.3155
  172SAPS   H5Y19572   0.422   4.922   6.579 -1.4991 -0.2205  1.3444
  172SAPS   C3619573   0.377   5.136   6.564  0.4161 -0.2511 -0.3525
  172SAPS   H6X19574   0.284   5.098   6.517  0.4932 -2.7492  1.2978
  172SAPS   H6Y19575   0.437   5.185   6.484  2.7440 -1.0510  0.8042
  172SAPS   C3719576   0.338   5.238   6.669  0.2666 -0.6519 -0.2594
  172SAPS   H7X19577   0.439   5.272   6.703  1.4930 -3.3923 -0.8754
  172SAPS   H7Y19578   0.277   5.193   6.750 -2.0715  0.9593 -1.0199
  172SAPS   C3819579   0.254   5.365   6.620  0.0439  0.3791 -0.3082
  172SAPS   H8X19580   0.192   5.400   6.705  1.0314  2.4931 -0.3989
  172SAPS   H8Y19581   0.174   5.337   6.548 -0.3439 -1.5274  0.7901
  172SAPS   C3919582   0.324   5.491   6.579  0.1542 -0.5499 -0.0371
  172SAPS   H9X19583   0.404   5.530   6.645  1.8835  1.1125 -2.9442
  172SAPS   H9Y19584   0.253   5.573   6.556 -1.4110 -1.2186  2.0962
  172SAPS  C31019585   0.402   5.480   6.443  0.0974  0.2858 -0.3801
  172SAPS  H10X19586   0.460   5.385   6.444  1.5292  1.1238  0.7219
  172SAPS  H10Y19587   0.466   5.569   6.422 -0.6276  1.0889  0.7404
  172SAPS  C31119588   0.299   5.463   6.329 -0.9668  0.2718  1.1337
  172SAPS  H11X19589   0.230   5.547   6.308 -1.3357 -0.0540  1.0227
  172SAPS  H11Y19590   0.230   5.378   6.350 -1.5800  0.4104 -0.2275
  172SAPS  C31219591   0.384   5.441   6.197 -0.0208 -0.1567  0.2798
  172SAPS  H12X19592   0.470   5.512   6.191  1.0688 -1.4648 -0.1461
  172SAPS  H12Y19593   0.322   5.460   6.107 -0.9818  0.0163  0.9690
  172SAPS  C31319594   0.433   5.299   6.179 -0.1664  0.0910  0.3164
  172SAPS  H13X19595   0.357   5.230   6.137 -0.0306  1.1653 -1.8235
  172SAPS  H13Y19596   0.474   5.244   6.267 -1.5181 -2.7430 -0.7159
  172SAPS  C31419597   0.528   5.290   6.063 -0.3835  0.1356  0.1581
  172SAPS  H14X19598   0.567   5.186   6.067  0.7541  0.5095 -0.7278
  172SAPS  H14Y19599   0.610   5.364   6.059 -0.8242  0.6087 -0.1433
  172SAPS  C31519600   0.466   5.292   5.925 -0.1049 -0.8773 -0.5621
  172SAPS  H15X19601   0.440   5.397   5.898 -1.2146 -0.8539  0.5103
  172SAPS  H15Y19602   0.370   5.237   5.936  0.1165 -0.8984  1.6904
  172SAPS  C31619603   0.543   5.216   5.813  0.1552  1.0495  0.3346
  172SAPS  H16X19604   0.640   5.268   5.797 -0.3423  2.1664  0.7976
  172SAPS  H16Y19605   0.564   5.114   5.850  1.6811  0.3245 -2.2366
  172SAPS  C31719606   0.461   5.190   5.686  0.4603  0.8475  0.0726
  172SAPS  H17X19607   0.438   5.290   5.643  0.6736  1.3902  1.1675
  172SAPS  H17Y19608   0.366   5.146   5.721  0.2515  1.8006  0.7452
  172SAPS  C31819609   0.532   5.108   5.581 -0.1575  0.4496 -0.3481
  172SAPS  H18X19610   0.466   5.086   5.495 -0.4435  0.7298 -0.2016
  172SAPS  H18Y19611   0.563   5.006   5.613 -0.7966  1.3363  3.6035
  172SAPS  H18Z19612   0.627   5.162   5.559  1.4165 -1.5441  1.1216
  173SAPS     N19613   0.623   2.171   3.140 -0.3996 -0.1077  0.0013
  173SAPS   HN119614   0.676   2.250   3.184  1.4634  0.4673 -3.0033
  173SAPS   HN219615   0.522   2.181   3.159 -0.2943  1.8845 -0.2725
  173SAPS   HN319616   0.662   2.080   3.172 -1.1458 -0.3155  0.3450
  173SAPS   C1219617   0.623   2.170   2.997 -0.0226  0.0412 -0.1684
  173SAPS  H12A19618   0.610   2.273   2.967  0.1448 -0.3000 -1.4473
  173SAPS   C1319619   0.759   2.135   2.932 -0.3677 -0.1755 -0.8438
  173SAPS  O13A19620   0.854   2.128   3.016 -0.5246  0.0420  0.2698
  173SAPS  O13B19621   0.782   2.155   2.812 -0.3713  0.1640  0.0118
  173SAPS   C1119622   0.510   2.074   2.941  0.0264 -0.4374  0.3169
  173SAPS  H11A19623   0.527   1.974   2.986 -1.1006 -0.0843  1.5743
  173SAPS  H11B19624   0.519   2.085   2.830  1.7765 -3.3918  0.0753
  173SAPS     P19625   0.250   2.063   2.931 -0.0288 -0.0562 -0.0063
  173SAPS   O1319626   0.205   2.147   2.818  1.0783 -0.2001  0.2453
  173SAPS   O1419627   0.272   1.920   2.906  0.3702  0.0737 -0.0545
  173SAPS   O1219628   0.390   2.124   2.986  0.7275  0.2989 -0.4403
  173SAPS   O1119629   0.143   2.081   3.046 -0.0771 -0.0120 -0.3545
  173SAPS    C119630   0.152   2.196   3.143  0.6099  0.2266  0.9732
  173SAPS    HA19631   0.255   2.237   3.140  1.4079 -1.6781  0.3730
  173SAPS    HB19632   0.083   2.279   3.116  1.1938  0.6425  0.7388
  173SAPS    C219633   0.132   2.143   3.287 -0.3129  0.0933  0.4319
  173SAPS    HS19634   0.169   2.230   3.346  1.9218  2.0314 -3.4500
  173SAPS   O2119635   0.207   2.018   3.316  0.3680 -0.1398  0.7339
  173SAPS   C2119636   0.334   2.027   3.314 -0.1742 -0.4337  0.1237
  173SAPS   O2219637   0.407   2.131   3.311 -0.8776  0.6483  0.1970
  173SAPS   C2219638   0.382   1.887   3.296  0.0189 -0.0401 -0.0987
  173SAPS   H2R19639   0.322   1.834   3.219  1.5481 -1.3130 -0.4692
  173SAPS   H2S19640   0.483   1.889   3.250  0.4715 -0.2501  0.8628
  173SAPS    C319641  -0.017   2.110   3.303  0.0896 -0.4206 -0.2930
  173SAPS    HX19642  -0.035   2.059   3.400  0.4121  0.0095 -0.0020
  173SAPS    HY19643  -0.056   2.047   3.220  0.1244 -2.4571  1.1633
  173SAPS   O3119644  -0.087   2.233   3.320  0.2759  0.0055 -0.2053
  173SAPS   C3119645  -0.214   2.227   3.360 -0.6998  0.8263 -0.1247
  173SAPS   O3219646  -0.275   2.120   3.372 -0.0636 -0.2372 -0.0813
  173SAPS   C3219647  -0.270   2.372   3.351 -0.5835  0.7000 -0.1053
  173SAPS   H2X19648  -0.304   2.391   3.247  0.6885 -3.0254 -1.3491
  173SAPS   H2Y19649  -0.188   2.443   3.374 -1.7463  2.0887 -0.0825
  173SAPS   C2319650   0.421   1.823   3.422 -0.0226 -0.0409 -0.4727
  173SAPS   H3R19651   0.465   1.724   3.400  0.1395  0.2798 -1.6268
  173SAPS   H3S19652   0.338   1.801   3.493 -0.3093  4.0228  0.7042
  173SAPS   C2419653   0.537   1.895   3.505 -0.2731 -0.5123  0.3874
  173SAPS   H4R19654   0.601   1.956   3.438 -1.3273  3.8258  2.9692
  173SAPS   H4S19655   0.591   1.811   3.554 -0.2477  0.6630  2.4841
  173SAPS   C2519656   0.483   1.993   3.602  0.0410  0.2264  0.5459
  173SAPS   H5R19657   0.424   2.077   3.562  1.7381  0.8037 -0.9002
  173SAPS   C2619658   0.501   1.982   3.731 -0.0646  0.5685 -0.3536
  173SAPS   H6R19659   0.469   2.061   3.799 -1.5035  0.3875 -0.7721
  173SAPS   C2719660   0.568   1.876   3.797  0.1382  0.6937 -0.0192
  173SAPS   H7R19661   0.669   1.863   3.751 -0.1580 -3.8999  0.1877
  173SAPS   H7S19662   0.508   1.784   3.786 -1.4404  1.6337  0.5175
  173SAPS   C2819663   0.575   1.886   3.946  0.8490  0.0581 -1.0818
  173SAPS   H8R19664   0.475   1.877   3.992  1.4082 -4.6198 -0.2437
  173SAPS   C2919665   0.675   1.912   4.028  0.0083 -0.0708 -0.0619
  173SAPS   H9R19666   0.647   1.916   4.134  1.2855  0.6481  0.2608
  173SAPS  C21019667   0.820   1.929   3.985 -0.3575  0.3463 -0.1879
  173SAPS  H10R19668   0.828   1.862   3.897 -0.4583  0.0420  0.0282
  173SAPS  H10S19669   0.882   1.887   4.068 -0.9774  0.2189  0.2215
  173SAPS  C21119670   0.851   2.073   3.954 -0.5396 -0.3256  0.5793
  173SAPS  H11R19671   0.774   2.124   3.894 -0.9420 -2.2457 -0.6280
  173SAPS  C21219672   0.966   2.144   3.984 -0.0561 -0.4396 -0.5056
  173SAPS  H12R19673   0.983   2.247   3.949  1.9708  0.4396  2.6607
  173SAPS  C21319674   1.097   2.083   4.040 -0.4991  0.4822 -0.2703
  173SAPS  H13R19675   1.080   1.974   4.050 -0.1025  0.4713  0.3642
  173SAPS  H13S19676   1.119   2.115   4.144  0.2401 -0.6931 -0.0437
  173SAPS  C21419677   1.216   2.101   3.947 -0.3710  0.1144 -0.7208
  173SAPS  H14R19678   1.185   2.119   3.843  0.6597  0.7215 -0.9331
  173SAPS  C21519679   1.347   2.093   3.985 -0.0114 -0.1033 -0.5407
  173SAPS  H15R19680   1.422   2.091   3.904  0.3248  4.6530 -0.6121
  173SAPS  C21619681   1.398   2.065   4.133 -0.2668  0.1990 -0.1626
  173SAPS  H16R19682   1.481   1.991   4.135 -1.1227 -0.7922 -0.6539
  173SAPS  H16S19683   1.325   2.025   4.206  0.6172 -3.2777 -0.9935
  173SAPS  C21719684   1.456   2.199   4.186  0.0506 -0.4505 -0.1173
  173SAPS  H17R19685   1.374   2.270   4.161  0.6884 -0.3059 -1.9322
  173SAPS  H17S19686   1.553   2.216   4.135  0.3724  1.0917  0.9697
  173SAPS  C21819687   1.459   2.195   4.346  0.9326  0.2983 -0.5225
  173SAPS  H18R19688   1.355   2.207   4.385  1.5185  0.2347  1.1387
  173SAPS  H18S19689   1.509   2.284   4.391 -3.2402  1.9977  1.3312
  173SAPS  C21919690   1.534   2.067   4.388  0.2804  0.0703 -0.1317
  173SAPS  H19R19691   1.625   2.059   4.325  0.6250 -0.2098  0.4016
  173SAPS  H19S19692   1.477   1.974   4.367 -0.0207  0.5508 -1.5619
  173SAPS  C22019693   1.583   2.074   4.531  0.5034 -0.2651 -0.3655
  173SAPS  H20R19694   1.509   2.106   4.607  1.1195 -1.2028  0.6636
  173SAPS  H20S19695   1.671   2.141   4.539  0.1916  0.5279 -2.9114
  173SAPS  H20T19696   1.623   1.974   4.559 -0.8305 -0.0800  2.5897
  173SAPS   C3319697  -0.384   2.387   3.454 -0.3880  0.0801 -0.7067
  173SAPS   H3X19698  -0.343   2.360   3.554 -0.5879  2.6031  0.1254
  173SAPS   H3Y19699  -0.465   2.316   3.429  0.6690 -2.8802  3.2154
  173SAPS   C3419700  -0.456   2.527   3.468 -0.4034  0.0919  0.6965
  173SAPS   H4X19701  -0.520   2.547   3.379 -1.0329  2.4743  1.6180
  173SAPS   H4Y19702  -0.389   2.615   3.458 -0.4970  0.1080  0.1745
  173SAPS   C3519703  -0.542   2.552   3.593  0.0588  0.5447 -0.2442
  173SAPS   H5X19704  -0.548   2.659   3.622  0.1102  1.0469 -2.0145
  173SAPS   H5Y19705  -0.484   2.503   3.675 -0.9161 -1.0466 -0.4645
  173SAPS   C3619706  -0.676   2.499   3.585  1.0467  0.3144 -0.0832
  173SAPS   H6X19707  -0.683   2.389   3.576 -1.2741  0.3429  0.7870
  173SAPS   H6Y19708  -0.709   2.525   3.482  1.0062  1.1438  0.1336
  173SAPS   C3719709  -0.769   2.544   3.699 -0.6156 -0.4054  0.2165
  173SAPS   H7X19710  -0.858   2.477   3.694 -1.4015  0.4785  1.4615
  173SAPS   H7Y19711  -0.793   2.653   3.701  1.8881  0.2116  2.5028
  173SAPS   C3819712  -0.714   2.508   3.842 -0.1002  0.5083  0.2433
  173SAPS   H8X19713  -0.621   2.566   3.859 -0.7279  1.1460  1.6103
  173SAPS   H8Y19714  -0.688   2.400   3.843 -1.6272  0.0889 -1.0305
  173SAPS   C3919715  -0.822   2.525   3.953 -0.0369  0.7921 -0.1596
  173SAPS   H9X19716  -0.912   2.469   3.918  2.1376 -1.3548 -2.8026
  173SAPS   H9Y19717  -0.852   2.632   3.951 -0.5503  0.6654 -2.7910
  173SAPS  C31019718  -0.760   2.476   4.086 -0.6472 -0.4647  1.0425
  173SAPS  H10X19719  -0.678   2.546   4.111 -0.8303  0.1896 -0.1004
  173SAPS  H10Y19720  -0.719   2.377   4.059  0.2509 -0.2280  1.5288
  173SAPS  C31119721  -0.854   2.454   4.202 -0.1655 -0.9577 -0.1172
  173SAPS  H11X19722  -0.942   2.389   4.183 -1.1140 -0.5024  2.3369
  173SAPS  H11Y19723  -0.901   2.553   4.223 -1.3341 -1.0929 -1.9205
  173SAPS  C31219724  -0.776   2.407   4.325  0.0018 -0.6393  0.4025
  173SAPS  H12X19725  -0.673   2.448   4.326 -0.3520  0.2695  0.8894
  173SAPS  H12Y19726  -0.753   2.299   4.315  0.6334 -0.5908  1.2294
  173SAPS  C31319727  -0.845   2.433   4.456 -0.5800  0.6141 -0.0668
  173SAPS  H13X19728  -0.921   2.354   4.469 -1.4146  1.3990 -0.0604
  173SAPS  H13Y19729  -0.898   2.530   4.447 -0.7083  0.6611  1.0829
  173SAPS  C31419730  -0.751   2.419   4.582 -0.1929  0.0137 -0.9596
  173SAPS  H14X19731  -0.804   2.454   4.673 -0.7315  0.6999 -1.5214
  173SAPS  H14Y19732  -0.663   2.485   4.568  2.1793 -2.9788 -1.0235
  173SAPS  C31519733  -0.680   2.287   4.598 -0.0200 -0.1937  0.1860
  173SAPS  H15X19734  -0.596   2.290   4.670 -1.3247 -0.6686  1.8106
  173SAPS  H15Y19735  -0.654   2.241   4.501 -0.9878 -2.0064  0.7360
  173SAPS  C31619736  -0.781   2.181   4.659 -0.7233  0.1000  0.1968
  173SAPS  H16X19737  -0.731   2.084   4.679  0.3754  0.6311  0.0838
  173SAPS  H16Y19738  -0.850   2.160   4.574 -1.5503 -1.1700  1.1383
  173SAPS  C31719739  -0.858   2.226   4.783 -0.2566 -0.9442 -0.0467
  173SAPS  H17X19740  -0.936   2.289   4.735  1.2083  1.3059  0.3768
  173SAPS  H17Y19741  -0.798   2.291   4.851 -1.3626  1.2769 -1.0967
  173SAPS  C31819742  -0.917   2.125   4.877 -0.7278  0.5620 -0.3689
  173SAPS  H18X19743  -0.966   2.172   4.965  0.9174  1.7469 -0.0437
  173SAPS  H18Y19744  -0.837   2.066   4.925  0.0107  0.8054 -1.2729
  173SAPS  H18Z19745  -0.988   2.056   4.827 -0.0335 -1.0085  0.7290
  174SAPS     N19746   0.992   5.808   2.361 -0.8620  0.2634  0.6947
  174SAPS   HN119747   0.966   5.877   2.435 -0.2523 -0.7346  1.8840
  174SAPS   HN219748   0.985   5.711   2.398 -1.6181 -0.6620 -1.6883
  174SAPS   HN319749   1.093   5.830   2.355 -1.1333  2.4344  2.5504
  174SAPS   C1219750   0.927   5.806   2.229 -0.8228  0.8537 -0.4759
  174SAPS  H12A19751   0.976   5.881   2.168  0.3221  0.8148  0.3697
  174SAPS   C1319752   0.932   5.667   2.161 -0.4219 -0.0390  0.2374
  174SAPS  O13A19753   0.997   5.573   2.214 -0.3707 -0.4890  0.3403
  174SAPS  O13B19754   0.895   5.662   2.040 -0.3560  1.1351 -0.1115
  174SAPS   C1119755   0.777   5.834   2.247 -0.2642 -0.3178 -0.7235
  174SAPS  H11A19756   0.736   5.753   2.310  1.5743 -0.1495  0.7438
  174SAPS  H11B19757   0.744   5.827   2.141 -0.8922 -1.2463 -0.4758
  174SAPS     P19758   0.635   6.001   2.373 -0.4690 -0.5285  0.0802
  174SAPS   O1319759   0.606   6.144   2.345 -0.0853  0.1258 -0.2809
  174SAPS   O1419760   0.527   5.902   2.345  0.0150 -0.5312  0.5939
  174SAPS   O1219761   0.764   5.963   2.300 -0.2044  0.1652  1.0429
  174SAPS   O1119762   0.684   5.983   2.526 -0.3534 -0.3658 -0.0891
  174SAPS    C119763   0.639   5.866   2.602  0.0612  0.0368  0.1703
  174SAPS    HA19764   0.634   5.773   2.542  0.4362  0.8073 -1.1064
  174SAPS    HB19765   0.701   5.860   2.694 -2.0372  1.1176  1.7368
  174SAPS    C219766   0.497   5.898   2.672 -0.3672 -0.1494  0.4895
  174SAPS    HS19767   0.431   5.956   2.604 -0.1097  0.7594  0.9990
  174SAPS   O2119768   0.519   5.972   2.790  0.2009 -0.4567  0.1429
  174SAPS   C2119769   0.413   6.034   2.846 -0.3887  0.3229  0.5482
  174SAPS   O2219770   0.296   6.035   2.807  0.1865 -0.0035 -0.5725
  174SAPS   C2219771   0.464   6.102   2.977 -0.1414 -0.6484 -0.2416
  174SAPS   H2R19772   0.463   6.029   3.061  1.9340 -0.1042  0.3281
  174SAPS   H2S19773   0.574   6.117   2.964 -0.0766  0.3430  1.2030
  174SAPS    C319774   0.422   5.770   2.709  0.1194  0.4742  0.1683
  174SAPS    HX19775   0.400   5.707   2.620  1.0474  0.0521  0.2201
  174SAPS    HY19776   0.322   5.798   2.749 -0.1301  1.9593 -1.3763
  174SAPS   O3119777   0.492   5.691   2.806 -0.1275  0.2336 -0.3625
  174SAPS   C3119778   0.572   5.586   2.773  0.8312 -0.6285 -0.1254
  174SAPS   O3219779   0.599   5.554   2.661  0.4548  0.3216  0.4131
  174SAPS   C3219780   0.610   5.501   2.900 -0.7770 -0.0793  0.1039
  174SAPS   H2X19781   0.710   5.456   2.877 -0.9153 -0.3822  0.0837
  174SAPS   H2Y19782   0.537   5.417   2.901  1.0909 -1.8931 -2.5354
  174SAPS   C2319783   0.376   6.223   3.018 -0.0107 -0.7361  0.7897
  174SAPS   H3R19784   0.269   6.193   3.027 -0.8030  1.1424 -1.5028
  174SAPS   H3S19785   0.370   6.294   2.933 -1.3754 -2.2906 -0.5089
  174SAPS   C2419786   0.425   6.297   3.148  0.0217  0.0893  0.0866
  174SAPS   H4R19787   0.527   6.338   3.131  0.4246 -1.2549 -0.9122
  174SAPS   H4S19788   0.430   6.226   3.233 -1.8195 -0.4591 -0.2299
  174SAPS   C2519789   0.339   6.421   3.175 -0.4144 -0.0702  0.4692
  174SAPS   H5R19790   0.261   6.448   3.103  0.3948 -0.6109 -0.6221
  174SAPS   C2619791   0.359   6.499   3.290  0.3461  0.3034 -0.0635
  174SAPS   H6R19792   0.299   6.591   3.300 -0.9530 -0.5157 -0.1016
  174SAPS   C2719793   0.469   6.481   3.391 -0.4729 -0.5508 -0.0481
  174SAPS   H7R19794   0.551   6.414   3.358  1.4451  1.9930 -0.8205
  174SAPS   H7S19795   0.427   6.430   3.480 -1.1225  0.2236  0.1092
  174SAPS   C2819796   0.535   6.613   3.426  0.1572 -0.6190 -0.0512
  174SAPS   H8R19797   0.528   6.690   3.348 -1.7862  0.0791  0.7460
  174SAPS   C2919798   0.591   6.649   3.542  0.1724  1.0223  0.9292
  174SAPS   H9R19799   0.651   6.740   3.554  0.2440  1.4916 -2.1270
  174SAPS  C21019800   0.597   6.547   3.655  1.0009 -0.1463  0.4612
  174SAPS  H10R19801   0.698   6.553   3.701  0.0146  0.5515  2.6740
  174SAPS  H10S19802   0.577   6.443   3.623 -0.7024  0.2297  0.2125
  174SAPS  C21119803   0.491   6.580   3.753 -0.0651  0.2323  0.1527
  174SAPS  H11R19804   0.392   6.587   3.705 -0.3627 -0.4977  0.6499
  174SAPS  C21219805   0.491   6.597   3.888 -0.5881 -0.2294 -0.3462
  174SAPS  H12R19806   0.386   6.615   3.917 -0.4887 -0.5571  0.2382
  174SAPS  C21319807   0.601   6.596   3.986  0.2235 -0.1928  0.1505
  174SAPS  H13R19808   0.698   6.577   3.936  0.1850 -1.8233  0.6528
  174SAPS  H13S19809   0.597   6.514   4.061  0.3023  0.1996  0.5926
  174SAPS  C21419810   0.599   6.726   4.065 -0.2251 -0.0345 -0.5791
  174SAPS  H14R19811   0.564   6.816   4.012 -1.5474  0.4440  1.0129
  174SAPS  C21519812   0.664   6.739   4.189  0.2728 -0.9231  0.0130
  174SAPS  H15R19813   0.655   6.836   4.239  0.3932  0.0223 -1.7137
  174SAPS  C21619814   0.744   6.646   4.270 -1.4245  0.2197  0.1553
  174SAPS  H16R19815   0.844   6.696   4.276 -2.0769  2.0036 -2.3058
  174SAPS  H16S19816   0.760   6.551   4.215 -4.9141  0.1286 -0.9111
  174SAPS  C21719817   0.678   6.596   4.400  0.1956 -0.0955 -0.2366
  174SAPS  H17R19818   0.743   6.521   4.450 -0.2398 -0.3719 -0.0786
  174SAPS  H17S19819   0.582   6.547   4.375 -0.2659 -0.1703  1.5686
  174SAPS  C21819820   0.621   6.709   4.493 -0.5339  0.5198 -0.1642
  174SAPS  H18R19821   0.544   6.772   4.443 -3.6356 -0.4227  3.0494
  174SAPS  H18S19822   0.706   6.776   4.519  0.7766 -0.7704 -1.0080
  174SAPS  C21919823   0.557   6.650   4.612  0.2134 -0.0921  0.0085
  174SAPS  H19R19824   0.641   6.627   4.682  0.2965 -0.5155 -0.2307
  174SAPS  H19S19825   0.509   6.554   4.584  1.6945  0.1397 -3.9684
  174SAPS  C22019826   0.470   6.751   4.685  0.3732  0.3239  0.3813
  174SAPS  H20R19827   0.382   6.706   4.735 -0.0655  0.0921 -0.5848
  174SAPS  H20S19828   0.426   6.825   4.614  1.5666  0.0427 -0.6866
  174SAPS  H20T19829   0.534   6.802   4.761  2.1295  1.4969 -1.7509
  174SAPS   C3319830   0.611   5.564   3.039 -0.0450  0.3937 -0.3777
  174SAPS   H3X19831   0.594   5.487   3.118 -1.4187  1.3287  0.2875
  174SAPS   H3Y19832   0.521   5.629   3.045  0.0221  0.4470  0.0940
  174SAPS   C3419833   0.735   5.631   3.096 -0.8346  0.3586 -0.1443
  174SAPS   H4X19834   0.708   5.674   3.195 -1.7750  2.5762 -1.2769
  174SAPS   H4Y19835   0.762   5.708   3.021 -1.8469 -0.9553 -1.9250
  174SAPS   C3519836   0.855   5.535   3.112  0.1459  0.2365 -0.1499
  174SAPS   H5X19837   0.873   5.469   3.025  1.1531  0.3682 -0.0499
  174SAPS   H5Y19838   0.827   5.464   3.193  1.1851 -0.0854 -0.0640
  174SAPS   C3619839   0.984   5.605   3.146 -0.0332  0.4873  0.5370
  174SAPS   H6X19840   1.019   5.659   3.056 -0.8703 -0.0857 -0.1556
  174SAPS   H6Y19841   1.064   5.536   3.180 -1.0665 -0.4465  1.1491
  174SAPS   C3719842   0.968   5.703   3.269 -0.1091 -0.1794  0.0622
  174SAPS   H7X19843   0.874   5.760   3.252  0.7005  0.3058 -3.8118
  174SAPS   H7Y19844   1.050   5.776   3.252 -0.2723 -0.0525 -0.1880
  174SAPS   C3819845   0.967   5.637   3.406 -0.0636  0.0887  0.2661
  174SAPS   H8X19846   1.054   5.569   3.400 -1.0454 -1.1610 -0.3720
  174SAPS   H8Y19847   0.875   5.575   3.401  0.2836 -0.5033  0.9884
  174SAPS   C3919848   0.965   5.744   3.519 -0.7593  0.5137  0.1909
  174SAPS   H9X19849   0.893   5.825   3.493 -2.7349 -0.2566  2.8300
  174SAPS   H9Y19850   1.055   5.809   3.517  0.3841 -1.0036  0.3654
  174SAPS  C31019851   0.931   5.680   3.648  0.2054 -0.2504  0.1642
  174SAPS  H10X19852   0.982   5.581   3.648 -4.8902 -3.3120 -2.2313
  174SAPS  H10Y19853   0.824   5.649   3.648 -0.2556  1.1690  1.9931
  174SAPS  C31119854   0.957   5.766   3.769  0.7581  0.0428  0.2101
  174SAPS  H11X19855   0.879   5.845   3.763  0.5624 -0.2403 -1.4598
  174SAPS  H11Y19856   1.061   5.807   3.769  0.4404  0.8782 -0.4525
  174SAPS  C31219857   0.945   5.699   3.911 -0.6192 -0.2254 -0.1323
  174SAPS  H12X19858   1.016   5.614   3.919  0.9407  1.1999  2.8797
  174SAPS  H12Y19859   0.840   5.669   3.932 -0.7665  1.6803  2.2779
  174SAPS  C31319860   0.992   5.787   4.029 -0.0699 -0.3650 -0.2965
  174SAPS  H13X19861   0.916   5.866   4.046  1.9084  1.7797 -0.8698
  174SAPS  H13Y19862   1.087   5.844   4.018 -0.6699  1.0049  1.1155
  174SAPS  C31419863   1.011   5.700   4.157 -0.1676 -0.1559 -0.5895
  174SAPS  H14X19864   1.111   5.652   4.152  0.8155  1.8708 -1.4189
  174SAPS  H14Y19865   0.930   5.626   4.175 -1.8602  1.9825  1.2303
  174SAPS  C31519866   0.999   5.784   4.287 -0.3157 -0.2205 -0.4535
  174SAPS  H15X19867   0.894   5.818   4.293  0.1793  1.1712  0.8844
  174SAPS  H15Y19868   1.066   5.872   4.283  0.8792 -1.0680 -0.0646
  174SAPS  C31619869   1.038   5.707   4.405 -0.0243 -0.5550 -0.3656
  174SAPS  H16X19870   1.134   5.651   4.395 -0.6841 -1.6840 -0.5151
  174SAPS  H16Y19871   0.967   5.625   4.431  0.5046 -0.4729  1.4432
  174SAPS  C31719872   1.045   5.812   4.520  0.6484 -0.0327 -0.1380
  174SAPS  H17X19873   0.936   5.829   4.535  0.8094  0.0699  0.9458
  174SAPS  H17Y19874   1.092   5.908   4.490  0.3458 -0.0103 -0.5597
  174SAPS  C31819875   1.095   5.763   4.653  0.6823  0.0759 -0.3932
  174SAPS  H18X19876   1.055   5.826   4.736 -0.8892 -0.2439 -0.8776
  174SAPS  H18Y19877   1.206   5.757   4.662  0.5878 -1.7126 -0.1739
  174SAPS  H18Z19878   1.064   5.657   4.660  0.3159  0.2514  0.8013
  175SAPS     N19879   3.969   6.068   2.689  0.3824  0.0677 -0.6183
  175SAPS   HN119880   4.065   6.055   2.650  0.8402  1.3676 -0.0038
  175SAPS   HN219881   3.920   6.105   2.605 -0.9756 -1.5316 -0.5678
  175SAPS   HN319882   3.974   6.153   2.750 -0.1367  0.0947 -0.6122
  175SAPS   C1219883   3.902   5.946   2.740 -0.2650  1.0452 -0.2596
  175SAPS  H12A19884   3.866   5.889   2.656 -1.3941  2.5284 -0.8256
  175SAPS   C1319885   4.010   5.854   2.815  0.8569  0.0838  0.2525
  175SAPS  O13A19886   4.126   5.891   2.827 -0.2776 -0.6278 -0.2218
  175SAPS  O13B19887   3.973   5.739   2.840 -0.1504  0.4150  0.7000
  175SAPS   C1119888   3.789   5.976   2.840  0.3314 -0.4897  0.2088
  175SAPS  H11A19889   3.837   6.047   2.911  0.9518 -0.0940 -0.5897
  175SAPS  H11B19890   3.756   5.890   2.903 -1.2456  1.2016  1.8350
  175SAPS     P19891   3.546   6.001   2.740 -0.3672  0.3750 -0.2349
  175SAPS   O1319892   3.469   6.098   2.662  0.2161 -0.4582 -0.2463
  175SAPS   O1419893   3.568   5.865   2.681 -0.1002 -0.6954 -0.0315
  175SAPS   O1219894   3.691   6.057   2.774 -0.3607 -0.1663 -0.0352
  175SAPS   O1119895   3.483   5.987   2.880 -0.2952  0.0132  0.4595
  175SAPS    C119896   3.463   6.109   2.956 -0.6266 -0.1954  0.4918
  175SAPS    HA19897   3.525   6.097   3.048  0.3419 -0.9796 -0.2378
  175SAPS    HB19898   3.504   6.198   2.905 -1.6591 -0.5753 -1.0381
  175SAPS    C219899   3.321   6.131   2.999  1.0082  0.1061  0.0723
  175SAPS    HS19900   3.316   6.218   3.067 -1.0735 -0.7385  1.0744
  175SAPS   O2119901   3.274   6.011   3.067  0.6301  0.0465 -0.8868
  175SAPS   C2119902   3.332   5.991   3.190  0.6102 -0.2611  0.4018
  175SAPS   O2219903   3.396   6.073   3.248 -0.1256  0.5808 -0.3231
  175SAPS   C2219904   3.313   5.845   3.235  0.1836 -0.8181 -0.6335
  175SAPS   H2R19905   3.213   5.814   3.200 -1.2745  1.6439  1.0386
  175SAPS   H2S19906   3.381   5.769   3.191  0.9947  0.2218 -1.2046
  175SAPS    C319907   3.232   6.150   2.876  0.2153  0.2160 -0.6880
  175SAPS    HX19908   3.227   6.059   2.813 -0.6928  0.4266 -0.9340
  175SAPS    HY19909   3.273   6.239   2.824 -0.0453  0.6030 -0.2518
  175SAPS   O3119910   3.099   6.195   2.922 -0.0676  0.5248 -0.3330
  175SAPS   C3119911   3.009   6.096   2.945  0.0990  0.6281  0.1270
  175SAPS   O3219912   3.018   5.982   2.906 -0.0778  0.3972  0.2353
  175SAPS   C3219913   2.885   6.150   3.015 -0.0690  0.1746  1.1025
  175SAPS   H2X19914   2.793   6.153   2.953 -1.4699 -0.4309  3.0358
  175SAPS   H2Y19915   2.910   6.251   3.055  0.8713  1.0026 -1.3908
  175SAPS   C2319916   3.314   5.822   3.385  0.0988  0.8780 -0.8711
  175SAPS   H3R19917   3.219   5.841   3.439  1.2561  1.4476  1.0856
  175SAPS   H3S19918   3.391   5.883   3.437  1.2959 -1.6772  0.5646
  175SAPS   C2419919   3.359   5.680   3.428 -0.2541  0.3795 -0.2180
  175SAPS   H4R19920   3.368   5.674   3.538 -0.9658 -2.2661 -0.2163
  175SAPS   H4S19921   3.461   5.663   3.387 -0.3637  0.3891 -0.4970
  175SAPS   C2519922   3.254   5.591   3.364  0.0408  0.2154 -0.0103
  175SAPS   H5R19923   3.273   5.545   3.265 -0.1609  1.0497 -0.4433
  175SAPS   C2619924   3.128   5.566   3.410  0.0837  0.2225 -0.2020
  175SAPS   H6R19925   3.058   5.517   3.340  1.0649 -1.2415 -0.2151
  175SAPS   C2719926   3.070   5.608   3.544 -0.6926  0.2447  0.4729
  175SAPS   H7R19927   3.051   5.717   3.544  1.0968  0.6255 -1.4889
  175SAPS   H7S19928   3.144   5.595   3.627 -0.2649 -0.4962 -0.0125
  175SAPS   C2819929   2.947   5.527   3.583 -0.0588  0.2411  0.1698
  175SAPS   H8R19930   2.918   5.450   3.509 -0.4970  2.1356 -1.7099
  175SAPS   C2919931   2.871   5.541   3.693  0.5279 -0.0697  0.1165
  175SAPS   H9R19932   2.787   5.475   3.719  0.8881 -0.4460  0.3312
  175SAPS  C21019933   2.911   5.638   3.798  0.9225  0.2753 -0.3196
  175SAPS  H10R19934   3.003   5.697   3.775  0.4214  2.4572  2.6093
  175SAPS  H10S19935   2.933   5.571   3.884 -1.7192 -1.0346 -0.5734
  175SAPS  C21119936   2.800   5.733   3.830 -0.8872  0.5823 -0.4940
  175SAPS  H11R19937   2.748   5.778   3.743 -1.5053  1.4201  0.2820
  175SAPS  C21219938   2.775   5.795   3.949  0.4385  0.4494  0.0410
  175SAPS  H12R19939   2.687   5.855   3.975 -0.0205  0.3123 -1.1401
  175SAPS  C21319940   2.854   5.760   4.067  0.2438  0.1286  0.0588
  175SAPS  H13R19941   2.958   5.738   4.036  0.2080  0.7177 -0.4794
  175SAPS  H13S19942   2.799   5.669   4.101 -1.0688  0.5590 -0.8644
  175SAPS  C21419943   2.848   5.873   4.171  0.0962 -0.0356 -0.0589
  175SAPS  H14R19944   2.942   5.929   4.178 -0.9307  2.0229 -1.7542
  175SAPS  C21519945   2.748   5.898   4.263  0.2340 -0.6081  0.7995
  175SAPS  H15R19946   2.759   5.989   4.325  2.0260 -0.9495  1.0235
  175SAPS  C21619947   2.609   5.836   4.271 -0.5518  0.0596  0.3186
  175SAPS  H16R19948   2.612   5.741   4.214 -2.5456  0.8872 -1.3231
  175SAPS  H16S19949   2.538   5.902   4.215 -2.7634 -2.1025  0.4022
  175SAPS  C21719950   2.548   5.797   4.409 -0.5634  0.3858  0.1185
  175SAPS  H17R19951   2.608   5.714   4.453 -1.5318 -1.4744 -1.8618
  175SAPS  H17S19952   2.445   5.758   4.392  0.2905 -0.9851 -2.4198
  175SAPS  C21819953   2.544   5.919   4.502 -0.4114 -0.1804  0.0667
  175SAPS  H18R19954   2.456   5.982   4.478  0.4165  1.0038  0.0216
  175SAPS  H18S19955   2.633   5.985   4.491 -0.5552  0.3125  1.6360
  175SAPS  C21919956   2.544   5.881   4.659  0.0107 -0.5138 -0.4139
  175SAPS  H19R19957   2.474   5.795   4.674  0.3530 -0.4256  2.2988
  175SAPS  H19S19958   2.500   5.961   4.723  0.2222 -1.3365  0.8036
  175SAPS  C22019959   2.674   5.842   4.726  0.5804 -0.0639  0.0129
  175SAPS  H20R19960   2.743   5.929   4.735  1.2874 -0.5545 -0.5075
  175SAPS  H20S19961   2.723   5.765   4.662  0.4530  1.3428 -1.8779
  175SAPS  H20T19962   2.657   5.798   4.826 -0.0615 -2.4437 -1.0637
  175SAPS   C3319963   2.843   6.056   3.132  0.2603 -0.4633  0.4025
  175SAPS   H3X19964   2.844   5.949   3.101 -1.1166  0.0808 -1.7445
  175SAPS   H3Y19965   2.740   6.083   3.163  0.2166 -1.7853  1.5017
  175SAPS   C3419966   2.929   6.064   3.256 -0.0051  0.1099 -0.5130
  175SAPS   H4X19967   3.028   6.017   3.242 -0.6197 -1.4203  0.1112
  175SAPS   H4Y19968   2.879   6.001   3.332 -0.0724  0.1770 -0.5008
  175SAPS   C3519969   2.950   6.203   3.316  0.1285 -0.2045  0.0369
  175SAPS   H5X19970   2.850   6.249   3.304 -0.1052 -1.1719 -2.1269
  175SAPS   H5Y19971   3.031   6.261   3.267  0.1741  0.8369  1.2694
  175SAPS   C3619972   2.989   6.193   3.463  0.1663 -0.2163 -0.3965
  175SAPS   H6X19973   2.900   6.147   3.510  0.4494 -2.6896 -2.0934
  175SAPS   H6Y19974   3.001   6.295   3.504 -2.4378 -0.3032  0.7730
  175SAPS   C3719975   3.109   6.106   3.497  0.3533  0.1047 -0.1147
  175SAPS   H7X19976   3.184   6.115   3.415 -1.3146  0.5222 -1.6606
  175SAPS   H7Y19977   3.069   6.003   3.489 -4.2389  1.6169  0.4248
  175SAPS   C3819978   3.195   6.132   3.625 -0.2867  0.3465  0.2757
  175SAPS   H8X19979   3.233   6.236   3.618  2.8395 -0.7507 -0.6742
  175SAPS   H8Y19980   3.285   6.067   3.617  1.3737  2.5894 -0.2282
  175SAPS   C3919981   3.112   6.108   3.751 -0.1512  0.2031  0.1351
  175SAPS   H9X19982   3.070   6.005   3.747  0.4438 -0.0100 -1.0473
  175SAPS   H9Y19983   3.028   6.180   3.759  1.3320  2.2092 -1.4403
  175SAPS  C31019984   3.203   6.117   3.875 -0.0540  0.5448 -0.4730
  175SAPS  H10X19985   3.252   6.216   3.885  0.1598  0.2817  1.6213
  175SAPS  H10Y19986   3.278   6.035   3.878 -0.2364  0.4077  1.0291
  175SAPS  C31119987   3.112   6.102   4.000  0.4594 -0.3756 -0.1640
  175SAPS  H11X19988   3.047   6.013   3.991 -0.1677 -0.1782  1.9237
  175SAPS  H11Y19989   3.045   6.191   4.008  0.5831 -0.4253  1.6656
  175SAPS  C31219990   3.184   6.070   4.135  0.4552 -0.7241  0.3399
  175SAPS  H12X19991   3.218   5.965   4.123  2.2858 -0.2655  1.1273
  175SAPS  H12Y19992   3.108   6.091   4.214  2.3061  3.0738  1.3872
  175SAPS  C31319993   3.303   6.159   4.169 -0.3610  0.0012 -0.2345
  175SAPS  H13X19994   3.258   6.256   4.200  0.9449  0.3846  0.5677
  175SAPS  H13Y19995   3.381   6.170   4.091  0.8944 -1.6440  0.7293
  175SAPS  C31419996   3.381   6.117   4.298 -0.0471  0.3058 -0.0856
  175SAPS  H14X19997   3.435   6.204   4.341 -0.6676  0.6796 -0.0357
  175SAPS  H14Y19998   3.453   6.037   4.272  0.5866  0.7807  0.2018
  175SAPS  C31519999   3.295   6.055   4.410 -0.2643  0.3141 -0.0490
  175SAPS  H15X20000   3.370   6.025   4.487  1.7861  0.7843 -1.7738
  175SAPS  H15Y20001   3.245   5.968   4.363  0.3234 -0.5220  0.8370
  175SAPS  C31620002   3.198   6.157   4.476 -0.3495 -0.0445 -0.1988
  175SAPS  H16X20003   3.125   6.189   4.399 -0.3417 -1.1674 -0.6821
  175SAPS  H16Y20004   3.262   6.243   4.505 -0.8686  0.5194 -0.6873
  175SAPS  C31720005   3.121   6.089   4.591 -0.8044 -0.5734  0.0052
  175SAPS  H17X20006   3.185   6.020   4.650 -0.1853  2.6870  3.4879
  175SAPS  H17Y20007   3.047   6.020   4.545  0.0632 -1.1492 -0.5602
  175SAPS  C31820008   3.047   6.190   4.682 -0.2838  0.4863 -0.3277
  175SAPS  H18X20009   2.973   6.138   4.745  2.0979 -2.7556  0.0430
  175SAPS  H18Y20010   2.994   6.270   4.625 -0.6303  1.8907  1.8530
  175SAPS  H18Z20011   3.130   6.242   4.735  0.0879  0.1601 -0.5798
  176SAPS     N20012   3.535   4.063   2.284 -0.1593 -0.1984  0.2369
  176SAPS   HN120013   3.614   4.032   2.345  0.8393 -0.3450 -1.0916
  176SAPS   HN220014   3.485   3.984   2.238 -0.5807  0.2118 -0.0150
  176SAPS   HN320015   3.587   4.114   2.209 -0.1120 -0.6612 -0.0515
  176SAPS   C1220016   3.437   4.156   2.357  0.0997  0.0909  0.5029
  176SAPS  H12A20017   3.488   4.183   2.448  2.4464 -1.9199 -0.1071
  176SAPS   C1320018   3.387   4.274   2.280  0.0306 -0.3731 -0.0084
  176SAPS  O13A20019   3.446   4.318   2.179 -0.1459 -0.3937 -0.1478
  176SAPS  O13B20020   3.293   4.344   2.336 -0.2458  0.4000 -0.3750
  176SAPS   C1120021   3.319   4.064   2.397  0.7206 -0.2219 -0.3481
  176SAPS  H11A20022   3.278   4.021   2.303  1.4934 -0.0511 -0.7751
  176SAPS  H11B20023   3.243   4.122   2.454  0.0526 -1.9777  0.6152
  176SAPS     P20024   3.268   3.834   2.527  0.2391 -0.1651  0.2249
  176SAPS   O1320025   3.143   3.839   2.447  1.1452  0.0928  0.5189
  176SAPS   O1420026   3.356   3.719   2.519  0.1049  0.1204  0.8481
  176SAPS   O1220027   3.356   3.953   2.479  0.4602  0.0514  0.2676
  176SAPS   O1120028   3.244   3.868   2.681 -0.0140 -0.3625  0.1684
  176SAPS    C120029   3.342   3.931   2.763 -0.1235  0.1805 -0.4352
  176SAPS    HA20030   3.436   3.871   2.760 -1.4476 -1.9858 -1.5216
  176SAPS    HB20031   3.370   4.029   2.718 -1.7994  0.3160 -1.2554
  176SAPS    C220032   3.285   3.960   2.908  0.5892 -0.6385  0.1725
  176SAPS    HS20033   3.364   3.999   2.976 -0.2501  0.5680  0.4956
  176SAPS   O2120034   3.222   3.839   2.957 -0.2704 -0.2712 -0.1355
  176SAPS   C2120035   3.286   3.791   3.064 -0.2116  0.2370 -0.1093
  176SAPS   O2220036   3.378   3.835   3.124 -0.6710  0.2140  0.9245
  176SAPS   C2220037   3.210   3.660   3.109 -0.1683 -0.1440 -0.4729
  176SAPS   H2R20038   3.107   3.700   3.120  0.0972  0.7992 -1.1877
  176SAPS   H2S20039   3.220   3.589   3.024 -0.2999 -1.1288  0.3326
  176SAPS    C320040   3.172   4.077   2.905 -0.0461 -0.0688 -1.0828
  176SAPS    HX20041   3.085   4.035   2.851 -0.9886 -1.6647  1.4866
  176SAPS    HY20042   3.202   4.159   2.836  2.6855  1.4010  1.6409
  176SAPS   O3120043   3.131   4.130   3.032  0.0756 -0.1629 -0.4735
  176SAPS   C3120044   3.222   4.211   3.094  0.5589 -1.0550  0.4334
  176SAPS   O3220045   3.334   4.241   3.051  0.0329  0.2835 -0.2859
  176SAPS   C3220046   3.155   4.263   3.224 -0.1970  0.7968 -0.6718
  176SAPS   H2X20047   3.063   4.315   3.189 -1.7043 -1.4822 -0.2840
  176SAPS   H2Y20048   3.224   4.328   3.282  3.0180 -2.2256 -0.7675
  176SAPS   C2320049   3.261   3.589   3.229 -0.2538  0.3674 -0.3559
  176SAPS   H3R20050   3.267   3.647   3.324  0.7338 -0.2067 -0.0495
  176SAPS   H3S20051   3.364   3.553   3.206 -0.4717 -1.3248  1.1136
  176SAPS   C2420052   3.183   3.464   3.252  0.4411 -0.7093  1.2182
  176SAPS   H4R20053   3.258   3.394   3.297 -1.3164 -1.7558  2.6444
  176SAPS   H4S20054   3.150   3.433   3.151  1.3918  2.0144 -0.0226
  176SAPS   C2520055   3.052   3.484   3.334 -0.4590  0.2059 -0.4953
  176SAPS   H5R20056   2.965   3.453   3.274  0.8745 -0.2480 -2.3034
  176SAPS   C2620057   3.029   3.518   3.467 -0.2149 -0.0216  0.1688
  176SAPS   H6R20058   2.926   3.503   3.500 -1.6428  1.8252 -2.9862
  176SAPS   C2720059   3.138   3.545   3.557 -0.2600  0.6119  0.2469
  176SAPS   H7R20060   3.234   3.548   3.501  0.1206  0.3355  0.8813
  176SAPS   H7S20061   3.138   3.467   3.635 -1.9050  1.2290  0.9073
  176SAPS   C2820062   3.114   3.681   3.625  0.2281  0.2934  0.5202
  176SAPS   H8R20063   3.103   3.768   3.558  0.9632 -0.6322 -0.8506
  176SAPS   C2920064   3.087   3.700   3.756  0.5109  0.1951  0.0979
  176SAPS   H9R20065   3.056   3.801   3.786 -2.0877 -0.4694 -0.0663
  176SAPS  C21020066   3.073   3.590   3.853  0.3431  0.7218 -0.4500
  176SAPS  H10R20067   3.169   3.536   3.865 -0.5861 -0.7068  1.1630
  176SAPS  H10S20068   3.004   3.511   3.814 -0.4257  0.5743  1.0921
  176SAPS  C21120069   3.023   3.639   3.986  0.0325  0.1036  0.5876
  176SAPS  H11R20070   2.958   3.727   3.991 -2.5928 -1.7983  2.2763
  176SAPS  C21220071   3.041   3.580   4.106 -0.1406 -0.6374 -0.2379
  176SAPS  H12R20072   2.992   3.628   4.192  0.5237 -2.9311  1.5263
  176SAPS  C21320073   3.126   3.460   4.141 -0.1494 -0.5773 -0.2181
  176SAPS  H13R20074   3.196   3.453   4.055 -1.8010  2.7036 -2.0160
  176SAPS  H13S20075   3.061   3.370   4.142 -0.3278 -0.4647  1.7661
  176SAPS  C21420076   3.187   3.464   4.274  0.3030 -0.1596 -0.3615
  176SAPS  H14R20077   3.248   3.554   4.296  0.5400 -0.2458 -0.6507
  176SAPS  C21520078   3.179   3.375   4.386  0.0219 -0.7696 -0.6383
  176SAPS  H15R20079   3.226   3.396   4.484 -0.8012 -1.8632  0.0182
  176SAPS  C21620080   3.096   3.250   4.377  0.2666 -0.0534 -1.0171
  176SAPS  H16R20081   3.156   3.169   4.330  2.4451  0.4920  0.6394
  176SAPS  H16S20082   3.004   3.269   4.318 -0.8774  2.7616  1.4291
  176SAPS  C21720083   3.046   3.197   4.513  0.3048 -0.2396  0.4469
  176SAPS  H17R20084   3.132   3.196   4.583  0.9027 -1.6783 -0.2870
  176SAPS  H17S20085   3.006   3.094   4.517  2.1474 -1.0302 -0.4736
  176SAPS  C21820086   2.937   3.291   4.576  0.0310  0.3470 -0.0365
  176SAPS  H18R20087   2.845   3.286   4.516 -0.6095 -0.3889  0.9689
  176SAPS  H18S20088   2.983   3.391   4.591  0.9025 -0.3023  2.1094
  176SAPS  C21920089   2.905   3.236   4.712 -0.0318  0.9750  0.1340
  176SAPS  H19R20090   2.995   3.238   4.777 -0.8861 -0.0534  1.3904
  176SAPS  H19S20091   2.873   3.131   4.698 -1.5962  1.5274 -0.8414
  176SAPS  C22020092   2.788   3.305   4.777  0.1269 -0.2960  0.1337
  176SAPS  H20R20093   2.741   3.237   4.852 -2.6501  0.7396 -0.5432
  176SAPS  H20S20094   2.711   3.339   4.705 -0.8594 -2.9849 -0.2370
  176SAPS  H20T20095   2.829   3.393   4.830 -1.6822  0.5465  0.2086
  176SAPS   C3320096   3.104   4.155   3.333 -0.2377  0.6454 -0.1428
  176SAPS   H3X20097   3.187   4.082   3.344 -2.1156 -1.3661  1.5063
  176SAPS   H3Y20098   3.025   4.091   3.287 -0.7294  0.6321  0.6964
  176SAPS   C3420099   3.054   4.215   3.464 -0.5200 -0.5200 -0.1123
  176SAPS   H4X20100   2.971   4.287   3.449 -0.2209  0.7755  3.5266
  176SAPS   H4Y20101   3.140   4.269   3.509  0.8346 -3.3550  0.9885
  176SAPS   C3520102   3.018   4.118   3.568  0.2786  0.8582  0.1389
  176SAPS   H5X20103   3.103   4.048   3.583  0.6416  1.5810  1.5820
  176SAPS   H5Y20104   2.929   4.058   3.539  0.7247 -0.6684  1.7348
  176SAPS   C3620105   2.988   4.179   3.707 -0.2633  0.2668 -0.7838
  176SAPS   H6X20106   2.893   4.236   3.709 -0.5266 -0.1697  0.8976
  176SAPS   H6Y20107   3.067   4.254   3.728  0.8532 -1.1680  0.4316
  176SAPS   C3720108   2.983   4.064   3.809  0.3584  0.1686  0.4373
  176SAPS   H7X20109   3.082   4.013   3.813  0.5946  0.5264 -0.5066
  176SAPS   H7Y20110   2.900   3.996   3.781  1.4097 -1.3024  0.7634
  176SAPS   C3820111   2.952   4.107   3.947 -0.0842  0.3784 -0.7561
  176SAPS   H8X20112   2.851   4.152   3.949  0.0690  0.6962  0.5016
  176SAPS   H8Y20113   3.018   4.188   3.985  0.6366 -0.3219 -0.4976
  176SAPS   C3920114   2.957   3.987   4.047  0.3950 -0.1929 -0.5254
  176SAPS   H9X20115   3.057   3.940   4.035  0.5797 -0.0476  0.4350
  176SAPS   H9Y20116   2.873   3.919   4.022  1.2779 -1.2813 -0.6118
  176SAPS  C31020117   2.935   4.027   4.197  0.1453 -0.3678 -0.0021
  176SAPS  H10X20118   2.834   4.071   4.182  0.9647  1.2622 -1.0451
  176SAPS  H10Y20119   3.005   4.111   4.213 -0.2377 -0.0265 -0.0939
  176SAPS  C31120120   2.946   3.928   4.306 -0.0721  0.1772  0.5422
  176SAPS  H11X20121   3.043   3.878   4.285  1.1466  2.6665 -0.2421
  176SAPS  H11Y20122   2.871   3.847   4.297 -0.8029  0.8255  0.6431
  176SAPS  C31220123   2.963   3.992   4.451 -0.2409  0.3482  0.4445
  176SAPS  H12X20124   2.874   4.056   4.468  0.1258  0.6496  1.3043
  176SAPS  H12Y20125   3.041   4.071   4.457 -0.5824  0.7658 -0.4171
  176SAPS  C31320126   2.974   3.898   4.564  0.3690 -0.2413 -0.0556
  176SAPS  H13X20127   2.876   3.855   4.593 -0.9149  0.4020 -3.1235
  176SAPS  H13Y20128   2.995   3.962   4.652 -1.5087 -0.1568  0.3724
  176SAPS  C31420129   3.061   3.778   4.552 -0.1047  0.0558  0.3656
  176SAPS  H14X20130   3.159   3.826   4.536 -0.6565  0.6889 -1.4722
  176SAPS  H14Y20131   3.032   3.722   4.460  2.3496 -0.3491 -0.2098
  176SAPS  C31520132   3.072   3.696   4.681 -0.1280  1.0600  0.5170
  176SAPS  H15X20133   2.990   3.620   4.685  0.4347  0.4726  0.9343
  176SAPS  H15Y20134   3.058   3.749   4.777 -2.5285 -0.8595  1.3258
  176SAPS  C31620135   3.205   3.616   4.689 -0.0982  0.7119 -0.0773
  176SAPS  H16X20136   3.288   3.676   4.645  0.4408  0.0847  0.0599
  176SAPS  H16Y20137   3.202   3.525   4.625  0.7700 -0.9817  2.1268
  176SAPS  C31720138   3.247   3.568   4.834 -0.3403  0.0170  0.3416
  176SAPS  H17X20139   3.264   3.657   4.899  0.6920 -1.4242  2.1293
  176SAPS  H17Y20140   3.345   3.516   4.822 -0.5852 -0.0015 -2.1921
  176SAPS  C31820141   3.145   3.475   4.900  0.2729 -0.0881  0.3169
  176SAPS  H18X20142   3.051   3.534   4.907  0.1331 -0.4523  2.1837
  176SAPS  H18Y20143   3.190   3.454   5.000 -0.5524 -0.8854  0.5381
  176SAPS  H18Z20144   3.128   3.385   4.837  1.0771 -1.3535  1.8197
  177SAPS     N20145   0.916   0.626   2.150 -0.1580  0.2684 -0.2567
  177SAPS   HN120146   1.016   0.599   2.163 -0.0618  0.2239 -1.0202
  177SAPS   HN220147   0.900   0.679   2.062 -0.3501  0.3112 -0.1954
  177SAPS   HN320148   0.910   0.691   2.231  1.9270 -0.6500  0.7277
  177SAPS   C1220149   0.825   0.517   2.160  0.5600 -0.3595  0.4588
  177SAPS  H12A20150   0.840   0.468   2.256  0.6416 -2.8908 -0.7720
  177SAPS   C1320151   0.669   0.561   2.147 -0.6150  0.4315  0.0332
  177SAPS  O13A20152   0.638   0.674   2.187 -0.4492  0.5947 -0.0170
  177SAPS  O13B20153   0.583   0.466   2.162  0.5374  0.0608  0.1984
  177SAPS   C1120154   0.855   0.400   2.060 -0.1104 -0.8118  0.5431
  177SAPS  H11A20155   0.892   0.429   1.959 -3.1511 -3.5328 -1.5835
  177SAPS  H11B20156   0.757   0.357   2.029 -0.1388  0.0490 -0.6082
  177SAPS     P20157   1.095   0.315   2.117 -0.0961 -0.2014  0.2237
  177SAPS   O1320158   1.159   0.178   2.113  0.4147  0.2884  0.5988
  177SAPS   O1420159   1.137   0.412   2.009  0.8567 -0.2212 -0.2666
  177SAPS   O1220160   0.938   0.301   2.116 -0.4916  1.2034  0.1621
  177SAPS   O1120161   1.111   0.381   2.257 -0.1060  0.1813 -0.3268
  177SAPS    C120162   1.087   0.310   2.381  0.3185  0.8250  0.0926
  177SAPS    HA20163   0.998   0.246   2.366  0.4418  0.6684  0.0167
  177SAPS    HB20164   1.178   0.251   2.405 -0.5437 -0.6303 -0.1238
  177SAPS    C220165   1.049   0.400   2.503  0.0370  0.0968  0.6569
  177SAPS    HS20166   0.949   0.444   2.481  0.7314  2.1465  1.3408
  177SAPS   O2120167   1.150   0.503   2.511 -0.4017  0.8485 -0.1862
  177SAPS   C2120168   1.126   0.624   2.558  0.2542 -0.5356 -0.2609
  177SAPS   O2220169   1.019   0.670   2.577  0.2004  0.1275 -0.3811
  177SAPS   C2220170   1.255   0.684   2.592 -0.1400 -0.1016  0.0473
  177SAPS   H2R20171   1.323   0.615   2.645  0.0952 -1.5794 -2.0310
  177SAPS   H2S20172   1.302   0.714   2.495 -0.2864  2.7983  0.7736
  177SAPS    C320173   1.054   0.322   2.636  0.3131  0.4524  0.2789
  177SAPS    HX20174   1.159   0.292   2.658  0.4426  0.4614 -0.2936
  177SAPS    HY20175   0.986   0.237   2.616 -2.0417  2.1095  0.8295
  177SAPS   O3120176   0.994   0.394   2.750  0.3677 -0.4940 -0.0150
  177SAPS   C3120177   0.968   0.319   2.858  0.0679 -0.4220  0.7926
  177SAPS   O3220178   0.980   0.197   2.858  0.0386  0.6834  0.2453
  177SAPS   C3220179   0.916   0.407   2.966 -0.3608  0.0838 -0.0489
  177SAPS   H2X20180   0.807   0.389   2.978 -0.3452  0.0792  0.0791
  177SAPS   H2Y20181   0.922   0.512   2.930  0.0617  0.1732  0.2809
  177SAPS   C2320182   1.252   0.808   2.688  0.7105 -0.0303 -0.3890
  177SAPS   H3R20183   1.217   0.771   2.786 -0.0115  1.1274 -0.1953
  177SAPS   H3S20184   1.194   0.884   2.631  1.6072 -0.0955 -1.4261
  177SAPS   C2420185   1.396   0.872   2.714  0.8885 -0.2392 -0.4145
  177SAPS   H4R20186   1.386   0.955   2.787  1.3475  0.2164 -0.8648
  177SAPS   H4S20187   1.442   0.919   2.626  1.3621  2.8812  1.3622
  177SAPS   C2520188   1.508   0.772   2.758 -1.1384  0.1009  0.3918
  177SAPS   H5R20189   1.569   0.742   2.672 -1.8130  0.8751 -0.3854
  177SAPS   C2620190   1.545   0.724   2.880 -0.5422  0.0141  0.7834
  177SAPS   H6R20191   1.630   0.654   2.881 -1.7587 -1.5143  1.5354
  177SAPS   C2720192   1.478   0.762   3.009  0.8402 -0.9653 -0.1337
  177SAPS   H7R20193   1.454   0.668   3.064 -1.2281 -0.4829 -0.1403
  177SAPS   H7S20194   1.377   0.807   2.999  0.8204 -1.0929 -0.5578
  177SAPS   C2820195   1.567   0.849   3.092 -0.7747 -0.1231 -0.2233
  177SAPS   H8R20196   1.604   0.944   3.051  0.0529  0.8569  2.5520
  177SAPS   C2920197   1.588   0.818   3.222  0.0399 -0.6495  0.1553
  177SAPS   H9R20198   1.663   0.879   3.275 -1.0260  1.2383 -0.4431
  177SAPS  C21020199   1.549   0.703   3.309 -0.4312 -0.2897  0.5556
  177SAPS  H10R20200   1.531   0.609   3.252  0.0736 -0.9159  1.3992
  177SAPS  H10S20201   1.448   0.734   3.345 -0.3398  1.9362 -0.9606
  177SAPS  C21120202   1.644   0.682   3.423  0.3131  0.1323 -0.5446
  177SAPS  H11R20203   1.750   0.691   3.395  0.3425  1.4074 -0.0578
  177SAPS  C21220204   1.617   0.665   3.554 -0.3934 -0.1030 -0.3967
  177SAPS  H12R20205   1.701   0.650   3.623 -1.3680 -0.6642  0.7187
  177SAPS  C21320206   1.491   0.672   3.633  0.3967 -0.1117 -0.0995
  177SAPS  H13R20207   1.479   0.578   3.691 -5.0704  0.6228  0.4812
  177SAPS  H13S20208   1.402   0.662   3.568 -0.4324 -2.5464  1.2942
  177SAPS  C21420209   1.477   0.792   3.729  0.0856 -0.2353  0.0024
  177SAPS  H14R20210   1.530   0.885   3.705  2.2732 -1.6270 -0.8684
  177SAPS  C21520211   1.407   0.791   3.843 -0.1861  0.6839 -0.0639
  177SAPS  H15R20212   1.381   0.885   3.895  1.8158  0.7023  0.9959
  177SAPS  C21620213   1.321   0.681   3.900  0.0116 -0.4643  0.6460
  177SAPS  H16R20214   1.311   0.586   3.844  1.4281  0.1374 -0.6701
  177SAPS  H16S20215   1.220   0.719   3.928  0.5299  1.2614  0.2682
  177SAPS  C21720216   1.384   0.633   4.030 -0.5137  0.4516  0.5801
  177SAPS  H17R20217   1.391   0.731   4.083  0.4038  1.4978 -1.3808
  177SAPS  H17S20218   1.476   0.573   4.016  0.3029  1.2145  2.3091
  177SAPS  C21820219   1.288   0.553   4.119  0.0037  0.5452  0.9221
  177SAPS  H18R20220   1.289   0.458   4.061  1.6500  1.1096 -0.0741
  177SAPS  H18S20221   1.185   0.593   4.107  0.3525  0.7728 -2.4256
  177SAPS  C21920222   1.329   0.533   4.270  0.3800 -0.8351  0.1748
  177SAPS  H19R20223   1.424   0.475   4.268  1.0114  0.1479 -1.7763
  177SAPS  H19S20224   1.252   0.477   4.326 -0.8087  1.3037  0.7973
  177SAPS  C22020225   1.333   0.661   4.350  0.3347  0.2687  0.1530
  177SAPS  H20R20226   1.233   0.704   4.330  1.0016  1.0338 -1.7357
  177SAPS  H20S20227   1.406   0.730   4.303  1.2707  1.1667  2.7653
  177SAPS  H20T20228   1.365   0.650   4.456  0.0329 -2.1648  0.0524
  177SAPS   C3320229   0.991   0.385   3.104 -0.1042  0.6423 -0.0410
  177SAPS   H3X20230   0.950   0.296   3.157  0.9197  0.8703  1.1638
  177SAPS   H3Y20231   0.962   0.473   3.164 -2.0993 -1.4354  2.2992
  177SAPS   C3420232   1.140   0.372   3.089 -0.0792 -0.3267  1.0713
  177SAPS   H4X20233   1.170   0.468   3.042 -2.7413  0.7892  1.4755
  177SAPS   H4Y20234   1.179   0.290   3.024 -0.9649  0.0107  0.0913
  177SAPS   C3520235   1.211   0.354   3.226 -0.1308 -0.2111  0.4054
  177SAPS   H5X20236   1.176   0.420   3.309  0.9248  0.5114  0.2974
  177SAPS   H5Y20237   1.318   0.367   3.201 -0.5084  0.5802 -0.8814
  177SAPS   C3620238   1.191   0.213   3.296  0.1373  0.1530  0.1566
  177SAPS   H6X20239   1.190   0.141   3.211  0.7974 -0.9979  1.1047
  177SAPS   H6Y20240   1.086   0.194   3.324  0.4489 -1.5714  0.2408
  177SAPS   C3720241   1.308   0.174   3.387  0.6764 -0.7775  0.0868
  177SAPS   H7X20242   1.399   0.185   3.324  0.4227 -0.9852 -0.3179
  177SAPS   H7Y20243   1.293   0.066   3.409 -0.2773 -0.3257  1.7874
  177SAPS   C3820244   1.331   0.268   3.507  0.2690  0.0652  0.2598
  177SAPS   H8X20245   1.234   0.280   3.561  1.0184  2.6848  1.2089
  177SAPS   H8Y20246   1.376   0.367   3.483 -2.1884  1.9642  2.7591
  177SAPS   C3920247   1.425   0.204   3.608  0.6456 -0.0521 -0.2749
  177SAPS   H9X20248   1.525   0.182   3.563  0.2637  1.9076 -2.2521
  177SAPS   H9Y20249   1.376   0.110   3.640 -1.7269  0.0191 -3.3018
  177SAPS  C31020250   1.454   0.277   3.738 -0.1444  0.1731 -0.1265
  177SAPS  H10X20251   1.359   0.324   3.771  1.0481  0.7691  2.7020
  177SAPS  H10Y20252   1.524   0.362   3.718 -0.6943  0.7823  0.4930
  177SAPS  C31120253   1.520   0.187   3.841  0.2429  0.0157  0.4340
  177SAPS  H11X20254   1.602   0.137   3.785 -1.0720 -0.8764 -0.7715
  177SAPS  H11Y20255   1.445   0.109   3.867 -1.4115  0.3533 -2.8280
  177SAPS  C31220256   1.565   0.258   3.965 -0.1356 -0.0886 -0.0224
  177SAPS  H12X20257   1.475   0.299   4.014 -0.0749  2.0543 -1.5810
  177SAPS  H12Y20258   1.635   0.339   3.936  1.3398 -1.4001 -0.3010
  177SAPS  C31320259   1.616   0.161   4.074  0.1722 -0.8239  0.2596
  177SAPS  H13X20260   1.666   0.081   4.014  1.9709  0.8680 -0.6082
  177SAPS  H13Y20261   1.525   0.109   4.110  1.1741 -3.9313 -1.3003
  177SAPS  C31420262   1.695   0.224   4.183 -0.7350  0.5407 -0.0588
  177SAPS  H14X20263   1.629   0.270   4.260 -0.3047 -1.3755  1.5408
  177SAPS  H14Y20264   1.757   0.306   4.140  0.3263  0.7059  1.6812
  177SAPS  C31520265   1.773   0.119   4.273 -1.4707 -0.3101  0.3240
  177SAPS  H15X20266   1.812   0.171   4.363 -1.0425  0.1048 -0.0894
  177SAPS  H15Y20267   1.864   0.073   4.228 -0.9577 -0.6339  1.6628
  177SAPS  C31620268   1.681   0.010   4.328 -0.1422 -0.1418 -0.2252
  177SAPS  H16X20269   1.747  -0.079   4.337 -2.3629 -1.9795 -1.1044
  177SAPS  H16Y20270   1.601  -0.017   4.257  0.5127 -1.9361 -0.3316
  177SAPS  C31720271   1.629   0.043   4.473  0.5589 -0.7265  0.7859
  177SAPS  H17X20272   1.550   0.120   4.485 -0.9909 -2.0476 -0.4374
  177SAPS  H17Y20273   1.721   0.068   4.530  0.9509  0.9779 -0.4845
  177SAPS  C31820274   1.567  -0.081   4.539 -0.3619  0.6992  0.2134
  177SAPS  H18X20275   1.643  -0.163   4.539  0.4659  1.4323 -1.1070
  177SAPS  H18Y20276   1.480  -0.120   4.483  0.2683  0.6107 -0.7236
  177SAPS  H18Z20277   1.546  -0.073   4.648 -1.3867 -1.5023  0.2451
  178SAPS     N20278   4.706   2.424   2.878  0.2504 -0.3256 -0.5947
  178SAPS   HN120279   4.743   2.457   2.786  1.1669 -0.7167 -0.3739
  178SAPS   HN220280   4.608   2.452   2.902  0.1887 -1.6797  0.9176
  178SAPS   HN320281   4.768   2.455   2.955  1.6114 -3.7201 -0.1653
  178SAPS   C1220282   4.711   2.275   2.865  0.0332 -0.1262 -0.7979
  178SAPS  H12A20283   4.645   2.253   2.782 -2.2154  2.0126  0.2874
  178SAPS   C1320284   4.849   2.221   2.834 -0.4168 -0.0335  0.0073
  178SAPS  O13A20285   4.950   2.292   2.810  0.4872  0.0617 -0.1252
  178SAPS  O13B20286   4.842   2.102   2.786  0.1295 -0.2243 -0.3864
  178SAPS   C1120287   4.656   2.213   3.006 -0.4282  0.5507  0.0638
  178SAPS  H11A20288   4.729   2.236   3.086  0.6796  1.2589 -1.1084
  178SAPS  H11B20289   4.662   2.102   3.002  1.8107  0.6083 -4.1951
  178SAPS     P20290   4.388   2.193   2.987  0.4216 -0.0348  0.1973
  178SAPS   O1320291   4.268   2.275   3.032  0.0625  0.6597 -0.0630
  178SAPS   O1420292   4.405   2.149   2.845  0.4103  0.0042 -0.6167
  178SAPS   O1220293   4.521   2.262   3.036  0.4729 -0.4519 -0.2465
  178SAPS   O1120294   4.395   2.060   3.062 -0.0588  0.2775 -0.2602
  178SAPS    C120295   4.363   2.032   3.200  0.3419  0.1255  0.5021
  178SAPS    HA20296   4.286   2.106   3.229 -2.2044  0.1501 -5.1137
  178SAPS    HB20297   4.320   1.931   3.212  0.4491  0.2861  2.6255
  178SAPS    C220298   4.490   2.029   3.276  0.8630  0.0605  0.1113
  178SAPS    HS20299   4.542   2.124   3.253 -2.8584  1.9545 -1.3477
  178SAPS   O2120300   4.565   1.912   3.234 -0.7286  0.1747  0.5566
  178SAPS   C2120301   4.697   1.906   3.232  0.0254  0.2884 -0.9277
  178SAPS   O2220302   4.768   1.988   3.286 -0.1284 -0.4425  0.2070
  178SAPS   C2220303   4.737   1.781   3.141 -0.0480  0.2908 -0.1892
  178SAPS   H2R20304   4.648   1.715   3.132 -0.9190  1.6270 -2.1004
  178SAPS   H2S20305   4.741   1.833   3.044  1.3227  2.0422  0.7398
  178SAPS    C320306   4.476   2.018   3.424  0.4343  0.0908 -0.1066
  178SAPS    HX20307   4.579   2.019   3.464 -0.0688 -1.6471  1.3518
  178SAPS    HY20308   4.431   1.920   3.453 -2.9122  0.4861 -3.2213
  178SAPS   O3120309   4.403   2.128   3.481 -0.1855  0.4888  0.3313
  178SAPS   C3120310   4.277   2.097   3.514 -0.8363 -0.1594 -0.1741
  178SAPS   O3220311   4.225   1.991   3.497 -0.9833 -0.0258  0.4791
  178SAPS   C3220312   4.209   2.222   3.569  0.2749  0.2807 -0.3395
  178SAPS   H2X20313   4.110   2.216   3.519 -0.5004  0.6587  1.0900
  178SAPS   H2Y20314   4.267   2.314   3.549  0.4320  0.0999 -0.7206
  178SAPS   C2320315   4.878   1.716   3.162 -0.3619 -0.1150  0.0810
  178SAPS   H3R20316   4.955   1.784   3.204  0.0104 -1.4520  1.7058
  178SAPS   H3S20317   4.919   1.692   3.061 -2.8241 -1.0400 -0.7527
  178SAPS   C2420318   4.885   1.587   3.249  0.1272 -0.0334 -0.9725
  178SAPS   H4R20319   4.991   1.558   3.265  0.8125  1.2550 -2.8902
  178SAPS   H4S20320   4.840   1.498   3.201 -1.2774 -0.7902  1.5538
  178SAPS   C2520321   4.811   1.595   3.384 -0.2790 -0.1707  0.1734
  178SAPS   H5R20322   4.729   1.522   3.397 -0.4148  0.0871  0.8343
  178SAPS   C2620323   4.846   1.662   3.497 -0.6339  0.4456  0.7822
  178SAPS   H6R20324   4.790   1.653   3.592  1.0849 -2.7469  1.6310
  178SAPS   C2720325   4.974   1.750   3.505 -0.7194  0.0763 -0.1485
  178SAPS   H7R20326   5.028   1.760   3.408 -0.7704 -1.6324 -0.3782
  178SAPS   H7S20327   5.047   1.699   3.571 -0.9704 -1.0971 -0.7565
  178SAPS   C2820328   4.950   1.886   3.567 -0.9673 -0.3195  0.2567
  178SAPS   H8R20329   4.934   1.968   3.495  0.8583  0.7378  0.9727
  178SAPS   C2920330   4.950   1.915   3.694 -0.7358 -0.0079 -0.0175
  178SAPS   H9R20331   4.916   2.018   3.716 -1.2094  0.1627 -1.4164
  178SAPS  C21020332   4.989   1.825   3.807  0.3906  0.5711  0.0929
  178SAPS  H10R20333   5.098   1.800   3.808  0.6973  1.7340  2.3495
  178SAPS  H10S20334   4.939   1.726   3.802  0.0878  0.7405 -0.2609
  178SAPS  C21120335   4.949   1.874   3.949  0.0099 -0.0438 -0.0315
  178SAPS  H11R20336   4.920   1.980   3.957 -0.3465 -0.2655  2.5416
  178SAPS  C21220337   4.968   1.802   4.056 -0.2286  0.1885  0.9355
  178SAPS  H12R20338   4.971   1.852   4.153  1.0966  2.3016 -0.1410
  178SAPS  C21320339   5.008   1.653   4.058  0.9200 -0.4737  0.7181
  178SAPS  H13R20340   5.055   1.631   4.156  0.4039 -1.0629  0.8369
  178SAPS  H13S20341   5.086   1.631   3.981 -0.0486 -0.2727 -0.3509
  178SAPS  C21420342   4.887   1.571   4.034  0.4076  0.3408 -0.3405
  178SAPS  H14R20343   4.891   1.533   3.931 -0.2671  0.1251 -0.2900
  178SAPS  C21520344   4.776   1.557   4.106 -0.6415  0.2374 -0.6952
  178SAPS  H15R20345   4.692   1.503   4.060 -2.5415  2.4375  0.0048
  178SAPS  C21620346   4.747   1.612   4.243  0.2403 -0.9034 -0.3621
  178SAPS  H16R20347   4.666   1.548   4.285  0.8930 -1.0406  0.7337
  178SAPS  H16S20348   4.708   1.714   4.221 -2.4127 -1.6949  0.2650
  178SAPS  C21720349   4.855   1.640   4.358  0.3479 -0.7390  0.2027
  178SAPS  H17R20350   4.792   1.645   4.449 -0.7278 -0.4800 -0.5303
  178SAPS  H17S20351   4.905   1.738   4.343  3.3980 -1.4621  4.0701
  178SAPS  C21820352   4.938   1.519   4.397 -0.6862 -0.0784 -0.5358
  178SAPS  H18R20353   5.016   1.492   4.323 -0.3874 -1.1402  0.1341
  178SAPS  H18S20354   4.877   1.426   4.401  0.8011 -1.0365  1.2936
  178SAPS  C21920355   5.009   1.531   4.533  0.5895 -0.8262 -0.7441
  178SAPS  H19R20356   4.935   1.565   4.609  1.6970  0.2092 -0.0914
  178SAPS  H19S20357   5.086   1.611   4.527  0.8583 -0.7905  2.1491
  178SAPS  C22020358   5.066   1.403   4.584 -0.0755  0.2664 -0.1702
  178SAPS  H20R20359   4.979   1.343   4.617 -0.4204  0.8373 -0.0292
  178SAPS  H20S20360   5.137   1.423   4.668  0.4472 -3.1453  0.3445
  178SAPS  H20T20361   5.109   1.348   4.498  0.4649 -0.4995  0.5734
  178SAPS   C3320362   4.176   2.205   3.717 -0.3619  0.4654  0.6050
  178SAPS   H3X20363   4.272   2.210   3.773  0.7802  0.1750 -1.2543
  178SAPS   H3Y20364   4.138   2.104   3.745 -0.8688  0.2443 -0.7803
  178SAPS   C3420365   4.073   2.308   3.757  0.3251  0.1025  0.3507
  178SAPS   H4X20366   3.991   2.292   3.683 -0.5654  1.2031  1.0674
  178SAPS   H4Y20367   4.109   2.412   3.747 -1.1566  0.7112  1.0185
  178SAPS   C3520368   4.034   2.285   3.905 -0.4230 -0.3992  0.3552
  178SAPS   H5X20369   4.031   2.175   3.919  0.7921 -1.1851 -4.1628
  178SAPS   H5Y20370   3.942   2.342   3.931  0.8042  0.4037  3.3519
  178SAPS   C3620371   4.135   2.336   4.005 -0.0183  0.3220 -0.4768
  178SAPS   H6X20372   4.137   2.444   3.978  2.2924  1.2467  2.7618
  178SAPS   H6Y20373   4.239   2.300   3.991  0.3750  1.0376  0.5049
  178SAPS   C3720374   4.071   2.325   4.150 -0.0682 -0.3764  0.2426
  178SAPS   H7X20375   4.051   2.219   4.177  1.2175 -0.7320 -0.1160
  178SAPS   H7Y20376   3.973   2.377   4.148 -0.0553 -0.3683 -0.9988
  178SAPS   C3820377   4.167   2.394   4.249  0.0785  0.6482 -0.0849
  178SAPS   H8X20378   4.182   2.492   4.199 -0.6766 -0.3888 -2.4642
  178SAPS   H8Y20379   4.271   2.355   4.249  1.4175  3.7401  1.9936
  178SAPS   C3920380   4.119   2.401   4.390  0.4788  1.0612 -0.8421
  178SAPS   H9X20381   4.199   2.353   4.450  0.2199  0.3670 -1.0455
  178SAPS   H9Y20382   4.034   2.339   4.425  1.4658 -0.9387 -1.8708
  178SAPS  C31020383   4.103   2.546   4.444 -0.4006 -0.0324 -0.2692
  178SAPS  H10X20384   4.015   2.592   4.394 -0.9386  1.1089  1.6564
  178SAPS  H10Y20385   4.191   2.610   4.422 -0.6192  0.5138  0.4568
  178SAPS  C31120386   4.081   2.564   4.600  0.5174  0.4322 -0.3710
  178SAPS  H11X20387   4.176   2.549   4.656  0.8400  2.6447 -0.2257
  178SAPS  H11Y20388   4.011   2.488   4.639  2.4522 -1.2681 -0.0431
  178SAPS  C31220389   4.036   2.708   4.627  0.7100  0.0887 -0.6861
  178SAPS  H12X20390   4.037   2.728   4.737  2.8102 -2.3961 -0.1509
  178SAPS  H12Y20391   3.930   2.723   4.598  1.5100  2.1763 -2.8592
  178SAPS  C31320392   4.126   2.822   4.574  0.1589  0.3296  0.7955
  178SAPS  H13X20393   4.080   2.914   4.614  0.0575  1.4153 -1.6755
  178SAPS  H13Y20394   4.110   2.827   4.464 -0.6622  1.2235  0.9452
  178SAPS  C31420395   4.277   2.830   4.612  1.2179 -0.3657 -0.4489
  178SAPS  H14X20396   4.326   2.910   4.553 -0.9949  2.3109  1.0926
  178SAPS  H14Y20397   4.320   2.730   4.590  0.6955 -0.3367 -1.6433
  178SAPS  C31520398   4.303   2.860   4.759 -0.5007 -1.0409 -0.1791
  178SAPS  H15X20399   4.239   2.801   4.828  0.8783  0.8023  2.8978
  178SAPS  H15Y20400   4.284   2.967   4.783 -1.8014 -1.0271 -1.1549
  178SAPS  C31620401   4.447   2.827   4.801 -0.2142  0.0478  0.4552
  178SAPS  H16X20402   4.502   2.884   4.723 -0.5401  0.2109  0.3419
  178SAPS  H16Y20403   4.459   2.718   4.812 -0.2722 -0.2671 -2.0540
  178SAPS  C31720404   4.508   2.884   4.935  0.5168 -0.3704  0.9946
  178SAPS  H17X20405   4.469   2.818   5.016  2.0660 -0.8351  1.3926
  178SAPS  H17Y20406   4.460   2.982   4.953  0.3834 -0.7084  2.6508
  178SAPS  C31820407   4.661   2.883   4.934  0.4685  0.2692  0.1782
  178SAPS  H18X20408   4.710   2.897   5.033 -0.0620 -0.5159  0.5606
  178SAPS  H18Y20409   4.708   2.951   4.860 -1.0649  1.1741 -0.0009
  178SAPS  H18Z20410   4.692   2.781   4.901 -0.3025  0.2300 -0.4662
  179SAPS     N20411   3.645   4.518   2.671 -0.7587 -0.8779  0.2324
  179SAPS   HN120412   3.560   4.550   2.723 -0.4922 -2.2413  1.5918
  179SAPS   HN220413   3.637   4.513   2.568 -2.0045  3.6081 -0.0965
  179SAPS   HN320414   3.666   4.419   2.699  1.1337 -0.0693  1.9869
  179SAPS   C1220415   3.764   4.605   2.705  0.3164 -0.8574  0.6472
  179SAPS  H12A20416   3.787   4.595   2.811 -0.6127 -0.0899  0.9313
  179SAPS   C1320417   3.898   4.575   2.629  0.0238  0.2572 -0.2003
  179SAPS  O13A20418   3.897   4.481   2.546 -0.1760 -0.4260  0.5962
  179SAPS  O13B20419   4.003   4.640   2.657  1.3773 -0.0784  0.8427
  179SAPS   C1120420   3.724   4.756   2.691 -0.0091  0.4766  0.6372
  179SAPS  H11A20421   3.738   4.790   2.586 -0.0154 -0.6168  0.2739
  179SAPS  H11B20422   3.795   4.815   2.753 -0.3847  2.4335 -0.6927
  179SAPS     P20423   3.543   4.814   2.874  0.0905 -0.4398  0.4103
  179SAPS   O1320424   3.490   4.950   2.875 -0.1130 -0.1493  0.6394
  179SAPS   O1420425   3.443   4.717   2.912  0.2970  0.1161  0.2381
  179SAPS   O1220426   3.591   4.780   2.724  0.7579  0.5915  0.4073
  179SAPS   O1120427   3.672   4.808   2.961 -0.0720 -0.3048 -0.1993
  179SAPS    C120428   3.693   4.693   3.050  0.0655 -0.1941  0.1511
  179SAPS    HA20429   3.658   4.595   3.012  0.6105 -0.1302 -0.5263
  179SAPS    HB20430   3.803   4.676   3.055  0.2942  0.9051 -0.7950
  179SAPS    C220431   3.634   4.705   3.191 -0.6378  0.4445 -0.3086
  179SAPS    HS20432   3.526   4.682   3.176 -0.6319 -0.6910  1.1258
  179SAPS   O2120433   3.663   4.837   3.241  0.2095  0.3382 -0.2096
  179SAPS   C2120434   3.563   4.892   3.325 -0.0618 -0.7759  0.1994
  179SAPS   O2220435   3.452   4.848   3.347  0.4354  0.1350  0.1094
  179SAPS   C2220436   3.620   5.023   3.379 -0.3081  0.7462  0.4904
  179SAPS   H2R20437   3.710   4.990   3.434 -1.9441 -0.7000  2.4996
  179SAPS   H2S20438   3.650   5.082   3.290  2.1510 -1.4345 -0.2236
  179SAPS    C320439   3.699   4.598   3.277 -0.0353  0.6885 -0.2586
  179SAPS    HX20440   3.808   4.602   3.298  0.2050 -1.9700 -0.5913
  179SAPS    HY20441   3.701   4.506   3.215  1.4420  0.7837 -0.3944
  179SAPS   O3120442   3.636   4.588   3.402 -0.0542 -0.7430  0.1112
  179SAPS   C3120443   3.528   4.514   3.410  0.0589 -0.3245  0.3767
  179SAPS   O3220444   3.499   4.424   3.330 -0.0556 -0.3239 -0.3149
  179SAPS   C3220445   3.434   4.545   3.532 -0.3267  0.7817  0.2443
  179SAPS   H2X20446   3.345   4.575   3.474  0.2486 -0.4455 -1.3353
  179SAPS   H2Y20447   3.480   4.626   3.593  0.7668  2.1735 -2.2718
  179SAPS   C2320448   3.526   5.099   3.476  0.0744 -0.0061  0.0919
  179SAPS   H3R20449   3.485   5.046   3.565 -0.0130  2.3414  1.5359
  179SAPS   H3S20450   3.437   5.132   3.418 -0.0272 -0.3686  0.0377
  179SAPS   C2420451   3.602   5.224   3.528 -0.6096 -0.0874 -0.7509
  179SAPS   H4R20452   3.631   5.281   3.437 -1.2838 -0.4083 -1.1758
  179SAPS   H4S20453   3.690   5.188   3.585 -1.5036 -1.2982 -0.0882
  179SAPS   C2520454   3.514   5.306   3.618  0.2040  0.0536 -0.2979
  179SAPS   H5R20455   3.417   5.339   3.578 -1.3397 -0.8211  2.4372
  179SAPS   C2620456   3.547   5.347   3.743 -0.6988  0.4045  0.2849
  179SAPS   H6R20457   3.480   5.412   3.802  0.2488  1.7922 -0.1211
  179SAPS   C2720458   3.676   5.318   3.825 -0.3912  0.1873 -0.8105
  179SAPS   H7R20459   3.739   5.244   3.771 -2.2152 -0.6842 -1.8326
  179SAPS   H7S20460   3.640   5.264   3.916 -1.4267  0.3099 -1.1355
  179SAPS   C2820461   3.760   5.437   3.861  0.4891  0.1415 -0.4691
  179SAPS   H8R20462   3.782   5.513   3.784 -0.5175  1.0601  0.1214
  179SAPS   C2920463   3.825   5.450   3.978 -0.1108  0.5605 -0.3886
  179SAPS   H9R20464   3.901   5.528   3.993 -0.4281  0.6184  0.9902
  179SAPS  C21020465   3.812   5.352   4.099 -0.3930 -0.0523  0.1659
  179SAPS  H10R20466   3.719   5.291   4.096 -0.0531 -0.5853  0.2977
  179SAPS  H10S20467   3.794   5.414   4.189  2.4281  0.9802  0.1180
  179SAPS  C21120468   3.935   5.264   4.129 -0.1642 -0.5790 -0.2138
  179SAPS  H11R20469   3.928   5.163   4.085 -1.3074 -0.9701  0.7984
  179SAPS  C21220470   4.032   5.289   4.220 -0.4841 -0.4178 -0.0710
  179SAPS  H12R20471   4.112   5.216   4.235 -0.8277 -0.9015 -0.5649
  179SAPS  C21320472   4.045   5.414   4.307 -0.2297  0.0294  0.3047
  179SAPS  H13R20473   4.091   5.380   4.403 -1.0307 -2.6695 -0.1921
  179SAPS  H13S20474   3.950   5.460   4.341 -1.3546 -1.3548 -0.8726
  179SAPS  C21420475   4.130   5.522   4.245 -0.2853 -0.0159  0.3302
  179SAPS  H14R20476   4.111   5.542   4.139  1.9695  0.0640 -0.1219
  179SAPS  C21520477   4.233   5.585   4.295 -0.4339  0.0745 -0.0830
  179SAPS  H15R20478   4.277   5.670   4.241  0.1990 -0.0224  0.2697
  179SAPS  C21620479   4.272   5.562   4.441  0.0309  0.1876  0.2952
  179SAPS  H16R20480   4.359   5.494   4.445 -1.5044 -1.8490  0.4180
  179SAPS  H16S20481   4.194   5.517   4.506  1.5819 -1.2832  1.1983
  179SAPS  C21720482   4.304   5.682   4.532  0.0324  0.2268 -0.4124
  179SAPS  H17R20483   4.403   5.724   4.507  0.8954 -0.6559  1.3124
  179SAPS  H17S20484   4.310   5.651   4.638  3.4736  1.5636 -0.0976
  179SAPS  C21820485   4.190   5.782   4.523 -0.0051 -0.8284 -0.2630
  179SAPS  H18R20486   4.093   5.745   4.563  0.2416  1.1832  2.5259
  179SAPS  H18S20487   4.168   5.818   4.420 -2.8832 -0.5211  0.3812
  179SAPS  C21920488   4.219   5.899   4.614 -0.6871 -0.4842  0.4437
  179SAPS  H19R20489   4.311   5.951   4.580 -1.6355  1.2950  0.5008
  179SAPS  H19S20490   4.241   5.858   4.715 -1.3790 -1.3435  0.2544
  179SAPS  C22020491   4.123   6.008   4.624 -0.1882 -0.9452  0.1101
  179SAPS  H20R20492   4.157   6.083   4.697  0.1094  0.1661 -1.1280
  179SAPS  H20S20493   4.025   5.973   4.662 -2.4614  4.7111  0.3093
  179SAPS  H20T20494   4.111   6.055   4.524  0.9907  0.6247  0.6674
  179SAPS   C3320495   3.401   4.426   3.623 -0.2876  0.2945 -0.3015
  179SAPS   H3X20496   3.488   4.365   3.656 -0.8446  0.3095  1.3077
  179SAPS   H3Y20497   3.334   4.357   3.567 -1.8592 -1.5065  3.4021
  179SAPS   C3420498   3.347   4.455   3.762 -0.2448 -0.0124 -0.0212
  179SAPS   H4X20499   3.423   4.521   3.808 -1.6682  2.2973 -0.8097
  179SAPS   H4Y20500   3.354   4.356   3.812  2.4807  0.5633  0.8928
  179SAPS   C3520501   3.215   4.528   3.762 -0.0713  0.7456  0.0489
  179SAPS   H5X20502   3.148   4.495   3.681  0.8040 -2.5120  0.5177
  179SAPS   H5Y20503   3.223   4.638   3.745  0.7445  0.7699  0.4898
  179SAPS   C3620504   3.135   4.493   3.888  0.1965 -0.4296 -0.2399
  179SAPS   H6X20505   3.126   4.383   3.901  0.9108 -0.5240 -0.4875
  179SAPS   H6Y20506   3.038   4.547   3.888  1.4677  2.0325  2.1425
  179SAPS   C3720507   3.203   4.548   4.011  0.5187 -0.2955  0.2092
  179SAPS   H7X20508   3.220   4.655   3.990  2.4479 -0.2259  1.7531
  179SAPS   H7Y20509   3.303   4.502   4.028 -0.1687 -2.0840 -0.3573
  179SAPS   C3820510   3.131   4.531   4.143  0.4965  0.3430  0.0991
  179SAPS   H8X20511   3.115   4.422   4.156  0.6974  0.0466 -1.8378
  179SAPS   H8Y20512   3.037   4.589   4.146  0.0403 -0.4003  0.9550
  179SAPS   C3920513   3.205   4.580   4.267  0.5691  0.7991  0.4053
  179SAPS   H9X20514   3.225   4.687   4.246 -0.0202  0.8450  0.0496
  179SAPS   H9Y20515   3.300   4.521   4.267  0.9329  1.3590 -0.3720
  179SAPS  C31020516   3.136   4.568   4.400  0.2143 -0.2660 -0.4890
  179SAPS  H10X20517   3.045   4.633   4.400  1.5220  1.6812  0.5259
  179SAPS  H10Y20518   3.202   4.600   4.484  1.0401  0.0170 -1.2256
  179SAPS  C31120519   3.085   4.435   4.463  0.1841 -0.0069 -0.3745
  179SAPS  H11X20520   3.132   4.347   4.413  1.3189  0.7502 -0.6888
  179SAPS  H11Y20521   2.979   4.433   4.430 -0.0414 -1.7399  0.3601
  179SAPS  C31220522   3.089   4.435   4.618 -0.0030 -1.0808 -0.4430
  179SAPS  H12X20523   3.070   4.539   4.653  1.2375 -1.3299  1.1002
  179SAPS  H12Y20524   3.195   4.422   4.649  0.0936  2.7832  1.3909
  179SAPS  C31320525   2.990   4.333   4.669  1.1793  0.0990  0.2276
  179SAPS  H13X20526   3.039   4.233   4.675 -0.5719 -0.7996  0.2177
  179SAPS  H13Y20527   2.908   4.324   4.595 -0.0272 -0.5056  1.5760
  179SAPS  C31420528   2.934   4.370   4.803  0.4493 -0.4283  0.0479
  179SAPS  H14X20529   3.005   4.396   4.885 -2.8307 -0.1581  3.0662
  179SAPS  H14Y20530   2.868   4.288   4.839 -2.0500  1.7030  0.6198
  179SAPS  C31520531   2.833   4.488   4.799 -0.2736  0.2202 -0.1591
  179SAPS  H15X20532   2.760   4.469   4.718  0.0815  0.5160 -0.5470
  179SAPS  H15Y20533   2.882   4.584   4.774 -2.1607  1.9679  2.3184
  179SAPS  C31620534   2.754   4.504   4.928  0.2195 -0.0509  0.3281
  179SAPS  H16X20535   2.727   4.611   4.941  0.9024  0.0269  1.2240
  179SAPS  H16Y20536   2.821   4.474   5.012 -2.3034  0.0101  2.5078
  179SAPS  C31720537   2.633   4.422   4.940  0.4438  0.1536 -0.0307
  179SAPS  H17X20538   2.680   4.322   4.928 -1.7386 -0.9366 -0.1244
  179SAPS  H17Y20539   2.562   4.431   4.855  0.4093 -2.0237 -0.2897
  179SAPS  C31820540   2.574   4.455   5.073 -0.2054  0.0007  0.0290
  179SAPS  H18X20541   2.505   4.376   5.109  1.4647 -1.8382 -0.6113
  179SAPS  H18Y20542   2.524   4.554   5.070  2.8408  1.6698  0.3241
  179SAPS  H18Z20543   2.653   4.457   5.151 -0.6440  3.5630  0.5250
  180SAPS     N20544   5.425   4.503   2.675 -0.0158  0.2816 -0.3117
  180SAPS   HN120545   5.362   4.459   2.745  0.9043 -0.5411  0.0367
  180SAPS   HN220546   5.523   4.484   2.707  0.2549  1.5707 -0.3178
  180SAPS   HN320547   5.412   4.605   2.666 -1.8952  0.1448  0.4975
  180SAPS   C1220548   5.396   4.440   2.538 -0.1998 -0.4651 -0.2346
  180SAPS  H12A20549   5.296   4.464   2.507 -0.4247  0.3473  1.0497
  180SAPS   C1320550   5.488   4.486   2.427  0.0176 -0.0807 -0.6731
  180SAPS  O13A20551   5.562   4.585   2.445  0.2217  0.1437  0.2421
  180SAPS  O13B20552   5.460   4.446   2.309  0.2851  0.0552  0.1163
  180SAPS   C1120553   5.411   4.287   2.555 -0.0757 -0.0746  0.7733
  180SAPS  H11A20554   5.390   4.238   2.458 -1.2779 -3.1613  2.4592
  180SAPS  H11B20555   5.319   4.245   2.600 -2.2700  2.3748 -1.1210
  180SAPS     P20556   5.581   4.098   2.613  0.0900  0.5353  0.1915
  180SAPS   O1320557   5.491   4.013   2.530 -0.1217  0.2666  0.5795
  180SAPS   O1420558   5.724   4.099   2.580  0.0188  0.1754 -0.1690
  180SAPS   O1220559   5.531   4.248   2.613 -0.1032  0.0906 -0.1641
  180SAPS   O1120560   5.562   4.050   2.765  0.0383 -0.3952  0.0954
  180SAPS    C120561   5.433   4.062   2.826  0.3302 -0.2177  0.1869
  180SAPS    HA20562   5.394   4.163   2.800  0.5486 -0.7371 -2.4381
  180SAPS    HB20563   5.365   3.983   2.787  1.2656 -1.2961  0.7007
  180SAPS    C220564   5.431   4.044   2.976 -0.4252  0.0443 -0.5401
  180SAPS    HS20565   5.323   4.030   2.997 -0.5858  1.1076 -0.6159
  180SAPS   O2120566   5.504   4.154   3.041 -1.0212  0.6705 -0.2457
  180SAPS   C2120567   5.443   4.258   3.075 -0.2500  0.3533  0.2969
  180SAPS   O2220568   5.327   4.287   3.054 -0.6411 -0.6910  0.7530
  180SAPS   C2220569   5.540   4.341   3.162  0.3193  0.0293 -0.4555
  180SAPS   H2R20570   5.617   4.271   3.201 -0.6204 -0.3518  0.7838
  180SAPS   H2S20571   5.578   4.418   3.091 -0.3123  0.7262 -0.0530
  180SAPS    C320572   5.493   3.912   3.022 -0.5294  0.7890  0.4634
  180SAPS    HX20573   5.590   3.919   2.969 -0.1885  1.1144  1.1172
  180SAPS    HY20574   5.442   3.821   2.983  0.7914  0.6455 -0.9903
  180SAPS   O3120575   5.522   3.902   3.165 -0.0545  0.0191 -0.5786
  180SAPS   C3120576   5.425   3.869   3.243 -1.0214 -0.3135 -0.1514
  180SAPS   O3220577   5.314   3.839   3.212 -0.0634 -0.3823  0.7809
  180SAPS   C3220578   5.473   3.864   3.389 -0.1193 -0.3291  0.2829
  180SAPS   H2X20579   5.584   3.858   3.385 -0.0286  0.7852  0.8400
  180SAPS   H2Y20580   5.426   3.769   3.424 -1.8798 -0.5232 -2.3453
  180SAPS   C2320581   5.473   4.410   3.288 -0.5317 -0.3488 -0.0059
  180SAPS   H3R20582   5.451   4.336   3.369  2.0596  0.1434  1.2291
  180SAPS   H3S20583   5.376   4.448   3.249 -0.1997 -0.6079 -1.1414
  180SAPS   C2420584   5.560   4.528   3.344 -0.1916 -0.1654 -0.2000
  180SAPS   H4R20585   5.490   4.605   3.384 -2.7279 -1.3156 -2.1059
  180SAPS   H4S20586   5.620   4.574   3.263  1.6668 -2.6248 -0.3503
  180SAPS   C2520587   5.661   4.476   3.443  0.9262  0.3896  0.5877
  180SAPS   H5R20588   5.744   4.421   3.396  1.0665  1.5449 -0.5654
  180SAPS   C2620589   5.670   4.491   3.575 -0.0163 -0.2848 -0.7510
  180SAPS   H6R20590   5.752   4.448   3.634  0.2734  0.3278 -0.7031
  180SAPS   C2720591   5.571   4.560   3.655 -0.0111  0.1294  0.0942
  180SAPS   H7R20592   5.554   4.656   3.602  0.5249  0.5064  0.5826
  180SAPS   H7S20593   5.624   4.570   3.752  0.5303  1.5920 -0.3284
  180SAPS   C2820594   5.438   4.485   3.679  0.1435  0.2786 -0.0201
  180SAPS   H8R20595   5.396   4.422   3.599  1.3664 -2.1393  1.1284
  180SAPS   C2920596   5.389   4.465   3.803  0.8609 -0.0454 -0.5987
  180SAPS   H9R20597   5.295   4.409   3.808 -0.4339  1.9163 -1.4145
  180SAPS  C21020598   5.443   4.524   3.931 -0.8004 -0.0706 -0.1196
  180SAPS  H10R20599   5.365   4.579   3.987  0.8854 -0.2674  2.5892
  180SAPS  H10S20600   5.519   4.603   3.916 -0.6758  0.0509  1.1011
  180SAPS  C21120601   5.492   4.414   4.026  0.2042 -0.7105 -0.4206
  180SAPS  H11R20602   5.520   4.328   3.965  1.3133 -0.3831 -0.3953
  180SAPS  C21220603   5.520   4.419   4.160 -0.6585 -0.1798 -0.5085
  180SAPS  H12R20604   5.569   4.338   4.216  1.1164  2.3552  1.8868
  180SAPS  C21320605   5.507   4.546   4.249 -0.6264  0.2922  0.1213
  180SAPS  H13R20606   5.523   4.642   4.195  0.1281 -0.4400 -0.9992
  180SAPS  H13S20607   5.584   4.550   4.329  0.0778  2.4084 -0.6091
  180SAPS  C21420608   5.366   4.535   4.307  0.2016  0.3682 -0.4630
  180SAPS  H14R20609   5.285   4.547   4.234 -1.9743 -1.4832  1.5088
  180SAPS  C21520610   5.329   4.518   4.438 -0.0747 -0.3339 -0.1397
  180SAPS  H15R20611   5.222   4.506   4.461 -0.4128 -0.8753 -1.8322
  180SAPS  C21620612   5.411   4.519   4.565  0.4337  0.0207  0.0878
  180SAPS  H16R20613   5.517   4.545   4.542  0.7800 -1.7980 -0.5410
  180SAPS  H16S20614   5.406   4.418   4.612 -0.9643 -1.2079 -2.4777
  180SAPS  C21720615   5.362   4.616   4.671 -0.3849  0.5506  0.0050
  180SAPS  H17R20616   5.380   4.716   4.624  0.8984 -0.0651 -0.8771
  180SAPS  H17S20617   5.411   4.621   4.771 -0.4893 -0.8441  0.1463
  180SAPS  C21820618   5.214   4.604   4.713 -0.9388 -0.1056  0.4869
  180SAPS  H18R20619   5.189   4.497   4.733 -1.1398 -0.2387 -0.4310
  180SAPS  H18S20620   5.144   4.633   4.632 -0.3153  1.2925  0.4327
  180SAPS  C21920621   5.164   4.689   4.831  0.2378 -0.1275  0.0111
  180SAPS  H19R20622   5.203   4.791   4.811  2.2796 -1.2871 -2.4157
  180SAPS  H19S20623   5.220   4.653   4.920  0.0499 -0.8714 -0.1703
  180SAPS  C22020624   5.009   4.689   4.846  0.1265  0.2654  0.6748
  180SAPS  H20R20625   4.957   4.748   4.769  0.4850  1.1631  1.1042
  180SAPS  H20S20626   4.962   4.588   4.846 -1.5530  1.0180  0.6554
  180SAPS  H20T20627   4.985   4.733   4.945 -2.4831 -2.1510  1.2257
  180SAPS   C3320628   5.419   3.974   3.478 -0.1304  0.4991  0.0025
  180SAPS   H3X20629   5.311   3.980   3.452 -0.4897 -1.4301  0.8679
  180SAPS   H3Y20630   5.463   4.074   3.457  0.5802  0.0054 -0.9095
  180SAPS   C3420631   5.427   3.945   3.626  0.6608  0.6763 -0.0210
  180SAPS   H4X20632   5.532   3.937   3.661  0.2463  0.0812  1.1178
  180SAPS   H4Y20633   5.391   3.844   3.656  1.0405 -0.2120 -2.3492
  180SAPS   C3520634   5.353   4.051   3.710  0.0739 -0.0196  0.6940
  180SAPS   H5X20635   5.247   4.041   3.680  0.7179 -0.7565 -1.5808
  180SAPS   H5Y20636   5.380   4.153   3.675  1.8345 -1.0776 -1.2656
  180SAPS   C3620637   5.376   4.039   3.859 -0.0382  0.1709 -0.4726
  180SAPS   H6X20638   5.299   3.969   3.898 -0.0931  0.9398  0.8428
  180SAPS   H6Y20639   5.336   4.131   3.906  0.3330  1.0743 -1.8693
  180SAPS   C3720640   5.511   4.018   3.913  0.1155  0.2855  0.3339
  180SAPS   H7X20641   5.581   4.088   3.863  0.3448 -2.3191 -3.4854
  180SAPS   H7Y20642   5.546   3.918   3.882 -0.7758  0.6901 -2.3127
  180SAPS   C3820643   5.522   4.046   4.065  0.1156 -0.3265  0.6077
  180SAPS   H8X20644   5.476   3.961   4.120 -1.3206  1.3929  2.1675
  180SAPS   H8Y20645   5.471   4.142   4.085 -0.7482 -0.6433  0.0140
  180SAPS   C3920646   5.666   4.054   4.106  0.0705  0.6069  0.5472
  180SAPS   H9X20647   5.720   4.139   4.058  0.7965 -0.5447 -0.7308
  180SAPS   H9Y20648   5.721   3.961   4.082  1.4520  1.8118 -1.1901
  180SAPS  C31020649   5.689   4.069   4.256 -0.2831 -0.0935  0.2975
  180SAPS  H10X20650   5.635   4.158   4.295  0.1393  1.2484 -1.9691
  180SAPS  H10Y20651   5.795   4.099   4.272  0.3620  0.2621 -3.6104
  180SAPS  C31120652   5.641   3.953   4.338 -0.1070 -0.4038 -0.0488
  180SAPS  H11X20653   5.680   3.859   4.295 -1.4454 -0.4873 -1.1520
  180SAPS  H11Y20654   5.530   3.945   4.330 -0.1551  0.0177  0.1241
  180SAPS  C31220655   5.690   3.971   4.480  0.3292  0.3167  0.4279
  180SAPS  H12X20656   5.668   4.072   4.522  2.4823 -0.0633  2.7632
  180SAPS  H12Y20657   5.800   3.974   4.470  0.3122  0.7544  0.3765
  180SAPS  C31320658   5.656   3.858   4.579  0.0955  0.0242 -0.6809
  180SAPS  H13X20659   5.707   3.764   4.550  1.1760  0.2678  0.3129
  180SAPS  H13Y20660   5.550   3.845   4.609  0.8469  0.1146  2.3905
  180SAPS  C31420661   5.728   3.891   4.713 -0.1563  0.4260  0.0297
  180SAPS  H14X20662   5.676   3.978   4.759  2.4789  1.1526  1.8777
  180SAPS  H14Y20663   5.836   3.902   4.690 -0.7353  1.0137 -2.6602
  180SAPS  C31520664   5.693   3.771   4.803 -0.4751  0.4337 -0.3961
  180SAPS  H15X20665   5.711   3.678   4.745 -2.0202 -0.7708  0.9399
  180SAPS  H15Y20666   5.586   3.778   4.831 -0.3323 -2.5554  1.4015
  180SAPS  C31620667   5.783   3.751   4.933 -0.1755  0.2068  0.4024
  180SAPS  H16X20668   5.794   3.846   4.990 -1.5425  0.0562  0.9469
  180SAPS  H16Y20669   5.884   3.717   4.900  0.0081 -1.3594  2.4174
  180SAPS  C31720670   5.748   3.638   5.025 -0.2754 -1.1950  0.2171
  180SAPS  H17X20671   5.724   3.546   4.967  0.6157  0.7000 -3.4379
  180SAPS  H17Y20672   5.659   3.658   5.088  0.4747 -1.0595  1.2658
  180SAPS  C31820673   5.868   3.600   5.113  0.1240 -0.1510  0.0935
  180SAPS  H18X20674   5.926   3.507   5.093  2.8462  1.3089  0.6184
  180SAPS  H18Y20675   5.828   3.599   5.217 -1.2698  1.7178 -0.3779
  180SAPS  H18Z20676   5.939   3.685   5.116  0.1328 -0.0752 -1.5756
  181POPC     N20677   3.893   3.751   7.768 -0.1399  0.1698  0.2978
  181POPC   C1220678   3.878   3.672   7.635 -0.3904  0.1105 -0.4664
  181POPC  H12A20679   3.799   3.599   7.640 -0.6528  0.4765  1.7308
  181POPC  H12B20680   3.972   3.620   7.625  0.2179  1.2261 -0.7050
  181POPC   C1320681   3.786   3.850   7.780  0.2518  0.3954 -0.2073
  181POPC  H13A20682   3.783   3.918   7.696 -1.2347  0.6061 -0.0237
  181POPC  H13B20683   3.692   3.797   7.792  0.7993 -0.4366  0.5405
  181POPC  H13C20684   3.800   3.926   7.855 -2.6240  0.1559  0.7016
  181POPC   C1420685   3.892   3.661   7.880 -0.1690 -0.2623 -0.6900
  181POPC  H14A20686   3.796   3.620   7.907 -0.3888  0.4920 -0.2909
  181POPC  H14B20687   3.974   3.592   7.889  0.1116  0.3441  2.5670
  181POPC  H14C20688   3.904   3.726   7.965  4.6616  0.6612 -1.7636
  181POPC   C1520689   4.027   3.821   7.759 -0.3969 -0.3156  0.7402
  181POPC  H15A20690   4.035   3.857   7.657 -2.1064 -0.5935  0.4718
  181POPC  H15B20691   4.107   3.751   7.773 -1.3586 -1.8161 -0.9297
  181POPC  H15C20692   4.043   3.894   7.837 -3.1182  1.0776  0.1350
  181POPC   C1120693   3.847   3.750   7.502  0.1777  0.6744 -0.7045
  181POPC  H11A20694   3.859   3.672   7.424 -1.2885  0.1549 -0.4349
  181POPC  H11B20695   3.921   3.832   7.496  1.5628 -0.6096 -2.0918
  181POPC     P20696   3.599   3.688   7.481  0.6345 -0.2055 -0.1597
  181POPC   O1320697   3.463   3.757   7.498 -0.1890  0.3202 -0.7589
  181POPC   O1420698   3.623   3.561   7.553  0.1837 -0.4911 -0.2162
  181POPC   O1220699   3.716   3.789   7.509 -0.1092 -0.7171  0.2458
  181POPC   O1120700   3.618   3.660   7.333  0.1285  0.1223  0.0294
  181POPC    C120701   3.673   3.752   7.237  0.2399  0.1814  0.1280
  181POPC    HA20702   3.773   3.716   7.202 -0.6547  1.0166 -3.6872
  181POPC    HB20703   3.690   3.853   7.280 -0.4479  0.3119  0.0924
  181POPC    C220704   3.586   3.775   7.109 -0.0492 -0.5617  0.4210
  181POPC    HS20705   3.500   3.827   7.157 -0.7149 -1.2530 -0.0034
  181POPC   O2120706   3.550   3.649   7.041 -0.3730 -0.5011  0.2093
  181POPC   C2120707   3.421   3.635   7.021 -0.0125 -0.0792 -0.3790
  181POPC   O2220708   3.346   3.729   7.027  0.7583 -0.3432  0.0297
  181POPC   C2220709   3.397   3.486   6.985 -0.0451 -0.3962  0.2944
  181POPC   H2R20710   3.469   3.426   7.045  1.0841  1.2900  0.7052
  181POPC   H2S20711   3.419   3.482   6.876  3.1649  0.0257  0.8172
  181POPC    C320712   3.653   3.869   7.008 -0.2978 -0.3967  0.5398
  181POPC    HX20713   3.757   3.836   6.987  0.1502  1.9500 -1.4400
  181POPC    HY20714   3.659   3.968   7.059  0.8418  0.1492 -0.5874
  181POPC   O3120715   3.589   3.878   6.875  0.5467 -0.1117 -0.0379
  181POPC   C3120716   3.495   3.969   6.872  0.6580 -0.0229 -1.0226
  181POPC   O3220717   3.471   4.049   6.960 -0.1771  0.0961  0.0869
  181POPC   C3220718   3.410   3.953   6.741 -1.0954  0.6121 -0.2467
  181POPC   H2X20719   3.347   4.043   6.724 -0.6308  0.9051 -0.4401
  181POPC   H2Y20720   3.341   3.868   6.763 -0.2345 -0.1613 -0.4935
  181POPC   C2320721   3.262   3.429   7.017 -0.3960  0.2607 -0.1366
  181POPC   H3R20722   3.239   3.452   7.124 -0.2353  0.2950 -0.1080
  181POPC   H3S20723   3.287   3.321   7.006  2.3733  1.0622 -2.9046
  181POPC   C2420724   3.153   3.478   6.919 -0.3174  0.6603 -0.0119
  181POPC   H4R20725   3.132   3.587   6.923 -4.1848  0.0580  2.1647
  181POPC   H4S20726   3.055   3.429   6.938 -0.8869  0.0894 -3.6547
  181POPC   C2520727   3.186   3.451   6.778  0.1384 -0.0684 -0.1399
  181POPC   H5R20728   3.244   3.357   6.775  0.9914  0.4613 -2.5697
  181POPC   H5S20729   3.244   3.536   6.735 -0.7141  1.7572  2.0864
  181POPC   C2620730   3.061   3.443   6.683  0.5711  0.3412 -0.0159
  181POPC   H6R20731   3.005   3.355   6.721 -0.8486 -0.8958 -4.3883
  181POPC   H6S20732   3.091   3.424   6.577 -0.8801  3.0324 -0.9897
  181POPC   C2720733   2.975   3.565   6.685  0.6799  0.0422  0.0554
  181POPC   H7R20734   2.986   3.626   6.777 -0.0634  0.2205  0.0338
  181POPC   H7S20735   2.872   3.530   6.659 -0.6022 -0.0903  4.5354
  181POPC   C2820736   3.018   3.662   6.576  0.1758  0.2651 -0.0068
  181POPC   H8R20737   3.033   3.603   6.483 -1.2186  1.4958 -1.0790
  181POPC   H8S20738   3.117   3.693   6.614  0.4554 -2.4163  1.6901
  181POPC   C2920739   2.925   3.777   6.549 -0.6111 -0.6787  0.2426
  181POPC   H9120740   2.877   3.811   6.642 -0.8886  0.1533 -0.2025
  181POPC  C21020741   2.897   3.840   6.433 -0.5021  0.2989 -0.5939
  181POPC  H10120742   2.819   3.917   6.423 -0.2558  0.5000 -0.9625
  181POPC  C21120743   2.948   3.812   6.296 -0.6830 -0.3223 -0.0881
  181POPC  H11R20744   3.027   3.737   6.313  0.6092  1.3344  1.6381
  181POPC  H11S20745   2.976   3.908   6.247 -0.3559 -0.1082  0.5061
  181POPC  C21220746   2.832   3.757   6.214  0.2105 -0.4242 -0.3555
  181POPC  H12R20747   2.756   3.838   6.209  0.8075  0.3093  1.4996
  181POPC  H12S20748   2.783   3.669   6.261 -0.4205  0.5031  0.7730
  181POPC  C21320749   2.879   3.704   6.078  0.1965  0.3760  1.0380
  181POPC  H13R20750   2.804   3.646   6.020  1.0795  0.9365 -0.7489
  181POPC  H13S20751   2.971   3.642   6.080  0.7235  1.1006  3.6730
  181POPC  C21420752   2.912   3.816   5.977  0.0768 -0.5373  0.1647
  181POPC  H14R20753   3.013   3.855   6.003  0.3341 -0.9149 -0.2525
  181POPC  H14S20754   2.839   3.899   5.983  0.7234  0.0558  0.0376
  181POPC  C21520755   2.915   3.764   5.833 -0.2276  0.0569  0.0111
  181POPC  H15R20756   2.818   3.712   5.818  0.2392 -0.9767  0.4668
  181POPC  H15S20757   2.982   3.678   5.814  0.5791  0.3159  1.5324
  181POPC  C21620758   2.927   3.864   5.714  0.4730  0.1380 -0.0312
  181POPC  H16R20759   3.007   3.935   5.741  0.2182  0.0404  1.0123
  181POPC  H16S20760   2.828   3.914   5.704 -0.8472 -2.1447  0.8632
  181POPC  C21720761   2.972   3.803   5.585  0.0923  0.2272 -0.3604
  181POPC  H17R20762   2.923   3.704   5.578 -0.7679  0.5148  1.0066
  181POPC  H17S20763   3.078   3.775   5.604 -0.7999 -3.9242 -0.5942
  181POPC  C21820764   2.942   3.898   5.472  0.1768  0.0723 -0.0104
  181POPC  H18R20765   2.983   3.999   5.495  0.6872 -0.9890  5.1571
  181POPC  H18S20766   2.835   3.919   5.456  0.3488 -0.0546 -1.4286
  181POPC  H18T20767   2.985   3.869   5.374  1.2055 -0.4431  0.5739
  181POPC   C3320768   3.489   3.926   6.608  0.4918 -0.2741 -0.5274
  181POPC   H3X20769   3.552   3.834   6.610 -1.3553 -1.6253  2.2881
  181POPC   H3Y20770   3.558   4.012   6.596 -0.3092  0.6021  0.9336
  181POPC   C3420771   3.390   3.930   6.491  0.5820 -0.0916  0.3004
  181POPC   H4X20772   3.336   4.026   6.493 -2.4785 -1.6087 -1.8900
  181POPC   H4Y20773   3.315   3.848   6.492 -1.7393  1.8240 -2.3228
  181POPC   C3520774   3.466   3.931   6.353 -0.1813  0.1891  0.4953
  181POPC   H5X20775   3.513   3.832   6.340 -2.6677 -1.4548  2.8537
  181POPC   H5Y20776   3.541   4.013   6.348  0.3323 -0.3868 -2.1127
  181POPC   C3620777   3.371   3.955   6.243 -0.2848  0.3354  0.5222
  181POPC   H6X20778   3.293   4.029   6.274 -0.1790 -0.0728  1.8176
  181POPC   H6Y20779   3.309   3.864   6.238  2.2120 -1.4553  0.3382
  181POPC   C3720780   3.435   3.975   6.100  0.5410  0.4096 -0.6046
  181POPC   H7X20781   3.495   3.884   6.077  0.0477  0.3910 -1.8964
  181POPC   H7Y20782   3.508   4.059   6.095  0.2537  0.7773  0.8868
  181POPC   C3820783   3.336   3.997   5.981  0.3315  0.0692 -0.2948
  181POPC   H8X20784   3.260   4.076   6.004  0.4702  1.0570 -2.8700
  181POPC   H8Y20785   3.280   3.903   5.962  0.3930 -0.0911  0.2870
  181POPC   C3920786   3.414   4.037   5.856 -0.4579  0.5995 -0.0514
  181POPC   H9X20787   3.487   3.955   5.837 -1.6955 -0.9642  1.5244
  181POPC   H9Y20788   3.480   4.125   5.871  2.3296 -1.7715  2.9586
  181POPC  C31020789   3.314   4.044   5.739 -0.8299 -0.4669  0.3614
  181POPC  H10X20790   3.244   4.129   5.753  0.6075  0.6297  1.2225
  181POPC  H10Y20791   3.253   3.952   5.735 -0.3180 -0.7973  0.0358
  181POPC  C31120792   3.391   4.083   5.609  0.6848 -0.5223  0.1894
  181POPC  H11X20793   3.481   4.021   5.593 -1.0042 -3.0614 -0.0833
  181POPC  H11Y20794   3.426   4.187   5.625 -1.4993  0.0968  1.3573
  181POPC  C31220795   3.296   4.071   5.489 -0.3371  0.1916 -0.0530
  181POPC  H12X20796   3.198   4.121   5.502  0.2310  1.4322 -0.3187
  181POPC  H12Y20797   3.278   3.962   5.476 -0.9370 -0.1890  3.1966
  181POPC  C31320798   3.363   4.120   5.356  0.3413  0.4629  0.3983
  181POPC  H13X20799   3.281   4.109   5.283  1.8598 -1.4090 -1.1252
  181POPC  H13Y20800   3.447   4.058   5.317 -1.2270 -0.4588 -1.6625
  181POPC  C31420801   3.409   4.271   5.354  0.3880 -0.3226  0.0824
  181POPC  H14X20802   3.508   4.277   5.404  0.3045 -1.3469  0.3811
  181POPC  H14Y20803   3.334   4.336   5.405 -0.2659 -0.8262 -0.2192
  181POPC  C31520804   3.440   4.313   5.206  0.8201  0.5365  0.1673
  181POPC  H15X20805   3.482   4.227   5.150  2.1005  2.2923 -1.6928
  181POPC  H15Y20806   3.507   4.400   5.199 -0.5854  1.7101  0.7386
  181POPC  C31620807   3.314   4.352   5.130  0.0022  0.0892  0.4983
  181POPC  H16X20808   3.247   4.425   5.179 -0.0894  0.6556 -0.4554
  181POPC  H16Y20809   3.253   4.264   5.100  2.1592 -1.7881  1.2869
  181POPC  H16Z20810   3.344   4.388   5.030  0.5665 -0.7430  0.3573
  182POPC     N20811   0.757   0.019   7.119  0.3005 -0.5077  0.6031
  182POPC   C1220812   0.883   0.076   7.176 -0.0428  0.2596 -0.3997
  182POPC  H12A20813   0.850   0.143   7.254  0.0528 -1.6908  1.3822
  182POPC  H12B20814   0.920   0.147   7.103 -1.5440  0.2848 -1.1862
  182POPC   C1320815   0.641   0.110   7.143 -0.7744  0.4008 -0.4102
  182POPC  H13A20816   0.613   0.115   7.247 -0.2125 -0.7358 -0.1933
  182POPC  H13B20817   0.649   0.209   7.100  0.8167  0.6791  0.4431
  182POPC  H13C20818   0.558   0.059   7.098 -1.2270 -0.2093  1.0534
  182POPC   C1420819   0.774  -0.001   6.971  0.3770 -0.6288  0.3031
  182POPC  H14A20820   0.695  -0.050   6.916  1.7197 -0.6603 -1.6829
  182POPC  H14B20821   0.788   0.092   6.919 -2.0379  0.2684  1.1043
  182POPC  H14C20822   0.864  -0.058   6.956  0.1963 -1.3571  1.7457
  182POPC   C1520823   0.726  -0.114   7.185 -0.7174 -0.6577 -0.5059
  182POPC  H15A20824   0.666  -0.184   7.129 -0.8794 -0.7612 -0.2037
  182POPC  H15B20825   0.670  -0.098   7.275  0.2128 -1.8843  0.3171
  182POPC  H15C20826   0.820  -0.164   7.203  0.0670  0.5849 -1.0433
  182POPC   C1120827   0.992  -0.022   7.240  0.0573 -0.2677 -0.2256
  182POPC  H11A20828   0.952  -0.065   7.334 -0.5426 -0.4448 -0.5566
  182POPC  H11B20829   1.085   0.027   7.278  0.7481 -2.2194  0.7690
  182POPC     P20830   1.154  -0.215   7.166 -0.0800  0.1836 -0.0762
  182POPC   O1320831   1.144  -0.258   7.310  0.3630  0.0077  0.3011
  182POPC   O1420832   1.270  -0.133   7.122 -0.3096  0.0324  0.6855
  182POPC   O1220833   1.026  -0.133   7.148  0.0502  0.1314  0.0461
  182POPC   O1120834   1.133  -0.345   7.075 -0.0555 -0.7993  0.1215
  182POPC    C120835   1.013  -0.367   7.004  0.3447 -0.5066 -0.0062
  182POPC    HA20836   0.926  -0.301   7.027 -0.8336 -1.4156 -1.6734
  182POPC    HB20837   0.989  -0.475   7.017 -0.6631 -0.4499 -1.1970
  182POPC    C220838   1.027  -0.358   6.850 -0.3026 -0.2376 -0.3403
  182POPC    HS20839   1.116  -0.420   6.828 -1.0972 -0.8861 -1.8783
  182POPC   O2120840   1.027  -0.223   6.808 -0.0423 -0.3884 -0.4963
  182POPC   C2120841   1.133  -0.173   6.755 -0.2424  0.0597  0.2149
  182POPC   O2220842   1.241  -0.225   6.744 -0.7491 -0.6106 -0.0040
  182POPC   C2220843   1.106  -0.027   6.728  0.4183  0.4075 -0.2315
  182POPC   H2R20844   1.200   0.027   6.702  0.0526  1.6217  0.8430
  182POPC   H2S20845   1.068   0.021   6.821 -0.7375 -1.9671  0.6081
  182POPC    C320846   0.900  -0.435   6.785  0.1686  0.3615  0.7278
  182POPC    HX20847   0.806  -0.389   6.822 -1.3169 -0.0267 -2.2146
  182POPC    HY20848   0.899  -0.540   6.822 -0.5838  0.5332  1.2080
  182POPC   O3120849   0.904  -0.441   6.648 -0.0928 -0.1163 -0.0520
  182POPC   C3120850   0.800  -0.385   6.579 -0.6366 -0.0225  0.3935
  182POPC   O3220851   0.694  -0.352   6.631  0.2168 -0.5422 -0.2092
  182POPC   C3220852   0.832  -0.382   6.434 -0.2379 -0.0343 -0.6753
  182POPC   H2X20853   0.943  -0.384   6.422 -0.3503 -0.2849 -1.6979
  182POPC   H2Y20854   0.795  -0.284   6.399 -0.8460  0.1859  0.5104
  182POPC   C2320855   1.006  -0.006   6.615  0.8185  0.7900  0.0236
  182POPC   H3R20856   0.989   0.104   6.607  2.1672  0.8866 -2.5054
  182POPC   H3S20857   0.911  -0.057   6.643  1.4704 -1.4840 -1.5917
  182POPC   C2420858   1.063  -0.063   6.482  0.4524  0.2819 -0.8363
  182POPC   H4R20859   1.093  -0.167   6.506  2.8763  1.0919  0.0367
  182POPC   H4S20860   1.148  -0.000   6.445 -0.3780  0.6771 -2.1299
  182POPC   C2520861   0.955  -0.043   6.373 -0.6338 -0.1106 -0.5208
  182POPC   H5R20862   0.947   0.065   6.348 -1.4230  0.4161  1.8295
  182POPC   H5S20863   0.855  -0.069   6.412 -1.1352 -1.4722 -2.5408
  182POPC   C2620864   0.978  -0.124   6.237  0.6758  0.0422 -0.0276
  182POPC   H6R20865   0.971  -0.233   6.258  1.6909  0.2452  1.5629
  182POPC   H6S20866   1.081  -0.094   6.209  0.5809  2.0330  1.5629
  182POPC   C2720867   0.886  -0.065   6.127  0.6785  0.3631  0.3660
  182POPC   H7R20868   0.895   0.046   6.131  0.4037  0.5218 -2.0616
  182POPC   H7S20869   0.785  -0.076   6.174  0.2668  2.4741  0.0715
  182POPC   C2820870   0.901  -0.129   5.984  0.1092  0.4103  0.3079
  182POPC   H8R20871   0.853  -0.228   5.975  1.9061 -0.3639 -1.7339
  182POPC   H8S20872   1.008  -0.156   5.995  1.0668  3.9854  1.2457
  182POPC   C2920873   0.869  -0.039   5.867  0.4157  0.0055  0.0863
  182POPC   H9120874   0.909   0.063   5.876 -0.8221  1.0048 -3.8647
  182POPC  C21020875   0.793  -0.071   5.761 -0.1260  0.4257 -0.5814
  182POPC  H10120876   0.748   0.006   5.696 -0.9257  0.8295  0.4190
  182POPC  C21120877   0.739  -0.203   5.744  0.5751 -1.0681  0.3896
  182POPC  H11R20878   0.662  -0.225   5.821  0.6784  0.3127  0.9088
  182POPC  H11S20879   0.817  -0.281   5.732  0.2020 -1.5053  0.7458
  182POPC  C21220880   0.658  -0.202   5.615  0.1358  0.3121 -0.2684
  182POPC  H12R20881   0.726  -0.176   5.532  0.4784  1.9815  0.4935
  182POPC  H12S20882   0.575  -0.129   5.627  0.1546  0.0195  2.2767
  182POPC  C21320883   0.583  -0.335   5.581  0.5168  0.4856  0.1868
  182POPC  H13R20884   0.538  -0.376   5.674  1.3282  2.2023  1.4056
  182POPC  H13S20885   0.658  -0.410   5.546 -0.2411 -0.2854  0.1858
  182POPC  C21420886   0.479  -0.320   5.467 -0.1313  0.2406  0.4381
  182POPC  H14R20887   0.426  -0.225   5.487 -2.9503 -0.8527 -1.2482
  182POPC  H14S20888   0.399  -0.397   5.472 -1.9224  2.0498  0.8927
  182POPC  C21520889   0.543  -0.334   5.325 -0.8526  0.2213  0.3602
  182POPC  H15R20890   0.582  -0.437   5.313  1.8155  0.6884  3.4146
  182POPC  H15S20891   0.636  -0.273   5.330  0.2680 -1.2074 -1.5019
  182POPC  C21620892   0.452  -0.302   5.213 -0.9054 -0.2405  0.4244
  182POPC  H16R20893   0.442  -0.192   5.204 -1.0350 -0.2455  0.5157
  182POPC  H16S20894   0.355  -0.351   5.234  0.1619 -2.2245  1.0323
  182POPC  C21720895   0.500  -0.371   5.082 -0.0252  0.5675 -0.0376
  182POPC  H17R20896   0.528  -0.477   5.103  2.4426  1.1757  0.0036
  182POPC  H17S20897   0.600  -0.332   5.057 -0.8731  2.1543 -1.1047
  182POPC  C21820898   0.408  -0.363   4.965 -0.5652 -0.3458 -0.1128
  182POPC  H18R20899   0.392  -0.255   4.940 -0.2322 -0.7879 -2.5298
  182POPC  H18S20900   0.310  -0.412   4.986  0.0116 -0.9664  1.2126
  182POPC  H18T20901   0.451  -0.400   4.869  0.6192  1.1010 -0.1783
  182POPC   C3320902   0.754  -0.495   6.360 -0.5134 -0.3324  0.8289
  182POPC   H3X20903   0.646  -0.470   6.367  0.3908  4.5179  1.3680
  182POPC   H3Y20904   0.781  -0.593   6.404  0.4114 -0.6151 -0.3023
  182POPC   C3420905   0.790  -0.488   6.211 -0.3709  0.4272 -0.6701
  182POPC   H4X20906   0.899  -0.487   6.188 -0.3285 -4.4829 -1.7754
  182POPC   H4Y20907   0.763  -0.385   6.180 -1.5960  0.4888  0.5151
  182POPC   C3520908   0.721  -0.600   6.137  0.1965  0.6793  0.2457
  182POPC   H5X20909   0.630  -0.639   6.188 -0.2580  1.8248  0.3322
  182POPC   H5Y20910   0.794  -0.684   6.129 -0.4666  0.0022  1.0834
  182POPC   C3620911   0.695  -0.566   5.993  0.1649 -0.0178  0.5999
  182POPC   H6X20912   0.789  -0.542   5.938 -0.0439  1.1987  0.7285
  182POPC   H6Y20913   0.640  -0.469   6.000  0.3749  0.1728 -0.2781
  182POPC   C3720914   0.620  -0.676   5.915 -0.1967 -0.1627  0.1018
  182POPC   H7X20915   0.535  -0.709   5.979 -1.1013 -0.0044 -0.9826
  182POPC   H7Y20916   0.695  -0.757   5.899  0.0815 -0.4991  2.6578
  182POPC   C3820917   0.575  -0.632   5.785  0.4456  0.3590 -0.1615
  182POPC   H8X20918   0.662  -0.585   5.733 -0.3628 -0.3483 -2.2538
  182POPC   H8Y20919   0.516  -0.539   5.804  1.3937  1.2227 -1.2226
  182POPC   C3920920   0.518  -0.746   5.688  0.5558  0.6347 -0.1636
  182POPC   H9X20921   0.424  -0.791   5.728  0.1367 -0.3683 -2.1241
  182POPC   H9Y20922   0.595  -0.821   5.660  1.6849  1.0775  1.5715
  182POPC  C31020923   0.483  -0.671   5.558  0.3970 -0.3501 -0.2615
  182POPC  H10X20924   0.569  -0.615   5.516 -0.4093  1.8753  0.9002
  182POPC  H10Y20925   0.417  -0.591   5.596 -0.5695 -1.5765  0.7500
  182POPC  C31120926   0.427  -0.763   5.453  0.1746  0.2443  0.3182
  182POPC  H11X20927   0.325  -0.790   5.489  0.0033  1.3460  0.7230
  182POPC  H11Y20928   0.480  -0.859   5.434 -0.0984  0.2650 -0.6282
  182POPC  C31220929   0.415  -0.682   5.325  0.3215  0.1866  0.5871
  182POPC  H12X20930   0.515  -0.679   5.277 -0.8218 -1.6941 -2.1394
  182POPC  H12Y20931   0.385  -0.578   5.348  0.0837  0.1547  0.4156
  182POPC  C31320932   0.308  -0.747   5.232 -0.6348 -0.1284 -0.3246
  182POPC  H13X20933   0.209  -0.754   5.281 -1.1234  2.4472 -0.8057
  182POPC  H13Y20934   0.344  -0.845   5.194 -0.0688  0.4690 -1.3829
  182POPC  C31420935   0.277  -0.665   5.111 -0.2793  0.6046 -0.5541
  182POPC  H14X20936   0.376  -0.652   5.062  0.4521 -1.7684  0.1915
  182POPC  H14Y20937   0.236  -0.570   5.151  0.1796  1.2766 -1.6246
  182POPC  C31520938   0.172  -0.738   5.030  0.7028 -0.4758 -0.0863
  182POPC  H15X20939   0.095  -0.792   5.090  0.6072 -1.3147 -0.9458
  182POPC  H15Y20940   0.233  -0.818   4.984  0.4287 -2.8013  3.2079
  182POPC  C31620941   0.105  -0.641   4.935  0.5946 -0.3347  0.4598
  182POPC  H16X20942   0.183  -0.576   4.890 -0.0325  0.1019 -0.0114
  182POPC  H16Y20943   0.051  -0.567   4.998 -0.2663  0.1106 -0.7659
  182POPC  H16Z20944   0.027  -0.680   4.867 -0.5313 -0.5606  1.8356
  183POPC     N20945   3.817   5.183   7.375 -0.2599 -0.3156 -0.0078
  183POPC   C1220946   3.790   5.182   7.221  0.4373  0.1216 -0.1847
  183POPC  H12A20947   3.684   5.186   7.203  0.5237 -0.0999 -0.7682
  183POPC  H12B20948   3.827   5.086   7.190  2.0815 -0.0367  1.9628
  183POPC   C1320949   3.736   5.075   7.442 -0.2252  0.1291  0.6020
  183POPC  H13A20950   3.759   5.071   7.547  1.8101 -1.7089  0.1661
  183POPC  H13B20951   3.631   5.093   7.429 -0.2503 -0.4511 -0.0655
  183POPC  H13C20952   3.758   4.973   7.413 -1.4260 -0.5738  2.0846
  183POPC   C1420953   3.966   5.168   7.392  0.4175 -0.4324 -0.3252
  183POPC  H14A20954   4.006   5.255   7.341 -4.5778  0.4169 -3.3863
  183POPC  H14B20955   4.000   5.185   7.493 -1.0585 -0.8867  0.2734
  183POPC  H14C20956   4.009   5.077   7.351  2.0503 -0.1727  0.6905
  183POPC   C1520957   3.761   5.303   7.443 -0.3523 -0.5436 -0.9867
  183POPC  H15A20958   3.795   5.387   7.385 -1.8269  0.9688  0.2145
  183POPC  H15B20959   3.801   5.322   7.542  0.8061 -0.9438 -1.3643
  183POPC  H15C20960   3.653   5.292   7.440 -0.2692 -1.9364 -0.0712
  183POPC   C1120961   3.862   5.287   7.122  0.6267 -0.2293 -0.2774
  183POPC  H11A20962   3.814   5.263   7.025  1.5606  1.1442 -1.1051
  183POPC  H11B20963   3.969   5.266   7.103  0.4063 -0.6180 -1.1226
  183POPC     P20964   3.949   5.516   7.226 -0.1503 -0.3811  0.4004
  183POPC   O1320965   4.061   5.436   7.285  0.0646 -1.0686  0.0295
  183POPC   O1420966   3.888   5.624   7.303  0.0943 -0.2032  0.1896
  183POPC   O1220967   3.835   5.422   7.161 -0.1449 -0.5283  0.1061
  183POPC   O1120968   4.000   5.586   7.092 -0.1129  0.0540 -0.1386
  183POPC    C120969   4.115   5.537   7.026  0.4496 -0.0736  0.7756
  183POPC    HA20970   4.139   5.431   7.050  1.0495 -1.0159 -3.2250
  183POPC    HB20971   4.206   5.585   7.069  0.2397  0.5881  0.4860
  183POPC    C220972   4.091   5.536   6.869 -0.5474  0.0702  0.2304
  183POPC    HS20973   4.070   5.635   6.824 -0.0545 -0.3890 -1.0770
  183POPC   O2120974   3.987   5.444   6.832  0.7967 -0.0457 -0.4436
  183POPC   C2120975   3.860   5.505   6.838  0.4324 -0.3561 -0.2809
  183POPC   O2220976   3.842   5.623   6.858 -0.7804 -0.3647 -0.2441
  183POPC   C2220977   3.756   5.402   6.803 -0.3494 -0.1850 -0.0783
  183POPC   H2R20978   3.676   5.394   6.879 -0.5537 -2.3413 -0.4702
  183POPC   H2S20979   3.807   5.304   6.800 -2.4679 -1.3132 -0.8503
  183POPC    C320980   4.222   5.481   6.803  0.0235 -0.5375 -0.3430
  183POPC    HX20981   4.251   5.383   6.846  1.7066  0.2060  0.2724
  183POPC    HY20982   4.310   5.537   6.841 -0.9108  0.5661  0.2364
  183POPC   O3120983   4.216   5.465   6.658  0.4796 -0.0246 -0.4840
  183POPC   C3120984   4.229   5.579   6.592 -0.5203 -0.2900  0.6059
  183POPC   O3220985   4.255   5.688   6.638 -0.9721  0.1800  0.0315
  183POPC   C3220986   4.224   5.552   6.435 -0.3439 -0.0427 -0.3178
  183POPC   H2X20987   4.126   5.504   6.414 -0.8602  0.4091  0.8859
  183POPC   H2Y20988   4.309   5.482   6.423  0.5456  0.1840  3.3439
  183POPC   C2320989   3.702   5.435   6.665  0.0830 -0.2719 -0.4079
  183POPC   H3R20990   3.780   5.432   6.585  2.3117  0.7842  1.6009
  183POPC   H3S20991   3.657   5.536   6.670  2.4239  0.7935  2.5889
  183POPC   C2420992   3.592   5.338   6.625  0.4229 -0.3334  0.2028
  183POPC   H4R20993   3.514   5.349   6.703 -0.8764  0.6292 -1.1700
  183POPC   H4S20994   3.618   5.230   6.621  3.2868  0.3253 -1.6614
  183POPC   C2520995   3.514   5.374   6.491 -0.0327  0.7676 -0.4733
  183POPC   H5R20996   3.483   5.480   6.498  0.5833  1.0943 -2.1887
  183POPC   H5S20997   3.423   5.309   6.495  2.0394 -2.4012 -1.0436
  183POPC   C2620998   3.602   5.369   6.367  0.6059  0.1166  0.5926
  183POPC   H6R20999   3.643   5.266   6.368  1.9010  0.6036  2.0989
  183POPC   H6S21000   3.688   5.438   6.379  0.0860  0.9353 -0.2946
  183POPC   C2721001   3.519   5.403   6.240  0.0319 -0.6077  0.0337
  183POPC   H7R21002   3.469   5.502   6.242 -0.1037 -0.6742 -0.0526
  183POPC   H7S21003   3.438   5.328   6.230 -0.6557  0.2926 -1.3441
  183POPC   C2821004   3.605   5.387   6.111  0.9154 -0.0852  0.3539
  183POPC   H8R21005   3.628   5.278   6.112 -0.1566 -0.3132  1.1264
  183POPC   H8S21006   3.698   5.447   6.120 -1.4928  3.6357  4.0037
  183POPC   C2921007   3.541   5.428   5.985 -0.2887  0.1862  0.9055
  183POPC   H9121008   3.458   5.495   6.010  0.5534  0.9309  1.7832
  183POPC  C21021009   3.592   5.418   5.858  0.2499 -0.2566  0.4227
  183POPC  H10121010   3.548   5.454   5.764  0.5060 -2.2285 -0.4933
  183POPC  C21121011   3.720   5.342   5.818  0.6579 -0.1648 -0.4786
  183POPC  H11R21012   3.771   5.332   5.916 -1.6222  3.4038  1.2986
  183POPC  H11S21013   3.779   5.409   5.752 -0.9672  0.1581 -1.6742
  183POPC  C21221014   3.700   5.212   5.740  0.3090  0.1883  0.0744
  183POPC  H12R21015   3.601   5.166   5.761  0.7004 -0.1005  1.3334
  183POPC  H12S21016   3.773   5.137   5.778  0.3383 -0.0734 -0.4816
  183POPC  C21321017   3.710   5.230   5.586  0.3944 -0.6643  0.4488
  183POPC  H13R21018   3.698   5.130   5.538 -0.5254 -0.9433  1.2052
  183POPC  H13S21019   3.811   5.266   5.559 -0.6626  0.7087 -1.9708
  183POPC  C21421020   3.596   5.322   5.531  0.5150  0.1955  0.3112
  183POPC  H14R21021   3.604   5.422   5.578  2.1147  0.0114  0.4781
  183POPC  H14S21022   3.511   5.262   5.572  0.5773  0.5177  0.9260
  183POPC  C21521023   3.586   5.324   5.383 -0.0798 -0.8612 -0.4401
  183POPC  H15R21024   3.483   5.359   5.360 -0.3540 -1.1468  0.3121
  183POPC  H15S21025   3.592   5.223   5.337  1.8200 -0.9582 -0.0467
  183POPC  C21621026   3.686   5.417   5.307  0.2673  0.7962  0.1701
  183POPC  H16R21027   3.770   5.347   5.287 -1.1299 -0.8267 -0.2816
  183POPC  H16S21028   3.719   5.504   5.367  1.9116 -0.3228  0.9724
  183POPC  C21721029   3.626   5.458   5.166 -0.3745  0.3310 -0.7089
  183POPC  H17R21030   3.595   5.365   5.113  0.7607 -0.0066 -0.8012
  183POPC  H17S21031   3.706   5.507   5.107 -0.0893  2.1308  1.0679
  183POPC  C21821032   3.518   5.559   5.187  0.1638  0.2604  0.2620
  183POPC  H18R21033   3.420   5.507   5.200  0.1712  0.3730  0.7933
  183POPC  H18S21034   3.510   5.625   5.098  0.5172 -1.1179 -0.8181
  183POPC  H18T21035   3.545   5.624   5.273  2.5722 -1.2562  0.7345
  183POPC   C3321036   4.257   5.682   6.361 -0.1162  0.1689 -1.1657
  183POPC   H3X21037   4.346   5.724   6.412  0.5607 -2.9294  0.4336
  183POPC   H3Y21038   4.187   5.768   6.361 -1.0199 -0.5315  0.3552
  183POPC   C3421039   4.304   5.655   6.213  0.4450 -0.4404  0.1778
  183POPC   H4X21040   4.379   5.574   6.219 -0.9364 -1.6810  2.3372
  183POPC   H4Y21041   4.343   5.752   6.178  1.0951 -0.7370  0.0736
  183POPC   C3521042   4.175   5.619   6.125 -0.2901 -0.4751  0.1788
  183POPC   H5X21043   4.091   5.684   6.159  0.0002 -0.4259  0.8268
  183POPC   H5Y21044   4.151   5.512   6.143  0.8146 -0.8269 -0.3577
  183POPC   C3621045   4.178   5.642   5.969 -0.7213 -0.4107 -0.9557
  183POPC   H6X21046   4.073   5.643   5.932 -1.4411 -1.3936  0.9332
  183POPC   H6Y21047   4.229   5.555   5.921 -0.8686 -0.9687 -0.1289
  183POPC   C3721048   4.257   5.770   5.925  0.1844  0.8514  0.8242
  183POPC   H7X21049   4.360   5.764   5.966  0.0228  0.2774  1.1508
  183POPC   H7Y21050   4.210   5.856   5.977  1.1033 -0.0177  3.1920
  183POPC   C3821051   4.259   5.777   5.773 -0.1327  0.1367 -0.2015
  183POPC   H8X21052   4.152   5.790   5.744 -0.4508  2.7162  1.7753
  183POPC   H8Y21053   4.306   5.681   5.743 -2.2229 -1.5335  1.4666
  183POPC   C3921054   4.324   5.903   5.727 -0.2624 -0.7116  0.3000
  183POPC   H9X21055   4.433   5.910   5.750 -0.1713  0.7593 -0.4740
  183POPC   H9Y21056   4.270   5.980   5.786 -0.0320  0.8284 -1.4216
  183POPC  C31021057   4.304   5.926   5.576 -0.5859  0.5840 -0.3695
  183POPC  H10X21058   4.202   5.891   5.551 -0.1269 -0.7777 -0.4072
  183POPC  H10Y21059   4.373   5.855   5.527  1.1640  0.9115  1.4626
  183POPC  C31121060   4.346   6.068   5.530 -0.2671  0.0188  0.3023
  183POPC  H11X21061   4.445   6.086   5.577 -1.8069 -1.1008  4.3281
  183POPC  H11Y21062   4.283   6.149   5.570  3.0303  3.4641 -0.9034
  183POPC  C31221063   4.343   6.077   5.374 -0.6327 -0.0748  0.0021
  183POPC  H12X21064   4.246   6.039   5.337  0.2826 -2.5427 -0.0843
  183POPC  H12Y21065   4.413   5.994   5.350 -1.3928 -0.8842  0.5565
  183POPC  C31321066   4.370   6.209   5.306  0.6715 -0.6259  0.3348
  183POPC  H13X21067   4.311   6.288   5.358  0.3964 -0.6124  0.0137
  183POPC  H13Y21068   4.313   6.220   5.211 -1.3649  2.4999  1.7320
  183POPC  C31421069   4.513   6.255   5.300 -0.4558 -0.4385  0.1130
  183POPC  H14X21070   4.565   6.215   5.210  2.9619  0.3150  1.5807
  183POPC  H14Y21071   4.561   6.207   5.388  0.4181  1.0346  0.4745
  183POPC  C31521072   4.521   6.407   5.297  0.1789 -0.1256  0.2889
  183POPC  H15X21073   4.456   6.448   5.377  1.8059  0.3514  1.4119
  183POPC  H15Y21074   4.476   6.448   5.204  0.1977  1.4365  0.9287
  183POPC  C31621075   4.666   6.463   5.287 -0.1201 -0.0182  0.4116
  183POPC  H16X21076   4.706   6.486   5.388 -1.0680 -0.7281  0.9610
  183POPC  H16Y21077   4.669   6.560   5.233  1.0043 -0.3499 -0.1497
  183POPC  H16Z21078   4.730   6.392   5.230  0.9099 -0.6507  2.2658
  184POPC     N21079   5.071   6.677   7.357  0.7745 -0.2767  0.3387
  184POPC   C1221080   5.145   6.640   7.228 -0.0225  0.5329 -0.1981
  184POPC  H12A21081   5.114   6.714   7.155  3.1168  0.6929 -1.5458
  184POPC  H12B21082   5.123   6.543   7.187  1.3678  0.7247 -1.5083
  184POPC   C1321083   5.122   6.612   7.480 -0.6350  0.7787  0.0697
  184POPC  H13A21084   5.222   6.651   7.494  0.0727 -1.6867  2.7612
  184POPC  H13B21085   5.066   6.644   7.567  1.7277  2.1771  1.2104
  184POPC  H13C21086   5.136   6.507   7.464  0.9480  1.3765 -3.3560
  184POPC   C1421087   5.079   6.821   7.393  0.7192 -0.3760  0.3399
  184POPC  H14A21088   5.055   6.887   7.311 -0.3631 -0.6116  0.4568
  184POPC  H14B21089   5.000   6.831   7.466 -1.0844 -2.2124 -1.2612
  184POPC  H14C21090   5.173   6.857   7.434  1.5111  0.4930 -2.0576
  184POPC   C1521091   4.922   6.637   7.327 -0.1489 -0.2977  0.1834
  184POPC  H15A21092   4.897   6.532   7.340  1.7970 -0.6919  1.1489
  184POPC  H15B21093   4.895   6.678   7.231  0.6073 -0.5607 -0.1481
  184POPC  H15C21094   4.857   6.676   7.403 -0.6804 -2.8977  1.1616
  184POPC   C1121095   5.296   6.653   7.233  0.7428 -0.0287 -0.6161
  184POPC  H11A21096   5.329   6.751   7.275 -0.1592  0.1446 -0.2693
  184POPC  H11B21097   5.317   6.657   7.125  0.0223  2.3516 -0.7360
  184POPC     P21098   5.374   6.409   7.226  0.2600  0.2789 -0.1987
  184POPC   O1321099   5.396   6.307   7.334  0.0769 -0.1374  0.6176
  184POPC   O1421100   5.485   6.420   7.128 -0.3718  0.1978 -0.1967
  184POPC   O1221101   5.356   6.551   7.304  0.0282 -0.4259  0.2482
  184POPC   O1121102   5.237   6.384   7.149 -0.2634 -0.3840 -0.6813
  184POPC    C121103   5.217   6.269   7.071  0.4866 -0.2772  0.5244
  184POPC    HA21104   5.128   6.210   7.101 -0.2982  0.9301  0.6363
  184POPC    HB21105   5.292   6.187   7.084  2.7273  1.6885  0.5935
  184POPC    C221106   5.186   6.309   6.926  1.2844 -0.4307 -0.3248
  184POPC    HS21107   5.165   6.219   6.865 -1.2609  0.4020 -0.7847
  184POPC   O2121108   5.295   6.377   6.865  0.3855  0.5062  0.5390
  184POPC   C2121109   5.407   6.314   6.829  1.1195  0.0235  0.0969
  184POPC   O2221110   5.427   6.200   6.873 -0.0923 -0.4923  0.6621
  184POPC   C2221111   5.480   6.377   6.715 -0.3542  0.5043 -0.7127
  184POPC   H2R21112   5.570   6.312   6.710 -0.5130  0.0955  1.0088
  184POPC   H2S21113   5.517   6.480   6.734 -0.3636  0.1673  1.3887
  184POPC    C321114   5.047   6.394   6.921 -0.0145 -0.5834  0.4979
  184POPC    HX21115   5.083   6.495   6.948 -1.5246  0.4339 -1.0759
  184POPC    HY21116   4.987   6.353   7.005 -0.2574  0.2292  0.7226
  184POPC   O3121117   4.983   6.383   6.788 -0.3614  0.6257  0.0846
  184POPC   C3121118   4.900   6.278   6.773  0.0703 -0.2472 -0.3029
  184POPC   O3221119   4.878   6.189   6.851  0.6136 -0.4596  0.2342
  184POPC   C3221120   4.854   6.272   6.630  0.2625 -0.9655 -0.2593
  184POPC   H2X21121   4.779   6.353   6.624 -0.7934 -1.8406  0.4946
  184POPC   H2Y21122   4.798   6.177   6.616  2.0747 -1.8874 -1.6733
  184POPC   C2321123   5.406   6.376   6.579  0.1726  0.2976 -0.0053
  184POPC   H3R21124   5.446   6.448   6.504 -2.4648  2.0151  0.1113
  184POPC   H3S21125   5.302   6.413   6.591 -0.4462 -1.2223 -0.4416
  184POPC   C2421126   5.410   6.233   6.528 -0.2704  0.5827  0.1686
  184POPC   H4R21127   5.393   6.161   6.610  0.5481  1.1487  0.8552
  184POPC   H4S21128   5.514   6.210   6.495 -0.1682  1.4400 -0.1517
  184POPC   C2521129   5.313   6.196   6.417  0.5687 -0.0224 -1.0053
  184POPC   H5R21130   5.293   6.295   6.369 -0.9361 -0.6522 -1.7196
  184POPC   H5S21131   5.214   6.157   6.449 -0.7595  3.0981 -0.9270
  184POPC   C2621132   5.379   6.109   6.308  0.3488 -0.3227  0.0429
  184POPC   H6R21133   5.486   6.137   6.296  0.5217  0.5456  2.8821
  184POPC   H6S21134   5.320   6.115   6.214 -1.3260  1.4954  1.1206
  184POPC   C2721135   5.384   5.967   6.365  0.3809 -0.3268  0.0215
  184POPC   H7R21136   5.284   5.931   6.398  1.2842 -0.2435  3.2833
  184POPC   H7S21137   5.444   5.960   6.458 -2.2104 -0.6485  1.7939
  184POPC   C2821138   5.438   5.869   6.260 -0.7324  0.1986 -0.3764
  184POPC   H8R21139   5.533   5.909   6.219 -0.7651  0.1512 -0.5012
  184POPC   H8S21140   5.378   5.846   6.169  0.5735  3.0214 -2.0622
  184POPC   C2921141   5.472   5.737   6.327  0.6187  0.3319 -0.2815
  184POPC   H9121142   5.432   5.717   6.428 -1.6065 -2.2673 -1.5343
  184POPC  C21021143   5.526   5.630   6.258  0.1924  0.2504 -0.6410
  184POPC  H10121144   5.546   5.539   6.317  1.4791  0.3342 -0.9188
  184POPC  C21121145   5.581   5.621   6.120  0.0815  0.2011  0.4744
  184POPC  H11R21146   5.688   5.591   6.114 -0.3314 -1.0081 -1.8308
  184POPC  H11S21147   5.577   5.725   6.080  0.6021  0.7906  1.8829
  184POPC  C21221148   5.506   5.530   6.018  0.0349 -0.4683  0.1619
  184POPC  H12R21149   5.401   5.566   6.015  0.2294  0.2379  1.1006
  184POPC  H12S21150   5.514   5.428   6.060  1.5221 -0.7712 -0.7711
  184POPC  C21321151   5.574   5.554   5.886 -0.8287  0.1246 -0.4825
  184POPC  H13R21152   5.683   5.532   5.892 -0.4255  2.0045 -0.2845
  184POPC  H13S21153   5.577   5.662   5.863 -1.1949  0.5830  1.4915
  184POPC  C21421154   5.519   5.472   5.777 -0.1569  0.3671  0.2698
  184POPC  H14R21155   5.408   5.470   5.774 -0.1319 -0.5165 -0.5602
  184POPC  H14S21156   5.550   5.366   5.792 -0.5327  0.4135  1.4812
  184POPC  C21521157   5.569   5.507   5.636 -1.2403 -0.4568 -0.0018
  184POPC  H15R21158   5.523   5.437   5.563 -0.0206 -1.9010  0.5748
  184POPC  H15S21159   5.677   5.485   5.636 -0.5823  2.3522  0.2341
  184POPC  C21621160   5.557   5.652   5.589 -0.4154  0.2685  0.6938
  184POPC  H16R21161   5.656   5.693   5.562 -1.1163 -0.0493 -2.8259
  184POPC  H16S21162   5.505   5.706   5.671  1.5532 -0.8012  2.7656
  184POPC  C21721163   5.482   5.639   5.457 -0.4165 -1.1129 -0.2726
  184POPC  H17R21164   5.416   5.727   5.444 -3.8728 -3.3419  0.9036
  184POPC  H17S21165   5.403   5.562   5.463 -0.7502 -0.7337  0.3683
  184POPC  C21821166   5.572   5.631   5.337 -0.2615 -0.0613  1.0730
  184POPC  H18R21167   5.527   5.644   5.237  2.0840  0.0290 -0.0207
  184POPC  H18S21168   5.622   5.533   5.324 -0.4062  0.0004 -0.0361
  184POPC  H18T21169   5.650   5.710   5.344  0.6440 -0.7519 -0.7510
  184POPC   C3321170   4.972   6.277   6.527 -0.0937  0.3487  0.2211
  184POPC   H3X21171   5.034   6.185   6.529  0.3792  0.5974 -1.2678
  184POPC   H3Y21172   5.032   6.370   6.540 -1.8526  1.5842 -0.0642
  184POPC   C3421173   4.918   6.287   6.379  0.2352 -0.1248 -0.4023
  184POPC   H4X21174   4.846   6.372   6.383 -0.1457 -0.4379 -0.5543
  184POPC   H4Y21175   4.860   6.194   6.360 -1.1337  0.4769  0.6200
  184POPC   C3521176   5.018   6.306   6.269  0.6591 -0.1174 -0.2387
  184POPC   H5X21177   5.091   6.223   6.259 -0.8856 -1.4541 -0.8004
  184POPC   H5Y21178   5.071   6.401   6.292  0.8141 -0.6429  1.7373
  184POPC   C3621179   4.945   6.308   6.138  0.8779 -0.0120  0.2326
  184POPC   H6X21180   4.870   6.386   6.113  0.7473 -0.4353 -0.7402
  184POPC   H6Y21181   4.876   6.221   6.133  1.8054 -0.8085  0.9030
  184POPC   C3721182   5.023   6.290   6.011  0.2627  0.6369 -0.2657
  184POPC   H7X21183   5.073   6.388   6.000 -1.1629  1.5033  0.7781
  184POPC   H7Y21184   4.948   6.274   5.931  1.4546  0.0180 -1.3007
  184POPC   C3821185   5.125   6.179   6.012 -0.1897 -0.0821 -0.5468
  184POPC   H8X21186   5.086   6.077   6.033 -0.2610 -0.1834 -1.1412
  184POPC   H8Y21187   5.208   6.213   6.078 -0.4316  0.8403 -0.6983
  184POPC   C3921188   5.182   6.165   5.872 -0.4793  0.0498  0.1241
  184POPC   H9X21189   5.204   6.265   5.830 -2.0504  0.2104 -0.3780
  184POPC   H9Y21190   5.091   6.140   5.814 -0.5942  1.9297 -0.5615
  184POPC  C31021191   5.297   6.067   5.868 -0.0933 -0.2772  0.0455
  184POPC  H10X21192   5.264   5.965   5.897 -0.7104 -1.1659 -3.3587
  184POPC  H10Y21193   5.384   6.095   5.932 -1.0965 -0.5275  1.5777
  184POPC  C31121194   5.352   6.067   5.723 -0.2492  0.3295  0.1478
  184POPC  H11X21195   5.343   6.172   5.688  0.6609 -0.3740 -2.3596
  184POPC  H11Y21196   5.290   5.997   5.662 -1.1807 -0.5367  1.9955
  184POPC  C31221197   5.497   6.019   5.707  0.4385  0.8099 -0.5371
  184POPC  H12X21198   5.510   5.919   5.755  0.3654  0.6240 -0.8957
  184POPC  H12Y21199   5.566   6.088   5.759  3.5903 -3.9026  2.2392
  184POPC  C31321200   5.551   5.996   5.561 -0.0305 -0.2869  0.1123
  184POPC  H13X21201   5.485   5.913   5.528 -0.1597 -0.3058  0.4190
  184POPC  H13Y21202   5.656   5.961   5.553 -0.0245 -0.6113  1.4153
  184POPC  C31421203   5.542   6.125   5.476  0.8089 -0.3426 -0.2430
  184POPC  H14X21204   5.582   6.216   5.527 -2.5042  0.2918  1.5171
  184POPC  H14Y21205   5.438   6.148   5.444 -0.5430 -1.2554  3.1219
  184POPC  C31521206   5.613   6.106   5.347 -0.0701  0.3552 -0.0763
  184POPC  H15X21207   5.560   6.029   5.288 -1.3675  1.2365 -0.1012
  184POPC  H15Y21208   5.719   6.075   5.351 -0.1869 -0.1608 -0.9640
  184POPC  C31621209   5.603   6.239   5.261  0.2693  0.5456 -0.6205
  184POPC  H16X21210   5.632   6.210   5.157  0.1676  1.4509 -0.9064
  184POPC  H16Y21211   5.662   6.323   5.302  2.3024 -1.2624  0.3790
  184POPC  H16Z21212   5.497   6.270   5.259 -0.0529 -0.4635  0.2183
  185POPC     N21213   2.811   0.217   2.238 -0.5503  0.2111 -0.3226
  185POPC   C1221214   2.936   0.269   2.176 -1.0879 -0.2687 -0.3005
  185POPC  H12A21215   2.992   0.314   2.257 -1.0775 -3.4758  1.6480
  185POPC  H12B21216   2.916   0.354   2.112 -0.9386 -0.7949 -1.0594
  185POPC   C1321217   2.824   0.146   2.369  0.0110  0.1994 -0.1214
  185POPC  H13A21218   2.839   0.211   2.454 -0.8945 -2.0166  1.8462
  185POPC  H13B21219   2.735   0.088   2.384  1.9004 -3.1728 -0.9204
  185POPC  H13C21220   2.906   0.076   2.363 -0.4914 -0.3967 -0.0834
  185POPC   C1421221   2.724   0.336   2.272  0.6442  0.1967  0.5832
  185POPC  H14A21222   2.770   0.382   2.359  1.4085 -1.7754  1.2619
  185POPC  H14B21223   2.717   0.409   2.192 -1.1224 -0.8393 -0.2761
  185POPC  H14C21224   2.624   0.306   2.301  0.2412  1.4778  0.6101
  185POPC   C1521225   2.739   0.131   2.142 -0.5319 -0.7086 -0.8439
  185POPC  H15A21226   2.811   0.052   2.126  1.9036  1.5272 -1.7161
  185POPC  H15B21227   2.720   0.182   2.048 -0.1202  1.4800  0.1871
  185POPC  H15C21228   2.651   0.085   2.184  0.0021 -0.3352  0.7392
  185POPC   C1121229   3.029   0.167   2.102  0.2520 -0.0512  0.1880
  185POPC  H11A21230   3.122   0.209   2.059  1.6055 -0.8874  2.1532
  185POPC  H11B21231   2.970   0.129   2.016  1.1733  0.3126 -0.6104
  185POPC     P21232   3.180   0.025   2.271 -0.4658 -0.0164  0.2271
  185POPC   O1321233   3.285   0.129   2.245  0.2097  0.1839  0.1618
  185POPC   O1421234   3.237  -0.113   2.276 -0.4987  0.8838  0.3753
  185POPC   O1221235   3.061   0.043   2.170  0.2910  0.0815 -0.4446
  185POPC   O1121236   3.107   0.041   2.414 -0.0908  0.1197  0.3366
  185POPC    C121237   3.151   0.148   2.504 -0.3403  0.3218 -0.4787
  185POPC    HA21238   3.068   0.173   2.573 -0.9056 -1.6996 -0.3576
  185POPC    HB21239   3.170   0.244   2.452  1.6180  0.7220  0.8422
  185POPC    C221240   3.278   0.102   2.591  0.2797  0.3455 -0.0646
  185POPC    HS21241   3.368   0.098   2.526  0.8123 -1.6764  0.7051
  185POPC   O2121242   3.239  -0.023   2.649 -0.2397  0.2882 -0.2488
  185POPC   C2121243   3.343  -0.085   2.705 -0.0595 -0.2411  0.4305
  185POPC   O2221244   3.458  -0.062   2.681 -0.2800 -0.3657 -0.5007
  185POPC   C2221245   3.290  -0.187   2.808 -0.2801  0.0452 -0.7794
  185POPC   H2R21246   3.262  -0.289   2.774 -3.3102  0.6586 -0.4256
  185POPC   H2S21247   3.201  -0.134   2.850  1.2997  1.7174  0.6771
  185POPC    C321248   3.316   0.210   2.704  0.0574  0.2906  0.2081
  185POPC    HX21249   3.347   0.303   2.652 -1.6791  0.0565 -1.3492
  185POPC    HY21250   3.408   0.172   2.753  0.1784  3.6743  2.9977
  185POPC   O3121251   3.210   0.228   2.800  0.4234 -0.1553  0.0936
  185POPC   C3121252   3.221   0.172   2.919  0.8607  0.6748 -0.0509
  185POPC   O3221253   3.305   0.093   2.956 -0.1952  0.5742  0.3561
  185POPC   C3221254   3.093   0.199   2.997 -0.2544 -0.7106 -0.1716
  185POPC   H2X21255   3.013   0.141   2.946  0.2139 -2.0911  0.5995
  185POPC   H2Y21256   3.081   0.308   3.013  0.5876 -0.7793  1.1247
  185POPC   C2321257   3.381  -0.201   2.936  0.4591 -0.2200  0.6693
  185POPC   H3R21258   3.406  -0.101   2.977  1.1769 -0.4883  0.8881
  185POPC   H3S21259   3.479  -0.237   2.899  0.9000  1.0025  0.5942
  185POPC   C2421260   3.309  -0.290   3.038 -0.1179  0.1143  0.4080
  185POPC   H4R21261   3.308  -0.391   2.992 -1.3166  0.3330 -0.0913
  185POPC   H4S21262   3.205  -0.254   3.058 -1.2868 -0.9266 -3.1110
  185POPC   C2521263   3.392  -0.291   3.172  0.3690 -0.7697 -0.1740
  185POPC   H5R21264   3.406  -0.184   3.199 -0.2502 -0.8469  0.4774
  185POPC   H5S21265   3.490  -0.336   3.144  2.1551  2.5137  0.2198
  185POPC   C2621266   3.330  -0.355   3.294  0.6960  0.2081  0.0367
  185POPC   H6R21267   3.319  -0.465   3.292  1.2395  0.1655 -0.9511
  185POPC   H6S21268   3.229  -0.310   3.307  0.9087  1.1940 -1.4801
  185POPC   C2721269   3.397  -0.313   3.430  0.1805 -0.6880  0.2015
  185POPC   H7R21270   3.321  -0.341   3.506 -1.1121  2.5452  0.2320
  185POPC   H7S21271   3.400  -0.202   3.427  0.0180 -0.7037 -0.9626
  185POPC   C2821272   3.529  -0.387   3.458  0.0473  0.9384  0.0874
  185POPC   H8R21273   3.590  -0.336   3.535 -0.8531  3.0219 -0.4926
  185POPC   H8S21274   3.583  -0.373   3.362 -1.1570  2.0819 -0.4607
  185POPC   C2921275   3.497  -0.537   3.480 -0.0435 -0.0088  0.5108
  185POPC   H9121276   3.471  -0.591   3.387 -1.1203  0.8664  0.2857
  185POPC  C21021277   3.530  -0.610   3.597  0.6114 -0.2949 -0.4497
  185POPC  H10121278   3.490  -0.712   3.597  1.7959 -0.8024 -1.9710
  185POPC  C21121279   3.591  -0.553   3.721 -0.5367 -0.2671  0.8140
  185POPC  H11R21280   3.682  -0.498   3.685 -1.1177  1.9627  2.5464
  185POPC  H11S21281   3.612  -0.627   3.800 -0.3863 -1.0318  0.0766
  185POPC  C21221282   3.495  -0.460   3.798 -0.3224 -0.3856 -0.1414
  185POPC  H12R21283   3.408  -0.522   3.827 -0.4394  0.0727  0.5009
  185POPC  H12S21284   3.464  -0.382   3.725  0.2938  1.1655  1.1833
  185POPC  C21321285   3.560  -0.382   3.915  0.7571  0.4389 -0.0641
  185POPC  H13R21286   3.495  -0.295   3.940 -0.7997 -0.4329 -0.8790
  185POPC  H13S21287   3.652  -0.332   3.878  1.2841 -1.6859 -1.8916
  185POPC  C21421288   3.600  -0.471   4.035  0.1825  0.2717  0.2087
  185POPC  H14R21289   3.621  -0.570   3.991 -1.1735 -1.0777  2.4075
  185POPC  H14S21290   3.513  -0.486   4.102 -0.4259 -0.0365 -0.6416
  185POPC  C21521291   3.720  -0.413   4.114  0.3392 -0.2102 -0.0876
  185POPC  H15R21292   3.809  -0.397   4.049  0.3734 -1.6732 -0.4253
  185POPC  H15S21293   3.756  -0.484   4.191  1.4258  0.7476  0.3141
  185POPC  C21621294   3.683  -0.276   4.189  0.3951  0.3663  0.3445
  185POPC  H16R21295   3.627  -0.205   4.125 -1.9412  0.3745  2.2447
  185POPC  H16S21296   3.786  -0.241   4.210  1.7416 -1.0705 -3.0932
  185POPC  C21721297   3.607  -0.302   4.313  0.1509 -0.4830 -0.4623
  185POPC  H17R21298   3.541  -0.386   4.285 -0.0070  0.5695 -3.6672
  185POPC  H17S21299   3.550  -0.213   4.347 -0.3467 -1.0698  0.2738
  185POPC  C21821300   3.684  -0.337   4.442  0.0919  0.5884  0.6268
  185POPC  H18R21301   3.721  -0.442   4.435  1.6778  1.1806 -0.4437
  185POPC  H18S21302   3.616  -0.314   4.527 -0.7787 -0.4500  0.2370
  185POPC  H18T21303   3.778  -0.283   4.461  1.0398 -1.2339  1.4031
  185POPC   C3321304   3.113   0.128   3.131 -0.2144 -0.0390 -0.6831
  185POPC   H3X21305   3.212   0.165   3.164  0.0288 -0.7878 -0.5699
  185POPC   H3Y21306   3.115   0.017   3.125 -0.6340  0.0174 -2.2615
  185POPC   C3421307   3.003   0.164   3.233 -1.0947  0.3078  1.1832
  185POPC   H4X21308   2.914   0.129   3.176 -0.2538 -1.4475  0.8581
  185POPC   H4Y21309   2.997   0.273   3.252  0.5251  0.6376  0.0377
  185POPC   C3521310   3.022   0.098   3.364  0.1075  0.1347  0.1263
  185POPC   H5X21311   3.037  -0.009   3.338  1.5451  0.5667 -0.9178
  185POPC   H5Y21312   2.926   0.106   3.421 -0.0384  0.5929 -0.1798
  185POPC   C3621313   3.138   0.152   3.459 -0.2772  0.5114  0.2360
  185POPC   H6X21314   3.136   0.261   3.481 -1.4934  0.3925  0.7784
  185POPC   H6Y21315   3.234   0.127   3.409 -0.5340  1.5770 -0.8455
  185POPC   C3721316   3.139   0.075   3.591 -0.4995 -0.2196 -0.7880
  185POPC   H7X21317   3.177  -0.026   3.564  0.6855  0.1629 -0.6200
  185POPC   H7Y21318   3.039   0.062   3.635  0.5186 -1.4017  1.3108
  185POPC   C3821319   3.227   0.146   3.692 -0.3342 -0.1720  0.0614
  185POPC   H8X21320   3.195   0.253   3.699  0.0026 -0.0554 -0.1580
  185POPC   H8Y21321   3.336   0.147   3.672 -0.0704  2.6500  1.0621
  185POPC   C3921322   3.201   0.073   3.826 -0.7379 -0.1451 -0.1819
  185POPC   H9X21323   3.241  -0.030   3.826  1.5365  0.6586 -1.7114
  185POPC   H9Y21324   3.092   0.069   3.846 -0.1168  1.5033  5.3727
  185POPC  C31021325   3.270   0.137   3.946 -0.7729  0.0220  0.4301
  185POPC  H10X21326   3.214   0.225   3.984  0.4907  1.0962 -0.1446
  185POPC  H10Y21327   3.367   0.180   3.915 -1.6921  0.6480 -1.8392
  185POPC  C31121328   3.304   0.046   4.061 -0.0481  0.2619 -0.1073
  185POPC  H11X21329   3.371  -0.042   4.051  0.5340  0.6091  0.5872
  185POPC  H11Y21330   3.208  -0.002   4.090  0.4861 -1.3432 -0.8576
  185POPC  C31221331   3.365   0.132   4.179  0.2567  0.7464  0.7556
  185POPC  H12X21332   3.300   0.221   4.194 -0.8199 -0.2607  2.2517
  185POPC  H12Y21333   3.457   0.174   4.132  0.9475 -3.2498 -1.9494
  185POPC  C31321334   3.371   0.064   4.313 -0.2325 -0.8547 -0.0539
  185POPC  H13X21335   3.455  -0.009   4.322 -1.9140 -2.6922  1.5792
  185POPC  H13Y21336   3.266   0.028   4.310  0.0249 -1.5606 -0.9017
  185POPC  C31421337   3.376   0.170   4.424 -0.0798 -0.2299 -0.2238
  185POPC  H14X21338   3.281   0.223   4.403 -1.5271 -2.6834 -0.1761
  185POPC  H14Y21339   3.457   0.246   4.414 -1.2910  1.5092  2.2036
  185POPC  C31521340   3.388   0.110   4.567  0.2168 -0.3788 -0.0911
  185POPC  H15X21341   3.310   0.032   4.566  2.4059 -2.6809 -0.6452
  185POPC  H15Y21342   3.361   0.190   4.639  0.8499 -0.8199  0.6500
  185POPC  C31621343   3.520   0.041   4.617 -0.0299 -0.5865  0.4525
  185POPC  H16X21344   3.539  -0.043   4.547 -0.3687  1.8034 -2.7998
  185POPC  H16Y21345   3.508  -0.007   4.716  0.1069 -1.3931  0.0867
  185POPC  H16Z21346   3.609   0.107   4.622  0.8000 -1.7770  1.8027
  186POPC     N21347   0.304   1.339   2.764  0.6736  0.5717  0.8323
  186POPC   C1221348   0.175   1.313   2.833  0.9109 -0.0576 -0.3979
  186POPC  H12A21349   0.094   1.297   2.764  0.7017 -0.2224 -0.1166
  186POPC  H12B21350   0.143   1.403   2.884 -1.9221  0.3310 -2.5762
  186POPC   C1321351   0.344   1.216   2.675  0.1545  0.2616  0.2288
  186POPC  H13A21352   0.437   1.237   2.625  1.3501  1.0429  2.6201
  186POPC  H13B21353   0.354   1.121   2.725 -0.4584 -0.7171 -1.4253
  186POPC  H13C21354   0.263   1.196   2.606  0.4827 -0.5069  0.0600
  186POPC   C1421355   0.300   1.461   2.684 -0.9119  0.0544 -0.2663
  186POPC  H14A21356   0.278   1.550   2.741 -1.0394  0.5456 -1.0626
  186POPC  H14B21357   0.396   1.469   2.637 -1.2511  1.5721 -0.7511
  186POPC  H14C21358   0.226   1.450   2.606 -0.9191  1.6265 -0.5045
  186POPC   C1521359   0.419   1.357   2.860 -0.3693  0.3974  0.3022
  186POPC  H15A21360   0.505   1.384   2.802 -0.5134 -0.8040 -0.5144
  186POPC  H15B21361   0.440   1.271   2.922 -1.3830  0.2180  0.4187
  186POPC  H15C21362   0.397   1.438   2.928 -0.8964 -0.8041  1.6344
  186POPC   C1121363   0.168   1.206   2.946  0.2276 -0.3739  0.5480
  186POPC  H11A21364   0.068   1.216   2.993 -1.0603 -0.3518 -1.9830
  186POPC  H11B21365   0.247   1.225   3.022 -0.4755  1.0029  0.9704
  186POPC     P21366   0.055   0.997   2.831 -0.0473 -0.1820 -0.2457
  186POPC   O1321367   0.094   0.870   2.764  0.4487 -0.4743 -0.2099
  186POPC   O1421368  -0.018   1.091   2.744  0.1749 -0.6518  0.9371
  186POPC   O1221369   0.187   1.071   2.891  0.0543 -0.2316  0.4048
  186POPC   O1121370  -0.024   0.965   2.958  0.5086  0.1766  0.4227
  186POPC    C121371   0.017   0.874   3.058  0.1060  0.2552 -0.2035
  186POPC    HA21372   0.118   0.828   3.050 -0.5617 -1.5201  0.9115
  186POPC    HB21373  -0.053   0.788   3.052  2.7156 -2.0443 -0.0368
  186POPC    C221374   0.015   0.942   3.196 -0.6358  0.1000 -0.5924
  186POPC    HS21375   0.109   0.999   3.211 -0.4087 -0.0606 -1.3792
  186POPC   O2121376   0.014   0.831   3.294 -0.5086  0.6234  0.0301
  186POPC   C2121377   0.130   0.768   3.312 -0.3506  0.7362  0.2017
  186POPC   O2221378   0.237   0.808   3.273  0.0499 -0.7127  0.2149
  186POPC   C2221379   0.114   0.629   3.370 -0.4158  0.6145  0.0052
  186POPC   H2R21380   0.091   0.549   3.297  2.1071 -0.1263 -0.0603
  186POPC   H2S21381   0.020   0.631   3.429  0.4356  3.1474  1.4355
  186POPC    C321382  -0.100   1.040   3.208 -0.3236  0.4950  0.3114
  186POPC    HX21383  -0.183   0.967   3.203  0.2574 -0.3080  1.7538
  186POPC    HY21384  -0.100   1.108   3.120  1.0874  0.3744  0.1933
  186POPC   O3121385  -0.087   1.101   3.340 -0.4441 -0.2784 -0.4934
  186POPC   C3121386  -0.014   1.211   3.336 -0.2846  1.3230  0.6413
  186POPC   O3221387  -0.001   1.285   3.238 -0.3162 -0.7559  0.0804
  186POPC   C3221388   0.058   1.235   3.471 -0.1448 -0.4109  0.0492
  186POPC   H2X21389  -0.004   1.202   3.557  0.0850 -1.2406 -0.0986
  186POPC   H2Y21390   0.070   1.345   3.477  0.7948 -0.5379  0.6921
  186POPC   C2321391   0.229   0.582   3.460  0.1132 -0.4157  0.7188
  186POPC   H3R21392   0.324   0.595   3.403  0.0902  1.0411  0.9875
  186POPC   H3S21393   0.229   0.475   3.490  1.0415 -0.9716 -1.0952
  186POPC   C2421394   0.244   0.669   3.585  0.4953  0.3892 -0.2902
  186POPC   H4R21395   0.158   0.643   3.651  0.1038  0.1625 -0.8772
  186POPC   H4S21396   0.241   0.777   3.557  1.7647  0.5962  0.3329
  186POPC   C2521397   0.375   0.645   3.664 -0.0821 -0.2360  0.0144
  186POPC   H5R21398   0.446   0.720   3.623  0.8168 -1.0820 -0.0201
  186POPC   H5S21399   0.400   0.538   3.649 -1.1125 -0.0491 -4.4448
  186POPC   C2621400   0.360   0.669   3.815 -0.0474  0.8124  0.1233
  186POPC   H6R21401   0.453   0.625   3.856 -1.5404 -1.8500  0.8855
  186POPC   H6S21402   0.285   0.614   3.875 -0.8757  2.2003  0.4156
  186POPC   C2721403   0.352   0.822   3.848  0.1336  0.7977 -0.4856
  186POPC   H7R21404   0.275   0.877   3.789 -0.4178 -1.1638 -1.6952
  186POPC   H7S21405   0.451   0.865   3.821 -0.3302  0.6945 -2.5292
  186POPC   C2821406   0.327   0.852   3.998 -0.5664  0.3214 -0.3178
  186POPC   H8R21407   0.247   0.785   4.033  0.1533  0.3167  1.4174
  186POPC   H8S21408   0.290   0.955   4.017  4.3660  2.0922  1.3129
  186POPC   C2921409   0.444   0.834   4.086 -0.2173 -0.6114  0.6720
  186POPC   H9121410   0.542   0.838   4.035 -0.4075  3.9084  0.1876
  186POPC  C21021411   0.446   0.801   4.213  0.0364  0.5729  0.3666
  186POPC  H10121412   0.540   0.786   4.268 -0.4673  1.1006  1.3828
  186POPC  C21121413   0.319   0.790   4.287  0.3922 -0.0221  0.0866
  186POPC  H11R21414   0.324   0.728   4.380 -1.6724 -0.6772 -0.2037
  186POPC  H11S21415   0.235   0.734   4.241 -0.3701 -0.9880  2.4681
  186POPC  C21221416   0.260   0.924   4.340 -0.7015  0.3693 -0.6457
  186POPC  H12R21417   0.151   0.919   4.363 -0.9706  1.6377 -1.5261
  186POPC  H12S21418   0.260   1.003   4.262 -1.5559 -0.1552 -1.1873
  186POPC  C21321419   0.341   0.996   4.451 -0.0480 -0.8467  0.0103
  186POPC  H13R21420   0.268   1.061   4.504  1.4952  1.4134 -0.4929
  186POPC  H13S21421   0.421   1.060   4.409 -0.1954 -0.8793 -0.3263
  186POPC  C21421422   0.397   0.904   4.560 -0.7687  0.1686  0.4547
  186POPC  H14R21423   0.475   0.838   4.517 -1.7360 -2.2480  2.2188
  186POPC  H14S21424   0.304   0.854   4.594 -1.3645  0.6143 -0.4788
  186POPC  C21521425   0.474   0.965   4.685  0.1073  0.3839  0.0570
  186POPC  H15R21426   0.390   1.021   4.732 -0.3698  0.8857 -1.3369
  186POPC  H15S21427   0.561   1.030   4.664  0.9658 -0.6602  0.2798
  186POPC  C21621428   0.518   0.850   4.779  0.8538 -0.1458 -0.6184
  186POPC  H16R21429   0.562   0.901   4.867 -1.4415 -1.2023  1.2701
  186POPC  H16S21430   0.598   0.790   4.731  1.3134  1.2701 -1.7068
  186POPC  C21721431   0.404   0.759   4.830 -0.0811 -0.2513  0.3135
  186POPC  H17R21432   0.384   0.690   4.747  0.5676 -1.6273  1.2677
  186POPC  H17S21433   0.317   0.826   4.853  1.9126  2.7661 -0.2849
  186POPC  C21821434   0.437   0.674   4.952  0.8427 -0.5006  1.0017
  186POPC  H18R21435   0.462   0.729   5.045 -2.5574  2.0816  0.5920
  186POPC  H18S21436   0.345   0.616   4.975 -0.5025  1.7271  1.5336
  186POPC  H18T21437   0.504   0.587   4.936 -0.2035 -1.3882  1.2713
  186POPC   C3321438   0.195   1.162   3.475  0.6009  0.4564 -0.1857
  186POPC   H3X21439   0.272   1.216   3.415  0.9812 -0.0069 -0.1182
  186POPC   H3Y21440   0.184   1.056   3.444 -1.8033  0.1396  1.4842
  186POPC   C3421441   0.234   1.127   3.624 -0.7871 -0.0175  0.3660
  186POPC   H4X21442   0.314   1.051   3.619  0.3205  1.1893 -1.9482
  186POPC   H4Y21443   0.149   1.085   3.682 -4.2769  3.6877 -1.4532
  186POPC   C3521444   0.275   1.263   3.688 -0.7641  0.8808 -0.6868
  186POPC   H5X21445   0.186   1.330   3.692 -1.1349  0.3514  0.8022
  186POPC   H5Y21446   0.346   1.318   3.622 -0.3227 -0.8043 -1.6793
  186POPC   C3621447   0.329   1.231   3.828  0.3010 -1.1772 -0.0027
  186POPC   H6X21448   0.430   1.184   3.832 -0.1622 -2.1887  0.0850
  186POPC   H6Y21449   0.263   1.151   3.867  0.5185 -1.0428  0.6556
  186POPC   C3721450   0.319   1.352   3.925 -0.1024  0.0144  0.3522
  186POPC   H7X21451   0.211   1.372   3.942  0.2607  1.7578  0.7915
  186POPC   H7Y21452   0.376   1.437   3.882  0.3279 -0.2771  0.3384
  186POPC   C3821453   0.370   1.304   4.060 -0.2409  0.9393 -0.0329
  186POPC   H8X21454   0.474   1.270   4.042 -0.7009  0.1901 -1.4022
  186POPC   H8Y21455   0.313   1.211   4.082  0.7063  0.5159  0.7117
  186POPC   C3921456   0.344   1.405   4.177  0.1059  0.9259 -0.4034
  186POPC   H9X21457   0.243   1.451   4.169 -0.3568 -0.0486 -0.3596
  186POPC   H9Y21458   0.419   1.486   4.165  1.8698 -0.7893 -1.7791
  186POPC  C31021459   0.372   1.326   4.307 -0.2064  0.0879  0.3035
  186POPC  H10X21460   0.466   1.270   4.288  0.5638  1.3767  0.1828
  186POPC  H10Y21461   0.302   1.243   4.330  0.4046 -1.4384 -2.8055
  186POPC  C31121462   0.390   1.406   4.437  0.2577  0.2879  0.2042
  186POPC  H11X21463   0.296   1.459   4.464  0.1325 -0.7842  2.0633
  186POPC  H11Y21464   0.472   1.480   4.421  0.2095  0.4124  0.5117
  186POPC  C31221465   0.441   1.308   4.550  0.0016 -0.2874 -0.3920
  186POPC  H12X21466   0.525   1.244   4.516  0.5757  0.1473  0.1812
  186POPC  H12Y21467   0.362   1.243   4.593  1.0102 -1.9329 -0.9537
  186POPC  C31321468   0.510   1.382   4.670 -0.0196  0.2482 -0.1947
  186POPC  H13X21469   0.592   1.448   4.635  0.3727 -0.2402 -0.2098
  186POPC  H13Y21470   0.565   1.307   4.731  0.4959 -0.7409 -1.8086
  186POPC  C31421471   0.419   1.462   4.755  0.0914  0.2115 -0.1356
  186POPC  H14X21472   0.368   1.535   4.688  0.6775 -0.6223 -1.5244
  186POPC  H14Y21473   0.487   1.530   4.812  1.0734  0.9972 -2.1578
  186POPC  C31521474   0.316   1.379   4.835  0.1188  0.6437  0.6152
  186POPC  H15X21475   0.370   1.299   4.891 -1.6061 -0.5991  0.5720
  186POPC  H15Y21476   0.244   1.330   4.767  0.5975  0.0597  0.5120
  186POPC  C31621477   0.240   1.472   4.930  0.1183  0.0634 -0.9683
  186POPC  H16X21478   0.308   1.511   5.009 -0.1790 -1.0232 -0.1543
  186POPC  H16Y21479   0.156   1.416   4.975  0.5137 -0.3879 -0.7819
  186POPC  H16Z21480   0.202   1.553   4.864 -1.4128 -1.6244 -2.2650
  187POPC     N21481   3.675   6.834   2.378  0.1334 -0.4576 -0.8056
  187POPC   C1221482   3.735   6.837   2.521 -0.3977 -0.4224  0.3453
  187POPC  H12A21483   3.753   6.737   2.557  1.1635 -1.0309 -1.9112
  187POPC  H12B21484   3.655   6.877   2.580 -1.3146  0.4901 -1.4323
  187POPC   C1321485   3.638   6.970   2.342  0.3035  0.0410  0.7565
  187POPC  H13A21486   3.558   6.962   2.270 -0.3916 -2.4288  1.6794
  187POPC  H13B21487   3.604   7.029   2.425  0.4943  1.2885 -0.0358
  187POPC  H13C21488   3.717   7.033   2.303  0.5098 -1.1774 -0.8923
  187POPC   C1421489   3.769   6.778   2.278  0.1361  0.3850 -0.4673
  187POPC  H14A21490   3.807   6.688   2.325  0.0369  0.0939 -0.9454
  187POPC  H14B21491   3.709   6.753   2.193  0.3174 -0.1095 -0.4503
  187POPC  H14C21492   3.849   6.848   2.258  3.4520 -2.3609  1.8239
  187POPC   C1521493   3.556   6.745   2.364  0.5747 -0.7231 -0.0125
  187POPC  H15A21494   3.529   6.721   2.262  2.4331 -1.8030 -0.2908
  187POPC  H15B21495   3.468   6.775   2.419  1.1012 -0.3592  0.6455
  187POPC  H15C21496   3.578   6.649   2.407  0.9447 -0.8168 -0.3985
  187POPC   C1121497   3.864   6.926   2.543 -0.3237  0.1688 -0.5915
  187POPC  H11A21498   3.894   6.907   2.649 -0.8859 -1.5640 -0.7081
  187POPC  H11B21499   3.848   7.036   2.542 -0.3755  0.1611 -0.5978
  187POPC     P21500   4.082   6.787   2.483  0.0132 -0.0005 -0.2253
  187POPC   O1321501   4.200   6.848   2.420  0.3683  0.0327 -0.1870
  187POPC   O1421502   4.051   6.644   2.452 -0.2603  0.0646  0.0383
  187POPC   O1221503   3.965   6.887   2.453  0.5030 -0.0514  0.3223
  187POPC   O1121504   4.102   6.798   2.640 -0.0382 -0.1841 -0.0251
  187POPC    C121505   4.143   6.684   2.720  0.0378 -0.3750  0.8047
  187POPC    HA21506   4.222   6.712   2.793 -0.0571  1.2556  0.3151
  187POPC    HB21507   4.182   6.605   2.654 -2.5100 -0.2439 -1.0193
  187POPC    C221508   4.022   6.623   2.795  0.2908  0.0005 -0.4325
  187POPC    HS21509   3.960   6.574   2.717  0.4659 -0.9450  0.0036
  187POPC   O2121510   3.954   6.722   2.868 -0.0250  0.8713 -0.6331
  187POPC   C2121511   3.825   6.699   2.885  0.0402 -0.7828 -0.2191
  187POPC   O2221512   3.752   6.625   2.828 -0.2106  0.5443 -0.1967
  187POPC   C2221513   3.772   6.797   2.989  0.1827  0.0945 -0.3323
  187POPC   H2R21514   3.677   6.839   2.948  1.8236  2.1119 -2.3297
  187POPC   H2S21515   3.832   6.890   2.984 -2.0306  1.8098  2.3007
  187POPC    C321516   4.071   6.514   2.895 -0.2226 -0.0044 -0.5582
  187POPC    HX21517   4.161   6.554   2.946  1.3379 -2.4498 -1.2141
  187POPC    HY21518   4.118   6.439   2.828 -0.5136  0.4964 -1.3350
  187POPC   O3121519   3.966   6.462   2.980  0.0035  0.2761 -0.0997
  187POPC   C3121520   3.928   6.338   2.962 -0.4765  0.7570  0.2525
  187POPC   O3221521   3.972   6.259   2.879 -0.2768  0.1608  0.0357
  187POPC   C3221522   3.815   6.305   3.061 -0.8774 -0.1998 -0.1976
  187POPC   H2X21523   3.757   6.234   2.999 -0.2212  0.8326 -2.0867
  187POPC   H2Y21524   3.758   6.396   3.090 -0.4814 -0.2863  0.9385
  187POPC   C2321525   3.761   6.750   3.136 -1.1936 -0.1471 -0.0111
  187POPC   H3R21526   3.861   6.743   3.184 -1.3829 -1.2202  0.2447
  187POPC   H3S21527   3.710   6.653   3.148 -0.9684 -0.2483  0.1345
  187POPC   C2421528   3.685   6.852   3.231  0.4718 -0.1780 -0.2610
  187POPC   H4R21529   3.585   6.860   3.184 -0.3306  4.6711  1.5908
  187POPC   H4S21530   3.729   6.954   3.237 -0.4527  0.1912  4.5900
  187POPC   C2521531   3.669   6.805   3.377 -0.4638  0.6246 -0.1324
  187POPC   H5R21532   3.769   6.771   3.411 -0.2961 -1.2191 -2.1880
  187POPC   H5S21533   3.588   6.728   3.377 -1.5201  1.7011  0.5585
  187POPC   C2621534   3.610   6.918   3.472 -0.0776  0.2699  0.2160
  187POPC   H6R21535   3.513   6.955   3.434 -0.0470  0.2425  0.1091
  187POPC   H6S21536   3.677   7.007   3.472 -2.4415  2.1763  2.1935
  187POPC   C2721537   3.572   6.859   3.609  0.2336 -0.2745 -0.6251
  187POPC   H7R21538   3.604   6.754   3.628 -2.2915 -0.8579  0.9920
  187POPC   H7S21539   3.463   6.846   3.627  0.1521  0.8086 -0.2758
  187POPC   C2821540   3.607   6.961   3.717 -0.0264 -0.9864  0.0146
  187POPC   H8R21541   3.580   6.918   3.815 -0.0108 -0.0917  0.4255
  187POPC   H8S21542   3.551   7.055   3.693  0.5365 -1.2524 -2.7492
  187POPC   C2921543   3.754   6.992   3.720  0.3058 -0.4115  0.3922
  187POPC   H9121544   3.791   7.045   3.631 -0.2948  1.0302  0.9684
  187POPC  C21021545   3.846   6.957   3.811 -0.2019 -0.2919  0.3297
  187POPC  H10121546   3.951   6.988   3.809 -0.1570 -0.2738  2.0019
  187POPC  C21121547   3.811   6.877   3.936 -0.5827  0.0448  0.4619
  187POPC  H11R21548   3.904   6.850   3.989  0.6400  1.1707 -1.0416
  187POPC  H11S21549   3.774   6.776   3.907  0.2769 -0.2402  0.3249
  187POPC  C21221550   3.733   6.940   4.048 -0.1644 -0.5683 -0.4214
  187POPC  H12R21551   3.636   6.894   4.076  0.0928 -0.6006  0.4412
  187POPC  H12S21552   3.714   7.046   4.024  1.0530  0.0061  0.9475
  187POPC  C21321553   3.822   6.944   4.175 -0.4875  0.0331 -0.3129
  187POPC  H13R21554   3.921   6.994   4.164 -0.8981  0.7273 -0.9536
  187POPC  H13S21555   3.834   6.840   4.213 -0.1198 -0.1914 -1.0197
  187POPC  C21421556   3.752   7.028   4.281  0.0968  0.0198  0.1595
  187POPC  H14R21557   3.662   6.967   4.303  1.7070 -2.8588 -0.7387
  187POPC  H14S21558   3.720   7.123   4.233  0.1001  0.3833  0.8669
  187POPC  C21521559   3.836   7.062   4.407  0.0703 -0.3164 -0.4984
  187POPC  H15R21560   3.771   7.104   4.487 -1.2007 -1.3765 -0.9310
  187POPC  H15S21561   3.916   7.136   4.383  1.7041 -1.4959  1.1280
  187POPC  C21621562   3.911   6.956   4.484 -0.2543 -0.5751 -0.3563
  187POPC  H16R21563   3.988   6.915   4.415 -0.2174 -0.1982 -0.5386
  187POPC  H16S21564   3.845   6.879   4.530  0.9789 -2.7488 -1.9944
  187POPC  C21721565   3.989   7.016   4.607  0.2516 -0.3191  0.0258
  187POPC  H17R21566   4.032   6.927   4.659 -0.6369 -0.7486  0.0491
  187POPC  H17S21567   3.924   7.074   4.676 -1.3336 -1.2210 -0.6466
  187POPC  C21821568   4.110   7.093   4.573 -0.7294  0.2469 -0.2477
  187POPC  H18R21569   4.178   7.096   4.661 -1.6382  1.1550  0.4470
  187POPC  H18S21570   4.091   7.196   4.537  0.8133  0.6833  0.1002
  187POPC  H18T21571   4.163   7.046   4.488 -0.9369  3.0707 -2.0631
  187POPC   C3321572   3.863   6.228   3.187 -0.7445 -0.4873  0.4136
  187POPC   H3X21573   3.962   6.263   3.224 -0.6353 -0.6039  0.2344
  187POPC   H3Y21574   3.883   6.121   3.166 -0.6752 -1.6889  5.2219
  187POPC   C3421575   3.765   6.225   3.298  0.6159  0.9190  0.3937
  187POPC   H4X21576   3.684   6.152   3.277  2.6472 -1.2300 -0.3955
  187POPC   H4Y21577   3.719   6.322   3.327 -1.5430 -0.8061  3.2371
  187POPC   C3521578   3.826   6.166   3.429  0.5978  0.3209 -0.5253
  187POPC   H5X21579   3.856   6.060   3.421 -0.1128 -0.1774  2.3559
  187POPC   H5Y21580   3.747   6.164   3.507  1.9990 -0.1138  0.9583
  187POPC   C3621581   3.945   6.252   3.492  0.3010 -0.5662 -0.1162
  187POPC   H6X21582   4.039   6.232   3.437  1.1421  0.1006  1.0300
  187POPC   H6Y21583   3.980   6.225   3.594 -0.9133  2.5823  1.2631
  187POPC   C3721584   3.931   6.405   3.482 -0.7178 -0.4413 -0.2419
  187POPC   H7X21585   3.827   6.432   3.512 -0.9734 -2.6771  1.1412
  187POPC   H7Y21586   3.953   6.436   3.378 -2.3875  0.1529 -0.4577
  187POPC   C3821587   4.035   6.489   3.560 -0.0792 -0.2067  0.2197
  187POPC   H8X21588   4.051   6.580   3.498 -1.0332 -0.1281  0.0771
  187POPC   H8Y21589   4.135   6.441   3.552 -0.2420 -0.7105  1.1381
  187POPC   C3921590   3.994   6.533   3.699  0.0295 -0.2525 -0.0313
  187POPC   H9X21591   3.885   6.549   3.692  0.0010 -0.6937 -0.7027
  187POPC   H9Y21592   4.038   6.634   3.714 -2.5841  0.9861 -0.2619
  187POPC  C31021593   4.035   6.438   3.815  0.2122 -0.4001 -0.0638
  187POPC  H10X21594   4.131   6.392   3.783 -0.5220 -3.4119  1.6955
  187POPC  H10Y21595   3.965   6.357   3.845  0.7324 -1.1711 -0.9069
  187POPC  C31121596   4.075   6.515   3.949  0.0780 -0.1472  0.0053
  187POPC  H11X21597   3.984   6.565   3.990  0.4288  0.2555  0.2959
  187POPC  H11Y21598   4.140   6.602   3.930  0.3751 -0.7573 -1.9404
  187POPC  C31221599   4.143   6.427   4.052  0.5543  0.1854 -0.5791
  187POPC  H12X21600   4.242   6.392   4.013 -1.1949 -3.0257 -2.5655
  187POPC  H12Y21601   4.086   6.332   4.063 -0.1056  0.6295 -0.0665
  187POPC  C31321602   4.158   6.504   4.185 -0.2419  0.2379  0.7106
  187POPC  H13X21603   4.068   6.556   4.223  0.8070  1.1312  2.0638
  187POPC  H13Y21604   4.238   6.577   4.160 -0.0523 -0.0195  0.5514
  187POPC  C31421605   4.192   6.417   4.304 -0.2030  0.8890  0.0925
  187POPC  H14X21606   4.119   6.334   4.291 -0.7550  1.5903 -1.6710
  187POPC  H14Y21607   4.169   6.464   4.402 -2.2581  1.2059 -0.4860
  187POPC  C31521608   4.336   6.370   4.285 -0.5990  0.5875 -0.5966
  187POPC  H15X21609   4.406   6.455   4.299 -1.7242  1.5102 -0.4116
  187POPC  H15Y21610   4.347   6.335   4.180 -2.2785  0.2730 -0.7078
  187POPC  C31621611   4.380   6.263   4.390  0.1229  0.3565 -0.7358
  187POPC  H16X21612   4.383   6.300   4.495 -2.7704  0.0576 -0.4475
  187POPC  H16Y21613   4.481   6.221   4.371  0.3773  0.3508  0.5186
  187POPC  H16Z21614   4.310   6.176   4.391  1.2672 -0.5936 -1.3621
  188POPC     N21615   6.643   0.685   2.554 -0.8908  0.0976  0.3024
  188POPC   C1221616   6.713   0.549   2.544 -0.2000  0.1290 -0.6364
  188POPC  H12A21617   6.820   0.561   2.536  0.2072 -2.0920  0.5847
  188POPC  H12B21618   6.668   0.497   2.460 -1.1947 -0.1904  0.0727
  188POPC   C1321619   6.690   0.764   2.673 -0.1267  0.1380  0.0427
  188POPC  H13A21620   6.795   0.787   2.677  0.0995 -0.5054 -1.4671
  188POPC  H13B21621   6.629   0.852   2.683 -0.3474  0.0898 -0.7848
  188POPC  H13C21622   6.672   0.700   2.758  0.9010 -1.3453 -0.8002
  188POPC   C1421623   6.655   0.771   2.429  0.3454 -0.3751 -0.1971
  188POPC  H14A21624   6.576   0.844   2.428 -0.1654 -0.8956  1.0436
  188POPC  H14B21625   6.747   0.827   2.423  1.6068 -2.1759  1.0224
  188POPC  H14C21626   6.640   0.711   2.341  0.1614 -0.2315 -0.2629
  188POPC   C1521627   6.494   0.670   2.582  0.6114 -0.1473 -0.1437
  188POPC  H15A21628   6.453   0.607   2.504  2.8974 -1.8160 -0.1009
  188POPC  H15B21629   6.445   0.765   2.591  0.2746 -0.3895  0.5893
  188POPC  H15C21630   6.478   0.623   2.678  1.6037 -0.1550  0.0218
  188POPC   C1121631   6.717   0.462   2.673  0.3937  1.0863  0.4097
  188POPC  H11A21632   6.736   0.516   2.768  0.6993  1.2614  0.2482
  188POPC  H11B21633   6.805   0.396   2.670 -0.5590 -0.2428  0.7501
  188POPC     P21634   6.555   0.264   2.616 -0.2703 -0.1244 -0.0948
  188POPC   O1321635   6.623   0.264   2.484 -0.3671  0.5472 -0.1830
  188POPC   O1421636   6.410   0.250   2.613  0.3388 -0.3062  0.0867
  188POPC   O1221637   6.600   0.389   2.694  0.8208  0.1712 -0.3816
  188POPC   O1121638   6.620   0.144   2.697 -0.0905  0.4490 -0.2074
  188POPC    C121639   6.606   0.141   2.840  0.5869 -0.0432 -0.1442
  188POPC    HA21640   6.557   0.044   2.863  0.7613  0.0708  0.7388
  188POPC    HB21641   6.546   0.214   2.898 -1.1444 -1.4813 -0.0535
  188POPC    C221642   6.741   0.145   2.915 -0.0167  0.3154 -0.5732
  188POPC    HS21643   6.758   0.251   2.941 -2.0747  0.5970 -0.2334
  188POPC   O2121644   6.841   0.070   2.838  0.1890 -0.3884 -0.2256
  188POPC   C2121645   6.959   0.119   2.858 -0.9866 -0.1739 -0.1403
  188POPC   O2221646   6.987   0.216   2.930  0.1790  0.5413 -0.3448
  188POPC   C2221647   7.063   0.043   2.778  0.2654  0.0162  0.5162
  188POPC   H2R21648   7.074   0.093   2.680 -0.6017 -1.3951 -0.3489
  188POPC   H2S21649   7.038  -0.065   2.765  1.5412 -0.4087  1.3112
  188POPC    C321650   6.704   0.069   3.047 -0.0095  0.1479 -0.1948
  188POPC    HX21651   6.671  -0.035   3.029  1.0653 -0.4092  0.9780
  188POPC    HY21652   6.623   0.121   3.102  0.8156 -1.1905  2.4142
  188POPC   O3121653   6.821   0.054   3.127  0.1511 -0.0714 -0.4160
  188POPC   C3121654   6.833   0.147   3.222 -0.1406 -0.2288 -0.1402
  188POPC   O3221655   6.760   0.247   3.233 -0.0622  0.0500  0.4246
  188POPC   C3221656   6.947   0.108   3.315 -0.8212 -0.6077  0.6460
  188POPC   H2X21657   6.979   0.196   3.374 -0.5660 -0.4411  0.2620
  188POPC   H2Y21658   7.027   0.087   3.241 -1.4338  1.7983 -0.7904
  188POPC   C2321659   7.188   0.047   2.865  0.5846  0.2450  0.0565
  188POPC   H3R21660   7.229   0.145   2.895  0.1584  0.3581  0.2665
  188POPC   H3S21661   7.276   0.009   2.808 -0.8594 -0.3806 -1.8781
  188POPC   C2421662   7.172  -0.041   2.985  0.0566  0.3379  0.5997
  188POPC   H4R21663   7.127  -0.138   2.955  2.2742 -1.0526  1.5238
  188POPC   H4S21664   7.105   0.010   3.057  0.0587  0.7791  0.2901
  188POPC   C2521665   7.307  -0.078   3.045  0.1085  0.1855  0.1837
  188POPC   H5R21666   7.389  -0.079   2.970 -0.1871  0.1580 -0.1434
  188POPC   H5S21667   7.302  -0.180   3.090 -1.6840 -0.0034 -0.3526
  188POPC   C2621668   7.340   0.038   3.142 -0.6183 -0.1710  0.3438
  188POPC   H6R21669   7.294   0.019   3.241 -2.6934  1.1643 -0.2866
  188POPC   H6S21670   7.282   0.129   3.115  0.1184  0.1204 -0.3036
  188POPC   C2721671   7.486   0.069   3.145  0.2074 -0.3459  0.3507
  188POPC   H7R21672   7.513   0.091   3.040 -0.6213  0.5181  0.3106
  188POPC   H7S21673   7.549  -0.021   3.163  1.2266  0.5849  1.6582
  188POPC   C2821674   7.534   0.185   3.237  0.4602  0.5873  0.3985
  188POPC   H8R21675   7.643   0.200   3.220  0.1718  1.5008 -0.8629
  188POPC   H8S21676   7.529   0.157   3.344 -1.6774  0.3858  0.2949
  188POPC   C2921677   7.465   0.316   3.206  0.4519  0.6253 -0.0871
  188POPC   H9121678   7.463   0.336   3.097  1.1285  2.5644  0.2172
  188POPC  C21021679   7.433   0.406   3.300 -0.1660 -0.2988 -0.2325
  188POPC  H10121680   7.383   0.498   3.265  3.7858  2.2953  0.3484
  188POPC  C21121681   7.444   0.391   3.451 -0.6342  0.6297 -0.2873
  188POPC  H11R21682   7.469   0.286   3.476  0.6793  1.2766  1.3243
  188POPC  H11S21683   7.341   0.409   3.490 -0.8710 -3.9687  1.9493
  188POPC  C21221684   7.546   0.489   3.510 -0.8643 -0.7858  0.1151
  188POPC  H12R21685   7.500   0.587   3.535 -0.6621 -0.5637 -0.3680
  188POPC  H12S21686   7.620   0.508   3.429 -0.7819  0.3230  0.4410
  188POPC  C21321687   7.617   0.436   3.633 -0.0262 -0.0159  0.2634
  188POPC  H13R21688   7.647   0.335   3.599 -2.3436  0.1254 -2.6012
  188POPC  H13S21689   7.552   0.443   3.723 -0.4888 -1.3555  0.0518
  188POPC  C21421690   7.747   0.520   3.658 -0.7958  0.1677  0.2969
  188POPC  H14R21691   7.719   0.617   3.703  0.1125 -0.3395  2.0434
  188POPC  H14S21692   7.796   0.537   3.560 -0.9585  1.2921  0.3977
  188POPC  C21521693   7.848   0.458   3.755 -0.5194  0.0777 -0.2012
  188POPC  H15R21694   7.929   0.534   3.764 -0.9700  0.3152  2.8015
  188POPC  H15S21695   7.897   0.369   3.710 -0.4744  0.4540 -0.9040
  188POPC  C21621696   7.800   0.445   3.906  0.1842 -0.3630 -0.0459
  188POPC  H16R21697   7.888   0.421   3.969 -0.2423  0.0457  0.7209
  188POPC  H16S21698   7.724   0.364   3.901  0.3634 -0.5411  0.0990
  188POPC  C21721699   7.734   0.578   3.963 -0.6037  0.1556 -0.0145
  188POPC  H17R21700   7.650   0.608   3.898  1.5369  2.2390 -2.0026
  188POPC  H17S21701   7.814   0.655   3.967 -1.4560  1.1407 -1.3029
  188POPC  C21821702   7.695   0.560   4.110 -0.4012  0.2778  0.3086
  188POPC  H18R21703   7.609   0.491   4.111  0.4913 -0.8648  1.3397
  188POPC  H18S21704   7.668   0.657   4.158  0.7549  0.8920 -0.2451
  188POPC  H18T21705   7.771   0.505   4.169 -0.5951  2.3538  2.6601
  188POPC   C3321706   6.912  -0.007   3.403 -0.0072  0.3270 -0.3137
  188POPC   H3X21707   6.923  -0.102   3.347  2.2373 -0.5102  1.3924
  188POPC   H3Y21708   6.816   0.017   3.453  1.2024  3.0109  0.9204
  188POPC   C3421709   7.007  -0.025   3.517 -0.0622 -0.6025  0.2798
  188POPC   H4X21710   7.112  -0.022   3.483 -0.7039  0.5324 -1.8024
  188POPC   H4Y21711   6.981  -0.121   3.567 -2.7633 -0.7214 -1.1379
  188POPC   C3521712   6.977   0.076   3.632  0.4513 -0.1381 -0.0244
  188POPC   H5X21713   6.881   0.048   3.681  0.0084 -0.9101 -1.3051
  188POPC   H5Y21714   6.976   0.180   3.593  1.1500  0.0986  0.5524
  188POPC   C3621715   7.079   0.079   3.746  0.0112 -0.0028  0.0954
  188POPC   H6X21716   7.064  -0.014   3.805 -2.4878 -0.3643 -1.0013
  188POPC   H6Y21717   7.042   0.151   3.822 -0.4006 -0.3070  0.1857
  188POPC   C3721718   7.225   0.119   3.704 -0.3798 -0.1651 -0.5539
  188POPC   H7X21719   7.216   0.208   3.638  0.3322  0.7315  0.5118
  188POPC   H7Y21720   7.273   0.033   3.654 -0.0881 -0.1571 -0.2933
  188POPC   C3821721   7.306   0.165   3.827  0.2088  0.1143  0.1335
  188POPC   H8X21722   7.411   0.184   3.798  0.3405 -0.3729  0.2953
  188POPC   H8Y21723   7.315   0.075   3.890 -0.3300 -1.8661 -2.4598
  188POPC   C3921724   7.250   0.293   3.897 -0.0846  0.2722 -1.0075
  188POPC   H9X21725   7.148   0.279   3.940 -0.2394  0.2008 -1.3953
  188POPC   H9Y21726   7.234   0.360   3.810  1.7889  1.1489 -0.7240
  188POPC  C31021727   7.342   0.356   4.000  0.1901  0.2239  0.6049
  188POPC  H10X21728   7.417   0.415   3.942 -0.2007  0.2578  0.1197
  188POPC  H10Y21729   7.388   0.275   4.060  0.3736 -0.0371  0.1191
  188POPC  C31121730   7.277   0.446   4.100 -0.3991  0.5522 -0.3697
  188POPC  H11X21731   7.203   0.519   4.061 -0.8546  0.7959  0.8875
  188POPC  H11Y21732   7.356   0.503   4.152 -0.1215  1.4520 -1.7437
  188POPC  C31221733   7.193   0.367   4.205 -0.1881  0.5044  0.3398
  188POPC  H12X21734   7.125   0.293   4.159  0.8980 -0.4335  0.2004
  188POPC  H12Y21735   7.141   0.440   4.271 -0.0224  0.5791  0.3879
  188POPC  C31321736   7.283   0.290   4.304 -0.0521  0.0363 -0.7343
  188POPC  H13X21737   7.318   0.193   4.263 -0.7646 -0.4190 -0.2791
  188POPC  H13Y21738   7.223   0.257   4.392  2.5831 -3.3935 -0.0181
  188POPC  C31421739   7.412   0.365   4.354 -0.6931  0.2640 -0.6318
  188POPC  H14X21740   7.384   0.466   4.391  1.7633  0.4363  0.9580
  188POPC  H14Y21741   7.474   0.383   4.264 -2.0022 -1.3391 -1.9041
  188POPC  C31521742   7.488   0.295   4.467 -0.1837  0.3949 -0.0180
  188POPC  H15X21743   7.547   0.214   4.420  0.3103  0.5403  0.3401
  188POPC  H15Y21744   7.420   0.255   4.545 -0.7469  0.9733 -0.2045
  188POPC  C31621745   7.585   0.390   4.544  0.2441 -0.3246 -0.1530
  188POPC  H16X21746   7.649   0.334   4.615  0.3158  0.3707  0.3372
  188POPC  H16Y21747   7.529   0.464   4.604  1.1933  1.0820 -0.9428
  188POPC  H16Z21748   7.659   0.448   4.485 -0.6448  1.4979  0.4576
  189SAPI   C1221749   4.223   0.515   7.314  0.9354  1.0412  0.5805
  189SAPI    H221750   4.145   0.523   7.235 -0.2963 -2.4811  1.2820
  189SAPI    O221751   4.355   0.530   7.251  0.2708 -0.0459  0.4471
  189SAPI   HO221752   4.368   0.465   7.182 -1.2787  0.1957 -0.1161
  189SAPI   C1321753   4.200   0.614   7.419  0.4514 -0.2641 -0.1142
  189SAPI    H321754   4.103   0.601   7.471  2.3625  0.7264  4.0749
  189SAPI    O321755   4.178   0.745   7.365 -0.0877 -0.2967 -0.2280
  189SAPI   HO321756   4.241   0.757   7.294  1.2732 -3.2040  0.3270
  189SAPI   C1421757   4.306   0.621   7.527  0.2011 -0.2473 -0.7120
  189SAPI    H421758   4.398   0.664   7.482  1.6739 -0.7705  1.5672
  189SAPI    O421759   4.279   0.713   7.630 -0.1441 -0.0362  0.0229
  189SAPI   HO421760   4.186   0.706   7.650 -0.3665 -0.3853 -1.0792
  189SAPI   C1521761   4.350   0.478   7.571 -0.4921 -0.2525  0.0113
  189SAPI    H521762   4.275   0.452   7.649 -1.8466 -2.1193 -1.8077
  189SAPI    O521763   4.477   0.481   7.636 -0.1119  0.6373  0.5901
  189SAPI   HO521764   4.473   0.436   7.721  0.6614  0.4890  0.5582
  189SAPI   C1621765   4.336   0.360   7.478  1.0301  0.6390  0.3174
  189SAPI    H621766   4.425   0.356   7.412  1.3681  1.7921  0.6790
  189SAPI    O621767   4.314   0.238   7.543  0.2107 -0.1006 -0.2498
  189SAPI   HO621768   4.266   0.181   7.482 -0.0897 -0.1617  0.0390
  189SAPI   C1121769   4.223   0.379   7.373 -0.3067 -0.0254  0.2465
  189SAPI    H121770   4.130   0.377   7.435  1.5867 -0.1000  3.3091
  189SAPI     P21771   4.073   0.191   7.251  0.3459 -0.2726  0.2652
  189SAPI   O1321772   3.997   0.170   7.370  0.5871 -0.1849 -0.2356
  189SAPI   O1421773   4.111   0.081   7.166 -0.4628  0.6918  0.2569
  189SAPI   O1221774   4.215   0.262   7.289  0.2566 -0.3054  0.3016
  189SAPI   O1121775   3.996   0.300   7.158 -0.4632 -0.3783 -0.9823
  189SAPI    C121776   4.043   0.338   7.033 -0.2202  0.6694 -0.2287
  189SAPI    HA21777   4.048   0.449   7.034 -0.8026  0.7052 -0.6111
  189SAPI    HB21778   4.152   0.324   7.019 -0.2718  1.5046 -1.6944
  189SAPI    C221779   3.947   0.299   6.921 -0.1905  0.6172 -0.1899
  189SAPI    HS21780   3.842   0.324   6.946 -0.3968 -0.9359  0.6441
  189SAPI   O2121781   3.966   0.154   6.905  0.4837  0.1670 -0.0732
  189SAPI   C2121782   3.853   0.078   6.907  0.4813 -0.5882 -0.0100
  189SAPI   O2221783   3.738   0.128   6.898 -0.0968 -0.0525 -0.2726
  189SAPI   C2221784   3.880  -0.071   6.909  0.1142  0.0972 -0.3665
  189SAPI   H2R21785   3.988  -0.096   6.907 -0.2302 -1.6348  0.6752
  189SAPI   H2S21786   3.827  -0.102   7.002  1.0028  0.6176  0.3320
  189SAPI    C321787   3.977   0.362   6.784 -0.1890  0.8107 -0.0204
  189SAPI    HX21788   4.082   0.331   6.765 -0.3544  0.2699 -0.0457
  189SAPI    HY21789   3.980   0.472   6.802  0.3096  1.0472 -1.3915
  189SAPI   O3121790   3.883   0.336   6.678  0.6322 -0.2644  1.0125
  189SAPI   C3121791   3.916   0.380   6.553  0.9738 -0.1045 -0.2695
  189SAPI   O3221792   4.015   0.445   6.525 -0.0745  0.2541 -0.0322
  189SAPI   C3221793   3.805   0.347   6.457  0.4105 -0.3688  0.6145
  189SAPI   H2X21794   3.716   0.411   6.472  0.6705  0.2582 -0.4395
  189SAPI   H2Y21795   3.775   0.242   6.480  2.1254 -0.6417  1.8177
  189SAPI   C2321796   3.811  -0.142   6.793 -0.5203 -0.3245 -0.1004
  189SAPI   H3R21797   3.708  -0.100   6.788  0.1813  1.8118  1.6740
  189SAPI   H3S21798   3.813  -0.251   6.816  2.0889 -0.0253  1.5826
  189SAPI   C2421799   3.881  -0.148   6.652 -0.2363 -0.3494  0.7238
  189SAPI   H4R21800   3.831  -0.213   6.577 -0.4830  1.9644 -1.2794
  189SAPI   H4S21801   3.987  -0.179   6.655  0.0320 -0.1965 -2.6873
  189SAPI   C2521802   3.879  -0.012   6.584  0.4932 -0.1017 -0.2537
  189SAPI   H5R21803   3.817   0.065   6.634  0.1722 -1.3695  1.4203
  189SAPI   C2621804   3.967   0.013   6.485 -0.0282  0.2526 -0.1235
  189SAPI   H6R21805   3.961   0.111   6.437  0.5860  0.1701 -0.3772
  189SAPI   C2721806   4.066  -0.070   6.410  0.2289 -0.2961 -0.5766
  189SAPI   H7R21807   4.025  -0.089   6.308  2.1164  2.2601 -1.9375
  189SAPI   H7S21808   4.084  -0.164   6.466  1.0861  0.3463  0.2558
  189SAPI   C2821809   4.197  -0.005   6.408  0.0079  0.0770  0.3930
  189SAPI   H8R21810   4.243  -0.003   6.508 -1.4760  2.6147  1.1083
  189SAPI   C2921811   4.269   0.036   6.298 -0.8564 -0.5080  0.3732
  189SAPI   H9R21812   4.367   0.081   6.317 -1.1819  1.9645 -2.8975
  189SAPI  C21021813   4.224   0.053   6.157 -0.0140 -1.0907  0.1798
  189SAPI  H10R21814   4.155  -0.029   6.130 -0.1982 -0.7213 -0.4996
  189SAPI  H10S21815   4.309   0.036   6.087 -1.5091 -0.4249 -1.8964
  189SAPI  C21121816   4.156   0.177   6.119 -0.2862  0.1239  0.2424
  189SAPI  H11R21817   4.099   0.219   6.203 -0.4347  0.6127 -0.0964
  189SAPI  C21221818   4.149   0.232   5.999 -0.8223 -0.3903  0.1216
  189SAPI  H12R21819   4.103   0.329   5.975  0.4077 -0.0542 -0.9956
  189SAPI  C21321820   4.223   0.174   5.876 -0.7597 -0.1963 -0.2569
  189SAPI  H13R21821   4.331   0.164   5.899 -0.9131 -4.0493 -0.5647
  189SAPI  H13S21822   4.211   0.252   5.798  1.5114  0.2988 -0.1521
  189SAPI  C21421823   4.166   0.046   5.811  0.8751 -0.3106  0.1716
  189SAPI  H14R21824   4.153  -0.042   5.875 -0.5072 -1.4269 -1.5783
  189SAPI  C21521825   4.118   0.041   5.685  0.5398  0.4559 -0.5349
  189SAPI  H15R21826   4.075  -0.055   5.650  1.3272  0.1472 -0.6732
  189SAPI  C21621827   4.108   0.148   5.589  1.0078 -0.5843  0.0751
  189SAPI  H16R21828   4.209   0.194   5.583  0.5373  0.2813 -1.6936
  189SAPI  H16S21829   4.048   0.233   5.630  1.9468 -0.9602  2.4126
  189SAPI  C21721830   4.052   0.099   5.448 -0.1741 -0.0791 -0.3997
  189SAPI  H17R21831   4.036   0.189   5.385  1.7920  1.3467  1.0099
  189SAPI  H17S21832   3.960   0.042   5.473 -0.5082  1.3268  1.8663
  189SAPI  C21821833   4.135  -0.011   5.372 -0.0999 -0.6564 -0.5055
  189SAPI  H18R21834   4.069  -0.034   5.286 -0.8869  0.4706 -0.2285
  189SAPI  H18S21835   4.152  -0.095   5.443  3.9896  0.5157  0.1611
  189SAPI  C21921836   4.276   0.040   5.330 -0.6297  0.0086  0.3025
  189SAPI  H19R21837   4.327   0.078   5.422 -1.3752 -0.3242  0.8649
  189SAPI  H19S21838   4.268   0.130   5.266  0.4883 -0.8253 -1.0561
  189SAPI  C22021839   4.364  -0.069   5.265 -0.1020 -0.3810  0.6425
  189SAPI  H20R21840   4.333  -0.082   5.159  3.0534  0.7432 -0.5378
  189SAPI  H20S21841   4.366  -0.164   5.322 -2.7979 -0.4060  0.8138
  189SAPI  H20T21842   4.467  -0.027   5.260 -0.9258  1.5634 -1.7511
  189SAPI   C3321843   3.854   0.358   6.312  0.2914 -0.6241  0.0032
  189SAPI   H3X21844   3.961   0.329   6.303  0.8318  0.7840  1.2773
  189SAPI   H3Y21845   3.846   0.468   6.296 -1.9248 -0.7637 -0.0330
  189SAPI   C3421846   3.782   0.288   6.196 -0.0940 -0.3431 -0.0286
  189SAPI   H4X21847   3.674   0.286   6.221 -0.1079 -0.5021 -0.1036
  189SAPI   H4Y21848   3.813   0.183   6.181 -0.8733 -0.5519 -0.2287
  189SAPI   C3521849   3.794   0.365   6.059  0.9159 -0.4399 -0.1963
  189SAPI   H5X21850   3.899   0.382   6.028  0.6361 -1.3082 -1.7023
  189SAPI   H5Y21851   3.748   0.459   6.096 -1.9661 -2.0397  0.6294
  189SAPI   C3621852   3.715   0.305   5.948 -0.3760  0.1814 -0.4593
  189SAPI   H6X21853   3.606   0.324   5.963 -1.2206 -2.2481 -2.6620
  189SAPI   H6Y21854   3.728   0.195   5.943 -0.8883  0.0926  0.0826
  189SAPI   C3721855   3.732   0.367   5.812 -0.1097  0.1103 -0.8792
  189SAPI   H7X21856   3.838   0.353   5.783 -0.4270 -2.5478 -1.0426
  189SAPI   H7Y21857   3.707   0.475   5.821 -1.2952 -0.2037  0.0090
  189SAPI   C3821858   3.648   0.309   5.696  0.0587 -0.1441  0.5385
  189SAPI   H8X21859   3.544   0.343   5.712 -0.4217  1.3132 -4.1712
  189SAPI   H8Y21860   3.673   0.201   5.683  0.2697 -0.1817  1.1982
  189SAPI   C3921861   3.697   0.370   5.567 -0.0150 -0.2162  0.8478
  189SAPI   H9X21862   3.801   0.335   5.550 -0.2713 -0.2033 -0.9516
  189SAPI   H9Y21863   3.714   0.478   5.583  3.0960 -0.2152 -1.5094
  189SAPI  C31021864   3.604   0.353   5.449  0.1734  0.6263  0.8244
  189SAPI  H10X21865   3.501   0.385   5.476 -0.2887  0.5844 -0.8053
  189SAPI  H10Y21866   3.597   0.245   5.422  2.3575  0.9255 -1.2846
  189SAPI  C31121867   3.641   0.411   5.316 -0.5366  0.8945  0.6199
  189SAPI  H11X21868   3.745   0.378   5.293 -1.8200 -2.9272 -0.4681
  189SAPI  H11Y21869   3.640   0.522   5.325 -0.1718  0.9345  0.2220
  189SAPI  C31221870   3.554   0.376   5.199  0.8715 -0.4028 -0.3507
  189SAPI  H12X21871   3.454   0.425   5.206  0.4963 -0.7501 -2.5444
  189SAPI  H12Y21872   3.528   0.268   5.204 -3.6002  0.4520 -0.7170
  189SAPI  C31321873   3.614   0.401   5.063  0.0538  0.0927  0.3835
  189SAPI  H13X21874   3.710   0.346   5.058 -0.8799 -1.7599  1.7661
  189SAPI  H13Y21875   3.631   0.511   5.052 -0.5555  0.2712  1.1015
  189SAPI  C31421876   3.533   0.337   4.955  0.0368  0.4893  0.3606
  189SAPI  H14X21877   3.435   0.387   4.945 -0.5339 -0.4617  1.0711
  189SAPI  H14Y21878   3.505   0.233   4.979 -2.3778  0.5652 -1.7036
  189SAPI  C31521879   3.604   0.339   4.823  0.0649  0.6303  0.2394
  189SAPI  H15X21880   3.538   0.283   4.753 -4.5091  1.0897  3.6673
  189SAPI  H15Y21881   3.701   0.287   4.837  1.0634  2.4364  0.2425
  189SAPI  C31621882   3.613   0.478   4.759  0.2735 -0.4003  0.2636
  189SAPI  H16X21883   3.678   0.536   4.828 -1.5220  1.3589  0.5985
  189SAPI  H16Y21884   3.518   0.535   4.748 -0.4591 -1.9910 -2.5198
  189SAPI  C31721885   3.682   0.463   4.625 -0.0074  0.1096  0.0238
  189SAPI  H17X21886   3.621   0.387   4.572 -0.3072  0.1957  0.2430
  189SAPI  H17Y21887   3.785   0.426   4.641 -0.2584  0.0641  1.7310
  189SAPI  C31821888   3.687   0.592   4.543 -0.2230  0.4052  0.5519
  189SAPI  H18X21889   3.584   0.621   4.515 -0.5229 -1.1323 -0.0615
  189SAPI  H18Y21890   3.726   0.561   4.443  1.4251  1.5150  0.7968
  189SAPI  H18Z21891   3.759   0.671   4.573  0.4296  1.1732 -2.6307
  190SAPI   C1221892   6.214   6.546   7.760 -0.1086 -0.4515  0.0414
  190SAPI    H221893   6.313   6.495   7.766 -0.5234 -1.4025 -0.9336
  190SAPI    O221894   6.129   6.460   7.844 -0.0121  0.0339 -0.1084
  190SAPI   HO221895   6.096   6.387   7.792 -0.7350 -0.0347  0.4324
  190SAPI   C1321896   6.222   6.686   7.824  0.3669  0.0768  0.1068
  190SAPI    H321897   6.304   6.732   7.764 -0.4495  0.7258 -0.5416
  190SAPI    O321898   6.265   6.687   7.958 -0.0938  0.1216 -0.0536
  190SAPI   HO321899   6.203   6.643   8.016  1.5635 -2.3217 -0.0048
  190SAPI   C1421900   6.096   6.767   7.804  0.4388  0.2947 -0.1720
  190SAPI    H421901   6.028   6.727   7.883  0.1372  2.5503  0.7770
  190SAPI    O421902   6.103   6.901   7.838 -0.0613 -0.4781  0.1247
  190SAPI   HO421903   6.050   6.921   7.915  0.2034  1.1838 -0.0952
  190SAPI   C1521904   6.022   6.741   7.674 -0.2334 -0.9170 -0.2341
  190SAPI    H521905   6.069   6.815   7.606 -1.4691  0.7558  0.6474
  190SAPI    O521906   5.888   6.773   7.688  0.5208 -0.4319  0.2550
  190SAPI   HO521907   5.887   6.867   7.670  1.1758 -0.7236 -1.4025
  190SAPI   C1621908   6.042   6.612   7.592 -0.3736  0.0156 -0.0891
  190SAPI    H621909   5.969   6.545   7.643 -0.4635  0.1774 -0.0045
  190SAPI    O621910   6.016   6.622   7.456  0.3849  0.0976  0.0758
  190SAPI   HO621911   6.070   6.696   7.428 -1.4521  1.6862  0.4860
  190SAPI   C1121912   6.178   6.551   7.609  0.2386  0.1711 -0.1563
  190SAPI    H121913   6.251   6.616   7.556 -0.2734  0.5372 -0.4296
  190SAPI     P21914   6.325   6.356   7.488  0.0837 -0.0475 -0.0442
  190SAPI   O1321915   6.334   6.207   7.500  0.7926  0.1011 -0.1729
  190SAPI   O1421916   6.438   6.431   7.537  0.2090 -0.2657  0.1505
  190SAPI   O1221917   6.190   6.412   7.573 -0.2209  0.7279  0.8053
  190SAPI   O1121918   6.302   6.393   7.334  0.3042  0.5074  0.1738
  190SAPI    C121919   6.209   6.311   7.255  0.1951  0.3676 -0.1660
  190SAPI    HA21920   6.258   6.212   7.239 -0.1242 -0.0100  1.0846
  190SAPI    HB21921   6.111   6.291   7.304  0.4428 -1.5121 -0.3428
  190SAPI    C221922   6.191   6.367   7.109  0.3475 -0.0797  0.5670
  190SAPI    HS21923   6.125   6.296   7.054  3.0516 -2.7851  0.5734
  190SAPI   O2121924   6.315   6.394   7.044 -0.2085  0.1974  0.6021
  190SAPI   C2121925   6.321   6.359   6.910  0.0714 -0.6888 -0.0964
  190SAPI   O2221926   6.232   6.320   6.837  0.0973 -0.5628 -0.8756
  190SAPI   C2221927   6.470   6.367   6.867 -0.1820  0.5070  0.0021
  190SAPI   H2R21928   6.520   6.460   6.902  1.1315 -0.1085 -0.1774
  190SAPI   H2S21929   6.517   6.293   6.936  0.3747 -0.6240 -1.5327
  190SAPI    C321930   6.092   6.488   7.106 -0.1007  0.5857 -0.0460
  190SAPI    HX21931   6.137   6.580   7.149 -0.1603 -0.2527  1.8987
  190SAPI    HY21932   6.010   6.472   7.179 -0.8597  1.0395 -0.7769
  190SAPI   O3121933   6.044   6.532   6.979 -0.1114  0.2414  0.1864
  190SAPI   C3121934   5.937   6.460   6.922 -0.9671  0.0914 -0.1244
  190SAPI   O3221935   5.889   6.366   6.976  1.0366  0.0923 -0.5823
  190SAPI   C3221936   5.890   6.527   6.803 -0.5897  0.3249 -0.0241
  190SAPI   H2X21937   5.967   6.600   6.770  0.3541  0.0639  1.5037
  190SAPI   H2Y21938   5.797   6.576   6.841  0.1947  2.1857 -0.3944
  190SAPI   C2321939   6.505   6.341   6.720  0.2534  0.2811 -0.0910
  190SAPI   H3R21940   6.476   6.434   6.667  1.4727  0.8240  0.1607
  190SAPI   H3S21941   6.438   6.267   6.671 -0.3200  0.9716 -0.3537
  190SAPI   C2421942   6.655   6.293   6.721 -0.2221 -0.2898  0.1049
  190SAPI   H4R21943   6.641   6.185   6.700 -4.8264  0.1323  0.0345
  190SAPI   H4S21944   6.705   6.292   6.820  1.9772 -1.7046 -0.9238
  190SAPI   C2521945   6.729   6.370   6.615 -0.8440  0.0189  0.2472
  190SAPI   H5R21946   6.801   6.445   6.651 -3.2692  1.5332  2.2642
  190SAPI   C2621947   6.716   6.362   6.486 -0.2714  0.3251  0.3114
  190SAPI   H6R21948   6.769   6.438   6.426 -1.4647  1.4685  0.6477
  190SAPI   C2721949   6.617   6.266   6.419  0.1766  0.0317  0.3126
  190SAPI   H7R21950   6.573   6.199   6.496  1.5228 -0.5872  0.5774
  190SAPI   H7S21951   6.673   6.193   6.356  0.3645  0.2080  0.2748
  190SAPI   C2821952   6.507   6.334   6.345 -0.6476 -0.2561  0.9083
  190SAPI   H8R21953   6.441   6.398   6.405 -1.0235  0.5626 -0.3388
  190SAPI   C2921954   6.476   6.335   6.211 -0.0745 -0.0326  0.3427
  190SAPI   H9R21955   6.380   6.382   6.183 -1.2703 -1.6315  1.5504
  190SAPI  C21021956   6.564   6.268   6.105  0.3142 -0.2090 -0.2903
  190SAPI  H10R21957   6.517   6.170   6.081 -1.6045  0.8023 -0.8380
  190SAPI  H10S21958   6.661   6.230   6.143  0.0092 -1.0754 -0.3477
  190SAPI  C21121959   6.576   6.365   5.991 -0.0453 -1.0872  0.4102
  190SAPI  H11R21960   6.632   6.457   6.014  0.4987 -1.1014 -0.7639
  190SAPI  C21221961   6.535   6.339   5.862  0.5286 -0.0176  0.4189
  190SAPI  H12R21962   6.538   6.411   5.780 -0.8497 -2.6809 -2.1373
  190SAPI  C21321963   6.449   6.229   5.808  0.0566  0.0395 -0.0849
  190SAPI  H13R21964   6.360   6.260   5.749  0.1139 -1.7309 -1.1937
  190SAPI  H13S21965   6.396   6.184   5.895  1.6195 -0.6897  0.5353
  190SAPI  C21421966   6.537   6.136   5.730  0.4855 -0.2606 -0.0170
  190SAPI  H14R21967   6.606   6.069   5.784 -0.3752 -0.3927  0.9525
  190SAPI  C21521968   6.547   6.139   5.592  0.3912 -0.4099 -0.5077
  190SAPI  H15R21969   6.608   6.063   5.541  0.1708 -0.3580 -0.8478
  190SAPI  C21621970   6.460   6.238   5.505  0.1847  0.0329 -0.3553
  190SAPI  H16R21971   6.425   6.328   5.559 -1.7020  1.1676 -3.2225
  190SAPI  H16S21972   6.370   6.189   5.463  0.7203  1.1907 -3.1037
  190SAPI  C21721973   6.525   6.308   5.384 -0.0685 -0.5306 -1.0217
  190SAPI  H17R21974   6.625   6.354   5.403 -1.2453  1.9408 -0.4461
  190SAPI  H17S21975   6.460   6.387   5.340  1.7199  2.6113  1.4712
  190SAPI  C21821976   6.541   6.197   5.280 -0.8653  0.2596  0.5525
  190SAPI  H18R21977   6.442   6.154   5.253 -0.0335 -2.6304  1.7277
  190SAPI  H18S21978   6.602   6.117   5.327 -1.1314  0.6992  1.6838
  190SAPI  C21921979   6.612   6.242   5.151 -0.5614 -0.1134 -0.8433
  190SAPI  H19R21980   6.717   6.236   5.185 -1.2818 -2.0339  1.3345
  190SAPI  H19S21981   6.577   6.342   5.117  0.1221 -0.0946 -1.5171
  190SAPI  C22021982   6.614   6.145   5.027 -0.1617 -0.5091 -0.1676
  190SAPI  H20R21983   6.508   6.119   5.002 -0.8432  0.7071  1.3115
  190SAPI  H20S21984   6.668   6.052   5.056  1.3095  0.8591  1.7437
  190SAPI  H20T21985   6.668   6.201   4.948 -1.5165  1.6047  0.3184
  190SAPI   C3321986   5.861   6.434   6.685 -0.1078 -0.0880 -0.0983
  190SAPI   H3X21987   5.789   6.366   6.735  1.2588 -0.0405  2.0803
  190SAPI   H3Y21988   5.956   6.380   6.663  1.6937  1.7078  2.5920
  190SAPI   C3421989   5.811   6.514   6.567 -0.2850  0.2608 -0.4234
  190SAPI   H4X21990   5.904   6.562   6.529  0.3646 -1.5748 -1.2528
  190SAPI   H4Y21991   5.746   6.596   6.605 -0.4815  0.2211 -0.6767
  190SAPI   C3521992   5.747   6.444   6.446  0.2586 -0.2278 -0.1816
  190SAPI   H5X21993   5.668   6.385   6.497  1.6007  0.7974  3.3759
  190SAPI   H5Y21994   5.814   6.369   6.399 -0.9899 -0.9992 -0.7663
  190SAPI   C3621995   5.680   6.532   6.340  0.5684 -0.3030  0.1768
  190SAPI   H6X21996   5.757   6.590   6.286  0.8083 -0.7826 -0.0027
  190SAPI   H6Y21997   5.613   6.602   6.395 -1.5704 -2.0306 -0.0884
  190SAPI   C3721998   5.592   6.452   6.253 -0.2721 -0.1696 -0.6077
  190SAPI   H7X21999   5.530   6.518   6.188 -1.5544 -0.0641  0.6814
  190SAPI   H7Y22000   5.528   6.379   6.306  0.6872 -1.5214 -1.2555
  190SAPI   C3822001   5.680   6.370   6.159 -0.5328  0.7140  0.2922
  190SAPI   H8X22002   5.700   6.273   6.209 -0.1747  0.2944 -0.6440
  190SAPI   H8Y22003   5.771   6.427   6.131 -0.0057  0.2802  1.0888
  190SAPI   C3922004   5.601   6.338   6.035 -0.4678 -0.1793 -0.3612
  190SAPI   H9X22005   5.500   6.294   6.047  0.4006 -2.1885  0.0704
  190SAPI   H9Y22006   5.652   6.262   5.972  0.2959 -1.6457  1.9007
  190SAPI  C31022007   5.585   6.463   5.938 -0.5444 -0.2025 -0.2054
  190SAPI  H10X22008   5.679   6.523   5.945 -1.3668  0.9254  2.4860
  190SAPI  H10Y22009   5.514   6.536   5.982  0.3327 -0.6949  2.1760
  190SAPI  C31122010   5.548   6.426   5.796  0.2462 -0.4640 -0.3244
  190SAPI  H11X22011   5.453   6.369   5.807 -0.9206  1.4113 -0.2293
  190SAPI  H11Y22012   5.614   6.356   5.741 -0.0786 -0.0827 -1.2288
  190SAPI  C31222013   5.542   6.554   5.709  0.5363  0.0219 -0.1651
  190SAPI  H12X22014   5.623   6.625   5.737  0.8720 -0.8864  1.2869
  190SAPI  H12Y22015   5.441   6.598   5.728  0.2772 -0.9032  0.7270
  190SAPI  C31322016   5.536   6.518   5.563 -0.2986  0.3303 -0.1796
  190SAPI  H13X22017   5.450   6.450   5.551  1.3331 -1.9146  0.1018
  190SAPI  H13Y22018   5.624   6.454   5.540 -2.6138 -2.6492 -1.4644
  190SAPI  C31422019   5.526   6.637   5.470  0.3364  0.6758 -0.2527
  190SAPI  H14X22020   5.629   6.674   5.450  0.1270  1.7090  0.4884
  190SAPI  H14Y22021   5.460   6.721   5.501 -1.0279  0.6440 -2.8292
  190SAPI  C31522022   5.453   6.582   5.342  0.4761 -0.7451  0.3878
  190SAPI  H15X22023   5.353   6.538   5.361  0.6042 -0.6819  1.2504
  190SAPI  H15Y22024   5.508   6.498   5.296 -1.2452 -1.2180 -0.8912
  190SAPI  C31622025   5.440   6.693   5.237  0.1207 -0.1452  0.1455
  190SAPI  H16X22026   5.544   6.718   5.209  0.9700 -2.8004  0.6994
  190SAPI  H16Y22027   5.386   6.775   5.290 -3.8747 -3.7326  2.3084
  190SAPI  C31722028   5.353   6.666   5.109 -0.2983  0.7105 -0.6648
  190SAPI  H17X22029   5.340   6.764   5.059  1.3146  1.0038 -0.5439
  190SAPI  H17Y22030   5.253   6.628   5.141 -1.0809  2.1694 -1.2775
  190SAPI  C31822031   5.423   6.568   5.012  0.6623  0.5154  0.3604
  190SAPI  H18X22032   5.466   6.482   5.067  0.6866 -1.1019 -2.0450
  190SAPI  H18Y22033   5.506   6.614   4.955  0.7801 -0.5419 -0.3534
  190SAPI  H18Z22034   5.346   6.535   4.938  0.7662  0.0761  0.4482
  191SAPI   C1222035   6.310   3.362   2.511 -0.7294 -0.1501  0.7085
  191SAPI    H222036   6.385   3.411   2.577  2.8900 -2.0390 -1.6739
  191SAPI    O222037   6.210   3.304   2.588  0.0073  0.4921  0.4164
  191SAPI   HO222038   6.256   3.245   2.649 -0.6711 -1.7723 -1.1076
  191SAPI   C1322039   6.261   3.468   2.416  0.1769  0.5868  0.8478
  191SAPI    H322040   6.351   3.492   2.356  0.8361 -0.1787  1.5175
  191SAPI    O322041   6.220   3.582   2.481 -0.3139 -0.4856  0.5443
  191SAPI   HO322042   6.146   3.564   2.540  1.4239 -3.1426  2.0939
  191SAPI   C1422043   6.165   3.414   2.310 -0.3297 -0.4702  0.2518
  191SAPI    H422044   6.066   3.401   2.360 -0.7143 -1.1915 -0.6615
  191SAPI    O422045   6.144   3.507   2.204  0.0859 -0.5475  0.0313
  191SAPI   HO422046   6.051   3.512   2.181 -0.2013 -0.2896  1.2048
  191SAPI   C1522047   6.190   3.272   2.260  0.2583 -0.0074  0.4925
  191SAPI    H522048   6.242   3.287   2.162 -0.0567 -1.3127  0.1107
  191SAPI    O522049   6.067   3.203   2.229  0.3119  0.0023 -0.0544
  191SAPI   HO522050   6.016   3.215   2.309  1.2750  0.5312  0.4995
  191SAPI   C1622051   6.286   3.182   2.344  0.2999  0.1257  0.2129
  191SAPI    H622052   6.231   3.121   2.418  0.3078 -0.8120 -0.5391
  191SAPI    O622053   6.353   3.089   2.269  0.4830 -0.0658  0.0580
  191SAPI   HO622054   6.391   3.024   2.329  0.6843 -2.9889 -2.9766
  191SAPI   C1122055   6.389   3.269   2.418 -0.8084 -0.0962  0.0262
  191SAPI    H122056   6.439   3.321   2.333 -0.0816 -0.9212 -0.0588
  191SAPI     P22057   6.632   3.242   2.508 -0.2481  0.0462  0.0771
  191SAPI   O1322058   6.642   3.382   2.455  0.0965 -0.1432  0.2683
  191SAPI   O1422059   6.728   3.145   2.448 -0.0676  0.1833  0.3865
  191SAPI   O1222060   6.477   3.186   2.491  0.5450  0.1402 -0.4233
  191SAPI   O1122061   6.653   3.244   2.664 -0.2789 -0.1598  1.0895
  191SAPI    C122062   6.577   3.325   2.750 -0.2365 -0.3941 -0.2818
  191SAPI    HA22063   6.554   3.428   2.716 -2.5025 -1.0805 -1.0171
  191SAPI    HB22064   6.484   3.272   2.779 -0.3132 -0.2177 -0.2016
  191SAPI    C222065   6.642   3.321   2.898  0.8344 -0.1548  0.0066
  191SAPI    HS22066   6.720   3.398   2.917  0.3271  0.4793 -0.4315
  191SAPI   O2122067   6.702   3.192   2.920  0.1262 -0.5054  0.5977
  191SAPI   C2122068   6.838   3.184   2.939  0.3688  0.5085 -0.5408
  191SAPI   O2222069   6.913   3.269   2.979 -0.0495  0.2361 -0.0866
  191SAPI   C2222070   6.877   3.040   2.914 -0.5293 -0.1353 -0.4307
  191SAPI   H2R22071   6.797   2.973   2.951  0.5119 -0.3083  1.6735
  191SAPI   H2S22072   6.883   3.031   2.804 -0.9922 -0.6090 -0.4186
  191SAPI    C322073   6.536   3.342   3.011  0.2646  0.6499  0.0977
  191SAPI    HX22074   6.456   3.265   3.002  0.2430  0.6698  0.1253
  191SAPI    HY22075   6.481   3.437   2.996 -0.7691  0.3034  1.4997
  191SAPI   O3122076   6.598   3.320   3.138  0.0064 -0.4472 -0.1903
  191SAPI   C3122077   6.647   3.435   3.189 -0.2241  0.4991 -0.0502
  191SAPI   O3222078   6.650   3.544   3.139  0.2100 -0.3317  0.0551
  191SAPI   C3222079   6.696   3.408   3.333 -0.3805  0.9067  0.0313
  191SAPI   H2X22080   6.798   3.367   3.316 -0.1434  1.6462 -0.3526
  191SAPI   H2Y22081   6.632   3.323   3.365  0.6123  0.1810  0.1510
  191SAPI   C2322082   7.014   3.002   2.983 -0.7168 -0.0601  0.3622
  191SAPI   H3R22083   7.088   3.073   2.940 -1.8706  0.7101 -0.4122
  191SAPI   H3S22084   7.035   2.900   2.943 -3.4298 -0.5036 -0.0830
  191SAPI   C2422085   7.034   3.021   3.132  0.5006  0.1154 -0.5053
  191SAPI   H4R22086   6.942   2.969   3.168 -0.4448 -1.2347 -4.4165
  191SAPI   H4S22087   7.021   3.131   3.140 -0.0601 -0.0426  1.1157
  191SAPI   C2522088   7.152   2.967   3.200  0.3502  0.3916  0.5796
  191SAPI   H5R22089   7.209   2.892   3.144 -1.0303 -0.5263  0.3522
  191SAPI   C2622090   7.178   2.980   3.334 -0.0924 -0.7477 -0.0761
  191SAPI   H6R22091   7.275   2.947   3.373  0.9374  2.4638  0.4204
  191SAPI   C2722092   7.089   3.054   3.429  0.1844 -0.4509 -0.3399
  191SAPI   H7R22093   6.989   3.069   3.382  0.1548 -0.9969 -0.4657
  191SAPI   H7S22094   7.130   3.155   3.447  0.4173 -0.6000 -0.0343
  191SAPI   C2822095   7.091   2.976   3.563 -0.7108 -0.6186  0.3453
  191SAPI   H8R22096   7.042   2.878   3.554 -0.4575 -0.5679 -2.1969
  191SAPI   C2922097   7.127   3.031   3.685 -0.1403  0.0020 -0.2255
  191SAPI   H9R22098   7.126   2.972   3.778  2.2634 -0.7829 -0.6202
  191SAPI  C21022099   7.198   3.162   3.715 -0.7737 -0.2782 -0.2789
  191SAPI  H10R22100   7.251   3.196   3.624  0.5929  2.0393  1.2983
  191SAPI  H10S22101   7.265   3.131   3.797 -1.1646 -4.7316 -1.3804
  191SAPI  C21122102   7.094   3.261   3.754  0.4538 -0.3053 -0.0881
  191SAPI  H11R22103   7.031   3.299   3.672  0.8169  1.3993  0.3722
  191SAPI  C21222104   7.072   3.324   3.873  0.0907  1.0599  0.2003
  191SAPI  H12R22105   6.989   3.396   3.875 -0.3950  0.5372 -0.4337
  191SAPI  C21322106   7.153   3.293   4.000  0.3782  0.1435 -0.4635
  191SAPI  H13R22107   7.244   3.357   3.997  0.5694 -0.1565 -2.2152
  191SAPI  H13S22108   7.189   3.188   3.994  2.7769  0.9783 -1.8543
  191SAPI  C21422109   7.064   3.286   4.125  0.3791 -0.2037  0.8629
  191SAPI  H14R22110   6.955   3.296   4.114  0.4299  0.4138  0.8709
  191SAPI  C21522111   7.112   3.293   4.247 -0.3083 -0.4793 -0.3781
  191SAPI  H15R22112   7.039   3.276   4.327 -1.3739 -3.0886 -1.7713
  191SAPI  C21622113   7.263   3.308   4.281  0.8157  0.2581 -0.1655
  191SAPI  H16R22114   7.329   3.241   4.221  0.7930 -0.5783  0.7095
  191SAPI  H16S22115   7.277   3.281   4.388  2.9413  0.6638 -0.3030
  191SAPI  C21722116   7.321   3.453   4.253  0.4271 -0.2656  0.1704
  191SAPI  H17R22117   7.269   3.532   4.311  1.2395  1.7457 -1.6971
  191SAPI  H17S22118   7.302   3.484   4.148  2.0069 -0.2844 -0.1500
  191SAPI  C21822119   7.472   3.476   4.277  0.0452  1.1250 -0.7272
  191SAPI  H18R22120   7.499   3.582   4.259  3.1864  0.0633 -3.3837
  191SAPI  H18S22121   7.514   3.418   4.191 -1.8891 -2.6795  0.6373
  191SAPI  C21922122   7.526   3.423   4.410  0.0534 -1.4890  1.3155
  191SAPI  H19R22123   7.637   3.413   4.405  0.1311 -2.4205  3.6487
  191SAPI  H19S22124   7.487   3.329   4.454  0.3448 -2.1636  0.1869
  191SAPI  C22022125   7.491   3.529   4.522 -0.3532 -0.2065  0.5605
  191SAPI  H20R22126   7.538   3.626   4.497  1.1252 -1.2844 -1.1007
  191SAPI  H20S22127   7.536   3.500   4.620  0.4681 -0.8671  0.0070
  191SAPI  H20T22128   7.381   3.540   4.527 -0.5307 -0.3405 -1.9634
  191SAPI   C3322129   6.691   3.533   3.417  0.4824  0.1433 -0.5817
  191SAPI   H3X22130   6.585   3.564   3.427  0.8090  1.4263 -0.9788
  191SAPI   H3Y22131   6.753   3.610   3.365  2.5860 -1.2885 -0.3538
  191SAPI   C3422132   6.744   3.493   3.559  0.1160  0.2200 -0.1391
  191SAPI   H4X22133   6.784   3.580   3.616 -0.3679  0.4318 -0.1245
  191SAPI   H4Y22134   6.834   3.429   3.544  1.8628  2.1060  1.6656
  191SAPI   C3522135   6.652   3.399   3.642  0.5018  0.4168 -0.1023
  191SAPI   H5X22136   6.626   3.314   3.575 -0.3738  1.1625 -0.7314
  191SAPI   H5Y22137   6.560   3.447   3.681  0.1736 -1.0589  1.0593
  191SAPI   C3622138   6.724   3.337   3.762 -0.3533  0.4232  0.1468
  191SAPI   H6X22139   6.758   3.425   3.821  1.3967 -0.4285  0.4864
  191SAPI   H6Y22140   6.813   3.289   3.716  1.2684  2.1672  1.3209
  191SAPI   C3722141   6.645   3.236   3.850  0.2954 -0.4895  0.1038
  191SAPI   H7X22142   6.601   3.161   3.781 -1.2203  0.4569 -0.0026
  191SAPI   H7Y22143   6.563   3.294   3.899  1.9257  2.8191 -0.7485
  191SAPI   C3822144   6.744   3.183   3.957  0.4493  0.3042 -0.2321
  191SAPI   H8X22145   6.798   3.273   3.992 -0.7477  1.1393 -0.4418
  191SAPI   H8Y22146   6.810   3.103   3.919  0.4308  0.7516 -1.2288
  191SAPI   C3922147   6.667   3.125   4.079 -0.5734  0.5502  0.4427
  191SAPI   H9X22148   6.603   3.040   4.048  2.5600 -2.0821  0.5951
  191SAPI   H9Y22149   6.607   3.207   4.123 -0.1716  1.0368  0.0987
  191SAPI  C31022150   6.762   3.072   4.190 -0.4483  0.5190  0.1200
  191SAPI  H10X22151   6.832   3.150   4.228 -1.6742  0.5735  2.4552
  191SAPI  H10Y22152   6.826   2.988   4.155 -2.1673 -1.1234  0.7578
  191SAPI  C31122153   6.689   3.028   4.308 -0.4173  0.2695 -0.5232
  191SAPI  H11X22154   6.596   2.982   4.270  0.1997  0.6619 -2.6492
  191SAPI  H11Y22155   6.657   3.113   4.372 -0.6295  0.2851 -0.6520
  191SAPI  C31222156   6.759   2.937   4.400  0.3648 -0.0553  0.5333
  191SAPI  H12X22157   6.818   2.863   4.342 -1.0833  0.8382 -2.2623
  191SAPI  H12Y22158   6.684   2.875   4.452  1.1577 -1.6814 -0.1929
  191SAPI  C31322159   6.837   3.009   4.516  0.4124 -0.0206 -0.1381
  191SAPI  H13X22160   6.762   3.081   4.554 -0.9372 -0.8751 -1.0916
  191SAPI  H13Y22161   6.916   3.070   4.467  1.1094 -0.1907  0.7526
  191SAPI  C31422162   6.895   2.908   4.621 -0.1427  0.3244  1.2856
  191SAPI  H14X22163   6.966   2.834   4.577 -0.6661  0.0996  0.8026
  191SAPI  H14Y22164   6.804   2.856   4.657 -0.3888  0.0979  0.3599
  191SAPI  C31522165   6.959   2.965   4.746 -1.1143  0.0381 -0.9844
  191SAPI  H15X22166   6.886   3.021   4.808 -2.0493 -1.0852 -1.0329
  191SAPI  H15Y22167   7.046   3.030   4.720 -1.0717  0.4119  0.0649
  191SAPI  C31622168   7.006   2.839   4.821 -0.1193 -0.4815 -0.0898
  191SAPI  H16X22169   7.065   2.888   4.902 -3.1997  0.9146  1.4897
  191SAPI  H16Y22170   7.083   2.791   4.758 -1.6930 -1.6694 -1.1888
  191SAPI  C31722171   6.896   2.745   4.871  0.3949  0.1648  0.1434
  191SAPI  H17X22172   6.936   2.675   4.947 -0.0438  0.3946  0.5956
  191SAPI  H17Y22173   6.845   2.681   4.797  0.6948 -0.4668  0.4800
  191SAPI  C31822174   6.788   2.815   4.951  0.2814 -0.2057  0.2046
  191SAPI  H18X22175   6.716   2.736   4.982  0.6568 -1.0995 -1.1548
  191SAPI  H18Y22176   6.737   2.893   4.891 -1.9079 -1.2398  0.6039
  191SAPI  H18Z22177   6.834   2.854   5.045 -2.1095  0.2014  1.2785
  192SAPI   C1222178   2.658   1.977   2.482 -0.3015  0.0103 -0.9188
  192SAPI    H222179   2.738   2.020   2.545 -1.0071  0.6813 -0.4591
  192SAPI    O222180   2.705   1.871   2.406  0.6982  0.1612  0.3539
  192SAPI   HO222181   2.792   1.903   2.381  0.5962 -0.1283 -0.3977
  192SAPI   C1322182   2.544   1.931   2.577  0.5843 -1.4900  0.5723
  192SAPI    H322183   2.512   2.013   2.644 -1.4739  0.2082 -2.2317
  192SAPI    O322184   2.587   1.823   2.661  0.6268 -0.3246  0.3999
  192SAPI   HO322185   2.626   1.760   2.600 -1.1306 -0.2853 -0.8414
  192SAPI   C1422186   2.424   1.895   2.496  0.2997  0.2662  0.2575
  192SAPI    H422187   2.427   1.786   2.473 -0.9750 -0.1423  1.7964
  192SAPI    O422188   2.312   1.883   2.586  0.0571 -0.5113 -0.3743
  192SAPI   HO422189   2.249   1.813   2.567 -1.5969  0.7883  0.0219
  192SAPI   C1522190   2.386   1.977   2.370  0.0401  0.7934 -0.4889
  192SAPI    H522191   2.308   2.049   2.404 -0.5771  1.2371 -2.6486
  192SAPI    O522192   2.322   1.893   2.276 -0.2732  0.0911 -0.0696
  192SAPI   HO522193   2.229   1.919   2.271 -0.9814 -1.9932  1.2649
  192SAPI   C1622194   2.498   2.057   2.308 -0.1664  0.0714  0.2301
  192SAPI    H622195   2.547   1.992   2.232  1.6609  1.3617  0.2375
  192SAPI    O622196   2.449   2.171   2.240  0.3693 -0.5242  0.4436
  192SAPI   HO622197   2.494   2.253   2.256  0.0748  0.0531 -1.4542
  192SAPI   C1122198   2.612   2.097   2.403 -0.1255  1.0844  0.1874
  192SAPI    H122199   2.563   2.166   2.475 -1.3578  0.0776  0.3609
  192SAPI     P22200   2.748   2.302   2.308  0.0907 -0.0136  0.7371
  192SAPI   O1322201   2.620   2.366   2.262  0.0661  0.5214 -0.3493
  192SAPI   O1422202   2.873   2.340   2.234 -0.2443 -0.3386 -0.5484
  192SAPI   O1222203   2.730   2.144   2.331  0.1173  0.2665  0.1901
  192SAPI   O1122204   2.784   2.343   2.451  0.1878 -0.4585  0.6311
  192SAPI    C122205   2.807   2.482   2.477  0.1721 -0.0126 -0.2603
  192SAPI    HA22206   2.893   2.519   2.418 -1.1475  0.9288 -1.6428
  192SAPI    HB22207   2.716   2.545   2.468 -0.2562 -0.3965  1.0749
  192SAPI    C222208   2.851   2.493   2.626  0.4287 -0.3458  0.5906
  192SAPI    HS22209   2.862   2.602   2.639  1.4098 -0.5292  1.4449
  192SAPI   O2122210   2.982   2.421   2.644 -0.1284  0.6593  0.5946
  192SAPI   C2122211   3.062   2.466   2.741  0.0996 -0.1611 -0.4801
  192SAPI   O2222212   3.043   2.560   2.818 -0.2076  0.3219  0.4343
  192SAPI   C2222213   3.188   2.376   2.746  0.2160 -0.2568  0.5168
  192SAPI   H2R22214   3.195   2.313   2.655  2.2780 -0.3280  0.6702
  192SAPI   H2S22215   3.276   2.443   2.731  0.4694 -0.9234 -1.1220
  192SAPI    C322216   2.741   2.439   2.726 -0.5774 -0.2059 -0.2208
  192SAPI    HX22217   2.738   2.329   2.714  0.3688 -0.3071  0.3685
  192SAPI    HY22218   2.640   2.475   2.696 -1.2083 -1.4898  0.3184
  192SAPI   O3122219   2.782   2.461   2.868  0.3566 -0.0564 -0.2245
  192SAPI   C3122220   2.768   2.594   2.895 -0.3797  0.1517 -0.3174
  192SAPI   O3222221   2.712   2.673   2.823 -0.7437 -0.4171 -0.9431
  192SAPI   C3222222   2.808   2.608   3.038  0.4398  0.1731  0.1213
  192SAPI   H2X22223   2.860   2.515   3.068  0.1822 -0.0669 -0.1715
  192SAPI   H2Y22224   2.717   2.612   3.101  0.2361 -1.3091 -0.0448
  192SAPI   C2322225   3.204   2.279   2.871 -0.5650  0.1664 -0.8544
  192SAPI   H3R22226   3.307   2.238   2.858 -0.4957 -0.4743  1.3524
  192SAPI   H3S22227   3.136   2.191   2.872 -1.7017  1.0138 -1.4681
  192SAPI   C2422228   3.205   2.356   3.006  0.4171 -0.6926 -0.1666
  192SAPI   H4R22229   3.107   2.408   3.001  0.5851 -0.4233 -0.8360
  192SAPI   H4S22230   3.279   2.436   2.986 -0.8660  0.9159  1.1965
  192SAPI   C2522231   3.229   2.292   3.140 -0.4081  0.2593  0.1668
  192SAPI   H5R22232   3.178   2.334   3.227 -0.4455  0.4864  0.0357
  192SAPI   C2622233   3.315   2.199   3.172  0.7050  0.0478 -0.4820
  192SAPI   H6R22234   3.307   2.179   3.280 -0.9449  0.4780 -0.5100
  192SAPI   C2722235   3.405   2.119   3.085 -0.1955  0.5212  0.3068
  192SAPI   H7R22236   3.346   2.059   3.013  0.0259  0.1407  0.4322
  192SAPI   H7S22237   3.449   2.036   3.145 -1.3665  1.8807  3.2319
  192SAPI   C2822238   3.522   2.174   3.010 -0.7360  0.4156 -0.0409
  192SAPI   H8R22239   3.530   2.143   2.905  1.8120  0.4968  0.0558
  192SAPI   C2922240   3.635   2.230   3.064 -0.2339  0.2517  0.0969
  192SAPI   H9R22241   3.713   2.262   2.993 -2.2392  1.3908 -1.7333
  192SAPI  C21022242   3.653   2.244   3.215 -0.4023 -0.3090 -0.1627
  192SAPI  H10R22243   3.761   2.220   3.226 -0.2798  0.5307  0.5636
  192SAPI  H10S22244   3.595   2.166   3.269  0.1187 -1.1200 -0.7447
  192SAPI  C21122245   3.610   2.376   3.262  1.0539 -0.2911  0.7836
  192SAPI  H11R22246   3.574   2.437   3.179  3.3331 -0.2436 -0.2340
  192SAPI  C21222247   3.596   2.426   3.388 -0.2454  0.0035 -0.8241
  192SAPI  H12R22248   3.566   2.531   3.402 -0.6088 -0.0752 -1.0221
  192SAPI  C21322249   3.629   2.354   3.517  0.0447  0.0772  0.3918
  192SAPI  H13R22250   3.625   2.433   3.596 -0.3451  0.9427 -0.4720
  192SAPI  H13S22251   3.735   2.321   3.509 -0.1639 -0.5362  0.1122
  192SAPI  C21422252   3.525   2.244   3.544 -1.0170  0.0657  0.0250
  192SAPI  H14R22253   3.519   2.169   3.464  1.1297 -0.3931  0.2363
  192SAPI  C21522254   3.451   2.229   3.659  0.1557  0.0084 -0.0583
  192SAPI  H15R22255   3.377   2.147   3.666  0.0692  0.1057  0.1943
  192SAPI  C21622256   3.455   2.314   3.781 -0.1750 -0.0403 -0.4777
  192SAPI  H16R22257   3.466   2.422   3.757  0.9845 -0.0246  0.0551
  192SAPI  H16S22258   3.544   2.295   3.845  0.1452  1.2460 -0.5080
  192SAPI  C21722259   3.329   2.294   3.866  0.4240 -0.6766 -0.4094
  192SAPI  H17R22260   3.326   2.188   3.899  1.2273 -1.2188 -1.9903
  192SAPI  H17S22261   3.241   2.325   3.806 -0.1881  0.7864  1.1684
  192SAPI  C21822262   3.322   2.381   3.994 -0.6654 -0.4669  0.8217
  192SAPI  H18R22263   3.226   2.374   4.049  0.5042  0.6157  3.1543
  192SAPI  H18S22264   3.321   2.490   3.971 -1.3749 -0.4005  1.1355
  192SAPI  C21922265   3.424   2.350   4.109  0.0351  0.7590  0.2402
  192SAPI  H19R22266   3.522   2.347   4.058 -1.2761 -1.5412 -2.4844
  192SAPI  H19S22267   3.392   2.251   4.149 -2.2047  1.9318  1.5514
  192SAPI  C22022268   3.402   2.445   4.228 -0.6125 -0.5215  0.7709
  192SAPI  H20R22269   3.295   2.452   4.258 -0.7559 -0.4262  0.2457
  192SAPI  H20S22270   3.426   2.546   4.189 -1.4413 -0.2918  0.8424
  192SAPI  H20T22271   3.456   2.433   4.324  0.2758 -0.7702  0.2460
  192SAPI   C3322272   2.893   2.727   3.074  0.9089  0.0011  0.6783
  192SAPI   H3X22273   2.840   2.820   3.044 -2.0994 -1.8675 -0.2461
  192SAPI   H3Y22274   2.992   2.718   3.024 -0.5156 -0.2942 -2.3241
  192SAPI   C3422275   2.910   2.744   3.225  0.0392 -0.3545 -0.2733
  192SAPI   H4X22276   2.811   2.747   3.275  0.1063  0.7308 -0.1719
  192SAPI   H4Y22277   2.967   2.838   3.241  1.4599 -1.4045  1.0775
  192SAPI   C3522278   2.998   2.632   3.291  0.3024  0.2658 -0.1193
  192SAPI   H5X22279   3.075   2.683   3.352 -0.0069 -0.1559  0.6310
  192SAPI   H5Y22280   3.049   2.575   3.210 -0.5282 -2.4750  1.1734
  192SAPI   C3622281   2.918   2.544   3.388  0.3881 -0.2418  0.6218
  192SAPI   H6X22282   2.956   2.440   3.380  3.0343  0.4810  2.4889
  192SAPI   H6Y22283   2.812   2.548   3.354  0.7548  0.6507 -0.4659
  192SAPI   C3722284   2.915   2.594   3.534 -0.9344 -0.3119 -0.0883
  192SAPI   H7X22285   2.835   2.538   3.587 -1.5092  0.1610 -0.4331
  192SAPI   H7Y22286   2.889   2.702   3.535 -2.1729 -0.5950  1.3306
  192SAPI   C3822287   3.048   2.568   3.614 -0.3855 -0.1059 -0.1282
  192SAPI   H8X22288   3.135   2.611   3.561  0.6610  0.0219  1.6145
  192SAPI   H8Y22289   3.062   2.458   3.617  0.8350  0.0508  0.0926
  192SAPI   C3922290   3.057   2.600   3.761  0.3040  0.2367  0.2958
  192SAPI   H9X22291   3.032   2.708   3.772 -0.9244 -0.1899  2.1776
  192SAPI   H9Y22292   3.156   2.582   3.806  0.1999 -0.6361  0.1930
  192SAPI  C31022293   2.957   2.509   3.852  0.2371  0.1863 -0.7262
  192SAPI  H10X22294   2.989   2.404   3.838 -0.1032 -0.0767  0.3122
  192SAPI  H10Y22295   2.849   2.517   3.827  0.3613  0.5033 -1.1645
  192SAPI  C31122296   2.975   2.547   3.998  0.0004 -0.1227 -0.0026
  192SAPI  H11X22297   2.914   2.637   4.020  1.0561  0.8763 -1.0241
  192SAPI  H11Y22298   3.081   2.567   4.026  0.0290 -1.1537  0.7058
  192SAPI  C31222299   2.918   2.438   4.085  0.2037  0.6889  0.6689
  192SAPI  H12X22300   2.971   2.346   4.054 -2.7254 -0.5637 -0.9446
  192SAPI  H12Y22301   2.807   2.441   4.080  0.1371  1.9800  2.0777
  192SAPI  C31322302   2.948   2.471   4.240  0.1347  0.1230  0.2368
  192SAPI  H13X22303   2.895   2.569   4.248  1.3993  1.0265 -1.6733
  192SAPI  H13Y22304   3.057   2.480   4.258  0.5241  0.8398 -2.1587
  192SAPI  C31422305   2.873   2.362   4.331 -0.6570  0.2164 -0.3520
  192SAPI  H14X22306   2.922   2.264   4.318 -0.3458  0.5943 -2.1791
  192SAPI  H14Y22307   2.767   2.362   4.299 -1.2335  1.0267  1.3807
  192SAPI  C31522308   2.869   2.417   4.469  0.3680  0.2312 -0.4522
  192SAPI  H15X22309   2.790   2.492   4.487  1.5060  1.1763  0.7982
  192SAPI  H15Y22310   2.966   2.461   4.500  0.6331 -1.7105  1.8285
  192SAPI  C31622311   2.839   2.297   4.562 -0.2196  0.9658  0.8266
  192SAPI  H16X22312   2.931   2.236   4.568  0.7210  2.1407 -0.9932
  192SAPI  H16Y22313   2.754   2.232   4.531  0.5851  1.4143 -2.7898
  192SAPI  C31722314   2.810   2.339   4.710 -0.1961 -0.4300 -0.1499
  192SAPI  H17X22315   2.803   2.250   4.776 -2.2632  0.8967  1.5096
  192SAPI  H17Y22316   2.714   2.395   4.705 -0.4952 -0.8783  0.5454
  192SAPI  C31822317   2.929   2.426   4.764 -0.5614 -0.4195 -0.4214
  192SAPI  H18X22318   2.947   2.513   4.698 -0.1755  0.0824  0.3467
  192SAPI  H18Y22319   3.021   2.365   4.755 -0.5478 -0.6073  0.8438
  192SAPI  H18Z22320   2.925   2.460   4.869  0.2625  2.1132 -1.1440
  193SOD    SOD22321   6.526   5.428   0.893 -0.0752 -0.1090  0.0181
  194SOD    SOD22322   0.613   1.283   1.641  0.3709 -0.4026  0.1638
  195SOD    SOD22323   2.198   0.103   7.820 -0.0700  0.1685 -0.2369
  196SOD    SOD22324   3.965   0.435   1.896 -0.1541  0.0664  0.0437
  197SOD    SOD22325   4.319   4.686   8.022 -0.1317 -0.4431  0.3047
  198SOD    SOD22326   2.375   0.558   8.404 -0.2062 -0.5529  0.2869
  199SOD    SOD22327   6.441   2.761   1.227  0.7098  0.0794  0.3058
  200SOD    SOD22328   6.696   1.811   7.937  0.0729 -0.1660 -0.3620
  201SOD    SOD22329   4.856   6.005   8.517  0.0601 -0.2388 -0.3991
  202SOD    SOD22330   4.047   2.493   2.471  0.6107  0.0370 -0.1975
  203SOD    SOD22331   3.431   4.472   1.265 -0.2846  0.0886  0.2528
  204SOD    SOD22332   0.776   4.659   2.963  0.2915  0.0587 -0.2189
  205SOD    SOD22333   4.795   5.433   3.124 -0.0010  0.3504 -0.4210
  206SOD    SOD22334   0.083   6.573   0.370  0.3613  0.5273  0.1774
  207SOD    SOD22335   5.503   3.638   0.961 -0.1572 -0.0581  0.3176
  208SOD    SOD22336   3.379   1.905   7.579  0.2328  0.5035  0.4304
  209SOD    SOD22337   4.828   5.171   2.069 -0.2697 -0.2925  0.3568
  210SOD    SOD22338   3.217   6.006   2.328  0.2487  0.1181 -0.1325
  211SOD    SOD22339   0.948   5.150   8.051  0.2269 -0.0767  0.1252
  212SOD    SOD22340   4.261   4.946   2.342  0.3992  0.2747 -0.6642
  213SOD    SOD22341   6.773   5.270   8.407  0.0041  0.1388  0.2837
  214SOD    SOD22342   4.825   1.713   7.453 -0.5026 -0.1821 -0.1453
  215SOD    SOD22343   5.530   5.864   7.181  0.2487  0.5428 -0.4688
  216SOD    SOD22344   4.012   0.546   0.052 -0.0095  0.2853  0.1430
  217SOD    SOD22345   5.499   1.338   1.689  0.0410 -0.0509  0.2140
  218SOD    SOD22346   1.742   2.864   8.602  0.1166  0.2812 -0.3054
  219SOD    SOD22347   4.290   5.940   8.318 -0.0553  0.5001  0.1134
  220SOD    SOD22348   4.611   0.399   0.988  0.3378 -0.1038  0.2195
  221SOD    SOD22349   1.977   1.149   7.419  0.2810 -0.2576 -0.0243
  222SOD    SOD22350   0.958   2.712   0.805  0.3591  0.5326  0.3282
  223SOD    SOD22351   1.634   5.881   2.814  0.5616 -0.0047  0.2057
  224SOD    SOD22352   2.924   4.012   0.112 -0.3661 -0.3400 -0.1419
  225SOD    SOD22353   2.007   4.636   0.677  0.0625  0.3398  0.9934
  226SOD    SOD22354   5.451   6.606   1.748  0.1991  0.3321  0.1129
  227SOD    SOD22355   4.332   4.825   7.204 -0.1279  0.3049  0.1122
  228SOD    SOD22356   4.740   1.757   1.923 -0.0211 -0.5105 -0.0735
  229SOD    SOD22357   3.443   6.302   1.121 -0.1206  0.2892  0.5614
  230CLA    CLA22358   4.125   5.721   1.646  0.4191 -0.0070 -0.1582
  231CLA    CLA22359   3.143   6.479   8.807  0.3453  0.0090 -0.3116
  232CLA    CLA22360   0.828   3.645   1.934 -0.0701 -0.5017  0.2639
  233CLA    CLA22361   3.925   1.452   8.484  0.0576 -0.2563 -0.4182
  234CLA    CLA22362   4.524   5.006   1.841  0.0221 -0.2564  0.3760
  235CLA    CLA22363   2.264   0.567   7.577  0.0699  0.2635  0.2492
  236CLA    CLA22364   5.890   2.731   8.280 -0.0036  0.0259  0.1267
  237CLA    CLA22365   1.504   3.219   8.414 -0.0826 -0.0208 -0.5220
  238CLA    CLA22366   4.032   1.217   0.968 -0.0743 -0.3516 -0.1055
  239CLA    CLA22367   6.112   6.396   1.153  0.2523 -0.2239 -0.4047
  240CLA    CLA22368   3.739   4.019   2.519 -0.0403 -0.3098  0.3437
  241CLA    CLA22369   4.419   2.220   1.825 -0.3794 -0.3323  0.1963
  242CLA    CLA22370   1.300   2.436   0.411 -0.0831  0.2702 -0.2169
  243CLA    CLA22371   1.940   2.847   1.416  0.0175  0.4625  0.5188
  244CLA    CLA22372   4.429   2.007   7.955  0.1358  0.6210 -0.2657
  245CLA    CLA22373   1.069   3.473   0.603  0.2358 -0.0143  0.0298
  246CLA    CLA22374   4.626   6.484   1.794  0.0453 -0.1451 -0.3488
  247TIP3   OH222375   2.030   5.975   0.794  0.4080  0.6523 -0.3278
  247TIP3    H122376   2.019   6.049   0.735 -0.1263  1.3238  0.5880
  247TIP3    H222377   2.113   5.934   0.767 -0.2277  0.4379 -2.0432
  248TIP3   OH222378   0.299   4.192   2.131  0.4984 -0.6206 -0.2320
  248TIP3    H122379   0.224   4.150   2.088 -1.0266  0.9384  0.7275
  248TIP3    H222380   0.270   4.202   2.222  0.1218  3.6219 -0.6439
  249TIP3   OH222381   0.444   2.545   7.946 -0.2703 -0.0445  0.1302
  249TIP3    H122382   0.511   2.478   7.956 -0.6315 -0.6314 -1.1861
  249TIP3    H222383   0.480   2.606   7.881 -0.8402 -0.1518 -0.2944
  250TIP3   OH222384   1.324   6.110   1.300 -0.2968 -0.3334  0.7975
  250TIP3    H122385   1.255   6.139   1.240 -0.4581  1.3158  1.7276
  250TIP3    H222386   1.287   6.033   1.343  0.2778 -2.3179 -1.9948
  251TIP3   OH222387   6.721   4.937   1.471 -0.3579  0.4217  0.1637
  251TIP3    H122388   6.650   4.987   1.432 -1.0823 -0.3342  0.4937
  251TIP3    H222389   6.679   4.862   1.512  0.8826 -1.7491 -2.2804
  252TIP3   OH222390   6.358   6.234   0.723  0.4130  0.2438  0.6493
  252TIP3    H122391   6.338   6.211   0.814  0.5799  2.0781  1.1898
  252TIP3    H222392   6.275   6.223   0.677 -0.4598  2.1445  1.6718
  253TIP3   OH222393   1.187   4.633   2.049  0.0537 -0.7792  0.0178
  253TIP3    H122394   1.138   4.592   1.979 -0.6077 -1.2445  0.7326
  253TIP3    H222395   1.121   4.678   2.102  0.5797 -0.1562  0.1583
  254TIP3   OH222396   0.123   4.448   7.245 -0.3074 -1.0280 -0.6276
  254TIP3    H122397   0.109   4.368   7.194  1.2293  0.2313 -3.2599
  254TIP3    H222398   0.219   4.454   7.253 -0.4611 -0.2107  0.8433
  255TIP3   OH222399   0.129   6.507   0.130 -0.5507 -0.5408 -0.5820
  255TIP3    H122400   0.186   6.432   0.120 -0.3428 -0.5244  0.3899
  255TIP3    H222401   0.046   6.481   0.090 -1.1098 -2.0214  1.3782
  256TIP3   OH222402   3.612   3.027   1.508 -0.4078 -0.0903  0.1698
  256TIP3    H122403   3.598   2.998   1.417  0.7294  0.8461 -0.3271
  256TIP3    H222404   3.566   3.110   1.514  1.0610  0.7704 -0.1286
  257TIP3   OH222405   0.662   1.885   1.682  0.0334 -0.1931 -0.0672
  257TIP3    H122406   0.599   1.891   1.754 -1.7972 -0.1955 -1.5919
  257TIP3    H222407   0.652   1.968   1.634  0.7398 -0.4587 -0.7043
  258TIP3   OH222408   3.797   2.443   1.778  0.2063 -0.4728 -0.0274
  258TIP3    H122409   3.745   2.408   1.850  0.9040 -2.8271 -0.5928
  258TIP3    H222410   3.860   2.374   1.758  1.7157  1.1662 -1.2165
  259TIP3   OH222411   2.952   0.593   0.943  0.7305  0.0575 -0.5207
  259TIP3    H122412   2.984   0.525   1.002  0.4411  0.4141  0.0487
  259TIP3    H222413   3.014   0.591   0.870  1.5167  0.1046  0.1286
  260TIP3   OH222414   2.560   3.180   7.631  0.2610 -0.5286 -0.0465
  260TIP3    H122415   2.510   3.102   7.609 -1.0291  0.7720 -2.0541
  260TIP3    H222416   2.647   3.164   7.593  0.3272 -1.3805  0.4436
  261TIP3   OH222417   4.056   1.037   2.562  0.4237 -0.3666  0.1447
  261TIP3    H122418   3.972   1.076   2.588  1.3635  1.8980  0.0316
  261TIP3    H222419   4.117   1.062   2.632  1.2218 -1.1106 -0.2678
  262TIP3   OH222420   0.932   3.076   1.435 -0.1016 -0.6324  0.5111
  262TIP3    H122421   1.019   3.103   1.406 -0.1648 -1.8637 -0.9872
  262TIP3    H222422   0.887   3.158   1.456  0.6193  0.2402 -1.1067
  263TIP3   OH222423   2.259   2.429   0.651 -0.2030  0.4187  0.3291
  263TIP3    H122424   2.209   2.360   0.695  0.7032 -0.9171 -0.6975
  263TIP3    H222425   2.297   2.387   0.575  1.2754  1.7911  0.2671
  264TIP3   OH222426   1.532   2.453   1.191  0.0574 -0.3689  0.2892
  264TIP3    H122427   1.513   2.493   1.276 -1.8344 -1.1974  0.3178
  264TIP3    H222428   1.479   2.504   1.129 -1.6470 -2.1293  0.2002
  265TIP3   OH222429   2.979   5.044   2.893  0.3180  0.1645  0.8042
  265TIP3    H122430   3.048   5.107   2.875 -1.4781  1.4429 -2.3196
  265TIP3    H222431   3.000   4.968   2.838 -1.3740  1.1434 -1.3499
  266TIP3   OH222432   4.171   2.580   1.092 -0.0906  0.0502 -0.1481
  266TIP3    H122433   4.182   2.662   1.045  2.0019 -0.7058 -1.0867
  266TIP3    H222434   4.232   2.586   1.166  0.9823 -1.0642 -0.8869
  267TIP3   OH222435   6.099   0.143   8.410  0.1350 -0.1662  0.2602
  267TIP3    H122436   6.007   0.167   8.421  0.2253  0.2699  0.0558
  267TIP3    H222437   6.139   0.165   8.494  0.4536  1.4944 -0.2985
  268TIP3   OH222438   0.230   4.437   1.225 -0.2113  0.4639  0.3056
  268TIP3    H122439   0.278   4.472   1.150  0.2145  1.9253  1.2149
  268TIP3    H222440   0.287   4.370   1.262 -0.1888  0.1149 -0.3586
  269TIP3   OH222441   5.687   1.795   7.782  0.1152  0.3100  0.1144
  269TIP3    H122442   5.614   1.816   7.840 -0.6581 -0.1508 -0.6658
  269TIP3    H222443   5.735   1.877   7.772 -0.5791  0.7369  0.2453
  270TIP3   OH222444   5.219   4.372   2.809  0.0709 -0.5288  0.2953
  270TIP3    H122445   5.126   4.392   2.802 -0.1359 -1.2777  0.8254
  270TIP3    H222446   5.233   4.353   2.902  1.1905  1.6674  0.6628
  271TIP3   OH222447   0.586   5.476   7.707 -0.1426  0.3159 -0.1576
  271TIP3    H122448   0.656   5.541   7.705 -1.6070  2.0584  1.2416
  271TIP3    H222449   0.532   5.495   7.630  0.9105 -1.1018 -1.3027
  272TIP3   OH222450   2.956   6.538   1.866  0.6688  0.2411  0.2212
  272TIP3    H122451   2.904   6.489   1.929 -1.1619  2.6414  0.7055
  272TIP3    H222452   2.947   6.629   1.893  1.4060  1.1807 -2.3969
  273TIP3   OH222453   2.438   2.548   8.403  0.6325  0.0835  0.0937
  273TIP3    H122454   2.459   2.463   8.442 -1.6513 -1.3844 -1.5505
  273TIP3    H222455   2.348   2.565   8.430 -0.1075  0.2675 -2.2439
  274TIP3   OH222456   6.835   1.733   7.756  0.5725 -0.5621 -0.3477
  274TIP3    H122457   6.927   1.708   7.746 -0.1074 -3.0389 -1.2216
  274TIP3    H222458   6.799   1.732   7.667  0.1548  2.7978 -0.3509
  275TIP3   OH222459   6.658   0.397   1.951  0.0915 -0.3401 -0.1998
  275TIP3    H122460   6.677   0.406   2.044 -2.8942  0.7675  0.4023
  275TIP3    H222461   6.595   0.325   1.946  0.6432 -0.7679 -1.4593
  276TIP3   OH222462   3.070   1.529   8.200  0.6698  0.3596  0.0402
  276TIP3    H122463   3.081   1.525   8.105  1.1969  0.7414  0.0826
  276TIP3    H222464   2.996   1.588   8.213  0.2012 -0.1762 -0.1516
  277TIP3   OH222465   1.293   3.614   0.363 -0.3941  0.1313  0.0909
  277TIP3    H122466   1.359   3.668   0.406 -0.8460  1.1004 -0.4050
  277TIP3    H222467   1.234   3.587   0.433 -0.3157  0.5093  0.3022
  278TIP3   OH222468   5.529   5.189   0.056 -0.2668 -0.3198  0.4964
  278TIP3    H122469   5.589   5.240   0.110 -0.7334  0.0834  0.6499
  278TIP3    H222470   5.499   5.250  -0.011  0.2301 -0.7923 -0.1671
  279TIP3   OH222471   4.871   0.135   2.296 -0.4632  0.2082  0.0483
  279TIP3    H122472   4.820   0.143   2.215  0.3973  0.5269 -0.4791
  279TIP3    H222473   4.851   0.048   2.329  0.2650 -0.4905 -1.2741
  280TIP3   OH222474   0.505   5.828   2.070  0.2540  0.2044 -0.4640
  280TIP3    H122475   0.409   5.826   2.074  0.2658  1.2111  1.1109
  280TIP3    H222476   0.531   5.883   2.144  2.1595 -1.8283  0.4788
  281TIP3   OH222477   1.056   2.430   8.662  0.8033  0.1872 -0.2040
  281TIP3    H122478   0.966   2.442   8.691  0.3739 -1.8046 -0.5414
  281TIP3    H222479   1.086   2.517   8.637 -1.1260  0.8275 -0.3922
  282TIP3   OH222480   6.809   3.520   2.254 -0.4102  0.1249  0.1597
  282TIP3    H122481   6.754   3.477   2.320 -2.5424  2.7270  0.2726
  282TIP3    H222482   6.821   3.609   2.288  0.3815  0.8538 -1.9002
  283TIP3   OH222483   3.093   6.539   2.404  0.2723 -0.4999  0.7779
  283TIP3    H122484   3.018   6.581   2.446 -0.4707  0.8043 -1.6151
  283TIP3    H222485   3.157   6.609   2.393  1.4792 -1.3794  1.8957
  284TIP3   OH222486   4.775   2.084   1.744 -0.1053 -0.4365  0.3341
  284TIP3    H122487   4.709   2.066   1.811  0.5412  0.2937  1.2038
  284TIP3    H222488   4.765   2.177   1.725 -0.6245 -0.7383 -0.9995
  285TIP3   OH222489   3.322   4.996   7.933  0.4002  0.3344  0.1927
  285TIP3    H122490   3.290   4.973   7.845 -0.0654 -0.7446  0.6277
  285TIP3    H222491   3.259   4.955   7.992  0.1454  1.8757  1.0407
  286TIP3   OH222492   0.076   4.946   8.628 -0.2813  0.4830  0.3958
  286TIP3    H122493   0.011   4.882   8.658 -0.1208  1.0616  2.1290
  286TIP3    H222494   0.040   4.981   8.547 -0.3848 -1.7481 -0.5986
  287TIP3   OH222495   0.714   4.435   8.496 -0.0486 -0.8105 -0.0052
  287TIP3    H122496   0.767   4.514   8.503  0.1021 -0.9603  0.5676
  287TIP3    H222497   0.642   4.449   8.557  0.2648 -1.3357  0.4990
  288TIP3   OH222498   3.928   3.183   8.147  0.0930  0.1844  0.1517
  288TIP3    H122499   4.006   3.238   8.150  1.3106 -1.4187 -0.6075
  288TIP3    H222500   3.860   3.234   8.193  0.7412  2.8830 -1.6880
  289TIP3   OH222501   4.400   4.401   8.694  0.3688 -0.1680 -1.0315
  289TIP3    H122502   4.483   4.353   8.697  1.1688  1.1937 -0.9318
  289TIP3    H222503   4.351   4.368   8.768  0.3937 -1.7128 -1.6587
  290TIP3   OH222504   4.481   1.073   1.825  0.2372 -0.1193  0.6919
  290TIP3    H122505   4.420   1.028   1.884  1.8886  0.2631  2.8388
  290TIP3    H222506   4.475   1.165   1.851  1.3641 -0.0135  0.6021
  291TIP3   OH222507   5.930   5.205   1.147 -0.3855 -0.4309 -0.2514
  291TIP3    H122508   5.879   5.181   1.224 -0.9110 -0.2189 -0.5282
  291TIP3    H222509   6.021   5.206   1.177 -0.7784  3.1020  1.3463
  292TIP3   OH222510   1.493   6.535   8.697 -0.0346  0.3632 -0.5353
  292TIP3    H122511   1.508   6.494   8.612  0.1204  0.5118 -0.5813
  292TIP3    H222512   1.403   6.513   8.719 -0.5317  1.4654 -1.3744
  293TIP3   OH222513   2.664   6.388   7.907 -0.4127  0.3382 -0.0741
  293TIP3    H122514   2.706   6.473   7.918 -0.6245  0.6265 -1.3939
  293TIP3    H222515   2.719   6.328   7.958  0.8463  0.9485 -0.6607
  294TIP3   OH222516   4.764   3.517   1.896  0.7739  1.2515 -0.6286
  294TIP3    H122517   4.749   3.585   1.963  0.4209  1.0727 -0.5253
  294TIP3    H222518   4.858   3.501   1.900  0.4338 -0.9047  1.9462
  295TIP3   OH222519   5.412   1.909   2.651 -0.1970 -0.6507  0.3596
  295TIP3    H122520   5.432   1.830   2.601  0.7449 -1.0919  1.3616
  295TIP3    H222521   5.345   1.955   2.600 -0.6384 -2.0089 -0.3262
  296TIP3   OH222522   4.142   0.117   7.804  0.2262  0.3116 -0.0177
  296TIP3    H122523   4.233   0.092   7.789  0.4587  1.6652 -0.9971
  296TIP3    H222524   4.144   0.167   7.886  0.4136  0.6271 -0.2153
  297TIP3   OH222525   0.789   2.298   8.483  0.3852  0.2600  0.8371
  297TIP3    H122526   0.742   2.380   8.498 -1.5320 -0.9289  1.6603
  297TIP3    H222527   0.731   2.230   8.517  2.3491 -1.3809  1.1136
  298TIP3   OH222528   4.801   4.655   8.705  0.4670 -0.3483  0.4879
  298TIP3    H122529   4.740   4.606   8.650  0.4340 -1.2288  1.2745
  298TIP3    H222530   4.760   4.654   8.792 -0.1812  2.2095  0.2909
  299TIP3   OH222531   2.846   5.044   0.161  0.0080 -0.1918  0.5080
  299TIP3    H122532   2.841   5.015   0.252 -1.7436 -2.3807 -0.1983
  299TIP3    H222533   2.766   5.012   0.121  0.7363  0.6866 -1.8360
  300TIP3   OH222534   1.655   6.407   0.109 -0.2178 -0.2207 -0.1849
  300TIP3    H122535   1.596   6.345   0.151 -0.6277 -0.8212 -1.5972
  300TIP3    H222536   1.633   6.402   0.016  0.6231  1.1045 -0.4829
  301TIP3   OH222537   4.075   4.232   1.795 -0.4683 -0.0016  0.4020
  301TIP3    H122538   4.077   4.235   1.891 -1.9896  5.2824  0.5664
  301TIP3    H222539   3.983   4.217   1.774 -0.4724  0.7864 -0.1561
  302TIP3   OH222540   4.915   0.467   1.561  0.1741 -0.3331 -0.3987
  302TIP3    H122541   4.830   0.424   1.566  0.0334  0.0149  0.4013
  302TIP3    H222542   4.926   0.487   1.469  0.8353 -3.2044 -1.0377
  303TIP3   OH222543   4.466   3.039   7.299 -0.0597  0.0654 -0.0324
  303TIP3    H122544   4.467   2.950   7.265 -1.5753 -0.4207  1.0719
  303TIP3    H222545   4.480   3.095   7.223  0.0842 -1.0809 -0.8669
  304TIP3   OH222546   2.576   4.442   8.075  0.2313  0.5370  0.3487
  304TIP3    H122547   2.549   4.459   7.984 -0.3851 -0.2810  0.3669
  304TIP3    H222548   2.494   4.435   8.123  0.5537  0.7293  0.9301
  305TIP3   OH222549   4.365   3.199   8.789 -0.6234 -0.3003  0.2330
  305TIP3    H122550   4.446   3.229   8.829 -0.7508  1.0104 -0.4384
  305TIP3    H222551   4.359   3.106   8.813  1.3503 -0.5789 -0.1798
  306TIP3   OH222552   6.719   4.298   0.307  0.1805 -0.8581  0.1018
  306TIP3    H122553   6.682   4.220   0.265 -1.4001  0.3626 -0.8678
  306TIP3    H222554   6.660   4.316   0.380 -1.2086  1.0248 -1.3732
  307TIP3   OH222555   5.582   6.742   0.399 -0.3484  0.5169  0.4814
  307TIP3    H122556   5.599   6.789   0.481  2.9024  1.0451 -0.3360
  307TIP3    H222557   5.592   6.649   0.421  0.4065  0.6530  0.7349
  308TIP3   OH222558   3.626   2.948   1.771  0.2724 -0.5131 -0.0866
  308TIP3    H122559   3.691   3.012   1.800 -0.6976  0.8073 -0.7239
  308TIP3    H222560   3.638   2.943   1.676 -0.0437 -0.8413 -0.1113
  309TIP3   OH222561   5.210   4.149   1.923  0.3454 -0.3291 -0.0841
  309TIP3    H122562   5.241   4.151   1.832  0.4665 -0.4582 -0.0461
  309TIP3    H222563   5.259   4.219   1.966  0.3194 -0.2955 -0.1093
  310TIP3   OH222564   2.557   1.118   8.632 -0.1733  0.8537 -0.1314
  310TIP3    H122565   2.639   1.153   8.599  1.3926 -2.9386 -0.7658
  310TIP3    H222566   2.570   1.112   8.727  0.1214  0.5870 -0.1899
  311TIP3   OH222567   4.830   1.916   2.076  0.0189 -0.2505 -0.0843
  311TIP3    H122568   4.860   1.925   2.167 -0.5314 -0.6399  0.1399
  311TIP3    H222569   4.878   1.984   2.029 -0.0387  0.2686  0.5835
  312TIP3   OH222570   4.951   1.879   2.675 -0.5047  0.4920 -0.2643
  312TIP3    H122571   4.893   1.951   2.699  0.3666  1.5483 -1.2467
  312TIP3    H222572   5.021   1.882   2.740 -1.0188 -0.1705  0.3381
  313TIP3   OH222573   0.826   6.677   2.613 -0.2696 -0.2301  0.3224
  313TIP3    H122574   0.811   6.723   2.696 -0.2664  0.1240  0.1291
  313TIP3    H222575   0.754   6.706   2.557  1.2543  1.7139 -0.7179
  314TIP3   OH222576   4.702   3.825   1.613 -0.3945  0.1574 -0.1840
  314TIP3    H122577   4.632   3.797   1.554  1.6198 -0.7752 -2.2876
  314TIP3    H222578   4.744   3.744   1.641  0.7923  0.7363 -0.2224
  315TIP3   OH222579   5.960   4.691   1.511 -0.0347 -0.1409 -0.0585
  315TIP3    H122580   5.958   4.596   1.524  1.8511 -0.2708 -0.3528
  315TIP3    H222581   5.928   4.704   1.422 -1.8002 -0.3344  0.5242
  316TIP3   OH222582   3.906   4.447   8.714  0.0222 -0.4304  0.6241
  316TIP3    H122583   3.886   4.370   8.765 -0.9472  0.5321  1.7334
  316TIP3    H222584   3.909   4.519   8.777 -0.1769  0.6255 -0.5184
  317TIP3   OH222585   2.288   0.621   1.564  0.5886  0.0525  0.3112
  317TIP3    H122586   2.262   0.706   1.528 -0.5681 -1.2181 -2.1327
  317TIP3    H222587   2.380   0.611   1.537  0.4594  0.1504 -0.1744
  318TIP3   OH222588   3.096   1.692   7.403 -0.0250  0.0684 -0.2674
  318TIP3    H122589   3.165   1.634   7.436 -0.5850 -0.5656 -0.2028
  318TIP3    H222590   3.117   1.703   7.310 -0.7165 -1.4177 -0.6304
  319TIP3   OH222591   4.917   1.164   7.497 -0.0010 -0.8106 -0.0666
  319TIP3    H122592   4.836   1.114   7.500  0.1108 -0.9506  0.6995
  319TIP3    H222593   4.957   1.140   7.413 -0.5148 -1.1083 -0.2271
  320TIP3   OH222594   5.019   1.749   7.966 -0.0877  0.4015  0.9385
  320TIP3    H122595   5.007   1.833   8.010  2.8883  1.0667  0.6658
  320TIP3    H222596   5.036   1.772   7.874 -1.7871 -0.7064  0.2885
  321TIP3   OH222597   2.144   3.699   8.363  0.4299  0.2773  0.1185
  321TIP3    H122598   2.120   3.757   8.436  0.6409  1.2527 -0.5570
  321TIP3    H222599   2.064   3.691   8.312  0.6642  0.8698 -0.3648
  322TIP3   OH222600   1.232   5.723   1.367 -0.2391  0.3666  0.0873
  322TIP3    H122601   1.303   5.783   1.387 -0.1975  0.7277 -1.0674
  322TIP3    H222602   1.244   5.650   1.428  0.4521  0.9408  0.6513
  323TIP3   OH222603   2.809   5.127   2.685  0.3405 -0.6025  0.1566
  323TIP3    H122604   2.854   5.082   2.757 -1.8438 -0.6966  1.5689
  323TIP3    H222605   2.801   5.218   2.715 -1.0143 -0.7480  0.2857
  324TIP3   OH222606   0.790   2.021   2.102  0.2200 -0.3779 -0.4214
  324TIP3    H122607   0.774   2.038   2.195  0.1256  2.8045 -0.8901
  324TIP3    H222608   0.884   2.003   2.097 -0.0292 -2.0799  0.4149
  325TIP3   OH222609   5.930   1.541   0.687 -0.1512 -0.6871  0.4017
  325TIP3    H122610   6.007   1.484   0.691 -0.7564 -1.7492 -1.6138
  325TIP3    H222611   5.861   1.485   0.651 -1.7764  0.3569  1.7901
  326TIP3   OH222612   0.272   2.572   2.232  0.0450 -0.6489 -0.4271
  326TIP3    H122613   0.249   2.507   2.298 -0.5929  0.2036  0.2094
  326TIP3    H222614   0.209   2.643   2.244  2.1211  1.1834  0.4862
  327TIP3   OH222615   1.080   3.150   2.135 -0.5726  0.4070  0.0109
  327TIP3    H122616   1.128   3.090   2.078 -0.7181 -1.1550  1.4382
  327TIP3    H222617   1.074   3.231   2.085  1.2813 -0.1603 -1.2508
  328TIP3   OH222618   1.752   1.155   0.810 -0.0998 -0.0084  0.5557
  328TIP3    H122619   1.711   1.236   0.779  0.9185  0.9171  1.5550
  328TIP3    H222620   1.678   1.101   0.840 -0.7924  0.4965 -0.2012
  329TIP3   OH222621   3.307   2.876   0.209 -0.0276 -0.0134  0.0597
  329TIP3    H122622   3.400   2.892   0.228  0.0580 -0.2112 -0.2019
  329TIP3    H222623   3.282   2.948   0.151 -0.0011 -0.0467  0.0077
  330TIP3   OH222624   0.658   3.622   8.030 -0.1728 -0.4267  0.0670
  330TIP3    H122625   0.744   3.664   8.037 -0.4779  0.4586 -1.1149
  330TIP3    H222626   0.614   3.642   8.113  0.0927  0.7150 -0.0560
  331TIP3   OH222627   0.466   5.884   0.012 -0.0977  0.6795  0.4703
  331TIP3    H122628   0.423   5.963   0.045 -0.3228  0.2652  1.2103
  331TIP3    H222629   0.430   5.870  -0.075 -0.8776  0.7894  0.7653
  332TIP3   OH222630   2.976   3.910   8.763 -0.1542  0.7860 -0.4458
  332TIP3    H122631   3.040   3.841   8.745  0.1965  0.4884  1.6512
  332TIP3    H222632   2.997   3.979   8.700  0.8465 -0.1662 -1.2035
  333TIP3   OH222633   2.120   2.159   1.046 -0.3850  0.4244  0.4238
  333TIP3    H122634   2.072   2.220   1.102  0.9325  1.7754  0.1566
  333TIP3    H222635   2.135   2.082   1.102  0.1613  1.3959  1.6642
  334TIP3   OH222636   5.950   0.385   8.478  0.1135 -0.5443  0.6594
  334TIP3    H122637   5.928   0.415   8.566 -0.0063  2.5678 -0.3421
  334TIP3    H222638   5.912   0.450   8.419 -0.3950 -2.8588 -1.8121
  335TIP3   OH222639   1.338   0.760   8.742 -0.6690  0.1322  0.7613
  335TIP3    H122640   1.388   0.699   8.796 -1.2911 -1.2200 -0.1269
  335TIP3    H222641   1.247   0.747   8.769 -1.1940 -1.6440 -1.4838
  336TIP3   OH222642   0.253   6.437   0.427  0.3537  0.0639 -0.0952
  336TIP3    H122643   0.330   6.415   0.480  0.8714 -0.8104 -1.1709
  336TIP3    H222644   0.202   6.356   0.425 -0.5234  0.5882  0.4646
  337TIP3   OH222645   6.423   5.271   0.752  1.1607 -0.1916 -0.0219
  337TIP3    H122646   6.356   5.297   0.689  1.4746  0.9516  0.0951
  337TIP3    H222647   6.465   5.194   0.713 -1.3461 -2.0427  0.7087
  338TIP3   OH222648   4.677   0.593   7.485  0.3376  0.2655 -0.3759
  338TIP3    H122649   4.722   0.668   7.525  2.9219 -0.6674 -1.3733
  338TIP3    H222650   4.598   0.582   7.539  0.7290  2.6270  0.8263
  339TIP3   OH222651   3.163   0.205   7.189  0.4704 -0.6647  0.4397
  339TIP3    H122652   3.155   0.218   7.095 -2.3501 -1.1030  0.5273
  339TIP3    H222653   3.164   0.110   7.200 -0.8452 -0.6503  0.8892
  340TIP3   OH222654   2.144   6.391   2.164  0.1966  0.0683  0.5494
  340TIP3    H122655   2.150   6.423   2.254  1.2905 -2.0329  1.3036
  340TIP3    H222656   2.053   6.404   2.139  0.5428  3.7901  0.6494
  341TIP3   OH222657   1.894   1.161   7.649 -0.4084 -0.0155  0.2352
  341TIP3    H122658   1.822   1.183   7.708  0.2958  1.4536  0.5890
  341TIP3    H222659   1.960   1.121   7.706  0.2681  1.3950  0.4703
  342TIP3   OH222660   2.268   3.849   1.520 -0.3025  0.3373  0.6095
  342TIP3    H122661   2.271   3.941   1.548  1.4462  0.5475 -0.1233
  342TIP3    H222662   2.209   3.807   1.581 -2.3319  2.2440  0.0711
  343TIP3   OH222663   5.498   1.832   8.008 -0.2861  0.6853  0.2581
  343TIP3    H122664   5.403   1.846   8.015 -0.4095  1.5467 -2.0777
  343TIP3    H222665   5.533   1.863   8.091 -1.9767  1.1708  0.8370
  344TIP3   OH222666   6.513   6.684   7.586  0.1033 -0.0917  0.8631
  344TIP3    H122667   6.480   6.594   7.590  1.8107 -0.7873  0.2291
  344TIP3    H222668   6.476   6.719   7.505  0.3732 -0.6441  0.4924
  345TIP3   OH222669   6.843   0.549   3.040  0.2318 -0.3136  0.5974
  345TIP3    H122670   6.891   0.573   2.960  0.8860 -2.3542  0.3260
  345TIP3    H222671   6.898   0.485   3.083 -1.7036 -1.9036  0.8687
  346TIP3   OH222672   3.731   3.460   1.311  0.0160 -0.3836  0.3279
  346TIP3    H122673   3.686   3.544   1.322 -0.4318 -0.5242 -0.4245
  346TIP3    H222674   3.695   3.423   1.231  1.2807 -0.6247 -0.1602
  347TIP3   OH222675   6.592   5.927   2.076 -0.7332 -0.3649 -0.3385
  347TIP3    H122676   6.566   5.965   2.160  1.6259  0.0091  0.2844
  347TIP3    H222677   6.664   5.982   2.047 -1.0831 -0.9003 -2.3184
  348TIP3   OH222678   5.542   5.663   7.003 -0.2070  0.1427 -0.5911
  348TIP3    H122679   5.449   5.656   6.983 -0.5187  0.4694  0.6707
  348TIP3    H222680   5.568   5.574   7.027 -0.9516  0.5434  2.0417
  349TIP3   OH222681   4.595   1.948   2.809  0.3866  0.2181  0.0075
  349TIP3    H122682   4.530   2.019   2.813  1.2450  1.2181 -2.0910
  349TIP3    H222683   4.672   1.989   2.770  1.9053 -1.2316  1.3563
  350TIP3   OH222684   0.863   4.638   1.439 -0.7003  0.2660  0.3941
  350TIP3    H122685   0.886   4.711   1.495 -2.2969  0.5390  0.7561
  350TIP3    H222686   0.816   4.677   1.365  1.1654 -0.1085 -1.0757
  351TIP3   OH222687   0.306   0.883   8.251 -0.0956 -0.1545  0.0798
  351TIP3    H122688   0.253   0.817   8.208 -0.2960  0.9081 -1.3626
  351TIP3    H222689   0.291   0.963   8.201 -1.5623  1.5693  3.0481
  352TIP3   OH222690   1.612   2.896   7.083  0.0780  0.0076 -0.5253
  352TIP3    H122691   1.591   2.902   6.990 -0.0996  3.0349 -0.4022
  352TIP3    H222692   1.703   2.868   7.085  0.2569  0.4402 -1.6613
  353TIP3   OH222693   3.607   3.468   2.213  0.9095  0.0175 -0.0396
  353TIP3    H122694   3.571   3.401   2.272  0.1104  1.6223  1.4053
  353TIP3    H222695   3.654   3.527   2.271  0.6869  1.2954 -1.1248
  354TIP3   OH222696   1.257   1.077   0.413 -0.6653  0.3633  0.2221
  354TIP3    H122697   1.200   1.153   0.407 -1.5527 -0.1523  1.6815
  354TIP3    H222698   1.216   1.021   0.479  0.4098 -1.0006 -0.2144
  355TIP3   OH222699   1.107   1.344   8.157 -0.3240  0.0074 -0.4096
  355TIP3    H122700   1.151   1.262   8.134  0.1905  0.4265 -0.9455
  355TIP3    H222701   1.166   1.413   8.125  0.0488  0.6115  1.4461
  356TIP3   OH222702   0.556   5.691   7.050 -0.3167  0.0113  0.2159
  356TIP3    H122703   0.632   5.728   7.095  1.8505 -0.5138 -2.7581
  356TIP3    H222704   0.498   5.766   7.035  1.4669  1.2142 -0.9330
  357TIP3   OH222705   4.116   3.214   2.719 -0.4145 -0.1345  0.2354
  357TIP3    H122706   4.115   3.258   2.804  2.1269 -0.6988  0.6363
  357TIP3    H222707   4.104   3.122   2.739  0.7386 -0.3394  0.0854
  358TIP3   OH222708   1.954   2.936   7.919 -0.0623  0.1438 -0.3766
  358TIP3    H122709   1.858   2.932   7.912 -0.0287  1.1331 -1.6112
  358TIP3    H222710   1.970   3.002   7.986 -0.2479  1.0160 -1.1689
  359TIP3   OH222711   2.535   2.044   7.401 -0.2884  0.3833  0.2185
  359TIP3    H122712   2.548   1.982   7.329  0.5795 -0.3402  0.9705
  359TIP3    H222713   2.572   2.126   7.368 -1.1810  0.4404 -0.6784
  360TIP3   OH222714   2.031   4.846   1.025  0.2827  0.1297  0.0152
  360TIP3    H122715   2.030   4.938   1.052 -0.6972  0.4385 -0.9739
  360TIP3    H222716   2.072   4.800   1.097 -2.6432  0.8233  2.3180
  361TIP3   OH222717   1.945   5.831   1.787 -0.3585  0.3354  0.3455
  361TIP3    H122718   1.927   5.739   1.768  0.1639  0.5397 -1.2342
  361TIP3    H222719   1.891   5.880   1.725  0.6166  1.0526  0.0308
  362TIP3   OH222720   5.521   3.587   3.053 -0.7523  0.4563  0.1600
  362TIP3    H122721   5.514   3.493   3.070  1.1783  0.3350  0.4342
  362TIP3    H222722   5.467   3.627   3.122 -1.1266 -0.4159  0.3945
  363TIP3   OH222723   2.095   5.218   8.484  0.6537 -0.4895  0.7832
  363TIP3    H122724   2.190   5.221   8.469  0.3200 -0.5957 -2.0269
  363TIP3    H222725   2.057   5.222   8.396 -1.9753 -0.4439  1.8172
  364TIP3   OH222726   2.202   1.547   1.048 -0.2347  0.3260 -0.3191
  364TIP3    H122727   2.197   1.538   0.953 -0.3107  0.4693 -0.3304
  364TIP3    H222728   2.123   1.597   1.071 -0.2078  0.3062 -0.1836
  365TIP3   OH222729   5.279   1.448   0.634  0.2779  0.2671 -0.1862
  365TIP3    H122730   5.371   1.447   0.659  0.1845 -0.2262  0.1560
  365TIP3    H222731   5.236   1.502   0.700  0.2045 -0.1256  0.0887
  366TIP3   OH222732   2.431   5.614   3.049 -0.5829 -0.0678 -0.2731
  366TIP3    H122733   2.468   5.525   3.050 -0.4910 -0.0278  0.8710
  366TIP3    H222734   2.496   5.665   3.000  0.2178 -0.2916  0.5156
  367TIP3   OH222735   2.063   3.861   2.581  0.1589 -1.0168 -0.2232
  367TIP3    H122736   2.066   3.952   2.610  0.3213 -1.1882  0.2973
  367TIP3    H222737   2.008   3.863   2.502  0.9650 -0.3240 -0.7812
  368TIP3   OH222738   3.804   3.939   8.200  0.2093 -0.5732 -0.1098
  368TIP3    H122739   3.842   3.997   8.267 -1.1051  0.0030  0.1792
  368TIP3    H222740   3.728   3.899   8.244 -1.7747  1.1833 -1.7330
  369TIP3   OH222741   6.541   3.275   8.666  0.5916  0.3159  0.0963
  369TIP3    H122742   6.575   3.188   8.648 -0.0714  0.1233 -0.2510
  369TIP3    H222743   6.588   3.332   8.605  0.3244  0.0611 -0.3510
  370TIP3   OH222744   3.599   2.773   0.559  0.1254 -0.0014  0.1438
  370TIP3    H122745   3.682   2.743   0.524 -0.6372 -0.1666 -1.6331
  370TIP3    H222746   3.538   2.701   0.540 -0.4156  0.0603  1.5166
  371TIP3   OH222747   3.230   3.684   1.592 -0.3937  0.4173  0.1385
  371TIP3    H122748   3.286   3.614   1.559 -1.2124 -0.2681  0.1739
  371TIP3    H222749   3.291   3.755   1.614  0.5250 -0.5376  0.7684
  372TIP3   OH222750   0.875   2.866   7.131  0.1464  0.7175  0.5825
  372TIP3    H122751   0.881   2.864   7.035 -0.3481 -1.6874  0.5550
  372TIP3    H222752   0.876   2.960   7.152 -0.0492  1.3293 -1.7827
  373TIP3   OH222753   3.342   0.130   1.507  0.7084  0.0790 -0.2947
  373TIP3    H122754   3.378   0.076   1.437 -1.0544 -0.5417 -0.7577
  373TIP3    H222755   3.288   0.195   1.463 -0.2859 -0.2124  0.4679
  374TIP3   OH222756   5.870   1.430   2.932  0.3718  0.0178  0.1208
  374TIP3    H122757   5.918   1.493   2.985  2.9705 -0.5756 -1.3448
  374TIP3    H222758   5.938   1.375   2.892 -1.6641 -2.2955 -0.4281
  375TIP3   OH222759   4.547   3.120   0.609 -0.1722  0.0829  0.1284
  375TIP3    H122760   4.549   3.129   0.704  0.3136  0.0645  0.1227
  375TIP3    H222761   4.625   3.167   0.579  0.5127 -1.1786 -0.1472
  376TIP3   OH222762   4.328   4.443   0.873 -0.1761 -0.0056 -0.3745
  376TIP3    H122763   4.252   4.498   0.851  0.4502  0.4537 -1.4859
  376TIP3    H222764   4.403   4.497   0.848  0.4576 -1.9666 -3.1956
  377TIP3   OH222765   0.370   6.750   7.112  0.1806 -0.2803  0.2099
  377TIP3    H122766   0.428   6.682   7.077  2.4842  1.4190  0.4837
  377TIP3    H222767   0.282   6.723   7.085  1.0880 -2.8172 -0.5215
  378TIP3   OH222768   5.938   6.734   2.294 -0.3741 -0.5286  0.4715
  378TIP3    H122769   6.023   6.767   2.323  0.1618 -1.3004 -0.1842
  378TIP3    H222770   5.944   6.640   2.304 -0.9439 -0.6375 -0.1211
  379TIP3   OH222771   4.293   1.729   7.917 -0.2362 -0.6414 -0.0781
  379TIP3    H122772   4.358   1.799   7.925  1.4528 -2.1374 -0.0205
  379TIP3    H222773   4.279   1.699   8.007  0.1700 -1.3164 -0.2294
  380TIP3   OH222774   0.101   1.533   1.866  0.0916 -0.2725 -0.0674
  380TIP3    H122775   0.081   1.444   1.896  0.3097  0.0629  1.1245
  380TIP3    H222776   0.078   1.589   1.940 -0.4687  0.7237 -0.9578
  381TIP3   OH222777   4.273   4.315   1.628  0.5130  0.1975 -0.2283
  381TIP3    H122778   4.260   4.341   1.537 -0.5535  1.7447  0.3351
  381TIP3    H222779   4.185   4.300   1.662  0.9052 -0.4293  0.5496
  382TIP3   OH222780   0.193   1.717   0.817 -0.0130 -0.5689 -0.0388
  382TIP3    H122781   0.167   1.641   0.869  1.9301 -0.0874  1.7730
  382TIP3    H222782   0.121   1.779   0.828  0.0082 -0.7776  1.4585
  383TIP3   OH222783   5.277   5.083   1.881  0.2979  0.5542 -0.0289
  383TIP3    H122784   5.265   4.992   1.909  0.3737  0.8958  1.1939
  383TIP3    H222785   5.363   5.084   1.839  1.1062  0.3966  1.5424
  384TIP3   OH222786   3.011   6.247   1.995  0.0926 -0.3801  0.0363
  384TIP3    H122787   3.058   6.204   1.924 -0.3114  2.7314 -2.3712
  384TIP3    H222788   3.059   6.328   2.011 -1.5037  0.4055  1.2207
  385TIP3   OH222789   2.468   0.938   7.803  0.2867  0.3443  0.2507
  385TIP3    H122790   2.394   0.884   7.831  0.1083  0.0016 -0.8483
  385TIP3    H222791   2.534   0.876   7.773  1.0753  0.6457  1.3188
  386TIP3   OH222792   4.063   3.457   7.560 -0.0010 -0.3160 -0.1599
  386TIP3    H122793   4.154   3.429   7.570 -0.4118 -1.2988  1.3668
  386TIP3    H222794   4.012   3.384   7.597 -1.4954 -0.4258 -2.2640
  387TIP3   OH222795   2.755   6.615   2.308  0.5134  0.1680  0.2248
  387TIP3    H122796   2.683   6.606   2.370  1.4697  0.2487  1.3666
  387TIP3    H222797   2.827   6.652   2.359  0.9176  1.5458 -1.2349
  388TIP3   OH222798   4.404   1.605   1.709 -0.7341 -1.0536 -0.7395
  388TIP3    H122799   4.330   1.645   1.754 -0.3972 -1.9447  0.6685
  388TIP3    H222800   4.419   1.523   1.756  0.5109 -1.3646 -1.6323
  389TIP3   OH222801   0.637   4.088   0.541 -0.7227 -0.2023  0.0539
  389TIP3    H122802   0.584   4.164   0.515 -0.4780 -0.0173  0.0926
  389TIP3    H222803   0.645   4.095   0.636 -0.9825 -0.4640  0.0964
  390TIP3   OH222804   6.358   0.322   0.701  0.4207 -0.1977 -0.0115
  390TIP3    H122805   6.347   0.355   0.612  2.2024 -0.0773 -0.2336
  390TIP3    H222806   6.453   0.310   0.710  0.0885 -2.6090  1.0318
  391TIP3   OH222807   3.225   3.621   7.505  0.1335 -0.1760  0.0109
  391TIP3    H122808   3.302   3.677   7.505  0.1713 -0.2283  0.6423
  391TIP3    H222809   3.197   3.619   7.413  0.2950  0.6483 -0.0591
  392TIP3   OH222810   4.958   5.287   3.146  0.0817  0.3702 -0.2832
  392TIP3    H122811   5.052   5.297   3.160 -0.0319 -0.3607  1.0958
  392TIP3    H222812   4.940   5.195   3.164 -1.0772  0.7526  0.6137
  393TIP3   OH222813   3.111   5.149   0.756 -0.8860 -0.2738 -0.5035
  393TIP3    H122814   3.206   5.157   0.760 -0.6917 -2.3121  0.1996
  393TIP3    H222815   3.082   5.227   0.708  1.1449  0.2448 -0.9793
  394TIP3   OH222816   0.093   0.178   7.392  0.5693 -0.4544 -0.4264
  394TIP3    H122817   0.179   0.216   7.372 -0.0474  1.9849  1.0743
  394TIP3    H222818   0.074   0.122   7.317  2.7967  0.1320 -1.5347
  395TIP3   OH222819   1.637   3.079   1.566  0.3212 -0.0916 -0.0823
  395TIP3    H122820   1.705   3.108   1.505  2.0172  0.5723  2.0245
  395TIP3    H222821   1.559   3.128   1.540  1.0007  0.2177 -1.6608
  396TIP3   OH222822   2.045   2.383   7.560 -0.5093  0.1114  0.6668
  396TIP3    H122823   1.976   2.334   7.515 -0.1921 -0.4864  0.8244
  396TIP3    H222824   2.036   2.472   7.526 -2.2731  0.3960  1.7477
  397TIP3   OH222825   5.837   6.352   8.772 -0.0400  0.2048 -0.0934
  397TIP3    H122826   5.862   6.376   8.682  1.6054  1.5787  0.6509
  397TIP3    H222827   5.763   6.293   8.762 -0.4033  0.9419 -2.3336
  398TIP3   OH222828   3.180   1.716   7.139  0.2759  0.5129 -0.8586
  398TIP3    H122829   3.195   1.644   7.077 -0.9479  0.6735 -1.3796
  398TIP3    H222830   3.122   1.776   7.092 -1.4662  0.1782  0.7300
  399TIP3   OH222831   3.370   2.933   2.235 -0.5120 -0.0371 -0.4939
  399TIP3    H122832   3.434   2.924   2.305  1.2633 -1.1787 -2.1485
  399TIP3    H222833   3.298   2.982   2.274  1.6502  1.9513  1.2833
  400TIP3   OH222834   4.765   5.388   2.032 -0.6793  0.0155  0.7462
  400TIP3    H122835   4.823   5.445   2.081 -0.7050  0.5098  0.2110
  400TIP3    H222836   4.683   5.438   2.024 -0.2832  0.4721 -0.8417
  401TIP3   OH222837   3.791   3.744   1.980 -0.1452 -0.4172  0.3225
  401TIP3    H122838   3.773   3.786   1.896  1.0133 -0.3560  0.0956
  401TIP3    H222839   3.798   3.651   1.959 -1.0082 -0.5502  0.5556
  402TIP3   OH222840   1.757   5.202   7.349  0.0113 -0.0428  0.0649
  402TIP3    H122841   1.671   5.229   7.319  0.2078 -0.8481 -1.3384
  402TIP3    H222842   1.819   5.248   7.292  0.4707 -0.3602  0.2913
  403TIP3   OH222843   2.087   2.261   0.789 -0.5729 -0.1119  0.6810
  403TIP3    H122844   2.030   2.337   0.802  1.8433  2.1835 -1.0049
  403TIP3    H222845   2.108   2.231   0.877 -2.9523  0.0094  1.3648
  404TIP3   OH222846   4.107   1.150   1.337 -0.6934 -0.4324  0.5508
  404TIP3    H122847   4.135   1.133   1.247 -1.6019  0.9877 -0.0314
  404TIP3    H222848   4.012   1.142   1.334 -0.8819  1.4205  0.9513
  405TIP3   OH222849   0.727   4.265   1.192  0.6235 -0.4184 -0.0596
  405TIP3    H122850   0.692   4.231   1.110 -2.0941  2.5068 -0.3152
  405TIP3    H222851   0.777   4.342   1.167  2.4592 -1.2379  0.8646
  406TIP3   OH222852   4.969   6.260   1.172 -0.1009  0.1597 -0.3933
  406TIP3    H122853   5.026   6.323   1.216  0.6505 -1.5660  1.2055
  406TIP3    H222854   5.014   6.242   1.089 -0.6363  2.1040 -1.1695
  407TIP3   OH222855   5.430   1.813   0.696 -0.2201  0.6331  0.7838
  407TIP3    H122856   5.377   1.884   0.731 -1.0404  0.4648 -0.0908
  407TIP3    H222857   5.400   1.802   0.606  1.4487  0.6713  0.1836
  408TIP3   OH222858   1.463   5.781   0.549 -0.2267 -0.4871 -0.2385
  408TIP3    H122859   1.377   5.751   0.577 -0.3235 -2.0106 -1.9630
  408TIP3    H222860   1.524   5.716   0.582  0.1385 -0.0383 -0.0113
  409TIP3   OH222861   3.882   5.503   0.050 -0.1774 -0.1071 -0.2680
  409TIP3    H122862   3.866   5.513   0.143 -0.4857 -1.5544 -0.1447
  409TIP3    H222863   3.816   5.441   0.020 -0.0652  0.3117 -1.4490
  410TIP3   OH222864   1.468   2.059   8.161 -0.2769 -0.2815 -0.3079
  410TIP3    H122865   1.555   2.077   8.197 -0.4073 -0.2863  0.0116
  410TIP3    H222866   1.412   2.046   8.238 -0.6789  0.2700 -0.4991
  411TIP3   OH222867   2.623   5.918   0.760 -0.6483 -0.5070  0.0561
  411TIP3    H122868   2.600   5.919   0.667  1.2795 -1.4136 -0.4735
  411TIP3    H222869   2.606   5.828   0.788 -0.0439 -0.5702  0.2427
  412TIP3   OH222870   0.763   1.071   2.310  0.9908  0.4719  0.0938
  412TIP3    H122871   0.821   0.995   2.313  1.4591  0.8575  2.5297
  412TIP3    H222872   0.686   1.040   2.262  3.1252 -0.0046 -3.4165
  413TIP3   OH222873   1.470   6.677   2.049 -0.6166 -0.0669 -0.0414
  413TIP3    H122874   1.381   6.690   2.017 -0.1164  1.2400 -1.0359
  413TIP3    H222875   1.524   6.683   1.970  0.2898 -1.8019  0.4113
  414TIP3   OH222876   3.832   4.615   7.996 -0.5399 -0.2455  0.5316
  414TIP3    H122877   3.839   4.530   7.954  0.2918 -0.0381  0.2377
  414TIP3    H222878   3.821   4.677   7.924 -2.3028 -0.1977  0.7893
  415TIP3   OH222879   2.422   4.291   2.171  0.1565 -0.5360 -0.0357
  415TIP3    H122880   2.341   4.273   2.123  0.0679 -0.5770  0.1291
  415TIP3    H222881   2.393   4.310   2.260  0.1378  1.5578 -0.4425
  416TIP3   OH222882   4.918   2.236   8.719  0.1855 -0.2991 -0.6633
  416TIP3    H122883   4.943   2.328   8.710  2.7114 -0.8836 -0.1610
  416TIP3    H222884   4.863   2.219   8.642 -0.6362  1.7024 -0.5608
  417TIP3   OH222885   5.375   2.040   8.400 -0.2827 -0.3357 -0.2796
  417TIP3    H122886   5.335   2.077   8.321  0.8789 -1.2367 -1.3253
  417TIP3    H222887   5.309   2.052   8.468 -1.4020  0.2587 -1.4326
  418TIP3   OH222888   0.609   6.696   8.649 -0.0731 -0.1534 -0.9618
  418TIP3    H122889   0.526   6.705   8.695 -0.5906 -2.7489 -1.2312
  418TIP3    H222890   0.658   6.633   8.701  1.4099  0.6978 -1.2777
  419TIP3   OH222891   0.667   1.544   8.513 -0.1405  0.5344  0.1579
  419TIP3    H122892   0.675   1.593   8.595  0.0860 -0.3284  0.6671
  419TIP3    H222893   0.756   1.514   8.494  0.1010  2.0555 -1.2631
  420TIP3   OH222894   1.766   5.035   8.092 -0.0823  0.2105  0.1173
  420TIP3    H122895   1.718   5.089   8.155 -0.7276 -0.4387  0.1876
  420TIP3    H222896   1.832   4.990   8.144 -1.2519 -1.0897  0.5295
  421TIP3   OH222897   5.575   2.998   7.737  0.0250  0.2061  1.0404
  421TIP3    H122898   5.518   3.004   7.814 -1.9810  1.3088 -0.4281
  421TIP3    H222899   5.518   3.023   7.664  1.9488 -0.4612 -0.7665
  422TIP3   OH222900   6.554   4.511   1.817 -0.2550 -0.6850  0.4646
  422TIP3    H122901   6.576   4.435   1.871 -0.5431 -0.8295  0.3737
  422TIP3    H222902   6.481   4.483   1.763  0.7584 -0.9242 -0.8457
  423TIP3   OH222903   1.124   6.814   2.280  0.1077 -0.2662 -0.0030
  423TIP3    H122904   1.143   6.821   2.373 -1.0824 -0.1139  0.2343
  423TIP3    H222905   1.142   6.901   2.244  0.1113 -0.1960  0.1701
  424TIP3   OH222906   1.944   6.830   1.184 -0.5610 -0.4990 -0.3747
  424TIP3    H122907   1.855   6.859   1.205  0.0005  0.4431  0.8581
  424TIP3    H222908   1.940   6.735   1.188 -1.2264 -0.4402  1.0232
  425TIP3   OH222909   5.322   3.317   7.905 -0.0839  0.7456 -0.2808
  425TIP3    H122910   5.374   3.322   7.825 -0.7036  1.7253 -0.6395
  425TIP3    H222911   5.366   3.377   7.965 -1.2612  2.2712 -0.8810
  426TIP3   OH222912   5.761   5.663   2.224  0.2133  0.1687  0.6647
  426TIP3    H122913   5.809   5.646   2.305 -0.6071  0.6893  1.2660
  426TIP3    H222914   5.686   5.604   2.227  0.2403  0.1121  0.2342
  427TIP3   OH222915   0.983   0.295   6.981 -0.2007 -0.3784 -0.0536
  427TIP3    H122916   0.984   0.364   7.048  0.6936 -1.1436  0.7636
  427TIP3    H222917   1.070   0.255   6.987  0.5325  0.5975 -2.8318
  428TIP3   OH222918   4.633   1.613   8.834  0.0908  0.0369 -0.2621
  428TIP3    H122919   4.561   1.672   8.815 -0.3725 -0.6276 -0.5905
  428TIP3    H222920   4.703   1.671   8.865 -0.6352  0.6653  0.2489
  429TIP3   OH222921   0.618   3.960   2.545 -0.3827 -0.2055 -0.1736
  429TIP3    H122922   0.572   4.002   2.618 -0.2714  2.6581 -1.6368
  429TIP3    H222923   0.709   3.986   2.556 -0.4581  0.7798 -1.6090
  430TIP3   OH222924   5.393   1.783   0.413  0.2210  0.1767  0.3923
  430TIP3    H122925   5.331   1.710   0.410  0.5154 -0.0478 -0.6990
  430TIP3    H222926   5.413   1.802   0.321  0.4771  1.3607  0.6751
  431TIP3   OH222927   6.246   5.700   7.894  0.0906 -0.2979  0.2371
  431TIP3    H122928   6.187   5.771   7.866 -0.3289 -0.7289  0.0028
  431TIP3    H222929   6.332   5.741   7.898  0.1169 -0.1236 -1.3875
  432TIP3   OH222930   1.406   3.020   0.123  0.0463  0.1883 -0.2969
  432TIP3    H122931   1.315   3.045   0.105  0.1370  0.0159 -1.0049
  432TIP3    H222932   1.423   3.054   0.211 -1.7065 -2.4054  1.1905
  433TIP3   OH222933   2.142   0.547   6.748 -0.4194  0.5735  0.2953
  433TIP3    H122934   2.207   0.546   6.819  0.7859 -3.3395 -0.6252
  433TIP3    H222935   2.194   0.537   6.668 -1.9394  2.0445 -0.9476
  434TIP3   OH222936   0.665   6.451   7.854 -0.3867  0.3623 -0.0428
  434TIP3    H122937   0.712   6.400   7.788 -0.8214  0.3017 -0.3072
  434TIP3    H222938   0.573   6.440   7.832 -0.5287  0.4594  0.4906
  435TIP3   OH222939   1.209   4.156   1.939  0.4898 -0.2414  0.0269
  435TIP3    H122940   1.145   4.086   1.953 -1.1418  1.1622 -0.2146
  435TIP3    H222941   1.159   4.237   1.946  2.5168  0.9991  1.3931
  436TIP3   OH222942   5.653   4.140   7.623 -0.2885 -0.3226 -0.3998
  436TIP3    H122943   5.685   4.222   7.587  0.5880 -0.8898 -0.9485
  436TIP3    H222944   5.660   4.151   7.718  1.0784 -0.2324 -0.4872
  437TIP3   OH222945   4.917   1.579   0.727 -0.3896 -0.0861  0.6788
  437TIP3    H122946   4.921   1.488   0.696  1.7081  0.6260 -1.4031
  437TIP3    H222947   4.859   1.623   0.664 -0.1227  0.3547  0.7401
  438TIP3   OH222948   0.371   0.729   2.078 -0.1761  0.3227 -0.1894
  438TIP3    H122949   0.321   0.652   2.105 -1.3761  0.9547 -0.5034
  438TIP3    H222950   0.462   0.702   2.084 -0.5623 -1.7883 -2.1939
  439TIP3   OH222951   6.293   4.106   1.015 -0.4215 -0.1784  0.0651
  439TIP3    H122952   6.385   4.093   1.037 -0.5672 -1.2210  0.1073
  439TIP3    H222953   6.280   4.057   0.934 -0.1872  2.5941 -1.8110
  440TIP3   OH222954   3.646   0.809   8.262  0.0599 -0.3666  0.1549
  440TIP3    H122955   3.571   0.857   8.298 -0.5710 -1.5086  0.4013
  440TIP3    H222956   3.722   0.850   8.304 -0.3412  1.2711 -0.6160
  441TIP3   OH222957   0.004   0.848   7.802 -0.1282 -0.1792  0.4390
  441TIP3    H122958   0.046   0.877   7.720 -0.0987 -0.1820  0.4532
  441TIP3    H222959  -0.084   0.821   7.775 -0.2530  0.1943  0.4728
  442TIP3   OH222960   0.553   0.458   8.115  0.1256  0.2657 -0.1296
  442TIP3    H122961   0.614   0.533   8.111  0.5157 -0.0013  0.6002
  442TIP3    H222962   0.606   0.383   8.087 -0.3430  0.2994 -1.1286
  443TIP3   OH222963   3.967   1.580   7.364  0.2162  0.7210  0.2639
  443TIP3    H122964   3.983   1.558   7.456 -0.3069 -1.5466 -0.1220
  443TIP3    H222965   3.965   1.676   7.362  0.7361  0.8324  2.5128
  444TIP3   OH222966   3.232   1.305   7.666 -0.1632 -0.1993 -0.4968
  444TIP3    H122967   3.154   1.250   7.679 -0.6640  0.7212  0.4605
  444TIP3    H222968   3.300   1.242   7.641 -0.6887 -1.2861  0.6899
  445TIP3   OH222969   4.417   4.704   8.704 -0.0478  0.0020 -0.3887
  445TIP3    H122970   4.405   4.629   8.762  3.8605 -1.2240 -0.8591
  445TIP3    H222971   4.464   4.768   8.757  0.2571  0.4126 -1.1389
  446TIP3   OH222972   0.922   4.866   1.594 -0.0971 -0.3394 -0.3818
  446TIP3    H122973   0.829   4.884   1.606  0.0838 -0.2469  1.0471
  446TIP3    H222974   0.954   4.941   1.543 -0.6401  0.0545 -0.1566
  447TIP3   OH222975   0.964   1.428   2.147  0.6429  0.0469 -0.5214
  447TIP3    H122976   0.889   1.466   2.192 -0.8097 -1.3378 -1.6314
  447TIP3    H222977   1.036   1.488   2.164 -0.2263  0.4678  2.1674
  448TIP3   OH222978   3.962   3.469   2.289 -0.0246  0.4339  0.3831
  448TIP3    H122979   4.007   3.495   2.209  0.1072 -0.2116  0.2404
  448TIP3    H222980   3.883   3.523   2.291 -0.3924 -0.0359 -0.5595
  449TIP3   OH222981   2.939   2.950   0.909  0.8180 -0.8316  0.0200
  449TIP3    H122982   2.862   2.902   0.942 -1.4538  1.2466 -1.8545
  449TIP3    H222983   3.012   2.913   0.957 -1.3077 -3.1107  1.7965
  450TIP3   OH222984   5.548   2.277   1.961  0.2850 -0.3042 -0.3585
  450TIP3    H122985   5.471   2.236   2.002 -0.9074 -0.2373 -2.3865
  450TIP3    H222986   5.613   2.280   2.031 -0.4882 -3.1677  0.6517
  451TIP3   OH222987   1.336   2.353   8.383  0.4506 -0.5707  0.1136
  451TIP3    H122988   1.243   2.352   8.408  0.6276 -0.2894  0.8137
  451TIP3    H222989   1.370   2.270   8.416  0.4287 -0.7113 -0.2201
  452TIP3   OH222990   5.092   6.195   2.510 -0.1219 -0.1186  0.2263
  452TIP3    H122991   5.023   6.216   2.573 -0.2015  2.0603 -0.5195
  452TIP3    H222992   5.048   6.196   2.425  0.7584  1.0713 -0.2384
  453TIP3   OH222993   6.670   1.070   0.913  0.0838 -0.2580  0.2909
  453TIP3    H122994   6.763   1.062   0.890  0.1483 -0.1657  0.5193
  453TIP3    H222995   6.624   1.022   0.844  0.2792 -0.0109 -0.0170
  454TIP3   OH222996   2.632   1.224   1.696 -0.4453  0.3265 -0.0423
  454TIP3    H122997   2.537   1.218   1.702 -0.3226 -1.6320  0.6555
  454TIP3    H222998   2.661   1.238   1.787 -0.0353  0.4219 -0.1828
  455TIP3   OH222999   4.746   5.670   0.212 -0.4539 -0.0547  0.2498
  455TIP3    H123000   4.716   5.735   0.276  2.1565  0.6393  0.9286
  455TIP3    H223001   4.707   5.698   0.129 -3.2841 -0.5121  1.3342
  456TIP3   OH223002   3.595   2.930   1.237 -0.4861 -0.5804  0.3135
  456TIP3    H123003   3.691   2.931   1.229 -0.4242  1.4657  0.7974
  456TIP3    H223004   3.564   2.956   1.150 -0.4830  1.3672  0.8594
  457TIP3   OH223005   3.014   2.637   0.410  0.8078  0.0957  0.5461
  457TIP3    H123006   3.040   2.723   0.443 -0.0346  0.8350 -0.6654
  457TIP3    H223007   3.080   2.615   0.344 -0.0049  0.6585 -0.4621
  458TIP3   OH223008   3.874   5.278   7.935  0.1767  0.2279  0.3107
  458TIP3    H123009   3.814   5.344   7.900  0.2737 -0.3847 -1.0773
  458TIP3    H223010   3.830   5.244   8.012 -1.4550 -0.4376 -0.8607
  459TIP3   OH223011   1.867   2.031   1.119  0.0654  0.4957 -0.5341
  459TIP3    H123012   1.816   2.095   1.069 -0.7927 -0.2399 -0.6308
  459TIP3    H223013   1.926   1.992   1.055  0.5207  1.1010 -0.4969
  460TIP3   OH223014   6.079   0.354   2.281 -0.7924  0.3972 -0.0802
  460TIP3    H123015   6.013   0.312   2.227 -1.0031 -1.0420  1.2319
  460TIP3    H223016   6.098   0.291   2.351  0.8849  1.3779  0.4249
  461TIP3   OH223017   0.062   5.885   8.531 -0.8695 -0.5499 -0.3497
  461TIP3    H123018  -0.024   5.844   8.517  0.2662 -2.6333 -1.9019
  461TIP3    H223019   0.114   5.855   8.456  0.9609  1.4420  0.0360
  462TIP3   OH223020   4.019   1.864   0.784 -0.3612  0.8367 -0.1744
  462TIP3    H123021   3.936   1.902   0.754 -0.8754 -1.4731 -1.9890
  462TIP3    H223022   3.997   1.826   0.870 -0.9705  0.9546 -0.2723
  463TIP3   OH223023   4.689   3.222   1.983  0.5599 -0.3134 -0.1598
  463TIP3    H123024   4.605   3.262   1.962  1.2190  0.3164 -1.7849
  463TIP3    H223025   4.752   3.294   1.980  1.0041 -0.4759  2.5677
  464TIP3   OH223026   0.809   0.894   8.783  0.5938  0.6602  0.2446
  464TIP3    H123027   0.743   0.901   8.714  0.6085 -1.2922 -0.0120
  464TIP3    H223028   0.890   0.870   8.737  0.6916 -0.2848  0.8820
  465TIP3   OH223029   3.769   0.289   8.219 -0.0080 -0.0450 -0.3383
  465TIP3    H123030   3.858   0.306   8.249 -0.9461  0.8455  2.3040
  465TIP3    H223031   3.777   0.219   8.155  2.4099 -1.3833  1.2934
  466TIP3   OH223032   1.934   2.746   2.743 -0.3409 -0.6157  0.2079
  466TIP3    H123033   2.028   2.765   2.745 -0.1813 -1.1151 -1.0618
  466TIP3    H223034   1.904   2.760   2.833  0.6380  1.0472  0.3143
  467TIP3   OH223035   1.905   3.650   7.149  0.2766 -0.1705  0.1996
  467TIP3    H123036   1.833   3.699   7.109  1.0970 -0.0563 -1.2202
  467TIP3    H223037   1.941   3.710   7.215 -0.4696  0.0492  0.4153
  468TIP3   OH223038   4.013   6.426   1.927 -0.3988  0.1782  0.0325
  468TIP3    H123039   3.991   6.471   2.009 -1.2618  0.0019 -0.0915
  468TIP3    H223040   4.066   6.489   1.878  0.7608  0.0097  1.0320
  469TIP3   OH223041   1.721   3.597   2.325 -0.1865  0.2254 -0.3832
  469TIP3    H123042   1.702   3.521   2.380 -0.8359  0.0141 -0.8770
  469TIP3    H223043   1.635   3.632   2.303  0.0710  0.4242 -1.0938
  470TIP3   OH223044   5.561   6.081   2.969 -0.1021 -0.2432  0.0886
  470TIP3    H123045   5.589   6.172   2.958  0.3661 -0.3860  0.0769
  470TIP3    H223046   5.643   6.031   2.973 -0.3442 -0.6098  0.5717
  471TIP3   OH223047   5.944   6.763   8.837 -0.1515  0.5458  0.0556
  471TIP3    H123048   5.895   6.752   8.919 -0.0792 -1.8678 -0.1714
  471TIP3    H223049   6.036   6.764   8.865 -0.1750  3.0394  0.2707
  472TIP3   OH223050   4.379   5.950   8.755 -0.0225 -0.0771 -0.7928
  472TIP3    H123051   4.294   5.911   8.732 -1.0593  2.0811 -0.8307
  472TIP3    H223052   4.357   6.037   8.788  2.1086  0.0263  0.4945
  473TIP3   OH223053   0.066   1.092   7.640 -0.3761  0.4274 -0.2063
  473TIP3    H123054   0.116   1.026   7.593  1.2394  0.4816  1.3388
  473TIP3    H223055  -0.003   1.118   7.579  1.3688  0.2350 -2.3863
  474TIP3   OH223056   4.638   6.697   0.900  0.2036  0.9660 -0.1284
  474TIP3    H123057   4.727   6.725   0.878  0.5269  0.5147  0.5922
  474TIP3    H223058   4.617   6.745   0.980  0.3814 -0.0822  0.5555
  475TIP3   OH223059   2.549   6.395   2.050  0.6420  0.1719 -0.2493
  475TIP3    H123060   2.492   6.440   2.112 -0.5349  0.0376 -1.2023
  475TIP3    H223061   2.495   6.382   1.972  1.7297 -0.6755 -0.8965
  476TIP3   OH223062   4.719   3.177   0.289  0.4861 -0.1602  0.3092
  476TIP3    H123063   4.813   3.163   0.276  0.6445  1.9272 -1.4942
  476TIP3    H223064   4.700   3.255   0.237 -2.0838  0.0174  1.3969
  477TIP3   OH223065   5.469   3.116   1.455  0.5366  0.1338 -0.0171
  477TIP3    H123066   5.524   3.083   1.385  0.7916  2.1470 -0.8405
  477TIP3    H223067   5.379   3.103   1.425  0.6062 -0.4808  0.0279
  478TIP3   OH223068   5.181   0.275   0.303  0.3116 -0.0051  0.3934
  478TIP3    H123069   5.171   0.228   0.386  0.6078  0.0620  0.4679
  478TIP3    H223070   5.241   0.221   0.251  0.2564  0.0348  0.2876
  479TIP3   OH223071   4.427   1.334   1.939  0.6467  0.1007 -0.7169
  479TIP3    H123072   4.482   1.353   2.015  1.8355  0.4182 -1.6239
  479TIP3    H223073   4.346   1.383   1.955  1.3903  1.2177 -0.2543
  480TIP3   OH223074   1.210   6.002   0.346  0.1293  0.1756 -0.7189
  480TIP3    H123075   1.272   5.999   0.274 -0.4074  1.3071 -1.2636
  480TIP3    H223076   1.124   5.997   0.304 -0.1882  0.6453 -0.1450
  481TIP3   OH223077   5.822   0.084   8.423 -0.0683  0.7011  0.0084
  481TIP3    H123078   5.800   0.012   8.483  0.3554  0.6514  0.1046
  481TIP3    H223079   5.770   0.158   8.454 -1.5604  0.0925 -0.8984
  482TIP3   OH223080   3.946   0.649   1.553 -0.3692 -0.3822 -0.3825
  482TIP3    H123081   3.930   0.656   1.459 -0.8499 -2.1696 -0.4561
  482TIP3    H223082   3.946   0.740   1.584 -1.0297  0.1904 -1.9722
  483TIP3   OH223083   1.331   6.194   1.691  0.2185  0.0026 -0.5346
  483TIP3    H123084   1.251   6.202   1.743 -0.5498 -2.6747 -1.1083
  483TIP3    H223085   1.311   6.238   1.609  0.9164  2.9650  0.7610
  484TIP3   OH223086   3.855   3.506   1.560  0.0079  0.5693 -0.2341
  484TIP3    H123087   3.882   3.597   1.575  0.9709  0.6183 -1.9361
  484TIP3    H223088   3.828   3.504   1.468  0.6546 -0.9883 -0.4358
  485TIP3   OH223089   0.154   2.774   2.715 -0.0930 -0.4563  0.0743
  485TIP3    H123090   0.163   2.680   2.734 -0.4881  0.1216  4.0869
  485TIP3    H223091   0.239   2.811   2.738 -0.4740  0.3551  0.2110
  486TIP3   OH223092   5.744   6.174   8.517  0.0610 -0.3296  0.6518
  486TIP3    H123093   5.656   6.209   8.508  0.8016  1.6544  0.6517
  486TIP3    H223094   5.785   6.190   8.432  0.4921 -1.0721  0.7120
  487TIP3   OH223095   6.741   2.333   1.431  0.5429  0.3735  0.1157
  487TIP3    H123096   6.708   2.333   1.342 -2.7016 -1.6204  1.1150
  487TIP3    H223097   6.685   2.395   1.478  2.0278  1.2115  0.8388
  488TIP3   OH223098   3.831   4.372   2.953  0.3271  0.3969 -1.2654
  488TIP3    H123099   3.855   4.296   2.900  0.4194  0.2302 -0.9850
  488TIP3    H223100   3.748   4.347   2.994  0.9216 -0.0049 -0.2761
  489TIP3   OH223101   1.972   3.052   8.234  0.2019  0.6308  0.2553
  489TIP3    H123102   2.040   2.984   8.233 -1.9500 -1.6677  0.2675
  489TIP3    H223103   1.969   3.080   8.326 -0.7175 -1.3281  0.8796
  490TIP3   OH223104   1.165   2.967   8.748  0.0443  0.0251 -0.2345
  490TIP3    H123105   1.132   2.998   8.832  2.5762  1.9109  0.1793
  490TIP3    H223106   1.087   2.956   8.694 -1.4482  1.6856  1.4459
  491TIP3   OH223107   0.104   0.422   8.807  0.6891  0.1304  0.0445
  491TIP3    H123108   0.106   0.461   8.720  0.1521  0.9477  0.3921
  491TIP3    H223109   0.193   0.391   8.822  0.6619 -0.4986 -1.0089
  492TIP3   OH223110   4.818   5.797   3.466  0.1242 -0.1938  0.1685
  492TIP3    H123111   4.840   5.762   3.552  0.5812  0.9970  0.5492
  492TIP3    H223112   4.749   5.861   3.483  0.6139  0.4690 -0.2625
  493TIP3   OH223113   0.452   1.408   0.449  0.8344 -0.5445  0.7186
  493TIP3    H123114   0.487   1.419   0.538 -2.7263 -1.1627  2.4063
  493TIP3    H223115   0.453   1.314   0.435 -1.5566 -0.7760  1.5975
  494TIP3   OH223116   4.678   3.348   7.621  0.4751  0.3938  0.1486
  494TIP3    H123117   4.671   3.436   7.585 -0.5896 -0.2942 -1.4123
  494TIP3    H223118   4.757   3.311   7.582  1.3477  0.8857  1.3900
  495TIP3   OH223119   0.445   0.069   1.660  0.1955 -0.1395 -0.0682
  495TIP3    H123120   0.436  -0.017   1.701  1.7061 -0.9661 -1.3607
  495TIP3    H223121   0.493   0.121   1.723  0.0239 -0.5088  0.3720
  496TIP3   OH223122   0.713   2.381   2.689 -0.7990 -0.0082 -0.6184
  496TIP3    H123123   0.786   2.380   2.628 -0.9278  0.2671 -0.7808
  496TIP3    H223124   0.711   2.293   2.726 -1.1217 -0.3803 -1.4967
  497TIP3   OH223125   0.398   2.823   6.926 -0.2594 -0.1599  0.3209
  497TIP3    H123126   0.489   2.844   6.903 -0.4505  1.1209  0.6764
  497TIP3    H223127   0.391   2.729   6.910  0.7735 -0.0562 -0.9040
  498TIP3   OH223128   4.813   0.631   7.823  0.1102  0.0592  0.1631
  498TIP3    H123129   4.897   0.631   7.870  0.2882  0.9571 -0.1422
  498TIP3    H223130   4.828   0.687   7.747 -0.5219 -0.4541 -0.3478
  499TIP3   OH223131   0.542   5.323   7.926  0.6252 -0.0012  0.1651
  499TIP3    H123132   0.535   5.379   7.848  0.2737 -1.3601 -0.8079
  499TIP3    H223133   0.453   5.320   7.961  0.3374 -1.0624 -0.6061
  500TIP3   OH223134   0.784   3.004   2.012  0.0266 -0.1489  0.5225
  500TIP3    H123135   0.854   3.064   1.986  0.1861  0.1847  1.6948
  500TIP3    H223136   0.703   3.050   1.991  0.0726  1.6818  3.8058
  501TIP3   OH223137   3.557   4.684   2.147  0.5994 -0.4394  0.0567
  501TIP3    H123138   3.472   4.640   2.155 -0.3630  1.4092  0.5410
  501TIP3    H223139   3.619   4.613   2.132 -0.9897 -1.8711 -0.0748
  502TIP3   OH223140   4.826   6.123   1.890  0.0459  0.7330 -0.5612
  502TIP3    H123141   4.753   6.155   1.944 -0.7617  3.1097 -2.8584
  502TIP3    H223142   4.823   6.028   1.900 -1.7484  0.9156  1.3965
  503TIP3   OH223143   2.002   4.498   1.529 -0.0721 -0.2404 -0.2405
  503TIP3    H123144   2.064   4.483   1.458 -0.8183  0.9640 -1.1874
  503TIP3    H223145   1.977   4.590   1.521  0.0771  0.0366  1.8168
  504TIP3   OH223146   0.282   2.738   8.719  0.3255  0.4134 -0.6667
  504TIP3    H123147   0.242   2.758   8.804 -1.3910  1.3863 -1.6512
  504TIP3    H223148   0.376   2.755   8.732  0.2255 -0.2711  1.2420
  505TIP3   OH223149   5.316   4.798   0.688 -0.8576  0.3080 -0.4239
  505TIP3    H123150   5.343   4.814   0.778 -1.3619  0.5808 -0.3184
  505TIP3    H223151   5.344   4.876   0.640 -0.7949  0.2629 -0.4611
  506TIP3   OH223152   6.522   5.784   1.283 -0.1818  0.4414  0.1185
  506TIP3    H123153   6.594   5.844   1.260  0.0851 -0.1067 -0.5237
  506TIP3    H223154   6.485   5.821   1.363  0.8322  0.7300  0.4793
  507TIP3   OH223155   3.988   6.142   8.653 -0.0027 -0.5521  0.3186
  507TIP3    H123156   4.056   6.200   8.619 -1.6986  0.0342 -2.3143
  507TIP3    H223157   3.995   6.151   8.748  1.6053  1.8201  0.0643
  508TIP3   OH223158   2.847   2.519   7.055  0.0238 -0.2263  0.5178
  508TIP3    H123159   2.783   2.450   7.036 -0.4169  0.2312  0.2862
  508TIP3    H223160   2.794   2.594   7.084  0.0936  1.2433 -2.6749
  509TIP3   OH223161   6.808   0.926   1.723 -0.3450  0.7044 -0.6658
  509TIP3    H123162   6.763   0.871   1.788 -0.4163  1.6445  0.0965
  509TIP3    H223163   6.815   0.870   1.646  0.6896 -0.8265  0.4717
  510TIP3   OH223164   0.305   2.872   8.007  0.1439  0.0813 -0.5533
  510TIP3    H123165   0.245   2.943   7.983  0.4564  0.6940  0.4242
  510TIP3    H223166   0.383   2.888   7.952 -0.1786 -0.1164 -1.0778
  511TIP3   OH223167   2.484   2.968   1.106 -0.1314  0.5631  0.0143
  511TIP3    H123168   2.404   2.920   1.126 -0.2961  1.0221  0.4922
  511TIP3    H223169   2.474   3.051   1.153 -0.1304  1.3170 -1.2864
  512TIP3   OH223170   2.786   3.142   2.538  0.2199 -0.6526 -0.0161
  512TIP3    H123171   2.858   3.197   2.506 -0.4356 -0.1918 -0.7360
  512TIP3    H223172   2.775   3.168   2.629 -0.2388  0.5990 -0.4104
  513TIP3   OH223173   6.196   3.361   1.352 -0.1479  0.7934  0.0131
  513TIP3    H123174   6.255   3.289   1.329 -2.3448 -0.6960 -1.3188
  513TIP3    H223175   6.252   3.439   1.355  2.0955 -0.7519  0.3112
  514TIP3   OH223176   1.484   4.153   2.890 -0.2302  0.4875  0.1908
  514TIP3    H123177   1.472   4.165   2.984 -1.0731  1.8090 -0.0519
  514TIP3    H223178   1.420   4.087   2.865  0.2387 -0.1277  0.5922
  515TIP3   OH223179   0.566   5.101   0.620 -0.1346  0.6270  0.1553
  515TIP3    H123180   0.613   5.092   0.702 -0.4405 -1.5062  0.1624
  515TIP3    H223181   0.635   5.117   0.555  0.5355 -1.0875  0.3671
  516TIP3   OH223182   0.704   1.565   0.472 -0.5863 -0.6989 -0.6768
  516TIP3    H123183   0.640   1.587   0.540  0.1464 -1.5020  0.3017
  516TIP3    H223184   0.678   1.618   0.397 -0.9328  0.8273  0.4696
  517TIP3   OH223185   6.726   0.993   7.446 -0.2040  0.5336 -0.6658
  517TIP3    H123186   6.803   0.976   7.392  0.8768 -1.9277  1.4650
  517TIP3    H223187   6.683   0.908   7.455 -2.6802  1.6684 -0.9700
  518TIP3   OH223188   2.059   6.782   2.263  0.0935  0.1068  0.1143
  518TIP3    H123189   2.150   6.755   2.272  0.1481 -0.4310 -1.6037
  518TIP3    H223190   2.035   6.815   2.349  1.8696  0.1433  0.6404
  519TIP3   OH223191   6.764   6.067   0.601 -0.4388  0.3507 -0.1727
  519TIP3    H123192   6.749   5.973   0.589 -0.0997  0.3230 -0.3872
  519TIP3    H223193   6.694   6.108   0.550 -0.4750  0.2158 -0.2339
  520TIP3   OH223194   4.949   4.305   0.643 -0.0539 -0.4573  0.2573
  520TIP3    H123195   4.988   4.326   0.558 -0.7833 -1.2041 -0.2830
  520TIP3    H223196   4.911   4.218   0.631 -2.2357  0.3720  0.5887
  521TIP3   OH223197   5.714   2.368   1.738 -0.5382  0.3827 -0.0100
  521TIP3    H123198   5.680   2.431   1.801 -0.3065 -0.5222  1.0469
  521TIP3    H223199   5.709   2.283   1.783 -2.2347 -0.6115 -1.9070
  522TIP3   OH223200   3.791   6.079   7.737  0.2418  0.1205  0.2077
  522TIP3    H123201   3.788   5.983   7.740 -2.8104  0.0930  3.0940
  522TIP3    H223202   3.724   6.102   7.673  1.7082  0.4135 -1.2808
  523TIP3   OH223203   2.871   6.698   7.412 -0.1385 -0.3373  0.1535
  523TIP3    H123204   2.924   6.744   7.478 -0.9986  2.8752 -1.2105
  523TIP3    H223205   2.787   6.683   7.456  0.5682 -1.9038  1.0414
  524TIP3   OH223206   5.227   0.257   1.109  0.4876 -0.1096 -0.4647
  524TIP3    H123207   5.156   0.198   1.133  0.7746 -0.7481 -1.1712
  524TIP3    H223208   5.196   0.302   1.031 -0.3840  1.8611  0.9296
  525TIP3   OH223209   4.386   3.388   1.039 -0.1544 -0.0403 -0.0183
  525TIP3    H123210   4.295   3.358   1.045 -1.1130  2.4442 -0.7992
  525TIP3    H223211   4.398   3.443   1.117  0.0906  1.0059 -0.7753
  526TIP3   OH223212   3.594   4.118   2.943 -0.4928  0.0997  0.2593
  526TIP3    H123213   3.563   4.100   3.032 -0.7381  0.1836  0.1919
  526TIP3    H223214   3.651   4.045   2.922 -0.3539  0.1299  0.5260
  527TIP3   OH223215   4.732   5.076   7.050 -0.9858  0.2780  0.2772
  527TIP3    H123216   4.783   5.047   7.126 -1.9302 -0.7317  0.5457
  527TIP3    H223217   4.717   5.169   7.065  2.0335  1.0145 -0.5416
  528TIP3   OH223218   4.694   6.595   6.980 -0.6428  0.3069  0.1782
  528TIP3    H123219   4.754   6.528   7.014 -1.8838 -1.8714 -1.6014
  528TIP3    H223220   4.738   6.678   6.997  1.8468 -1.0580  0.8898
  529TIP3   OH223221   3.142   4.322   8.431  0.0320  0.1195  0.4281
  529TIP3    H123222   3.164   4.415   8.423  1.1339 -0.1350  0.3791
  529TIP3    H223223   3.222   4.276   8.408  0.1990 -0.8200  2.6961
  530TIP3   OH223224   2.076   2.877   0.779 -0.0594  0.1502 -0.0769
  530TIP3    H123225   2.054   2.950   0.720 -1.9990  1.4631  2.1280
  530TIP3    H223226   2.102   2.806   0.720 -3.7084  0.7395 -2.7135
  531TIP3   OH223227   5.614   1.394   0.042 -0.3344  0.0638  0.9616
  531TIP3    H123228   5.702   1.361   0.061  0.0269 -0.3152 -1.1091
  531TIP3    H223229   5.605   1.383  -0.053 -1.5204  2.7130  0.6809
  532TIP3   OH223230   5.218   3.929   0.789 -0.4399 -0.5413  0.4411
  532TIP3    H123231   5.156   3.998   0.814  0.5945  1.1855 -1.4103
  532TIP3    H223232   5.242   3.950   0.698  2.3795 -1.4502  0.8628
  533TIP3   OH223233   2.436   2.819   0.485  0.4273  0.0302  0.7617
  533TIP3    H123234   2.481   2.761   0.423 -0.9332 -0.1474 -0.1294
  533TIP3    H223235   2.428   2.768   0.565  0.3207 -0.5688  0.3760
  534TIP3   OH223236   4.223   0.032   2.158 -0.2660 -0.0309  0.1431
  534TIP3    H123237   4.306   0.080   2.155 -0.4010  0.2857  1.0784
  534TIP3    H223238   4.217  -0.000   2.248  0.1253 -2.3851 -0.6110
  535TIP3   OH223239   3.040   3.175   2.101 -0.0487 -0.1568  0.3493
  535TIP3    H123240   3.019   3.102   2.043  1.6418 -0.9011  0.6147
  535TIP3    H223241   3.089   3.135   2.173  0.1385  1.1172  0.9583
  536TIP3   OH223242   6.101   5.387   2.762  0.1288 -0.0379  0.0109
  536TIP3    H123243   6.177   5.407   2.817  1.2832 -1.0569 -1.1460
  536TIP3    H223244   6.133   5.324   2.698 -0.7656  2.0204 -2.6758
  537TIP3   OH223245   0.978   1.815   8.411 -0.2868  0.2560 -0.2675
  537TIP3    H123246   0.911   1.880   8.432 -0.7555 -0.0436 -0.8051
  537TIP3    H223247   1.010   1.841   8.325  0.9300  0.9144  0.3530
  538TIP3   OH223248   6.651   0.327   8.018 -0.1192  0.1413  0.0243
  538TIP3    H123249   6.744   0.307   8.016  0.1602  1.2965  0.5804
  538TIP3    H223250   6.636   0.365   8.104 -1.2077 -0.4511  0.1195
  539TIP3   OH223251   0.200   4.944   0.105  0.6574  0.5750  0.0685
  539TIP3    H123252   0.244   4.860   0.122 -1.9672 -0.9164 -0.0483
  539TIP3    H223253   0.154   4.964   0.186 -0.3830  0.8325 -0.5755
  540TIP3   OH223254   3.469   3.746   8.048  0.6927 -0.3647 -0.5240
  540TIP3    H123255   3.479   3.770   7.956 -2.2032 -1.6439 -1.2876
  540TIP3    H223256   3.448   3.653   8.046 -0.5327 -0.1814  1.3146
  541TIP3   OH223257   1.955   0.426   2.774 -0.2150  0.1845 -0.2781
  541TIP3    H123258   2.031   0.388   2.818 -0.9275 -0.4952  0.3907
  541TIP3    H223259   1.918   0.354   2.723 -1.0604  0.1948  0.2978
  542TIP3   OH223260   4.893   6.304   8.806  0.0639 -0.2512  0.2689
  542TIP3    H123261   4.945   6.225   8.792  1.0779  0.6560 -1.2921
  542TIP3    H223262   4.810   6.272   8.841  1.0507 -1.8593  1.2992
  543TIP3   OH223263   4.669   1.174   0.827 -0.0470  0.1860 -0.1938
  543TIP3    H123264   4.669   1.135   0.914 -0.6839 -0.4033 -0.4437
  543TIP3    H223265   4.580   1.210   0.818  0.0433  0.3146 -0.5682
  544TIP3   OH223266   1.010   6.584   1.711 -0.0379 -0.3776  0.5821
  544TIP3    H123267   1.064   6.569   1.634 -0.2066  0.7273  0.2291
  544TIP3    H223268   0.928   6.538   1.693 -0.6818  1.1614 -0.6247
  545TIP3   OH223269   2.316   5.716   1.402 -0.0397 -0.2746 -0.2105
  545TIP3    H123270   2.321   5.639   1.458  1.4349 -0.3236 -0.3837
  545TIP3    H223271   2.396   5.764   1.419 -0.5926  0.8455 -0.6685
  546TIP3   OH223272   0.248   3.040   1.929 -0.3367  0.2369  0.1982
  546TIP3    H123273   0.246   3.117   1.872 -2.1874  0.3781  0.4141
  546TIP3    H223274   0.304   3.066   2.002  0.4628  0.7444 -0.5684
  547TIP3   OH223275   6.214   6.189   0.952 -0.2964 -0.0707  0.3307
  547TIP3    H123276   6.170   6.246   1.016  2.1230  1.1462  1.0277
  547TIP3    H223277   6.281   6.143   1.003  0.3709 -0.5795 -0.9778
  548TIP3   OH223278   4.146   2.370   6.828  0.4755 -0.1848 -0.4265
  548TIP3    H123279   4.209   2.304   6.857 -1.7214 -1.6803  1.3158
  548TIP3    H223280   4.073   2.319   6.793 -0.5151  1.4068 -0.7843
  549TIP3   OH223281   5.463   0.101   8.426  0.0804  0.4023  0.1289
  549TIP3    H123282   5.517   0.136   8.496 -2.0747  1.7152  1.2223
  549TIP3    H223283   5.402   0.042   8.470 -2.6172  2.7426 -0.2191
  550TIP3   OH223284   3.349   2.502   2.410  0.5662  0.1639  0.4920
  550TIP3    H123285   3.334   2.475   2.319  0.8317  1.3221  0.0887
  550TIP3    H223286   3.324   2.425   2.462  1.7126 -1.0155 -0.6204
  551TIP3   OH223287   5.904   3.747   8.752  0.5183 -0.6781 -0.0432
  551TIP3    H123288   5.883   3.667   8.799 -0.4083 -0.6289 -0.3550
  551TIP3    H223289   5.973   3.721   8.690  0.0446 -1.2969 -0.3215
  552TIP3   OH223290   4.428   1.446   8.745  0.1969  0.4095  0.2061
  552TIP3    H123291   4.432   1.436   8.650  0.4527 -0.9578  0.3345
  552TIP3    H223292   4.513   1.483   8.769  1.0604 -1.3493  0.0846
  553TIP3   OH223293   6.301   1.650   8.499  0.4525  0.1443 -0.4786
  553TIP3    H123294   6.353   1.634   8.577  1.2931 -1.2874 -1.2814
  553TIP3    H223295   6.233   1.582   8.501  0.0963  0.4879 -0.6727
  554TIP3   OH223296   6.388   1.908   1.665  0.0329 -0.2504  0.0977
  554TIP3    H123297   6.477   1.877   1.681  0.0779  1.0297  2.9291
  554TIP3    H223298   6.353   1.847   1.599  2.7529 -1.1362 -0.6814
  555TIP3   OH223299   4.546   5.430   7.560 -0.1146  0.2194 -0.0626
  555TIP3    H123300   4.592   5.378   7.494  1.4782  0.5366  0.7288
  555TIP3    H223301   4.453   5.414   7.543  0.2858 -1.3604 -1.0442
  556TIP3   OH223302   5.617   0.875   1.415  0.3268 -0.4091  0.1646
  556TIP3    H123303   5.662   0.791   1.426  0.9260  0.1020  2.0076
  556TIP3    H223304   5.545   0.872   1.478  0.9683  0.8380  0.9965
  557TIP3   OH223305   0.626   1.450   8.065 -0.2242 -0.3184 -0.6318
  557TIP3    H123306   0.603   1.510   8.135  2.0694  1.6376 -1.4168
  557TIP3    H223307   0.718   1.429   8.080 -0.3832 -1.9699 -1.6136
  558TIP3   OH223308   2.014   0.487   0.813  0.5203  0.4483  0.1219
  558TIP3    H123309   1.949   0.519   0.875  0.6326  2.1251 -0.5717
  558TIP3    H223310   1.963   0.458   0.737  0.4347 -0.8265  0.6497
  559TIP3   OH223311   6.749   2.582   2.105 -0.1016 -0.1273  0.1897
  559TIP3    H123312   6.739   2.552   2.195  0.1648 -1.6679 -0.2615
  559TIP3    H223313   6.694   2.661   2.099  0.4222  0.4040  1.8591
  560TIP3   OH223314   4.393   6.461   7.917 -0.5761  0.4000 -0.2729
  560TIP3    H123315   4.462   6.445   7.853 -1.4450  1.1366 -1.4246
  560TIP3    H223316   4.440   6.478   7.999  0.6024  0.8564 -1.0252
  561TIP3   OH223317   5.439   2.106   8.101  0.2888 -0.0422 -0.3018
  561TIP3    H123318   5.354   2.071   8.125  1.1298 -1.5946  0.5482
  561TIP3    H223319   5.500   2.033   8.112  1.4916  0.4891 -2.6228
  562TIP3   OH223320   3.778   5.621   8.568 -0.0677  0.9443  0.6551
  562TIP3    H123321   3.799   5.529   8.549  1.1095  1.6228 -1.6980
  562TIP3    H223322   3.694   5.636   8.526 -0.1829  0.9841  0.8988
  563TIP3   OH223323   3.727   2.992   0.773 -0.5832 -0.0639  0.7629
  563TIP3    H123324   3.653   2.937   0.798 -0.5309  0.1025  1.2971
  563TIP3    H223325   3.750   2.963   0.685 -1.6019  0.2378  0.3917
  564TIP3   OH223326   1.601   0.872   6.782 -0.1027  0.8456  0.0874
  564TIP3    H123327   1.562   0.842   6.700  0.3193  0.1307  0.1318
  564TIP3    H223328   1.686   0.909   6.757  1.4185 -2.0305  0.4059
  565TIP3   OH223329   4.456   0.389   0.214  0.5046  0.0304 -1.2881
  565TIP3    H123330   4.492   0.455   0.274 -0.0031  0.4451 -1.4368
  565TIP3    H223331   4.493   0.412   0.128  0.6957 -0.1621 -1.2598
  566TIP3   OH223332   6.370   2.997   7.402 -0.3191 -0.5184 -0.5173
  566TIP3    H123333   6.387   3.081   7.446 -1.4680  0.3261 -1.6136
  566TIP3    H223334   6.441   2.989   7.338 -0.1915 -0.3920 -0.3938
  567TIP3   OH223335   5.782   3.105   8.378 -0.3649 -0.5465 -0.0149
  567TIP3    H123336   5.850   3.167   8.352 -0.0543 -1.5367 -1.7410
  567TIP3    H223337   5.807   3.023   8.336 -1.2167 -1.6436  1.5060
  568TIP3   OH223338   1.842   0.412   7.331  0.4632 -0.3373 -0.1696
  568TIP3    H123339   1.820   0.345   7.267  1.3184 -0.7801 -0.0137
  568TIP3    H223340   1.792   0.489   7.304  0.2539 -0.7396 -0.9379
  569TIP3   OH223341   1.672   2.636   7.542 -0.2534  0.5368  0.0504
  569TIP3    H123342   1.701   2.701   7.606 -1.5908  1.6059 -0.3714
  569TIP3    H223343   1.585   2.666   7.516 -0.7117 -1.1797 -0.5214
  570TIP3   OH223344   2.754   0.056   0.541  0.2795 -0.5528 -0.2748
  570TIP3    H123345   2.738   0.126   0.605 -0.6237 -1.9124  1.0460
  570TIP3    H223346   2.742   0.099   0.456 -0.4754  0.8556  0.4933
  571TIP3   OH223347   5.587   1.848   2.292  0.2181  0.1354 -0.3086
  571TIP3    H123348   5.653   1.879   2.230 -0.7601 -0.5832 -1.7465
  571TIP3    H223349   5.571   1.757   2.268  1.4507 -0.9477  2.4654
  572TIP3   OH223350   5.209   4.112   1.202  0.1587  0.0146 -0.7620
  572TIP3    H123351   5.152   4.073   1.268  0.1230  0.3899 -0.5733
  572TIP3    H223352   5.155   4.179   1.159  0.0223 -0.5512 -1.5027
  573TIP3   OH223353   4.762   3.589   8.145  0.4075 -0.2283  0.3802
  573TIP3    H123354   4.668   3.599   8.125  0.4745  1.3316  0.7195
  573TIP3    H223355   4.782   3.499   8.119 -0.5679  0.2343 -2.3119
  574TIP3   OH223356   2.140   0.299   7.707 -0.1189 -0.1504  0.0756
  574TIP3    H123357   2.174   0.384   7.679 -0.3995 -0.2970 -0.7520
  574TIP3    H223358   2.070   0.280   7.644  0.1985 -1.1653  0.0131
  575TIP3   OH223359   1.023   1.833   1.555 -0.3775 -0.6712 -0.2119
  575TIP3    H123360   1.082   1.758   1.546 -0.9315 -0.9882 -1.3745
  575TIP3    H223361   1.072   1.906   1.516 -0.1923 -0.6108  0.1252
  576TIP3   OH223362   6.315   2.116   1.826 -0.1973  0.5109 -0.4321
  576TIP3    H123363   6.405   2.145   1.810  0.7283 -0.0644  2.9454
  576TIP3    H223364   6.312   2.025   1.797  0.4515  0.4012 -0.1518
  577TIP3   OH223365   5.590   4.658   2.164 -0.0088  0.0299 -0.0072
  577TIP3    H123366   5.650   4.722   2.201  2.0515 -2.0564  0.4253
  577TIP3    H223367   5.561   4.606   2.239 -1.3582  0.1601 -0.4082
  578TIP3   OH223368   4.362   3.031   8.559 -0.4944 -0.8297 -0.0113
  578TIP3    H123369   4.328   3.095   8.621 -1.1618 -2.3491  1.2598
  578TIP3    H223370   4.288   3.013   8.500 -0.1844 -0.1662 -0.6182
  579TIP3   OH223371   5.769   0.648   1.336  0.5600  0.2887 -0.1935
  579TIP3    H123372   5.798   0.681   1.251  1.3402  3.5877  1.1837
  579TIP3    H223373   5.706   0.580   1.315  2.7014 -0.9657 -3.3613
  580TIP3   OH223374   1.867   3.183   2.163  0.1746 -0.5849 -0.1635
  580TIP3    H123375   1.822   3.221   2.088  0.0010 -2.5687 -1.1343
  580TIP3    H223376   1.957   3.169   2.132  0.8040  0.8717  0.8729
  581TIP3   OH223377   5.868   0.231   2.149 -0.3047 -0.5089 -0.1151
  581TIP3    H123378   5.822   0.166   2.203  1.5818 -2.7518 -1.0505
  581TIP3    H223379   5.811   0.242   2.072 -0.7315 -0.9367  0.1307
  582TIP3   OH223380   6.173   1.878   0.663  0.0348  0.2785 -0.0538
  582TIP3    H123381   6.121   1.885   0.583 -0.0943  0.1922  0.0228
  582TIP3    H223382   6.203   1.967   0.680  1.4193  0.0537 -1.1067
  583TIP3   OH223383   0.317   4.015   1.014  0.4564  0.5320  0.2514
  583TIP3    H123384   0.404   4.013   0.975  0.0743 -1.6718 -0.5927
  583TIP3    H223385   0.332   3.987   1.105  0.5266 -0.8226 -0.1627
  584TIP3   OH223386   1.675   6.015   2.624  0.1003 -0.0873 -0.2784
  584TIP3    H123387   1.659   6.101   2.584 -1.7363  1.5309  3.4256
  584TIP3    H223388   1.760   6.023   2.666  0.0722 -0.2015 -0.1984
  585TIP3   OH223389   1.439   3.068   1.998  0.4949 -0.6989  0.3712
  585TIP3    H123390   1.367   3.056   1.936 -0.6336  0.1388  1.4657
  585TIP3    H223391   1.461   3.161   1.991  0.3914 -0.6067  1.1751
  586TIP3   OH223392   2.236   4.482   1.985  0.3047  0.3240 -0.1694
  586TIP3    H123393   2.170   4.500   1.918 -2.6782 -1.0830  2.1907
  586TIP3    H223394   2.235   4.386   1.994  0.6882  0.4826  1.8077
  587TIP3   OH223395   4.425   3.471   0.669 -0.6408  0.2707  0.2413
  587TIP3    H123396   4.453   3.457   0.578 -1.3035  1.3131 -0.1478
  587TIP3    H223397   4.488   3.423   0.722  2.9079  3.7009 -0.4429
  588TIP3   OH223398   2.224   2.770   2.696 -0.0737 -0.1556 -0.2336
  588TIP3    H123399   2.280   2.836   2.737 -0.2664  1.2720 -2.1300
  588TIP3    H223400   2.281   2.725   2.633 -0.4761 -0.2759 -0.5228
  589TIP3   OH223401   5.928   1.051   1.714 -0.1774  0.4400  0.1826
  589TIP3    H123402   6.005   1.097   1.748  0.0149  0.5392 -0.3851
  589TIP3    H223403   5.870   1.044   1.790  0.0880  0.9984  0.4477
  590TIP3   OH223404   6.276   2.590   7.914 -0.5029  0.0777  0.1343
  590TIP3    H123405   6.221   2.572   7.838 -1.4135  1.7489  0.3536
  590TIP3    H223406   6.214   2.617   7.982  0.4423  0.2095  0.9659
  591TIP3   OH223407   4.248   4.381   8.466  0.2381  0.4130  0.6313
  591TIP3    H123408   4.310   4.407   8.534  3.2571 -0.6466 -1.4933
  591TIP3    H223409   4.226   4.291   8.486  0.3408  0.4126  0.7440
  592TIP3   OH223410   4.103   3.127   2.158  0.0153 -0.2426 -0.2035
  592TIP3    H123411   4.183   3.120   2.210 -0.5071 -0.1801  0.6388
  592TIP3    H223412   4.035   3.086   2.213 -0.4601 -0.6464 -1.0618
  593TIP3   OH223413   2.701   5.622   8.177 -0.3313  0.1122  0.3569
  593TIP3    H123414   2.638   5.663   8.118  0.7040  0.2371 -0.6921
  593TIP3    H223415   2.674   5.652   8.264 -1.1544  0.9154 -0.1472
  594TIP3   OH223416   4.152   1.722   3.206  0.8970  0.4426  0.1789
  594TIP3    H123417   4.131   1.694   3.116  0.6613  0.5162  0.2113
  594TIP3    H223418   4.194   1.645   3.245 -0.3920 -0.1325  0.4958
  595TIP3   OH223419   3.568   0.408   2.705 -0.9116 -0.4035  0.0316
  595TIP3    H123420   3.647   0.383   2.753 -1.5742 -1.7307  0.4799
  595TIP3    H223421   3.526   0.473   2.761 -1.0118 -0.9822  0.6442
  596TIP3   OH223422   5.205   2.207   8.232  0.0538  0.2808  0.2254
  596TIP3    H123423   5.215   2.277   8.168 -1.0474  0.2954  0.0518
  596TIP3    H223424   5.131   2.234   8.286  0.8061  0.1439  1.3522
  597TIP3   OH223425   1.993   4.079   8.820  0.4041 -0.1053 -0.2189
  597TIP3    H123426   2.003   3.985   8.807 -1.6450 -0.3787 -0.0856
  597TIP3    H223427   2.026   4.095   8.908  0.2196 -0.7977 -0.0197
  598TIP3   OH223428   3.920   6.359   1.670  0.6632 -0.0631  0.8245
  598TIP3    H123429   3.932   6.321   1.757 -0.6792  0.6063  1.3259
  598TIP3    H223430   3.826   6.373   1.663  0.7897  0.1624 -0.6331
  599TIP3   OH223431   2.271   6.082   0.724  0.1151  0.3101 -0.5934
  599TIP3    H123432   2.356   6.057   0.688 -0.0474 -0.7915 -0.2501
  599TIP3    H223433   2.235   6.145   0.661  0.9155  0.3208 -1.0474
  600TIP3   OH223434   4.665   4.009   2.080 -0.3738  0.3428  0.0127
  600TIP3    H123435   4.700   4.018   2.169  0.6159  0.8761 -0.4208
  600TIP3    H223436   4.731   4.049   2.024 -1.3222  0.6561 -0.9083
  601TIP3   OH223437   2.157   0.146   7.286  0.2830  0.1995  0.3126
  601TIP3    H123438   2.137   0.152   7.192 -0.3181  0.3377  0.4493
  601TIP3    H223439   2.163   0.052   7.302  2.6965  0.1675 -0.3367
  602TIP3   OH223440   0.092   3.386   0.732 -0.3394  0.3068 -0.6073
  602TIP3    H123441   0.155   3.327   0.774  0.3876 -0.0129 -2.0693
  602TIP3    H223442   0.032   3.328   0.686 -1.4092  0.6369  0.3058
  603TIP3   OH223443   2.409   5.450   8.696  0.8880 -0.2852 -0.5679
  603TIP3    H123444   2.425   5.417   8.608  0.3747  0.1797 -0.8467
  603TIP3    H223445   2.495   5.471   8.731  1.0016  0.8059 -1.4767
  604TIP3   OH223446   4.155   4.925   7.647  0.0003 -0.0046 -0.2352
  604TIP3    H123447   4.114   5.006   7.677  0.7538  1.0836 -1.9777
  604TIP3    H223448   4.083   4.862   7.640 -0.3398 -0.1112  2.8574
  605TIP3   OH223449   0.297   5.225   8.267 -0.3554  0.2580  0.0304
  605TIP3    H123450   0.349   5.147   8.245 -0.7477 -0.2550  0.8772
  605TIP3    H223451   0.285   5.270   8.184 -1.8393 -1.6399 -0.8702
  606TIP3   OH223452   6.629   1.239   2.666  0.4330  0.0577 -0.7393
  606TIP3    H123453   6.696   1.192   2.715 -0.4584  0.0643  0.5392
  606TIP3    H223454   6.665   1.327   2.655 -0.1215  0.6812  1.7194
  607TIP3   OH223455   0.930   5.683   0.523 -0.1622 -0.3068 -0.4542
  607TIP3    H123456   0.938   5.674   0.618 -1.7721  1.7059 -0.0307
  607TIP3    H223457   1.006   5.638   0.487 -0.6097 -2.9722  1.6473
  608TIP3   OH223458   0.114   2.422   8.259  0.4291 -0.3656 -0.1355
  608TIP3    H123459   0.084   2.384   8.342  0.7760 -0.7709 -0.1933
  608TIP3    H223460   0.172   2.355   8.222  0.4786 -0.0759 -0.5811
  609TIP3   OH223461   4.520   3.633   8.790  0.1786  0.3586 -0.0137
  609TIP3    H123462   4.506   3.602   8.700  0.8153  1.2126 -0.4323
  609TIP3    H223463   4.596   3.691   8.783  1.3815 -0.9458  1.4109
  610TIP3   OH223464   2.152   2.543   1.085 -0.1842  0.1016 -0.2254
  610TIP3    H123465   2.206   2.481   1.133 -0.9385  1.1230  2.1417
  610TIP3    H223466   2.215   2.595   1.035  0.7474 -0.5712  0.2019
  611TIP3   OH223467   1.165   2.721   0.363 -0.4862  0.2865  0.4884
  611TIP3    H123468   1.189   2.628   0.358 -2.7695 -0.3219 -0.9370
  611TIP3    H223469   1.247   2.765   0.385  0.6630 -2.0510  1.3271
  612TIP3   OH223470   4.864   1.912   1.383 -0.1201  0.2057 -0.1027
  612TIP3    H123471   4.859   1.956   1.297  0.3813 -0.9720 -0.7551
  612TIP3    H223472   4.784   1.940   1.428 -0.0657  1.3730 -0.6889
  613TIP3   OH223473   0.428   5.570   1.804 -0.1112 -0.1163 -0.2752
  613TIP3    H123474   0.350   5.599   1.851  1.2937  1.1440  1.4506
  613TIP3    H223475   0.424   5.475   1.806 -1.0568 -0.0719  0.7930
  614TIP3   OH223476   0.041   6.702   8.582 -0.2205 -0.4262 -0.1128
  614TIP3    H123477   0.094   6.690   8.503 -0.4933  0.0146 -0.3653
  614TIP3    H223478  -0.021   6.770   8.559  0.1830  0.2459  0.7328
  615TIP3   OH223479   5.983   3.639   1.912 -0.1088  0.3869  0.8717
  615TIP3    H123480   6.008   3.652   1.820 -1.0886  0.8561  0.6613
  615TIP3    H223481   6.013   3.718   1.956 -0.3960  0.5407  0.7927
  616TIP3   OH223482   6.223   1.188   1.511 -0.1778 -0.0881 -0.8842
  616TIP3    H123483   6.269   1.111   1.545 -0.5950  0.0412  0.0076
  616TIP3    H223484   6.150   1.152   1.461 -0.0689 -0.2820 -0.9046
  617TIP3   OH223485   4.609   3.152   2.240 -0.7258  0.4068  0.6410
  617TIP3    H123486   4.522   3.168   2.204 -0.2403  0.6612 -0.4537
  617TIP3    H223487   4.667   3.151   2.164  0.0812 -0.8817  1.2426
  618TIP3   OH223488   4.523   6.115   2.291  0.1107 -0.4247 -0.1243
  618TIP3    H123489   4.438   6.071   2.286 -0.2543  0.1887  0.5687
  618TIP3    H223490   4.510   6.186   2.353 -0.1519  2.5451 -3.3003
  619TIP3   OH223491   2.558   0.127   7.541  0.1927  0.1338 -0.2106
  619TIP3    H123492   2.498   0.191   7.504 -0.6538 -0.1195  0.6922
  619TIP3    H223493   2.625   0.179   7.584 -0.7962  0.4473  1.0060
  620TIP3   OH223494   1.635   6.470   0.526 -0.5976 -0.4339  0.0843
  620TIP3    H123495   1.671   6.546   0.571 -1.4295 -0.0101  0.0502
  620TIP3    H223496   1.682   6.467   0.442 -1.2903  0.6685 -0.3623
  621TIP3   OH223497   3.431   0.095   8.561  0.1960  0.6624  0.4315
  621TIP3    H123498   3.466   0.152   8.492 -1.8384  1.9966  0.4467
  621TIP3    H223499   3.385   0.026   8.513 -2.0651  2.1337  0.3949
  622TIP3   OH223500   0.870   2.410   7.478 -0.4519 -0.5410 -0.7315
  622TIP3    H123501   0.826   2.390   7.396  0.9854  0.5584 -1.8146
  622TIP3    H223502   0.903   2.499   7.467  1.5288 -1.0874  0.2095
  623TIP3   OH223503   2.872   5.905   7.965  0.6441  0.1490  0.1879
  623TIP3    H123504   2.797   5.959   7.987  0.1719  0.2141 -1.4934
  623TIP3    H223505   2.948   5.955   7.997 -0.0088 -0.8844  3.8708
  624TIP3   OH223506   0.144   0.784   7.251  0.5909 -0.3083  0.1522
  624TIP3    H123507   0.080   0.832   7.200  0.5932 -0.5585 -0.0914
  624TIP3    H223508   0.229   0.814   7.218  0.5980 -0.1661  0.2971
  625TIP3   OH223509   4.400   4.091   1.371 -0.3199  0.6994  0.6004
  625TIP3    H123510   4.367   4.091   1.281  0.8290  0.8659  0.1673
  625TIP3    H223511   4.340   4.148   1.418 -1.2960  0.1319  0.0803
  626TIP3   OH223512   2.392   0.108   2.005 -0.2926  0.0607 -0.9253
  626TIP3    H123513   2.432   0.194   2.022 -1.2977  0.5015 -0.7003
  626TIP3    H223514   2.396   0.063   2.089 -0.3269  0.1262 -0.8886
  627TIP3   OH223515   0.293   3.839   1.811  0.2182  0.2818 -0.1966
  627TIP3    H123516   0.273   3.772   1.876  0.9271 -0.3818 -0.6398
  627TIP3    H223517   0.212   3.888   1.800  0.4598  1.3453  2.2266
  628TIP3   OH223518   3.028   5.450   8.174 -0.2424 -1.1312  0.0442
  628TIP3    H123519   3.024   5.368   8.124 -1.8557 -0.7434 -0.5347
  628TIP3    H223520   2.960   5.505   8.135  0.9754  0.5977  0.2552
  629TIP3   OH223521   4.871   1.291   0.198 -0.1749 -0.4229  0.2774
  629TIP3    H123522   4.828   1.363   0.244 -2.2056 -1.2399 -0.2615
  629TIP3    H223523   4.861   1.314   0.105  2.9237  0.6660  0.0976
  630TIP3   OH223524   0.044   0.144   1.878 -0.2241 -0.3258 -0.2232
  630TIP3    H123525  -0.008   0.064   1.875 -0.8072 -0.1171  2.2073
  630TIP3    H223526   0.131   0.115   1.906 -0.3095 -0.1792  0.2026
  631TIP3   OH223527   4.679   0.899   1.718  0.2597  0.0159 -0.1490
  631TIP3    H123528   4.603   0.936   1.764  0.6543  0.3750  0.2144
  631TIP3    H223529   4.641   0.835   1.657 -0.2251 -1.3191  1.4674
  632TIP3   OH223530   1.507   5.473   8.830 -0.2103 -0.1062 -0.1743
  632TIP3    H123531   1.597   5.506   8.820 -0.4839  0.4573 -0.8453
  632TIP3    H223532   1.483   5.495   8.920  0.7348 -1.3038  0.3971
  633TIP3   OH223533   1.043   0.188   0.740 -0.7628  0.1559  0.0507
  633TIP3    H123534   1.111   0.255   0.749 -1.6914  0.9576  1.5435
  633TIP3    H223535   0.966   0.235   0.710 -0.5708 -0.8468 -2.2312
  634TIP3   OH223536   5.523   0.660   1.696 -0.0918  0.1274  0.2737
  634TIP3    H123537   5.512   0.582   1.642  0.9776  0.2404 -0.1383
  634TIP3    H223538   5.558   0.627   1.779  0.4429  0.1653  0.0686
  635TIP3   OH223539   4.151   6.388   8.357 -0.8753 -0.5710 -0.3192
  635TIP3    H123540   4.216   6.400   8.426 -2.3690  1.4563  0.8444
  635TIP3    H223541   4.124   6.296   8.366 -0.9683 -0.3850  1.7877
  636TIP3   OH223542   0.674   5.408   0.282 -0.7527 -0.5156  0.1459
  636TIP3    H123543   0.611   5.395   0.353 -0.6414  1.4272  0.6528
  636TIP3    H223544   0.759   5.387   0.321 -0.6796  0.6409  0.6680
  637TIP3   OH223545   2.070   3.929   8.489  0.4829  0.0616 -0.2940
  637TIP3    H123546   1.975   3.927   8.496  0.5518  0.3334  1.0031
  637TIP3    H223547   2.101   3.885   8.568  1.4345 -0.1101 -0.7439
  638TIP3   OH223548   4.215   2.402   7.887 -0.4148  0.1217 -0.3606
  638TIP3    H123549   4.204   2.493   7.916  0.6679  0.6689 -1.5839
  638TIP3    H223550   4.253   2.409   7.800 -0.2338 -1.5169 -0.4395
  639TIP3   OH223551   3.418   3.246   1.512 -0.0927 -0.5082 -0.4002
  639TIP3    H123552   3.380   3.273   1.429  1.1856 -1.2302 -1.2461
  639TIP3    H223553   3.347   3.257   1.576 -0.8860  0.7088 -1.4461
  640TIP3   OH223554   3.003   0.437   8.305  0.0594  0.2723 -0.0215
  640TIP3    H123555   3.047   0.467   8.226  0.5195 -0.5924 -0.1097
  640TIP3    H223556   3.067   0.382   8.349 -0.6801 -0.4259  0.2157
  641TIP3   OH223557   4.434   5.951   2.618 -0.3663  0.8342  0.2551
  641TIP3    H123558   4.419   5.904   2.700  0.3139 -0.5860 -0.3966
  641TIP3    H223559   4.525   5.981   2.624 -0.4925  1.2157  0.2565
  642TIP3   OH223560   4.806   5.002   1.401  0.5252  0.1492  0.0825
  642TIP3    H123561   4.732   4.946   1.379  1.8732 -0.9840 -1.8345
  642TIP3    H223562   4.798   5.077   1.342  1.3390 -0.3842 -0.7227
  643TIP3   OH223563   3.442   1.715   2.647 -0.2525 -0.1559  0.5109
  643TIP3    H123564   3.379   1.643   2.652 -0.5189  0.1286  1.3382
  643TIP3    H223565   3.525   1.676   2.673 -0.7108  0.1929  2.6918
  644TIP3   OH223566   5.501   1.248   2.465  0.0269  0.1354 -0.3608
  644TIP3    H123567   5.485   1.310   2.537 -1.4241  0.0872 -0.6178
  644TIP3    H223568   5.431   1.184   2.472  0.8660 -0.8637 -0.7935
  645TIP3   OH223569   5.803   5.346   8.704 -0.5123 -0.2499 -0.1513
  645TIP3    H123570   5.841   5.271   8.750  1.6817 -0.1270 -1.6369
  645TIP3    H223571   5.733   5.308   8.651  1.5852 -1.6353 -2.1323
  646TIP3   OH223572   5.678   3.432   1.307 -0.2305  0.0660  0.1821
  646TIP3    H123573   5.603   3.399   1.358  0.2880 -1.5039 -0.0119
  646TIP3    H223574   5.751   3.376   1.333  0.9890  1.7908  0.6193
  647TIP3   OH223575   1.789   5.916   7.079  0.0222 -0.2776 -0.1415
  647TIP3    H123576   1.777   5.835   7.130 -0.3411 -0.9839 -1.3120
  647TIP3    H223577   1.726   5.909   7.008  0.5148  0.6974 -0.6964
  648TIP3   OH223578   2.427   0.902   7.384  0.0854 -0.3861 -0.0539
  648TIP3    H123579   2.445   0.848   7.461 -2.3075  1.1991  1.7734
  648TIP3    H223580   2.441   0.844   7.310  2.0032 -2.1423  1.5464
  649TIP3   OH223581   2.081   6.311   7.589  0.2259 -0.3259 -0.2653
  649TIP3    H123582   2.041   6.330   7.504 -0.9687  0.7259  0.4825
  649TIP3    H223583   2.172   6.289   7.569 -0.2525 -0.9515 -1.8770
  650TIP3   OH223584   6.669   2.219   6.899 -0.4465 -0.0195 -0.4030
  650TIP3    H123585   6.639   2.143   6.849 -0.7598 -0.8064  0.9515
  650TIP3    H223586   6.758   2.234   6.867 -0.2004 -1.2662 -0.3601
  651TIP3   OH223587   0.681   0.230   2.288 -0.5281  0.1742  0.3835
  651TIP3    H123588   0.668   0.293   2.359 -0.9353 -0.6096  1.0290
  651TIP3    H223589   0.673   0.281   2.208  1.8036  1.4423  0.8917
  652TIP3   OH223590   6.403   2.118   2.492  0.1503 -0.6154  0.4221
  652TIP3    H123591   6.384   2.194   2.547 -2.5723 -0.5180 -0.4865
  652TIP3    H223592   6.447   2.153   2.415  0.8127 -0.2635  0.9602
  653TIP3   OH223593   0.494   4.413   1.693  0.5084  0.1067  0.1581
  653TIP3    H123594   0.535   4.413   1.780  0.7533  1.5514  0.0556
  653TIP3    H223595   0.447   4.330   1.689  3.5255 -1.7785  0.2461
  654TIP3   OH223596   3.749   0.246   8.536 -0.4532  0.9689  0.1345
  654TIP3    H123597   3.814   0.297   8.488  0.7612 -1.1412 -0.6290
  654TIP3    H223598   3.752   0.159   8.494 -1.1698 -0.2231  2.4065
  655TIP3   OH223599   0.003   1.081   2.466 -0.1987 -1.3187  0.1402
  655TIP3    H123600  -0.044   1.121   2.540 -2.3507  0.0406 -1.8263
  655TIP3    H223601   0.071   1.145   2.445  1.9622 -2.7663  2.2777
  656TIP3   OH223602   3.092   2.881   7.212  0.3495  0.0477  1.0467
  656TIP3    H123603   3.059   2.847   7.129 -0.6992  0.3335  1.3385
  656TIP3    H223604   3.169   2.933   7.188 -1.0686  1.7568  0.0230
  657TIP3   OH223605   0.157   4.481   0.115 -0.1411 -0.2669 -0.3235
  657TIP3    H123606   0.177   4.458   0.205  0.9223 -0.5908 -0.6389
  657TIP3    H223607   0.065   4.508   0.118 -0.1942 -0.5167  0.8031
  658TIP3   OH223608   2.720   2.621   1.169 -0.1039 -0.2484  0.2520
  658TIP3    H123609   2.729   2.628   1.264 -0.0946  2.5437  0.1180
  658TIP3    H223610   2.700   2.528   1.154  0.4358 -0.8805  2.9013
  659TIP3   OH223611   4.784   0.900   8.799 -0.0267 -0.5245 -0.3475
  659TIP3    H123612   4.840   0.947   8.738  0.8414 -1.1135 -0.0146
  659TIP3    H223613   4.738   0.836   8.746 -1.1668  0.6102 -0.7952
  660TIP3   OH223614   0.657   1.171   1.443  0.1780  0.0410  0.2439
  660TIP3    H123615   0.598   1.098   1.427 -0.6076  0.0693  2.5798
  660TIP3    H223616   0.743   1.131   1.452 -0.1069 -0.5000  0.6158
  661TIP3   OH223617   1.981   4.817   0.516 -0.4191  0.0310 -0.3409
  661TIP3    H123618   2.054   4.874   0.492 -0.2585 -0.6645 -1.5838
  661TIP3    H223619   1.958   4.771   0.435 -0.3187 -1.9395  0.6796
  662TIP3   OH223620   0.701   1.831   1.264 -0.6128  0.4241 -0.2824
  662TIP3    H123621   0.773   1.883   1.301 -0.5373 -0.6650  1.2275
  662TIP3    H223622   0.707   1.747   1.310 -1.2916 -0.6003 -1.9846
  663TIP3   OH223623   4.753   1.577   1.078  0.1538  0.1466 -0.1331
  663TIP3    H123624   4.703   1.572   0.996  0.1624  1.7156 -0.2673
  663TIP3    H223625   4.689   1.559   1.147  0.2751 -1.8214 -0.4739
  664TIP3   OH223626   5.503   6.046   0.432 -0.2017 -0.0962 -0.2326
  664TIP3    H123627   5.518   6.057   0.525 -1.6770 -2.2503  0.3513
  664TIP3    H223628   5.575   5.990   0.402  0.5693  1.0302 -0.5361
  665TIP3   OH223629   6.426   6.449   1.044  0.1188  0.3214 -0.3362
  665TIP3    H123630   6.349   6.413   1.088  0.8363  1.6450  2.2003
  665TIP3    H223631   6.392   6.483   0.961 -2.1606  1.2700  0.8916
  666TIP3   OH223632   4.935   6.371   8.141  0.7971 -0.6700 -0.3058
  666TIP3    H123633   4.976   6.395   8.224  1.8368 -0.1145 -0.9581
  666TIP3    H223634   5.008   6.344   8.086 -0.1052 -3.4477 -0.2770
  667TIP3   OH223635   2.804   1.508   8.684 -0.0407 -0.2175 -0.4459
  667TIP3    H123636   2.817   1.513   8.778  0.4453 -1.3174 -0.4305
  667TIP3    H223637   2.710   1.504   8.672 -0.1039 -2.4303  0.1961
  668TIP3   OH223638   4.180   4.684   8.577 -0.1380 -0.3313 -0.3434
  668TIP3    H123639   4.272   4.710   8.577 -0.7622  2.1394 -0.1822
  668TIP3    H223640   4.167   4.644   8.663  0.8368 -1.0104 -0.4940
  669TIP3   OH223641   4.690   6.800   8.089  0.3554  0.5894  0.6772
  669TIP3    H123642   4.617   6.837   8.139 -0.7645 -0.1044 -0.3972
  669TIP3    H223643   4.755   6.871   8.086 -1.0263  1.8939  0.1229
  670TIP3   OH223644   1.008   3.182   2.416 -0.1874 -0.4639 -0.3865
  670TIP3    H123645   1.042   3.141   2.336 -0.1446 -0.7856 -0.2059
  670TIP3    H223646   0.978   3.268   2.388  0.4801 -0.3015 -0.6120
  671TIP3   OH223647   4.081   5.057   8.729  0.0071  0.1582  0.2833
  671TIP3    H123648   4.076   4.975   8.679  1.3544  0.1980  0.0547
  671TIP3    H223649   4.005   5.107   8.699 -2.5618 -2.0990  2.4949
  672TIP3   OH223650   6.507   0.457   1.471 -0.5544  0.2605 -0.4000
  672TIP3    H123651   6.562   0.444   1.394 -0.1233 -0.4551  0.0213
  672TIP3    H223652   6.566   0.487   1.539 -0.6427 -0.6818  0.1052
  673TIP3   OH223653   6.650   4.328   0.043  0.1557 -0.1258  0.3089
  673TIP3    H123654   6.685   4.354   0.129  0.8323  4.8232 -1.1532
  673TIP3    H223655   6.723   4.282   0.002  0.1148 -1.8283  2.0118
  674TIP3   OH223656   4.068   3.279   0.404  0.0953  0.1497  0.0296
  674TIP3    H123657   4.040   3.235   0.323  1.8438 -1.3682  0.1944
  674TIP3    H223658   4.131   3.344   0.375  0.1576  0.1229  0.1071
  675TIP3   OH223659   1.280   1.463   7.568  0.2047 -0.2260  0.3804
  675TIP3    H123660   1.297   1.511   7.487  1.0006 -0.1333  0.5926
  675TIP3    H223661   1.190   1.487   7.591  1.0956  2.5986  1.3931
  676TIP3   OH223662   1.396   6.596   1.667 -0.0889 -0.1216 -0.6490
  676TIP3    H123663   1.469   6.561   1.615 -0.6409 -1.8176 -0.3550
  676TIP3    H223664   1.328   6.616   1.603  0.3586  0.7931 -0.8547
  677TIP3   OH223665   0.419   6.165   1.318  0.0200 -0.1042  0.0621
  677TIP3    H123666   0.333   6.140   1.283 -0.6117  1.1242  0.6332
  677TIP3    H223667   0.410   6.153   1.413  0.1011  1.0479  0.2280
  678TIP3   OH223668   2.726   6.273   2.644 -0.3559  0.2509 -0.1261
  678TIP3    H123669   2.676   6.298   2.722 -1.8377  0.5573 -1.1441
  678TIP3    H223670   2.705   6.341   2.579 -0.0800 -0.6451 -1.1814
  679TIP3   OH223671   4.264   3.675   1.074  0.5569  0.1547 -0.4568
  679TIP3    H123672   4.330   3.743   1.090  0.5622  0.0209  0.1212
  679TIP3    H223673   4.199   3.717   1.018 -1.2754  1.8093  2.6528
  680TIP3   OH223674   5.797   2.779   7.704  0.2070 -0.1916 -0.0735
  680TIP3    H123675   5.829   2.794   7.793 -0.3982  3.0498 -0.2634
  680TIP3    H223676   5.708   2.745   7.716  0.3711 -0.4047  0.5668
  681TIP3   OH223677   2.408   4.300   1.697 -0.5514  0.2891 -0.1907
  681TIP3    H123678   2.384   4.393   1.699 -0.6897  0.2362  1.0112
  681TIP3    H223679   2.441   4.282   1.785 -3.5971 -1.5873  0.7052
  682TIP3   OH223680   0.120   0.261   0.287  0.1624 -0.8054  0.2563
  682TIP3    H123681   0.079   0.230   0.368 -0.6852  0.7700  0.4594
  682TIP3    H223682   0.051   0.310   0.243  0.9427 -0.7232 -0.9026
  683TIP3   OH223683   2.241   0.783   7.837 -0.7141  0.4030  0.6211
  683TIP3    H123684   2.267   0.738   7.917  1.7941  0.3571 -0.1214
  683TIP3    H223685   2.242   0.714   7.770  1.2314  1.1467 -0.1620
  684TIP3   OH223686   5.728   3.483   8.560  0.2221  0.5883 -0.6319
  684TIP3    H123687   5.650   3.522   8.600  0.6200 -0.1520  0.9694
  684TIP3    H223688   5.705   3.390   8.549  0.5077  0.5761 -1.1481
  685TIP3   OH223689   3.192   6.247   8.031 -0.3653 -0.3837 -0.0525
  685TIP3    H123690   3.184   6.221   7.939 -0.4087 -1.4636  0.2417
  685TIP3    H223691   3.142   6.181   8.078 -2.1532  1.3558  0.5971
  686TIP3   OH223692   0.393   5.946   0.660  0.3454 -0.5756  0.0948
  686TIP3    H123693   0.411   5.874   0.720 -2.3160 -1.2023  0.2771
  686TIP3    H223694   0.338   5.908   0.592  1.9491  0.4969 -1.9023
  687TIP3   OH223695   0.039   3.805   0.063 -0.2470  0.0828  0.8855
  687TIP3    H123696   0.002   3.788   0.150  0.5831  1.1998  1.4827
  687TIP3    H223697   0.133   3.815   0.078 -0.1329  0.5945 -0.0942
  688TIP3   OH223698   6.377   5.519   7.348  0.5827 -0.1120 -0.5998
  688TIP3    H123699   6.318   5.587   7.314 -0.3689 -1.0919 -0.9874
  688TIP3    H223700   6.454   5.525   7.292 -0.7419 -1.3422 -2.7257
  689TIP3   OH223701   1.147   3.226   7.740  0.7318  0.0777  0.0974
  689TIP3    H123702   1.119   3.293   7.678  0.5243 -0.7610 -0.7217
  689TIP3    H223703   1.099   3.247   7.821  0.9589  1.1349 -0.0243
  690TIP3   OH223704   3.436   3.243   0.119 -0.1137  0.9476 -0.5319
  690TIP3    H123705   3.484   3.260   0.037  1.0575  1.9966  0.3329
  690TIP3    H223706   3.367   3.182   0.094  0.6510  0.6998 -2.1688
  691TIP3   OH223707   6.108   6.361   0.597 -0.2878  0.1802  0.3798
  691TIP3    H123708   6.099   6.438   0.541  0.2567  0.1535  0.2474
  691TIP3    H223709   6.075   6.389   0.682  0.7796  0.8711  0.5921
  692TIP3   OH223710   5.037   2.376   8.396  0.3746 -0.5340 -1.1376
  692TIP3    H123711   5.082   2.455   8.366 -0.5375 -0.2338 -1.7745
  692TIP3    H223712   4.968   2.408   8.455 -0.1415 -0.8166 -1.5716
  693TIP3   OH223713   1.518   5.786   0.252  0.0207 -0.2959  0.4269
  693TIP3    H123714   1.482   5.780   0.341 -1.9790 -0.3220 -0.3361
  693TIP3    H223715   1.591   5.724   0.252  3.1221  2.8975  3.3422
  694TIP3   OH223716   4.275   1.587   8.184 -0.2908 -0.1530 -0.3660
  694TIP3    H123717   4.248   1.508   8.231 -0.3857  0.9129  1.4752
  694TIP3    H223718   4.365   1.601   8.212 -1.2121  2.0568  1.8660
  695TIP3   OH223719   1.005   3.155   8.144  0.0719  0.3038  0.1378
  695TIP3    H123720   1.077   3.134   8.204 -0.2673 -1.5526 -0.0460
  695TIP3    H223721   0.976   3.070   8.111 -0.5628  1.1958 -1.7304
  696TIP3   OH223722   5.363   3.764   2.092 -0.0479  0.3977 -0.2407
  696TIP3    H123723   5.423   3.780   2.165  2.4327 -1.1932 -1.8098
  696TIP3    H223724   5.346   3.670   2.095 -0.5674  0.4528 -1.2502
  697TIP3   OH223725   4.633   5.212   8.468 -0.2896  0.1061 -0.3538
  697TIP3    H123726   4.688   5.204   8.390 -1.4533  1.1619 -1.3300
  697TIP3    H223727   4.578   5.288   8.451 -0.0652  0.8363  1.8447
  698TIP3   OH223728   1.252   6.509   7.522  0.2759 -0.4338 -0.1644
  698TIP3    H123729   1.224   6.545   7.438 -0.4341  0.9271  0.6108
  698TIP3    H223730   1.180   6.451   7.548 -0.4230  0.6424  0.3749
  699TIP3   OH223731   0.936   4.150   6.969  0.1471  0.1312  0.7322
  699TIP3    H123732   0.897   4.118   6.887 -0.4624 -0.1872  1.1411
  699TIP3    H223733   1.030   4.159   6.949 -0.1638  1.2357 -0.3697
  700TIP3   OH223734   3.435   4.601   7.640  0.3512 -0.0583  0.7141
  700TIP3    H123735   3.345   4.584   7.610  0.5362 -0.2309  0.2586
  700TIP3    H223736   3.452   4.692   7.614  0.4602 -0.1623  0.4193
  701TIP3   OH223737   0.640   4.144   7.707 -0.2908  0.0185  0.0265
  701TIP3    H123738   0.686   4.203   7.767  1.4148  0.8016 -1.9256
  701TIP3    H223739   0.702   4.074   7.690 -0.4524  0.1782 -1.3331
  702TIP3   OH223740   1.409   1.368   8.445 -0.4700 -0.5924 -0.5291
  702TIP3    H123741   1.378   1.446   8.399  0.1114  0.9550  1.5397
  702TIP3    H223742   1.470   1.327   8.384 -1.5977 -0.0392 -2.0814
  703TIP3   OH223743   1.856   0.927   8.482  0.5293 -0.1798  0.1699
  703TIP3    H123744   1.864   1.021   8.466  0.2359 -0.1868 -0.0351
  703TIP3    H223745   1.789   0.921   8.551 -0.4501 -0.2964 -0.7570
  704TIP3   OH223746   4.915   6.074   0.691 -0.5912  0.7037  0.0916
  704TIP3    H123747   4.993   6.019   0.683 -0.5569  1.0113 -2.2630
  704TIP3    H223748   4.844   6.012   0.706 -0.0967  0.3275  1.0010
  705TIP3   OH223749   2.818   1.233   0.432  0.0775 -0.1296  0.2965
  705TIP3    H123750   2.746   1.296   0.425  0.4128  0.2432  0.1509
  705TIP3    H223751   2.831   1.221   0.526 -0.4122 -0.4737  0.3211
  706TIP3   OH223752   3.421   0.697   7.738  0.1917  0.2924  0.7335
  706TIP3    H123753   3.439   0.697   7.832  0.1453 -0.9650  0.7622
  706TIP3    H223754   3.348   0.636   7.728  0.1609  0.4583 -0.1073
  707TIP3   OH223755   3.658   2.175   1.175 -0.0240  0.0067  0.0336
  707TIP3    H123756   3.568   2.153   1.150  0.6711 -0.7847 -1.9862
  707TIP3    H223757   3.650   2.253   1.229 -1.8329  0.8048 -1.3108
  708TIP3   OH223758   5.717   4.632   0.650  0.6466  0.3800  0.0385
  708TIP3    H123759   5.623   4.615   0.639  0.7778  0.1696 -0.7462
  708TIP3    H223760   5.723   4.671   0.738  0.1241 -1.9093  1.1712
  709TIP3   OH223761   6.292   0.671   0.037  0.5300 -0.8110  0.7729
  709TIP3    H123762   6.288   0.590  -0.014  2.3073 -0.4842  0.0386
  709TIP3    H223763   6.381   0.672   0.073  0.9570  1.3615 -0.2003
  710TIP3   OH223764   0.329   0.614   8.135  0.2569 -0.0506 -0.0114
  710TIP3    H123765   0.276   0.549   8.088  0.7784 -0.6898  0.2636
  710TIP3    H223766   0.419   0.591   8.114  0.4495  0.6590  0.0103
  711TIP3   OH223767   1.083   3.858   7.914 -0.8281  0.3256  0.0218
  711TIP3    H123768   1.030   3.795   7.963 -1.0101  0.6700  0.2793
  711TIP3    H223769   1.075   3.939   7.965  1.0573  0.0386  0.8337
  712TIP3   OH223770   5.231   1.049   2.212  0.3504 -0.0615  0.2210
  712TIP3    H123771   5.315   1.025   2.251  0.4497 -1.2517 -0.6954
  712TIP3    H223772   5.190   1.104   2.278  1.5680  0.0006  0.9612
  713TIP3   OH223773   2.746   4.836   1.672  0.4218  0.8089 -0.1874
  713TIP3    H123774   2.655   4.804   1.676  0.0823  1.6640 -0.7153
  713TIP3    H223775   2.737   4.928   1.647  1.3220  1.5111  1.7997
  714TIP3   OH223776   5.072   2.251   3.060 -0.2412  0.1703  0.0563
  714TIP3    H123777   5.037   2.259   2.971 -0.9040 -0.5380  0.2446
  714TIP3    H223778   5.161   2.285   3.054 -0.5284  0.8060 -0.7199
  715TIP3   OH223779   6.473   6.025   0.185  0.2176 -1.3735  0.3388
  715TIP3    H123780   6.418   5.951   0.209 -1.6209 -0.4168 -0.7177
  715TIP3    H223781   6.432   6.101   0.226  0.4683 -0.5822 -0.8071
  716TIP3   OH223782   0.053   2.217   0.726  0.4041 -0.5664 -0.4119
  716TIP3    H123783   0.074   2.215   0.819 -0.7852 -0.8554 -0.1229
  716TIP3    H223784   0.131   2.253   0.684  1.0546 -0.6782  0.6619
  717TIP3   OH223785   5.884   2.120   7.988 -0.3466 -0.7117 -0.1526
  717TIP3    H123786   5.948   2.066   8.035  0.3236  0.6617  0.5782
  717TIP3    H223787   5.932   2.198   7.963 -0.9086 -1.0341 -2.4879
  718TIP3   OH223788   3.489   2.690   1.815 -0.0437  0.5406  0.5740
  718TIP3    H123789   3.468   2.648   1.731 -2.0706  1.2675  0.6631
  718TIP3    H223790   3.549   2.761   1.792 -2.1086  2.0226 -0.6326
  719TIP3   OH223791   2.636   3.782   7.747 -0.5043  0.6810  0.1433
  719TIP3    H123792   2.543   3.783   7.724 -0.3744  1.8430 -0.4216
  719TIP3    H223793   2.647   3.856   7.806 -0.0831  0.0523  0.8640
  720TIP3   OH223794   1.329   3.392   1.011  0.1322  0.5935 -0.1252
  720TIP3    H123795   1.400   3.333   0.985  1.5087  1.4087  1.6290
  720TIP3    H223796   1.348   3.474   0.965 -0.0323  0.6142 -0.1552
  721TIP3   OH223797   2.950   6.290   2.414  0.1478  0.2256 -0.4480
  721TIP3    H123798   2.868   6.327   2.446  0.0518  0.3361 -0.8130
  721TIP3    H223799   3.014   6.359   2.427  0.3501 -0.1461  0.5731
  722TIP3   OH223800   0.956   4.077   8.718 -0.0759 -0.2771  0.4118
  722TIP3    H123801   0.867   4.092   8.687  0.9716  0.9468 -2.2774
  722TIP3    H223802   0.951   4.093   8.813 -2.5437  0.5028  0.2124
  723TIP3   OH223803   2.829   3.329   0.033 -0.5744 -0.2280  0.2207
  723TIP3    H123804   2.866   3.270  -0.032 -0.3157 -0.0927  0.2434
  723TIP3    H223805   2.736   3.309   0.033 -0.4367 -0.8802  0.4826
  724TIP3   OH223806   0.578   0.210   1.454 -0.2390 -0.1472  0.2358
  724TIP3    H123807   0.549   0.158   1.529 -3.4077  0.8764 -0.1303
  724TIP3    H223808   0.557   0.155   1.378  0.1056  0.0858 -0.0351
  725TIP3   OH223809   2.002   6.197   7.853  0.2823 -0.2910  0.6308
  725TIP3    H123810   1.951   6.123   7.819 -1.4060  0.4849  1.3446
  725TIP3    H223811   2.040   6.237   7.776  0.3388 -1.2700  0.1284
  726TIP3   OH223812   5.645   6.096   1.694  0.3633  0.3594 -0.2614
  726TIP3    H123813   5.567   6.055   1.733  0.3422 -0.3917 -1.0661
  726TIP3    H223814   5.699   6.022   1.666  0.8146  0.8824 -0.7837
  727TIP3   OH223815   3.505   4.888   7.656 -0.0439 -0.0737 -0.2722
  727TIP3    H123816   3.427   4.938   7.634  0.4813  0.6549 -0.5070
  727TIP3    H223817   3.572   4.954   7.676  0.2146 -0.6820  1.0163
  728TIP3   OH223818   3.920   6.413   2.496 -0.3930  0.3687 -0.1003
  728TIP3    H123819   3.952   6.502   2.480  0.4347  0.1128  0.0684
  728TIP3    H223820   3.831   6.426   2.529 -0.2349  1.1477  0.0616
  729TIP3   OH223821   3.861   1.434   1.154  0.0637  0.9596  0.0597
  729TIP3    H123822   3.866   1.430   1.059 -1.3458 -0.2875 -0.0124
  729TIP3    H223823   3.794   1.499   1.172  0.3389  1.2046  0.2049
  730TIP3   OH223824   2.929   2.455   0.667 -0.1127  0.4423  0.5718
  730TIP3    H123825   2.952   2.505   0.589 -0.0219  1.2671  1.1169
  730TIP3    H223826   2.884   2.517   0.724  1.2198  0.3227  1.8509
  731TIP3   OH223827   3.411   3.040   0.759 -0.2427  0.1300  0.5428
  731TIP3    H123828   3.325   3.011   0.730  0.2016  0.3364 -1.0452
  731TIP3    H223829   3.465   3.040   0.680  1.4283 -0.7044  1.6097
  732TIP3   OH223830   4.602   6.250   2.051  0.2061  0.3946  0.2687
  732TIP3    H123831   4.536   6.236   2.119 -0.6016  0.0671 -0.5491
  732TIP3    H223832   4.551   6.263   1.971  1.0694  2.4459 -0.0207
  733TIP3   OH223833   1.228   6.770   1.990  0.2258  0.1625  0.1802
  733TIP3    H123834   1.240   6.855   2.035  0.0414  0.0961  0.3574
  733TIP3    H223835   1.144   6.738   2.023  1.5154 -1.3561  2.2031
  734TIP3   OH223836   5.025   4.530   7.277  0.0553  0.7790  0.1835
  734TIP3    H123837   5.050   4.622   7.282  0.3380  0.7356 -0.3991
  734TIP3    H223838   4.960   4.526   7.207 -1.4274  0.8381  1.4715
  735TIP3   OH223839   2.144   2.346   0.229  0.3062 -0.4083  0.0573
  735TIP3    H123840   2.138   2.290   0.151  1.4864  0.4272 -0.6607
  735TIP3    H223841   2.102   2.428   0.203 -0.5301 -0.5990  0.7766
  736TIP3   OH223842   5.831   3.863   8.295 -0.1106  0.2383  0.0568
  736TIP3    H123843   5.891   3.904   8.358 -0.7338  1.2312  0.0157
  736TIP3    H223844   5.849   3.769   8.303 -0.9304  0.2154  2.5376
  737TIP3   OH223845   0.931   3.451   2.361 -0.3343 -0.1063  0.2946
  737TIP3    H123846   0.901   3.538   2.387  0.4627  0.6813 -1.3033
  737TIP3    H223847   0.862   3.417   2.304  0.2954  0.3796 -0.7872
  738TIP3   OH223848   4.993   3.431   0.932 -0.2788 -1.2590 -0.1175
  738TIP3    H123849   5.016   3.433   1.025 -0.9188 -1.2742  0.0454
  738TIP3    H223850   4.920   3.492   0.924 -0.4524 -1.5207 -0.5491
  739TIP3   OH223851   5.524   6.311   7.949  0.2198  0.2719  0.1092
  739TIP3    H123852   5.535   6.312   8.044  0.6019  1.3704  0.0743
  739TIP3    H223853   5.550   6.399   7.921 -0.5613  0.1982 -0.9363
  740TIP3   OH223854   5.894   3.606   7.880  0.0120  0.3865  0.6065
  740TIP3    H123855   5.958   3.627   7.948  1.0245 -0.8433  0.0802
  740TIP3    H223856   5.905   3.512   7.865  0.2630  0.7228 -1.6803
  741TIP3   OH223857   2.918   0.175   0.341  0.4933  0.0724  0.2316
  741TIP3    H123858   2.975   0.128   0.402 -0.8315  1.1192  2.4403
  741TIP3    H223859   2.966   0.254   0.318  0.6873  0.0758  0.6354
  742TIP3   OH223860   3.681   1.391   1.677  0.0150  0.1832 -0.6139
  742TIP3    H123861   3.758   1.409   1.732  1.2419 -0.2425 -2.0989
  742TIP3    H223862   3.687   1.298   1.656 -0.9636  0.1271 -0.6862
  743TIP3   OH223863   2.625   3.354   0.950 -0.1954  0.4159  0.1754
  743TIP3    H123864   2.686   3.282   0.933  1.3445  2.2146 -2.6598
  743TIP3    H223865   2.667   3.406   1.018  1.3292  1.3855 -1.4287
  744TIP3   OH223866   3.717   1.062   2.390 -0.3534  0.0040  0.1198
  744TIP3    H123867   3.762   1.126   2.444  1.5338 -0.3291 -0.9620
  744TIP3    H223868   3.666   1.010   2.452 -1.1898  1.9065  1.1177
  745TIP3   OH223869   4.924   4.149   1.925 -0.8773  0.2175  0.1375
  745TIP3    H123870   5.017   4.131   1.913 -0.8773 -0.0817  0.5739
  745TIP3    H223871   4.900   4.201   1.847 -0.9086 -1.7410 -1.2278
  746TIP3   OH223872   1.869   4.114   0.251 -0.4704  0.0190 -0.0274
  746TIP3    H123873   1.877   4.184   0.316  0.5350  0.3356 -0.4652
  746TIP3    H223874   1.924   4.044   0.284  1.5540  0.8705 -1.3700
  747TIP3   OH223875   3.653   4.361   7.609  0.1085  0.2705  0.2288
  747TIP3    H123876   3.605   4.443   7.624 -0.6422 -0.2910  0.9544
  747TIP3    H223877   3.585   4.294   7.601  0.7096 -0.2658 -0.5313
  748TIP3   OH223878   5.210   2.621   1.503  0.0009 -0.2627  0.2145
  748TIP3    H123879   5.277   2.564   1.466  0.6890 -0.6150  1.9351
  748TIP3    H223880   5.147   2.561   1.544 -1.0803  0.0907 -0.8530
  749TIP3   OH223881   5.363   5.374   0.266 -0.1459  0.0439  0.4452
  749TIP3    H123882   5.320   5.304   0.218  1.3617 -0.4044 -0.3340
  749TIP3    H223883   5.456   5.360   0.249  0.2838  1.2068  1.7145
  750TIP3   OH223884   1.033   5.576   8.505 -0.4509  0.0791 -0.4864
  750TIP3    H123885   1.102   5.613   8.559  0.3976  0.9179 -2.0820
  750TIP3    H223886   0.969   5.542   8.567  1.2850 -0.5373  1.0405
  751TIP3   OH223887   4.464   1.367   7.361  0.6841  0.6203  0.2214
  751TIP3    H123888   4.466   1.283   7.316  0.3694 -0.0851  1.4854
  751TIP3    H223889   4.423   1.427   7.298  0.2924 -0.3292 -0.4402
  752TIP3   OH223890   1.467   2.372   2.495 -0.2437 -0.1066  0.0281
  752TIP3    H123891   1.520   2.426   2.553 -1.3677  0.9994  0.0645
  752TIP3    H223892   1.481   2.282   2.525  1.3814  0.1813  0.1917
  753TIP3   OH223893   1.975   3.473   1.482  0.1983  0.7201  0.4867
  753TIP3    H123894   1.964   3.405   1.549 -0.4508  0.9469  0.6198
  753TIP3    H223895   2.048   3.442   1.428 -2.2743 -1.9445 -1.6989
  754TIP3   OH223896   5.226   0.928   1.006 -0.3893 -0.2732 -0.6546
  754TIP3    H123897   5.317   0.945   0.980 -0.2828 -1.2856 -0.9910
  754TIP3    H223898   5.191   1.014   1.027  1.1848 -0.0169  1.2999
  755TIP3   OH223899   1.120   1.295   0.364 -0.3783  0.2110 -0.2359
  755TIP3    H123900   1.026   1.300   0.349 -0.5190  1.3253  0.8768
  755TIP3    H223901   1.158   1.359   0.304 -0.4547  0.7533  0.2931
  756TIP3   OH223902   4.144   4.187   0.766  0.1916  0.2113 -0.2729
  756TIP3    H123903   4.159   4.209   0.674  0.5519  1.7616  0.1219
  756TIP3    H223904   4.209   4.238   0.814 -2.2413  2.2767  1.0585
  757TIP3   OH223905   0.967   3.285   8.807  0.1219  0.3159  0.1805
  757TIP3    H123906   0.936   3.280   8.717  1.9488  1.5862 -0.5723
  757TIP3    H223907   0.956   3.376   8.832  2.0287  0.5698  0.2840
  758TIP3   OH223908   2.116   5.128   7.901  0.4676  0.1110  0.6745
  758TIP3    H123909   2.204   5.091   7.892  1.0249  1.4618  0.3685
  758TIP3    H223910   2.129   5.222   7.894 -0.8763  0.3987  1.7203
  759TIP3   OH223911   2.894   4.311   8.298  0.0700  0.4346 -0.2125
  759TIP3    H123912   2.818   4.344   8.346 -0.2737 -0.8912  0.2135
  759TIP3    H223913   2.956   4.285   8.366  0.3579  0.2841 -0.5302
  760TIP3   OH223914   0.172   2.500   0.292  0.4194 -0.1430 -0.1472
  760TIP3    H123915   0.084   2.513   0.330  0.7893 -2.3345  1.6696
  760TIP3    H223916   0.156   2.494   0.198 -1.5359 -1.3206  0.1941
  761TIP3   OH223917   1.653   6.642   7.841 -0.1669 -0.3333  0.6579
  761TIP3    H123918   1.689   6.559   7.873 -1.3731 -0.5212  1.6062
  761TIP3    H223919   1.564   6.619   7.813 -0.2245  0.4899  0.1385
  762TIP3   OH223920   4.898   1.607   2.686 -0.2305 -0.0041  0.0432
  762TIP3    H123921   4.898   1.697   2.653 -0.4624 -0.4633 -1.2792
  762TIP3    H223922   4.962   1.607   2.757 -0.0192  1.1367 -0.1262
  763TIP3   OH223923   3.929   4.965   2.024 -0.7322 -0.1459 -0.0579
  763TIP3    H123924   3.931   4.871   2.040 -0.9790 -0.1661 -0.1469
  763TIP3    H223925   3.932   5.004   2.111  2.9035 -0.1597 -0.0305
  764TIP3   OH223926   2.985   6.177   0.797 -0.2501 -0.1159 -0.3930
  764TIP3    H123927   2.996   6.272   0.803  0.0253 -0.2282  2.2564
  764TIP3    H223928   3.008   6.145   0.885 -0.8985 -2.5807 -1.0448
  765TIP3   OH223929   3.021   1.705   0.271 -0.0971  0.6349  0.3474
  765TIP3    H123930   2.947   1.736   0.324  0.1916 -0.9537  1.8081
  765TIP3    H223931   3.029   1.612   0.294  0.9816  0.2308 -1.4548
  766TIP3   OH223932   3.648   0.006   0.847 -0.0997 -0.0031  0.8900
  766TIP3    H123933   3.737   0.036   0.866  0.9456 -2.6085  0.4402
  766TIP3    H223934   3.616  -0.027   0.930 -0.7591  1.0621  1.0843
  767TIP3   OH223935   2.230   1.966   7.723  0.6346  0.0733  0.0994
  767TIP3    H123936   2.238   1.941   7.815  1.7451  1.7317  0.4872
  767TIP3    H223937   2.159   2.030   7.720  1.3086  0.8358  0.0022
  768TIP3   OH223938   1.174   4.843   1.800 -0.0684  0.0488 -0.3551
  768TIP3    H123939   1.139   4.824   1.887 -0.3084  0.9402 -0.2446
  768TIP3    H223940   1.106   4.897   1.758  0.6603  0.8207 -0.5644
  769TIP3   OH223941   0.376   3.318   8.422  0.0442 -0.5126  0.2955
  769TIP3    H123942   0.294   3.363   8.400 -0.2253 -1.0016  0.3056
  769TIP3    H223943   0.404   3.277   8.340  0.8566  0.5501  0.0067
  770TIP3   OH223944   5.265   4.104   8.778 -0.9726  0.2899 -0.1021
  770TIP3    H123945   5.246   4.129   8.687  0.4161  1.0454 -0.2097
  770TIP3    H223946   5.310   4.180   8.815  1.2359 -1.1160  0.2957
  771TIP3   OH223947   3.347   4.214   1.378 -0.5610  0.0630  0.0424
  771TIP3    H123948   3.298   4.142   1.338  0.4953  0.4511 -2.0611
  771TIP3    H223949   3.438   4.182   1.380 -0.4637  0.3566  1.5101
  772TIP3   OH223950   1.085   0.006   8.176 -0.3416  0.1015  0.2952
  772TIP3    H123951   1.178   0.005   8.200 -0.3557 -1.0576  0.3411
  772TIP3    H223952   1.082   0.058   8.096  0.3515  0.1713  0.3102
  773TIP3   OH223953   6.535   4.434   1.163 -0.2355 -0.5370 -0.0087
  773TIP3    H123954   6.578   4.511   1.199 -0.4672 -0.7643  0.7639
  773TIP3    H223955   6.590   4.408   1.088 -0.5206  0.7598 -0.6937
  774TIP3   OH223956   1.325   3.428   8.287 -0.3146 -0.1174  1.0953
  774TIP3    H123957   1.254   3.424   8.351  0.1830  0.6717  1.7206
  774TIP3    H223958   1.394   3.373   8.324  0.2073  0.8224  1.5590
  775TIP3   OH223959   0.911   1.616   8.068 -0.4021 -0.2823 -0.3258
  775TIP3    H123960   0.882   1.535   8.111  0.8557 -2.1059 -2.6692
  775TIP3    H223961   0.999   1.631   8.102 -1.7206  2.0950  2.5470
  776TIP3   OH223962   4.299   3.181   2.362  0.8541 -0.3319  0.5612
  776TIP3    H123963   4.213   3.217   2.381  0.7131 -0.0700 -0.5224
  776TIP3    H223964   4.359   3.232   2.416  0.4966  0.5363  0.1510
  777TIP3   OH223965   4.856   6.245   7.399  0.2971 -0.5024 -0.6952
  777TIP3    H123966   4.928   6.211   7.452  0.4514 -1.1438 -1.2948
  777TIP3    H223967   4.778   6.228   7.451  0.4112 -1.4376 -0.8087
  778TIP3   OH223968   1.125   0.551   0.171  0.2388 -0.2548  0.1701
  778TIP3    H123969   1.081   0.520   0.250  1.3611 -1.3110  0.4140
  778TIP3    H223970   1.130   0.474   0.114  0.5189  0.1974 -0.4365
  779TIP3   OH223971   1.930   2.217   0.428  0.2739 -0.6035 -0.1873
  779TIP3    H123972   1.969   2.212   0.341 -0.7016 -0.8139 -0.6237
  779TIP3    H223973   1.940   2.309   0.453 -3.0319  0.5153 -2.2787
  780TIP3   OH223974   6.842   1.947   0.611 -0.0276  0.2697  0.2736
  780TIP3    H123975   6.824   2.008   0.682  0.7044  2.6777 -1.5163
  780TIP3    H223976   6.867   2.001   0.537  1.3539 -2.2435 -1.2540
  781TIP3   OH223977   5.041   2.570   2.516  0.0239  0.0307 -0.0392
  781TIP3    H123978   5.120   2.575   2.463  0.5785 -4.1315  0.0531
  781TIP3    H223979   5.072   2.544   2.603 -1.3243  0.0175  0.4630
  782TIP3   OH223980   3.649   5.338   0.068  0.1690  0.5568  0.0598
  782TIP3    H123981   3.723   5.278   0.081 -0.8225 -1.1980 -1.7138
  782TIP3    H223982   3.592   5.322   0.143 -1.0443 -2.3991 -1.3070
  783TIP3   OH223983   1.137   5.468   0.080  0.3161 -0.1568 -0.5184
  783TIP3    H123984   1.114   5.473   0.172 -0.6270  0.0834 -0.7540
  783TIP3    H223985   1.221   5.514   0.074  0.6317 -0.6133  0.2884
  784TIP3   OH223986   6.087   2.221   8.676  0.3483 -0.3524  0.0158
  784TIP3    H123987   6.165   2.167   8.693  1.2597  1.2907  1.3549
  784TIP3    H223988   6.114   2.281   8.607 -0.1468 -0.5625 -0.3661
  785TIP3   OH223989   2.197   0.147   7.004 -0.7281  0.0851  0.2220
  785TIP3    H123990   2.122   0.138   6.945 -0.1004 -0.2321 -0.5537
  785TIP3    H223991   2.261   0.198   6.954  0.1886 -0.9917  0.2320
  786TIP3   OH223992   0.703   6.482   1.080 -0.1204 -0.2753  0.2897
  786TIP3    H123993   0.786   6.452   1.043  0.5716  2.0438 -0.2216
  786TIP3    H223994   0.636   6.446   1.023  0.7083 -0.0528 -0.8497
  787TIP3   OH223995   4.861   0.151   2.742 -0.0879 -0.4350 -0.2387
  787TIP3    H123996   4.812   0.224   2.704  1.8712  1.2624  0.2985
  787TIP3    H223997   4.934   0.139   2.681  0.2233 -1.2097  0.2834
  788TIP3   OH223998   1.864   0.585   1.778 -0.0479  0.1598 -0.4334
  788TIP3    H123999   1.892   0.494   1.775  1.3785  0.5817 -0.7770
  788TIP3    H224000   1.777   0.582   1.818 -0.9936 -1.5478 -2.4269
  789TIP3   OH224001   5.991   2.846   2.301  0.0713  0.0285  0.2627
  789TIP3    H124002   6.049   2.776   2.330 -1.0403 -0.5390  1.2138
  789TIP3    H224003   5.994   2.911   2.371  0.4802  0.5622 -0.2435
  790TIP3   OH224004   5.878   5.715   2.485  0.1580  0.3638  0.5066
  790TIP3    H124005   5.966   5.754   2.475  0.4752 -0.6611 -0.9443
  790TIP3    H224006   5.895   5.622   2.497 -0.7594 -0.0064 -0.9175
  791TIP3   OH224007   1.956   2.811   8.676  0.1024  0.5464 -0.3099
  791TIP3    H124008   1.987   2.804   8.586 -0.9821  1.2483 -0.7552
  791TIP3    H224009   2.034   2.796   8.729  0.9307  0.9268 -1.3801
  792TIP3   OH224010   3.753   5.504   7.813  0.1998 -0.7103  0.1451
  792TIP3    H124011   3.814   5.555   7.761 -0.1050 -1.0554 -0.5657
  792TIP3    H224012   3.690   5.470   7.750 -0.2347 -1.0574  0.7524
  793TIP3   OH224013   3.300   1.467   0.090  0.5032 -0.5591 -0.1104
  793TIP3    H124014   3.233   1.401   0.078  1.2199 -1.5998  1.3153
  793TIP3    H224015   3.355   1.462   0.012  2.2972 -3.7940  1.1819
  794TIP3   OH224016   4.898   1.546   7.608  0.1761  0.2313 -0.3432
  794TIP3    H124017   4.960   1.479   7.578  0.4057 -0.8338  2.2376
  794TIP3    H224018   4.833   1.497   7.660 -0.0344  1.9060  1.0620
  795TIP3   OH224019   1.605   4.093   1.572 -0.2600  0.0291 -1.2236
  795TIP3    H124020   1.549   4.059   1.502 -3.4115 -0.4885  1.3024
  795TIP3    H224021   1.550   4.089   1.651  2.8840  0.9955  1.2432
  796TIP3   OH224022   1.465   6.141   2.035 -0.8142  0.0216  0.0554
  796TIP3    H124023   1.473   6.119   1.942 -3.0143 -0.5879 -0.0451
  796TIP3    H224024   1.472   6.057   2.080 -0.4137  0.2383  0.4101
  797TIP3   OH224025   1.048   6.326   7.567  0.4430 -0.5921 -0.0726
  797TIP3    H124026   0.956   6.304   7.578 -0.0821  1.2494 -0.3453
  797TIP3    H224027   1.087   6.313   7.653 -1.1383  2.9325  1.3914
  798TIP3   OH224028   1.502   5.591   1.666 -0.3666 -0.4101  0.7028
  798TIP3    H124029   1.428   5.567   1.609  0.2080  1.3236 -0.8617
  798TIP3    H224030   1.557   5.512   1.667 -0.1495 -0.3557 -1.5981
  799TIP3   OH224031   0.298   6.818   2.424 -0.4241  0.0730 -1.0099
  799TIP3    H124032   0.317   6.725   2.409  0.2919  0.1619 -0.6789
  799TIP3    H224033   0.229   6.818   2.489  0.1400 -0.2201 -0.4049
  800TIP3   OH224034   3.923   4.873   0.690  0.2369  0.0083 -0.7156
  800TIP3    H124035   3.875   4.955   0.676 -3.7181 -1.7162  1.3244
  800TIP3    H224036   3.960   4.881   0.778 -0.3050 -0.4458 -0.4437
  801TIP3   OH224037   5.324   3.675   7.989  0.3727  0.7543 -0.1887
  801TIP3    H124038   5.386   3.606   8.013  0.6187  1.0101 -0.0898
  801TIP3    H224039   5.309   3.661   7.895  0.2582  0.4366 -0.1265
  802TIP3   OH224040   4.108   6.702   7.835 -0.6308 -0.5765  0.9232
  802TIP3    H124041   4.096   6.796   7.827 -1.9458 -0.7727  0.3690
  802TIP3    H224042   4.161   6.691   7.914  2.3267  0.7837 -0.6854
  803TIP3   OH224043   2.372   5.868   2.369  0.4927  0.3326 -0.0138
  803TIP3    H124044   2.322   5.891   2.290  1.4354  1.7158 -0.2311
  803TIP3    H224045   2.463   5.888   2.347  1.0812 -1.3944  0.6592
  804TIP3   OH224046   1.039   1.179   1.841  0.3616  0.2496 -0.3953
  804TIP3    H124047   1.110   1.118   1.821  0.7314  1.0816 -1.7344
  804TIP3    H224048   1.070   1.228   1.918  1.3492  0.7657 -1.1099
  805TIP3   OH224049   4.647   4.650   2.715 -0.0033 -0.5960 -0.3070
  805TIP3    H124050   4.684   4.621   2.798 -2.7193  3.6528  2.7967
  805TIP3    H224051   4.566   4.600   2.706 -0.3690 -0.1133  0.3152
  806TIP3   OH224052   6.854   5.282   1.313  0.2219 -0.2490 -0.1306
  806TIP3    H124053   6.882   5.361   1.267 -0.3875 -0.1332 -0.3099
  806TIP3    H224054   6.776   5.309   1.362  0.3145 -0.6090  0.2202
  807TIP3   OH224055   4.733   2.868   1.223  0.0636 -0.9280  0.4199
  807TIP3    H124056   4.704   2.873   1.313 -1.0784  0.9913 -0.0055
  807TIP3    H224057   4.816   2.916   1.221 -1.1913  1.3690  0.0304
  808TIP3   OH224058   2.719   4.962   1.937  0.1687 -0.5210 -0.2541
  808TIP3    H124059   2.743   4.897   1.871  0.3948  0.1315 -0.8290
  808TIP3    H224060   2.772   4.940   2.013  2.7551  0.9315 -1.5055
  809TIP3   OH224061   6.425   2.154   2.958  0.4495  0.0812 -0.5480
  809TIP3    H124062   6.459   2.094   3.024  0.7386 -0.9731 -1.6134
  809TIP3    H224063   6.339   2.118   2.935  1.5255 -1.3073 -2.7903
  810TIP3   OH224064   1.790   2.073   7.296 -0.5904  0.1098 -0.1428
  810TIP3    H124065   1.771   1.979   7.305 -1.2831  0.3469  1.0470
  810TIP3    H224066   1.851   2.078   7.222 -0.2033 -1.3205  0.0491
  811TIP3   OH224067   4.195   0.902   2.226  0.2719  0.4956 -0.4562
  811TIP3    H124068   4.147   0.825   2.255 -0.2597  0.2136 -1.9646
  811TIP3    H224069   4.142   0.977   2.255 -0.5651  0.2112 -1.2105
  812TIP3   OH224070   3.083   4.845   8.374 -0.5288 -0.4972 -0.6421
  812TIP3    H124071   3.134   4.855   8.454 -1.3225 -0.9100 -0.0751
  812TIP3    H224072   3.038   4.929   8.362 -1.4259 -0.8604  0.0715
  813TIP3   OH224073   2.964   0.448   2.563  0.4153 -0.1626 -0.3379
  813TIP3    H124074   2.872   0.428   2.576 -0.1622  1.1000 -2.0899
  813TIP3    H224075   2.998   0.467   2.650 -1.5620  1.6016  0.1267
  814TIP3   OH224076   4.646   4.783   1.340 -0.5450  0.1665 -0.0796
  814TIP3    H124077   4.625   4.743   1.255 -1.7828 -0.8634  0.6668
  814TIP3    H224078   4.683   4.711   1.391 -1.9916  0.1433  1.0016
  815TIP3   OH224079   2.670   6.054   1.660 -0.2520  0.2294  0.0388
  815TIP3    H124080   2.645   6.142   1.632 -1.9063  0.6763  2.5770
  815TIP3    H224081   2.678   6.060   1.755  0.6400 -2.1426  0.1805
  816TIP3   OH224082   1.303   4.623   1.710  0.9832 -0.2653  0.1917
  816TIP3    H124083   1.364   4.655   1.643 -1.3655 -0.7998 -2.3792
  816TIP3    H224084   1.254   4.701   1.736 -0.6132 -0.6282 -1.5558
  817TIP3   OH224085   1.548   3.582   1.969  0.3271  0.2343  0.1146
  817TIP3    H124086   1.504   3.663   1.941 -2.1188 -0.5027  1.4526
  817TIP3    H224087   1.558   3.592   2.064 -0.8748 -1.3288  0.4589
  818TIP3   OH224088   3.969   1.174   1.796 -0.0214  0.3490  0.2944
  818TIP3    H124089   3.942   1.265   1.783  4.2334  1.7653 -0.1657
  818TIP3    H224090   3.981   1.165   1.890 -1.3394 -0.0711  0.4329
  819TIP3   OH224091   0.282   5.323   0.710 -0.3037 -0.7446  0.5548
  819TIP3    H124092   0.359   5.379   0.715 -2.7741  3.0380  0.9350
  819TIP3    H224093   0.267   5.293   0.800  0.3774 -1.0457  0.5712
  820TIP3   OH224094   3.792   1.331   0.592  0.3642 -0.3273  0.5244
  820TIP3    H124095   3.804   1.424   0.571 -0.5062  0.2195  2.2710
  820TIP3    H224096   3.881   1.296   0.601  0.7102  0.1301 -0.8612
  821TIP3   OH224097   2.985   4.099   2.535 -0.4415  0.2480 -0.1897
  821TIP3    H124098   3.035   4.167   2.580 -0.2705  0.5990 -0.8843
  821TIP3    H224099   3.037   4.081   2.456 -1.1288  0.2286 -0.6461
  822TIP3   OH224100   1.909   0.569   1.428 -0.2644 -0.7855  0.9365
  822TIP3    H124101   1.986   0.623   1.407 -0.7095 -0.5134 -0.0884
  822TIP3    H224102   1.939   0.510   1.497  0.0357  1.2919  2.7084
  823TIP3   OH224103   3.203   0.457   0.020  0.3787 -0.1961 -0.1341
  823TIP3    H124104   3.144   0.470   0.095 -1.7788  1.4044 -1.9558
  823TIP3    H224105   3.199   0.363   0.003 -0.3683 -0.3497  0.7790
  824TIP3   OH224106   3.902   2.023   7.875 -0.0854  0.0463  0.9287
  824TIP3    H124107   3.991   2.027   7.839 -0.2196 -0.9988  0.4386
  824TIP3    H224108   3.849   1.990   7.802 -0.2961 -2.5708  2.1788
  825TIP3   OH224109   2.486   6.487   1.380  0.1780  0.7671  0.1950
  825TIP3    H124110   2.472   6.564   1.435 -0.9932  0.0715  0.9168
  825TIP3    H224111   2.574   6.457   1.401  0.3940  1.5191  0.3853
  826TIP3   OH224112   0.136   3.606   1.989  0.3239 -0.4159  0.4523
  826TIP3    H124113   0.115   3.627   1.898  1.1052  2.3063  0.8120
  826TIP3    H224114   0.051   3.593   2.031 -0.2138  1.1423 -0.0853
  827TIP3   OH224115   0.101   5.987   8.137  0.5233  0.1611  0.0070
  827TIP3    H124116   0.154   6.035   8.073  0.7182  0.0802  0.1059
  827TIP3    H224117   0.093   6.046   8.212  1.1429 -0.1287  0.3095
  828TIP3   OH224118   5.420   2.815   0.461  0.2333 -0.0945 -0.0651
  828TIP3    H124119   5.337   2.772   0.485 -1.6438  1.2204 -3.4747
  828TIP3    H224120   5.440   2.779   0.374  0.7205  2.9089 -1.2983
  829TIP3   OH224121   0.085   2.220   2.331 -0.2559 -0.4267 -0.2176
  829TIP3    H124122   0.131   2.298   2.361 -0.9839 -0.0094 -0.1634
  829TIP3    H224123   0.085   2.161   2.406  0.7222 -0.6919 -0.4065
  830TIP3   OH224124   0.336   2.237   6.768  0.6184 -0.0932  0.1983
  830TIP3    H124125   0.426   2.214   6.746  0.6021  0.8681 -0.9689
  830TIP3    H224126   0.332   2.332   6.756 -0.4177 -0.0529  0.7478
  831TIP3   OH224127   1.202   1.757   2.474  0.1227 -0.6347 -0.0526
  831TIP3    H124128   1.193   1.696   2.548 -0.3795 -1.7406 -0.9949
  831TIP3    H224129   1.295   1.779   2.473  0.5679 -2.3861 -0.4302
  832TIP3   OH224130   1.130   5.595   8.061 -0.1367  0.6800  0.7296
  832TIP3    H124131   1.216   5.627   8.086  0.4207 -0.3274  0.1526
  832TIP3    H224132   1.101   5.544   8.137  0.0333  0.5487  0.7089
  833TIP3   OH224133   0.114   3.381   1.593 -0.1433 -0.1271  0.0774
  833TIP3    H124134   0.100   3.369   1.499 -1.1357  1.3891 -0.0231
  833TIP3    H224135   0.203   3.414   1.600 -0.3552  0.5859 -0.4392
  834TIP3   OH224136   2.369   6.369   0.921  0.3755  0.9045 -0.3946
  834TIP3    H124137   2.419   6.421   0.984 -0.7823 -1.4200  2.7087
  834TIP3    H224138   2.298   6.427   0.893  1.4496  2.3130 -0.3298
  835TIP3   OH224139   6.064   5.605   8.829 -0.4632  0.2339 -0.1514
  835TIP3    H124140   6.118   5.555   8.891 -1.2700  0.2120  0.5588
  835TIP3    H224141   5.974   5.582   8.852 -0.7777 -0.0960 -1.6285
  836TIP3   OH224142   5.761   5.841   7.258 -0.3311  0.0154 -0.5220
  836TIP3    H124143   5.838   5.884   7.222 -0.5797 -0.8823 -2.2618
  836TIP3    H224144   5.787   5.812   7.345  0.3518  2.1696  0.0379
  837TIP3   OH224145   6.772   3.034   0.037 -0.3023  0.3805 -0.3807
  837TIP3    H124146   6.747   3.100  -0.028  0.2365 -0.1164 -1.1034
  837TIP3    H224147   6.812   2.963  -0.014 -0.1600 -0.1626  0.4604
  838TIP3   OH224148   6.838   0.080   1.296  0.0287 -0.3049 -0.0894
  838TIP3    H124149   6.913   0.054   1.348 -1.6181 -2.8552  1.2228
  838TIP3    H224150   6.763   0.069   1.354 -1.5670  0.1248 -1.9494
  839TIP3   OH224151   3.453   5.671   2.840  0.4490  0.3381  0.3958
  839TIP3    H124152   3.507   5.730   2.788  1.2301 -0.6023  0.1151
  839TIP3    H224153   3.372   5.720   2.854  0.1343  0.5706 -1.8351
  840TIP3   OH224154   2.193   3.158   7.981  0.2363  0.1120  0.9023
  840TIP3    H124155   2.278   3.160   8.025  0.0312 -0.8248  1.3674
  840TIP3    H224156   2.160   3.247   7.988  0.8902  0.3278  1.3078
  841TIP3   OH224157   0.368   5.751   0.852  0.4998 -0.6289  0.1870
  841TIP3    H124158   0.419   5.701   0.789  0.2676  0.0439 -0.5505
  841TIP3    H224159   0.325   5.685   0.907 -1.5203 -1.3432 -2.0974
  842TIP3   OH224160   3.685   5.671   0.534  0.0467 -0.5338  0.4415
  842TIP3    H124161   3.771   5.645   0.500  0.2631 -0.2878  0.7821
  842TIP3    H224162   3.631   5.593   0.525 -0.5765  0.1392 -2.5159
  843TIP3   OH224163   1.929   1.807   7.206 -0.2459 -0.3046  0.7305
  843TIP3    H124164   1.834   1.800   7.205 -0.2935  0.1181  1.7976
  843TIP3    H224165   1.952   1.816   7.298  0.6866  1.5441  0.3648
  844TIP3   OH224166   6.018   5.995   8.303 -0.1205 -0.2827 -0.2598
  844TIP3    H124167   6.085   6.029   8.245  0.8510  0.8032  1.3998
  844TIP3    H224168   6.018   6.055   8.378 -2.6780 -0.4656 -0.0061
  845TIP3   OH224169   4.197   1.829   7.126  0.3263 -0.7411 -0.3078
  845TIP3    H124170   4.159   1.742   7.120 -1.8633  0.0135  1.2978
  845TIP3    H224171   4.175   1.871   7.043 -0.1426 -1.1479 -0.3918
  846TIP3   OH224172   0.141   2.537   0.753 -0.3229  0.4061 -0.5615
  846TIP3    H124173   0.166   2.493   0.673 -0.6752 -0.7291 -0.0670
  846TIP3    H224174   0.223   2.572   0.788  0.1654 -0.8820 -0.3694
  847TIP3   OH224175   1.137   2.062   1.436  0.1794 -0.3617  0.4731
  847TIP3    H124176   1.164   2.154   1.441  0.2223 -0.3816  0.5946
  847TIP3    H224177   1.079   2.059   1.360 -1.8417  0.2760  1.9262
  848TIP3   OH224178   6.034   0.060   3.030  0.0160 -0.3316  0.6308
  848TIP3    H124179   5.982   0.122   2.980  1.9596 -0.5215 -1.7830
  848TIP3    H224180   5.970   0.016   3.086 -1.8612  1.7118  0.2518
  849TIP3   OH224181   6.643   4.329   0.581  0.3144 -0.6217 -0.3351
  849TIP3    H124182   6.571   4.275   0.549 -0.5254  0.0045  0.4335
  849TIP3    H224183   6.685   4.276   0.649 -0.0659 -0.5944 -0.0749
  850TIP3   OH224184   5.185   6.418   2.140  0.4941  0.5156 -0.8753
  850TIP3    H124185   5.105   6.468   2.127 -0.5740 -0.5108  1.2711
  850TIP3    H224186   5.159   6.327   2.129  0.6166 -0.0547  2.4063
  851TIP3   OH224187   1.631   2.297   7.273 -0.0918  0.4407 -0.2408
  851TIP3    H124188   1.594   2.312   7.360 -1.3161  0.4618 -0.7409
  851TIP3    H224189   1.643   2.202   7.267 -0.1410  0.4262 -0.1045
  852TIP3   OH224190   0.270   6.822   1.119 -0.1749  0.2742 -0.3064
  852TIP3    H124191   0.364   6.810   1.118  0.0957  2.0599 -0.1782
  852TIP3    H224192   0.247   6.831   1.212 -0.5105 -0.3559 -0.3225
  853TIP3   OH224193   1.732   5.865   0.069 -0.0216  0.2860  0.3402
  853TIP3    H124194   1.718   5.939   0.128 -0.1233 -0.3843  1.1873
  853TIP3    H224195   1.727   5.788   0.127  0.9131 -0.3309 -0.3773
  854TIP3   OH224196   3.851   5.173   8.614  0.1091  0.9526  0.1241
  854TIP3    H124197   3.835   5.098   8.557  0.9953 -1.0575  2.3645
  854TIP3    H224198   3.764   5.210   8.630 -0.7340 -1.2847  1.1065
  855TIP3   OH224199   3.235   5.109   1.374 -0.5839 -0.2600  0.7838
  855TIP3    H124200   3.241   5.061   1.457  3.1939 -0.0080  0.8229
  855TIP3    H224201   3.211   5.198   1.400  0.4120 -0.2149  1.6685
  856TIP3   OH224202   5.132   0.948   1.350 -0.3532 -0.4105  0.4374
  856TIP3    H124203   5.098   0.991   1.428 -0.3802 -0.1662  0.2928
  856TIP3    H224204   5.141   1.018   1.286  0.8474 -0.3835  0.6029
  857TIP3   OH224205   4.404   3.301   7.545 -0.3753  0.1941  0.2578
  857TIP3    H124206   4.385   3.213   7.578  0.7957 -0.0417  0.3321
  857TIP3    H224207   4.499   3.303   7.536 -0.5675  0.6115 -2.1444
  858TIP3   OH224208   5.941   1.699   7.539 -0.0977  0.4507 -0.6297
  858TIP3    H124209   5.904   1.629   7.592 -0.3817  0.7417 -0.4383
  858TIP3    H224210   6.000   1.655   7.479  0.0574  0.0937 -0.2190
  859TIP3   OH224211   2.126   2.631   1.822 -0.4449  0.3457  0.7384
  859TIP3    H124212   2.146   2.576   1.747  1.5614  1.4850  0.3726
  859TIP3    H224213   2.166   2.585   1.896  0.3715  0.7939  0.5861
  860TIP3   OH224214   5.522   1.391   7.398 -0.1173  0.0949  0.1774
  860TIP3    H124215   5.608   1.401   7.357 -0.0982  1.0750  0.4233
  860TIP3    H224216   5.532   1.433   7.483 -0.9479  0.5602  0.0520
  861TIP3   OH224217   6.500   5.807   7.868  0.0072  0.1590  0.1459
  861TIP3    H124218   6.513   5.848   7.782  0.8761 -2.1186 -0.8884
  861TIP3    H224219   6.529   5.873   7.931  0.3510  1.4977 -1.3446
  862TIP3   OH224220   1.412   4.935   1.667 -0.4463 -0.0557  0.6771
  862TIP3    H124221   1.427   4.877   1.592 -0.9212  0.8190 -0.1128
  862TIP3    H224222   1.339   4.895   1.713 -0.2273 -0.5370  0.6194
  863TIP3   OH224223   5.410   3.271   2.215 -0.2375  0.1272  0.0840
  863TIP3    H124224   5.409   3.209   2.142 -1.3652  0.6990 -0.4050
  863TIP3    H224225   5.488   3.246   2.265 -0.2252 -1.1801 -0.5221
  864TIP3   OH224226   1.011   2.017   1.795 -0.6398 -0.3557  0.6074
  864TIP3    H124227   0.978   2.091   1.745 -1.1546  0.7910  2.5354
  864TIP3    H224228   0.991   1.940   1.741 -1.3204  0.7881 -0.8251
  865TIP3   OH224229   5.947   2.860   2.800 -0.3453 -0.2851 -0.6992
  865TIP3    H124230   5.964   2.842   2.893 -1.1124  0.7864 -0.3298
  865TIP3    H224231   5.968   2.778   2.755  0.8309 -0.5737  0.3214
  866TIP3   OH224232   0.528   3.620   1.459  0.1715  0.8052 -0.1649
  866TIP3    H124233   0.591   3.641   1.528  0.4885  1.6950 -0.6969
  866TIP3    H224234   0.461   3.688   1.466 -0.4623  0.1707  0.0589
  867TIP3   OH224235   1.006   1.278   7.903  0.3582  0.2689  0.0599
  867TIP3    H124236   1.057   1.296   7.982  0.7312  1.1144 -0.3503
  867TIP3    H224237   0.942   1.213   7.930  1.1349 -0.2154  0.7975
  868TIP3   OH224238   3.173   0.935   2.116  0.5688  0.3881 -0.3413
  868TIP3    H124239   3.256   0.936   2.069  1.2734 -1.2358  0.7937
  868TIP3    H224240   3.153   1.028   2.131  0.7810  0.9250 -2.9399
  869TIP3   OH224241   6.589   3.645   2.503 -0.2846  0.4629 -0.1438
  869TIP3    H124242   6.610   3.553   2.491 -1.7545  0.2689 -1.5775
  869TIP3    H224243   6.666   3.692   2.470 -0.2266 -0.2534 -1.0716
  870TIP3   OH224244   2.314   3.052   0.712 -0.2932  0.0065 -0.6263
  870TIP3    H124245   2.344   3.122   0.769 -0.2127  1.0809 -1.9385
  870TIP3    H224246   2.221   3.070   0.699 -1.4899 -2.7464  2.6225
  871TIP3   OH224247   2.934   3.141   8.719 -0.1173 -0.0370 -0.1226
  871TIP3    H124248   2.880   3.068   8.749 -0.3279  0.4424  0.7051
  871TIP3    H224249   2.987   3.105   8.648 -1.8132 -0.4072 -1.2439
  872TIP3   OH224250   6.289   0.358   7.391  0.2229  0.2292  0.4926
  872TIP3    H124251   6.349   0.287   7.366 -0.0279 -0.1051  0.8230
  872TIP3    H224252   6.343   0.437   7.389  0.3467  0.1323 -0.5469
  873TIP3   OH224253   1.429   3.635   2.293  0.2531 -0.0301 -0.2454
  873TIP3    H124254   1.396   3.686   2.367 -0.3286  0.2694 -0.6960
  873TIP3    H224255   1.361   3.570   2.276  0.9326 -0.8818  0.2415
  874TIP3   OH224256   0.881   3.682   7.724 -0.7128 -0.4483  0.1172
  874TIP3    H124257   0.851   3.608   7.777 -0.8463 -1.3091 -1.1295
  874TIP3    H224258   0.961   3.650   7.682  0.4682  0.8772  1.2535
  875TIP3   OH224259   6.085   1.359   7.156  0.8143  0.3631  0.1224
  875TIP3    H124260   6.087   1.404   7.071  0.2313 -2.1754 -1.3737
  875TIP3    H224261   6.032   1.415   7.212 -2.0477  0.4165 -2.3676
  876TIP3   OH224262   1.489   6.668   1.189  0.3497  0.0918  0.0600
  876TIP3    H124263   1.466   6.575   1.191  0.9565 -0.0561  0.3869
  876TIP3    H224264   1.405   6.713   1.192 -0.0404 -0.4478 -1.6428
  877TIP3   OH224265   1.764   3.795   8.775 -0.8849 -0.0327 -0.0816
  877TIP3    H124266   1.771   3.848   8.695 -1.5209  0.6623  0.3099
  877TIP3    H224267   1.768   3.705   8.744 -0.9191  0.2307 -0.8819
  878TIP3   OH224268   3.589   2.553   0.266  0.5086  0.6853 -0.0535
  878TIP3    H124269   3.514   2.591   0.312  0.9730 -0.8248  2.1558
  878TIP3    H224270   3.573   2.571   0.174 -2.5115  0.5244  0.3320
  879TIP3   OH224271   5.704   2.370   3.059 -0.4343 -0.5359 -0.7182
  879TIP3    H124272   5.630   2.430   3.057  1.3129  1.7831 -2.6398
  879TIP3    H224273   5.743   2.382   3.146 -1.6601 -0.9858 -0.0887
  880TIP3   OH224274   4.166   3.831   0.654 -0.3715  0.2516  0.4571
  880TIP3    H124275   4.084   3.853   0.610 -0.3365  0.4396  0.4858
  880TIP3    H224276   4.180   3.738   0.634 -0.2367  0.3937 -0.1264
  881TIP3   OH224277   4.270   5.377   0.006 -0.1921 -0.3055 -0.0763
  881TIP3    H124278   4.226   5.438   0.066 -1.9698 -0.3372 -1.2953
  881TIP3    H224279   4.362   5.380   0.033 -0.8944 -0.2609  2.5943
  882TIP3   OH224280   6.304   1.148   8.711  0.0178 -0.5696  0.3196
  882TIP3    H124281   6.262   1.096   8.780  0.4217  0.7027  1.5784
  882TIP3    H224282   6.398   1.136   8.726  0.2289 -2.9651 -2.1423
  883TIP3   OH224283   3.849   1.719   6.995  0.5031 -0.7150  0.0093
  883TIP3    H124284   3.875   1.803   7.033 -0.3762  0.3624 -1.6160
  883TIP3    H224285   3.880   1.723   6.904  0.5251 -2.1911 -0.0716
  884TIP3   OH224286   2.750   0.325   2.930  0.3587 -0.1456  0.3553
  884TIP3    H124287   2.680   0.362   2.876  0.0840 -0.4682  0.4851
  884TIP3    H224288   2.793   0.400   2.969 -0.2387  0.0409  0.6705
  885TIP3   OH224289   3.941   0.209   2.254  0.6635 -0.1216  0.2478
  885TIP3    H124290   3.943   0.298   2.288  0.7049 -0.1979  0.4489
  885TIP3    H224291   3.938   0.154   2.332 -0.1798 -0.2758  0.1174
  886TIP3   OH224292   2.411   2.431   6.736  0.2675 -0.4553 -0.3899
  886TIP3    H124293   2.413   2.526   6.734  0.1190 -0.4533 -0.4218
  886TIP3    H224294   2.495   2.406   6.774  0.1931 -0.3043 -0.1267
  887TIP3   OH224295   5.336   0.054   0.941 -0.6471 -0.2924  0.4357
  887TIP3    H124296   5.370   0.050   1.030 -0.1996 -1.5654  0.2306
  887TIP3    H224297   5.241   0.051   0.952 -0.6985  1.7999  0.9445
  888TIP3   OH224298   5.625   2.558   2.065 -0.9755 -0.0943 -0.1261
  888TIP3    H124299   5.612   2.486   2.127  0.0415 -0.6268 -0.4965
  888TIP3    H224300   5.719   2.577   2.070 -0.7491 -0.5510 -1.9015
  889TIP3   OH224301   1.054   6.737   7.845 -0.3370 -0.5607  0.1385
  889TIP3    H124302   1.056   6.715   7.752  0.5435 -0.8426  0.2143
  889TIP3    H224303   0.986   6.804   7.852 -0.4275 -0.5484 -0.7065
  890TIP3   OH224304   0.451   1.882   1.854  0.0848  0.3233  0.1851
  890TIP3    H124305   0.406   1.812   1.805  0.1949 -1.0180  1.9102
  890TIP3    H224306   0.446   1.854   1.945  2.7702  1.0860  0.6300
  891TIP3   OH224307   1.280   5.212   2.096  0.2148  0.1810  0.0802
  891TIP3    H124308   1.234   5.184   2.016 -1.4559  0.6445  0.8431
  891TIP3    H224309   1.355   5.261   2.063  1.5624 -2.5452 -1.2496
  892TIP3   OH224310   3.293   2.712   2.002  0.7664  0.0969 -0.5795
  892TIP3    H124311   3.374   2.678   1.964  2.0930  2.3336  0.1157
  892TIP3    H224312   3.320   2.751   2.085 -1.3612 -0.7490  0.5782
  893TIP3   OH224313   1.230   5.246   8.453  0.4406 -0.6846  0.0884
  893TIP3    H124314   1.312   5.198   8.448  0.5605 -0.5783  0.9799
  893TIP3    H224315   1.225   5.278   8.543  0.6725  1.4840 -0.5959
  894TIP3   OH224316   3.279   4.037   8.370 -0.8788 -0.1500  0.1633
  894TIP3    H124317   3.211   4.054   8.305 -1.8620  0.4825  1.3095
  894TIP3    H224318   3.317   3.953   8.345 -1.1761  0.1234 -1.2569
  895TIP3   OH224319   2.034   5.968   7.186  0.0426  0.2893 -0.4984
  895TIP3    H124320   2.074   5.895   7.140  1.0124  0.3715  0.1755
  895TIP3    H224321   1.943   5.967   7.159 -0.0655 -1.4143 -0.1923
  896TIP3   OH224322   5.775   4.592   1.793  0.6895 -0.2109 -0.5489
  896TIP3    H124323   5.732   4.538   1.727  0.6546 -1.5196  0.4933
  896TIP3    H224324   5.755   4.548   1.876  0.6666  1.4320  0.3419
  897TIP3   OH224325   0.591   3.512   8.504  0.1320  0.3012 -0.9602
  897TIP3    H124326   0.559   3.574   8.438 -0.1197  0.2392 -0.8986
  897TIP3    H224327   0.524   3.444   8.507  0.0413  0.4097 -0.4877
  898TIP3   OH224328   2.475   2.052   7.679 -0.2750  0.3397  0.1672
  898TIP3    H124329   2.500   2.019   7.592  0.2314  0.7303  0.1625
  898TIP3    H224330   2.383   2.027   7.688 -0.4326  0.5985 -0.6264
  899TIP3   OH224331   0.794   2.957   2.271 -0.1848 -0.0718  0.4816
  899TIP3    H124332   0.772   2.962   2.178  0.6892 -0.2294  0.2553
  899TIP3    H224333   0.804   3.049   2.298 -0.7403 -0.0140  0.4993
  900TIP3   OH224334   6.363   0.855   2.343  0.9111 -0.1863  0.4902
  900TIP3    H124335   6.379   0.948   2.353 -0.1845 -0.1000  1.7739
  900TIP3    H224336   6.287   0.838   2.398  2.1425 -2.1741  1.6960
  901TIP3   OH224337   6.409   4.396   2.300 -0.3413 -0.1262  0.3778
  901TIP3    H124338   6.446   4.462   2.359  0.7501 -0.4612  0.1053
  901TIP3    H224339   6.320   4.425   2.284  0.4360  1.9221 -0.6600
  902TIP3   OH224340   2.383   1.920   1.197  0.1622  0.1158  0.2265
  902TIP3    H124341   2.477   1.932   1.208  0.1217  0.8379 -0.1407
  902TIP3    H224342   2.365   1.835   1.236  0.8841  0.2054  0.7836
  903TIP3   OH224343   6.681   1.427   1.428  0.0348  0.2985  0.0832
  903TIP3    H124344   6.701   1.484   1.353 -0.6111  0.8293  0.3108
  903TIP3    H224345   6.697   1.482   1.504  1.7079 -0.5591  0.3879
  904TIP3   OH224346   6.702   2.651   2.807 -0.2615  0.1894  0.2221
  904TIP3    H124347   6.774   2.705   2.772 -0.9433  1.5324  0.8262
  904TIP3    H224348   6.635   2.655   2.739  0.1596 -0.9773 -0.2925
  905TIP3   OH224349   1.376   2.347   7.511  0.0242  0.1363 -0.1327
  905TIP3    H124350   1.296   2.338   7.563  0.9201 -1.6227  1.0457
  905TIP3    H224351   1.349   2.397   7.434 -2.4451 -1.2137 -0.2423
  906TIP3   OH224352   6.841   2.289   2.774  0.6468  0.2890  0.6707
  906TIP3    H124353   6.831   2.316   2.865  0.1327 -2.7388  1.6224
  906TIP3    H224354   6.920   2.234   2.774 -0.2591 -1.0563 -0.3410
  907TIP3   OH224355   4.435   1.689   0.550 -0.3263 -0.0250  0.4101
  907TIP3    H124356   4.444   1.688   0.454  1.7347 -0.6881  0.5686
  907TIP3    H224357   4.343   1.667   0.565 -0.4494 -0.9335 -1.3945
  908TIP3   OH224358   3.191   4.816   3.417 -0.8582 -0.3382  0.4895
  908TIP3    H124359   3.272   4.862   3.396 -1.4617  0.5296  0.0241
  908TIP3    H224360   3.122   4.864   3.371 -1.5487 -1.5565  0.1862
  909TIP3   OH224361   1.846   5.185   1.890  0.0389 -0.0837  0.2328
  909TIP3    H124362   1.902   5.130   1.945 -0.6289 -0.4481  0.5594
  909TIP3    H224363   1.764   5.136   1.883  0.2538 -0.2628 -1.4704
  910TIP3   OH224364   6.668   2.606   0.819  0.2832  0.3977  0.3845
  910TIP3    H124365   6.761   2.581   0.817  0.7026  1.9144 -0.1084
  910TIP3    H224366   6.654   2.656   0.739 -0.7955  0.7743  0.7905
  911TIP3   OH224367   6.320   0.784   1.140  0.0082  0.5181 -0.0452
  911TIP3    H124368   6.391   0.848   1.145 -0.5174  1.1952 -0.8314
  911TIP3    H224369   6.363   0.699   1.149  1.1699  0.8042 -2.1132
  912TIP3   OH224370   2.931   3.888   0.689  0.0384 -0.6638 -0.3020
  912TIP3    H124371   2.877   3.891   0.768 -0.2756 -1.6035 -0.4740
  912TIP3    H224372   3.020   3.902   0.720 -0.1874 -0.0600  0.0967
  913TIP3   OH224373   5.393   4.381   8.512 -0.8271 -0.1854  0.6646
  913TIP3    H124374   5.380   4.369   8.606  1.8600  1.2267  1.3132
  913TIP3    H224375   5.356   4.467   8.493 -1.5606 -0.5599  0.3492
  914TIP3   OH224376   1.018   3.120   2.682 -0.2431  0.7676  0.3174
  914TIP3    H124377   0.930   3.154   2.696 -1.2774 -1.1257 -1.1273
  914TIP3    H224378   1.034   3.132   2.588  0.5554  0.0262  0.3442
  915TIP3   OH224379   1.342   6.360   1.447  0.1979  0.1400  0.0104
  915TIP3    H124380   1.334   6.305   1.369 -0.6928 -1.0185  0.8806
  915TIP3    H224381   1.428   6.402   1.438 -0.0460  0.3450 -1.7708
  916TIP3   OH224382   1.923   6.219   0.954  0.3999  0.4770 -0.0098
  916TIP3    H124383   2.012   6.188   0.969  0.7701  1.6671  0.4189
  916TIP3    H224384   1.915   6.227   0.859  0.5818 -0.0957 -0.0719
  917TIP3   OH224385   6.743   0.818   8.596 -0.3821 -0.5725 -0.1774
  917TIP3    H124386   6.729   0.750   8.662 -0.9465 -0.1061  0.1888
  917TIP3    H224387   6.660   0.821   8.548 -0.3179 -0.2146 -0.2640
  918TIP3   OH224388   6.512   1.715   1.048 -0.8004  0.1879  0.1166
  918TIP3    H124389   6.577   1.677   0.989  0.1456 -1.1720  1.9114
  918TIP3    H224390   6.564   1.770   1.107 -1.6228  0.9700  0.1344
  919TIP3   OH224391   6.326   4.787   8.398 -0.5635  0.2156 -0.1030
  919TIP3    H124392   6.419   4.800   8.418 -0.5636  0.4784 -0.2737
  919TIP3    H224393   6.316   4.692   8.397 -0.1408  0.1715 -0.7727
  920TIP3   OH224394   6.162   0.118   2.012 -0.3493 -0.6833 -0.1751
  920TIP3    H124395   6.161   0.023   2.017 -0.4686 -0.7381 -1.1687
  920TIP3    H224396   6.087   0.145   2.065 -0.1510 -1.1195  0.3429
  921TIP3   OH224397   3.051   4.616   2.263  0.0917  0.4454  0.4826
  921TIP3    H124398   3.115   4.674   2.221  0.3102  1.7174  2.4392
  921TIP3    H224399   3.010   4.671   2.330 -3.5332 -0.1112 -1.0495
  922TIP3   OH224400   0.644   3.258   0.735  0.5077 -0.5503  0.2319
  922TIP3    H124401   0.586   3.333   0.750  0.6603 -0.3490 -0.1743
  922TIP3    H224402   0.657   3.221   0.822 -1.3489 -1.4359  0.1840
  923TIP3   OH224403   3.812   5.377   1.472 -0.0204  0.4955  0.3583
  923TIP3    H124404   3.790   5.469   1.459 -3.0755 -0.2710 -0.7009
  923TIP3    H224405   3.876   5.358   1.404 -1.9139  1.1036 -1.7270
  924TIP3   OH224406   5.733   5.071   0.297  0.1563  0.3037  0.1744
  924TIP3    H124407   5.724   5.062   0.203  3.0723  1.9766 -0.3880
  924TIP3    H224408   5.741   4.981   0.329  0.5433 -0.2390 -1.3662
  925TIP3   OH224409   5.496   0.043   7.685  0.3032  0.6493  0.5612
  925TIP3    H124410   5.445   0.096   7.623  1.9955  0.5200 -1.0426
  925TIP3    H224411   5.545  -0.018   7.629 -0.6252 -1.8163  2.2602
  926TIP3   OH224412   0.662   1.056   2.728  0.2686  0.0603 -0.4314
  926TIP3    H124413   0.713   0.979   2.701  0.3840  0.0227 -0.1057
  926TIP3    H224414   0.664   1.114   2.652 -1.2852 -1.0014 -1.3329
  927TIP3   OH224415   5.289   4.226   7.338  0.0072  0.0104 -0.0770
  927TIP3    H124416   5.244   4.234   7.254  1.6240  0.6225 -0.9373
  927TIP3    H224417   5.308   4.132   7.345  1.7933  0.2046 -1.5131
  928TIP3   OH224418   3.373   0.958   1.682 -0.2420  0.1356 -0.3619
  928TIP3    H124419   3.283   0.958   1.714  0.1317  2.5229  0.9306
  928TIP3    H224420   3.381   0.877   1.632 -2.5005 -1.1236  1.1569
  929TIP3   OH224421   2.566   4.560   0.552 -0.3971 -0.0603 -0.0792
  929TIP3    H124422   2.660   4.542   0.561 -0.2817  0.6328  0.2075
  929TIP3    H224423   2.560   4.656   0.554 -0.9927 -0.0535 -1.3376
  930TIP3   OH224424   4.923   1.739   6.976  0.1745  0.5320 -0.2827
  930TIP3    H124425   4.867   1.815   6.961  0.1888  0.5823 -0.0855
  930TIP3    H224426   4.887   1.671   6.920 -0.0993  0.5568 -0.1379
  931TIP3   OH224427   3.229   0.414   1.844  0.5033  0.0722 -0.7609
  931TIP3    H124428   3.207   0.322   1.826 -0.0149  0.2172 -0.8672
  931TIP3    H224429   3.215   0.459   1.761 -2.1239  0.7890 -0.0187
  932TIP3   OH224430   3.290   1.605   0.464 -0.5390 -0.0168  0.1255
  932TIP3    H124431   3.310   1.570   0.378 -1.4260 -2.4321  0.8108
  932TIP3    H224432   3.231   1.678   0.447  0.9352  0.8982 -1.3622
  933TIP3   OH224433   5.600   2.123   0.267  0.1707  0.4674  0.0091
  933TIP3    H124434   5.529   2.114   0.331  0.0373 -0.5661 -0.2720
  933TIP3    H224435   5.555   2.134   0.183  0.3402  0.4498 -0.0835
  934TIP3   OH224436   6.575   6.826   8.836  0.1781  0.2030  0.2884
  934TIP3    H124437   6.670   6.821   8.850  0.2800  1.6470  0.2598
  934TIP3    H224438   6.553   6.743   8.795  1.1796 -0.7910  1.6449
  935TIP3   OH224439   3.603   1.227   7.610  0.2556 -0.7447  0.4008
  935TIP3    H124440   3.605   1.231   7.514 -3.2827 -0.3697  0.2046
  935TIP3    H224441   3.625   1.136   7.631 -1.5801 -1.5842 -1.0243
  936TIP3   OH224442   1.463   5.026   7.773 -0.5569  0.0531 -0.3607
  936TIP3    H124443   1.441   5.094   7.836 -0.9283 -0.1755 -0.2421
  936TIP3    H224444   1.512   5.072   7.704  0.2833  0.2129  0.3325
  937TIP3   OH224445   5.258   3.506   0.398  0.1555 -0.2488 -0.4289
  937TIP3    H124446   5.274   3.460   0.481 -1.6904 -0.8032 -0.3417
  937TIP3    H224447   5.258   3.599   0.423  2.3231 -0.2217 -0.3327
  938TIP3   OH224448   0.637   0.707   0.645  0.0821  0.0625 -0.4029
  938TIP3    H124449   0.650   0.622   0.687 -1.6038 -0.3940 -0.7409
  938TIP3    H224450   0.657   0.771   0.714  2.1694 -0.5462 -0.3734
  939TIP3   OH224451   4.579   4.811   2.087  0.4387 -0.1191 -0.1029
  939TIP3    H124452   4.600   4.856   2.005 -1.2267  1.5675  0.3171
  939TIP3    H224453   4.490   4.777   2.074 -0.3388  1.2044  1.3468
  940TIP3   OH224454   6.620   2.050   0.848 -0.1602 -0.1450 -0.3410
  940TIP3    H124455   6.597   2.140   0.827 -2.4236 -0.3246  0.9452
  940TIP3    H224456   6.566   2.029   0.924  1.8712 -1.9367  0.7165
  941TIP3   OH224457   3.562   4.852   0.082  0.8420 -0.4533 -0.0100
  941TIP3    H124458   3.491   4.788   0.096 -0.3449  0.5632 -1.0923
  941TIP3    H224459   3.533   4.904   0.007  1.2397  2.0548  1.4479
  942TIP3   OH224460   2.350   6.240   7.612 -0.6165  0.0068  0.0474
  942TIP3    H124461   2.387   6.319   7.572  0.5691 -0.6973 -0.2947
  942TIP3    H224462   2.374   6.248   7.705 -0.7600  0.1955  0.0690
  943TIP3   OH224463   4.443   0.240   0.937 -0.7493  0.1228 -0.1219
  943TIP3    H124464   4.458   0.209   0.847  0.5331  1.9791 -0.6136
  943TIP3    H224465   4.355   0.278   0.935 -1.5104 -1.5149 -0.0331
  944TIP3   OH224466   0.169   1.459   0.231  0.0043  0.1874  0.0517
  944TIP3    H124467   0.255   1.439   0.194 -0.2578 -0.0548 -0.4338
  944TIP3    H224468   0.169   1.555   0.240 -0.1620  0.3219 -1.1735
  945TIP3   OH224469   2.990   0.465   7.546  0.3958  0.3022 -0.0776
  945TIP3    H124470   3.049   0.392   7.527  0.4730  0.3519 -0.0309
  945TIP3    H224471   2.965   0.499   7.461 -0.9808 -0.8335 -0.1752
  946TIP3   OH224472   3.931   5.167   1.148  0.0472  0.7894 -0.0137
  946TIP3    H124473   3.967   5.197   1.065 -1.6813 -0.8067 -1.4281
  946TIP3    H224474   3.837   5.157   1.131 -0.4081  0.7521  2.2571
  947TIP3   OH224475   2.424   3.127   7.197  0.6528 -0.1558  0.2633
  947TIP3    H124476   2.352   3.119   7.259  1.0606 -0.4833  0.6984
  947TIP3    H224477   2.401   3.068   7.125  0.0765  0.3884  0.0015
  948TIP3   OH224478   4.188   5.424   8.566  0.0509  0.2181  0.2306
  948TIP3    H124479   4.109   5.477   8.576 -0.4111 -0.6652  1.5751
  948TIP3    H224480   4.204   5.388   8.653  0.1886 -2.0865 -0.6792
  949TIP3   OH224481   3.294   0.062   7.898 -0.2441 -0.3278  0.1594
  949TIP3    H124482   3.298  -0.033   7.905 -0.0713 -0.3707 -0.5195
  949TIP3    H224483   3.337   0.093   7.978  0.1787 -0.8121  0.1255
  950TIP3   OH224484   4.237   0.893   2.924  0.3468 -0.6470 -0.0206
  950TIP3    H124485   4.323   0.873   2.959  1.9995 -0.6047 -3.5558
  950TIP3    H224486   4.243   0.984   2.894 -0.7717 -0.7624 -0.6794
  951TIP3   OH224487   3.818   5.761   1.120  0.2582 -0.2874 -0.3854
  951TIP3    H124488   3.787   5.688   1.174  0.0193 -0.5917 -0.9209
  951TIP3    H224489   3.877   5.720   1.056  1.8075  0.2872  0.6325
  952TIP3   OH224490   6.246   2.342   2.315  0.4638 -0.7829  0.4844
  952TIP3    H124491   6.322   2.285   2.303 -1.1279 -3.0860  0.6811
  952TIP3    H224492   6.225   2.335   2.408  0.7471  0.8577  0.6881
  953TIP3   OH224493   4.053   3.810   8.097 -0.0776 -0.2314 -0.6108
  953TIP3    H124494   4.117   3.753   8.140  0.0251  0.1426 -0.2524
  953TIP3    H224495   4.014   3.859   8.169  0.9024  1.2301 -1.0303
  954TIP3   OH224496   1.822   4.058   1.973 -0.3997  0.5985 -0.4208
  954TIP3    H124497   1.799   3.968   1.948 -1.5252  1.1764 -1.5632
  954TIP3    H224498   1.854   4.050   2.063  0.3879 -1.0691 -0.8026
  955TIP3   OH224499   5.424   4.691   0.335  0.0584  0.0525 -0.2479
  955TIP3    H124500   5.418   4.773   0.383  1.7314  1.4310 -2.2020
  955TIP3    H224501   5.351   4.693   0.273  0.6234  0.5589 -0.9213
  956TIP3   OH224502   0.391   0.701   2.592  0.0303  0.1949  0.7344
  956TIP3    H124503   0.339   0.775   2.560  0.7759  0.8697  1.0262
  956TIP3    H224504   0.396   0.715   2.687  0.9069  0.2667  0.6891
  957TIP3   OH224505   6.313   4.873   2.313  0.1594  0.4747 -0.4689
  957TIP3    H124506   6.330   4.787   2.275  0.4860  0.4592 -0.2940
  957TIP3    H224507   6.381   4.883   2.381 -0.9005  0.1468  0.6825
  958TIP3   OH224508   2.699   3.206   1.800 -0.2026  0.4064  0.0893
  958TIP3    H124509   2.725   3.178   1.888 -0.3851  2.8497  0.9892
  958TIP3    H224510   2.617   3.159   1.784  1.3542 -2.4802 -0.1540
  959TIP3   OH224511   5.354   0.985   8.673 -0.1122 -0.3039 -0.1620
  959TIP3    H124512   5.428   0.989   8.735 -0.2541  1.8114 -0.0527
  959TIP3    H224513   5.372   0.908   8.620  1.4180 -0.6648  0.7980
  960TIP3   OH224514   0.508   1.309   1.261  0.2166  0.0390 -0.3627
  960TIP3    H124515   0.514   1.272   1.173  0.2905 -0.1379 -0.2832
  960TIP3    H224516   0.594   1.292   1.299  0.3218  0.4719 -0.3970
  961TIP3   OH224517   3.097   1.334   6.918  0.7350  0.0853 -0.5056
  961TIP3    H124518   3.104   1.397   6.991 -0.1128 -0.7617  0.3379
  961TIP3    H224519   3.020   1.363   6.869 -0.0222 -0.6220  0.2360
  962TIP3   OH224520   4.879   0.806   7.620 -0.0764  0.0192 -0.2084
  962TIP3    H124521   4.950   0.805   7.555  1.2046  0.9259  1.0961
  962TIP3    H224522   4.832   0.888   7.603  0.3335  0.3164  0.0725
  963TIP3   OH224523   1.237   1.593   2.704 -0.2217 -0.2200 -0.2389
  963TIP3    H124524   1.296   1.519   2.690 -0.0285 -0.1179  0.0313
  963TIP3    H224525   1.287   1.654   2.759 -1.4143 -1.2062  2.0961
  964TIP3   OH224526   4.148   3.273   7.274 -0.4449 -0.3924  0.0153
  964TIP3    H124527   4.192   3.265   7.189  0.9202 -3.6681  0.8738
  964TIP3    H224528   4.162   3.364   7.300 -1.9806  1.1391 -3.7008
  965TIP3   OH224529   5.592   0.742   6.967  0.1566 -0.5495  0.7163
  965TIP3    H124530   5.537   0.664   6.961  2.2895 -2.1236  0.0147
  965TIP3    H224531   5.636   0.734   7.052  1.8115 -1.2258 -0.1464
  966TIP3   OH224532   3.892   5.059   2.552  0.1951 -0.1521 -0.3109
  966TIP3    H124533   3.808   5.104   2.540 -0.5777 -1.5177 -0.1700
  966TIP3    H224534   3.943   5.119   2.605 -0.6193  0.7888 -0.5456
  967TIP3   OH224535   1.588   1.775   7.605 -0.6782 -0.1716  0.2963
  967TIP3    H124536   1.661   1.828   7.638  0.2090 -1.9386  1.3628
  967TIP3    H224537   1.511   1.813   7.647 -0.0494  0.1467  1.2023
  968TIP3   OH224538   0.136   4.550   7.962 -0.0420  0.2559 -0.3172
  968TIP3    H124539   0.173   4.637   7.976 -1.8726  1.2169 -1.0876
  968TIP3    H224540   0.175   4.519   7.880 -0.4256  0.9615 -0.7727
  969TIP3   OH224541   6.283   0.050   2.715  0.4902  0.4628 -0.0933
  969TIP3    H124542   6.244   0.004   2.641  0.2519  1.0657 -0.3439
  969TIP3    H224543   6.306   0.136   2.681  0.4463  0.7173  0.5119
  970TIP3   OH224544   0.404   1.035   7.729 -0.3260 -0.1455 -0.1763
  970TIP3    H124545   0.397   1.090   7.651 -0.1899 -0.8206 -0.6776
  970TIP3    H224546   0.328   1.058   7.782  1.0414  2.3564  0.8432
  971TIP3   OH224547   5.356   4.785   8.210 -0.4282  0.0343 -0.2828
  971TIP3    H124548   5.399   4.733   8.143 -0.4962  1.4353 -1.4778
  971TIP3    H224549   5.267   4.797   8.177 -0.2954  1.2310 -0.2483
  972TIP3   OH224550   3.227   1.851   7.992 -0.0609  0.2288 -0.0878
  972TIP3    H124551   3.219   1.880   8.082 -0.6198 -1.9055  0.6069
  972TIP3    H224552   3.321   1.846   7.976  0.0454  1.3892  0.0683
  973TIP3   OH224553   1.419   4.060   1.797 -0.8359  0.2488 -0.3116
  973TIP3    H124554   1.343   4.117   1.813 -0.5540  0.5029  0.1376
  973TIP3    H224555   1.387   3.972   1.816 -1.3282  0.2182 -1.1857
  974TIP3   OH224556   4.946   2.583   0.557  0.7915 -0.3893 -0.1215
  974TIP3    H124557   5.034   2.618   0.568  0.6080  0.3645 -1.0354
  974TIP3    H224558   4.942   2.510   0.620  2.2910 -0.8847 -0.5491
  975TIP3   OH224559   2.727   5.640   0.285 -0.0822 -0.0358  0.4962
  975TIP3    H124560   2.803   5.696   0.305  0.8594 -0.5973 -1.2747
  975TIP3    H224561   2.757   5.551   0.302 -0.3630 -0.2537 -0.1021
  976TIP3   OH224562   2.464   5.829   8.177  0.6959  0.0009 -0.1915
  976TIP3    H124563   2.395   5.777   8.136  1.1272 -0.0209 -0.9108
  976TIP3    H224564   2.499   5.882   8.105  0.8758  0.6183  0.3409
  977TIP3   OH224565   6.664   3.374   8.019 -0.1386  0.0698 -0.5586
  977TIP3    H124566   6.757   3.393   8.013 -0.0406 -0.4354 -0.6685
  977TIP3    H224567   6.643   3.328   7.938 -0.5226  0.3358 -0.6148
  978TIP3   OH224568   5.937   5.671   0.934 -0.3616  0.3105  0.3498
  978TIP3    H124569   6.020   5.627   0.948 -0.8441 -0.3781  1.1334
  978TIP3    H224570   5.952   5.761   0.964  0.2844  0.3718 -0.1472
  979TIP3   OH224571   2.925   6.371   7.675  0.6911  0.0932 -0.9280
  979TIP3    H124572   2.888   6.450   7.715  0.9985 -0.3129  0.1761
  979TIP3    H224573   2.849   6.322   7.645  0.3407 -0.3366  0.5725
  980TIP3   OH224574   2.509   6.667   0.813  0.1144  0.1554 -0.6547
  980TIP3    H124575   2.566   6.640   0.885  1.0791  2.1407 -0.6055
  980TIP3    H224576   2.421   6.665   0.851  0.5891  1.0476  0.5870
  981TIP3   OH224577   6.376   3.341   0.172 -0.1173 -0.0067  0.3038
  981TIP3    H124578   6.300   3.303   0.216 -0.1408 -0.2907  0.0217
  981TIP3    H224579   6.422   3.266   0.135  0.5909  0.1168  0.9232
  982TIP3   OH224580   1.803   2.750   0.112 -0.4945 -0.4586  0.4232
  982TIP3    H124581   1.750   2.818   0.070  0.3035 -0.1625 -0.1339
  982TIP3    H224582   1.746   2.674   0.115 -1.5511  0.3316  1.4281
  983TIP3   OH224583   2.118   0.022   1.668 -0.1539  0.1541  0.2912
  983TIP3    H124584   2.185   0.089   1.676  0.1750 -0.2478  1.0704
  983TIP3    H224585   2.099  -0.003   1.759 -0.5347 -0.5355  0.0291
  984TIP3   OH224586   6.284   1.454   1.536 -0.2896  0.4644  0.3453
  984TIP3    H124587   6.346   1.475   1.606 -0.5520  0.7822  0.4844
  984TIP3    H224588   6.279   1.358   1.537 -0.7733  0.4877  1.1849
  985TIP3   OH224589   2.947   3.849   1.891 -0.7557 -0.5114  0.2330
  985TIP3    H124590   2.960   3.784   1.960  0.3688 -1.3203 -0.6907
  985TIP3    H224591   2.856   3.837   1.864 -0.8901 -0.9283  0.8356
  986TIP3   OH224592   5.356   5.305   2.378  0.5876 -0.0612  0.2757
  986TIP3    H124593   5.344   5.398   2.401 -3.5695 -0.6076  1.0580
  986TIP3    H224594   5.378   5.307   2.285 -2.5540  1.8104 -0.6068
  987TIP3   OH224595   5.806   5.087   7.734 -0.1779  0.0636 -0.2989
  987TIP3    H124596   5.832   5.109   7.644  0.9913 -2.1119 -0.5734
  987TIP3    H224597   5.857   5.009   7.754 -1.9025 -0.6520  1.5513
  988TIP3   OH224598   5.422   2.717   1.802  0.2961  0.3674  0.3255
  988TIP3    H124599   5.504   2.731   1.754 -0.6834 -0.8810 -1.8267
  988TIP3    H224600   5.398   2.626   1.782 -0.6505  0.0641  2.5143
  989TIP3   OH224601   5.468   3.435   3.339 -0.2166 -0.4804  0.0979
  989TIP3    H124602   5.487   3.361   3.397  1.8336 -1.6327 -1.8717
  989TIP3    H224603   5.489   3.402   3.252 -2.0882  1.5414 -1.2198
  990TIP3   OH224604   6.075   1.654   0.286 -0.1492 -0.1136 -0.0889
  990TIP3    H124605   6.034   1.700   0.360  1.6344  0.0893  0.8168
  990TIP3    H224606   6.144   1.601   0.326  0.2536 -0.7132 -1.5256
  991TIP3   OH224607   6.816   0.478   7.748  0.2178 -0.0733 -0.2278
  991TIP3    H124608   6.729   0.506   7.776  0.4453 -0.1539  0.5796
  991TIP3    H224609   6.850   0.552   7.698 -0.5629 -0.2954 -1.1190
  992TIP3   OH224610   3.507   6.368   0.102  0.5112  0.0531 -0.0350
  992TIP3    H124611   3.505   6.275   0.078  1.1897 -0.2658  1.0363
  992TIP3    H224612   3.563   6.409   0.037  0.3431 -0.3229 -0.4188
  993TIP3   OH224613   2.087   2.512   8.404  0.5118  0.6963 -0.8349
  993TIP3    H124614   2.145   2.435   8.401  0.1865  0.4574 -3.3934
  993TIP3    H224615   2.024   2.497   8.333 -1.6441  1.7830  0.7480
  994TIP3   OH224616   1.198   4.894   7.442 -0.6880 -0.3409  0.0778
  994TIP3    H124617   1.279   4.932   7.408 -0.8571  1.3651  1.3897
  994TIP3    H224618   1.144   4.879   7.365  0.4001 -0.3386 -0.7123
  995TIP3   OH224619   5.744   6.841   8.671 -0.0152  0.3140  0.3924
  995TIP3    H124620   5.831   6.802   8.678  0.4275  0.6467 -2.1694
  995TIP3    H224621   5.731   6.887   8.754  0.8071 -2.4717  2.1867
  996TIP3   OH224622   6.020   4.293   8.680 -0.5296  0.5684  0.2848
  996TIP3    H124623   5.955   4.327   8.618 -0.2395  2.0666  0.7594
  996TIP3    H224624   6.027   4.361   8.747  0.0177 -0.5020  1.3488
  997TIP3   OH224625   1.761   6.414   2.429  0.8136  0.3381 -0.6415
  997TIP3    H124626   1.700   6.369   2.488 -0.1294  1.5621 -0.6519
  997TIP3    H224627   1.815   6.468   2.487  0.4624  0.8780 -0.8069
  998TIP3   OH224628   1.493   3.154   1.197  0.7378  0.0578 -0.3587
  998TIP3    H124629   1.557   3.083   1.194  1.6823  0.8074  0.8841
  998TIP3    H224630   1.532   3.224   1.145  1.0093  0.5601  0.4973
  999TIP3   OH224631   0.400   5.470   2.472 -0.1186 -0.0622  0.4612
  999TIP3    H124632   0.442   5.528   2.408  0.1152 -0.8633 -0.1259
  999TIP3    H224633   0.456   5.475   2.549  0.5308 -0.3775  0.0170
 1000TIP3   OH224634   2.381   3.940   0.139  0.0186  1.0695 -0.4339
 1000TIP3    H124635   2.320   3.981   0.200  0.4246 -0.6321  1.2123
 1000TIP3    H224636   2.377   3.995   0.061 -2.4301  1.9222  0.1818
 1001TIP3   OH224637   0.691   4.981   0.820  0.1675  0.1405 -0.4349
 1001TIP3    H124638   0.704   5.044   0.891  0.0937 -1.6570  1.2547
 1001TIP3    H224639   0.614   4.930   0.847 -0.3986 -0.0290 -2.2484
 1002TIP3   OH224640   4.006   4.154   2.037  0.1358 -0.6125  0.3118
 1002TIP3    H124641   3.968   4.073   2.071  0.8728 -0.3431  1.8577
 1002TIP3    H224642   4.085   4.167   2.089 -0.0943  1.2185  0.2561
 1003TIP3   OH224643   5.731   2.645   6.906 -0.1847  0.2923 -0.1174
 1003TIP3    H124644   5.812   2.686   6.876 -0.2445  0.5925  0.1273
 1003TIP3    H224645   5.759   2.567   6.953 -0.0945 -0.2451 -1.0499
 1004TIP3   OH224646   6.618   5.967   7.651 -0.0986 -0.1113  0.3349
 1004TIP3    H124647   6.698   5.997   7.608 -0.0579  0.6707  0.9396
 1004TIP3    H224648   6.585   5.898   7.594  0.9009 -0.3104 -0.0267
 1005TIP3   OH224649   1.830   1.310   1.527 -0.4966  0.3417 -0.0871
 1005TIP3    H124650   1.883   1.248   1.478  0.4574 -0.5667  1.9753
 1005TIP3    H224651   1.892   1.377   1.556 -0.6498 -0.0692  1.3010
 1006TIP3   OH224652   4.264   2.704   2.968 -0.3596 -0.3458  0.6522
 1006TIP3    H124653   4.226   2.648   3.036 -0.1977 -0.3258  0.7604
 1006TIP3    H224654   4.309   2.773   3.017  0.2708 -0.6707  0.5318
 1007TIP3   OH224655   2.549   5.796   1.936 -0.1398 -0.4285 -0.2900
 1007TIP3    H124656   2.535   5.802   1.841  2.9133 -0.8679 -0.8702
 1007TIP3    H224657   2.576   5.884   1.961 -0.2261 -0.4949  0.0363
 1008TIP3   OH224658   4.521   0.300   7.919  0.0363  0.4399 -0.1090
 1008TIP3    H124659   4.483   0.377   7.962  1.3621  0.7447  0.5794
 1008TIP3    H224660   4.554   0.246   7.991  1.4854  0.5088 -0.6964
 1009TIP3   OH224661   3.240   5.950   0.195 -0.3888 -0.1463  0.1925
 1009TIP3    H124662   3.272   5.861   0.182  0.1930  0.1646 -0.5655
 1009TIP3    H224663   3.154   5.950   0.152  0.2991  0.0842 -1.2299
 1010TIP3   OH224664   3.781   3.610   3.045 -0.2619  0.1692  0.5349
 1010TIP3    H124665   3.769   3.519   3.070 -2.9998  0.2934 -0.0208
 1010TIP3    H224666   3.785   3.608   2.949  0.8052  0.5508  0.5607
 1011TIP3   OH224667   1.103   3.966   1.721 -0.1910  0.6080  0.0157
 1011TIP3    H124668   1.008   3.961   1.711 -0.1379 -1.2904  0.1183
 1011TIP3    H224669   1.117   3.961   1.816  0.0683 -2.0111 -0.0906
 1012TIP3   OH224670   2.811   0.995   0.323 -0.7804  0.5885  0.2089
 1012TIP3    H124671   2.830   1.076   0.370 -0.6773  0.9759 -0.4780
 1012TIP3    H224672   2.820   0.926   0.388 -1.2951  1.1701  0.9024
 1013TIP3   OH224673   3.911   0.991   0.275  0.1816  0.0728 -0.0199
 1013TIP3    H124674   3.846   0.960   0.212  0.6053  0.2391 -0.5422
 1013TIP3    H224675   3.904   1.087   0.272  0.6618  0.0993 -0.3009
 1014TIP3   OH224676   0.119   2.504   2.678  0.6807  0.2591 -0.6617
 1014TIP3    H124677   0.185   2.461   2.731 -0.2282  0.5973  0.8079
 1014TIP3    H224678   0.041   2.450   2.688 -0.4989  2.1531  1.2507
 1015TIP3   OH224679   4.392   3.231   2.667  0.2168 -0.0933 -0.6424
 1015TIP3    H124680   4.437   3.249   2.750  0.9676  2.5671 -1.5128
 1015TIP3    H224681   4.300   3.222   2.691  0.2068  2.0134  0.4292
 1016TIP3   OH224682   2.535   0.464   1.598 -0.1008  0.1344  0.1692
 1016TIP3    H124683   2.570   0.375   1.589  0.4314  0.3088  0.4510
 1016TIP3    H224684   2.581   0.499   1.674  0.5443  1.0402 -0.6168
 1017TIP3   OH224685   3.766   3.664   2.349 -0.1497 -0.2821  0.4244
 1017TIP3    H124686   3.697   3.668   2.416 -1.0551  1.8851 -0.5535
 1017TIP3    H224687   3.834   3.723   2.381 -0.7143  0.9929 -0.6588
 1018TIP3   OH224688   2.983   3.895   8.164 -0.2063  0.1118  0.6952
 1018TIP3    H124689   2.934   3.888   8.082 -0.7897  2.1302  0.8162
 1018TIP3    H224690   3.073   3.912   8.137 -0.1741 -0.3830  0.4795
 1019TIP3   OH224691   3.041   3.116   1.480 -0.5351 -0.0900  0.3384
 1019TIP3    H124692   3.115   3.058   1.459 -0.8817 -1.2981  2.1827
 1019TIP3    H224693   2.974   3.094   1.415  0.3966  0.3772 -0.7993
 1020TIP3   OH224694   6.400   4.989   1.108 -0.3510 -0.7349 -0.4630
 1020TIP3    H124695   6.477   5.016   1.159 -0.8374  1.2705 -0.7205
 1020TIP3    H224696   6.346   4.940   1.170 -1.5751  2.7491  1.5166
 1021TIP3   OH224697   0.660   5.529   1.616 -0.2050 -0.1679 -0.4224
 1021TIP3    H124698   0.673   5.564   1.705 -0.8028 -0.9869  0.0045
 1021TIP3    H224699   0.571   5.556   1.593 -1.2771 -2.5741  0.5175
 1022TIP3   OH224700   5.039   0.337   1.804  0.6080 -0.6901 -0.2551
 1022TIP3    H124701   4.994   0.395   1.743  0.4743 -2.2261 -1.6743
 1022TIP3    H224702   5.071   0.396   1.873  0.7324  1.1143 -1.7538
 1023TIP3   OH224703   2.309   5.922   8.672  0.6489  0.7243 -0.2891
 1023TIP3    H124704   2.395   5.911   8.712  0.4269  0.8340  0.2151
 1023TIP3    H224705   2.329   5.939   8.579  1.2277  2.0362  0.0537
 1024TIP3   OH224706   3.599   3.526   8.353 -0.0382 -0.1983  0.0354
 1024TIP3    H124707   3.602   3.617   8.323  0.8255 -0.3327 -0.3329
 1024TIP3    H224708   3.567   3.531   8.443  1.7959  0.6794  0.7022
 1025TIP3   OH224709   2.935   6.752   2.503  0.8397  0.1390  0.2987
 1025TIP3    H124710   2.921   6.748   2.597  0.2581 -2.0707  0.1760
 1025TIP3    H224711   3.018   6.799   2.493  1.5349 -0.6454  1.9868
 1026TIP3   OH224712   1.690   6.084   0.233  0.2103  0.5614  0.5296
 1026TIP3    H124713   1.608   6.115   0.193 -0.0496 -1.8425 -1.0073
 1026TIP3    H224714   1.666   6.064   0.324 -1.2981 -1.2097 -0.1899
 1027TIP3   OH224715   3.723   3.264   8.292 -0.0073  0.0039 -0.1790
 1027TIP3    H124716   3.714   3.356   8.317 -1.1380 -0.1815  0.1671
 1027TIP3    H224717   3.640   3.243   8.248 -1.4144 -1.8367  3.0325
 1028TIP3   OH224718   2.607   0.561   6.852 -0.3007  0.5950  0.4400
 1028TIP3    H124719   2.676   0.507   6.815  0.1051  0.3143  1.5627
 1028TIP3    H224720   2.650   0.611   6.921 -0.4910  2.9740 -1.0761
 1029TIP3   OH224721   0.846   5.952   1.881  0.4121  0.0681  0.7149
 1029TIP3    H124722   0.939   5.936   1.892  0.3759  0.4268  1.6289
 1029TIP3    H224723   0.841   6.038   1.838  0.5029  0.0572  0.6836
 1030TIP3   OH224724   5.232   0.793   6.276 -0.3044  0.0638 -0.1950
 1030TIP3    H124725   5.256   0.819   6.365 -0.7304 -0.8596  0.2053
 1030TIP3    H224726   5.139   0.773   6.281 -1.3694  3.8191 -1.7805
 1031TIP3   OH224727   4.272   3.129   1.880  0.2389  0.0783 -0.2656
 1031TIP3    H124728   4.278   3.127   1.976  0.9088  0.7359 -0.2785
 1031TIP3    H224729   4.201   3.190   1.862 -1.3522 -1.6885 -0.1808
 1032TIP3   OH224730   0.735   5.257   0.026  0.0368 -0.4058  0.5055
 1032TIP3    H124731   0.664   5.294   0.079 -0.4104 -0.3818 -0.0937
 1032TIP3    H224732   0.692   5.191  -0.029  0.3011  0.2762 -0.5439
 1033TIP3   OH224733   0.675   5.527   8.579  0.6593 -0.4079 -0.2472
 1033TIP3    H124734   0.627   5.608   8.560 -0.2552 -1.0801 -0.8529
 1033TIP3    H224735   0.642   5.499   8.664 -0.7627 -1.3832 -1.0943
 1034TIP3   OH224736   4.354   2.307   1.378 -0.0895 -0.0826  0.5293
 1034TIP3    H124737   4.363   2.331   1.286 -1.2764  0.1550  0.4682
 1034TIP3    H224738   4.305   2.378   1.418 -0.4186 -0.6335  1.1434
 1035TIP3   OH224739   4.578   4.584   0.839  0.3375 -0.3621 -0.2294
 1035TIP3    H124740   4.534   4.653   0.789  0.8017  0.9871  1.1434
 1035TIP3    H224741   4.668   4.615   0.849  0.1628 -0.3812  1.7590
 1036TIP3   OH224742   2.786   2.227   8.686 -0.1457  0.2463  0.0046
 1036TIP3    H124743   2.746   2.265   8.764 -1.9101  0.3999 -0.9311
 1036TIP3    H224744   2.768   2.133   8.693  0.7270  0.0936  0.3427
 1037TIP3   OH224745   4.373   3.533   7.681  0.0749  0.1352  0.2238
 1037TIP3    H124746   4.405   3.596   7.617 -1.2983  0.6764  0.0373
 1037TIP3    H224747   4.369   3.450   7.633 -1.1194  0.5751 -0.4642
 1038TIP3   OH224748   3.789   1.533   2.022  0.0685 -0.7715  0.2173
 1038TIP3    H124749   3.741   1.525   1.940  0.3139  0.6551 -0.0889
 1038TIP3    H224750   3.747   1.471   2.081 -3.0840  1.3730  0.4126
 1039TIP3   OH224751   2.830   1.815   7.452 -0.1139  0.2075  0.0033
 1039TIP3    H124752   2.812   1.887   7.391 -0.9566 -2.1612 -2.7603
 1039TIP3    H224753   2.906   1.770   7.415 -0.0905 -0.8229  1.2231
 1040TIP3   OH224754   2.487   0.852   8.690  0.1348 -0.1656  0.0904
 1040TIP3    H124755   2.543   0.787   8.647 -0.2860  0.6748 -1.8283
 1040TIP3    H224756   2.521   0.936   8.661 -1.0370  0.4020  0.3089
 1041TIP3   OH224757   1.222   3.950   0.045 -0.1205  0.3176  0.2997
 1041TIP3    H124758   1.130   3.963   0.068 -0.9886  0.3590 -2.6532
 1041TIP3    H224759   1.263   3.917   0.124 -3.1722 -1.8221  1.1682
 1042TIP3   OH224760   5.907   5.114   1.695 -0.3866 -0.0953 -0.0785
 1042TIP3    H124761   5.822   5.127   1.738  0.1552  1.0437  0.7090
 1042TIP3    H224762   5.968   5.100   1.768  0.4504  1.2424 -0.4890
 1043TIP3   OH224763   0.905   5.112   8.281  0.3314  0.1450  0.8719
 1043TIP3    H124764   0.924   5.029   8.325 -0.8537  0.1251  1.3781
 1043TIP3    H224765   0.874   5.170   8.351 -1.2480  0.2264  0.1581
 1044TIP3   OH224766   1.386   3.225   2.261 -0.0352  0.0228  0.4169
 1044TIP3    H124767   1.294   3.201   2.271  0.1901 -0.4279  1.7108
 1044TIP3    H224768   1.392   3.265   2.174 -1.3232 -0.5044  0.0634
 1045TIP3   OH224769   3.731   1.210   1.237 -0.3418 -0.3082  0.0409
 1045TIP3    H124770   3.654   1.264   1.257 -0.0609  0.1268 -0.0445
 1045TIP3    H224771   3.801   1.273   1.221 -0.4818 -0.6325 -2.0483
 1046TIP3   OH224772   1.811   6.078   1.638 -0.5676 -0.4354 -0.6526
 1046TIP3    H124773   1.754   6.079   1.714  0.5017  0.3651  0.1883
 1046TIP3    H224774   1.825   6.171   1.617  0.4379 -0.6062 -0.8045
 1047TIP3   OH224775   5.226   1.924   8.150  0.7247  0.3080  0.5097
 1047TIP3    H124776   5.169   1.974   8.091  1.6040  0.8372  0.0823
 1047TIP3    H224777   5.200   1.952   8.238 -2.2934 -2.2599  0.6315
 1048TIP3   OH224778   5.933   5.795   0.494 -0.3130 -1.3136 -0.2529
 1048TIP3    H124779   5.881   5.816   0.417 -0.4029 -1.7177 -0.3016
 1048TIP3    H224780   5.923   5.701   0.505 -1.1126 -1.1223  0.8350
 1049TIP3   OH224781   2.274   3.598   1.966  0.0193  0.4025  0.0672
 1049TIP3    H124782   2.361   3.569   1.994 -0.3855 -0.2222  0.7386
 1049TIP3    H224783   2.242   3.527   1.910 -1.5179 -1.2233  2.7915
 1050TIP3   OH224784   6.301   0.360   0.227 -0.2726  0.3793 -0.1045
 1050TIP3    H124785   6.396   0.368   0.237  0.1614 -2.8150 -0.7961
 1050TIP3    H224786   6.267   0.368   0.316  0.7983  0.0670  0.3529
 1051TIP3   OH224787   4.098   5.989   1.854  0.1327 -0.1877 -0.0108
 1051TIP3    H124788   4.177   6.042   1.865  0.2710 -0.5642  0.9796
 1051TIP3    H224789   4.129   5.906   1.817  0.3179 -0.5923  1.0119
 1052TIP3   OH224790   1.288   2.038   1.789 -0.2790 -0.0126  0.2902
 1052TIP3    H124791   1.321   1.952   1.762  0.0335  0.3272 -0.4262
 1052TIP3    H224792   1.193   2.027   1.793 -0.3686 -0.0109 -1.2379
 1053TIP3   OH224793   2.847   6.339   8.324 -0.5510 -0.4028 -0.3337
 1053TIP3    H124794   2.871   6.293   8.405  0.3413  0.7619  0.0988
 1053TIP3    H224795   2.771   6.392   8.348 -1.4157 -1.4135 -0.7629
 1054TIP3   OH224796   3.905   4.760   7.770 -0.4166 -0.1946 -0.1196
 1054TIP3    H124797   3.868   4.836   7.816 -0.7292  0.4524 -1.3822
 1054TIP3    H224798   3.933   4.796   7.686  0.5750 -1.2491 -0.2495
 1055TIP3   OH224799   1.638   0.387   7.941 -0.1322 -0.3084 -0.0145
 1055TIP3    H124800   1.696   0.329   7.893  0.1191 -0.9753  1.0599
 1055TIP3    H224801   1.691   0.419   8.014 -0.7352  0.0487  0.2762
 1056TIP3   OH224802   3.422   2.896   7.623 -0.1286 -0.1050  0.0811
 1056TIP3    H124803   3.332   2.919   7.597 -0.0782 -0.0966 -0.0859
 1056TIP3    H224804   3.442   2.816   7.575 -1.4291 -2.3842  2.9746
 1057TIP3   OH224805   0.285   1.699   7.629  0.5645 -0.5629  0.2067
 1057TIP3    H124806   0.268   1.624   7.572  1.5826 -0.6165 -0.0446
 1057TIP3    H224807   0.361   1.673   7.681 -1.6313 -1.4254  3.2643
 1058TIP3   OH224808   1.128   6.844   2.581  0.8834  0.5120 -0.1212
 1058TIP3    H124809   1.115   6.892   2.662  1.1625  1.0760 -0.4029
 1058TIP3    H224810   1.113   6.753   2.604  2.0617  0.5353  0.8166
 1059TIP3   OH224811   3.431   0.962   1.981  0.1150  0.0436 -0.0589
 1059TIP3    H124812   3.515   0.997   2.007  0.3476  0.7003 -1.5742
 1059TIP3    H224813   3.444   0.934   1.890 -1.2865  0.1855 -0.3281
 1060TIP3   OH224814   5.109   5.715   1.392 -0.0028 -0.2930 -0.1666
 1060TIP3    H124815   5.088   5.770   1.316  1.0660 -0.1147 -0.3504
 1060TIP3    H224816   5.025   5.678   1.418 -0.3474 -0.7065 -1.7181
 1061TIP3   OH224817   0.995   6.276   0.733  0.6314  0.1005 -0.3938
 1061TIP3    H124818   1.078   6.279   0.687  0.7418 -2.0643 -0.4409
 1061TIP3    H224819   0.999   6.195   0.785  0.3274  2.1068  3.0770
 1062TIP3   OH224820   6.167   2.575   0.001 -0.1940  0.2435  0.5242
 1062TIP3    H124821   6.218   2.643  -0.042 -2.3710  1.6085 -0.0526
 1062TIP3    H224822   6.194   2.493  -0.042 -0.9435  1.3219 -2.2027
 1063TIP3   OH224823   6.511   0.976   1.165  0.4636  0.8189  0.3355
 1063TIP3    H124824   6.566   1.016   1.098 -0.8069  0.6968 -0.8108
 1063TIP3    H224825   6.510   1.040   1.237  1.1079  1.3505 -0.1194
 1064TIP3   OH224826   6.523   5.594   0.142 -0.2029 -0.6447  0.5922
 1064TIP3    H124827   6.495   5.667   0.196 -0.2294  0.2729 -0.6045
 1064TIP3    H224828   6.582   5.543   0.198 -1.0733 -0.3462  1.8068
 1065TIP3   OH224829   2.161   4.858   2.361 -0.4111  0.4589  0.4685
 1065TIP3    H124830   2.121   4.911   2.430  0.6877 -0.0477  1.5570
 1065TIP3    H224831   2.208   4.789   2.409  2.5446  1.5658 -0.5983
 1066TIP3   OH224832   2.847   0.923   1.297 -0.0305  0.3513 -0.2048
 1066TIP3    H124833   2.845   0.894   1.206 -0.2115 -0.2475 -0.0120
 1066TIP3    H224834   2.798   1.005   1.297 -0.7513 -0.0717 -0.4943
 1067TIP3   OH224835   3.874   4.642   1.691  0.3368 -0.1814  0.2673
 1067TIP3    H124836   3.821   4.691   1.753  1.5071  0.6975  0.6231
 1067TIP3    H224837   3.892   4.704   1.620  1.0182 -0.3962  0.2415
 1068TIP3   OH224838   3.739   3.407   2.573 -0.5345 -0.2528 -0.2297
 1068TIP3    H124839   3.648   3.427   2.593 -0.2708 -1.1421  2.1270
 1068TIP3    H224840   3.786   3.490   2.585 -0.8764 -0.0358 -0.3981
 1069TIP3   OH224841   2.760   5.153   1.159  0.3514 -0.9081 -0.6004
 1069TIP3    H124842   2.781   5.105   1.239 -1.5553  0.2706  0.6987
 1069TIP3    H224843   2.824   5.223   1.155 -1.3388  0.9075  1.6981
 1070TIP3   OH224844   4.548   6.370   2.425  0.4153  0.2427 -0.8274
 1070TIP3    H124845   4.503   6.454   2.415  2.1213  1.1897 -0.8785
 1070TIP3    H224846   4.564   6.363   2.519  1.2460  0.5170 -0.9437
 1071TIP3   OH224847   3.365   3.236   8.433  0.3815  0.3229 -0.3369
 1071TIP3    H124848   3.309   3.313   8.444  0.8724  0.6704 -0.2505
 1071TIP3    H224849   3.322   3.168   8.485  0.2994  0.7196  0.1237
 1072TIP3   OH224850   1.994   0.934   0.397 -0.3725  0.5771  0.4145
 1072TIP3    H124851   1.991   0.956   0.490 -0.8619 -0.9541  0.7964
 1072TIP3    H224852   1.959   0.845   0.393  2.0534 -0.4079 -0.9182
 1073TIP3   OH224853   2.752   2.581   0.337 -0.3208  0.0609  0.2366
 1073TIP3    H124854   2.771   2.505   0.280  0.0747 -0.0320  0.4852
 1073TIP3    H224855   2.838   2.606   0.372 -0.6399 -0.2686  1.2796
 1074TIP3   OH224856   1.495   4.866   8.353 -0.5889  0.4528 -0.2925
 1074TIP3    H124857   1.590   4.854   8.351 -0.6612 -0.3863  0.6606
 1074TIP3    H224858   1.483   4.951   8.395 -0.3022 -0.9696  2.9507
 1075TIP3   OH224859   2.550   5.676   1.683 -0.1047 -0.0401 -0.1631
 1075TIP3    H124860   2.461   5.710   1.687 -0.3164 -0.6639  0.6188
 1075TIP3    H224861   2.540   5.582   1.698  0.3167 -0.7612 -3.5993
 1076TIP3   OH224862   2.571   0.525   0.849 -0.2731  0.0468  0.1802
 1076TIP3    H124863   2.513   0.462   0.806 -2.1968 -0.0314  2.6696
 1076TIP3    H224864   2.606   0.478   0.925 -1.6572  1.8339  2.0325
 1077TIP3   OH224865   0.371   3.150   1.653  0.5308 -0.5208 -0.1645
 1077TIP3    H124866   0.345   3.242   1.656  0.6136 -0.4953 -0.2030
 1077TIP3    H224867   0.400   3.137   1.563  0.5628 -0.5722 -0.1468
 1078TIP3   OH224868   4.024   6.403   8.014 -0.1308  0.6590  0.4532
 1078TIP3    H124869   3.993   6.401   7.923 -1.2840 -1.2754  0.8341
 1078TIP3    H224870   4.092   6.336   8.018  0.4946  1.3012  0.8498
 1079TIP3   OH224871   4.178   3.568   0.585  0.7881 -0.0297 -0.6696
 1079TIP3    H124872   4.159   3.581   0.492  2.8211  0.2147 -1.1079
 1079TIP3    H224873   4.243   3.497   0.586  0.4723 -0.3307  0.6089
 1080TIP3   OH224874   1.795   5.003   1.047 -0.0128 -0.1757  0.6506
 1080TIP3    H124875   1.710   4.969   1.019  0.5016  0.1122 -1.4350
 1080TIP3    H224876   1.791   5.097   1.026  1.3443 -0.4441 -0.9875
 1081TIP3   OH224877   3.716   1.947   1.308 -0.1831  0.7410  0.2659
 1081TIP3    H124878   3.654   1.960   1.380 -2.2670  1.0171 -1.4671
 1081TIP3    H224879   3.716   2.030   1.260 -2.8503 -0.8541 -2.8991
 1082TIP3   OH224880   0.620   3.497   0.028  0.0827 -0.4450 -0.3028
 1082TIP3    H124881   0.658   3.577  -0.007 -0.9663  0.1155 -0.1931
 1082TIP3    H224882   0.540   3.525   0.072 -0.8828 -1.6671 -1.1971
 1083TIP3   OH224883   2.787   3.886   0.947 -0.4038  0.1195  0.1079
 1083TIP3    H124884   2.713   3.940   0.974  0.7210  2.1888 -0.7521
 1083TIP3    H224885   2.766   3.798   0.980 -3.3583  0.5405 -0.3856
 1084TIP3   OH224886   1.570   6.003   1.467  0.5519 -0.3401  0.0652
 1084TIP3    H124887   1.640   5.940   1.480  0.5737 -0.2944  0.1698
 1084TIP3    H224888   1.589   6.074   1.529  0.3876 -0.3508  0.1276
 1085TIP3   OH224889   3.434   3.323   1.890 -0.0309  0.4359 -0.2016
 1085TIP3    H124890   3.524   3.292   1.898  0.1097  1.0127  0.5919
 1085TIP3    H224891   3.381   3.255   1.931  0.2037  0.8502  0.8203
 1086TIP3   OH224892   6.751   3.176   1.470  0.3506  0.0912  0.2154
 1086TIP3    H124893   6.787   3.257   1.433  1.0343 -0.5014 -0.4350
 1086TIP3    H224894   6.721   3.126   1.394 -3.1107  1.0890  0.7344
 1087TIP3   OH224895   3.446   3.877   1.398  0.3599 -0.2376 -0.0657
 1087TIP3    H124896   3.444   3.892   1.492 -0.1465 -0.6376 -0.0081
 1087TIP3    H224897   3.357   3.848   1.377  0.3358  0.2984 -0.7363
 1088TIP3   OH224898   2.964   0.917   7.955 -0.6941 -0.1937  0.7178
 1088TIP3    H124899   2.923   0.831   7.965  0.5787 -0.7495  1.3685
 1088TIP3    H224900   3.045   0.899   7.906 -0.7324  0.7390  0.2877
 1089TIP3   OH224901   5.848   3.186   3.387  0.1729 -0.4036  0.5744
 1089TIP3    H124902   5.763   3.145   3.368  1.0283 -1.8517 -0.3231
 1089TIP3    H224903   5.832   3.280   3.377 -1.1993 -0.6857 -0.1130
 1090TIP3   OH224904   6.535   5.291   8.003 -0.0134  0.3618  0.2882
 1090TIP3    H124905   6.557   5.244   7.922 -0.8280  0.2514  0.1190
 1090TIP3    H224906   6.523   5.382   7.976 -0.4037  0.3037  0.2561
 1091TIP3   OH224907   5.883   2.198   8.825  0.4495 -0.3194  0.3877
 1091TIP3    H124908   5.952   2.207   8.759  0.0314  0.4010  0.0382
 1091TIP3    H224909   5.896   2.111   8.862 -0.1022 -1.2720 -1.5515
 1092TIP3   OH224910   3.210   6.785   8.784  0.3147 -0.2024  0.1227
 1092TIP3    H124911   3.174   6.696   8.784 -0.7343  0.1951 -0.7538
 1092TIP3    H224912   3.164   6.829   8.712  0.0349  1.3602  1.2103
 1093TIP3   OH224913   0.774   6.283   7.211  0.6274 -0.0962 -0.7080
 1093TIP3    H124914   0.856   6.262   7.166  1.3067 -0.0940  0.4950
 1093TIP3    H224915   0.791   6.366   7.254 -0.2878  0.3010 -1.1010
 1094TIP3   OH224916   1.449   1.440   7.091  0.4623 -0.5275  0.2052
 1094TIP3    H124917   1.410   1.465   7.007  1.7437 -0.3499 -0.3494
 1094TIP3    H224918   1.458   1.345   7.085  0.7342 -0.4943  0.0508
 1095TIP3   OH224919   6.848   6.450   8.731  0.8068 -0.2107  0.2144
 1095TIP3    H124920   6.877   6.523   8.676  1.6817 -1.1218 -0.5644
 1095TIP3    H224921   6.765   6.480   8.769 -0.5875 -0.0561 -2.7192
 1096TIP3   OH224922   0.631   6.850   2.444  0.6239 -0.6819  0.0069
 1096TIP3    H124923   0.676   6.925   2.406 -1.1238 -0.4779 -1.8239
 1096TIP3    H224924   0.629   6.785   2.374 -0.8609 -1.1064  0.4021
 1097TIP3   OH224925   0.082   5.117   8.386 -0.3122  0.1849  0.5119
 1097TIP3    H124926   0.163   5.160   8.360  0.3802 -1.2987  0.1271
 1097TIP3    H224927   0.061   5.058   8.314 -0.3955 -1.2385  1.6534
 1098TIP3   OH224928   3.613   5.510   8.083  0.3734  0.2256 -0.3020
 1098TIP3    H124929   3.669   5.529   8.008 -1.6926  2.3610 -1.4397
 1098TIP3    H224930   3.527   5.491   8.045 -0.3677 -0.2014  1.4788
 1099TIP3   OH224931   1.036   6.093   0.964 -0.0270  0.3972  0.0298
 1099TIP3    H124932   0.979   6.021   0.993 -0.3122  0.6512  0.1194
 1099TIP3    H224933   1.060   6.138   1.046  0.1946  0.3695 -0.0206
 1100TIP3   OH224934   4.310   1.429   7.835  0.0275  0.6734  0.1133
 1100TIP3    H124935   4.299   1.505   7.892  0.9583 -0.0213  1.2619
 1100TIP3    H224936   4.360   1.461   7.760 -0.0148  1.3012  0.3528
 1101TIP3   OH224937   0.162   5.089   7.326  0.2057  0.4524  0.5228
 1101TIP3    H124938   0.205   5.157   7.377 -0.0314 -0.2988  1.7611
 1101TIP3    H224939   0.124   5.135   7.251 -1.3201  1.9882  2.1527
 1102TIP3   OH224940   2.351   1.260   1.759 -0.4006  0.8491 -0.4254
 1102TIP3    H124941   2.342   1.299   1.846 -2.1769 -0.2840 -0.0616
 1102TIP3    H224942   2.305   1.177   1.765  0.4682  0.2030 -2.1358
 1103TIP3   OH224943   0.521   3.664   8.281 -0.7283  0.1432  0.1977
 1103TIP3    H124944   0.427   3.683   8.276 -0.5776  0.8436 -0.1064
 1103TIP3    H224945   0.562   3.750   8.294 -0.1156 -0.1325  0.1116
 1104TIP3   OH224946   6.474   1.138   2.415 -0.2203 -0.1689  0.6832
 1104TIP3    H124947   6.550   1.180   2.455 -0.0983  0.7856 -0.4879
 1104TIP3    H224948   6.483   1.157   2.321 -0.5794 -2.1865  0.1956
 1105TIP3   OH224949   0.799   3.884   2.155  0.1517 -0.5967 -0.5409
 1105TIP3    H124950   0.791   3.849   2.066  0.1098 -2.4396  0.1383
 1105TIP3    H224951   0.842   3.815   2.204  0.4705  0.5248  0.8170
 1106TIP3   OH224952   2.513   4.675   1.823 -0.0359 -0.0895  0.3941
 1106TIP3    H124953   2.492   4.703   1.911  1.0557 -1.1666  1.0423
 1106TIP3    H224954   2.595   4.625   1.833 -1.2240 -2.4591 -0.8020
 1107TIP3   OH224955   6.618   3.490   1.465  0.2934 -0.1062 -0.1712
 1107TIP3    H124956   6.585   3.517   1.551  0.9699  0.8017 -0.1828
 1107TIP3    H224957   6.709   3.519   1.465  0.4151 -0.4824 -1.0369
 1108TIP3   OH224958   4.642   4.928   0.889  0.3612  0.4420 -0.5379
 1108TIP3    H124959   4.678   5.014   0.909 -0.2522  0.3154  1.2625
 1108TIP3    H224960   4.553   4.946   0.857 -0.2673  0.4538  1.1181
 1109TIP3   OH224961   5.969   3.990   7.799  0.4654 -0.2444 -0.0598
 1109TIP3    H124962   6.060   3.982   7.828  0.4451  0.1534  0.1159
 1109TIP3    H224963   5.917   3.972   7.877  0.4162  2.1768  0.5677
 1110TIP3   OH224964   1.539   3.400   2.770  0.1968  0.0878 -0.1283
 1110TIP3    H124965   1.602   3.344   2.725  1.8391  2.1259 -0.4863
 1110TIP3    H224966   1.463   3.402   2.712  1.1145  0.2551 -1.3583
 1111TIP3   OH224967   3.240   6.198   1.184 -0.3643 -0.3299  0.3606
 1111TIP3    H124968   3.167   6.146   1.153 -2.1824  1.8048  0.7774
 1111TIP3    H224969   3.239   6.186   1.279  0.1104 -0.6252  0.3314
 1112TIP3   OH224970   3.636   0.533   8.313  0.6480  0.3448  0.1332
 1112TIP3    H124971   3.680   0.466   8.261  1.4419  0.3653  0.7626
 1112TIP3    H224972   3.656   0.615   8.267 -1.0797  0.1117 -1.1592
 1113TIP3   OH224973   1.285   6.274   7.803 -0.0493  0.7386  0.1008
 1113TIP3    H124974   1.210   6.285   7.863 -0.3771  0.7415 -0.3087
 1113TIP3    H224975   1.335   6.355   7.813  0.5506  0.2517  1.2631
 1114TIP3   OH224976   2.278   0.749   8.268  0.2784 -0.4984 -0.0693
 1114TIP3    H124977   2.321   0.790   8.193  0.4404  1.0446  0.8144
 1114TIP3    H224978   2.189   0.783   8.267  0.5136  0.2073  0.8819
 1115TIP3   OH224979   0.481   1.557   2.079  0.3567 -0.3509  0.1162
 1115TIP3    H124980   0.570   1.563   2.112 -0.2197 -0.6279  1.8130
 1115TIP3    H224981   0.456   1.647   2.057  0.4023  0.0038  1.4633
 1116TIP3   OH224982   4.672   6.084   8.716  0.3081 -0.6385  0.0027
 1116TIP3    H124983   4.632   6.103   8.801  0.4958  0.9911 -0.2385
 1116TIP3    H224984   4.607   6.029   8.671 -0.6797  0.1257  0.4515
 1117TIP3   OH224985   1.146   3.149   0.122 -0.4234 -0.1608  0.0640
 1117TIP3    H124986   1.143   3.188   0.210  0.5598 -1.1677  0.5762
 1117TIP3    H224987   1.092   3.207   0.068 -0.4408  0.8937  1.1673
 1118TIP3   OH224988   1.808   6.313   2.760 -0.1698 -0.0228  0.0288
 1118TIP3    H124989   1.740   6.311   2.693  0.4752 -0.8597 -0.6275
 1118TIP3    H224990   1.777   6.377   2.824 -0.8846  0.6775 -0.9832
 1119TIP3   OH224991   3.025   5.677   7.960  0.1434 -0.0933  0.2180
 1119TIP3    H124992   2.947   5.729   7.940 -0.2886  0.4839  3.0040
 1119TIP3    H224993   3.066   5.662   7.875 -1.6042  1.7979 -1.0541
 1120TIP3   OH224994   5.547   3.457   2.417 -0.3903 -0.1024 -0.1564
 1120TIP3    H124995   5.583   3.387   2.473  4.0311  2.9769  1.4894
 1120TIP3    H224996   5.583   3.439   2.331 -0.0848 -0.4112  0.0306
 1121TIP3   OH224997   3.439   5.364   7.038 -0.5866 -0.0670 -0.2406
 1121TIP3    H124998   3.478   5.425   7.100 -1.4839  0.9872 -0.6787
 1121TIP3    H224999   3.482   5.280   7.056  2.5294  1.1649 -1.2431
 1122TIP3   OH225000   6.611   6.264   8.231  0.1321 -1.2065  0.5474
 1122TIP3    H125001   6.541   6.298   8.176  0.8850 -0.5034 -0.0101
 1122TIP3    H225002   6.595   6.170   8.236  1.6525 -1.8773 -3.3808
 1123TIP3   OH225003   4.786   2.637   7.826 -0.6091  0.2118 -0.1103
 1123TIP3    H125004   4.814   2.728   7.820 -1.3474  0.4076 -0.6789
 1123TIP3    H225005   4.766   2.612   7.737  0.6191 -0.8654 -0.1219
 1124TIP3   OH225006   3.211   2.399   8.493 -0.1473 -0.4218  0.2272
 1124TIP3    H125007   3.270   2.349   8.436  0.8786 -0.0471  0.9499
 1124TIP3    H225008   3.124   2.363   8.473  0.3995 -1.5149 -0.3001
 1125TIP3   OH225009   2.403   4.868   7.670 -0.4861  0.0129 -0.2069
 1125TIP3    H125010   2.393   4.920   7.590 -0.6164  0.2513 -0.0345
 1125TIP3    H225011   2.378   4.779   7.644  0.9102 -0.2316 -0.8207
 1126TIP3   OH225012   5.255   5.079   0.860 -0.5575 -0.1316  0.3400
 1126TIP3    H125013   5.317   5.152   0.853  0.2935 -0.5882  2.5081
 1126TIP3    H225014   5.309   5.005   0.887 -1.9374 -0.7409  1.5000
 1127TIP3   OH225015   1.030   5.920   6.757  0.0963 -0.5445 -0.4765
 1127TIP3    H125016   1.006   5.841   6.805 -0.3979 -0.2017 -0.1536
 1127TIP3    H225017   1.007   5.992   6.816  0.5164 -0.1600 -0.7802
 1128TIP3   OH225018   6.112   1.239   8.257 -0.3017  0.1304  0.5336
 1128TIP3    H125019   6.157   1.323   8.250  3.0228 -1.5820 -1.0655
 1128TIP3    H225020   6.119   1.215   8.349 -1.4146  1.6131  1.0334
 1129TIP3   OH225021   6.191   2.415   0.280  0.6271 -0.1771  0.2817
 1129TIP3    H125022   6.107   2.440   0.243  0.3529  0.4398  1.2816
 1129TIP3    H225023   6.255   2.452   0.219  0.1864  0.8236  0.4037
 1130TIP3   OH225024   4.566   2.368   2.495  0.3626  0.0034 -0.1019
 1130TIP3    H125025   4.647   2.408   2.528  1.0688 -0.4339 -1.2453
 1130TIP3    H225026   4.566   2.388   2.402 -0.6825 -0.3076 -0.1788
 1131TIP3   OH225027   2.342   1.152   6.547 -0.2554  0.3640  0.1511
 1131TIP3    H125028   2.369   1.168   6.638  0.5133 -1.3798  0.2696
 1131TIP3    H225029   2.251   1.184   6.543 -0.6798 -0.5208  1.8464
 1132TIP3   OH225030   2.266   5.835   1.710  0.0331  0.7294  0.3715
 1132TIP3    H125031   2.297   5.906   1.654  1.0214 -0.0268 -0.0784
 1132TIP3    H225032   2.172   5.852   1.721 -0.3350  0.5960 -2.0039
 1133TIP3   OH225033   1.062   4.184   1.512 -0.0121 -0.1751 -0.3345
 1133TIP3    H125034   1.109   4.259   1.549  2.7157 -1.2689 -1.3619
 1133TIP3    H225035   1.067   4.116   1.579  0.2979 -0.4522 -0.6364
 1134TIP3   OH225036   5.074   4.819   7.375  0.1915 -0.3319  0.0877
 1134TIP3    H125037   5.051   4.824   7.468 -0.3646 -1.1875  0.0051
 1134TIP3    H225038   5.160   4.861   7.369 -0.5387  1.3210  0.6962
 1135TIP3   OH225039   1.436   1.767   3.124 -0.4123  0.2751  0.1999
 1135TIP3    H125040   1.527   1.741   3.141 -0.6288 -0.7267 -0.1284
 1135TIP3    H225041   1.384   1.715   3.185 -0.9040 -0.6522 -0.9582
 1136TIP3   OH225042   4.631   5.796   1.403 -0.0127 -0.2666 -0.3911
 1136TIP3    H125043   4.587   5.751   1.330 -0.1909 -0.0799 -0.3988
 1136TIP3    H225044   4.563   5.851   1.441  0.0264 -0.5117  0.0392
 1137TIP3   OH225045   5.886   6.355   7.444 -0.0983 -0.4341  0.0727
 1137TIP3    H125046   5.798   6.374   7.412 -1.0734 -0.9068  2.2838
 1137TIP3    H225047   5.934   6.438   7.435 -1.6116  0.6354  1.3769
 1138TIP3   OH225048   3.727   0.421   1.129 -0.0830 -0.0651  0.4374
 1138TIP3    H125049   3.798   0.357   1.135 -1.1501 -1.3594 -0.2211
 1138TIP3    H225050   3.691   0.408   1.041 -0.2335  1.5734  0.2258
 1139TIP3   OH225051   5.154   5.645   7.443  0.7539 -0.6757 -0.3677
 1139TIP3    H125052   5.205   5.621   7.366  1.4723  0.2291 -0.1954
 1139TIP3    H225053   5.184   5.587   7.512  1.5557 -0.1619 -0.2728
 1140TIP3   OH225054   0.809   6.517   8.747  0.5469  0.3019 -0.6972
 1140TIP3    H125055   0.893   6.491   8.708  0.5690 -0.8959  0.1237
 1140TIP3    H225056   0.828   6.529   8.840  0.2354  2.0260 -0.8044
 1141TIP3   OH225057   5.119   5.411   8.755  0.1039  0.3237 -0.2677
 1141TIP3    H125058   5.078   5.386   8.672  1.0697 -1.1757 -0.3311
 1141TIP3    H225059   5.209   5.434   8.732  0.6408 -0.9647  0.4540
 1142TIP3   OH225060   2.177   1.263   8.552  0.2356 -0.7297  0.3553
 1142TIP3    H125061   2.214   1.318   8.621  0.4161  1.1610 -1.1492
 1142TIP3    H225062   2.252   1.217   8.515  0.9171  1.4702 -1.2697
 1143TIP3   OH225063   3.609   2.688   1.409 -0.4198 -0.2824  0.4455
 1143TIP3    H125064   3.608   2.775   1.370 -0.1432 -1.0097 -1.2792
 1143TIP3    H225065   3.701   2.663   1.410 -0.6906 -2.0402 -2.7860
 1144TIP3   OH225066   2.883   6.802   0.989 -0.2883 -0.1822  0.3318
 1144TIP3    H125067   2.909   6.893   0.976  1.4093 -0.3850  1.8418
 1144TIP3    H225068   2.836   6.778   0.909 -1.9995  2.3881  0.4673
 1145TIP3   OH225069   0.896   3.152   1.798 -0.3854 -0.7687  0.5263
 1145TIP3    H125070   0.842   3.088   1.751 -0.1938  0.1703 -1.0698
 1145TIP3    H225071   0.882   3.234   1.751  1.5695 -0.2596  0.7235
 1146TIP3   OH225072   2.958   4.494   1.470  0.2378 -0.5072 -0.5072
 1146TIP3    H125073   2.928   4.564   1.411 -0.4751 -0.6394 -0.3113
 1146TIP3    H225074   2.920   4.414   1.433 -1.4304 -0.4248  0.9109
 1147TIP3   OH225075   2.879   5.622   1.331  0.4615  0.7875  0.0947
 1147TIP3    H125076   2.956   5.643   1.278  0.9925 -0.0272  0.5085
 1147TIP3    H225077   2.808   5.674   1.294  1.0470  0.9675 -0.7860
 1148TIP3   OH225078   0.821   3.324   1.498  0.3875 -0.1734 -0.7680
 1148TIP3    H125079   0.875   3.402   1.483 -0.7490  0.7221 -0.4004
 1148TIP3    H225080   0.765   3.349   1.572 -1.1269 -0.7419 -1.6993
 1149TIP3   OH225081   1.669   6.602   7.059 -0.6124  0.3220  0.1960
 1149TIP3    H125082   1.587   6.590   7.012  1.0449 -0.9062 -2.5990
 1149TIP3    H225083   1.689   6.516   7.095  0.9948 -0.2912 -1.9807
 1150TIP3   OH225084   4.150   3.785   8.562  0.3668  0.2482 -0.1681
 1150TIP3    H125085   4.204   3.818   8.490  1.9321 -1.0224  0.3589
 1150TIP3    H225086   4.060   3.797   8.532  0.9633  0.0153 -2.2325
 1151TIP3   OH225087   6.413   6.103   7.736  0.3780  0.2572 -0.0265
 1151TIP3    H125088   6.372   6.163   7.673  0.7318  1.2719  0.6816
 1151TIP3    H225089   6.490   6.069   7.690 -0.3364 -0.4130 -0.7756
 1152TIP3   OH225090   0.726   5.323   0.814  0.2287 -0.1046  0.0578
 1152TIP3    H125091   0.756   5.246   0.862 -0.6578  0.3938  1.4554
 1152TIP3    H225092   0.636   5.337   0.843 -1.0071 -0.7506 -2.9870
 1153TIP3   OH225093   4.970   1.102   8.028 -0.0397  0.1769  0.2016
 1153TIP3    H125094   5.038   1.070   7.968  0.1995 -0.3728  0.7567
 1153TIP3    H225095   4.901   1.036   8.023  0.2669 -0.2147  1.0294
 1154TIP3   OH225096   4.152   4.088   7.954 -0.2463 -0.0791 -0.1301
 1154TIP3    H125097   4.092   4.154   7.987 -0.9376 -0.8470  0.1647
 1154TIP3    H225098   4.133   4.009   8.005  2.1261  0.0794  1.1308
 1155TIP3   OH225099   3.754   3.968   0.309  0.3168 -0.0010 -0.0561
 1155TIP3    H125100   3.821   3.968   0.378 -1.8197 -0.8139  2.1584
 1155TIP3    H225101   3.725   3.877   0.304  0.4953  0.0044 -2.2098
 1156TIP3   OH225102   4.236   6.435   0.880 -0.5329 -0.3324 -0.4567
 1156TIP3    H125103   4.166   6.462   0.820 -0.3503 -0.4237 -0.7147
 1156TIP3    H225104   4.191   6.397   0.955 -0.8296  1.3607  0.2555
 1157TIP3   OH225105   1.124   5.336   1.300 -0.4489  0.1034  0.2087
 1157TIP3    H125106   1.074   5.400   1.350 -0.3401 -0.2260  0.7391
 1157TIP3    H225107   1.079   5.331   1.216  0.0702  1.5520 -0.1831
 1158TIP3   OH225108   2.047   1.688   8.550  0.3341  0.1472 -0.5981
 1158TIP3    H125109   2.105   1.658   8.620  0.9834  1.3573 -0.5856
 1158TIP3    H225110   2.029   1.779   8.572  0.5208  0.5353 -1.9888
 1159TIP3   OH225111   5.685   5.224   8.313  0.1348 -0.3837  0.1695
 1159TIP3    H125112   5.681   5.293   8.247  0.6359 -0.7073 -0.2071
 1159TIP3    H225113   5.776   5.224   8.343 -0.3749  0.6816  1.8760
 1160TIP3   OH225114   4.422   0.311   1.399 -0.3266  0.0586  0.1384
 1160TIP3    H125115   4.343   0.353   1.366 -1.9081 -1.7006  1.4875
 1160TIP3    H225116   4.408   0.218   1.382  1.4650 -0.2925  0.4236
 1161TIP3   OH225117   3.006   0.583   1.836 -0.0144 -0.6438  0.6117
 1161TIP3    H125118   2.999   0.653   1.900 -3.4078 -1.7909  1.6989
 1161TIP3    H225119   3.065   0.519   1.876  1.4472  0.5826  0.5120
 1162TIP3   OH225120   2.250   4.100   1.631 -0.3169  0.2037  0.4542
 1162TIP3    H125121   2.311   4.174   1.630 -1.1384  0.8985  0.6969
 1162TIP3    H225122   2.173   4.132   1.584 -0.6778 -0.5059  0.5559
 1163TIP3   OH225123   2.020   2.122   7.686 -0.2142  0.0082 -0.0447
 1163TIP3    H125124   1.984   2.180   7.619 -1.1483  0.5716  0.9179
 1163TIP3    H225125   1.943   2.092   7.736  0.3839 -1.0127  0.2938
 1164TIP3   OH225126   2.845   0.493   8.518  0.1030  0.2354  0.5742
 1164TIP3    H125127   2.803   0.417   8.560  1.0493 -0.8992 -0.4384
 1164TIP3    H225128   2.887   0.456   8.440 -1.2707  2.1820 -1.2149
 1165TIP3   OH225129   1.860   5.160   1.551  0.1303  0.1519 -0.0430
 1165TIP3    H125130   1.950   5.174   1.525 -0.1262 -0.2483 -1.1800
 1165TIP3    H225131   1.865   5.143   1.646  1.1134  1.1711  0.0985
 1166TIP3   OH225132   4.950   6.582   2.240  0.0502 -0.0725 -0.4890
 1166TIP3    H125133   4.886   6.516   2.265 -0.5790  0.9022  0.5551
 1166TIP3    H225134   4.899   6.651   2.197  0.5286  0.2855 -0.5005
 1167TIP3   OH225135   3.507   4.481   0.332 -0.1883 -0.0485 -0.0421
 1167TIP3    H125136   3.518   4.398   0.285  0.5918 -0.4771  0.8822
 1167TIP3    H225137   3.558   4.471   0.412  0.6791  1.6642 -0.3370
 1168TIP3   OH225138   4.102   0.440   2.751 -0.4612 -0.6257  0.2139
 1168TIP3    H125139   4.050   0.413   2.827 -0.6102  0.3934  0.4810
 1168TIP3    H225140   4.191   0.410   2.771 -0.4990 -0.3633  0.7844
 1169TIP3   OH225141   6.064   1.817   8.691 -1.3625  0.2879  0.1092
 1169TIP3    H125142   5.996   1.763   8.650 -0.2690 -1.7943  0.8785
 1169TIP3    H225143   6.024   1.848   8.772 -1.8310  0.2132 -0.0882
 1170TIP3   OH225144   2.475   0.415   7.767  0.7403  0.1356 -0.2011
 1170TIP3    H125145   2.480   0.323   7.795  1.9274  0.6783  1.5824
 1170TIP3    H225146   2.411   0.415   7.696  2.9222 -2.5902 -2.4486
 1171TIP3   OH225147   6.347   5.788   0.273 -0.2176 -0.0567 -0.3692
 1171TIP3    H125148   6.284   5.828   0.213 -0.1624 -0.4763 -0.7162
 1171TIP3    H225149   6.294   5.743   0.339 -0.3910  3.4769  2.1556
 1172TIP3   OH225150   1.244   2.475   2.375 -0.0275 -0.3797  0.2598
 1172TIP3    H125151   1.323   2.434   2.407 -0.2668 -3.3823 -2.4698
 1172TIP3    H225152   1.231   2.551   2.431  3.4154 -1.1200  2.2963
 1173TIP3   OH225153   1.482   2.324   2.181 -0.1324 -0.7027  0.4356
 1173TIP3    H125154   1.399   2.326   2.229 -0.8795  3.3776 -0.6750
 1173TIP3    H225155   1.458   2.294   2.093 -0.3744  0.0729  0.2334
 1174TIP3   OH225156   0.088   3.812   0.667  0.7357  0.6176 -0.2152
 1174TIP3    H125157   0.169   3.775   0.631 -0.2842 -1.2049 -0.7486
 1174TIP3    H225158   0.020   3.749   0.644 -0.5007  0.9319  2.2436
 1175TIP3   OH225159   2.509   5.121   1.854 -0.0997 -0.1354 -0.3943
 1175TIP3    H125160   2.435   5.170   1.891  1.6868  2.4100  0.0682
 1175TIP3    H225161   2.553   5.083   1.929 -0.4183 -0.8762 -0.5809
 1176TIP3   OH225162   4.249   6.500   2.390  0.2683  0.6245  0.2743
 1176TIP3    H125163   4.163   6.538   2.410 -0.0654 -0.1873  0.3985
 1176TIP3    H225164   4.270   6.446   2.466  0.1598 -0.4526 -0.4469
 1177TIP3   OH225165   3.066   0.380   0.488 -0.3128  0.1295 -0.3963
 1177TIP3    H125166   2.981   0.362   0.526  0.1721  0.1629  0.7232
 1177TIP3    H225167   3.115   0.298   0.500 -1.0873 -0.9946 -3.7070
 1178TIP3   OH225168   4.026   3.008   7.065 -0.0419 -0.3641 -0.1514
 1178TIP3    H125169   3.983   2.938   7.016  0.1062 -0.1541 -0.5826
 1178TIP3    H225170   4.098   2.965   7.111 -1.1182 -0.8537  1.1407
 1179TIP3   OH225171   6.001   1.668   1.992  0.3251  0.3206  0.0720
 1179TIP3    H125172   6.092   1.653   1.967  0.4139 -2.6850  1.7177
 1179TIP3    H225173   5.952   1.659   1.910  1.0930 -3.6845 -0.1243
 1180TIP3   OH225174   1.214   0.143   7.010  0.7057  0.2737  0.1235
 1180TIP3    H125175   1.205   0.062   7.059  0.1764  0.7952  0.9106
 1180TIP3    H225176   1.286   0.126   6.949  0.0890 -1.0407 -0.2776
 1181TIP3   OH225177   0.379   3.466   1.629  0.1401 -0.3083  0.3630
 1181TIP3    H125178   0.433   3.482   1.707 -0.1379  0.5128  0.3981
 1181TIP3    H225179   0.432   3.499   1.557  0.8196 -1.9675  0.0671
 1182TIP3   OH225180   3.395   4.684   1.174 -0.7586  0.4309 -0.4237
 1182TIP3    H125181   3.371   4.711   1.086  0.0511  2.0846 -0.1745
 1182TIP3    H225182   3.332   4.729   1.231 -2.3331 -1.9033 -0.1714
 1183TIP3   OH225183   4.123   5.581   0.107  0.0508  0.6442  0.3328
 1183TIP3    H125184   4.040   5.538   0.084  1.2970 -1.4363 -0.6319
 1183TIP3    H225185   4.122   5.663   0.059 -0.2424 -0.6781 -2.0766
 1184TIP3   OH225186   5.031   5.246   2.136 -0.1242 -0.4760 -0.6827
 1184TIP3    H125187   5.089   5.308   2.091  0.2736  0.1964  0.6943
 1184TIP3    H225188   5.051   5.257   2.229 -0.5319 -2.2144 -0.3509
 1185TIP3   OH225189   4.747   1.347   1.811 -0.1564  0.0708  0.7625
 1185TIP3    H125190   4.666   1.322   1.766 -0.5850 -0.0954  1.5945
 1185TIP3    H225191   4.718   1.403   1.883  0.3006 -1.2813  2.0452
 1186TIP3   OH225192   4.839   6.815   1.987 -0.5405  0.2534 -0.0663
 1186TIP3    H125193   4.931   6.837   1.977 -0.6771  0.4914 -0.8226
 1186TIP3    H225194   4.797   6.896   2.017 -0.5616  0.2397 -0.0585
 1187TIP3   OH225195   6.065   1.721   0.871  0.2535  0.0304  0.1805
 1187TIP3    H125196   6.097   1.789   0.811 -0.6726  0.0233 -0.3417
 1187TIP3    H225197   6.005   1.668   0.818  0.8534 -1.1201  0.6181
 1188TIP3   OH225198   2.319   4.000   1.874  0.1093  0.2624  0.4950
 1188TIP3    H125199   2.263   3.923   1.865  0.1238  0.1549  1.2325
 1188TIP3    H225200   2.296   4.056   1.800  0.2699 -0.5527 -0.1834
 1189TIP3   OH225201   1.701   3.026   6.762 -0.0299 -0.6571  0.2296
 1189TIP3    H125202   1.707   3.121   6.751  2.4879 -0.6374  1.1573
 1189TIP3    H225203   1.729   2.990   6.677  0.9641 -0.5361  0.4928
 1190TIP3   OH225204   0.201   2.983   6.858  0.2479  0.5212 -0.9056
 1190TIP3    H125205   0.266   2.937   6.911  1.7620  3.5143  0.0738
 1190TIP3    H225206   0.247   3.007   6.778 -1.1511 -1.3474 -2.3695
 1191TIP3   OH225207   4.730   6.657   0.531 -0.0647  0.1832 -0.1632
 1191TIP3    H125208   4.746   6.609   0.450 -0.7532 -1.7804  0.8219
 1191TIP3    H225209   4.806   6.637   0.587 -0.4324  0.1042  0.3184
 1192TIP3   OH225210   6.289   4.829   1.902 -0.3829 -0.0960 -0.4177
 1192TIP3    H125211   6.361   4.794   1.954 -0.0547 -0.5243 -1.1439
 1192TIP3    H225212   6.246   4.893   1.959 -0.9364 -1.5868  0.9023
 1193TIP3   OH225213   6.823   0.643   1.884  0.2712  0.1640 -0.8602
 1193TIP3    H125214   6.774   0.570   1.921 -0.4166  0.6590 -0.7588
 1193TIP3    H225215   6.906   0.605   1.854  0.0936 -0.5681 -0.4330
 1194TIP3   OH225216   0.183   1.616   7.386  0.2164 -0.0999  1.0834
 1194TIP3    H125217   0.106   1.673   7.387  0.5380  0.3275  1.2904
 1194TIP3    H225218   0.253   1.670   7.350  0.0923 -0.9216 -0.4998
 1195TIP3   OH225219   5.856   5.453   1.790 -0.0316 -0.4779  0.2267
 1195TIP3    H125220   5.827   5.525   1.847  0.8985  0.9351 -1.0072
 1195TIP3    H225221   5.802   5.378   1.817 -1.0381  0.6682  1.5637
 1196TIP3   OH225222   6.387   2.201   8.406 -0.1158  0.1616 -0.1103
 1196TIP3    H125223   6.430   2.278   8.370  1.0690 -0.2263  0.4014
 1196TIP3    H225224   6.309   2.234   8.450 -0.9585  0.7735 -1.9719
 1197TIP3   OH225225   5.670   5.604   0.752  0.4679 -0.5154  0.1658
 1197TIP3    H125226   5.742   5.541   0.745  0.7287 -0.0363 -3.4905
 1197TIP3    H225227   5.593   5.557   0.720  0.3752  0.5380 -1.2570
 1198TIP3   OH225228   3.702   6.594   8.048 -0.4366 -0.1554  0.1570
 1198TIP3    H125229   3.671   6.505   8.065 -1.0231  0.2830  1.5552
 1198TIP3    H225230   3.624   6.648   8.060  0.0695  0.6083  0.0253
 1199TIP3   OH225231   4.242   0.017   0.465  0.6364 -0.3262  0.1246
 1199TIP3    H125232   4.237  -0.020   0.377  0.4720 -1.4823  0.6120
 1199TIP3    H225233   4.315  -0.029   0.506  0.7335  0.2332  0.5931
 1200TIP3   OH225234   6.517   2.360   0.004 -0.1537 -0.0655 -0.0321
 1200TIP3    H125235   6.482   2.274  -0.020  1.0685 -0.4722 -0.4359
 1200TIP3    H225236   6.535   2.402  -0.080 -0.3346  0.4220  0.1680
 1201TIP3   OH225237   3.028   6.054   8.810 -0.0341  0.2784 -0.4866
 1201TIP3    H125238   2.972   5.983   8.780  0.1094  0.0579 -0.2388
 1201TIP3    H225239   3.003   6.068   8.902  1.7996 -1.3310  0.3382
 1202TIP3   OH225240   4.745   2.243   2.195  0.8137 -0.1911  0.1840
 1202TIP3    H125241   4.813   2.197   2.146 -0.6025 -1.3504 -0.7700
 1202TIP3    H225242   4.697   2.292   2.128  0.3843  0.1942  0.7667
 1203TIP3   OH225243   4.561   4.596   2.287 -0.3922  0.0085  0.5492
 1203TIP3    H125244   4.630   4.634   2.341  0.3015 -1.4419  0.7375
 1203TIP3    H225245   4.578   4.630   2.199  1.3605 -1.2698  0.3332
 1204TIP3   OH225246   3.769   3.089   0.082 -0.3423 -0.4984 -0.0639
 1204TIP3    H125247   3.696   3.151   0.074 -0.6844 -0.9319 -0.3630
 1204TIP3    H225248   3.780   3.055  -0.007 -0.1285 -0.8367  0.0933
 1205TIP3   OH225249   3.531   4.182   0.376 -0.4256  0.1610 -0.4392
 1205TIP3    H125250   3.550   4.099   0.419  1.5348  0.8165  0.0901
 1205TIP3    H225251   3.439   4.199   0.396 -0.5598 -1.3438  0.3635
 1206TIP3   OH225252   6.148   4.372   1.032 -0.4798 -0.0011  0.1350
 1206TIP3    H125253   6.093   4.309   0.985 -1.5866  0.9959  0.0429
 1206TIP3    H225254   6.200   4.318   1.092 -2.7418 -0.8902  1.4443
 1207TIP3   OH225255   1.009   0.573   7.562 -0.2253 -0.0871  0.8334
 1207TIP3    H125256   1.024   0.667   7.567  0.1975 -0.0986  0.0732
 1207TIP3    H225257   1.050   0.547   7.479  0.5171 -1.0940  1.4897
 1208TIP3   OH225258   2.765   3.469   1.841  0.1057 -0.1741  0.3804
 1208TIP3    H125259   2.855   3.475   1.810 -0.5789  1.1026 -1.5182
 1208TIP3    H225260   2.737   3.379   1.821  1.2422 -0.9401  1.9963
 1209TIP3   OH225261   2.547   6.434   0.067 -0.5792 -0.4980 -0.3527
 1209TIP3    H125262   2.564   6.419   0.160  1.1764 -1.2641 -0.7600
 1209TIP3    H225263   2.632   6.460   0.031 -1.5180  1.1700 -1.5035
 1210TIP3   OH225264   5.561   3.911   8.746  0.1078  0.2275  0.1163
 1210TIP3    H125265   5.644   3.945   8.713  1.2055 -2.0818  0.2884
 1210TIP3    H225266   5.497   3.929   8.677  1.1360  0.5252 -0.7755
 1211TIP3   OH225267   3.689   4.035   7.441 -0.6775  0.4202  0.6373
 1211TIP3    H125268   3.610   4.062   7.487 -0.3058  1.1680  0.8608
 1211TIP3    H225269   3.704   3.945   7.471 -1.3831  0.3065  0.6637
 1212TIP3   OH225270   5.828   1.935   8.415 -0.0741 -0.3374  0.0375
 1212TIP3    H125271   5.830   2.029   8.400 -0.0166 -0.5859 -1.7809
 1212TIP3    H225272   5.908   1.902   8.374 -1.3907 -1.4347 -1.8338
 1213TIP3   OH225273   4.229   1.612   2.954  0.2315  0.2083 -0.3999
 1213TIP3    H125274   4.230   1.595   2.860  2.6490  0.3127 -0.4581
 1213TIP3    H225275   4.292   1.683   2.966 -0.3666  0.4854  1.2450
 1214TIP3   OH225276   5.752   4.320   1.427 -0.0192 -0.6587  0.1606
 1214TIP3    H125277   5.706   4.285   1.351 -0.4172  0.3335 -0.0684
 1214TIP3    H225278   5.774   4.410   1.402 -1.3820  0.1611  1.7100
 1215TIP3   OH225279   4.208   6.653   6.847 -0.1920  0.1317  0.2429
 1215TIP3    H125280   4.271   6.598   6.894  0.0358 -0.8886 -1.1921
 1215TIP3    H225281   4.224   6.741   6.880  0.1287 -0.5086  1.8620
 1216TIP3   OH225282   5.769   1.416   7.118 -0.7061  0.5635  0.3644
 1216TIP3    H125283   5.800   1.506   7.107  0.9035 -0.1294 -1.1968
 1216TIP3    H225284   5.774   1.401   7.213 -1.2787  2.1901  0.6830
 1217TIP3   OH225285   1.905   2.357   1.819 -0.5561 -0.3537  0.3735
 1217TIP3    H125286   1.898   2.304   1.898  1.1885 -0.1919  0.6882
 1217TIP3    H225287   1.877   2.445   1.846  1.1207 -0.0169  1.1775
 1218TIP3   OH225288   0.648   4.896   2.436  0.0231  0.6481  0.3826
 1218TIP3    H125289   0.649   4.942   2.519  0.3911  1.2431  0.0518
 1218TIP3    H225290   0.626   4.805   2.459  1.3611  0.5243  1.2603
 1219TIP3   OH225291   6.555   1.070   8.829 -0.1081  0.2129  0.6132
 1219TIP3    H125292   6.643   1.033   8.821 -1.3082 -2.5916 -1.1803
 1219TIP3    H225293   6.518   1.024   8.905 -0.8673 -0.6958 -0.2760
 1220TIP3   OH225294   5.289   6.771   1.677 -0.7097 -0.0976 -0.1486
 1220TIP3    H125295   5.313   6.749   1.587  0.3148  0.5101 -0.0270
 1220TIP3    H225296   5.193   6.761   1.678 -0.5702 -2.0010 -0.7831
 1221TIP3   OH225297   5.561   1.225   2.130 -0.3066 -0.7802 -0.3509
 1221TIP3    H125298   5.603   1.294   2.182 -1.6516  0.5211 -0.9356
 1221TIP3    H225299   5.603   1.230   2.045  0.6588 -1.7385  0.0418
 1222TIP3   OH225300   6.258   2.022   7.960  0.2913  0.6159  0.7095
 1222TIP3    H125301   6.336   2.032   8.014 -0.7807  0.6185  2.3170
 1222TIP3    H225302   6.278   1.948   7.902  1.2940  0.2995  1.4343
 1223TIP3   OH225303   5.305   4.041   1.670 -0.3878  0.1714 -0.4364
 1223TIP3    H125304   5.379   3.999   1.713 -0.9495  0.7382  1.1516
 1223TIP3    H225305   5.339   4.066   1.584  0.7372 -1.1050 -0.3997
 1224TIP3   OH225306   0.725   4.858   8.092  0.1379 -0.2868  0.0175
 1224TIP3    H125307   0.703   4.859   8.186  1.2403  0.5614  0.2803
 1224TIP3    H225308   0.720   4.766   8.068 -0.9211 -0.4393  0.7128
 1225TIP3   OH225309   6.694   4.614   8.005 -0.0984 -0.1816 -0.1190
 1225TIP3    H125310   6.694   4.663   7.923  1.0799  1.8607  1.0374
 1225TIP3    H225311   6.774   4.561   8.002  0.5886  0.8196  0.2154
 1226TIP3   OH225312   0.894   4.164   0.404  0.0888 -0.1821  0.1193
 1226TIP3    H125313   0.805   4.137   0.424 -0.0619  0.1308 -0.1190
 1226TIP3    H225314   0.898   4.256   0.431  0.4323 -0.2804  0.4182
 1227TIP3   OH225315   2.616   6.439   8.435 -0.4127  0.1846 -0.2121
 1227TIP3    H125316   2.521   6.443   8.447 -0.3634 -0.4288  0.4389
 1227TIP3    H225317   2.646   6.528   8.456 -0.7727  0.2130  0.1884
 1228TIP3   OH225318   4.350   2.960   2.802  0.4005  0.6159 -1.0674
 1228TIP3    H125319   4.399   3.041   2.791 -2.3307  2.5461 -0.2018
 1228TIP3    H225320   4.340   2.951   2.897 -0.7361  0.2088 -1.2128
 1229TIP3   OH225321   4.309   4.649   2.046  0.6052  0.0169 -0.0354
 1229TIP3    H125322   4.303   4.600   2.128 -0.7292  1.6071  0.8831
 1229TIP3    H225323   4.245   4.609   1.988  0.1584  0.1011  0.3957
 1230TIP3   OH225324   5.931   3.622   8.371 -0.3316  0.3042 -0.7967
 1230TIP3    H125325   5.874   3.587   8.439 -0.5832 -0.6402 -1.4610
 1230TIP3    H225326   6.007   3.657   8.417 -0.4752 -0.3688 -0.0341
 1231TIP3   OH225327   5.700   1.020   0.820  0.2155  0.1622  0.2871
 1231TIP3    H125328   5.681   0.971   0.740 -0.1827 -0.4847  0.7658
 1231TIP3    H225329   5.776   0.974   0.858 -0.7034 -0.6686  1.1942
 1232TIP3   OH225330   0.013   0.827   2.082 -0.1539 -0.2377  0.7095
 1232TIP3    H125331   0.033   0.775   2.160 -1.4746 -0.7325  0.7411
 1232TIP3    H225332   0.004   0.763   2.011  0.9731  0.2026  0.1405
 1233TIP3   OH225333   1.552   4.612   0.119 -0.3407 -0.4981 -0.0445
 1233TIP3    H125334   1.481   4.598   0.056  1.3231 -0.9609 -1.9187
 1233TIP3    H225335   1.601   4.530   0.118  0.9725  0.2558  0.1978
 1234TIP3   OH225336   5.977   3.405   0.297 -0.5441 -0.1177 -0.8113
 1234TIP3    H125337   5.907   3.340   0.298 -1.0479  0.4039  0.2313
 1234TIP3    H225338   6.052   3.360   0.336 -0.7931 -0.1895 -0.4027
 1235TIP3   OH225339   2.875   5.424   0.366  0.2264 -0.5156  0.1685
 1235TIP3    H125340   2.938   5.396   0.300  0.5918 -0.8334  0.6515
 1235TIP3    H225341   2.920   5.411   0.449 -0.2701 -0.2097  0.4863
 1236TIP3   OH225342   1.181   3.018   6.634  0.0687 -0.4010  0.2482
 1236TIP3    H125343   1.276   3.012   6.627 -0.0205 -1.5666 -0.3052
 1236TIP3    H225344   1.165   3.031   6.727  0.7808 -0.0076  0.3202
 1237TIP3   OH225345   5.496   5.729   7.386 -0.1896 -0.2954  0.3829
 1237TIP3    H125346   5.564   5.701   7.446 -2.5325  0.5313  3.7058
 1237TIP3    H225347   5.441   5.651   7.373 -0.6966 -0.0089  0.7928
 1238TIP3   OH225348   5.068   0.013   7.873 -0.0904 -0.2781 -1.1146
 1238TIP3    H125349   5.164   0.005   7.875 -0.0378  0.3303  0.3570
 1238TIP3    H225350   5.037  -0.076   7.853  0.7803 -0.4127 -1.9357
 1239TIP3   OH225351   1.802   2.941   7.388 -0.3220  0.0358  0.0935
 1239TIP3    H125352   1.876   2.956   7.448 -0.1003  1.5793 -0.5060
 1239TIP3    H225353   1.733   2.997   7.422 -1.4044 -1.7133  0.8884
 1240TIP3   OH225354   2.679   2.837   2.463 -0.5612  0.2670 -0.8409
 1240TIP3    H125355   2.734   2.837   2.385  1.1434  1.1713  0.2907
 1240TIP3    H225356   2.663   2.929   2.481  0.6499  0.1841  0.8966
 1241TIP3   OH225357   2.171   4.026   0.282  0.4998  0.0740  0.0999
 1241TIP3    H125358   2.137   4.115   0.291 -0.8272 -0.0085 -2.7582
 1241TIP3    H225359   2.115   3.973   0.339 -0.4549  0.7468 -0.1797
 1242TIP3   OH225360   3.727   2.072   2.659  0.2402  0.2847  0.0921
 1242TIP3    H125361   3.720   2.040   2.749  3.5567  1.5493  0.9361
 1242TIP3    H225362   3.761   1.997   2.610 -0.0262  0.0736  0.2233
 1243TIP3   OH225363   1.652   3.970   0.430 -0.3326  0.6493 -0.2826
 1243TIP3    H125364   1.720   4.032   0.402  1.3702 -0.6779  0.7345
 1243TIP3    H225365   1.578   4.026   0.454  0.3084  2.1376 -1.5932
 1244TIP3   OH225366   4.417   0.225   2.191  0.2714  0.5724  0.3383
 1244TIP3    H125367   4.436   0.318   2.200  1.2743  0.2677  1.6293
 1244TIP3    H225368   4.455   0.185   2.269  2.2065 -1.2436 -1.4256
 1245TIP3   OH225369   1.446   3.976   1.380  1.3798  0.3381 -0.1634
 1245TIP3    H125370   1.419   4.045   1.319  0.7735  0.0581 -0.2177
 1245TIP3    H225371   1.465   3.901   1.324  1.2610  0.2194 -0.0470
 1246TIP3   OH225372   3.970   0.055   1.614  0.7962  0.6025  0.3900
 1246TIP3    H125373   3.882   0.093   1.615  0.8201  0.7895 -1.1218
 1246TIP3    H225374   3.955  -0.040   1.617  0.5611  0.6474  0.6402
 1247TIP3   OH225375   4.180   0.596   6.655 -0.3117  0.0723 -0.0276
 1247TIP3    H125376   4.139   0.529   6.600 -0.4287  0.7657 -0.8024
 1247TIP3    H225377   4.163   0.678   6.610  1.3222  0.4609  0.0054
 1248TIP3   OH225378   6.758   2.932   6.761  0.0824 -0.4166 -0.0598
 1248TIP3    H125379   6.836   2.971   6.802  0.2581 -1.7094  0.9042
 1248TIP3    H225380   6.699   3.006   6.747  0.9632  0.4018  0.4151
 1249TIP3   OH225381   0.630   1.230   2.481 -0.6371  0.5950  0.9852
 1249TIP3    H125382   0.684   1.175   2.424  1.5505 -0.4006  3.7998
 1249TIP3    H225383   0.600   1.301   2.424  2.5514  0.4640 -1.1070
 1250TIP3   OH225384   0.748   5.112   0.423 -0.1927  0.2336 -0.0842
 1250TIP3    H125385   0.700   5.043   0.377 -1.6357  0.6725  0.6730
 1250TIP3    H225386   0.812   5.143   0.360 -0.4400 -0.8611 -0.9156
 1251TIP3   OH225387   5.816   5.651   1.955  0.2904  0.0007  0.9140
 1251TIP3    H125388   5.802   5.639   2.049  0.5475 -1.0322  0.8297
 1251TIP3    H225389   5.760   5.725   1.932  0.0839  0.1484  1.8387
 1252TIP3   OH225390   6.089   3.367   1.881 -0.2393  0.1843 -0.1624
 1252TIP3    H125391   6.121   3.396   1.795  2.2714  0.0473  0.6668
 1252TIP3    H225392   6.065   3.448   1.926  0.4040  0.4326 -0.2590
 1253TIP3   OH225393   3.057   3.450   1.350 -0.1994 -0.3337  0.3505
 1253TIP3    H125394   3.079   3.378   1.409 -0.2173 -0.3062  0.3903
 1253TIP3    H225395   2.970   3.479   1.377 -1.4553 -2.1550 -1.4616
 1254TIP3   OH225396   4.101   0.181   8.664 -0.3901 -0.1117  0.0971
 1254TIP3    H125397   4.027   0.121   8.650  0.1035 -0.4199 -1.4533
 1254TIP3    H225398   4.178   0.124   8.661  0.1000  0.5809 -1.5965
 1255TIP3   OH225399   2.846   5.445   1.713 -0.3453  0.1023 -0.4497
 1255TIP3    H125400   2.823   5.415   1.801  0.5944 -0.5269 -0.3949
 1255TIP3    H225401   2.836   5.540   1.716 -0.7964  0.0393  0.1844
 1256TIP3   OH225402   1.364   2.914   2.640  0.2863 -0.1146 -0.0695
 1256TIP3    H125403   1.375   2.983   2.706 -1.2427  0.8106 -0.7257
 1256TIP3    H225404   1.426   2.937   2.571 -1.4816  1.7438 -1.1382
 1257TIP3   OH225405   4.874   2.953   0.450 -0.3257 -0.1567  0.0153
 1257TIP3    H125406   4.813   2.879   0.452 -1.7988  0.9705 -0.8150
 1257TIP3    H225407   4.871   2.988   0.539 -2.7803  1.2726 -0.5263
 1258TIP3   OH225408   0.854   4.649   0.947 -0.2382  0.3343  0.1125
 1258TIP3    H125409   0.860   4.715   1.017  3.2668  0.2408  0.1188
 1258TIP3    H225410   0.857   4.565   0.993  0.2875  0.2552 -0.0606
 1259TIP3   OH225411   0.338   1.854   2.638  0.2306 -0.6342  0.4239
 1259TIP3    H125412   0.434   1.845   2.633  0.6430  1.8912  1.9003
 1259TIP3    H225413   0.321   1.875   2.729 -1.7640 -1.0497  0.1754
 1260TIP3   OH225414   2.462   3.174   1.274 -0.2508  0.2562  0.2585
 1260TIP3    H125415   2.447   3.131   1.358  0.7724  1.2168  0.9525
 1260TIP3    H225416   2.475   3.266   1.295  1.8904  0.2426 -0.7151
 1261TIP3   OH225417   0.237   2.368   0.553 -0.1720 -0.3673 -0.5037
 1261TIP3    H125418   0.331   2.382   0.540 -0.0989 -1.3060 -1.0265
 1261TIP3    H225419   0.203   2.344   0.467 -0.8838 -0.1499 -0.2987
 1262TIP3   OH225420   2.295   0.774   0.501 -0.0917 -0.3807 -0.3377
 1262TIP3    H125421   2.268   0.810   0.586 -1.1681 -0.8846 -0.4501
 1262TIP3    H225422   2.261   0.836   0.437  0.4646 -0.1572 -0.4233
 1263TIP3   OH225423   4.299   5.744   8.474 -0.3136  0.2527  0.2163
 1263TIP3    H125424   4.338   5.672   8.524 -2.8892  0.6606  3.1768
 1263TIP3    H225425   4.221   5.706   8.433 -1.2574  1.0988  1.1563
 1264TIP3   OH225426   6.735   2.432   2.980  0.7396 -0.3520  0.0203
 1264TIP3    H125427   6.727   2.524   2.957  1.7043  0.3098  2.0738
 1264TIP3    H225428   6.652   2.410   3.022  0.8637 -0.1281  0.3891
 1265TIP3   OH225429   5.931   2.141   1.539 -0.5778 -0.2406 -0.0023
 1265TIP3    H125430   5.966   2.164   1.625 -0.3167  1.3454 -0.4941
 1265TIP3    H225431   6.008   2.125   1.485 -0.6027  1.4101 -0.6001
 1266TIP3   OH225432   4.767   2.980   8.718 -0.7215  0.1069  0.3194
 1266TIP3    H125433   4.796   3.062   8.759  1.6398 -1.4300  2.0303
 1266TIP3    H225434   4.677   2.968   8.749 -0.5513  1.2752  1.3497
 1267TIP3   OH225435   4.528   5.334   7.939  0.0489 -0.2513  0.2245
 1267TIP3    H125436   4.551   5.392   8.010 -0.7831 -0.1447  0.4133
 1267TIP3    H225437   4.611   5.318   7.893  0.2380  1.3358 -0.0356
 1268TIP3   OH225438   0.529   0.212   7.583  0.2461 -0.3450 -0.2614
 1268TIP3    H125439   0.446   0.197   7.537 -1.6925  2.1945  2.0612
 1268TIP3    H225440   0.516   0.177   7.671  1.3119  0.8312  0.4070
 1269TIP3   OH225441   6.316   1.704   0.082  0.0196  0.6931 -0.2967
 1269TIP3    H125442   6.312   1.621   0.034 -0.2608  0.4486  0.1355
 1269TIP3    H225443   6.243   1.698   0.144  0.6316  0.8148  0.4525
 1270TIP3   OH225444   1.121   4.995   8.590  0.0145 -0.0076  0.0248
 1270TIP3    H125445   1.134   5.085   8.558  2.4818 -0.6492 -1.0407
 1270TIP3    H225446   1.098   4.945   8.512 -1.4386 -0.3173  0.6307
 1271TIP3   OH225447   3.815   2.381   7.624 -0.2952  0.3204  0.2069
 1271TIP3    H125448   3.896   2.374   7.675  0.8382 -0.2178 -1.6055
 1271TIP3    H225449   3.779   2.292   7.624 -0.5771  0.4293  0.4750
 1272TIP3   OH225450   4.792   0.253   8.096  0.1808 -0.0324  0.0357
 1272TIP3    H125451   4.881   0.241   8.065  0.5313  0.8506  0.6466
 1272TIP3    H225452   4.789   0.343   8.126 -2.1888  1.4952 -4.0027
 1273TIP3   OH225453   0.274   3.549   2.248 -0.3086  0.0966 -0.0278
 1273TIP3    H125454   0.201   3.503   2.289  1.1577 -2.5964 -0.2192
 1273TIP3    H225455   0.235   3.592   2.171 -1.8079 -0.6580  0.2798
 1274TIP3   OH225456   3.472   6.516   0.340 -0.3943  0.3837 -0.2307
 1274TIP3    H125457   3.416   6.578   0.294 -0.4739  0.4872  0.0046
 1274TIP3    H225458   3.471   6.438   0.285 -0.6291  0.4454 -0.3164
 1275TIP3   OH225459   1.408   4.876   0.294  0.0097 -0.0253 -0.1274
 1275TIP3    H125460   1.457   4.899   0.373 -0.7569  0.2758  0.2665
 1275TIP3    H225461   1.475   4.844   0.233  1.1050  2.8250 -0.5611
 1276TIP3   OH225462   5.574   6.105   7.292 -0.1462  0.2284  0.1510
 1276TIP3    H125463   5.525   6.181   7.323  0.4594  0.1785  1.2485
 1276TIP3    H225464   5.608   6.132   7.206 -1.0610  0.6984 -0.0775
 1277TIP3   OH225465   6.705   1.106   0.391 -0.6776  0.3661  0.5554
 1277TIP3    H125466   6.716   1.046   0.318  1.1381  3.4729 -1.9487
 1277TIP3    H225467   6.777   1.086   0.450  0.5545  0.6994 -0.7800
 1278TIP3   OH225468   2.695   1.077   7.922 -0.1554  0.4354 -0.5143
 1278TIP3    H125469   2.784   1.042   7.921 -0.0534  0.6640  0.1051
 1278TIP3    H225470   2.640   1.003   7.895  0.2508  0.4033 -1.2813
 1279TIP3   OH225471   3.161   3.561   8.162 -0.0926  0.0636  0.4936
 1279TIP3    H125472   3.178   3.592   8.073  0.6848 -1.7920 -0.0445
 1279TIP3    H225473   3.080   3.605   8.187  1.6762  3.7792  0.4586
 1280TIP3   OH225474   4.789   6.811   0.181  0.1237  0.2506 -0.3707
 1280TIP3    H125475   4.836   6.728   0.195 -0.4275  0.1272  0.9668
 1280TIP3    H225476   4.849   6.865   0.131  1.5303 -0.0736  0.8875
 1281TIP3   OH225477   3.134   0.269   7.445  0.7800  0.3041  0.3281
 1281TIP3    H125478   3.144   0.220   7.363 -0.5609 -0.0953  0.3780
 1281TIP3    H225479   3.194   0.227   7.506  0.3306 -0.6881  0.1071
 1282TIP3   OH225480   4.249   0.060   1.787  0.2964 -0.6981 -0.5503
 1282TIP3    H125481   4.320   0.121   1.767  0.6849 -1.1278 -0.5186
 1282TIP3    H225482   4.181   0.114   1.826  1.0326 -0.4291  0.4055
 1283TIP3   OH225483   3.966   3.236   6.935  0.2884 -0.0850  0.1313
 1283TIP3    H125484   4.013   3.168   6.983 -0.5534 -0.8875 -0.1330
 1283TIP3    H225485   3.908   3.187   6.876  0.6857  0.8735 -1.0992
 1284TIP3   OH225486   1.654   4.073   2.697 -0.0882  0.2882  0.1806
 1284TIP3    H125487   1.630   4.121   2.618  0.5998 -0.4340 -0.4819
 1284TIP3    H225488   1.609   4.120   2.768 -0.8814  0.8205 -0.6508
 1285TIP3   OH225489   4.426   2.005   8.783 -0.1753  0.5073 -0.0475
 1285TIP3    H125490   4.518   2.013   8.760 -0.4294 -0.2357 -1.5000
 1285TIP3    H225491   4.380   2.043   8.708 -1.0481  0.8415  0.6469
 1286TIP3   OH225492   6.195   3.050   1.089  0.4033  0.0199  0.7170
 1286TIP3    H125493   6.216   2.959   1.109  0.7236  0.0392  0.4862
 1286TIP3    H225494   6.169   3.049   0.997  0.6021  0.1895  0.6579
 1287TIP3   OH225495   1.075   6.178   1.805 -0.3666  0.6486  0.5618
 1287TIP3    H125496   1.012   6.173   1.733  0.1020  0.4300  0.1590
 1287TIP3    H225497   1.032   6.232   1.871 -0.5173  1.4598 -0.1800
 1288TIP3   OH225498   3.413   0.154   8.127 -0.2523 -0.6017 -0.0646
 1288TIP3    H125499   3.431   0.062   8.144 -0.3256 -0.7724 -0.9062
 1288TIP3    H225500   3.453   0.200   8.201 -0.4481 -1.3200  0.5036
 1289TIP3   OH225501   1.539   3.203   7.091  0.3339  0.3133  0.2166
 1289TIP3    H125502   1.490   3.134   7.046  1.4502 -0.7647  0.6186
 1289TIP3    H225503   1.527   3.281   7.035 -1.3476 -0.0549  0.0239
 1290TIP3   OH225504   5.835   0.508   1.825  0.3853 -0.3499 -0.2857
 1290TIP3    H125505   5.919   0.463   1.838  0.7305  0.3301 -0.1215
 1290TIP3    H225506   5.838   0.539   1.735  0.7140  0.4850  0.0053
 1291TIP3   OH225507   0.499   5.420   0.928 -0.2113  0.4961 -0.0148
 1291TIP3    H125508   0.410   5.447   0.947 -1.0506 -3.3532  2.8036
 1291TIP3    H225509   0.549   5.443   1.006  0.7605  0.5104 -0.6128
 1292TIP3   OH225510   0.146   4.733   7.313 -0.4652  0.2786  0.1849
 1292TIP3    H125511   0.058   4.769   7.321 -0.4105  0.4597 -0.0145
 1292TIP3    H225512   0.132   4.640   7.295 -0.6051  0.1942  0.7196
 1293TIP3   OH225513   2.188   6.162   0.970 -0.8419  0.5930  0.4334
 1293TIP3    H125514   2.245   6.239   0.966 -1.3927  0.9617 -1.3354
 1293TIP3    H225515   2.203   6.117   0.886 -1.3605 -0.6236  0.9654
 1294TIP3   OH225516   5.123   6.400   1.605 -0.3819  0.2388 -0.0592
 1294TIP3    H125517   5.039   6.355   1.616  0.9271 -2.3377  0.0107
 1294TIP3    H225518   5.167   6.390   1.689  0.9785 -0.6819 -0.8424
 1295TIP3   OH225519   2.358   6.002   1.135 -0.2156  0.0584 -0.4145
 1295TIP3    H125520   2.303   6.059   1.081 -0.8444  0.2532  0.4056
 1295TIP3    H225521   2.335   6.026   1.225  0.3913 -0.6576 -0.0661
 1296TIP3   OH225522   5.575   2.149   0.618 -0.1210  0.1718 -0.6859
 1296TIP3    H125523   5.605   2.237   0.642 -0.2946 -0.6367  3.0410
 1296TIP3    H225524   5.533   2.116   0.697  1.3119 -3.8746 -1.4252
 1297TIP3   OH225525   0.237   5.430   8.438  0.1125 -0.2962  0.2628
 1297TIP3    H125526   0.265   5.357   8.383 -0.3573  0.3335 -0.8427
 1297TIP3    H225527   0.194   5.490   8.378 -1.6172 -0.1918  1.5229
 1298TIP3   OH225528   0.801   5.493   8.196  0.3811 -0.3307  0.5909
 1298TIP3    H125529   0.871   5.463   8.254  1.5007 -1.2416 -1.1714
 1298TIP3    H225530   0.725   5.440   8.221  0.1113  0.9756  2.8157
 1299TIP3   OH225531   0.144   5.044   2.091  0.0101  0.2983  0.0896
 1299TIP3    H125532   0.080   5.092   2.142 -0.3949 -0.8034  0.6488
 1299TIP3    H225533   0.168   5.103   2.020  0.2002  1.6589  1.2482
 1300TIP3   OH225534   2.768   3.118   8.399 -0.0447 -0.3792  0.3723
 1300TIP3    H125535   2.776   3.023   8.411 -1.7432 -0.5789  0.1587
 1300TIP3    H225536   2.686   3.141   8.441  0.3941  1.0435  0.5121
 1301TIP3   OH225537   4.884   1.282   1.395 -0.2201 -0.2587 -0.3501
 1301TIP3    H125538   4.903   1.210   1.456 -2.8250 -0.0960  0.7564
 1301TIP3    H225539   4.874   1.359   1.450 -0.0457  0.4425 -1.2713
 1302TIP3   OH225540   0.532   3.062   7.526  0.0429  0.0784 -0.3851
 1302TIP3    H125541   0.616   3.092   7.562  0.1950 -0.3227 -0.3957
 1302TIP3    H225542   0.548   3.053   7.432  0.0824 -0.2895 -0.3475
 1303TIP3   OH225543   6.675   5.269   1.028 -0.0258 -0.5637 -0.4825
 1303TIP3    H125544   6.694   5.176   1.044  1.7619 -0.1909 -0.2465
 1303TIP3    H225545   6.752   5.315   1.059 -0.9895  1.0513 -0.3648
 1304TIP3   OH225546   3.792   5.166   8.167  0.2569  0.5932 -0.0592
 1304TIP3    H125547   3.697   5.166   8.162  0.2856  0.1347 -0.8168
 1304TIP3    H225548   3.813   5.093   8.226  0.1090  1.6412  1.3297
 1305TIP3   OH225549   1.284   3.723   8.239 -0.2748  0.7003 -0.4753
 1305TIP3    H125550   1.200   3.749   8.275 -0.2966  0.8093 -0.6024
 1305TIP3    H225551   1.300   3.636   8.274 -0.6787  0.4666 -0.8567
 1306TIP3   OH225552   3.357   1.230   7.010 -0.1095  0.6056  0.2855
 1306TIP3    H125553   3.368   1.156   6.950  1.2367  0.7316  0.3504
 1306TIP3    H225554   3.294   1.287   6.967 -1.0820 -0.5182  0.1805
 1307TIP3   OH225555   1.681   0.045   7.980 -0.2922 -0.3515 -0.7177
 1307TIP3    H125556   1.615   0.078   7.920 -2.3915 -1.7986  0.6491
 1307TIP3    H225557   1.672  -0.050   7.975 -0.7388 -0.5298  1.9746
 1308TIP3   OH225558   2.707   0.171   8.419 -0.7504  0.2732 -0.1928
 1308TIP3    H125559   2.734   0.209   8.503  1.2004 -0.9305 -0.2261
 1308TIP3    H225560   2.651   0.097   8.443  0.8531 -0.8650  0.1305
 1309TIP3   OH225561   3.283   1.080   0.125  0.0133 -0.0498 -0.6500
 1309TIP3    H125562   3.217   1.144   0.097 -0.4919  0.3575  1.3588
 1309TIP3    H225563   3.246   1.040   0.204  1.3817 -1.1232 -0.5169
 1310TIP3   OH225564   4.454   6.827   2.382 -0.3003 -0.3889 -0.0738
 1310TIP3    H125565   4.503   6.802   2.461  1.1126  2.2599 -0.0204
 1310TIP3    H225566   4.367   6.851   2.416 -0.3515 -1.1257  0.3697
 1311TIP3   OH225567   6.433   0.836   0.452 -0.4595  0.2078  0.1946
 1311TIP3    H125568   6.363   0.900   0.468 -1.3957 -0.7946  0.2856
 1311TIP3    H225569   6.386   0.754   0.433  0.6867 -0.1416 -1.3235
 1312TIP3   OH225570   5.256   6.555   7.834  0.5313 -0.1469  0.1000
 1312TIP3    H125571   5.271   6.646   7.858  0.3719  0.4017 -1.7059
 1312TIP3    H225572   5.327   6.534   7.774  1.5797 -1.8123  1.8223
 1313TIP3   OH225573   3.204   4.299   1.716  0.0859  0.1148  0.3212
 1313TIP3    H125574   3.286   4.286   1.764  1.8849 -1.2125 -2.7619
 1313TIP3    H225575   3.203   4.227   1.652 -2.2737  1.4864 -1.3392
 1314TIP3   OH225576   6.726   5.138   2.196  0.1447 -0.4929 -0.4296
 1314TIP3    H125577   6.703   5.153   2.288  1.5483  0.4422 -0.2059
 1314TIP3    H225578   6.680   5.208   2.149  0.1674 -0.4119 -0.3321
 1315TIP3   OH225579   2.083   0.218   0.933  0.1035 -0.3781  0.5729
 1315TIP3    H125580   2.043   0.212   1.020 -0.3995 -1.0589  0.3040
 1315TIP3    H225581   2.058   0.305   0.901 -1.5103 -0.9296  0.2573
 1316TIP3   OH225582   2.202   1.500   0.789 -0.4330 -0.1698 -0.5327
 1316TIP3    H125583   2.127   1.441   0.790 -0.8741  0.3430 -1.8333
 1316TIP3    H225584   2.221   1.513   0.696  0.6404  0.4969 -0.2338
 1317TIP3   OH225585   5.457   2.149   3.064 -0.0810 -0.1578 -0.1332
 1317TIP3    H125586   5.504   2.190   3.137 -0.8437 -0.9392  0.8192
 1317TIP3    H225587   5.402   2.218   3.028 -0.0373  0.1126  0.3187
 1318TIP3   OH225588   3.401   6.281   8.569 -0.4126  0.0020  0.1200
 1318TIP3    H125589   3.404   6.254   8.661  0.3955  0.3326  0.2040
 1318TIP3    H225590   3.311   6.308   8.554 -0.4174  0.4827  0.9766
 1319TIP3   OH225591   0.686   0.553   0.174 -0.3582 -0.3493  0.5337
 1319TIP3    H125592   0.744   0.498   0.120 -1.4434 -0.3573 -0.6556
 1319TIP3    H225593   0.734   0.635   0.185 -0.4742 -0.0207 -1.2004
 1320TIP3   OH225594   4.384   6.407   3.048 -0.1153 -0.2779 -0.2241
 1320TIP3    H125595   4.441   6.360   2.989  2.0632  1.9084 -0.0012
 1320TIP3    H225596   4.442   6.467   3.096 -2.4705  1.5631  0.5450
 1321TIP3   OH225597   4.866   2.833   1.771 -0.4560  0.5740 -0.2035
 1321TIP3    H125598   4.854   2.782   1.851 -1.1505  1.2608  0.1444
 1321TIP3    H225599   4.903   2.771   1.708  0.1693  0.0479  0.6703
 1322TIP3   OH225600   0.599   6.098   8.680 -0.1238  0.0379 -0.1485
 1322TIP3    H125601   0.600   6.150   8.760  1.0433  1.7233 -1.1939
 1322TIP3    H225602   0.511   6.059   8.678  0.5490 -2.0006  3.0565
 1323TIP3   OH225603   0.678   3.708   8.687 -0.0400  0.0121 -0.2399
 1323TIP3    H125604   0.612   3.768   8.653 -1.0854  0.1292  1.8181
 1323TIP3    H225605   0.657   3.624   8.648  1.3009  0.8321 -2.9799
 1324TIP3   OH225606   0.895   1.015   8.392  0.4810  0.1123  0.2607
 1324TIP3    H125607   0.943   1.078   8.445 -0.2495  0.3358  0.6733
 1324TIP3    H225608   0.803   1.026   8.419  0.1382  0.0293 -0.8498
 1325TIP3   OH225609   2.794   2.775   7.607 -0.7148  0.0150  0.2548
 1325TIP3    H125610   2.717   2.766   7.550 -0.4303 -0.5584 -0.0410
 1325TIP3    H225611   2.863   2.725   7.563 -0.2769  0.2093  0.7135
 1326TIP3   OH225612   6.532   2.496   0.245  0.3948  0.0949 -0.0547
 1326TIP3    H125613   6.525   2.437   0.171  0.1402 -0.3170  0.2929
 1326TIP3    H225614   6.513   2.582   0.209 -3.0560 -0.4656  0.1035
 1327TIP3   OH225615   2.937   5.812   0.256  0.4604 -0.8624 -0.1709
 1327TIP3    H125616   3.011   5.798   0.315  0.1109  1.0595  0.8133
 1327TIP3    H225617   2.887   5.883   0.297 -1.5876 -1.6586 -1.1383
 1328TIP3   OH225618   5.343   6.585   2.285 -0.4082 -0.1689 -0.0039
 1328TIP3    H125619   5.271   6.537   2.244  0.0630 -0.2705 -0.7294
 1328TIP3    H225620   5.420   6.529   2.273 -0.1884 -0.0413  0.7231
 1329TIP3   OH225621   1.809   0.983   7.370 -0.3347  0.0056  0.0396
 1329TIP3    H125622   1.796   0.907   7.427 -0.2882  0.6193  0.8995
 1329TIP3    H225623   1.722   1.023   7.364 -0.4048 -0.2353 -0.5953
 1330TIP3   OH225624   1.352   3.823   7.081 -0.4525 -0.1685 -0.3039
 1330TIP3    H125625   1.392   3.901   7.120 -0.3948 -0.4153  0.1333
 1330TIP3    H225626   1.258   3.843   7.079 -0.3832  0.1376 -0.7129
 1331TIP3   OH225627   4.714   5.685   0.988 -0.2866 -0.3467 -0.2306
 1331TIP3    H125628   4.660   5.680   0.909 -0.7162  1.2162 -0.0609
 1331TIP3    H225629   4.661   5.645   1.056 -0.6791 -0.0339 -0.3506
 1332TIP3   OH225630   4.627   3.480   8.496 -0.1657  0.0363 -0.2967
 1332TIP3    H125631   4.623   3.385   8.481 -0.5542  0.0832 -0.5022
 1332TIP3    H225632   4.703   3.492   8.554  1.9476 -0.0766 -2.8279
 1333TIP3   OH225633   3.128   2.491   1.524  0.2901 -0.3389  0.1312
 1333TIP3    H125634   3.214   2.533   1.526  0.4382 -0.6546  1.3220
 1333TIP3    H225635   3.145   2.400   1.545 -0.2329 -0.6213 -0.6394
 1334TIP3   OH225636   0.271   6.554   7.479  0.3534  0.1153  0.0520
 1334TIP3    H125637   0.338   6.517   7.422  1.5590  0.1166  1.4221
 1334TIP3    H225638   0.212   6.600   7.419  0.9484 -0.8111 -1.2918
 1335TIP3   OH225639   3.362   1.852   1.261 -0.8721  0.0349 -0.1082
 1335TIP3    H125640   3.416   1.816   1.191  1.1515  1.0478  0.8332
 1335TIP3    H225641   3.306   1.779   1.288  0.8450 -1.4746 -0.3962
 1336TIP3   OH225642   1.370   0.625   1.668 -1.0561  0.0711 -0.0672
 1336TIP3    H125643   1.301   0.640   1.732 -0.5888 -0.9847  0.7095
 1336TIP3    H225644   1.445   0.595   1.719  0.0089  1.1757 -0.8813
 1337TIP3   OH225645   6.458   0.767   2.095 -0.2692 -0.2548 -0.0133
 1337TIP3    H125646   6.459   0.673   2.110 -2.0030 -0.2241  0.5772
 1337TIP3    H225647   6.415   0.803   2.173  2.3391  1.2823  0.8350
 1338TIP3   OH225648   4.238   4.143   2.838 -0.1797 -0.2447  0.2266
 1338TIP3    H125649   4.201   4.113   2.921 -0.9470  1.9106  0.7324
 1338TIP3    H225650   4.326   4.172   2.861 -0.4064  0.3897  0.3125
 1339TIP3   OH225651   6.197   2.851   7.545 -0.1476 -0.1402 -0.0374
 1339TIP3    H125652   6.244   2.922   7.502 -1.5484  1.0060  0.2805
 1339TIP3    H225653   6.157   2.891   7.622 -1.1079 -1.2288  0.0558
 1340TIP3   OH225654   5.160   5.601   0.195 -0.1117  0.1082 -0.2956
 1340TIP3    H125655   5.086   5.546   0.169 -1.6837  1.1485  1.5942
 1340TIP3    H225656   5.229   5.540   0.220 -0.1440 -0.8900 -2.4712
 1341TIP3   OH225657   3.282   4.845   0.941  0.0576 -0.3914 -0.4509
 1341TIP3    H125658   3.260   4.784   0.871  0.5577 -0.0758 -0.8901
 1341TIP3    H225659   3.303   4.927   0.896  3.3327 -0.9761 -0.1907
 1342TIP3   OH225660   1.495   2.853   1.248  0.3736  0.1489  0.0206
 1342TIP3    H125661   1.552   2.858   1.325 -0.3504 -1.1012  0.6583
 1342TIP3    H225662   1.410   2.830   1.283 -0.2927  0.9003 -1.0424
 1343TIP3   OH225663   3.995   0.524   0.615  0.1907  0.6302  0.5403
 1343TIP3    H125664   3.947   0.545   0.695  0.6532  1.1323  0.6898
 1343TIP3    H225665   4.014   0.609   0.575 -1.4382  0.3541 -0.9462
 1344TIP3   OH225666   2.120   5.221   1.423 -0.1361 -0.1128  0.6361
 1344TIP3    H125667   2.133   5.310   1.454  0.0548 -0.0666  0.4180
 1344TIP3    H225668   2.203   5.196   1.383 -0.3474 -0.2161  0.2607
 1345TIP3   OH225669   3.850   0.881   2.222 -0.7970 -0.3268 -0.2422
 1345TIP3    H125670   3.802   0.955   2.259  1.5097  1.6526 -1.0074
 1345TIP3    H225671   3.855   0.899   2.129  2.5089  0.3333 -0.0679
 1346TIP3   OH225672   1.858   4.119   1.151  0.1016 -0.0067  0.2358
 1346TIP3    H125673   1.806   4.157   1.222  0.0332  0.8365 -0.2450
 1346TIP3    H225674   1.854   4.025   1.165 -1.6404  0.0328  0.1482
 1347TIP3   OH225675   5.115   0.776   7.491 -0.3851  0.4368  0.0222
 1347TIP3    H125676   5.152   0.689   7.496 -1.6741 -0.0650  2.1829
 1347TIP3    H225677   5.106   0.793   7.397  0.5315 -1.4475 -0.4539
 1348TIP3   OH225678   4.925   6.756   8.685 -0.6774 -0.2160  0.2485
 1348TIP3    H125679   4.951   6.774   8.594 -0.4980  1.1628  0.5553
 1348TIP3    H225680   4.961   6.829   8.735 -1.6790 -0.4085  1.2824
 1349TIP3   OH225681   3.164   1.204   1.934  0.3798  0.0220  0.3847
 1349TIP3    H125682   3.108   1.192   2.011  0.7988  2.0023  1.0620
 1349TIP3    H225683   3.107   1.243   1.868  0.6106  0.6704  0.5664
 1350TIP3   OH225684   3.654   0.276   0.546  0.1198 -0.4967  0.4893
 1350TIP3    H125685   3.727   0.222   0.518  0.1452 -0.1126 -0.1888
 1350TIP3    H225686   3.632   0.329   0.470  0.4170  0.8072  1.2794
 1351TIP3   OH225687   0.306   0.101   0.643 -0.5773 -0.1800 -0.0342
 1351TIP3    H125688   0.214   0.122   0.630 -0.4589  0.8778  0.6251
 1351TIP3    H225689   0.324   0.129   0.733  0.4521 -0.0942 -0.2490
 1352TIP3   OH225690   0.728   3.938   7.104 -0.4335  0.1456 -0.0311
 1352TIP3    H125691   0.787   3.866   7.127 -0.1128  0.0487 -1.1195
 1352TIP3    H225692   0.784   4.003   7.062 -0.8442  0.7458  0.3251
 1353TIP3   OH225693   6.332   4.881   0.405  0.1378  0.1368 -0.0325
 1353TIP3    H125694   6.246   4.916   0.382  0.5672  1.2135 -0.0591
 1353TIP3    H225695   6.314   4.808   0.464 -0.8919 -1.0745 -1.7437
 1354TIP3   OH225696   6.826   1.040   8.449 -0.2451 -0.0017  0.2353
 1354TIP3    H125697   6.801   1.104   8.516 -1.5847  1.4516 -1.5382
 1354TIP3    H225698   6.787   0.958   8.479 -3.4522  1.2349 -0.1230
 1355TIP3   OH225699   0.345   3.109   1.099  0.7629  0.1466  0.0273
 1355TIP3    H125700   0.383   3.186   1.142 -1.3680  1.0445  0.4255
 1355TIP3    H225701   0.266   3.090   1.150 -0.3374 -0.4906 -1.8435
 1356TIP3   OH225702   4.287   2.953   1.411  0.6850 -0.2798 -0.2855
 1356TIP3    H125703   4.326   2.867   1.400 -0.9948 -0.9403 -1.5899
 1356TIP3    H225704   4.312   3.001   1.332  0.9684  0.1605  0.0693
 1357TIP3   OH225705   2.979   0.479   7.001  0.7823  0.1914 -0.0944
 1357TIP3    H125706   2.930   0.542   6.948 -0.7138 -0.7430  0.0984
 1357TIP3    H225707   3.031   0.430   6.937  0.2354  0.1479 -0.5184
 1358TIP3   OH225708   3.089   1.672   1.743  0.2762  0.1851  0.2036
 1358TIP3    H125709   3.116   1.763   1.746 -1.4106  0.7171 -0.1106
 1358TIP3    H225710   3.115   1.636   1.828  1.6525  0.7178  0.0329
 1359TIP3   OH225711   3.429   4.647   1.850 -0.4025 -0.2652  0.2178
 1359TIP3    H125712   3.391   4.606   1.928 -0.1196  0.7212  0.8975
 1359TIP3    H225713   3.522   4.654   1.869  0.2461 -2.8908 -1.5380
 1360TIP3   OH225714   5.486   6.816   2.399 -0.0985  0.0466  0.0797
 1360TIP3    H125715   5.430   6.894   2.393 -0.5646 -0.2842  0.1424
 1360TIP3    H225716   5.434   6.746   2.361  0.6570 -0.0669 -0.7767
 1361TIP3   OH225717   5.715   3.753   0.919 -0.6156  0.8280 -0.2510
 1361TIP3    H125718   5.723   3.809   0.842  0.7680  0.1022 -0.6722
 1361TIP3    H225719   5.787   3.780   0.976 -1.4898  1.2001  0.6956
 1362TIP3   OH225720   4.025   6.708   8.491 -0.5280  0.2116 -0.1569
 1362TIP3    H125721   4.052   6.743   8.406  2.8388  2.7927  1.7349
 1362TIP3    H225722   3.932   6.731   8.497 -0.1331  2.8049 -1.9582
 1363TIP3   OH225723   1.529   5.916   8.728 -0.9134  0.6073 -0.0829
 1363TIP3    H125724   1.597   5.883   8.788  0.1608  0.6517 -1.2407
 1363TIP3    H225725   1.462   5.848   8.729  0.2888 -0.6448 -0.7873
 1364TIP3   OH225726   3.602   2.048   2.083  0.5504 -0.6818 -0.1344
 1364TIP3    H125727   3.519   2.001   2.069  0.5084 -0.6921  0.1468
 1364TIP3    H225728   3.602   2.070   2.176  0.7023 -0.3686 -0.2084
 1365TIP3   OH225729   4.416   3.535   2.233 -0.1593 -0.0675  0.0758
 1365TIP3    H125730   4.441   3.459   2.286  2.1449  0.9029  0.4808
 1365TIP3    H225731   4.399   3.498   2.146 -1.5288 -1.3408  0.8338
 1366TIP3   OH225732   0.713   0.401   0.484 -0.5737  1.1556  0.3272
 1366TIP3    H125733   0.659   0.409   0.406  1.6134  2.2147 -1.1931
 1366TIP3    H225734   0.739   0.309   0.486  2.1985  1.7073 -2.3919
 1367TIP3   OH225735   5.919   1.001   7.931 -0.0908  0.0343  0.1657
 1367TIP3    H125736   5.844   1.019   7.988  0.0674 -1.6583  0.9814
 1367TIP3    H225737   5.908   1.060   7.857 -1.1046  1.2759  1.2493
 1368TIP3   OH225738   4.153   4.926   8.457  0.0115  0.3539  0.0303
 1368TIP3    H125739   4.172   4.858   8.521  0.9251  0.5625 -0.0012
 1368TIP3    H225740   4.206   4.903   8.380  0.2635  1.0274 -0.0123
 1369TIP3   OH225741   3.710   2.309   1.544 -0.2850  0.1813 -0.1481
 1369TIP3    H125742   3.719   2.369   1.618  0.8353 -0.0569 -0.0616
 1369TIP3    H225743   3.635   2.342   1.495  0.1879  1.5461 -0.0019
 1370TIP3   OH225744   5.174   4.452   1.859 -0.2911 -0.4006 -0.0754
 1370TIP3    H125745   5.163   4.536   1.815  1.9473 -0.4741 -0.8915
 1370TIP3    H225746   5.116   4.392   1.812 -2.3418  0.7292  0.8624
 1371TIP3   OH225747   1.767   6.796   0.321 -0.0137  0.1340  0.5568
 1371TIP3    H125748   1.756   6.726   0.385 -0.5559 -0.9759 -0.7133
 1371TIP3    H225749   1.722   6.765   0.243  0.1182  1.7179 -0.1851
 1372TIP3   OH225750   2.333   5.692   1.128  0.5893  0.0967 -0.1468
 1372TIP3    H125751   2.322   5.784   1.103 -0.4557 -0.1520 -0.6933
 1372TIP3    H225752   2.307   5.689   1.220  1.9673  0.5732  0.2800
 1373TIP3   OH225753   3.661   3.298   7.607 -0.3824  0.1715 -0.3083
 1373TIP3    H125754   3.596   3.251   7.555 -1.0045  0.2420  0.3840
 1373TIP3    H225755   3.646   3.391   7.585 -0.3106  0.1637 -0.3874
 1374TIP3   OH225756   3.315   4.515   0.832  0.2006 -0.9013  0.6695
 1374TIP3    H125757   3.244   4.561   0.787  1.2307 -0.4164 -0.5319
 1374TIP3    H225758   3.290   4.423   0.828  0.0184 -0.8121 -0.4464
 1375TIP3   OH225759   5.708   5.021   8.104 -0.1117  0.3534  0.1566
 1375TIP3    H125760   5.714   5.102   8.054 -1.6871  0.7910  0.6118
 1375TIP3    H225761   5.652   5.043   8.179  1.1729 -0.6008  1.4546
 1376TIP3   OH225762   5.222   0.832   0.271  0.0553 -0.1104 -0.4548
 1376TIP3    H125763   5.198   0.822   0.363  0.5676 -0.0123 -0.3082
 1376TIP3    H225764   5.233   0.743   0.239 -0.7826 -0.1697 -0.6040
 1377TIP3   OH225765   5.672   6.500   7.340 -0.3798  0.3426 -0.2624
 1377TIP3    H125766   5.723   6.566   7.294 -1.6152  1.2660 -0.3681
 1377TIP3    H225767   5.593   6.489   7.287 -2.2484  2.0522  1.8979
 1378TIP3   OH225768   5.858   2.993   1.777 -0.4138 -0.1449 -0.4985
 1378TIP3    H125769   5.907   2.973   1.857 -2.6446 -0.3526  0.9093
 1378TIP3    H225770   5.891   3.079   1.750  0.2921  0.0085  0.7439
 1379TIP3   OH225771   4.547   1.609   8.188  0.2200 -0.3185 -0.1866
 1379TIP3    H125772   4.594   1.638   8.111  1.9303 -3.4518 -0.4910
 1379TIP3    H225773   4.564   1.677   8.254  0.1265  1.5640 -2.0155
 1380TIP3   OH225774   5.400   2.450   1.424  0.2125  0.0429  0.1727
 1380TIP3    H125775   5.474   2.441   1.364 -0.3352  0.1880 -0.5461
 1380TIP3    H225776   5.406   2.373   1.481  0.4592 -0.3646 -0.3953
 1381TIP3   OH225777   3.282   3.951   8.803  0.0540  0.3977 -0.0550
 1381TIP3    H125778   3.228   3.987   8.873  0.1096  2.2315 -0.8834
 1381TIP3    H225779   3.219   3.922   8.737  0.0418  0.1953  0.0440
 1382TIP3   OH225780   2.531   6.725   2.087  0.3661 -0.2339  0.1590
 1382TIP3    H125781   2.537   6.687   2.174  1.7247  0.3401  0.3350
 1382TIP3    H225782   2.437   6.736   2.072  0.1206  2.5669  2.8390
 1383TIP3   OH225783   5.056   6.217   7.577 -0.3386  0.4512 -0.1384
 1383TIP3    H125784   5.052   6.129   7.614  0.9021  1.0932  1.6739
 1383TIP3    H225785   5.149   6.240   7.580 -0.6471  1.8343 -0.5021
 1384TIP3   OH225786   5.562   4.195   1.920  0.4846  0.3842 -0.7698
 1384TIP3    H125787   5.576   4.219   1.828  1.8524  0.3154 -0.5998
 1384TIP3    H225788   5.545   4.101   1.918  0.6705  0.3535 -0.9392
 1385TIP3   OH225789   3.788   5.290   1.963 -0.5355 -0.1997 -0.4332
 1385TIP3    H125790   3.877   5.258   1.951 -0.8219 -1.0384 -0.4507
 1385TIP3    H225791   3.756   5.308   1.874 -0.5551 -0.3965 -0.4665
 1386TIP3   OH225792   3.457   5.649   8.434 -0.1787 -1.1860  0.4549
 1386TIP3    H125793   3.474   5.555   8.441  1.6015 -0.9613 -0.1891
 1386TIP3    H225794   3.380   5.655   8.378  0.4889 -2.2535 -0.6363
 1387TIP3   OH225795   0.688   5.780   8.261  0.0875  0.3667  0.1912
 1387TIP3    H125796   0.745   5.709   8.230 -0.1542  0.8350 -1.3709
 1387TIP3    H225797   0.747   5.854   8.273  0.3692 -0.0994  1.9879
 1388TIP3   OH225798   3.052   2.915   8.548  0.0896 -0.0868 -0.3905
 1388TIP3    H125799   2.985   2.907   8.481 -0.5721  1.7782  0.0040
 1388TIP3    H225800   3.029   2.847   8.612 -1.2067  0.2736 -0.4497
 1389TIP3   OH225801   1.374   5.196   1.427 -0.0634  0.0860  0.1005
 1389TIP3    H125802   1.368   5.230   1.337  1.6377  0.0630 -0.0480
 1389TIP3    H225803   1.467   5.180   1.441 -0.0292  1.7941  2.4941
 1390TIP3   OH225804   5.881   6.138   7.267  0.4450  0.4376  0.2233
 1390TIP3    H125805   5.822   6.171   7.200  0.9611 -0.1616 -0.5460
 1390TIP3    H225806   5.886   6.208   7.332 -1.2694  0.4104  0.4175
 1391TIP3   OH225807   4.809   4.918   8.480 -0.3695  0.1869  0.6649
 1391TIP3    H125808   4.716   4.899   8.468  0.3230 -3.7686  0.0698
 1391TIP3    H225809   4.822   4.913   8.575 -0.7422  0.8903  0.7626
 1392TIP3   OH225810   1.353   1.915   0.904 -0.1097 -1.2897  0.0462
 1392TIP3    H125811   1.337   1.825   0.874  1.2261 -2.2541  2.0261
 1392TIP3    H225812   1.318   1.918   0.993  0.6132 -0.1089  0.3195
 1393TIP3   OH225813   6.564   4.915   8.212 -0.6308  0.5254  0.1342
 1393TIP3    H125814   6.544   4.911   8.119 -1.5741 -0.1929  0.3583
 1393TIP3    H225815   6.521   4.995   8.243 -0.3250  0.7587 -0.0356
 1394TIP3   OH225816   1.938   2.938   0.271 -0.0863 -0.2869  0.4379
 1394TIP3    H125817   2.008   2.949   0.206  0.2082 -0.1463  0.7797
 1394TIP3    H225818   1.881   2.871   0.233  0.7092 -1.0509  0.5617
 1395TIP3   OH225819   6.496   0.866   8.469 -0.1379  0.3746  0.2500
 1395TIP3    H125820   6.407   0.873   8.505 -0.4184  0.6852 -0.4658
 1395TIP3    H225821   6.500   0.936   8.403  0.7044  0.4799  0.4026
 1396TIP3   OH225822   5.870   0.330   1.540 -0.3752  0.3972  0.4558
 1396TIP3    H125823   5.855   0.423   1.553  2.6741  1.0158  0.3272
 1396TIP3    H225824   5.892   0.321   1.447 -0.6219 -0.4479  0.4672
 1397TIP3   OH225825   5.847   4.078   1.529 -0.4519  0.2099  0.9621
 1397TIP3    H125826   5.801   4.145   1.480  0.0479 -0.9153 -1.1414
 1397TIP3    H225827   5.829   3.997   1.481 -1.0091 -1.2010  3.3758
 1398TIP3   OH225828   6.189   3.248   0.431 -0.0486  0.0143  0.7432
 1398TIP3    H125829   6.120   3.182   0.436  0.1944 -0.7437 -3.0232
 1398TIP3    H225830   6.269   3.203   0.459 -0.1025 -0.9608 -0.6119
 1399TIP3   OH225831   5.052   1.114   8.291  0.0959  0.2730  0.0700
 1399TIP3    H125832   5.110   1.190   8.293  1.5710 -0.6921 -2.1648
 1399TIP3    H225833   5.023   1.109   8.200 -1.7735 -0.5667  0.6609
 1400TIP3   OH225834   4.001   2.780   0.097  0.3447  0.6899 -0.1131
 1400TIP3    H125835   4.001   2.785   0.193  0.0363  0.4490 -0.0999
 1400TIP3    H225836   4.084   2.737   0.076 -0.1830 -0.5050  0.1219
 1401TIP3   OH225837   1.946   5.766   0.468  0.1499  0.3394 -0.0795
 1401TIP3    H125838   1.987   5.696   0.518 -1.6319 -0.5275  0.2404
 1401TIP3    H225839   1.883   5.805   0.529  0.9168  2.0776 -0.3302
 1402TIP3   OH225840   5.890   0.689   0.671 -0.1465  0.2791 -0.6050
 1402TIP3    H125841   5.803   0.695   0.634 -1.0864 -2.0553  0.9999
 1402TIP3    H225842   5.890   0.752   0.743 -0.3948  0.4559 -0.7585
 1403TIP3   OH225843   1.065   3.787   0.687  0.5719  0.0251  0.5040
 1403TIP3    H125844   1.072   3.695   0.661  0.4694  0.2170 -0.2324
 1403TIP3    H225845   1.044   3.784   0.780  0.5778 -0.6961  0.4911
 1404TIP3   OH225846   4.403   6.676   7.669 -0.0518 -0.0509 -0.5442
 1404TIP3    H125847   4.311   6.654   7.654 -0.1229 -0.0875 -0.0605
 1404TIP3    H225848   4.402   6.770   7.687 -0.1166 -0.2434  0.4745
 1405TIP3   OH225849   2.351   4.037   0.818 -0.0644  0.0308 -0.3410
 1405TIP3    H125850   2.274   4.048   0.762 -0.2166  2.4103  0.2156
 1405TIP3    H225851   2.319   3.989   0.894 -0.5596 -0.6095 -0.9527
 1406TIP3   OH225852   5.282   2.641   2.402  0.0738  0.5718 -0.0678
 1406TIP3    H125853   5.314   2.726   2.372  1.1604 -0.0516 -0.7554
 1406TIP3    H225854   5.354   2.604   2.453  0.8225 -1.1456 -2.1905
 1407TIP3   OH225855   1.820   5.126   7.825 -0.2210 -0.5756  0.1485
 1407TIP3    H125856   1.777   5.106   7.908 -0.9976 -1.6986 -0.4945
 1407TIP3    H225857   1.907   5.157   7.850 -0.9954  0.6778  1.4294
 1408TIP3   OH225858   3.250   5.917   7.770 -0.4445 -0.3095 -0.2187
 1408TIP3    H125859   3.178   5.966   7.730 -0.1448 -0.2452 -0.6832
 1408TIP3    H225860   3.220   5.826   7.769 -0.8704 -0.1859  0.3624
 1409TIP3   OH225861   3.458   1.004   0.745 -0.2219  0.1179 -0.3059
 1409TIP3    H125862   3.522   1.001   0.674 -0.4576  1.5416 -0.5991
 1409TIP3    H225863   3.511   1.018   0.824 -0.1394  1.2852 -0.5468
 1410TIP3   OH225864   0.963   0.513   8.237  0.1240  0.5695  0.4501
 1410TIP3    H125865   1.035   0.465   8.279 -0.2356 -0.2474  0.1524
 1410TIP3    H225866   0.934   0.575   8.304 -1.7088 -1.9790  2.2176
 1411TIP3   OH225867   6.360   0.771   0.771 -0.2420  0.1298 -0.8351
 1411TIP3    H125868   6.281   0.734   0.732 -1.2503 -0.6087  1.6797
 1411TIP3    H225869   6.330   0.851   0.814 -0.0117 -0.8747  1.3387
 1412TIP3   OH225870   2.797   4.258   8.009  0.1995  0.4217 -0.5111
 1412TIP3    H125871   2.831   4.308   8.082 -0.1313  2.0726 -1.4493
 1412TIP3    H225872   2.703   4.250   8.027  0.4684 -1.2349  0.3894
 1413TIP3   OH225873   2.288   1.948   0.932  0.6258 -0.3929 -0.3054
 1413TIP3    H125874   2.329   1.937   1.018 -1.0234 -0.2391  0.5374
 1413TIP3    H225875   2.241   2.031   0.938 -0.0192 -0.6849 -1.1360
 1414TIP3   OH225876   2.701   6.159   8.642  0.2486  0.1003  0.1198
 1414TIP3    H125877   2.795   6.158   8.660  0.1880  0.0715  0.4331
 1414TIP3    H225878   2.681   6.252   8.632  0.3998  0.0786 -0.4282
 1415TIP3   OH225879   1.713   2.495   1.010 -0.1436  0.1481  0.0767
 1415TIP3    H125880   1.648   2.484   1.080 -0.7025 -0.0148 -0.4600
 1415TIP3    H225881   1.794   2.461   1.048 -0.1998  0.9896  1.0018
 1416TIP3   OH225882   3.494   1.889   8.008  0.0538  0.1935  0.1652
 1416TIP3    H125883   3.589   1.891   8.012  0.0300  3.2246  2.1301
 1416TIP3    H225884   3.471   1.949   7.936 -0.4438 -1.2868 -0.9782
 1417TIP3   OH225885   4.596   6.430   7.655 -0.5585 -0.2595  0.2742
 1417TIP3    H125886   4.642   6.506   7.689  1.3149 -0.9439 -0.5876
 1417TIP3    H225887   4.521   6.466   7.607 -1.3817  0.8493  2.2665
 1418TIP3   OH225888   2.147   3.033   1.837  0.5002  0.4794  0.4176
 1418TIP3    H125889   2.082   2.963   1.840  0.2035  0.7143 -0.3100
 1418TIP3    H225890   2.203   3.011   1.763  0.4488  0.9653  0.2254
 1419TIP3   OH225891   3.192   0.476   8.108 -0.0342  0.1770 -0.0397
 1419TIP3    H125892   3.191   0.381   8.096 -2.1955  0.1437 -0.0032
 1419TIP3    H225893   3.262   0.507   8.050  1.6542 -1.5151  0.9982
 1420TIP3   OH225894   2.983   1.154   8.116 -0.1370 -0.3538  0.0918
 1420TIP3    H125895   2.974   1.068   8.075  0.1273  0.0883 -0.9228
 1420TIP3    H225896   3.077   1.169   8.122 -0.1672  0.3702 -0.8772
 1421TIP3   OH225897   3.699   1.244   8.459 -0.3301 -0.2566  0.1570
 1421TIP3    H125898   3.615   1.290   8.455  0.4314  1.0860 -1.3835
 1421TIP3    H225899   3.764   1.312   8.472  0.8607 -0.7476 -2.5476
 1422TIP3   OH225900   3.958   0.338   1.415  0.2813  0.0116  0.4127
 1422TIP3    H125901   3.873   0.359   1.456  0.7151  1.0571  0.8289
 1422TIP3    H225902   3.935   0.298   1.332 -0.6457 -2.1805  1.6480
 1423TIP3   OH225903   5.245   0.468   8.789  0.0807 -0.7378 -0.3216
 1423TIP3    H125904   5.226   0.476   8.696 -0.9402  1.4545  0.0228
 1423TIP3    H225905   5.177   0.409   8.822 -0.2694 -0.5826 -0.7596
 1424TIP3   OH225906   2.398   4.078   8.731  0.3795  0.0089  0.1348
 1424TIP3    H125907   2.343   4.156   8.735  1.4029  0.7322  0.4166
 1424TIP3    H225908   2.465   4.098   8.667  0.7045 -0.6163  0.2651
 1425TIP3   OH225909   5.106   1.517   2.457 -0.0673 -0.1647 -0.2499
 1425TIP3    H125910   5.014   1.531   2.479  0.2643  2.0700 -0.0811
 1425TIP3    H225911   5.151   1.514   2.541  0.2027  0.3469 -0.3714
 1426TIP3   OH225912   4.590   2.791   0.745 -0.4118 -0.3528 -0.2970
 1426TIP3    H125913   4.571   2.774   0.837  1.4083  1.0928  0.4108
 1426TIP3    H225914   4.614   2.884   0.743 -2.1926  0.1359 -2.5605
 1427TIP3   OH225915   1.932   1.271   0.371  0.6302  0.5096 -0.2042
 1427TIP3    H125916   1.885   1.194   0.405  1.5881  0.8952  2.1650
 1427TIP3    H225917   1.974   1.239   0.291  0.0591 -1.1011  0.0842
 1428TIP3   OH225918   5.072   4.799   8.147 -0.5570 -0.8026  0.2674
 1428TIP3    H125919   5.079   4.705   8.135  0.8831 -0.7233  0.3374
 1428TIP3    H225920   5.007   4.827   8.082 -1.4540 -1.9108  0.6688
 1429TIP3   OH225921   3.454   4.762   0.528 -1.0650  0.3321 -0.0259
 1429TIP3    H125922   3.479   4.801   0.612  0.2805  2.4919 -1.3451
 1429TIP3    H225923   3.537   4.739   0.487 -1.7130 -0.7924 -0.7558
 1430TIP3   OH225924   4.763   5.038   7.609 -0.0542 -0.0590  0.6322
 1430TIP3    H125925   4.809   5.122   7.602  0.4227 -0.3927 -0.5792
 1430TIP3    H225926   4.677   5.061   7.642 -0.1311  0.9997 -0.2096
 1431TIP3   OH225927   1.559   1.713   1.080 -0.2410 -0.2696  0.8352
 1431TIP3    H125928   1.469   1.697   1.050 -1.2468  3.4417  1.3601
 1431TIP3    H225929   1.606   1.632   1.060 -3.0447 -1.4080 -1.9519
 1432TIP3   OH225930   2.127   5.781   2.828 -0.2485  0.9272 -0.1429
 1432TIP3    H125931   2.140   5.751   2.738 -0.5933  1.1407 -0.2619
 1432TIP3    H225932   2.167   5.712   2.882 -2.4454 -0.5924 -0.3496
 1433TIP3   OH225933   5.459   5.439   0.644 -0.2943  0.3028 -0.0739
 1433TIP3    H125934   5.519   5.365   0.633 -0.1198  0.3936  0.2774
 1433TIP3    H225935   5.374   5.398   0.658 -0.5411  0.1675 -1.7255
 1434TIP3   OH225936   2.651   5.510   1.467  0.8584  0.3908 -0.3268
 1434TIP3    H125937   2.743   5.530   1.451  0.6357  2.2839  0.5172
 1434TIP3    H225938   2.650   5.473   1.555  0.8291  0.1931 -0.4098
 1435TIP3   OH225939   4.336   3.695   7.933 -0.1561 -0.4607 -0.3949
 1435TIP3    H125940   4.251   3.710   7.973 -0.3781  0.4741 -1.1674
 1435TIP3    H225941   4.319   3.630   7.864 -0.3806  0.1691 -0.9474
 1436TIP3   OH225942   0.053   1.816   2.821  0.0372 -0.3422  0.6202
 1436TIP3    H125943   0.126   1.867   2.857 -1.0289  1.2828  0.5945
 1436TIP3    H225944  -0.020   1.878   2.818 -1.1377 -1.7060 -0.0914
 1437TIP3   OH225945   6.148   3.046   0.800  0.4020  0.6868 -0.3185
 1437TIP3    H125946   6.106   3.127   0.771  0.6678  0.9836  0.1206
 1437TIP3    H225947   6.156   2.993   0.720 -0.7582  0.6353 -0.4167
 1438TIP3   OH225948   2.696   4.077   7.791 -0.4693 -0.4545  0.2206
 1438TIP3    H125949   2.608   4.053   7.821 -0.9542  1.0510  0.0695
 1438TIP3    H225950   2.742   4.105   7.870  0.6894 -3.3955  0.7084
 1439TIP3   OH225951   2.926   0.142   1.187 -0.4177  0.7479  0.7655
 1439TIP3    H125952   2.984   0.067   1.174 -0.0297  1.1805 -0.0748
 1439TIP3    H225953   2.868   0.115   1.258 -0.4421 -0.4381  0.3218
 1440TIP3   OH225954   1.855   1.448   1.832  0.2159 -0.0017 -0.6447
 1440TIP3    H125955   1.802   1.381   1.791  0.7001 -2.1388  1.9655
 1440TIP3    H225956   1.936   1.449   1.781 -0.6003  0.1524 -1.9790
 1441TIP3   OH225957   6.722   4.290   1.367  0.2346 -0.1827 -0.2555
 1441TIP3    H125958   6.713   4.384   1.356  0.2333 -0.1997 -0.3980
 1441TIP3    H225959   6.690   4.253   1.285 -0.1645 -0.3260 -0.0388
 1442TIP3   OH225960   0.754   3.449   7.842  0.3056  0.7228  0.1369
 1442TIP3    H125961   0.701   3.491   7.910 -0.6759 -0.4704  0.1278
 1442TIP3    H225962   0.837   3.428   7.886 -0.7480 -1.1069  1.3496
 1443TIP3   OH225963   3.669   0.418   1.488 -0.0494 -0.0085  0.3786
 1443TIP3    H125964   3.591   0.469   1.511  0.2514  1.5738 -1.7838
 1443TIP3    H225965   3.635   0.346   1.433  0.0590  1.7134 -2.1140
 1444TIP3   OH225966   4.651   6.167   7.562 -0.5422 -0.3686  0.0458
 1444TIP3    H125967   4.568   6.120   7.561 -1.2643  0.7628  1.7465
 1444TIP3    H225968   4.633   6.246   7.613  1.2954  0.4594 -0.5095
 1445TIP3   OH225969   4.330   3.092   0.881 -0.1402  0.6344 -0.2588
 1445TIP3    H125970   4.297   3.180   0.899  1.0783  0.8642  1.0247
 1445TIP3    H225971   4.320   3.082   0.786 -0.3711  2.1236 -0.4187
 1446TIP3   OH225972   2.962   6.535   1.594  0.0529  0.5744 -0.0309
 1446TIP3    H125973   2.876   6.566   1.564 -0.2705 -0.4344 -0.1849
 1446TIP3    H225974   2.960   6.546   1.689  0.5936  2.5823 -0.2086
 1447TIP3   OH225975   5.828   4.256   1.857 -0.8703  0.4074  0.2290
 1447TIP3    H125976   5.773   4.312   1.911  1.2480  1.2720  1.6431
 1447TIP3    H225977   5.832   4.173   1.904 -0.9643  0.3379  0.1155
 1448TIP3   OH225978   5.911   3.387   7.475  0.3294 -0.8970 -0.0378
 1448TIP3    H125979   5.969   3.317   7.444  0.0312 -1.5419  0.7893
 1448TIP3    H225980   5.831   3.341   7.501 -0.7980  0.0428 -1.7125
 1449TIP3   OH225981   2.916   0.830   0.527 -0.1609  0.4007 -0.5340
 1449TIP3    H125982   2.986   0.767   0.540 -0.4016  0.1190 -0.6102
 1449TIP3    H225983   2.842   0.794   0.575 -0.9153 -0.3875 -2.2304
 1450TIP3   OH225984   0.616   0.939   8.237  0.4884  0.2181  0.4504
 1450TIP3    H125985   0.639   1.026   8.202 -0.1963  1.1118  2.1195
 1450TIP3    H225986   0.531   0.920   8.198  1.0548 -0.1469 -0.6465
 1451TIP3   OH225987   1.342   3.619   0.825 -0.3329 -0.3067 -0.5662
 1451TIP3    H125988   1.423   3.600   0.777 -0.0235  1.6406 -0.8882
 1451TIP3    H225989   1.272   3.596   0.764  0.0389  0.5010 -1.3279
 1452TIP3   OH225990   5.182   6.090   7.786  0.0546 -0.0456 -0.4048
 1452TIP3    H125991   5.242   6.107   7.713  1.2710 -0.0279  0.5617
 1452TIP3    H225992   5.224   6.019   7.835 -1.1361 -0.5907 -0.1469
 1453TIP3   OH225993   1.024   0.832   7.604 -0.1149 -0.4246  0.5738
 1453TIP3    H125994   1.045   0.913   7.559 -0.9630 -0.4693  0.0639
 1453TIP3    H225995   1.031   0.852   7.697  0.2339  0.0748  0.4389
 1454TIP3   OH225996   5.760   0.328   0.238  0.3097  0.4178  0.4139
 1454TIP3    H125997   5.849   0.337   0.204  0.7121 -0.1783  1.2726
 1454TIP3    H225998   5.770   0.328   0.333 -0.6888  1.0674  0.5428
 1455TIP3   OH225999   3.963   3.027   2.887  0.0842  0.4901  0.0828
 1455TIP3    H126000   3.913   3.101   2.853  0.0515  0.3101 -0.2589
 1455TIP3    H226001   3.993   3.057   2.973  1.3107  1.4597 -0.6419
 1456TIP3   OH226002   1.508   4.426   0.822 -0.4648 -0.8021  0.0391
 1456TIP3    H126003   1.492   4.332   0.830  1.1744 -1.0255  0.9912
 1456TIP3    H226004   1.579   4.444   0.883 -0.9758  1.1322  0.1359
 1457TIP3   OH226005   6.433   0.537   2.863  0.1662  0.3579  0.0749
 1457TIP3    H126006   6.503   0.509   2.923 -0.6050 -1.9757 -0.0082
 1457TIP3    H226007   6.443   0.481   2.786 -1.2876  0.5409 -0.2788
 1458TIP3   OH226008   6.452   4.467   0.378 -0.2240  0.0268  0.2093
 1458TIP3    H126009   6.400   4.438   0.453 -2.1469  0.9662 -0.6856
 1458TIP3    H226010   6.525   4.515   0.416 -0.1515 -1.0640  1.5125
 1459TIP3   OH226011   5.573   5.230   8.570 -0.2419 -0.1587  0.2959
 1459TIP3    H126012   5.618   5.227   8.485  3.0536  1.2401  1.8433
 1459TIP3    H226013   5.581   5.142   8.604 -2.6797 -1.0864 -1.2080
 1460TIP3   OH226014   3.897   2.606   2.343  0.3509 -0.2050  0.1332
 1460TIP3    H126015   3.895   2.702   2.344  0.1413 -0.2098  0.2048
 1460TIP3    H226016   3.806   2.580   2.349  0.4685 -0.4187  1.4848
 1461TIP3   OH226017   1.922   1.598   8.260 -0.8086  0.4316 -0.7116
 1461TIP3    H126018   1.894   1.556   8.341  1.1916  0.1776 -0.1193
 1461TIP3    H226019   1.933   1.526   8.198  0.1925  0.3222 -0.4236
 1462TIP3   OH226020   3.355   2.201   2.382 -0.4228 -0.2284 -0.0553
 1462TIP3    H126021   3.384   2.111   2.367  0.2472  0.3619 -2.6110
 1462TIP3    H226022   3.260   2.195   2.385 -0.3663 -1.0806  0.3198
 1463TIP3   OH226023   3.639   6.350   1.621 -0.1083  0.1384 -0.3851
 1463TIP3    H126024   3.636   6.258   1.596  0.9287  0.0970 -0.4048
 1463TIP3    H226025   3.579   6.394   1.560 -2.1147 -0.7671  0.8542
 1464TIP3   OH226026   4.294   6.368   2.629  0.2621  0.4263 -0.0054
 1464TIP3    H126027   4.261   6.281   2.605  0.0658  0.4308  0.2342
 1464TIP3    H226028   4.332   6.355   2.716 -0.6476  0.7829  0.4597
 1465TIP3   OH226029   6.662   5.112   8.533  0.5308  0.0309  0.2981
 1465TIP3    H126030   6.650   5.114   8.628  0.1307  1.7835  0.2471
 1465TIP3    H226031   6.573   5.103   8.498  0.8027 -2.3883  0.0643
 1466TIP3   OH226032   1.659   0.730   1.099  0.4230 -0.2279  0.0606
 1466TIP3    H126033   1.614   0.810   1.124 -0.5848 -0.9149  0.5432
 1466TIP3    H226034   1.702   0.751   1.016 -1.2464  0.3193 -0.7136
 1467TIP3   OH226035   5.274   3.543   0.979 -0.3411 -0.2928 -0.1142
 1467TIP3    H126036   5.209   3.613   0.987  1.2638  1.4799 -1.5546
 1467TIP3    H226037   5.233   3.479   0.920  0.0615  2.0472 -3.1853
 1468TIP3   OH226038   6.400   3.303   1.129  0.1670 -0.6119  0.5528
 1468TIP3    H126039   6.365   3.387   1.156  2.4872  0.4183  0.5692
 1468TIP3    H226040   6.490   3.302   1.162  1.0379 -1.9997 -1.6423
 1469TIP3   OH226041   4.442   3.862   1.194  0.1863  0.1141  0.5259
 1469TIP3    H126042   4.357   3.906   1.188  1.7317  3.1833 -1.0729
 1469TIP3    H226043   4.457   3.850   1.288 -2.5141 -1.8580  0.8520
 1470TIP3   OH226044   0.313   6.172   7.960  0.3554  0.1744 -0.0405
 1470TIP3    H126045   0.314   6.078   7.944 -0.4438  0.2303 -0.5370
 1470TIP3    H226046   0.350   6.183   8.047  0.6643 -0.5785 -0.0713
 1471TIP3   OH226047   2.542   1.444   8.564 -0.2272 -0.0579  0.2700
 1471TIP3    H126048   2.605   1.386   8.523 -1.9407 -2.5623  0.9237
 1471TIP3    H226049   2.499   1.390   8.630 -2.5352  1.7047  0.3517
 1472TIP3   OH226050   3.198   0.262   8.429 -0.0763 -0.3156 -0.2566
 1472TIP3    H126051   3.160   0.238   8.514 -0.5837 -0.7394 -0.6004
 1472TIP3    H226052   3.273   0.318   8.452 -0.7917  0.3992  0.4438
 1473TIP3   OH226053   2.821   4.889   2.213  0.7160 -0.0474  0.8669
 1473TIP3    H126054   2.852   4.812   2.165 -1.7391 -1.0130  0.7055
 1473TIP3    H226055   2.741   4.860   2.257 -0.6816  2.5622  0.2766
 1474TIP3   OH226056   0.233   3.001   0.398 -0.1645  0.1497 -0.4501
 1474TIP3    H126057   0.139   2.984   0.390 -0.3490 -0.4826  2.2582
 1474TIP3    H226058   0.239   3.083   0.445  0.6452 -0.0129 -0.2514
 1475TIP3   OH226059   2.441   6.659   8.740  0.6907 -0.0565 -0.1056
 1475TIP3    H126060   2.480   6.598   8.804  1.2895  0.7487  0.3063
 1475TIP3    H226061   2.463   6.746   8.773  0.8338  0.3811 -1.3021
 1476TIP3   OH226062   1.509   3.304   0.631  0.3636  0.2165  0.3380
 1476TIP3    H126063   1.483   3.230   0.685  0.8691 -0.0911  0.1627
 1476TIP3    H226064   1.544   3.368   0.693  0.5873  0.0197  0.4127
 1477TIP3   OH226065   6.398   1.667   7.606 -0.0907 -0.0572 -0.1481
 1477TIP3    H126066   6.470   1.632   7.553  1.6913 -0.7301  2.5530
 1477TIP3    H226067   6.371   1.595   7.662  0.1789  1.4249  2.0020
 1478TIP3   OH226068   2.144   5.741   0.002  0.0513 -0.0440  0.7792
 1478TIP3    H126069   2.195   5.806  -0.046 -2.0643  0.1318 -1.4584
 1478TIP3    H226070   2.101   5.791   0.072  0.4601  0.4316  0.6929
 1479TIP3   OH226071   2.204   5.939   2.131  0.2339  0.5370  0.1952
 1479TIP3    H126072   2.247   6.024   2.119 -1.4659  1.3392 -0.5196
 1479TIP3    H226073   2.160   5.922   2.048  0.9293 -1.3123  0.1535
 1480TIP3   OH226074   0.574   5.178   8.536 -0.5364  0.2129  0.3724
 1480TIP3    H126075   0.508   5.210   8.597  0.4386  0.3450  1.3873
 1480TIP3    H226076   0.609   5.257   8.495  1.7984  0.5941  2.8034
 1481TIP3   OH226077   2.931   2.715   8.171  0.0301  0.5131 -0.0191
 1481TIP3    H126078   2.859   2.662   8.203 -0.7415  0.1832 -2.1727
 1481TIP3    H226079   3.005   2.690   8.226 -0.7840 -1.3455  0.3030
 1482TIP3   OH226080   1.269   2.147   2.864  0.3893  0.4558 -0.3373
 1482TIP3    H126081   1.303   2.084   2.927 -1.0091 -0.6595 -0.6458
 1482TIP3    H226082   1.336   2.215   2.859  0.6505  0.4500  2.1344
 1483TIP3   OH226083   1.200   4.416   0.339  0.0081  0.4165  0.5402
 1483TIP3    H126084   1.142   4.434   0.265  1.3997 -1.4358 -1.1221
 1483TIP3    H226085   1.241   4.332   0.317  1.3775  0.3856  2.8784
 1484TIP3   OH226086   4.710   0.320   0.527  0.1008 -0.5198 -0.3476
 1484TIP3    H126087   4.617   0.299   0.522 -0.0658  0.2860 -0.8453
 1484TIP3    H226088   4.751   0.241   0.563 -1.2050  0.3716  3.6081
 1485TIP3   OH226089   0.355   0.192   7.218  0.1605  0.0178 -0.0074
 1485TIP3    H126090   0.347   0.288   7.220 -2.8849 -0.1257  1.9598
 1485TIP3    H226091   0.337   0.169   7.127  0.5005  1.2713 -0.4215
 1486TIP3   OH226092   0.208   3.298   6.846  0.2958 -0.4572 -0.1648
 1486TIP3    H126093   0.168   3.256   6.770 -0.8734  0.1642  0.0761
 1486TIP3    H226094   0.212   3.391   6.823 -0.5771 -0.1821  0.7225
 1487TIP3   OH226095   0.022   4.175   2.290 -0.0144 -0.1424 -0.4720
 1487TIP3    H126096   0.059   4.171   2.378  2.2662  1.8649 -1.2477
 1487TIP3    H226097   0.035   4.265   2.262 -1.6927 -0.4460 -2.4778
 1488TIP3   OH226098   5.539   5.594   1.750  0.2855  0.7377  0.3030
 1488TIP3    H126099   5.473   5.626   1.688  0.0470  0.4216  0.3880
 1488TIP3    H226100   5.543   5.660   1.818 -0.3839  0.4744  0.6049
 1489TIP3   OH226101   4.650   4.410   1.144  0.6386 -0.6309 -0.3228
 1489TIP3    H126102   4.720   4.450   1.094 -0.5262 -0.6655 -2.0757
 1489TIP3    H226103   4.674   4.317   1.149  0.9552 -0.5579 -0.4963
 1490TIP3   OH226104   0.606   2.129   1.540 -0.8510  0.1850 -0.7107
 1490TIP3    H126105   0.567   2.185   1.607  1.0632 -1.0612  1.6119
 1490TIP3    H226106   0.532   2.093   1.493 -2.4681 -0.4338  2.0720
 1491TIP3   OH226107   0.210   2.046   1.851 -0.3313  0.2260 -0.0090
 1491TIP3    H126108   0.248   2.132   1.866  0.8092  0.1508 -2.0586
 1491TIP3    H226109   0.285   1.986   1.847 -1.1414 -1.1009  2.2998
 1492TIP3   OH226110   4.346   5.425   0.480 -0.0482  0.2013 -0.5462
 1492TIP3    H126111   4.318   5.511   0.447  1.3408  1.2067  0.7177
 1492TIP3    H226112   4.436   5.439   0.507 -0.1705 -1.3470  0.8025
 1493TIP3   OH226113   6.160   5.559   1.011 -0.5510  1.3533  0.0132
 1493TIP3    H126114   6.206   5.484   0.974 -1.7102  1.2089 -1.2492
 1493TIP3    H226115   6.220   5.596   1.076 -0.0177 -0.7225  0.7529
 1494TIP3   OH226116   2.751   6.086   8.230 -0.3654  0.6191 -0.6013
 1494TIP3    H126117   2.673   6.108   8.180 -1.4693 -0.1598  0.7305
 1494TIP3    H226118   2.805   6.165   8.225 -2.4999  2.2993  0.8001
 1495TIP3   OH226119   6.155   5.944   0.381  0.2323 -0.7531  0.0743
 1495TIP3    H126120   6.117   5.868   0.424 -0.1076 -0.8252 -0.3536
 1495TIP3    H226121   6.093   5.968   0.313  0.4442 -0.2292  0.0529
 1496TIP3   OH226122   4.342   0.607   1.573 -0.5762 -0.1469 -0.2538
 1496TIP3    H126123   4.366   0.539   1.636 -0.6845 -0.6393 -0.7343
 1496TIP3    H226124   4.301   0.559   1.501 -1.6002  0.5271 -0.1399
 1497TIP3   OH226125   5.897   3.298   1.397  0.3622 -0.3193 -0.2901
 1497TIP3    H126126   5.956   3.360   1.439  0.3353 -0.3069 -0.2706
 1497TIP3    H226127   5.948   3.217   1.391  0.7145 -0.0469 -1.1347
 1498TIP3   OH226128   0.952   2.915   0.933 -0.0415 -0.0344 -0.1405
 1498TIP3    H126129   0.867   2.945   0.903 -0.8306 -0.1415  1.8776
 1498TIP3    H226130   1.015   2.961   0.877 -1.3241  2.1438  0.1019
 1499TIP3   OH226131   3.422   2.142   1.012 -0.4443  0.1112  0.0003
 1499TIP3    H126132   3.354   2.174   1.071 -0.5777 -0.7475  0.3252
 1499TIP3    H226133   3.404   2.049   1.003 -0.5996  0.2626 -1.6250
 1500TIP3   OH226134   1.027   2.808   1.903  0.5430 -0.4639 -0.5231
 1500TIP3    H126135   1.053   2.719   1.877  1.9990 -0.3806  0.4803
 1500TIP3    H226136   1.019   2.803   1.998 -0.1914  0.2893 -0.5386
 1501TIP3   OH226137   2.398   5.027   8.738  0.2935 -0.0411  0.2330
 1501TIP3    H126138   2.406   5.048   8.645  2.5924 -0.1081  0.3410
 1501TIP3    H226139   2.312   5.060   8.764  0.1118  1.0570 -1.6443
 1502TIP3   OH226140   3.829   0.537   8.716 -0.3271 -0.3807  1.3377
 1502TIP3    H126141   3.764   0.494   8.659  0.0605 -0.8747  1.2640
 1502TIP3    H226142   3.848   0.619   8.671  1.5149 -1.6514 -0.3807
 1503TIP3   OH226143   6.767   1.858   2.253 -0.0191  0.0504 -0.5296
 1503TIP3    H126144   6.834   1.923   2.232 -0.0056 -0.0284 -0.7320
 1503TIP3    H226145   6.735   1.884   2.340 -2.0002  2.0164 -1.7539
 1504TIP3   OH226146   0.993   6.276   2.701 -0.3075  0.2193  0.1623
 1504TIP3    H126147   0.927   6.302   2.765 -0.5544  1.5623 -0.6028
 1504TIP3    H226148   1.076   6.304   2.740 -0.4484  0.9462 -0.0407
 1505TIP3   OH226149   4.854   2.734   8.673  0.1763 -0.3459 -0.1764
 1505TIP3    H126150   4.823   2.824   8.686  1.0837  0.0724 -0.7801
 1505TIP3    H226151   4.879   2.704   8.761  0.5214  0.2479 -0.0655
 1506TIP3   OH226152   3.612   2.207   7.876  0.1984 -0.3591  0.0413
 1506TIP3    H126153   3.707   2.193   7.870  0.0891 -1.2693  0.2940
 1506TIP3    H226154   3.602   2.302   7.867  1.2051 -0.1462  0.8733
 1507TIP3   OH226155   0.788   6.550   1.331  0.3939  0.1445  0.1678
 1507TIP3    H126156   0.875   6.510   1.335  1.6434  2.5933 -0.3945
 1507TIP3    H226157   0.742   6.503   1.261  2.9664  1.6789 -2.8058
 1508TIP3   OH226158   4.074   3.730   1.786  0.2545  0.3777  0.3381
 1508TIP3    H126159   4.100   3.817   1.755  1.3795 -0.3917 -0.9660
 1508TIP3    H226160   3.987   3.717   1.750  0.2148  0.8308  0.2632
 1509TIP3   OH226161   3.869   3.844   8.500 -0.0294  0.0263  0.0280
 1509TIP3    H126162   3.783   3.819   8.467  0.6969 -3.0138  0.1630
 1509TIP3    H226163   3.856   3.860   8.593 -0.8862  2.2909 -0.4278
 1510TIP3   OH226164   4.085   6.497   8.826 -0.3030  0.1425  0.1112
 1510TIP3    H126165   4.130   6.569   8.870 -1.9410  1.8835 -0.9082
 1510TIP3    H226166   4.124   6.495   8.738 -0.6066  0.1112 -0.0238
 1511TIP3   OH226167   0.985   3.679   2.196  0.0104 -0.9859 -0.0116
 1511TIP3    H126168   1.031   3.596   2.207 -0.8278 -1.4912 -0.1723
 1511TIP3    H226169   0.937   3.669   2.114  1.1940  0.3072 -0.8985
 1512TIP3   OH226170   5.292   1.211   2.658 -0.3616 -0.0410  0.6306
 1512TIP3    H126171   5.286   1.168   2.744  0.5441 -1.4001  0.0637
 1512TIP3    H226172   5.318   1.140   2.599 -0.0764  1.0648 -0.5972
 1513TIP3   OH226173   2.182   4.113   8.026 -0.2218  0.7344  0.1406
 1513TIP3    H126174   2.111   4.123   7.963 -0.3210 -0.0993  0.1047
 1513TIP3    H226175   2.143   4.062   8.098  0.2756  0.4537  0.2165
 1514TIP3   OH226176   3.604   3.133   8.540 -0.1768 -1.1279 -0.3307
 1514TIP3    H126177   3.682   3.153   8.490  0.7914  0.9587  1.8114
 1514TIP3    H226178   3.532   3.172   8.490  0.8871  1.8937  0.2722
 1515TIP3   OH226179   3.131   3.605   0.770 -0.3044  0.0668  0.2378
 1515TIP3    H126180   3.066   3.632   0.835 -1.1240 -1.4020  0.0701
 1515TIP3    H226181   3.116   3.511   0.759 -1.9706  0.5835 -3.9563
 1516TIP3   OH226182   0.627   6.728   1.461  0.5766  0.2943 -0.0061
 1516TIP3    H126183   0.644   6.636   1.444  1.2136  0.5105 -0.5952
 1516TIP3    H226184   0.709   6.773   1.437  0.7365  0.8800  1.5083
 1517TIP3   OH226185   4.440   1.684   0.275 -0.4067  0.3552 -0.1256
 1517TIP3    H126186   4.419   1.720   0.188  0.8362  0.5061 -0.3833
 1517TIP3    H226187   4.486   1.603   0.257  2.7210  1.8889  0.2208
 1518TIP3   OH226188   6.619   0.871   8.023  0.4211  0.4950 -0.1861
 1518TIP3    H126189   6.706   0.870   7.983 -0.3772  0.7181 -2.0300
 1518TIP3    H226190   6.589   0.780   8.016 -0.3341  0.8246 -1.5761
 1519TIP3   OH226191   1.481   0.359   0.784  0.2208 -0.4068 -0.4622
 1519TIP3    H126192   1.473   0.361   0.879 -0.7357 -0.2622 -0.5380
 1519TIP3    H226193   1.448   0.444   0.755  1.2723 -0.1197 -0.8834
 1520TIP3   OH226194   3.116   4.415   0.653  0.7248 -0.3575  0.0323
 1520TIP3    H126195   3.138   4.324   0.637  0.8916 -0.1629 -0.9082
 1520TIP3    H226196   3.128   4.458   0.569 -1.7592  0.0649 -0.1912
 1521TIP3   OH226197   1.141   6.584   0.539 -0.0087  0.2743  0.2745
 1521TIP3    H126198   1.145   6.677   0.559 -0.7949  0.3129  0.2911
 1521TIP3    H226199   1.076   6.549   0.600 -0.9736  0.0311 -0.8611
 1522TIP3   OH226200   5.409   5.346   0.908 -0.4810  0.3134  0.4661
 1522TIP3    H126201   5.326   5.391   0.891  0.2586  1.3010 -0.6879
 1522TIP3    H226202   5.423   5.358   1.002 -0.7195  1.8023  0.3362
 1523TIP3   OH226203   1.560   6.417   8.127 -0.3489  0.2884  0.4034
 1523TIP3    H126204   1.589   6.502   8.159  0.5603  0.7362 -1.5153
 1523TIP3    H226205   1.618   6.397   8.053  0.3697 -2.6293  1.5976
 1524TIP3   OH226206   1.185   5.345   7.836  0.3719  0.3666  0.2348
 1524TIP3    H126207   1.198   5.440   7.832 -0.4288  0.4888  0.4982
 1524TIP3    H226208   1.117   5.332   7.902 -2.9571 -0.0244 -2.9318
 1525TIP3   OH226209   2.538   4.588   8.742  0.6479 -0.4313  0.1011
 1525TIP3    H126210   2.459   4.625   8.702  0.4201 -0.3124  0.6553
 1525TIP3    H226211   2.575   4.660   8.794  1.2687 -0.4048 -0.3634
 1526TIP3   OH226212   1.059   1.923   2.047  0.6584 -0.0301  0.0772
 1526TIP3    H126213   1.063   1.835   2.010 -0.5921  0.7521 -2.1071
 1526TIP3    H226214   1.062   1.981   1.971 -1.0697  1.7249  1.2472
 1527TIP3   OH226215   0.618   4.202   8.407 -0.1323  0.2292 -0.2782
 1527TIP3    H126216   0.687   4.265   8.387 -0.3810  0.0398 -1.8646
 1527TIP3    H226217   0.636   4.175   8.497  0.4425  1.9495  0.1712
 1528TIP3   OH226218   1.718   0.052   2.040 -0.1805 -0.0766  0.3527
 1528TIP3    H126219   1.780  -0.017   2.063  2.1761  1.8720  0.2511
 1528TIP3    H226220   1.675   0.021   1.961  2.2953 -0.6423 -0.8787
 1529TIP3   OH226221   0.217   4.638   0.466  0.3898  0.4837  0.4970
 1529TIP3    H126222   0.133   4.684   0.471  0.5008  0.7707 -0.2439
 1529TIP3    H226223   0.193   4.545   0.468 -0.2377  0.4354 -3.0012
 1530TIP3   OH226224   3.901   0.755   8.574  0.0530 -0.8087 -0.1955
 1530TIP3    H126225   3.843   0.831   8.574 -0.7791 -1.4363 -0.5218
 1530TIP3    H226226   3.984   0.790   8.540 -0.5672 -0.2237 -1.1627
 1531TIP3   OH226227   4.689   6.223   0.876  0.2036 -0.3582  0.1357
 1531TIP3    H126228   4.779   6.215   0.842 -0.1339 -1.1677 -0.6013
 1531TIP3    H226229   4.660   6.133   0.888 -0.1122 -0.0952  1.5033
 1532TIP3   OH226230   0.477   2.680   1.486  0.5885 -0.3811  0.0396
 1532TIP3    H126231   0.391   2.652   1.452 -0.3149  1.1595  0.9307
 1532TIP3    H226232   0.508   2.743   1.421  0.1597  0.4728  0.6565
 1533TIP3   OH226233   3.213   5.335   6.771  0.3141  0.0169  0.1651
 1533TIP3    H126234   3.160   5.344   6.850  0.9887  0.2167  0.5926
 1533TIP3    H226235   3.303   5.347   6.800  0.4560  1.9302 -0.9183
 1534TIP3   OH226236   0.938   0.698   1.894  0.0730 -0.6701 -0.4495
 1534TIP3    H126237   0.958   0.792   1.899 -1.6371 -0.3148  0.8317
 1534TIP3    H226238   0.978   0.669   1.812  1.6585  0.8994 -0.2918
 1535TIP3   OH226239   5.831   4.645   0.136 -0.1774  0.1986 -0.6236
 1535TIP3    H126240   5.905   4.696   0.104 -0.0117  1.2979  1.3200
 1535TIP3    H226241   5.823   4.670   0.229 -0.7795 -2.5192  0.1521
 1536TIP3   OH226242   1.949   0.998   1.221  0.0174 -0.2969  0.1831
 1536TIP3    H126243   2.005   1.075   1.210 -0.3953  0.5474  3.2676
 1536TIP3    H226244   1.911   1.008   1.308 -2.8590 -2.2254 -0.7312
 1537TIP3   OH226245   0.196   6.775   0.413 -0.3147 -0.0300 -0.2027
 1537TIP3    H126246   0.209   6.865   0.444 -1.3071 -0.2466  0.9432
 1537TIP3    H226247   0.266   6.760   0.350 -0.3823  1.6926 -0.7290
 1538TIP3   OH226248   5.321   3.590   7.707 -0.1650  0.3510  0.9815
 1538TIP3    H126249   5.359   3.642   7.636  0.5219 -0.2353  0.9104
 1538TIP3    H226250   5.365   3.505   7.701  0.0904  0.3769  2.2675
 1539TIP3   OH226251   5.887   6.845   6.937  0.0985 -0.2303 -0.1164
 1539TIP3    H126252   5.969   6.811   6.902  1.2658  2.2314 -0.0132
 1539TIP3    H226253   5.888   6.938   6.913 -1.4960  0.4063  1.9870
 1540TIP3   OH226254   4.605   0.337   8.332 -0.2479 -0.6578 -0.2268
 1540TIP3    H126255   4.644   0.422   8.315 -1.5735  0.0888  0.3860
 1540TIP3    H226256   4.640   0.280   8.263  0.0881  0.5460 -1.0631
 1541TIP3   OH226257   1.770   6.175   1.992 -0.1840 -0.2273 -0.4423
 1541TIP3    H126258   1.680   6.146   1.974 -1.3142  1.2280  2.2728
 1541TIP3    H226259   1.812   6.099   2.034 -0.9273 -0.1818  0.4099
 1542TIP3   OH226260   1.897   0.092   8.156 -0.4099 -0.0408  0.2629
 1542TIP3    H126261   1.814   0.071   8.111 -0.2587 -0.1043  0.0124
 1542TIP3    H226262   1.952   0.015   8.141 -0.8318 -0.6706  1.7308
 1543TIP3   OH226263   6.644   5.172   8.831  0.3002 -0.2027  0.0749
 1543TIP3    H126264   6.633   5.117   8.909 -2.4761 -0.1848 -0.1828
 1543TIP3    H226265   6.735   5.161   8.806  0.4295 -2.8766  1.3695
 1544TIP3   OH226266   2.397   2.754   1.981  0.1672  0.3698  0.0881
 1544TIP3    H126267   2.378   2.700   1.904  1.3747 -0.3110  0.2225
 1544TIP3    H226268   2.462   2.702   2.030  2.2509  2.4015 -0.3374
 1545TIP3   OH226269   4.032   0.713   8.156  0.5560 -0.6255  0.0794
 1545TIP3    H126270   3.995   0.756   8.079  2.1539 -1.7546 -1.3926
 1545TIP3    H226271   4.041   0.621   8.129  2.8532 -0.7050  0.9185
 1546TIP3   OH226272   0.947   5.452   1.476 -0.3233 -0.2737  0.0628
 1546TIP3    H126273   0.934   5.472   1.568  0.6171 -0.0937  0.1623
 1546TIP3    H226274   0.913   5.363   1.465  3.9853 -2.3917  1.7102
 1547TIP3   OH226275   1.623   1.643   0.495 -0.3843  0.7367 -0.1632
 1547TIP3    H126276   1.642   1.680   0.408 -0.6761  0.7085 -0.2396
 1547TIP3    H226277   1.626   1.718   0.554  0.2399  0.6923 -0.1285
 1548TIP3   OH226278   4.266   2.921   0.020 -0.5769 -0.3345 -0.1393
 1548TIP3    H126279   4.235   2.951   0.106 -1.7429 -1.5991 -0.0996
 1548TIP3    H226280   4.249   2.827   0.020 -0.5474 -0.3601 -1.7509
 1549TIP3   OH226281   2.510   3.847   2.292 -0.0471 -0.0715  0.2444
 1549TIP3    H126282   2.479   3.769   2.338  0.2326  0.1334  0.7893
 1549TIP3    H226283   2.516   3.914   2.360  2.2228 -0.2736  0.2939
 1550TIP3   OH226284   0.374   6.362   8.161  0.6437 -0.5101 -0.1554
 1550TIP3    H126285   0.461   6.401   8.174  0.8917  0.1069 -3.0501
 1550TIP3    H226286   0.316   6.437   8.150  0.4003 -0.9050 -1.7484
 1551TIP3   OH226287   0.783   6.432   1.690  0.0857 -0.0698 -0.3707
 1551TIP3    H126288   0.716   6.434   1.622  0.4503 -0.3827 -0.7397
 1551TIP3    H226289   0.735   6.413   1.770 -0.4347  0.9471 -0.4215
 1552TIP3   OH226290   1.409   1.404   1.207  0.5872 -0.0298 -0.3285
 1552TIP3    H126291   1.486   1.445   1.168 -0.5134  1.1750 -1.3398
 1552TIP3    H226292   1.373   1.471   1.265  0.5172 -0.7292  0.4527
 1553TIP3   OH226293   2.774   6.732   0.746  0.8346 -0.4617 -0.3834
 1553TIP3    H126294   2.826   6.805   0.713  0.3849  0.7372  1.4392
 1553TIP3    H226295   2.684   6.753   0.721  0.8443 -1.0030 -0.8883
 1554TIP3   OH226296   2.444   4.490   7.719  0.6044 -0.1278  0.9141
 1554TIP3    H126297   2.429   4.533   7.803  2.0887  1.4706  0.4237
 1554TIP3    H226298   2.395   4.543   7.656 -0.9624 -1.6436  0.7947
 1555TIP3   OH226299   3.252   1.492   8.380 -0.0370 -0.2685 -0.0274
 1555TIP3    H126300   3.201   1.539   8.445  0.3315  1.8850 -1.1919
 1555TIP3    H226301   3.199   1.495   8.300  1.6803  1.7444 -1.1758
 1556TIP3   OH226302   4.939   3.771   1.087 -0.0085 -0.2593 -0.1737
 1556TIP3    H126303   5.035   3.775   1.094 -0.0193 -0.5241  0.1676
 1556TIP3    H226304   4.910   3.746   1.175 -0.5401  1.9198  0.3335
 1557TIP3   OH226305   1.605   5.018   2.171  0.4280  0.2368 -0.7474
 1557TIP3    H126306   1.600   5.057   2.084  2.6538  0.6714 -0.7429
 1557TIP3    H226307   1.557   4.935   2.163 -0.3733  0.8012 -2.0461
 1558TIP3   OH226308   2.610   5.592   1.013 -0.1072  0.3343  0.1838
 1558TIP3    H126309   2.638   5.660   1.074  2.9030 -0.2772 -0.3503
 1558TIP3    H226310   2.548   5.539   1.062  3.3487 -1.1260  3.4735
 1559TIP3   OH226311   3.337   3.768   8.296 -0.0065  0.1379 -0.0384
 1559TIP3    H126312   3.265   3.705   8.287  0.1510 -0.1977  0.9619
 1559TIP3    H226313   3.389   3.756   8.216 -2.3396  2.1154 -2.0549
 1560TIP3   OH226314   5.618   2.380   2.289 -0.1555 -0.6066 -0.1159
 1560TIP3    H126315   5.710   2.353   2.288  0.3868  1.0007  1.5933
 1560TIP3    H226316   5.572   2.304   2.327  0.1208 -2.1136 -2.5530
 1561TIP3   OH226317   2.538   5.028   2.309  0.0099 -0.5364 -0.1461
 1561TIP3    H126318   2.541   5.075   2.392  2.6157  2.2013 -1.5927
 1561TIP3    H226319   2.572   4.940   2.330 -0.7080 -0.3675  1.8764
 1562TIP3   OH226320   1.283   3.499   1.287  0.3310 -0.1435  0.0395
 1562TIP3    H126321   1.300   3.433   1.220 -0.4263 -2.8633  2.3487
 1562TIP3    H226322   1.369   3.520   1.323  0.3541 -2.3086  1.3788
 1563TIP3   OH226323   1.451   4.056   2.120 -0.0992  0.1945  0.6502
 1563TIP3    H126324   1.476   3.966   2.101 -1.3835 -0.2718  1.1059
 1563TIP3    H226325   1.456   4.101   2.036  0.9336 -0.1924  0.4882
 1564TIP3   OH226326   5.404   3.054   7.974 -0.0740 -0.5832  0.5288
 1564TIP3    H126327   5.347   3.127   7.949 -1.1285 -1.7832 -0.7566
 1564TIP3    H226328   5.460   3.089   8.043  0.4369  1.8652 -1.0014
 1565TIP3   OH226329   3.040   5.378   0.591  0.0529 -0.0828  0.0348
 1565TIP3    H126330   3.047   5.460   0.639  1.1724  0.0266 -0.2866
 1565TIP3    H226331   3.131   5.351   0.575 -0.2918 -0.7284 -0.9673
 1566TIP3   OH226332   2.748   1.544   2.362 -0.2442 -0.2073 -0.1316
 1566TIP3    H126333   2.816   1.575   2.301 -0.6579  0.3683 -0.3079
 1566TIP3    H226334   2.794   1.531   2.444 -0.0411  0.8387 -0.0688
 1567TIP3   OH226335   0.014   0.678   7.556  0.0033  0.0459 -0.1360
 1567TIP3    H126336   0.075   0.713   7.492  0.5335 -0.9086 -0.1683
 1567TIP3    H226337  -0.072   0.692   7.516  0.3974 -2.9361 -2.3964
 1568TIP3   OH226338   3.941   3.478   0.131  0.3174  0.0894  0.1078
 1568TIP3    H126339   3.911   3.395   0.094  0.3157 -0.3058  0.9735
 1568TIP3    H226340   3.958   3.534   0.055 -1.1667 -0.1789 -0.4604
 1569TIP3   OH226341   2.976   5.829   1.498 -0.0693 -0.4934  0.7161
 1569TIP3    H126342   2.931   5.811   1.581 -0.0792 -1.8389  0.4393
 1569TIP3    H226343   2.925   5.782   1.432 -1.9401  3.0181 -0.6346
 1570TIP3   OH226344   1.977   6.582   0.100 -0.1596  0.7296  0.1037
 1570TIP3    H126345   2.044   6.513   0.105 -1.4169 -0.5761 -0.4355
 1570TIP3    H226346   2.020   6.652   0.051  1.2852  0.5243  0.9889
 1571TIP3   OH226347   3.482   6.744   8.152 -0.5116  0.1777 -0.1115
 1571TIP3    H126348   3.388   6.725   8.153 -1.1014  2.7236  1.7204
 1571TIP3    H226349   3.517   6.698   8.228 -0.4422  0.0570 -0.2148
 1572TIP3   OH226350   1.983   4.226   2.471  0.2245  0.6430 -0.0264
 1572TIP3    H126351   1.980   4.193   2.561  1.3799  1.5772  0.3785
 1572TIP3    H226352   1.918   4.296   2.469 -1.0894 -0.5391 -0.4470
 1573TIP3   OH226353   2.137   5.134   8.795 -0.1123  0.0074  0.5018
 1573TIP3    H126354   2.079   5.178   8.732  0.8710  0.5254 -0.0731
 1573TIP3    H226355   2.117   5.041   8.784  0.0744  0.0800 -0.6328
 1574TIP3   OH226356   0.763   2.700   7.301  0.4560 -0.2717  0.2402
 1574TIP3    H126357   0.794   2.764   7.237  1.1312  1.0848  1.8642
 1574TIP3    H226358   0.668   2.699   7.289  0.5899 -0.3122 -0.9945
 1575TIP3   OH226359   3.883   2.701   1.781  0.5595 -0.5635  0.1404
 1575TIP3    H126360   3.881   2.741   1.868  0.5343 -0.8775  0.2829
 1575TIP3    H226361   3.851   2.612   1.794  0.5124 -0.5981 -0.1979
 1576TIP3   OH226362   6.589   6.436   0.022 -0.2796  0.3111  0.4303
 1576TIP3    H126363   6.557   6.345   0.021  1.3377 -0.2872 -0.6357
 1576TIP3    H226364   6.540   6.480  -0.047  0.0941 -0.1794 -0.1490
 1577TIP3   OH226365   4.596   4.105   0.290  0.4246 -0.5455  0.6620
 1577TIP3    H126366   4.599   4.199   0.273  1.2096 -0.5284  0.8635
 1577TIP3    H226367   4.570   4.098   0.382 -3.3159 -0.6288 -0.2394
 1578TIP3   OH226368   5.536   4.359   1.216  0.1611 -0.0570 -0.1984
 1578TIP3    H126369   5.498   4.406   1.290  3.0691  0.7598  0.9430
 1578TIP3    H226370   5.559   4.428   1.154  0.6642 -0.3865 -0.3873
 1579TIP3   OH226371   2.829   3.875   8.387  0.5179 -0.7678  0.9484
 1579TIP3    H126372   2.752   3.839   8.342  0.2887  0.8653 -0.0565
 1579TIP3    H226373   2.891   3.893   8.317  0.3855  1.2954  1.2832
 1580TIP3   OH226374   0.506   5.515   1.207 -0.6539 -0.2420  0.6093
 1580TIP3    H126375   0.430   5.550   1.160 -1.9619 -1.4511  1.7571
 1580TIP3    H226376   0.534   5.587   1.263  0.3297  0.8907 -1.2047
 1581TIP3   OH226377   0.316   5.968   8.646 -0.2966  0.3391 -0.5023
 1581TIP3    H126378   0.324   6.024   8.569 -0.3390  0.1645 -0.6343
 1581TIP3    H226379   0.225   5.936   8.643 -0.2366  0.1655 -0.4976
 1582TIP3   OH226380   5.580   0.764   2.740  0.0922 -0.0227 -0.4150
 1582TIP3    H126381   5.651   0.811   2.783 -0.4621  1.4145 -1.0172
 1582TIP3    H226382   5.503   0.781   2.794 -0.2130  0.1954 -0.9051
 1583TIP3   OH226383   5.625   4.111   7.911  0.0633 -0.0129  0.5535
 1583TIP3    H126384   5.554   4.049   7.897  0.3282 -0.3313  0.5989
 1583TIP3    H226385   5.698   4.057   7.941  0.6255  0.1753 -0.4492
 1584TIP3   OH226386   1.166   4.618   8.273 -0.2362 -0.1526 -0.6871
 1584TIP3    H126387   1.114   4.565   8.214  0.6750 -0.4339 -1.2684
 1584TIP3    H226388   1.257   4.596   8.252  0.1274  0.2800  0.3212
 1585TIP3   OH226389   2.381   6.453   8.077  0.3876  0.2278  0.3993
 1585TIP3    H126390   2.436   6.417   8.008  1.0623 -0.4657  1.2807
 1585TIP3    H226391   2.404   6.546   8.080  0.9348  0.0984  0.2394
 1586TIP3   OH226392   2.995   1.301   1.728 -0.5374  0.0939  0.3679
 1586TIP3    H126393   2.976   1.379   1.677  0.7787  1.3114  1.6253
 1586TIP3    H226394   2.989   1.229   1.666  1.0842  1.5062 -1.5450
 1587TIP3   OH226395   1.242   6.599   0.968 -0.4411  0.4871 -0.7367
 1587TIP3    H126396   1.197   6.683   0.961  1.1499  1.4071 -0.4878
 1587TIP3    H226397   1.324   6.612   0.921  0.1314 -0.7096 -0.1093
 1588TIP3   OH226398   6.800   3.916   8.410  0.3356  0.0664  0.0371
 1588TIP3    H126399   6.848   3.888   8.332 -1.3603  0.8040 -1.3481
 1588TIP3    H226400   6.832   3.860   8.480  2.8045  0.1761 -0.8953
 1589TIP3   OH226401   6.656   2.236   0.552 -0.0777  0.2978  0.1848
 1589TIP3    H126402   6.699   2.260   0.635 -1.7139  1.4229  0.7640
 1589TIP3    H226403   6.563   2.236   0.573 -0.5068  0.2840 -1.5983
 1590TIP3   OH226404   2.595   3.783   1.221  0.8016 -0.1970  0.2330
 1590TIP3    H126405   2.562   3.803   1.308 -1.7349 -1.6088 -0.3103
 1590TIP3    H226406   2.568   3.858   1.168  1.4920  0.2050  0.4287
 1591TIP3   OH226407   1.691   1.063   8.031 -0.6236  0.1214  0.7130
 1591TIP3    H126408   1.778   1.081   8.068 -0.1144 -0.6580 -0.0560
 1591TIP3    H226409   1.676   0.971   8.050 -0.7898 -0.0299 -0.1087
 1592TIP3   OH226410   0.323   4.980   8.531 -0.1917 -0.0897  0.2347
 1592TIP3    H126411   0.301   5.068   8.562 -1.3755 -0.8090  1.5926
 1592TIP3    H226412   0.243   4.929   8.545  0.0964 -1.1382 -1.5767
 1593TIP3   OH226413   4.049   1.947   3.284 -0.1238 -0.2027  0.3084
 1593TIP3    H126414   4.095   1.968   3.365  1.6432 -0.9080 -0.4550
 1593TIP3    H226415   4.095   1.870   3.250 -0.1623  0.6637 -1.8450
 1594TIP3   OH226416   6.519   4.099   0.260 -0.2541  0.1765  0.2633
 1594TIP3    H126417   6.504   4.120   0.167 -1.2522  1.3148  0.6625
 1594TIP3    H226418   6.451   4.034   0.280  0.1823 -0.3361  0.1303
 1595TIP3   OH226419   0.495   1.161   1.011 -0.4583  0.5839 -0.4147
 1595TIP3    H126420   0.516   1.184   0.920  0.0427 -0.6610 -0.6489
 1595TIP3    H226421   0.564   1.100   1.036 -1.2743 -0.0382  0.3893
 1596TIP3   OH226422   0.214   0.026   7.630 -0.3015 -0.5653 -0.2395
 1596TIP3    H126423   0.207   0.121   7.639 -0.7176 -0.5922 -0.2591
 1596TIP3    H226424   0.127  -0.002   7.602 -0.7389 -1.1566  1.5672
 1597TIP3   OH226425   3.352   0.369   2.368  0.3140  0.2082  0.7742
 1597TIP3    H126426   3.331   0.283   2.331  0.8424  0.1454  0.6094
 1597TIP3    H226427   3.273   0.421   2.354  0.3333  0.0377 -0.0209
 1598TIP3   OH226428   5.299   6.431   8.543  0.2200 -0.0145  0.1496
 1598TIP3    H126429   5.358   6.493   8.500 -0.4566  0.3067 -0.3352
 1598TIP3    H226430   5.277   6.473   8.627  0.4329  0.0022  0.1989
 1599TIP3   OH226431   6.440   1.658   1.427 -0.3155 -0.2976 -0.2363
 1599TIP3    H126432   6.518   1.639   1.479  0.0877  0.0373 -0.7066
 1599TIP3    H226433   6.399   1.573   1.411  0.6144 -0.6112 -1.0099
 1600TIP3   OH226434   2.058   5.874   0.226  0.4436  0.0027 -0.0374
 1600TIP3    H126435   2.013   5.849   0.307 -1.9378 -1.1295 -1.5888
 1600TIP3    H226436   2.029   5.964   0.211 -0.7176 -0.4407 -0.5914
 1601TIP3   OH226437   6.846   1.680   0.548 -0.4878  0.9164 -0.3567
 1601TIP3    H126438   6.854   1.770   0.579  1.9871  0.1414  1.5843
 1601TIP3    H226439   6.934   1.658   0.516 -0.2405 -1.6199  1.7572
 1602TIP3   OH226440   5.392   2.424   7.598  0.3182  0.3410  0.2752
 1602TIP3    H126441   5.340   2.345   7.587 -0.6838  0.8820  0.9246
 1602TIP3    H226442   5.377   2.450   7.689  1.8867  0.4160  0.5418
 1603TIP3   OH226443   2.982   0.730   8.545  0.3937 -0.2636 -0.3256
 1603TIP3    H126444   2.963   0.639   8.520  1.2760 -0.5522 -0.0079
 1603TIP3    H226445   3.054   0.722   8.608 -0.4464  0.5730  0.7751
 1604TIP3   OH226446   3.752   6.817   8.467 -0.5376 -0.3069 -0.5130
 1604TIP3    H126447   3.786   6.783   8.385 -1.1033  0.1804 -0.9616
 1604TIP3    H226448   3.686   6.754   8.494 -2.0805  0.7039 -1.6968
 1605TIP3   OH226449   2.570   3.530   0.101 -0.5249 -1.3734 -0.1381
 1605TIP3    H126450   2.633   3.533   0.174 -0.2619 -0.7143 -0.3864
 1605TIP3    H226451   2.560   3.437   0.083 -1.0636 -1.5899  1.1446
 1606TIP3   OH226452   0.838   5.320   8.478 -0.0537 -0.1288  0.7969
 1606TIP3    H126453   0.777   5.385   8.515 -1.2561 -0.7794  0.0233
 1606TIP3    H226454   0.920   5.334   8.526 -0.1436  2.2250  0.3688
 1607TIP3   OH226455   1.990   0.675   8.508 -0.1767  0.0631 -0.1346
 1607TIP3    H126456   1.956   0.732   8.439  1.3523 -0.9695 -1.8297
 1607TIP3    H226457   1.951   0.709   8.588  0.4134  3.2943 -1.0795
 1608TIP3   OH226458   5.796   2.098   1.848 -0.6107  0.6706  0.0420
 1608TIP3    H126459   5.765   2.044   1.775 -2.8033 -1.3017  2.2353
 1608TIP3    H226460   5.883   2.062   1.870 -1.0621 -0.4784  0.0061
 1609TIP3   OH226461   4.462   6.762   0.553 -0.2016  0.3420 -0.2635
 1609TIP3    H126462   4.516   6.828   0.508 -1.3070  1.7979  0.4699
 1609TIP3    H226463   4.508   6.679   0.537  2.2537  1.4819  0.2825
 1610TIP3   OH226464   4.191   1.887   8.439  0.0289 -0.6494  0.0333
 1610TIP3    H126465   4.167   1.906   8.348 -0.8615 -1.7377  0.0154
 1610TIP3    H226466   4.248   1.959   8.465  0.9940 -0.7545 -1.6627
 1611TIP3   OH226467   3.005   2.911   2.323  0.1859 -0.0579 -0.3154
 1611TIP3    H126468   3.061   2.986   2.342 -1.2325  1.0740 -0.3993
 1611TIP3    H226469   3.039   2.841   2.378  0.6522  1.0738  0.9037
 1612TIP3   OH226470   2.078   1.277   1.356  0.0659  0.0566 -0.0223
 1612TIP3    H126471   2.009   1.316   1.302  0.2058  2.7392  1.5763
 1612TIP3    H226472   2.160   1.298   1.310  0.1472  1.8884  0.8670
 1613TIP3   OH226473   3.633   0.434   0.088  0.0307  0.3710  0.3006
 1613TIP3    H126474   3.606   0.385   0.010  2.5054 -2.1077  0.8713
 1613TIP3    H226475   3.711   0.481   0.061 -0.2525  1.1340  0.7817
 1614TIP3   OH226476   3.154   0.024   0.989  0.2728  0.7739 -0.2324
 1614TIP3    H126477   3.102  -0.044   1.031 -0.0531  0.3262 -1.3407
 1614TIP3    H226478   3.228   0.038   1.049  0.7349 -1.0555 -0.3230
 1615TIP3   OH226479   1.080   4.947   0.624  0.3327 -0.2828 -0.0611
 1615TIP3    H126480   0.993   4.907   0.627  0.9816 -1.7844 -0.1094
 1615TIP3    H226481   1.139   4.874   0.607  1.4477  0.9556 -1.8649
 1616TIP3   OH226482   5.049   5.901   2.394 -0.2518  0.2992  0.2537
 1616TIP3    H126483   4.955   5.888   2.379  0.1031  0.1218 -2.2789
 1616TIP3    H226484   5.070   5.979   2.343  0.9054  0.6232  1.2006
 1617TIP3   OH226485   6.184   5.409   7.995  0.0231 -1.1430 -0.1981
 1617TIP3    H126486   6.166   5.422   7.902  0.3265 -1.7536 -0.3494
 1617TIP3    H226487   6.115   5.349   8.024 -1.3212  0.6489  0.4708
 1618TIP3   OH226488   1.619   2.793   1.485 -0.2654  0.4513  0.4794
 1618TIP3    H126489   1.714   2.785   1.498 -0.3048 -0.1074  0.4382
 1618TIP3    H226490   1.595   2.874   1.531  0.5083  1.5721 -0.9976
 1619TIP3   OH226491   0.796   0.312   8.126  0.3454 -0.3078  1.0099
 1619TIP3    H126492   0.864   0.363   8.170 -0.2105  0.0710  1.4396
 1619TIP3    H226493   0.795   0.346   8.036  1.8191 -1.4202  0.5413
 1620TIP3   OH226494   0.711   3.084   0.434 -0.1338 -0.1534  0.0430
 1620TIP3    H126495   0.702   2.991   0.455 -1.0984 -0.2936 -0.9527
 1620TIP3    H226496   0.774   3.116   0.499 -1.5252 -0.9912  1.9053
 1621TIP3   OH226497   5.748   3.239   0.901 -0.0350  0.0496 -0.2427
 1621TIP3    H126498   5.711   3.185   0.832 -1.5483 -0.0272  0.5791
 1621TIP3    H226499   5.781   3.177   0.966  1.9346  0.1128 -1.1208
 1622TIP3   OH226500   2.802   5.739   1.728 -0.1784  0.2879 -0.1527
 1622TIP3    H126501   2.713   5.705   1.721  0.2067 -1.0517  0.9257
 1622TIP3    H226502   2.792   5.824   1.771 -0.9760  0.3663 -0.4869
 1623TIP3   OH226503   0.098   0.818   8.054  0.0533  0.1773  0.1487
 1623TIP3    H126504   0.145   0.736   8.036 -0.8863 -0.3677  0.0910
 1623TIP3    H226505   0.064   0.845   7.969 -1.4882 -0.5664  0.4844
 1624TIP3   OH226506   4.711   3.904   1.020 -0.0496 -0.0791  0.5874
 1624TIP3    H126507   4.660   3.831   0.986  1.2010 -0.9531  0.4933
 1624TIP3    H226508   4.800   3.869   1.028  0.8886  1.8227 -0.7405
 1625TIP3   OH226509   1.000   1.104   1.166 -0.5672 -0.2402 -0.2950
 1625TIP3    H126510   0.998   1.175   1.230 -1.2098 -0.9490  0.5021
 1625TIP3    H226511   1.075   1.124   1.110  1.1590 -0.5120  1.7729
 1626TIP3   OH226512   2.488   1.669   8.436 -0.0849 -0.3569 -0.1127
 1626TIP3    H126513   2.517   1.586   8.476 -2.4935 -0.9825  0.4981
 1626TIP3    H226514   2.457   1.644   8.349 -2.9051 -0.5915  0.8674
 1627TIP3   OH226515   6.537   5.063   1.332  0.1449  0.4154  0.0772
 1627TIP3    H126516   6.542   5.137   1.392 -0.0835 -1.1587  2.1576
 1627TIP3    H226517   6.460   5.014   1.360  0.4100 -0.7301 -1.0757
 1628TIP3   OH226518   0.920   2.872   7.474 -0.2741 -0.0706  1.0890
 1628TIP3    H126519   0.899   2.811   7.404 -0.7305  0.7731  0.4682
 1628TIP3    H226520   1.011   2.897   7.459 -0.1486 -0.4388  1.2283
 1629TIP3   OH226521   2.263   0.380   1.180 -0.3010 -0.0649  0.6309
 1629TIP3    H126522   2.270   0.288   1.154  0.3977  0.1548  0.0169
 1629TIP3    H226523   2.311   0.385   1.263 -1.5215 -0.5167  1.4137
 1630TIP3   OH226524   5.727   5.864   0.714 -0.0177 -0.4901  0.3959
 1630TIP3    H126525   5.800   5.863   0.651 -1.2112 -1.3366 -1.0573
 1630TIP3    H226526   5.712   5.772   0.734 -1.5850 -0.4552 -0.4573
 1631TIP3   OH226527   1.524   3.246   6.622 -0.0457  0.3962  0.5758
 1631TIP3    H126528   1.484   3.303   6.556 -1.1146 -1.0867 -0.1090
 1631TIP3    H226529   1.504   3.157   6.592  1.4333 -0.3616  1.6900
 1632TIP3   OH226530   2.311   0.832   6.535  0.2103 -0.2136  0.4067
 1632TIP3    H126531   2.241   0.862   6.593 -1.3546  1.0627 -2.0157
 1632TIP3    H226532   2.340   0.910   6.489  1.0463 -1.2556 -0.9233
 1633TIP3   OH226533   3.502   6.348   2.619 -0.1378  0.0598 -0.2933
 1633TIP3    H126534   3.516   6.253   2.628  0.3174 -0.1149 -2.3889
 1633TIP3    H226535   3.408   6.360   2.634 -0.1858 -0.7063  0.0741
 1634TIP3   OH226536   2.521   3.481   1.982 -0.4124  0.0578 -0.5027
 1634TIP3    H126537   2.593   3.465   1.921 -0.9089 -2.1279 -0.6006
 1634TIP3    H226538   2.562   3.479   2.069 -0.0934  0.6866 -0.6306
 1635TIP3   OH226539   2.000   0.715   1.072  0.2278  0.1637  0.3244
 1635TIP3    H126540   1.967   0.744   0.987 -1.2278  0.5015  0.9894
 1635TIP3    H226541   1.969   0.780   1.134  0.7435 -0.4208  1.2204
 1636TIP3   OH226542   5.400   6.017   8.200 -0.4206  0.1634  0.2147
 1636TIP3    H126543   5.480   5.965   8.199 -1.0699 -0.8924 -1.2104
 1636TIP3    H226544   5.371   6.017   8.109 -1.3644  1.6079  0.4938
 1637TIP3   OH226545   4.555   0.078   1.599  0.1102  0.2073 -0.1993
 1637TIP3    H126546   4.626   0.034   1.646  0.3626 -0.4920 -1.2140
 1637TIP3    H226547   4.493   0.008   1.578 -0.6915  0.7471  0.3151
 1638TIP3   OH226548   3.291   1.869   0.611  0.3332  0.5251 -0.5298
 1638TIP3    H126549   3.359   1.801   0.611  0.3975  0.4570  2.8508
 1638TIP3    H226550   3.331   1.942   0.563  2.9318  0.5155  1.3871
 1639TIP3   OH226551   2.815   6.852   1.377 -0.0155  0.2805 -0.5407
 1639TIP3    H126552   2.785   6.822   1.463  1.0390  2.4150  0.6363
 1639TIP3    H226553   2.909   6.834   1.377 -0.0286  0.1633 -1.3349
 1640TIP3   OH226554   1.574   4.017   8.761  0.3543 -0.0169 -0.2301
 1640TIP3    H126555   1.516   3.949   8.726 -0.7711  1.1403 -0.6711
 1640TIP3    H226556   1.650   3.968   8.792  0.1156 -1.3895 -1.6136
 1641TIP3   OH226557   1.602   6.750   0.011  0.4231  0.3474 -0.2505
 1641TIP3    H126558   1.520   6.770   0.057  0.5406  0.6461 -0.1676
 1641TIP3    H226559   1.587   6.664  -0.028  0.1599  0.2872 -0.0234
 1642TIP3   OH226560   0.635   2.825   0.539 -0.4842 -0.3860  0.4508
 1642TIP3    H126561   0.662   2.782   0.620  2.4652  1.2886  0.5108
 1642TIP3    H226562   0.540   2.811   0.534 -0.0470 -5.1381  1.3282
 1643TIP3   OH226563   0.249   3.941   8.547 -0.6136 -0.3648  0.6515
 1643TIP3    H126564   0.276   4.032   8.559  3.5684 -0.8953 -2.4147
 1643TIP3    H226565   0.182   3.927   8.613  0.1049  4.2635  2.7714
 1644TIP3   OH226566   5.772   1.074   0.384  0.0584  0.3173  0.6060
 1644TIP3    H126567   5.736   1.073   0.295  0.6615  4.2403  0.1084
 1644TIP3    H226568   5.706   1.119   0.436  0.4219 -0.4639  1.7815
 1645TIP3   OH226569   1.641   5.146   1.364 -0.1866  0.3381 -0.2686
 1645TIP3    H126570   1.623   5.073   1.305 -1.4059  1.1460 -0.9216
 1645TIP3    H226571   1.725   5.122   1.405 -0.6023 -1.4748 -0.3666
 1646TIP3   OH226572   5.257   4.506   0.914 -0.0681 -0.0223 -0.0763
 1646TIP3    H126573   5.298   4.431   0.957 -0.0238  0.4025  0.6336
 1646TIP3    H226574   5.163   4.492   0.925 -0.0497  0.2121  0.3717
 1647TIP3   OH226575   2.030   3.091   0.613 -0.8629 -0.0159 -1.0999
 1647TIP3    H126576   2.022   3.184   0.631  3.6797  0.3064  0.7320
 1647TIP3    H226577   2.082   3.086   0.533  0.9254 -0.8017  0.0431
 1648TIP3   OH226578   2.795   4.326   7.604  0.4198  0.3846 -0.0239
 1648TIP3    H126579   2.857   4.281   7.546  0.3103 -0.9234  0.8257
 1648TIP3    H226580   2.748   4.255   7.649 -0.0428  1.3545  1.0853
 1649TIP3   OH226581   5.908   1.633   0.025 -0.4259 -0.0689 -0.6797
 1649TIP3    H126582   5.829   1.624   0.077  0.0572 -1.9026 -0.1979
 1649TIP3    H226583   5.943   1.719   0.048 -1.5913  0.2216  0.0587
 1650TIP3   OH226584   4.967   0.507   6.482 -0.8655  0.0156  0.0332
 1650TIP3    H126585   5.010   0.436   6.434 -0.0031  0.1017  0.6571
 1650TIP3    H226586   4.989   0.586   6.433  1.5531  0.3433  1.5047
 1651TIP3   OH226587   0.661   5.197   1.302  0.0895  0.4827  0.6971
 1651TIP3    H126588   0.604   5.137   1.351  1.5192 -0.2360  1.5406
 1651TIP3    H226589   0.617   5.282   1.308  0.0048  0.3341  2.9087
 1652TIP3   OH226590   2.340   2.144   8.718  0.1412 -0.6079 -0.8804
 1652TIP3    H126591   2.273   2.210   8.736  0.5898  0.0536 -1.5656
 1652TIP3    H226592   2.292   2.070   8.682 -0.2892 -0.3755 -0.7926
 1653TIP3   OH226593   6.119   5.167   8.646 -0.4451  0.4420 -0.3538
 1653TIP3    H126594   6.144   5.082   8.609  0.2462  0.4204  0.1317
 1653TIP3    H226595   6.201   5.203   8.680 -1.4027 -1.0241  4.1984
 1654TIP3   OH226596   5.770   4.906   0.031  0.1583 -0.2189 -0.1318
 1654TIP3    H126597   5.748   4.824   0.076  1.2893 -0.2601  0.3765
 1654TIP3    H226598   5.703   4.915  -0.036 -0.3201 -1.2645  0.1859
 1655TIP3   OH226599   5.437   1.679   1.279  0.2877  0.0231  0.3960
 1655TIP3    H126600   5.502   1.613   1.253  1.0894  1.4068 -1.2641
 1655TIP3    H226601   5.433   1.739   1.205 -2.7163  0.1475  0.5671
 1656TIP3   OH226602   0.033   5.283   2.740 -0.1226  1.1039  0.1271
 1656TIP3    H126603  -0.025   5.208   2.724  0.1122  0.5694  1.6316
 1656TIP3    H226604  -0.027   5.353   2.766 -0.1490  0.6438  1.3649
 1657TIP3   OH226605   5.050   0.970   0.111  0.4741 -0.1759  0.1365
 1657TIP3    H126606   5.126   0.938   0.159 -0.5701  0.3162  2.2230
 1657TIP3    H226607   4.978   0.964   0.173 -1.2100 -0.5175 -1.7318
 1658TIP3   OH226608   3.667   3.708   0.258 -0.1242 -0.2328  0.0181
 1658TIP3    H126609   3.582   3.752   0.252 -0.5045 -0.8791  0.4537
 1658TIP3    H226610   3.644   3.616   0.272  0.5686  0.0347  4.1627
 1659TIP3   OH226611   4.203   0.455   1.355 -0.7088  0.6429  0.4400
 1659TIP3    H126612   4.194   0.531   1.298 -0.0428  0.9428  0.7286
 1659TIP3    H226613   4.113   0.427   1.372 -0.9223  0.5823 -0.6968
 1660TIP3   OH226614   0.605   1.576   1.092  0.2255  0.5206 -0.6151
 1660TIP3    H126615   0.666   1.604   1.160 -1.1965 -1.0171  1.3811
 1660TIP3    H226616   0.642   1.494   1.060  0.5438  0.9129 -1.2863
 1661TIP3   OH226617   4.593   3.316   0.864 -0.4562 -0.2142  0.1722
 1661TIP3    H126618   4.514   3.349   0.908  0.0544  0.5993  0.4890
 1661TIP3    H226619   4.623   3.244   0.919 -0.8607 -0.3930  0.1619
 1662TIP3   OH226620   3.376   0.033   0.503  0.2203 -0.0185  0.3827
 1662TIP3    H126621   3.455   0.037   0.556  0.3698  0.7209  0.1087
 1662TIP3    H226622   3.400  -0.019   0.427 -0.4440 -2.5251  1.7656
 1663TIP3   OH226623   0.894   2.120   0.484  0.2019  0.3420  0.2354
 1663TIP3    H126624   0.965   2.059   0.502  0.9864  1.3356  0.5774
 1663TIP3    H226625   0.936   2.206   0.482 -1.0039  0.9600  0.5663
 1664TIP3   OH226626   6.007   4.983   7.479  0.0921  0.3419  0.6824
 1664TIP3    H126627   5.943   4.982   7.408  0.4176 -0.9862  0.3767
 1664TIP3    H226628   5.982   4.909   7.534  2.2415 -1.2121 -0.2854
 1665TIP3   OH226629   1.094   3.454   2.680  0.0777  0.2523  0.3372
 1665TIP3    H126630   1.004   3.435   2.653  0.0860 -0.4951  0.8092
 1665TIP3    H226631   1.093   3.547   2.704 -0.1080  0.7479 -1.4759
 1666TIP3   OH226632   0.028   6.313   1.539 -0.1338  0.8307 -0.4506
 1666TIP3    H126633   0.054   6.222   1.549  1.2024  1.3365  1.2411
 1666TIP3    H226634   0.062   6.356   1.617  0.2353  2.9950 -1.7284
 1667TIP3   OH226635   4.715   1.860   0.380 -0.0844  0.1385 -0.6597
 1667TIP3    H126636   4.636   1.874   0.327 -0.2082  0.2110 -0.4561
 1667TIP3    H226637   4.682   1.831   0.465  0.0819  0.6320 -0.4179
 1668TIP3   OH226638   2.981   0.431   0.234 -0.1286  0.2299 -0.0889
 1668TIP3    H126639   2.903   0.485   0.244 -1.6540 -2.1821  2.1717
 1668TIP3    H226640   3.036   0.454   0.309  1.8214  2.3980 -2.0054
 1669TIP3   OH226641   1.899   1.920   0.526  0.3141 -0.4455  0.2731
 1669TIP3    H126642   1.877   1.903   0.434 -0.2497 -1.5361  0.6023
 1669TIP3    H226643   1.823   1.966   0.561  0.6720  0.2842  0.1192
 1670TIP3   OH226644   0.548   2.303   1.767 -0.1490 -0.5220  0.1867
 1670TIP3    H126645   0.618   2.310   1.832 -0.8054  2.4482  0.7202
 1670TIP3    H226646   0.470   2.279   1.818 -0.1249 -0.9661  0.0256
 1671TIP3   OH226647   3.424   6.638   8.787  0.2395 -0.1258  0.3895
 1671TIP3    H126648   3.382   6.557   8.758 -0.7765 -0.1869  1.9467
 1671TIP3    H226649   3.358   6.706   8.774  0.3601  0.1177  1.0225
 1672TIP3   OH226650   1.121   1.707   2.994 -0.1302 -0.5181  0.0666
 1672TIP3    H126651   1.107   1.779   3.055 -0.0276  1.3585 -1.9857
 1672TIP3    H226652   1.177   1.744   2.926  0.4456 -2.7538 -0.7589
 1673TIP3   OH226653   6.292   1.011   1.831  0.6047 -0.2024  0.1754
 1673TIP3    H126654   6.236   1.020   1.908 -0.8945 -2.5477 -0.5697
 1673TIP3    H226655   6.342   1.093   1.829 -0.9627  0.9081  2.3066
 1674TIP3   OH226656   5.034   2.096   0.902 -0.1083 -0.0114 -0.2247
 1674TIP3    H126657   4.943   2.121   0.914  0.5031  1.4676  2.1827
 1674TIP3    H226658   5.041   2.008   0.938 -0.9676 -1.1195 -2.5755
 1675TIP3   OH226659   3.986   1.059   8.156 -0.0729  0.3015 -0.0386
 1675TIP3    H126660   4.030   1.046   8.241 -0.1974 -0.3634 -0.0759
 1675TIP3    H226661   3.972   1.154   8.152  1.1559  0.5073  0.0757
 1676TIP3   OH226662   1.148   2.593   7.468 -0.1812 -0.5609 -0.3212
 1676TIP3    H126663   1.106   2.545   7.396 -1.8552  1.0712 -0.5251
 1676TIP3    H226664   1.135   2.685   7.446  1.5060 -0.0060  0.8414
 1677TIP3   OH226665   4.947   5.588   2.503 -0.0221  0.1735  0.4108
 1677TIP3    H126666   4.883   5.658   2.497  0.8080  1.0056  1.1002
 1677TIP3    H226667   4.970   5.583   2.596  0.4832 -0.5032  0.2607
 1678TIP3   OH226668   3.442   2.572   1.214  0.5272  0.2491  0.1665
 1678TIP3    H126669   3.467   2.564   1.122 -0.6547 -1.7392 -0.0294
 1678TIP3    H226670   3.517   2.614   1.256  1.0113  1.3517 -1.7110
 1679TIP3   OH226671   2.566   2.025   8.789 -0.2373 -0.1500 -0.4295
 1679TIP3    H126672   2.597   1.992   8.705 -0.8001 -0.7105 -0.4218
 1679TIP3    H226673   2.484   2.068   8.769  1.4127  3.1434 -0.7942
 1680TIP3   OH226674   0.974   1.485   8.447 -0.3456 -0.0717  0.6488
 1680TIP3    H126675   0.955   1.578   8.432 -2.1404 -0.5152 -0.1016
 1680TIP3    H226676   1.068   1.477   8.430 -0.4975  1.2659 -1.2443
 1681TIP3   OH226677   1.097   0.572   0.630  0.1722 -1.2922 -0.4345
 1681TIP3    H126678   1.184   0.540   0.604  0.3325 -0.5563 -0.8126
 1681TIP3    H226679   1.095   0.561   0.725  0.6145 -1.4705 -0.4428
 1682TIP3   OH226680   3.851   5.924   1.685  0.4563 -0.1560 -0.2909
 1682TIP3    H126681   3.883   5.966   1.765 -0.7979 -3.0498  1.9200
 1682TIP3    H226682   3.928   5.885   1.645  0.9184  0.2730  0.1756
 1683TIP3   OH226683   6.593   0.649   0.708 -0.2405  0.1363 -0.8149
 1683TIP3    H126684   6.535   0.721   0.734  1.1516  0.6861  1.1032
 1683TIP3    H226685   6.669   0.694   0.670  1.2151 -0.1075  1.5588
 1684TIP3   OH226686   0.148   5.295   1.628 -0.2584 -0.3058  0.4889
 1684TIP3    H126687   0.098   5.346   1.564  1.4493  0.2952 -0.4110
 1684TIP3    H226688   0.082   5.240   1.670 -1.6716  0.4004 -0.6941
 1685TIP3   OH226689   2.184   6.131   0.463  0.4196  0.1753 -0.4631
 1685TIP3    H126690   2.231   6.105   0.384 -0.3401  0.7980 -1.1412
 1685TIP3    H226691   2.115   6.189   0.432  0.3437  0.7434  0.7080
 1686TIP3   OH226692   4.565   6.076   0.140 -0.4087 -0.3514 -0.6315
 1686TIP3    H126693   4.630   6.114   0.199 -1.5240  0.4663  0.1258
 1686TIP3    H226694   4.510   6.150   0.113 -2.4503 -1.3072  0.6113
 1687TIP3   OH226695   3.526   6.280   7.275 -0.3111 -0.3973 -0.0419
 1687TIP3    H126696   3.599   6.251   7.220 -0.2864  2.3164 -1.5931
 1687TIP3    H226697   3.463   6.317   7.213 -2.0644 -0.7245  1.4613
 1688TIP3   OH226698   6.231   4.847   7.713 -0.0564  0.0253  0.3922
 1688TIP3    H126699   6.271   4.864   7.627  0.4357  0.6570  0.7343
 1688TIP3    H226700   6.306   4.845   7.773 -0.4455  0.0704  0.8774
 1689TIP3   OH226701   1.112   6.623   8.559 -0.4438  0.2820  0.1573
 1689TIP3    H126702   1.196   6.670   8.554 -0.3984  0.0845 -1.9507
 1689TIP3    H226703   1.126   6.557   8.627  0.3997  1.5681  1.2811
 1690TIP3   OH226704   4.055   1.843   0.499  0.3335 -0.6216 -0.2994
 1690TIP3    H126705   4.103   1.761   0.512  2.0385  0.1554 -1.2666
 1690TIP3    H226706   4.097   1.904   0.560 -0.6338 -0.3534  0.1102
 1691TIP3   OH226707   6.747   6.711   0.239 -0.5281 -0.3502 -0.0681
 1691TIP3    H126708   6.723   6.623   0.209  0.3699 -0.5897 -0.1114
 1691TIP3    H226709   6.787   6.753   0.163  0.3392 -0.4129  0.3369
 1692TIP3   OH226710   1.191   3.867   1.482 -0.1428  0.0205 -0.3048
 1692TIP3    H126711   1.259   3.932   1.462  1.5059 -1.5455 -0.0516
 1692TIP3    H226712   1.162   3.889   1.570 -0.0951  0.8007 -0.4754
 1693TIP3   OH226713   3.284   1.955   8.830 -0.1032 -0.8141  0.8630
 1693TIP3    H126714   3.198   1.933   8.795 -0.2785 -1.1654  1.5067
 1693TIP3    H226715   3.327   2.002   8.758 -1.2739  0.4552  0.9374
 1694TIP3   OH226716   4.577   0.044   0.358  0.2580 -0.0897 -0.0890
 1694TIP3    H126717   4.581   0.134   0.326 -0.9142 -0.1760 -0.4957
 1694TIP3    H226718   4.654   0.001   0.319  0.3111  0.4895 -0.6314
 1695TIP3   OH226719   1.181   6.106   7.124  0.2294  0.1519  0.1130
 1695TIP3    H126720   1.180   6.016   7.157  2.2308  0.5223  1.3842
 1695TIP3    H226721   1.157   6.159   7.199 -0.3462  0.7334 -0.4744
 1696TIP3   OH226722   3.898   4.981   8.363 -0.2148  0.0482  0.3239
 1696TIP3    H126723   3.898   4.896   8.320 -1.0492 -0.0370  0.4725
 1696TIP3    H226724   3.986   4.990   8.399  0.0680 -0.4805 -0.2118
 1697TIP3   OH226725   6.565   2.848   1.662 -0.3316  0.1503  0.5263
 1697TIP3    H126726   6.479   2.889   1.669 -0.5954  0.0659 -1.6367
 1697TIP3    H226727   6.625   2.920   1.642 -0.1946 -0.0209  0.3125
 1698TIP3   OH226728   2.733   2.804   1.628 -0.6563  0.2923  0.7825
 1698TIP3    H126729   2.726   2.863   1.553 -1.3168  0.4669  0.9709
 1698TIP3    H226730   2.806   2.746   1.607 -0.6802  0.4966  0.1203
 1699TIP3   OH226731   4.002   0.479   8.035  0.1235  0.9450 -0.2543
 1699TIP3    H126732   3.907   0.492   8.031 -0.2262 -1.2003 -0.3852
 1699TIP3    H226733   4.018   0.403   7.979  1.9795  1.4081 -0.4319
 1700TIP3   OH226734   6.497   1.610   8.677 -0.3116  0.4201  0.4144
 1700TIP3    H126735   6.473   1.523   8.708 -1.5104  0.0196 -1.4503
 1700TIP3    H226736   6.593   1.609   8.674 -0.3078 -0.9444  0.1906
 1701TIP3   OH226737   6.327   2.136   8.791 -0.7069  0.2225 -0.2314
 1701TIP3    H126738   6.354   2.053   8.752  0.3509  0.3263  0.2368
 1701TIP3    H226739   6.339   2.123   8.885 -0.2901  0.9873 -0.1743
 1702TIP3   OH226740   3.528   3.462   0.301 -0.2225 -0.1986  0.2205
 1702TIP3    H126741   3.488   3.386   0.343  0.1143 -0.0824  0.7619
 1702TIP3    H226742   3.503   3.455   0.209 -1.8199  0.0827  0.5966
 1703TIP3   OH226743   2.340   1.474   1.596  0.6196 -0.0882 -0.2709
 1703TIP3    H126744   2.395   1.457   1.520  0.1590  0.2784 -0.6956
 1703TIP3    H226745   2.364   1.407   1.659  1.4314 -0.0305 -0.5107
 1704TIP3   OH226746   4.966   6.037   1.367 -0.9053 -0.1470 -0.1924
 1704TIP3    H126747   4.946   6.118   1.321 -1.2251 -0.6418 -0.9356
 1704TIP3    H226748   5.003   5.979   1.300 -1.0289 -0.7501  0.2489
 1705TIP3   OH226749   1.325   4.370   8.638 -0.1909  0.0883  0.2075
 1705TIP3    H126750   1.285   4.298   8.590 -0.1216 -0.3106  0.7477
 1705TIP3    H226751   1.321   4.344   8.729  0.1730  0.6041  0.3757
 1706TIP3   OH226752   0.539   0.507   1.620  0.8408  0.1089 -0.5967
 1706TIP3    H126753   0.448   0.538   1.616  0.7657 -0.1191 -0.6581
 1706TIP3    H226754   0.587   0.580   1.659  0.5927  0.1506 -0.3646
 1707TIP3   OH226755   3.486   6.524   8.313 -0.5061  0.5930 -0.3352
 1707TIP3    H126756   3.525   6.484   8.391 -0.0378  2.2302  0.2944
 1707TIP3    H226757   3.398   6.485   8.308 -0.6172  0.6119  1.1270
 1708TIP3   OH226758   5.970   2.967   2.041 -0.3406 -0.3550  0.2578
 1708TIP3    H126759   5.948   2.912   2.116  0.9112 -2.1670 -0.6289
 1708TIP3    H226760   6.058   3.000   2.060  0.8670 -2.4760 -1.2079
 1709TIP3   OH226761   4.608   1.638   6.965 -0.0746 -0.2445 -0.2222
 1709TIP3    H126762   4.518   1.615   6.944 -0.3180  1.0391 -0.7063
 1709TIP3    H226763   4.604   1.731   6.990  1.1506 -0.0450 -0.6704
 1710TIP3   OH226764   4.618   0.903   6.907 -0.1068 -0.2345  1.3918
 1710TIP3    H126765   4.570   0.982   6.929  1.2634  1.0088  0.1192
 1710TIP3    H226766   4.708   0.932   6.893  0.0434 -1.6544 -1.1036
 1711TIP3   OH226767   4.340   1.160   1.044 -0.3367  0.0686  0.0433
 1711TIP3    H126768   4.363   1.122   0.959 -1.5780  1.8661 -1.1407
 1711TIP3    H226769   4.245   1.172   1.040 -0.5462 -0.6139  2.0499
 1712TIP3   OH226770   3.052   6.053   8.145  1.3053 -0.1535 -0.3812
 1712TIP3    H126771   2.984   6.021   8.204  0.8109 -0.6839 -1.2149
 1712TIP3    H226772   3.114   5.981   8.138  2.2042  0.4921  0.7269
 1713TIP3   OH226773   2.349   5.039   8.106  0.1603 -0.5021 -0.2282
 1713TIP3    H126774   2.426   5.005   8.150  0.3369  1.1412  0.8048
 1713TIP3    H226775   2.375   5.045   8.014  1.7667  1.2581  0.2812
 1714TIP3   OH226776   6.530   0.122   1.114 -0.0789  0.5693  0.0741
 1714TIP3    H126777   6.559   0.214   1.121 -0.4121  0.7089 -0.3655
 1714TIP3    H226778   6.488   0.117   1.029 -1.3326  0.3651  0.6771
 1715TIP3   OH226779   6.621   2.777   1.389 -0.1656 -0.1864 -0.3790
 1715TIP3    H126780   6.640   2.784   1.482  0.3602 -2.5357 -0.2437
 1715TIP3    H226781   6.692   2.824   1.346  0.8017 -0.9368  0.3663
 1716TIP3   OH226782   0.100   2.188   1.020 -0.4345 -0.3858 -0.5025
 1716TIP3    H126783   0.063   2.147   1.098 -0.9151  0.8326 -0.0719
 1716TIP3    H226784   0.194   2.170   1.025  0.0088  1.9418  1.8418
 1717TIP3   OH226785   3.772   3.510   1.812  0.0531 -0.3960 -0.1762
 1717TIP3    H126786   3.786   3.488   1.720 -0.8634  0.1236 -0.4459
 1717TIP3    H226787   3.748   3.427   1.853  0.1347 -0.5652 -0.4650
 1718TIP3   OH226788   0.614   0.648   1.185  0.4346 -0.2303 -0.3842
 1718TIP3    H126789   0.562   0.707   1.131  0.8399 -0.2570 -0.8114
 1718TIP3    H226790   0.682   0.704   1.223 -1.5026  0.4205  2.4602
 1719TIP3   OH226791   5.117   1.371   7.563  0.0726 -0.0699 -0.0789
 1719TIP3    H126792   5.182   1.399   7.499 -1.0860  0.0501 -1.2369
 1719TIP3    H226793   5.078   1.293   7.525 -0.8815  0.2084  0.2982
 1720TIP3   OH226794   6.358   3.682   0.810 -0.1708  0.0590  0.1997
 1720TIP3    H126795   6.282   3.667   0.866 -0.6952 -0.9792 -0.7560
 1720TIP3    H226796   6.349   3.619   0.739  0.4757  1.3154 -1.0550
 1721TIP3   OH226797   0.308   4.565   2.428  0.3700  0.7505  0.4129
 1721TIP3    H126798   0.263   4.647   2.446 -0.7625  0.0896  0.6780
 1721TIP3    H226799   0.331   4.570   2.335  2.9007  2.5596  1.0265
 1722TIP3   OH226800   2.832   4.125   1.346  0.7524 -0.0837 -0.0667
 1722TIP3    H126801   2.765   4.132   1.414 -0.1390 -0.3027 -0.8980
 1722TIP3    H226802   2.909   4.090   1.391  0.5784  0.9102  1.0718
 1723TIP3   OH226803   1.933   0.669   0.453 -0.0124 -0.2891 -0.4784
 1723TIP3    H126804   1.860   0.622   0.412  1.2047 -1.3016 -1.5536
 1723TIP3    H226805   1.979   0.601   0.503  0.2577  0.3265  0.1261
 1724TIP3   OH226806   0.769   4.824   7.639  0.2359  0.3180 -0.5770
 1724TIP3    H126807   0.825   4.762   7.686  0.4303  0.6656 -0.3508
 1724TIP3    H226808   0.724   4.873   7.708 -1.7257 -1.1607 -0.7152
 1725TIP3   OH226809   5.457   0.899   2.298 -0.1764  0.0770 -0.3077
 1725TIP3    H126810   5.419   0.928   2.381  0.1115 -2.8803  1.0150
 1725TIP3    H226811   5.549   0.925   2.303  0.1400 -1.1535  0.9479
 1726TIP3   OH226812   6.235   0.339   0.952 -0.1629  0.1338  0.4114
 1726TIP3    H126813   6.251   0.329   0.858 -2.3412  0.5148 -0.0568
 1726TIP3    H226814   6.228   0.250   0.985 -0.0448  0.0012  0.0845
 1727TIP3   OH226815   1.209   0.654   2.187 -0.2276  0.3046 -0.2697
 1727TIP3    H126816   1.235   0.569   2.222 -1.3753  0.2665  0.5462
 1727TIP3    H226817   1.272   0.716   2.223  0.5595 -0.1842 -0.7970
 1728TIP3   OH226818   3.561   3.527   7.847 -0.1029 -0.8948  0.3221
 1728TIP3    H126819   3.567   3.515   7.752 -2.2148 -0.6167  0.1115
 1728TIP3    H226820   3.477   3.489   7.871 -2.4466  3.9941  1.1181
 1729TIP3   OH226821   1.343   6.799   0.077  0.7003 -0.1224  0.2538
 1729TIP3    H126822   1.342   6.883   0.124  0.4762  1.3607 -2.2278
 1729TIP3    H226823   1.252   6.772   0.073  0.7162 -0.2388  0.5806
 1730TIP3   OH226824   3.183   5.216   2.796 -0.1331 -0.0078 -0.2450
 1730TIP3    H126825   3.261   5.229   2.851 -0.3020 -2.4704  0.6612
 1730TIP3    H226826   3.207   5.255   2.711  0.9758  1.8220  0.8291
 1731TIP3   OH226827   6.150   2.263   7.881  0.2671 -0.5059  0.2319
 1731TIP3    H126828   6.190   2.177   7.885  0.6198 -0.3553 -0.0020
 1731TIP3    H226829   6.176   2.306   7.963 -1.9148 -1.4648  1.5461
 1732TIP3   OH226830   1.678   1.582   7.148 -0.1603  0.1486  0.0467
 1732TIP3    H126831   1.744   1.543   7.091 -0.4981 -0.4958  0.0890
 1732TIP3    H226832   1.604   1.521   7.145 -0.6374  0.7111  0.2375
 1733TIP3   OH226833   3.046   5.392   8.446  0.3657 -0.7060  0.3388
 1733TIP3    H126834   3.011   5.479   8.467 -0.6528 -0.9235 -0.3429
 1733TIP3    H226835   3.089   5.403   8.361 -2.9649 -1.5498 -1.6547
 1734TIP3   OH226836   5.114   3.283   1.480  0.6732 -0.8215  0.1348
 1734TIP3    H126837   5.031   3.236   1.488  0.6808 -0.9557 -0.4748
 1734TIP3    H226838   5.178   3.226   1.524  0.6159 -1.2221 -0.2817
 1735TIP3   OH226839   1.634   5.141   7.596  0.1935 -0.1712  0.0070
 1735TIP3    H126840   1.696   5.155   7.667  0.5189 -2.0100  0.1278
 1735TIP3    H226841   1.681   5.165   7.516 -0.0446  1.5217  0.3343
 1736TIP3   OH226842   6.736   2.960   2.257  0.0210 -0.4908  0.6249
 1736TIP3    H126843   6.785   3.005   2.188 -1.9216 -0.0262 -0.5039
 1736TIP3    H226844   6.721   3.028   2.323 -3.4429  0.9402 -1.3471
 1737TIP3   OH226845   1.138   5.878   1.842  0.2724 -0.0370 -0.6225
 1737TIP3    H126846   1.231   5.861   1.830  0.0934 -1.1373 -0.5787
 1737TIP3    H226847   1.094   5.803   1.802 -0.5441 -0.3082  0.6896
 1738TIP3   OH226848   4.130   0.014   1.399  0.4903 -0.2228 -0.1292
 1738TIP3    H126849   4.084   0.052   1.474 -1.8899 -2.7271 -0.1813
 1738TIP3    H226850   4.105   0.069   1.325 -0.6280 -0.2014  0.2459
 1739TIP3   OH226851   2.370   1.103   8.426 -0.7695 -0.3765 -0.7326
 1739TIP3    H126852   2.444   1.091   8.485 -1.5353 -0.9768  0.1420
 1739TIP3    H226853   2.320   1.021   8.433 -2.2904  0.5476 -0.1812
 1740TIP3   OH226854   2.646   1.526   1.814 -0.8891  0.7682 -0.0833
 1740TIP3    H126855   2.612   1.437   1.803  1.6333 -0.2535 -0.2313
 1740TIP3    H226856   2.579   1.570   1.866 -1.0881 -2.0099  2.2841
 1741TIP3   OH226857   0.802   1.424   1.580  1.0863  0.3567  0.2301
 1741TIP3    H126858   0.860   1.412   1.656 -1.0919  1.8666  2.2819
 1741TIP3    H226859   0.813   1.515   1.555  0.0458  0.5186  0.3118
 1742TIP3   OH226860   5.706   0.711   7.792 -0.5970 -0.1547  0.4715
 1742TIP3    H126861   5.770   0.650   7.755  1.1121  1.0364  1.3127
 1742TIP3    H226862   5.692   0.680   7.881 -0.0585  0.3911  0.7569
 1743TIP3   OH226863   5.069   3.892   1.735  0.2432  0.2823  0.4736
 1743TIP3    H126864   5.158   3.920   1.712 -0.5565  1.2390 -1.8003
 1743TIP3    H226865   5.063   3.904   1.829  2.3070  0.8558  0.5708
 1744TIP3   OH226866   0.415   0.566   2.920  0.3147  0.6688 -0.6839
 1744TIP3    H126867   0.507   0.574   2.897  1.1187  0.4509  2.0239
 1744TIP3    H226868   0.408   0.609   3.005 -1.1521 -2.7040  1.1212
 1745TIP3   OH226869   1.398   2.666   1.061  0.0272 -0.1677  0.0830
 1745TIP3    H126870   1.456   2.697   0.991  1.4922 -2.0106  0.3938
 1745TIP3    H226871   1.424   2.718   1.137 -0.8573  1.1183 -0.4597
 1746TIP3   OH226872   5.203   4.051   0.259  0.0003 -0.3186  0.1132
 1746TIP3    H126873   5.188   4.045   0.354  0.6510 -1.8649  0.1486
 1746TIP3    H226874   5.297   4.035   0.249 -0.3488 -1.9945 -0.8998
 1747TIP3   OH226875   0.185   4.143   2.502 -0.3712 -0.3406 -0.3860
 1747TIP3    H126876   0.270   4.187   2.499 -0.3238 -0.3810  0.2065
 1747TIP3    H226877   0.154   4.158   2.591 -1.6430  0.8972 -0.9899
 1748TIP3   OH226878   5.707   6.509   8.345 -0.0215  0.0537 -0.1822
 1748TIP3    H126879   5.700   6.571   8.272 -0.6293 -0.4487 -0.5584
 1748TIP3    H226880   5.651   6.546   8.413  0.9822  0.8173  0.2606
 1749TIP3   OH226881   0.839   4.233   1.776  0.6433 -0.1472  0.2516
 1749TIP3    H126882   0.918   4.272   1.813  0.5875  1.4221 -1.1712
 1749TIP3    H226883   0.813   4.293   1.706 -0.7017 -1.6556 -0.6088
 1750TIP3   OH226884   6.309   5.478   1.898 -0.0646 -0.2113  0.0698
 1750TIP3    H126885   6.230   5.444   1.856  0.3773 -0.1517 -0.8273
 1750TIP3    H226886   6.331   5.413   1.965 -1.5914  0.3922  1.2227
 1751TIP3   OH226887   0.943   1.327   1.334 -0.1319 -0.2269 -0.0742
 1751TIP3    H126888   0.880   1.338   1.406  0.9165  0.6419  0.7509
 1751TIP3    H226889   0.975   1.416   1.317  1.8975 -0.7998  0.5029
 1752TIP3   OH226890   2.063   1.858   7.460  0.0688 -0.4110 -0.0291
 1752TIP3    H126891   2.147   1.813   7.454  0.2427 -0.3043  1.3836
 1752TIP3    H226892   2.083   1.940   7.506 -1.1866 -1.5493  2.7858
 1753TIP3   OH226893   6.057   4.243   0.580  0.4061  0.3397  0.0508
 1753TIP3    H126894   5.998   4.293   0.523 -0.6192  0.4573  1.1768
 1753TIP3    H226895   6.005   4.168   0.609  1.1222 -0.0574  0.3321
 1754TIP3   OH226896   5.227   5.136   7.417  0.3180  0.1436  0.7294
 1754TIP3    H126897   5.169   5.156   7.343  0.8527 -1.2125 -0.0954
 1754TIP3    H226898   5.268   5.052   7.393  1.3217  0.2236  2.0758
 1755TIP3   OH226899   3.200   5.630   2.670 -0.1452  0.7994 -0.2538
 1755TIP3    H126900   3.279   5.596   2.627 -1.1155 -1.6205 -0.3057
 1755TIP3    H226901   3.221   5.630   2.763 -0.0553  0.1803 -0.2703
 1756TIP3   OH226902   0.396   4.937   2.150  0.3560  0.3951  1.0287
 1756TIP3    H126903   0.305   4.952   2.123  0.8132 -0.6475 -1.3733
 1756TIP3    H226904   0.409   4.843   2.140  2.1742  0.7422 -0.4485
 1757TIP3   OH226905   4.295   2.963   7.997 -0.2926  0.1080  0.2342
 1757TIP3    H126906   4.328   3.049   7.969 -1.8055  0.8442  0.6263
 1757TIP3    H226907   4.257   2.979   8.084  0.0034 -1.1110  0.6049
 1758TIP3   OH226908   6.380   5.443   7.695  0.1655  0.1020 -0.0132
 1758TIP3    H126909   6.321   5.490   7.754 -1.0442 -1.5223  0.1275
 1758TIP3    H226910   6.334   5.363   7.673  0.8957  0.2766 -2.5800
 1759TIP3   OH226911   4.942   4.367   7.719  1.2234 -0.0854  0.2474
 1759TIP3    H126912   4.979   4.328   7.641  0.3632  0.9536 -0.7227
 1759TIP3    H226913   4.997   4.443   7.737  2.4048 -1.2081  1.6519
 1760TIP3   OH226914   6.357   1.580   1.950 -0.6347  0.0310  0.3270
 1760TIP3    H126915   6.364   1.604   2.042 -1.4892  0.3736  0.3074
 1760TIP3    H226916   6.437   1.615   1.909 -1.1293  1.5142  0.5822
 1761TIP3   OH226917   1.985   4.217   1.825  0.1297  0.3395  0.0170
 1761TIP3    H126918   1.978   4.153   1.754  1.7654  0.5525 -0.3661
 1761TIP3    H226919   1.953   4.170   1.902 -1.1771 -0.0625 -0.7370
 1762TIP3   OH226920   5.457   1.433   8.128  0.1645  0.1449 -0.4468
 1762TIP3    H126921   5.526   1.487   8.089  1.2103 -1.4657 -0.9242
 1762TIP3    H226922   5.387   1.495   8.149  1.0766  1.5906 -1.4797
 1763TIP3   OH226923   2.621   1.467   0.436 -0.0020  0.2035  0.2776
 1763TIP3    H126924   2.576   1.462   0.521 -1.4268 -0.3592 -0.4826
 1763TIP3    H226925   2.567   1.527   0.384  0.2753 -0.2576 -0.5609
 1764TIP3   OH226926   2.043   2.113   1.989  0.6641  0.2965 -0.3336
 1764TIP3    H126927   2.138   2.100   1.993  0.6021  0.0175  0.3651
 1764TIP3    H226928   2.022   2.108   1.896  1.1976 -0.6796 -0.4139
 1765TIP3   OH226929   1.459   5.677   8.402  0.2976 -0.4163 -0.6597
 1765TIP3    H126930   1.532   5.735   8.383  0.2396 -0.3574 -0.7057
 1765TIP3    H226931   1.401   5.686   8.326  1.3479 -2.2366 -1.7533
 1766TIP3   OH226932   0.908   1.910   6.836 -0.6488  0.3460  0.0200
 1766TIP3    H126933   0.830   1.854   6.830 -0.0655 -0.6290  1.0164
 1766TIP3    H226934   0.875   1.992   6.873 -1.3629  0.3215 -0.5367
 1767TIP3   OH226935   5.161   2.339   0.919  0.3203 -0.6326 -0.0830
 1767TIP3    H126936   5.104   2.262   0.921 -0.3437 -0.1673  1.8649
 1767TIP3    H226937   5.222   2.325   0.991 -1.0190  1.4495  1.6093
 1768TIP3   OH226938   3.595   4.360   3.062 -0.2030  0.1943 -0.2311
 1768TIP3    H126939   3.552   4.287   3.016  2.3391 -2.4913  1.3089
 1768TIP3    H226940   3.531   4.387   3.128 -1.4545 -0.1636 -1.2451
 1769TIP3   OH226941   3.420   5.538   1.939 -0.3472  0.0291  0.5268
 1769TIP3    H126942   3.499   5.575   1.900 -1.7264  0.9303 -1.6260
 1769TIP3    H226943   3.438   5.444   1.946  1.0652  0.2811  0.5180
 1770TIP3   OH226944   4.572   2.298   1.549  0.1442 -0.2880  0.1680
 1770TIP3    H126945   4.540   2.268   1.634 -0.7116 -3.2566 -1.0273
 1770TIP3    H226946   4.492   2.316   1.499  0.5068 -1.2686 -0.8121
 1771TIP3   OH226947   1.699   4.754   1.924  0.3353  0.5390  0.3716
 1771TIP3    H126948   1.676   4.716   2.008  0.1761 -1.3040 -0.4725
 1771TIP3    H226949   1.685   4.684   1.860 -0.5247  2.1749 -1.3431
 1772TIP3   OH226950   1.135   6.310   7.318  0.3228  0.1717 -0.0211
 1772TIP3    H126951   1.096   6.322   7.404 -0.9060  0.4906 -0.5977
 1772TIP3    H226952   1.104   6.385   7.267  1.1796  0.0869 -0.6855
 1773TIP3   OH226953   4.681   4.036   1.409 -0.0030 -0.4827 -0.1116
 1773TIP3    H126954   4.585   4.036   1.412 -0.0355 -2.5840  0.2066
 1773TIP3    H226955   4.706   3.948   1.435  2.1314  0.8108  2.8024
 1774TIP3   OH226956   5.412   0.023   1.202  0.2878  0.0591  0.0930
 1774TIP3    H126957   5.491   0.067   1.233  0.9284 -0.9423 -0.0610
 1774TIP3    H226958   5.340   0.076   1.236  1.0120  0.6219  0.8015
 1775TIP3   OH226959   1.200   3.469   2.278 -0.5417  0.1286  0.2159
 1775TIP3    H126960   1.133   3.430   2.335  0.2082 -1.4616  0.0602
 1775TIP3    H226961   1.162   3.462   2.190 -0.6627  0.3233  0.2513
 1776TIP3   OH226962   2.530   5.133   6.755 -0.4831  0.6953 -0.3742
 1776TIP3    H126963   2.561   5.221   6.733  0.3904  0.6282  0.4925
 1776TIP3    H226964   2.606   5.077   6.737  0.1656  0.5814  2.2672
 1777TIP3   OH226965   0.822   4.320   7.163 -0.0858 -0.2515  0.1546
 1777TIP3    H126966   0.878   4.267   7.106 -1.3737 -1.9917  0.4207
 1777TIP3    H226967   0.734   4.310   7.126 -0.7761 -0.5167  1.7770
 1778TIP3   OH226968   2.451   5.683   7.821 -0.3195  0.0453 -0.0560
 1778TIP3    H126969   2.475   5.593   7.798  1.4369  0.0476  1.5315
 1778TIP3    H226970   2.385   5.673   7.889 -0.9104 -0.0111 -0.6261
 1779TIP3   OH226971   5.873   3.551   1.132 -0.2107 -0.6421 -0.1656
 1779TIP3    H126972   5.790   3.524   1.171 -0.0632 -1.0497 -0.1322
 1779TIP3    H226973   5.912   3.470   1.100  1.1542 -0.8009  1.7100
 1780TIP3   OH226974   2.952   0.925   7.427 -0.5362 -0.1784 -0.3682
 1780TIP3    H126975   2.892   0.856   7.397  1.2570 -1.7165 -0.6333
 1780TIP3    H226976   3.030   0.877   7.456  0.5254  1.7317  0.0718
 1781TIP3   OH226977   1.399   3.840   8.617 -0.1107 -0.2998 -0.5350
 1781TIP3    H126978   1.359   3.755   8.631 -0.4554 -0.0146  0.2519
 1781TIP3    H226979   1.433   3.836   8.527 -0.5380 -1.0878 -0.6711
 1782TIP3   OH226980   4.514   2.063   1.263  0.4030 -0.3827 -0.0614
 1782TIP3    H126981   4.497   2.153   1.289  0.5970 -0.1433 -0.7584
 1782TIP3    H226982   4.436   2.015   1.291  0.4176 -0.0519  0.5577
 1783TIP3   OH226983   6.111   5.858   8.590  0.1664  0.0216 -0.2162
 1783TIP3    H126984   6.078   5.785   8.539 -0.1597  1.5325 -2.2985
 1783TIP3    H226985   6.071   5.935   8.551 -0.3325  1.3093  2.5513
 1784TIP3   OH226986   4.699   5.840   8.584 -0.2261  0.3822 -0.1972
 1784TIP3    H126987   4.641   5.799   8.519 -2.1557  1.2647  0.8689
 1784TIP3    H226988   4.698   5.778   8.657  1.3603 -0.2649 -0.6915
 1785TIP3   OH226989   3.478   0.195   7.075 -0.7818  0.3256 -0.3094
 1785TIP3    H126990   3.404   0.243   7.036 -2.1545 -0.6320  1.0250
 1785TIP3    H226991   3.539   0.264   7.101 -1.8870  1.2548 -0.0703
 1786TIP3   OH226992   4.809   2.571   8.432  0.3273  0.3055  0.4859
 1786TIP3    H126993   4.752   2.590   8.356  1.9141 -0.1901 -0.8857
 1786TIP3    H226994   4.813   2.654   8.479 -2.8674 -0.0474  1.6456
 1787TIP3   OH226995   2.959   4.190   8.811 -0.0480 -0.3415 -0.4750
 1787TIP3    H126996   2.879   4.214   8.764 -0.4738 -0.8855 -0.0473
 1787TIP3    H226997   3.024   4.176   8.742 -0.5901 -0.8647 -0.8871
 1788TIP3   OH226998   0.237   3.358   1.936  0.2238 -0.9081 -0.5331
 1788TIP3    H126999   0.162   3.326   1.986 -1.4477 -0.4918 -2.6377
 1788TIP3    H227000   0.229   3.453   1.939 -0.8797 -0.8745 -2.8586
 1789TIP3   OH227001   0.336   1.968   0.854 -0.2524  0.2370 -0.4570
 1789TIP3    H127002   0.295   1.881   0.847 -2.2729  1.0346  0.4220
 1789TIP3    H227003   0.396   1.960   0.928 -0.7115 -0.3361 -0.1308
 1790TIP3   OH227004   0.021   0.489   7.290 -1.1583  0.6082  0.2607
 1790TIP3    H127005   0.036   0.577   7.256  1.2311 -0.4987 -1.8857
 1790TIP3    H227006  -0.041   0.449   7.229  0.1460 -0.1297 -0.6377
 1791TIP3   OH227007   0.646   5.881   1.568 -0.2857  0.8827 -0.2457
 1791TIP3    H127008   0.674   5.919   1.485 -1.4091  0.3661 -0.8830
 1791TIP3    H227009   0.726   5.878   1.621  0.8688 -0.4328 -1.9401
 1792TIP3   OH227010   0.806   0.225   1.179  0.4923 -0.6461 -0.7158
 1792TIP3    H127011   0.731   0.273   1.143 -0.3636  0.1390  1.9337
 1792TIP3    H227012   0.869   0.293   1.203  1.4221 -1.2147 -1.4289
 1793TIP3   OH227013   0.166   4.991   1.141  0.0934  0.4323  0.2013
 1793TIP3    H127014   0.076   5.011   1.165 -0.7665 -1.2117 -1.3856
 1793TIP3    H227015   0.162   4.903   1.104  2.5527 -0.1588  1.1081
 1794TIP3   OH227016   0.274   1.841   0.463 -0.8122 -0.0797 -0.3733
 1794TIP3    H127017   0.288   1.915   0.522 -1.7278 -0.4936  0.3779
 1794TIP3    H227018   0.219   1.877   0.393  1.2095  0.7150 -1.6502
 1795TIP3   OH227019   3.523   1.369   1.354  0.1333  0.1629 -0.3730
 1795TIP3    H127020   3.549   1.437   1.417  3.8929  0.2515 -1.7569
 1795TIP3    H227021   3.539   1.287   1.400  0.0989  0.2109 -0.2735
 1796TIP3   OH227022   6.111   3.756   7.999  0.0148  0.2683 -0.1617
 1796TIP3    H127023   6.186   3.716   7.955 -1.3557 -0.4428 -1.9850
 1796TIP3    H227024   6.142   3.842   8.028  1.6906 -0.2599 -0.3008
 1797TIP3   OH227025   2.149   0.955   6.711  0.2943  0.2015  0.3492
 1797TIP3    H127026   2.117   0.963   6.801 -1.3297  0.6091 -0.2260
 1797TIP3    H227027   2.130   1.040   6.672  1.9475  0.4009 -0.1284
 1798TIP3   OH227028   4.152   2.041   7.334 -0.2863 -0.0560  0.3195
 1798TIP3    H127029   4.179   2.032   7.243 -0.7244  1.8501 -0.0431
 1798TIP3    H227030   4.082   1.978   7.345 -0.7964  0.2754 -0.9146
 1799TIP3   OH227031   5.708   5.940   1.119  0.5793 -0.1991 -0.8184
 1799TIP3    H127032   5.800   5.924   1.100  0.8931 -0.5419  0.8450
 1799TIP3    H227033   5.663   5.860   1.090  1.2100 -1.2513  0.9400
 1800TIP3   OH227034   6.038   5.934   1.058 -0.2077 -0.3062  0.2589
 1800TIP3    H127035   6.014   6.024   1.037 -0.4834 -0.9474 -2.5308
 1800TIP3    H227036   6.080   5.940   1.144 -0.6828  2.3789  0.3892
 1801TIP3   OH227037   5.668   5.337   3.377 -0.2576 -0.5619 -0.0711
 1801TIP3    H127038   5.734   5.354   3.444  0.4734  2.1566 -1.3232
 1801TIP3    H227039   5.592   5.389   3.405  0.1659  0.8621 -1.4277
 1802TIP3   OH227040   4.082   5.868   0.110 -0.1446 -0.2884  0.0867
 1802TIP3    H127041   4.098   5.909   0.025 -0.6819  1.3558  0.7260
 1802TIP3    H227042   3.997   5.824   0.100  0.7187 -1.8255 -0.7900
 1803TIP3   OH227043   5.067   0.072   1.916  0.0218 -0.8821 -0.4314
 1803TIP3    H127044   5.049   0.165   1.902 -0.4363 -1.1119 -1.4209
 1803TIP3    H227045   5.146   0.055   1.865 -0.3961 -1.2317 -0.9714
 1804TIP3   OH227046   0.645   0.493   0.800 -0.4982 -0.3791 -0.5596
 1804TIP3    H127047   0.604   0.493   0.887 -0.8818  0.6409 -0.7204
 1804TIP3    H227048   0.583   0.447   0.744 -1.1828  0.6379 -0.6750
 1805TIP3   OH227049   5.644   2.968   0.058 -0.5366  0.5953 -0.0495
 1805TIP3    H127050   5.709   2.937  -0.006 -0.5302 -0.2064  0.3320
 1805TIP3    H227051   5.568   2.913   0.044 -0.1769 -0.2935  1.3086
 1806TIP3   OH227052   5.208   5.628   8.457  0.0660  0.2678 -0.1881
 1806TIP3    H127053   5.268   5.649   8.385  0.7934  1.2365  0.6543
 1806TIP3    H227054   5.263   5.633   8.535 -0.9138  0.2212  0.5166
 1807TIP3   OH227055   3.823   5.377   2.362 -0.3904  0.0779 -0.1319
 1807TIP3    H127056   3.804   5.427   2.441 -1.1342 -2.3458  1.3251
 1807TIP3    H227057   3.755   5.405   2.299 -0.4849  1.2049  0.4441
 1808TIP3   OH227058   2.213   4.749   1.864 -0.0451  0.1150  0.1178
 1808TIP3    H127059   2.235   4.810   1.934 -0.1687  0.5277 -0.2011
 1808TIP3    H227060   2.238   4.663   1.899  0.8624  0.4240  0.2686
 1809TIP3   OH227061   5.429   4.224   0.922 -0.1734  0.2188 -0.2001
 1809TIP3    H127062   5.524   4.228   0.914  0.0761 -3.9262 -1.7342
 1809TIP3    H227063   5.414   4.180   1.005 -0.7618  0.3117 -0.2537
 1810TIP3   OH227064   5.659   0.607   2.008 -0.1191 -0.2345  0.2709
 1810TIP3    H127065   5.722   0.592   1.937 -0.8699 -0.3112 -0.3904
 1810TIP3    H227066   5.704   0.666   2.068  0.2824  0.3710 -0.6068
 1811TIP3   OH227067   4.944   3.263   2.537  0.5087  0.3041  0.2810
 1811TIP3    H127068   4.858   3.299   2.558  1.0955  0.9612  1.6789
 1811TIP3    H227069   4.926   3.186   2.484 -0.9043  0.8602 -0.0826
 1812TIP3   OH227070   6.037   4.814   1.794 -0.1741 -0.4396 -0.0204
 1812TIP3    H127071   6.046   4.837   1.701 -0.3152  0.8425  0.2652
 1812TIP3    H227072   6.070   4.725   1.799 -0.6454 -0.7181 -1.3944
 1813TIP3   OH227073   4.313   4.545   7.839  0.2581 -0.4834 -0.0364
 1813TIP3    H127074   4.224   4.536   7.805 -0.5168  2.3740  0.9263
 1813TIP3    H227075   4.359   4.467   7.809 -2.5613 -2.0548 -0.5586
 1814TIP3   OH227076   2.026   4.436   7.820  0.0501  0.2932 -0.6391
 1814TIP3    H127077   1.951   4.493   7.799  0.4943  0.0803 -3.1143
 1814TIP3    H227078   2.069   4.422   7.736  1.2694 -1.8974  0.2775
 1815TIP3   OH227079   6.010   4.395   1.537 -0.3924 -0.0575 -0.7485
 1815TIP3    H127080   6.026   4.340   1.614 -1.4758  0.6284 -0.0075
 1815TIP3    H227081   5.937   4.352   1.492  0.1968 -0.4219 -1.3716
 1816TIP3   OH227082   0.974   5.944   0.188 -0.1515 -0.2159  0.2615
 1816TIP3    H127083   0.934   5.858   0.193 -1.6860  0.4600  0.1374
 1816TIP3    H227084   0.959   5.973   0.098  2.0874 -0.5906 -0.2930
 1817TIP3   OH227085   2.158   1.236   7.932  0.6559  0.3796 -0.0368
 1817TIP3    H127086   2.123   1.297   7.867 -0.4933 -1.0947 -0.8640
 1817TIP3    H227087   2.118   1.152   7.910  1.2797 -0.4440  1.7790
 1818TIP3   OH227088   6.585   2.749   1.065 -0.6500 -0.2242  0.6311
 1818TIP3    H127089   6.587   2.837   1.028 -1.6185 -0.6132 -0.4098
 1818TIP3    H227090   6.609   2.692   0.992 -0.1641 -0.8414  1.2611
 1819TIP3   OH227091   0.204   5.674   1.981 -0.0483 -0.2218 -0.4931
 1819TIP3    H127092   0.242   5.614   2.045  1.8369  1.6228  0.2154
 1819TIP3    H227093   0.147   5.731   2.032  0.9057  0.7971 -0.5362
 1820TIP3   OH227094   5.497   0.337   1.582 -0.2845  0.9604  0.0593
 1820TIP3    H127095   5.464   0.303   1.665 -1.3804  2.6213  0.3430
 1820TIP3    H227096   5.553   0.267   1.548  0.8108  0.5317  2.5334
 1821TIP3   OH227097   4.411   5.901   0.919  0.2344  0.0443  0.0208
 1821TIP3    H127098   4.381   5.986   0.885  1.6380  0.8143  0.6023
 1821TIP3    H227099   4.440   5.921   1.008 -0.2492 -1.2522  0.4850
 1822TIP3   OH227100   2.711   0.670   8.731  0.2456 -0.4211  0.4076
 1822TIP3    H127101   2.768   0.631   8.665 -0.2129 -0.2631 -0.0926
 1822TIP3    H227102   2.683   0.597   8.785 -3.1732 -1.4944 -2.4093
 1823TIP3   OH227103   1.302   3.775   1.755 -0.2136 -0.0742 -0.3152
 1823TIP3    H127104   1.250   3.718   1.699 -1.9061 -0.2009  1.3090
 1823TIP3    H227105   1.239   3.837   1.791  1.3605  2.0375 -0.9927
 1824TIP3   OH227106   4.710   0.407   0.073  0.0272 -0.5410 -0.1193
 1824TIP3    H127107   4.729   0.500   0.062 -0.3269 -0.5495 -0.8810
 1824TIP3    H227108   4.777   0.376   0.134  0.4414  0.1121 -0.2282
 1825TIP3   OH227109   5.670   6.241   7.064 -0.0301  0.1196  0.2782
 1825TIP3    H127110   5.615   6.318   7.078 -0.6565  0.2292 -2.2553
 1825TIP3    H227111   5.755   6.276   7.036 -0.8811  0.0154 -2.7916
 1826TIP3   OH227112   4.993   5.393   1.138  0.4421  0.6077  0.3250
 1826TIP3    H127113   5.027   5.308   1.111 -0.1767  0.1282  1.0229
 1826TIP3    H227114   4.934   5.374   1.211  1.3060  1.7737  1.3716
 1827TIP3   OH227115   6.317   4.815   1.636  0.4378  0.1974  0.4097
 1827TIP3    H127116   6.255   4.742   1.626  0.0748  0.6984 -1.5572
 1827TIP3    H227117   6.297   4.852   1.722 -0.6697 -0.8572  0.6465
 1828TIP3   OH227118   4.097   3.822   7.095  0.2378 -0.0043  0.5627
 1828TIP3    H127119   4.087   3.738   7.140 -2.0229 -0.7464 -1.1746
 1828TIP3    H227120   4.035   3.880   7.139  0.6205  0.3156  0.6905
 1829TIP3   OH227121   2.893   0.278   0.887  0.5658  0.4168 -0.3055
 1829TIP3    H127122   2.969   0.268   0.829  1.5509  0.6459  0.8899
 1829TIP3    H227123   2.930   0.315   0.967 -0.6587 -0.3960  0.6641
 1830TIP3   OH227124   5.605   1.578   1.082 -0.4935  0.3047 -0.5029
 1830TIP3    H127125   5.698   1.594   1.070 -0.8298  2.0969 -0.9600
 1830TIP3    H227126   5.594   1.485   1.061  0.9953  0.3262 -1.5436
 1831TIP3   OH227127   3.355   0.517   0.840 -0.1521  0.2478  0.1925
 1831TIP3    H127128   3.444   0.526   0.875 -0.6553 -0.5779  1.7546
 1831TIP3    H227129   3.354   0.429   0.802  0.0025  0.6670 -0.8288
 1832TIP3   OH227130   2.196   6.749   7.907  0.6190  0.0208 -0.1912
 1832TIP3    H127131   2.244   6.739   7.989  0.7534 -0.3204 -0.3104
 1832TIP3    H227132   2.240   6.690   7.846  0.1427 -0.1785 -0.3465
 1833TIP3   OH227133   4.321   2.366   0.807 -0.0759 -0.5873 -0.2355
 1833TIP3    H127134   4.271   2.391   0.729  0.6859 -0.7954 -0.8074
 1833TIP3    H227135   4.379   2.440   0.823 -1.8250  0.4861  1.5605
 1834TIP3   OH227136   3.999   0.214   1.845 -0.0884 -0.0942 -0.2905
 1834TIP3    H127137   3.971   0.168   1.766  0.4244  0.5284 -0.8532
 1834TIP3    H227138   3.986   0.152   1.916  3.7169 -2.4089 -1.3649
 1835TIP3   OH227139   0.831   3.915   3.149  0.6017  0.1924  0.1020
 1835TIP3    H127140   0.865   3.842   3.097  0.9145  1.0309 -0.9105
 1835TIP3    H227141   0.748   3.937   3.107  1.6259  1.9393 -1.1287
 1836TIP3   OH227142   5.445   2.206   2.469 -0.5864  0.4465  0.1010
 1836TIP3    H127143   5.408   2.256   2.541 -0.2762 -2.2575  2.2572
 1836TIP3    H227144   5.382   2.137   2.451  0.4411 -0.3426 -0.6130
 1837TIP3   OH227145   3.970   2.208   0.272  0.3134  0.0895  0.0138
 1837TIP3    H127146   3.934   2.128   0.233  0.1403  0.3414 -0.3519
 1837TIP3    H227147   4.041   2.178   0.329  1.8482 -0.1570 -1.9328
 1838TIP3   OH227148   3.757   4.281   0.237  0.1105 -0.4549 -0.5900
 1838TIP3    H127149   3.701   4.228   0.293  1.1134 -0.0919  0.8066
 1838TIP3    H227150   3.806   4.217   0.185  1.1153 -0.9403  0.8942
 1839TIP3   OH227151   4.693   0.617   6.723 -0.0806  0.3198  0.4469
 1839TIP3    H127152   4.787   0.620   6.738  0.1209  1.4458 -0.7934
 1839TIP3    H227153   4.665   0.533   6.759  1.6206 -0.6535 -0.3952
 1840TIP3   OH227154   0.230   5.704   1.223  0.7942  0.1669 -0.3625
 1840TIP3    H127155   0.283   5.706   1.303 -2.2278  0.8315  1.8106
 1840TIP3    H227156   0.215   5.796   1.202 -0.5483  0.0244 -0.1104
 1841TIP3   OH227157   0.005   3.493   7.850  0.3330  0.0879  0.3551
 1841TIP3    H127158   0.072   3.547   7.891 -0.3957 -0.8115  2.9949
 1841TIP3    H227159  -0.006   3.529   7.762  3.2748  1.0795  0.2928
 1842TIP3   OH227160   0.382   5.593   0.367 -0.2549  0.2217 -0.3760
 1842TIP3    H127161   0.313   5.595   0.301 -1.1870  2.3004  0.5929
 1842TIP3    H227162   0.434   5.672   0.350 -0.0764  0.3970  0.9329
 1843TIP3   OH227163   6.793   2.905   2.627 -0.4787  0.0154  0.1626
 1843TIP3    H127164   6.796   2.955   2.545 -0.4236  0.8173  0.6378
 1843TIP3    H227165   6.885   2.887   2.647 -0.5477 -1.4528 -0.6835
 1844TIP3   OH227166   6.573   1.645   8.044  0.5437  0.1198 -0.5390
 1844TIP3    H127167   6.589   1.554   8.020 -0.8612 -0.0364 -0.9198
 1844TIP3    H227168   6.557   1.642   8.138 -1.3547 -0.3141 -0.8431
 1845TIP3   OH227169   1.853   4.222   0.682 -0.2147  0.4240  0.3347
 1845TIP3    H127170   1.806   4.148   0.721  0.8487 -0.3407  0.2120
 1845TIP3    H227171   1.815   4.231   0.595 -0.1444 -0.1835  0.2367
 1846TIP3   OH227172   0.012   2.254   8.469  0.8169  0.2028  0.6108
 1846TIP3    H127173  -0.003   2.172   8.421  1.3691  0.4041  0.0870
 1846TIP3    H227174  -0.042   2.246   8.547  0.4817 -0.4535  0.3202
 1847TIP3   OH227175   4.497   2.175   0.863 -0.1448  0.1118  0.1264
 1847TIP3    H127176   4.455   2.094   0.833  0.2963 -0.8403  1.9451
 1847TIP3    H227177   4.431   2.243   0.846 -0.9808 -0.7978 -0.3961
 1848TIP3   OH227178   6.170   6.349   8.380  0.1149 -0.0795  0.4597
 1848TIP3    H127179   6.227   6.272   8.391  2.6116  1.3382 -1.4108
 1848TIP3    H227180   6.145   6.347   8.288 -1.3939  0.3389  0.8438
 1849TIP3   OH227181   6.803   4.772   0.477  0.3437  0.1011 -0.0749
 1849TIP3    H127182   6.756   4.696   0.511 -0.7953  1.1961  0.9079
 1849TIP3    H227183   6.738   4.821   0.428  1.1055  0.3653 -0.8444
 1850TIP3   OH227184   6.334   4.027   8.333  0.0682  0.2669  0.0847
 1850TIP3    H127185   6.272   4.099   8.337 -0.7409 -0.4347  0.7703
 1850TIP3    H227186   6.370   4.030   8.245 -1.9091 -0.0808 -0.7964
 1851TIP3   OH227187   4.197   6.104   2.557 -0.1695 -0.8079  0.0489
 1851TIP3    H127188   4.197   6.099   2.461  0.5186 -0.2248  0.0066
 1851TIP3    H227189   4.264   6.042   2.584  0.5526 -0.0379  0.0748
 1852TIP3   OH227190   0.577   4.526   8.700 -0.2706 -0.4264 -0.0973
 1852TIP3    H127191   0.544   4.615   8.713  0.7795 -0.1947  1.1881
 1852TIP3    H227192   0.539   4.475   8.772 -1.2045 -1.1335 -1.0656
 1853TIP3   OH227193   4.269   5.267   8.048  0.1067 -0.6253  0.6350
 1853TIP3    H127194   4.254   5.326   7.974 -0.1168 -0.5542  0.7373
 1853TIP3    H227195   4.364   5.259   8.054  0.1821  0.7055  1.4096
 1854TIP3   OH227196   1.755   2.759   2.263 -0.0565 -0.3211  0.1411
 1854TIP3    H127197   1.706   2.692   2.215 -0.8095  0.0119  0.4237
 1854TIP3    H227198   1.753   2.836   2.206 -1.8311  0.3974  1.0954
 1855TIP3   OH227199   6.519   2.280   7.145  0.2499  0.3596 -0.1204
 1855TIP3    H127200   6.443   2.310   7.095  0.0217  1.0181  0.6000
 1855TIP3    H227201   6.582   2.254   7.078 -1.2096 -1.8502 -0.7557
 1856TIP3   OH227202   4.417   1.052   0.412 -0.0755 -0.1787  0.2462
 1856TIP3    H127203   4.508   1.073   0.392 -0.7475  1.1098 -1.7897
 1856TIP3    H227204   4.416   1.037   0.506  2.2576 -0.4379  0.2881
 1857TIP3   OH227205   0.605   0.931   6.973  1.0479 -0.2242  0.1557
 1857TIP3    H127206   0.695   0.907   6.994  0.2936 -1.4429  2.4099
 1857TIP3    H227207   0.596   1.021   7.004  1.2791 -0.3950  0.7385
 1858TIP3   OH227208   0.795   2.794   8.773  0.3103 -0.3861  0.4760
 1858TIP3    H127209   0.865   2.800   8.708  0.5201 -1.4226  0.5873
 1858TIP3    H227210   0.812   2.866   8.833  0.6897 -0.0129 -0.0687
 1859TIP3   OH227211   3.424   2.928   1.009  0.1577 -0.1143  0.4854
 1859TIP3    H127212   3.462   2.846   0.977 -2.3569 -0.6867 -1.4057
 1859TIP3    H227213   3.424   2.986   0.933 -0.6114  0.6504  1.0419
 1860TIP3   OH227214   5.559   2.162   1.109 -0.1417  0.1364  0.0964
 1860TIP3    H127215   5.596   2.206   1.186 -0.7697  0.9211 -0.0426
 1860TIP3    H227216   5.467   2.188   1.109 -0.5444 -1.2097  0.0255
 1861TIP3   OH227217   3.556   6.205   8.332 -0.4944  0.8939 -0.7048
 1861TIP3    H127218   3.541   6.131   8.273 -0.1947  1.6922 -1.8315
 1861TIP3    H227219   3.480   6.206   8.389  0.1415 -1.1124  0.2754
 1862TIP3   OH227220   6.309   4.401   8.107  0.7513  0.6200 -0.0738
 1862TIP3    H127221   6.393   4.428   8.142 -0.0430  1.5297  1.1940
 1862TIP3    H227222   6.261   4.482   8.091  0.2305  0.1370 -1.1333
 1863TIP3   OH227223   3.629   1.377   2.169 -0.3155 -0.1212  0.3474
 1863TIP3    H127224   3.542   1.355   2.137 -0.7725  1.4130  0.4511
 1863TIP3    H227225   3.618   1.390   2.263  0.0766 -0.1687  0.4019
 1864TIP3   OH227226   1.533   2.474   8.799  0.1238 -0.0561  0.4040
 1864TIP3    H127227   1.520   2.452   8.891 -0.0165 -2.3037 -0.0851
 1864TIP3    H227228   1.446   2.499   8.767 -0.4641 -2.1144  0.2489
 1865TIP3   OH227229   1.371   2.916   8.044  0.3831  0.3879  0.2278
 1865TIP3    H127230   1.342   2.844   7.987 -0.1759  0.6317  0.2058
 1865TIP3    H227231   1.431   2.967   7.989  1.5911 -0.6163  0.5497
 1866TIP3   OH227232   1.890   1.954   8.389 -0.3423  0.8555  0.3388
 1866TIP3    H127233   1.971   1.992   8.426  0.3552 -1.5596  1.4752
 1866TIP3    H227234   1.920   1.878   8.340 -1.9317  0.0444  0.6009
 1867TIP3   OH227235   0.840   2.353   6.172  0.0610  0.4786 -0.2904
 1867TIP3    H127236   0.771   2.329   6.233 -0.1412  2.5730  0.3704
 1867TIP3    H227237   0.921   2.320   6.213 -0.4870 -2.5992 -1.4002
 1868TIP3   OH227238   4.677   2.316   0.550  0.7303  0.0196  0.6075
 1868TIP3    H127239   4.665   2.279   0.462  0.0294  2.3165 -0.3523
 1868TIP3    H227240   4.591   2.311   0.590  0.4499  1.1460  0.1979
 1869TIP3   OH227241   6.212   4.024   2.998  0.9104 -0.2827 -0.8952
 1869TIP3    H127242   6.157   4.052   3.072 -0.2859  0.6710 -2.0980
 1869TIP3    H227243   6.209   3.929   3.002 -0.4962 -0.2587 -0.6485
 1870TIP3   OH227244   1.563   2.201   8.700 -0.3235 -0.3540  0.0943
 1870TIP3    H127245   1.595   2.291   8.693 -0.0241 -0.3967  0.8664
 1870TIP3    H227246   1.471   2.210   8.725 -0.9424 -0.2341 -2.0012
 1871TIP3   OH227247   5.314   1.913   3.105 -0.5032  0.3939  0.3843
 1871TIP3    H127248   5.358   1.993   3.077 -0.9476  0.3843 -0.3702
 1871TIP3    H227249   5.326   1.911   3.200 -0.5593  1.3974  0.4257
 1872TIP3   OH227250   3.544   5.602   8.837  0.2844 -0.2836  0.0217
 1872TIP3    H127251   3.583   5.515   8.845  1.6046  0.0644 -1.9159
 1872TIP3    H227252   3.586   5.653   8.906  2.5321 -0.2267 -1.2680
 1873TIP3   OH227253   1.649   3.334   2.438  0.7365 -0.3149  0.3995
 1873TIP3    H127254   1.600   3.265   2.393 -0.3058 -0.1932  1.3046
 1873TIP3    H227255   1.684   3.292   2.516 -1.0479  0.4277  1.6894
 1874TIP3   OH227256   6.663   5.393   0.276 -0.2893 -0.2553  0.2554
 1874TIP3    H127257   6.746   5.417   0.234 -0.5078  3.0908  1.4455
 1874TIP3    H227258   6.689   5.343   0.353  0.4296 -1.1721 -0.5459
 1875TIP3   OH227259   2.989   6.195   1.673  0.0179  0.5749  0.0808
 1875TIP3    H127260   3.050   6.142   1.725 -1.5307  0.2786  1.6931
 1875TIP3    H227261   2.927   6.230   1.737 -0.7016  2.0026 -1.3247
 1876TIP3   OH227262   3.679   6.543   2.585 -0.3578  0.5420 -0.0563
 1876TIP3    H127263   3.692   6.570   2.676 -0.3898  0.6304 -0.0773
 1876TIP3    H227264   3.623   6.466   2.589  0.3926 -0.0166  0.0564
 1877TIP3   OH227265   1.855   5.775   7.534 -0.0526  0.1255  0.1066
 1877TIP3    H127266   1.916   5.822   7.590  0.1030  0.5860 -0.4367
 1877TIP3    H227267   1.781   5.754   7.590  0.0265  0.7238  0.4395
 1878TIP3   OH227268   3.454   6.098   0.282 -0.7015  0.3843  0.0129
 1878TIP3    H127269   3.499   6.082   0.199  1.8320 -0.7840  1.4844
 1878TIP3    H227270   3.372   6.048   0.275  1.4620 -3.5397 -0.2101
 1879TIP3   OH227271   0.557   2.427   8.659 -0.1823  0.2978 -0.2909
 1879TIP3    H127272   0.511   2.510   8.664  0.0124  0.5313 -2.0667
 1879TIP3    H227273   0.635   2.440   8.713  0.3479  1.6184 -1.3205
 1880TIP3   OH227274   1.979   3.767   1.967  0.4090  0.1538 -0.6644
 1880TIP3    H127275   1.996   3.675   1.984 -1.5387 -0.3481 -1.1542
 1880TIP3    H227276   1.900   3.767   1.913  1.0532  2.0722 -1.7092
 1881TIP3   OH227277   3.983   6.478   0.335  0.4670  0.0820  0.0601
 1881TIP3    H127278   3.892   6.503   0.319  0.0527  0.5777  2.7768
 1881TIP3    H227279   4.026   6.490   0.250 -1.9768 -0.2369 -1.3196
 1882TIP3   OH227280   1.488   4.171   7.493 -0.0138  0.1536 -0.3606
 1882TIP3    H127281   1.394   4.190   7.494  0.0076  0.2481 -0.0348
 1882TIP3    H227282   1.503   4.126   7.410 -0.4914 -0.5929 -0.0517
 1883TIP3   OH227283   4.157   6.402   7.748  0.4497  0.3879 -0.1099
 1883TIP3    H127284   4.190   6.434   7.664  0.8408 -1.3796 -0.6757
 1883TIP3    H227285   4.207   6.449   7.813  0.1733  1.7670 -0.8625
 1884TIP3   OH227286   0.755   5.145   7.941  0.4253 -0.2136 -0.3150
 1884TIP3    H127287   0.681   5.204   7.954  0.4558  0.1528 -1.6245
 1884TIP3    H227288   0.716   5.061   7.916  0.3870 -0.7529  1.4224
 1885TIP3   OH227289   5.140   0.837   8.440 -0.0058  0.0304  0.1944
 1885TIP3    H127290   5.204   0.889   8.391  0.4376  0.1385  0.8784
 1885TIP3    H227291   5.076   0.901   8.470  0.6092  0.2115  1.1464
 1886TIP3   OH227292   5.453   6.020   2.696  0.3556  0.2664  0.1773
 1886TIP3    H127293   5.513   5.969   2.641 -0.0727 -0.1905  0.1229
 1886TIP3    H227294   5.491   6.014   2.784 -0.4231 -1.3368  0.4327
 1887TIP3   OH227295   6.431   5.139   1.782  0.5758  0.1272  0.3305
 1887TIP3    H127296   6.477   5.068   1.828 -0.7573 -0.6532  0.5109
 1887TIP3    H227297   6.363   5.167   1.844 -0.9086 -0.5746 -0.9090
 1888TIP3   OH227298   0.632   6.284   0.366  0.1940 -0.1762 -0.0492
 1888TIP3    H127299   0.700   6.218   0.368  0.6102  0.2483  0.0862
 1888TIP3    H227300   0.666   6.355   0.421 -0.0766  0.3069 -0.4980
 1889TIP3   OH227301   2.567   6.027   7.983 -0.0980 -0.6915  0.7968
 1889TIP3    H127302   2.546   6.029   7.890  1.9163  0.2063  0.3142
 1889TIP3    H227303   2.513   6.096   8.021  1.2510  1.0051 -0.2473
 1890TIP3   OH227304   1.021   4.705   2.250  0.0315 -0.3992 -0.0696
 1890TIP3    H127305   0.940   4.745   2.217  0.4243  0.7957  0.3794
 1890TIP3    H227306   0.996   4.664   2.333  0.0285  0.5877  0.4243
 1891TIP3   OH227307   2.257   6.725   2.024  0.5498 -1.1625 -0.0862
 1891TIP3    H127308   2.208   6.647   1.998 -0.0693  0.2424 -3.7343
 1891TIP3    H227309   2.207   6.798   1.987  1.3986  1.0211  2.7083
 1892TIP3   OH227310   4.931   5.800   3.211 -0.0676  0.0045 -0.1082
 1892TIP3    H127311   4.893   5.780   3.297  1.7842 -0.9104  0.5415
 1892TIP3    H227312   5.000   5.864   3.229 -1.0091  1.4261 -1.2373
 1893TIP3   OH227313   3.897   1.917   0.207 -0.2300  0.2524  0.3847
 1893TIP3    H127314   3.835   1.847   0.186 -0.5881  0.7907 -0.3847
 1893TIP3    H227315   3.966   1.873   0.256 -1.0840 -0.4065  1.0355
 1894TIP3   OH227316   5.545   6.590   1.234  0.1556  0.1853  0.0394
 1894TIP3    H127317   5.639   6.582   1.221  0.1546  1.6034 -1.0823
 1894TIP3    H227318   5.519   6.662   1.176 -1.5379  0.1409  0.6962
 1895TIP3   OH227319   1.008   1.193   3.096 -0.2176  0.2562 -0.5383
 1895TIP3    H127320   0.956   1.233   3.027 -0.9266 -0.4991 -0.4555
 1895TIP3    H227321   0.951   1.127   3.135 -0.8950  2.4798  2.6549
 1896TIP3   OH227322   2.479   0.848   6.799 -0.3295  0.3224  0.3294
 1896TIP3    H127323   2.441   0.875   6.715 -1.4128  1.5619  1.1740
 1896TIP3    H227324   2.573   0.843   6.783 -0.5401  0.3732 -0.9943
 1897TIP3   OH227325   4.231   6.036   2.306  0.2410  0.2568  0.5024
 1897TIP3    H127326   4.226   6.118   2.256  0.0996  0.0415  0.1568
 1897TIP3    H227327   4.209   5.968   2.242  3.2666 -0.3637 -0.0301
 1898TIP3   OH227328   3.738   4.723   0.549 -0.1475 -0.0297 -0.5587
 1898TIP3    H127329   3.767   4.634   0.571  0.3245  0.5114  1.2115
 1898TIP3    H227330   3.794   4.780   0.601 -1.5199  1.2361 -0.3800
 1899TIP3   OH227331   1.132   6.598   2.671  0.7446 -0.1996  0.1321
 1899TIP3    H127332   1.082   6.606   2.752 -0.1728 -1.3579 -0.2827
 1899TIP3    H227333   1.196   6.529   2.689  0.3229 -0.6912 -0.2114
 1900TIP3   OH227334   5.086   4.982   1.325 -0.3405 -0.4395 -0.2324
 1900TIP3    H127335   5.111   5.020   1.409  0.2270  1.4693 -1.2255
 1900TIP3    H227336   4.998   4.947   1.340  0.0368 -0.7825  1.3320
 1901TIP3   OH227337   3.112   2.224   0.545  1.0397 -0.0025  0.0713
 1901TIP3    H127338   3.022   2.194   0.557  0.6259  0.5836 -1.2949
 1901TIP3    H227339   3.164   2.144   0.541  0.2234 -0.5048 -1.4855
 1902TIP3   OH227340   3.386   3.848   0.412  0.2819 -0.3657 -0.0975
 1902TIP3    H127341   3.324   3.782   0.443 -0.1658 -0.0588 -0.3241
 1902TIP3    H227342   3.335   3.903   0.353  1.0118 -0.6651 -1.0260
 1903TIP3   OH227343   1.178   2.387   7.961 -0.2414  0.0604 -0.4965
 1903TIP3    H127344   1.258   2.341   7.934 -0.6595 -1.2636  0.4487
 1903TIP3    H227345   1.147   2.429   7.881  0.5197 -0.7608 -1.2440
 1904TIP3   OH227346   1.156   6.570   1.475  0.4184  0.0820 -0.3118
 1904TIP3    H127347   1.104   6.582   1.395 -0.9127  0.4578  0.5793
 1904TIP3    H227348   1.206   6.489   1.459  0.9478  0.6776 -1.9069
 1905TIP3   OH227349   2.657   2.464   1.412 -0.6402  0.2898 -0.1774
 1905TIP3    H127350   2.576   2.505   1.381 -0.5195 -0.4707 -1.5678
 1905TIP3    H227351   2.676   2.396   1.347  0.3560 -0.4827  0.8877
 1906TIP3   OH227352   6.326   6.244   0.291 -0.3890 -0.6433 -0.2358
 1906TIP3    H127353   6.358   6.334   0.294 -0.8059 -0.4808 -0.4882
 1906TIP3    H227354   6.237   6.251   0.257 -0.9780 -1.0180  1.1650
 1907TIP3   OH227355   3.640   6.027   2.092  0.5605 -0.0522  0.1228
 1907TIP3    H127356   3.600   6.097   2.143 -1.8098 -0.8049 -0.6012
 1907TIP3    H227357   3.657   5.958   2.156 -1.0363 -0.4259  0.1676
 1908TIP3   OH227358   1.194   2.075   7.847  0.0911  0.0592 -0.4203
 1908TIP3    H127359   1.170   2.139   7.779  1.8268  0.4165 -0.7317
 1908TIP3    H227360   1.124   2.084   7.913 -0.4115  1.3355 -1.0784
 1909TIP3   OH227361   0.109   1.431   7.697  0.5176  0.4366 -0.2562
 1909TIP3    H127362   0.017   1.409   7.685  0.5629  0.1626 -0.1132
 1909TIP3    H227363   0.155   1.376   7.634  0.7546 -0.9706  1.0665
 1910TIP3   OH227364   0.870   6.170   8.476  0.0585  0.2624 -0.3984
 1910TIP3    H127365   0.785   6.212   8.465 -0.1065 -0.3430 -1.6233
 1910TIP3    H227366   0.870   6.099   8.412 -0.2786 -2.6009  2.4825
 1911TIP3   OH227367   0.293   6.309   0.011  0.0023  0.3795 -0.0621
 1911TIP3    H127368   0.389   6.301   0.015 -0.0750 -1.8090 -1.0369
 1911TIP3    H227369   0.277   6.381  -0.050  1.0566 -0.0299 -0.8584
 1912TIP3   OH227370   6.673   1.896   6.949 -0.5735 -0.0966 -0.5953
 1912TIP3    H127371   6.630   1.940   6.875 -1.0389  2.6713  1.1696
 1912TIP3    H227372   6.603   1.848   6.993 -0.4834 -0.9481 -1.3440
 1913TIP3   OH227373   6.645   5.455   2.653  0.5995  0.1943  0.4161
 1913TIP3    H127374   6.567   5.473   2.706  0.4338 -0.3953  0.3889
 1913TIP3    H227375   6.712   5.513   2.688  0.2995  0.3039  0.8190
 1914TIP3   OH227376   3.121   0.689   0.291  0.0637  0.2272  0.5600
 1914TIP3    H127377   3.043   0.734   0.260 -0.3440 -0.4491  0.6039
 1914TIP3    H227378   3.107   0.678   0.385 -0.2244 -0.7623  0.4047
 1915TIP3   OH227379   5.304   5.798   2.366  0.5171  0.1706 -0.2666
 1915TIP3    H127380   5.209   5.809   2.361  0.5719  0.2116 -1.6374
 1915TIP3    H227381   5.336   5.881   2.402  0.0123 -0.0447  0.7159
 1916TIP3   OH227382   6.101   0.558   0.964  0.3921  0.2551  0.1795
 1916TIP3    H127383   6.077   0.582   1.053  0.7923  0.9075  0.1125
 1916TIP3    H227384   6.158   0.482   0.974 -2.0318 -1.6725  0.3302
 1917TIP3   OH227385   1.252   6.812   7.604 -0.0306  0.1196  0.0875
 1917TIP3    H127386   1.178   6.753   7.586  0.6318 -0.2535 -1.5687
 1917TIP3    H227387   1.310   6.802   7.529  2.0745 -0.1194  1.6384
 1918TIP3   OH227388   5.268   3.858   0.072  0.1720 -0.0991  0.0150
 1918TIP3    H127389   5.220   3.937   0.096 -1.0754 -0.3173 -1.5431
 1918TIP3    H227390   5.350   3.889   0.034  0.6909  0.3415  1.4663
 1919TIP3   OH227391   2.014   4.993   2.060 -0.1079 -0.3574 -0.2781
 1919TIP3    H127392   2.108   4.986   2.077 -0.1228  0.7745  0.3660
 1919TIP3    H227393   1.976   5.012   2.145 -1.1839 -2.7179 -0.1438
 1920TIP3   OH227394   4.736   5.200   8.738 -0.4134 -0.1273 -0.4558
 1920TIP3    H127395   4.795   5.128   8.761 -1.1730 -0.1302  1.7672
 1920TIP3    H227396   4.704   5.178   8.650  1.1260 -1.2840 -0.7720
 1921TIP3   OH227397   3.891   2.810   6.912 -0.0848 -0.3970  0.2732
 1921TIP3    H127398   3.808   2.763   6.915 -0.1049 -0.3728  0.0659
 1921TIP3    H227399   3.958   2.742   6.910 -0.1294 -0.4262 -0.6360
 1922TIP3   OH227400   1.457   0.959   0.967 -0.1883  0.4386 -0.3939
 1922TIP3    H127401   1.394   1.030   0.975 -0.7414 -0.0032 -0.7199
 1922TIP3    H227402   1.510   0.965   1.047  0.0483  1.4639 -0.6126
 1923TIP3   OH227403   0.388   0.659   7.583 -0.2732 -0.1026 -0.1758
 1923TIP3    H127404   0.452   0.639   7.651  1.4853  0.5511 -1.5488
 1923TIP3    H227405   0.354   0.574   7.557 -0.8212 -0.3770  1.3459
 1924TIP3   OH227406   0.585   6.660   6.807  0.0648 -0.4169 -0.4088
 1924TIP3    H127407   0.612   6.595   6.743 -1.4943 -0.6704 -0.8687
 1924TIP3    H227408   0.567   6.739   6.756 -2.1512 -0.9084 -0.5112
 1925TIP3   OH227409   5.469   4.952   1.735  0.1835 -0.0081  0.7563
 1925TIP3    H127410   5.547   4.951   1.680 -0.0247  1.2111  0.3891
 1925TIP3    H227411   5.497   4.914   1.818  0.7589 -0.9860  0.1237
 1926TIP3   OH227412   1.554   3.381   8.065 -0.4670 -0.5336  0.4030
 1926TIP3    H127413   1.574   3.290   8.086 -0.5370 -0.2668  1.7034
 1926TIP3    H227414   1.484   3.405   8.125 -1.0278  0.1467 -0.4884
 1927TIP3   OH227415   0.146   0.847   2.507 -0.8775  0.0003 -0.3070
 1927TIP3    H127416   0.121   0.839   2.599 -0.7846  0.2707 -0.2579
 1927TIP3    H227417   0.105   0.928   2.477 -1.9678 -0.7282 -0.8529
 1928TIP3   OH227418   5.053   2.818   7.927  0.1580  0.7262 -0.2420
 1928TIP3    H127419   4.958   2.810   7.929  0.2286 -0.4587 -0.7872
 1928TIP3    H227420   5.069   2.913   7.920 -0.9311  1.0462  1.2164
 1929TIP3   OH227421   3.535   3.578   0.582  0.3045 -0.4839 -0.0868
 1929TIP3    H127422   3.517   3.568   0.488 -1.7168 -0.6093  0.2785
 1929TIP3    H227423   3.591   3.503   0.603  1.4458 -0.0270 -1.3249
 1930TIP3   OH227424   4.833   5.561   2.243  0.0106 -0.0450  0.0302
 1930TIP3    H127425   4.925   5.583   2.255  0.1177 -0.7679  0.5806
 1930TIP3    H227426   4.788   5.608   2.314  0.3328 -2.1361  1.7329
 1931TIP3   OH227427   4.184   0.285   0.715 -0.4560 -0.4064 -0.5885
 1931TIP3    H127428   4.131   0.206   0.708 -0.3422 -0.4022 -1.8544
 1931TIP3    H227429   4.135   0.351   0.665  0.1440 -0.0756 -0.7540
 1932TIP3   OH227430   1.775   3.805   1.785  0.3188 -0.0101  0.2815
 1932TIP3    H127431   1.814   3.858   1.716 -0.6187 -0.4234 -0.5909
 1932TIP3    H227432   1.691   3.776   1.749 -0.0713 -0.4601  1.4928
 1933TIP3   OH227433   2.176   3.310   7.538 -0.1150  0.2288  0.8065
 1933TIP3    H127434   2.214   3.270   7.460 -2.0253  0.5285 -0.3634
 1933TIP3    H227435   2.165   3.238   7.600 -0.9996 -0.5799 -0.2410
 1934TIP3   OH227436   2.046   6.134   8.116  0.0005 -0.3786  0.0254
 1934TIP3    H127437   1.961   6.145   8.158 -0.0461  0.4463 -0.2778
 1934TIP3    H227438   2.034   6.168   8.028  0.9826  0.9200  0.3690
 1935TIP3   OH227439   5.632   6.251   8.224 -0.7382 -0.1439 -0.4119
 1935TIP3    H127440   5.638   6.320   8.289 -1.5037 -0.0486 -0.4396
 1935TIP3    H227441   5.723   6.238   8.195  0.2734 -2.5754  3.1381
 1936TIP3   OH227442   2.667   1.094   6.836 -0.0732 -0.1044 -0.3442
 1936TIP3    H127443   2.667   1.076   6.742 -0.3132  0.1133 -0.3880
 1936TIP3    H227444   2.740   1.043   6.871  0.5851  0.5139 -0.7816
 1937TIP3   OH227445   1.797   2.445   8.223  0.6562  0.2174  0.2323
 1937TIP3    H127446   1.839   2.531   8.214  2.0314 -0.3669  0.8691
 1937TIP3    H227447   1.785   2.415   8.133  0.2153  1.0438  0.0030
 1938TIP3   OH227448   3.758   6.725   7.243  0.3095  0.7013 -0.3458
 1938TIP3    H127449   3.848   6.726   7.277 -0.0405  1.1617  0.5930
 1938TIP3    H227450   3.718   6.804   7.280  0.0715  1.5544 -2.2998
 1939TIP3   OH227451   2.911   4.600   7.340 -0.4867 -0.4726  0.1394
 1939TIP3    H127452   2.871   4.515   7.325 -0.4973 -0.2947 -0.9621
 1939TIP3    H227453   2.980   4.607   7.274 -0.0340  0.0961  0.6518
 1940TIP3   OH227454   0.947   6.279   2.032 -0.3787  0.3397 -0.2207
 1940TIP3    H127455   0.902   6.253   2.112  0.6027  0.4341  0.3834
 1940TIP3    H227456   0.920   6.370   2.018 -1.4515 -0.0291 -0.6545
 1941TIP3   OH227457   1.265   5.833   2.374  0.1027  0.1521 -0.0436
 1941TIP3    H127458   1.310   5.754   2.342  0.6559  1.5145 -3.0439
 1941TIP3    H227459   1.327   5.872   2.436  1.2657 -0.1547 -0.9656
 1942TIP3   OH227460   4.239   4.053   0.011 -0.7931  0.0799 -0.5734
 1942TIP3    H127461   4.232   3.975   0.066 -2.2246 -0.1647 -1.0691
 1942TIP3    H227462   4.297   4.027  -0.060  2.9848  1.0722  1.8474
 1943TIP3   OH227463   6.174   2.114   0.214  0.7111 -0.2289 -0.5719
 1943TIP3    H127464   6.200   2.206   0.214 -1.5337  0.4763 -1.5358
 1943TIP3    H227465   6.241   2.070   0.266  1.2359  2.1287  0.8867
 1944TIP3   OH227466   3.890   5.562   2.602  0.1953 -0.0913  0.3746
 1944TIP3    H127467   3.970   5.586   2.556  0.2323  0.4611  0.7165
 1944TIP3    H227468   3.907   5.586   2.693  0.6168 -2.3517  0.9478
 1945TIP3   OH227469   1.209   1.835   1.242 -0.6021  0.0778  0.3172
 1945TIP3    H127470   1.257   1.909   1.281  0.8377 -0.9543  0.5773
 1945TIP3    H227471   1.123   1.871   1.222 -0.1087  1.6954  0.9061
 1946TIP3   OH227472   1.991   4.168   7.845 -0.8737  0.3098 -0.1441
 1946TIP3    H127473   1.948   4.123   7.772 -0.8196  0.2866 -0.1625
 1946TIP3    H227474   1.984   4.261   7.823 -0.4408  0.2847 -0.4185
 1947TIP3   OH227475   3.249   1.024   1.053  0.4888  0.4165  0.0060
 1947TIP3    H127476   3.287   1.110   1.032  0.5097  0.4399  0.1438
 1947TIP3    H227477   3.293   0.997   1.133  0.2358  0.4277  0.1463
 1948TIP3   OH227478   6.554   1.328   0.102  0.5804 -0.1834  0.8611
 1948TIP3    H127479   6.629   1.335   0.161  0.6267 -1.0495  0.9088
 1948TIP3    H227480   6.569   1.248   0.053 -0.5959 -0.6736  1.2657
 1949TIP3   OH227481   3.121   2.672   8.711  0.0234  0.4504 -0.4487
 1949TIP3    H127482   3.041   2.647   8.758 -0.7228  1.9848 -0.8448
 1949TIP3    H227483   3.160   2.589   8.684 -2.2431 -0.3269 -1.5746
 1950TIP3   OH227484   5.608   1.549   0.482  0.3490  0.0452 -0.6170
 1950TIP3    H127485   5.560   1.626   0.451 -0.4773 -1.0897 -2.3593
 1950TIP3    H227486   5.664   1.525   0.408  0.6963 -0.9298 -0.0553
 1951TIP3   OH227487   2.647   2.989   0.281 -0.2950  0.3015  0.1237
 1951TIP3    H127488   2.601   3.017   0.360 -1.3057  0.4941 -0.5241
 1951TIP3    H227489   2.735   3.025   0.291 -1.4965  3.8846 -0.6925
 1952TIP3   OH227490   3.335   3.891   2.057  0.3895 -0.3168 -0.8496
 1952TIP3    H127491   3.241   3.906   2.072  0.1872 -1.4257 -0.9648
 1952TIP3    H227492   3.343   3.797   2.047  1.7583 -0.4148  0.7980
 1953TIP3   OH227493   5.029   6.809   1.348  0.4042 -0.6818 -0.0769
 1953TIP3    H127494   5.004   6.755   1.423 -0.3331  0.1409  0.2867
 1953TIP3    H227495   5.017   6.899   1.378  0.6844 -0.3317 -0.9845
 1954TIP3   OH227496   5.886   6.580   1.572 -0.8985 -0.0657 -0.5795
 1954TIP3    H127497   5.931   6.577   1.657 -2.8528 -2.6721  0.4793
 1954TIP3    H227498   5.900   6.494   1.534 -2.0253  0.2618 -1.8129
 1955TIP3   OH227499   6.029   0.368   7.431 -0.4985  0.3749  0.2227
 1955TIP3    H127500   5.985   0.447   7.401 -0.0147  0.5322 -0.0819
 1955TIP3    H227501   6.115   0.370   7.388 -0.2546 -0.0096  0.6803
 1956TIP3   OH227502   5.349   6.254   0.679  0.7511  0.0499 -0.1682
 1956TIP3    H127503   5.394   6.170   0.689 -0.5306 -0.7428 -0.7744
 1956TIP3    H227504   5.318   6.254   0.588  1.4825  1.5802 -0.4547
 1957TIP3   OH227505   1.683   6.842   7.635  0.0884 -0.0404  0.2886
 1957TIP3    H127506   1.668   6.782   7.708  2.7070  1.5588  2.2920
 1957TIP3    H227507   1.745   6.795   7.578  0.2655 -0.1852  0.5997
 1958TIP3   OH227508   1.149   5.029   1.454  0.2418  0.0338  0.7213
 1958TIP3    H127509   1.149   4.975   1.375 -2.5635  0.5396  0.2424
 1958TIP3    H227510   1.219   5.093   1.440 -1.6428  1.6425 -2.5831
 1959TIP3   OH227511   0.764   1.942   2.385  0.6628 -0.3955  0.1794
 1959TIP3    H127512   0.831   1.898   2.437 -0.5403 -2.5113  0.0736
 1959TIP3    H227513   0.716   1.996   2.449  1.7474  0.2785  0.4476
 1960TIP3   OH227514   2.593   4.203   0.156 -0.5028  0.4223  0.3345
 1960TIP3    H127515   2.617   4.130   0.100 -2.8662 -0.9846  1.0146
 1960TIP3    H227516   2.637   4.185   0.239 -3.4258 -2.0523  1.5273
 1961TIP3   OH227517   4.268   1.570   2.689 -0.3281 -0.2321 -0.0990
 1961TIP3    H127518   4.212   1.533   2.621  1.0164  0.8425 -1.8564
 1961TIP3    H227519   4.350   1.522   2.681  0.2982  0.8267 -0.1499
 1962TIP3   OH227520   3.215   5.758   2.930 -0.0056 -0.4854 -0.0524
 1962TIP3    H127521   3.187   5.849   2.937 -1.9651 -1.0323 -0.2368
 1962TIP3    H227522   3.157   5.710   2.989 -0.0257 -1.7909 -1.0638
 1963TIP3   OH227523   4.756   2.174   0.927  0.4666 -0.0634 -0.0739
 1963TIP3    H127524   4.665   2.163   0.899  0.7543 -1.6518 -0.4878
 1963TIP3    H227525   4.772   2.268   0.920 -1.6679  0.5214  1.7357
 1964TIP3   OH227526   2.774   1.380   8.141  0.0925 -0.1524  0.0061
 1964TIP3    H127527   2.732   1.360   8.057  1.2022 -1.3989 -0.2960
 1964TIP3    H227528   2.859   1.336   8.136  0.7365  0.8786  1.2597
 1965TIP3   OH227529   6.334   2.591   2.089  0.1181  0.2483  0.1716
 1965TIP3    H127530   6.369   2.508   2.057  0.3499  0.0473  0.9423
 1965TIP3    H227531   6.402   2.655   2.069 -0.4979  0.4684 -1.3992
 1966TIP3   OH227532   2.348   5.324   7.053  0.1033  0.4960  0.2588
 1966TIP3    H127533   2.416   5.284   7.107  2.0753  0.7649 -1.8777
 1966TIP3    H227534   2.342   5.414   7.087  0.6052  0.3806  0.6768
 1967TIP3   OH227535   1.435   5.416   0.273 -0.2584 -0.3140 -0.2130
 1967TIP3    H127536   1.411   5.330   0.306  0.4555 -0.5414 -0.2559
 1967TIP3    H227537   1.528   5.424   0.294  0.0001 -0.0958 -1.3598
 1968TIP3   OH227538   1.813   0.467   0.982  0.1286  0.0925  0.2125
 1968TIP3    H127539   1.837   0.425   1.065  0.7113 -0.0624 -0.0308
 1968TIP3    H227540   1.766   0.546   1.009 -0.1586 -0.2324  0.6838
 1969TIP3   OH227541   3.779   2.099   7.501 -0.4398  0.5767 -0.2696
 1969TIP3    H127542   3.799   2.032   7.567  0.4015  1.1459  0.0647
 1969TIP3    H227543   3.721   2.055   7.439 -0.4571 -0.2547  0.3251
 1970TIP3   OH227544   1.568   6.085   2.896 -0.1547 -0.0754 -0.3847
 1970TIP3    H127545   1.494   6.135   2.860 -1.6179  0.1609  2.6380
 1970TIP3    H227546   1.625   6.151   2.935 -0.4039 -0.4803  0.7106
 1971TIP3   OH227547   6.594   0.039   0.375  0.1962  0.0860 -0.0291
 1971TIP3    H127548   6.640  -0.034   0.333  1.2067  1.0402 -0.6181
 1971TIP3    H227549   6.543   0.079   0.305  0.7409  0.7976 -0.0212
 1972TIP3   OH227550   1.449   5.088   8.501  0.1682 -0.3571  0.0784
 1972TIP3    H127551   1.511   5.138   8.555 -0.5965  0.8011 -0.0980
 1972TIP3    H227552   1.396   5.039   8.565  2.3586 -2.8214  0.2117
 1973TIP3   OH227553   5.885   1.613   1.069  0.6700  0.5905  0.2988
 1973TIP3    H127554   5.938   1.653   1.000  1.0904  0.1710  0.3728
 1973TIP3    H227555   5.918   1.652   1.150  0.9939  0.1923  0.3605
 1974TIP3   OH227556   3.634   4.163   1.038  0.7752  0.0861  0.1233
 1974TIP3    H127557   3.611   4.091   0.980  0.8759  0.3089 -0.1971
 1974TIP3    H227558   3.684   4.223   0.983 -1.9632  1.9576 -0.5572
 1975TIP3   OH227559   5.807   0.792   0.358 -0.1197  0.3151  0.3328
 1975TIP3    H127560   5.717   0.780   0.327  0.2030 -0.6954 -0.2697
 1975TIP3    H227561   5.803   0.869   0.414 -1.3866  0.2142  0.4148
 1976TIP3   OH227562   0.384   3.357   7.431  0.0100 -0.0125  0.0239
 1976TIP3    H127563   0.324   3.429   7.411  0.2776  0.0515 -0.5748
 1976TIP3    H227564   0.435   3.388   7.506  0.2704  0.5147 -0.3610
 1977TIP3   OH227565   2.955   1.778   1.400  0.6073 -0.1077  0.1593
 1977TIP3    H127566   2.950   1.870   1.427  2.0859 -0.3220  1.3134
 1977TIP3    H227567   2.912   1.730   1.471 -0.6517 -0.2830 -0.7062
 1978TIP3   OH227568   2.293   5.311   0.096  0.6548 -0.5750 -0.1356
 1978TIP3    H127569   2.222   5.255   0.064 -0.6365  0.4081  0.9176
 1978TIP3    H227570   2.327   5.354   0.017 -1.0758  0.2378 -0.4969
 1979TIP3   OH227571   2.748   4.177   2.744 -0.4406  0.3301 -0.2416
 1979TIP3    H127572   2.771   4.243   2.809 -1.1206  0.1140  0.2309
 1979TIP3    H227573   2.830   4.129   2.729 -0.8710 -1.6369  2.7868
 1980TIP3   OH227574   6.608   2.708   0.554  0.3433 -0.3318  0.3115
 1980TIP3    H127575   6.528   2.759   0.545 -0.2452 -0.8374  2.1579
 1980TIP3    H227576   6.609   2.651   0.477  0.9784  2.2870 -1.7633
 1981TIP3   OH227577   6.262   4.258   8.571 -0.3424 -1.2344 -0.6285
 1981TIP3    H127578   6.175   4.260   8.611 -0.4978 -0.7877 -0.9770
 1981TIP3    H227579   6.301   4.342   8.595 -0.4267 -0.9691 -1.3822
 1982TIP3   OH227580   0.395   6.693   0.682  0.1741  0.0894 -0.2728
 1982TIP3    H127581   0.338   6.633   0.730 -0.5360  0.8027 -0.1992
 1982TIP3    H227582   0.339   6.768   0.662  1.9902  2.6775  3.2286
 1983TIP3   OH227583   5.893   2.628   2.138 -0.7814 -0.5217  0.1244
 1983TIP3    H127584   5.943   2.701   2.174 -0.5911 -0.6256  0.0695
 1983TIP3    H227585   5.888   2.565   2.210  0.6518 -1.2693 -0.3957
 1984TIP3   OH227586   2.848   6.599   7.791 -0.1036 -0.2869 -0.6065
 1984TIP3    H127587   2.833   6.674   7.734  0.5642  0.0321 -0.3767
 1984TIP3    H227588   2.917   6.628   7.851 -1.3006 -0.3567  0.8522
 1985TIP3   OH227589   4.654   0.640   8.695  0.3194  0.2624  0.0998
 1985TIP3    H127590   4.604   0.703   8.643  1.2697  0.4760 -0.5875
 1985TIP3    H227591   4.636   0.556   8.654 -1.2503 -0.0152  1.2466
 1986TIP3   OH227592   6.836   5.222   0.748  0.0600 -0.2031  0.2006
 1986TIP3    H127593   6.825   5.127   0.737 -0.6421 -0.1323  0.2522
 1986TIP3    H227594   6.925   5.239   0.718 -0.0002 -0.8007 -0.3475
 1987TIP3   OH227595   0.486   3.426   1.945 -0.2942 -0.1385 -0.3759
 1987TIP3    H127596   0.398   3.402   1.974 -0.4460 -1.5702 -1.9071
 1987TIP3    H227597   0.537   3.430   2.026 -1.6888  0.4846  0.5067
 1988TIP3   OH227598   3.231   5.406   1.688  0.4550 -0.4583 -0.0563
 1988TIP3    H127599   3.165   5.364   1.744  0.9497  0.6498  1.4134
 1988TIP3    H227600   3.240   5.494   1.723  2.4790 -0.4747 -0.4227
 1989TIP3   OH227601   3.997   3.219   3.115 -0.1767  0.2793  0.1909
 1989TIP3    H127602   3.916   3.269   3.126  0.6898  1.6593  0.5897
 1989TIP3    H227603   4.057   3.258   3.179  1.1143 -0.0394 -0.8011
 1990TIP3   OH227604   6.133   3.493   0.034 -0.1731 -0.0180 -0.3339
 1990TIP3    H127605   6.131   3.456   0.122 -1.3471  0.2152 -0.2389
 1990TIP3    H227606   6.225   3.490   0.008  0.1274 -0.4648  0.7373
 1991TIP3   OH227607   3.691   2.285   1.972 -0.3582 -0.2677  0.2456
 1991TIP3    H127608   3.609   2.333   1.978 -1.1426 -1.3067 -1.5522
 1991TIP3    H227609   3.667   2.193   1.988  0.4622 -0.5740 -0.1927
 1992TIP3   OH227610   6.089   5.067   1.946  0.4694 -0.4234 -0.1020
 1992TIP3    H127611   6.149   5.085   2.019  2.0159 -1.0589 -1.1485
 1992TIP3    H227612   6.002   5.071   1.985  1.2112 -0.0727  1.6338
 1993TIP3   OH227613   3.588   0.826   8.670  0.2711 -0.1929  0.2190
 1993TIP3    H127614   3.509   0.879   8.684  0.3322 -0.0468  0.0189
 1993TIP3    H227615   3.556   0.742   8.637  0.2277  0.0324 -0.3124
 1994TIP3   OH227616   2.362   1.327   0.192  0.0323  0.2479  0.0177
 1994TIP3    H127617   2.404   1.275   0.260  0.8501  2.3322  1.2094
 1994TIP3    H227618   2.386   1.418   0.213  1.3306  0.9566 -3.7114
 1995TIP3   OH227619   4.195   4.119   7.330 -0.3914  0.3037 -0.0720
 1995TIP3    H127620   4.232   4.051   7.387  0.6606  0.3661 -0.6539
 1995TIP3    H227621   4.116   4.079   7.294  0.0422 -0.4986 -0.1615
 1996TIP3   OH227622   3.169   1.539   2.006 -0.3546 -0.0238  0.1572
 1996TIP3    H127623   3.119   1.563   2.085  0.9336  0.8310  0.7337
 1996TIP3    H227624   3.220   1.463   2.032 -0.4801 -0.1905 -0.0803
 1997TIP3   OH227625   6.777   0.557   0.932 -0.4996  0.4427 -0.3184
 1997TIP3    H127626   6.847   0.539   0.870 -1.9121  0.5530 -2.0183
 1997TIP3    H227627   6.697   0.544   0.882 -1.7917 -1.4671  2.0114
 1998TIP3   OH227628   5.227   0.373   8.037  0.9666 -0.2752  0.2016
 1998TIP3    H127629   5.291   0.303   8.020  1.0069 -0.5807  1.4990
 1998TIP3    H227630   5.142   0.332   8.021  1.0319 -0.2319 -0.2929
 1999TIP3   OH227631   3.140   0.754   1.089 -0.5340 -0.3688 -0.1777
 1999TIP3    H127632   3.055   0.749   1.044 -0.3921  0.0523 -0.4997
 1999TIP3    H227633   3.172   0.842   1.070 -0.0702 -0.4882  0.0308
 2000TIP3   OH227634   6.416   1.174   8.320 -0.0394 -0.5568  0.1850
 2000TIP3    H127635   6.344   1.176   8.257  0.2373  0.5282 -0.1280
 2000TIP3    H227636   6.495   1.183   8.267  0.2111  0.1160  0.6539
 2001TIP3   OH227637   6.488   0.829   1.814 -0.2752 -0.0876 -0.2286
 2001TIP3    H127638   6.477   0.795   1.903  0.2624 -0.4941 -0.3141
 2001TIP3    H227639   6.420   0.895   1.805 -0.7438 -0.5016  0.2582
 2002TIP3   OH227640   0.853   4.100   2.554  0.1886  0.9056  0.2115
 2002TIP3    H127641   0.916   4.029   2.563  0.5141  0.7442 -2.3979
 2002TIP3    H227642   0.908   4.178   2.543 -0.1169  1.1621  0.5062
 2003TIP3   OH227643   3.717   5.840   7.961 -0.0244 -0.4220 -0.7056
 2003TIP3    H127644   3.800   5.842   7.913  0.2759 -1.9448 -0.2957
 2003TIP3    H227645   3.656   5.797   7.901 -0.1785 -0.4797 -0.5076
 2004TIP3   OH227646   5.695   1.017   2.510 -0.5727  0.3650  0.5347
 2004TIP3    H127647   5.704   0.995   2.417 -1.6387  0.5056  0.3944
 2004TIP3    H227648   5.701   1.113   2.513  0.9574  0.2882  0.7975
 2005TIP3   OH227649   6.319   0.491   1.259  0.1644 -0.1127  0.0621
 2005TIP3    H127650   6.369   0.435   1.200 -1.6717 -0.5843 -1.1325
 2005TIP3    H227651   6.358   0.477   1.345  1.6417 -0.9323 -0.7125
 2006TIP3   OH227652   4.296   2.731   0.698 -0.3995  0.1509 -0.3521
 2006TIP3    H127653   4.226   2.769   0.751 -0.3136  0.9252 -0.7863
 2006TIP3    H227654   4.376   2.767   0.735 -0.1554 -1.2180  0.5488
 2007TIP3   OH227655   2.203   1.032   1.695  0.0035  0.1339 -0.6738
 2007TIP3    H127656   2.219   0.946   1.656  1.1137 -0.5239  1.0922
 2007TIP3    H227657   2.185   1.090   1.621  1.3601 -1.1672 -2.0747
 2008TIP3   OH227658   3.724   6.586   0.198 -0.6405  0.4955 -0.1385
 2008TIP3    H127659   3.696   6.666   0.153  0.6911  3.6749  4.0290
 2008TIP3    H227660   3.646   6.554   0.242 -1.7360 -2.1335 -3.5153
 2009TIP3   OH227661   1.297   2.121   0.478 -0.2901 -0.0973 -0.5198
 2009TIP3    H127662   1.284   2.208   0.440  0.3275 -0.9004 -2.7260
 2009TIP3    H227663   1.344   2.137   0.560  0.2752  1.6147 -1.1421
 2010TIP3   OH227664   1.203   2.844   1.474  0.0264 -0.0542 -0.7201
 2010TIP3    H127665   1.192   2.933   1.440 -0.1335 -0.1573 -0.9427
 2010TIP3    H227666   1.114   2.814   1.492  0.1235  0.0674 -0.0291
 2011TIP3   OH227667   6.146   5.298   0.613  0.1560  0.2155 -0.2790
 2011TIP3    H127668   6.112   5.241   0.544  0.7631 -0.1150 -0.3119
 2011TIP3    H227669   6.090   5.281   0.689 -0.5398  0.6100 -0.6949
 2012TIP3   OH227670   5.279   1.619   3.098 -0.0952  0.0095  0.2992
 2012TIP3    H127671   5.285   1.714   3.108  0.7850 -0.0623  0.6079
 2012TIP3    H227672   5.357   1.596   3.046 -1.0000 -0.4037 -0.9281
 2013TIP3   OH227673   6.512   5.530   0.569  0.5525 -0.2564 -0.7180
 2013TIP3    H127674   6.520   5.466   0.498  0.1610 -1.9249  0.6815
 2013TIP3    H227675   6.587   5.514   0.625 -1.3734 -2.0914  1.5783
 2014TIP3   OH227676   1.759   4.995   0.673 -0.7777 -0.4349 -0.2416
 2014TIP3    H127677   1.845   5.029   0.697 -1.5798 -0.5046  3.3729
 2014TIP3    H227678   1.765   4.901   0.692 -1.7519 -0.3617  0.4850
 2015TIP3   OH227679   4.454   1.724   1.446 -0.4530 -0.4298 -0.4886
 2015TIP3    H127680   4.525   1.787   1.456 -0.0555 -0.7087 -1.3964
 2015TIP3    H227681   4.446   1.682   1.531  0.0578  0.0362 -0.2061
 2016TIP3   OH227682   0.147   1.965   8.609 -0.0613  0.4743  0.1755
 2016TIP3    H127683   0.122   1.875   8.629  1.1728 -0.0667 -0.5583
 2016TIP3    H227684   0.078   1.997   8.551 -1.7928  0.8714  2.3402
 2017TIP3   OH227685   2.550   0.659   7.623  0.4521 -0.0981  0.0735
 2017TIP3    H127686   2.548   0.628   7.714  1.3987 -2.9307 -0.7554
 2017TIP3    H227687   2.459   0.651   7.593 -0.0651  1.8319  1.0065
 2018TIP3   OH227688   0.169   1.716   0.144  0.7364  0.2123  0.3319
 2018TIP3    H127689   0.125   1.791   0.183 -0.7672 -0.2185 -0.4601
 2018TIP3    H227690   0.262   1.741   0.140  0.5193  1.3035  1.6701
 2019TIP3   OH227691   1.726   3.574   7.469 -0.2531  0.3914  0.3788
 2019TIP3    H127692   1.815   3.608   7.476  0.6993 -1.9956  0.7812
 2019TIP3    H227693   1.687   3.592   7.555 -0.3993  1.9395  0.0214
 2020TIP3   OH227694   6.669   1.645   7.491 -0.2593 -0.3494  0.4582
 2020TIP3    H127695   6.655   1.739   7.480  1.9572  0.0382  0.4954
 2020TIP3    H227696   6.689   1.614   7.404 -0.6826 -0.7552  0.5006
 2021TIP3   OH227697   3.858   3.769   1.617 -0.2495 -0.5809  0.4390
 2021TIP3    H127698   3.767   3.742   1.625 -0.7818  0.7849 -0.6575
 2021TIP3    H227699   3.855   3.864   1.612  0.8314 -0.5831 -3.3791
 2022TIP3   OH227700   5.248   1.469   2.685 -0.4923  0.2166  0.2443
 2022TIP3    H127701   5.181   1.474   2.754 -2.2360 -0.6511 -1.2983
 2022TIP3    H227702   5.258   1.375   2.668  0.1216  0.4055 -0.4917
 2023TIP3   OH227703   1.607   3.694   0.977 -0.5387  0.6115 -0.2752
 2023TIP3    H127704   1.703   3.702   0.976 -0.4779  0.2879  1.0863
 2023TIP3    H227705   1.585   3.663   0.889  0.4621  2.0593 -1.0997
 2024TIP3   OH227706   3.774   0.996   8.528 -0.6790  0.1602 -0.5468
 2024TIP3    H127707   3.706   0.945   8.571 -1.0317 -0.0768 -1.3650
 2024TIP3    H227708   3.729   1.074   8.496 -0.6403 -0.1420 -1.3612
 2025TIP3   OH227709   2.115   4.373   1.250  0.0438 -0.4370 -0.0719
 2025TIP3    H127710   2.155   4.305   1.195 -0.6216 -1.5640  0.7711
 2025TIP3    H227711   2.188   4.426   1.280  1.1766 -3.1206  2.3564
 2026TIP3   OH227712   3.233   0.333   1.291  0.0188  0.2528  0.1362
 2026TIP3    H127713   3.153   0.322   1.240 -0.4304 -0.3602  0.9461
 2026TIP3    H227714   3.286   0.395   1.240  0.0452 -1.1154 -1.5892
 2027TIP3   OH227715   5.159   1.854   2.870 -0.1865 -0.6623 -0.2158
 2027TIP3    H127716   5.183   1.896   2.953 -2.0438 -1.3801  0.7762
 2027TIP3    H227717   5.232   1.796   2.850  1.7025  1.7818 -0.7769
 2028TIP3   OH227718   3.926   5.154   1.620 -0.3345 -0.3077 -0.1049
 2028TIP3    H127719   3.875   5.231   1.595 -1.1341 -1.0821 -0.9173
 2028TIP3    H227720   4.015   5.187   1.633 -0.6616  0.7409 -0.4679
 2029TIP3   OH227721   2.617   0.673   7.902  0.0621  0.0605  0.3864
 2029TIP3    H127722   2.651   0.691   7.989 -3.1162 -0.3074  1.8568
 2029TIP3    H227723   2.584   0.583   7.906 -3.6057  1.1981  0.2294
 2030TIP3   OH227724   3.402   1.823   7.361  0.5375  0.4436 -0.6856
 2030TIP3    H127725   3.355   1.867   7.290  2.5300  1.1613 -1.6352
 2030TIP3    H227726   3.403   1.730   7.335 -0.0000  0.4796 -0.8459
 2031TIP3   OH227727   5.958   0.083   7.416  0.0711 -0.3048 -0.2610
 2031TIP3    H127728   6.037   0.043   7.379  0.7787 -0.6873  1.5746
 2031TIP3    H227729   5.984   0.173   7.436 -0.2078 -0.1994 -0.3651
 2032TIP3   OH227730   4.391   0.674   1.186 -0.3901 -0.6422  0.5781
 2032TIP3    H127731   4.307   0.711   1.213  0.0231 -0.6855  1.9762
 2032TIP3    H227732   4.452   0.747   1.189 -0.1174 -0.8761  0.7854
 2033TIP3   OH227733   4.556   3.054   2.537 -0.3761 -0.2609 -0.4263
 2033TIP3    H127734   4.498   3.126   2.563 -0.3112  0.1108 -1.2961
 2033TIP3    H227735   4.507   3.007   2.470 -0.0410 -0.4835 -0.5166
 2034TIP3   OH227736   0.423   1.219   8.393 -0.4601 -0.0098 -0.2895
 2034TIP3    H127737   0.416   1.311   8.420 -2.6682 -0.1548 -0.1374
 2034TIP3    H227738   0.370   1.214   8.313  2.0993 -0.5812 -2.0679
 2035TIP3   OH227739   5.766   3.882   2.169 -0.2600 -0.1688 -0.0505
 2035TIP3    H127740   5.693   3.879   2.231 -1.9839  0.6576 -1.9227
 2035TIP3    H227741   5.749   3.810   2.108  0.3515  0.2034 -0.6723
 2036TIP3   OH227742   1.472   6.178   0.065 -0.1681 -0.0563  0.1873
 2036TIP3    H127743   1.451   6.106   0.005 -1.9359 -0.5957  1.3640
 2036TIP3    H227744   1.388   6.220   0.082  0.5332  1.0312  1.0993
 2037TIP3   OH227745   2.962   4.587   1.032  0.3445  0.6124  0.5095
 2037TIP3    H127746   2.968   4.643   0.954  0.4315 -1.1386 -0.8086
 2037TIP3    H227747   3.016   4.511   1.011 -2.1836 -1.4230  0.8936
 2038TIP3   OH227748   2.173   5.505   0.277  0.1832  0.2632  0.1888
 2038TIP3    H127749   2.200   5.428   0.227 -1.0975 -0.3076  0.3489
 2038TIP3    H227750   2.115   5.471   0.345 -1.4290  1.4712 -0.5219
 2039TIP3   OH227751   0.578   3.262   8.778  0.1821 -0.5652 -0.2675
 2039TIP3    H127752   0.586   3.208   8.857 -1.0162 -0.9396 -0.3940
 2039TIP3    H227753   0.592   3.352   8.809 -0.9238 -0.6412  0.4984
 2040TIP3   OH227754   1.745   3.795   7.936  0.0527 -0.2547  0.2888
 2040TIP3    H127755   1.708   3.857   7.999  1.4084  2.1879 -1.1485
 2040TIP3    H227756   1.671   3.767   7.884 -0.7920 -0.8904  1.7707
 2041TIP3   OH227757   5.724   0.579   1.036  0.1638  0.1004  0.0452
 2041TIP3    H127758   5.818   0.566   1.021 -0.2573 -0.1836 -3.0840
 2041TIP3    H227759   5.719   0.664   1.080  1.9344 -0.7149  1.9730
 2042TIP3   OH227760   0.462   2.273   2.504  0.3288 -0.0949 -0.1001
 2042TIP3    H127761   0.544   2.303   2.544 -1.4070  1.9754  2.1653
 2042TIP3    H227762   0.464   2.178   2.514  2.3536 -0.0829  0.0620
 2043TIP3   OH227763   0.647   4.769   0.088  0.3107 -0.3465 -0.2663
 2043TIP3    H127764   0.613   4.851   0.123 -0.3655 -1.7814  2.7590
 2043TIP3    H227765   0.593   4.751   0.011 -0.9631  0.9869  0.2766
 2044TIP3   OH227766   4.824   6.476   8.601  0.0372 -0.0572  0.0491
 2044TIP3    H127767   4.824   6.552   8.659 -0.5440 -0.2379  0.2949
 2044TIP3    H227768   4.849   6.402   8.658 -1.1025 -0.3304  0.2146
 2045TIP3   OH227769   2.908   0.635   7.818 -0.5843 -0.0630 -1.0510
 2045TIP3    H127770   2.839   0.687   7.778 -0.6207  0.0188 -0.8794
 2045TIP3    H227771   2.912   0.556   7.764 -0.8411 -0.0875 -1.0349
 2046TIP3   OH227772   5.680   1.825   0.871 -0.0080  0.1176  0.1524
 2046TIP3    H127773   5.589   1.851   0.884  0.6317  1.5390  2.2191
 2046TIP3    H227774   5.680   1.730   0.884 -0.8909  0.3604  2.2513
 2047TIP3   OH227775   3.399   4.287   8.099  0.1154  0.3212  0.3328
 2047TIP3    H127776   3.433   4.203   8.068 -1.1074 -0.3536  0.7566
 2047TIP3    H227777   3.372   4.270   8.190 -2.2129  0.5291 -0.2483
 2048TIP3   OH227778   5.647   4.172   8.814 -0.6123 -0.0641  0.1352
 2048TIP3    H127779   5.575   4.200   8.757 -1.5058 -0.6312  0.9411
 2048TIP3    H227780   5.710   4.132   8.755 -0.9973  0.3665 -0.5881
 2049TIP3   OH227781   0.263   3.912   0.177  0.1607 -0.4612 -0.1603
 2049TIP3    H127782   0.273   3.992   0.126 -0.8475 -0.9045 -1.1157
 2049TIP3    H227783   0.335   3.914   0.240  0.2002  1.1350 -0.2187
 2050TIP3   OH227784   2.119   0.723   0.068 -0.5692  0.6993 -0.4819
 2050TIP3    H127785   2.034   0.749   0.031 -0.5095  0.4032 -0.8312
 2050TIP3    H227786   2.174   0.801   0.061 -0.0414  0.1793 -2.5511
 2051TIP3   OH227787   6.654   1.819   1.602 -0.3193  0.3915 -0.1000
 2051TIP3    H127788   6.718   1.750   1.619 -1.7030 -0.5639  1.4846
 2051TIP3    H227789   6.704   1.900   1.610  1.0508 -0.3669 -0.6597
 2052TIP3   OH227790   0.685   2.435   7.919  0.0630 -0.6371  0.5243
 2052TIP3    H127791   0.693   2.385   7.837  1.6437 -3.0355  2.0032
 2052TIP3    H227792   0.748   2.506   7.911 -0.6121 -0.1497 -0.7467
 2053TIP3   OH227793   4.494   1.308   8.190 -0.1393  0.2891 -0.4137
 2053TIP3    H127794   4.571   1.300   8.245  0.6812 -0.1391 -1.5976
 2053TIP3    H227795   4.463   1.397   8.204 -0.9296 -0.2831  1.9681
 2054TIP3   OH227796   1.562   2.114   7.917 -0.2013 -0.3758 -0.6692
 2054TIP3    H127797   1.526   2.105   8.005  2.6365 -0.5202  0.5774
 2054TIP3    H227798   1.512   2.186   7.878 -1.8523 -0.6250  0.8537
 2055TIP3   OH227799   6.765   2.440   0.373 -0.1283 -0.3065  0.8738
 2055TIP3    H127800   6.687   2.460   0.322  0.5859  0.2526 -0.0212
 2055TIP3    H227801   6.747   2.354   0.411 -0.3238 -1.1681 -1.0703
 2056TIP3   OH227802   5.206   3.017   1.462  0.2154 -0.1318 -0.0329
 2056TIP3    H127803   5.215   2.923   1.449  0.9360 -0.0524 -0.1145
 2056TIP3    H227804   5.136   3.043   1.402 -0.5288 -0.7326  0.5441
 2057TIP3   OH227805   3.291   0.756   0.727 -0.2449 -0.2360  0.3434
 2057TIP3    H127806   3.326   0.669   0.742  0.1425  0.1825  2.1135
 2057TIP3    H227807   3.368   0.812   0.718 -0.4879 -0.1177 -1.2534
 2058TIP3   OH227808   1.903   1.687   0.724  0.5890 -0.8852  0.4806
 2058TIP3    H127809   1.881   1.752   0.656  0.8481  0.8036  1.9363
 2058TIP3    H227810   1.879   1.603   0.685 -1.2917  0.1987 -0.8819
 2059TIP3   OH227811   6.371   3.578   8.592 -0.0918 -0.2576 -0.2295
 2059TIP3    H127812   6.407   3.518   8.657 -1.2287 -0.2487  0.4296
 2059TIP3    H227813   6.448   3.621   8.554  0.6247 -0.7172  0.6565
 2060TIP3   OH227814   4.243   1.474   0.439  0.1550 -0.0347 -0.3845
 2060TIP3    H127815   4.228   1.446   0.529  1.3032 -0.7635 -0.3932
 2060TIP3    H227816   4.332   1.445   0.419  1.9733  4.4361 -0.0847
 2061TIP3   OH227817   5.605   1.343   8.601 -0.0913 -0.1637  0.4910
 2061TIP3    H127818   5.519   1.301   8.597  0.3007 -0.8896 -2.5573
 2061TIP3    H227819   5.610   1.395   8.521  2.5545 -0.6789  0.2403
 2062TIP3   OH227820   0.439   3.411   1.321 -0.0925  0.4119 -0.0308
 2062TIP3    H127821   0.397   3.446   1.241  0.4024  0.7740 -0.1391
 2062TIP3    H227822   0.467   3.489   1.368 -0.1243  0.1861  0.3614
 2063TIP3   OH227823   5.152   2.605   0.814 -0.0760 -0.2492 -0.3615
 2063TIP3    H127824   5.219   2.661   0.854 -0.4657  1.3007 -1.7756
 2063TIP3    H227825   5.179   2.516   0.837  1.7627  0.3892  0.1652
 2064TIP3   OH227826   3.078   5.260   1.899  0.4183  0.4154  0.7750
 2064TIP3    H127827   3.122   5.187   1.943 -0.6353 -1.7076 -1.4564
 2064TIP3    H227828   2.987   5.255   1.928  0.3866  1.0578  0.8177
 2065TIP3   OH227829   5.486   5.794   1.930  0.2672  0.1145 -0.0113
 2065TIP3    H127830   5.500   5.879   1.972 -1.2169  0.0927  0.5930
 2065TIP3    H227831   5.468   5.734   2.002 -1.4166 -0.1105 -0.5759
 2066TIP3   OH227832   1.670   1.925   3.141  0.3174 -0.0917  0.4007
 2066TIP3    H127833   1.669   2.012   3.102 -2.1133 -0.1149  0.2416
 2066TIP3    H227834   1.697   1.867   3.070 -2.2825  0.0903 -0.8527
 2067TIP3   OH227835   2.331   6.769   0.550  0.3746  0.0401  0.6640
 2067TIP3    H127836   2.356   6.861   0.544  1.2940 -0.2604 -3.5493
 2067TIP3    H227837   2.256   6.761   0.491  1.8915 -2.2297 -1.1381
 2068TIP3   OH227838   4.076   4.828   2.419 -0.1241  0.3792  0.4853
 2068TIP3    H127839   4.008   4.894   2.435 -0.6762  0.1175 -0.6450
 2068TIP3    H227840   4.027   4.747   2.406  0.3789  0.2543 -0.7225
 2069TIP3   OH227841   4.699   4.621   7.924 -0.2993 -0.0184  0.2348
 2069TIP3    H127842   4.617   4.624   7.974 -0.3673  0.8461  0.0809
 2069TIP3    H227843   4.745   4.702   7.949  0.6145 -0.6038  0.4951
 2070TIP3   OH227844   3.383   1.019   8.698 -0.5029 -0.2795 -0.4517
 2070TIP3    H127845   3.336   1.083   8.644 -0.8821  0.9092  1.2290
 2070TIP3    H227846   3.358   1.040   8.788  2.6684 -0.0668  0.4946
 2071TIP3   OH227847   2.064   3.861   1.268 -0.8123 -0.0600  0.4675
 2071TIP3    H127848   2.075   3.850   1.362 -1.4161  0.2483  0.5774
 2071TIP3    H227849   2.103   3.782   1.230 -0.6517 -0.2302  0.9792
 2072TIP3   OH227850   6.699   6.211   7.892 -0.2512  0.1630 -0.0534
 2072TIP3    H127851   6.690   6.258   7.809  1.8908 -0.1178 -0.5060
 2072TIP3    H227852   6.764   6.262   7.942  1.0499 -1.4801  0.0192
 2073TIP3   OH227853   2.470   1.293   7.163 -0.4072  0.7509  0.2831
 2073TIP3    H127854   2.430   1.253   7.240 -0.4799 -1.6190 -0.9050
 2073TIP3    H227855   2.425   1.254   7.089  0.6295  1.9044 -1.0201
 2074TIP3   OH227856   3.671   1.877   7.326  0.0127 -0.2597  0.3634
 2074TIP3    H127857   3.589   1.927   7.329  0.5521  0.6139  1.8361
 2074TIP3    H227858   3.643   1.787   7.309 -1.2513  0.0409  0.7064
 2075TIP3   OH227859   2.596   2.018   8.452 -0.3660 -0.5680 -0.4042
 2075TIP3    H127860   2.675   2.056   8.414 -0.2012 -0.7632 -0.2636
 2075TIP3    H227861   2.557   1.968   8.380 -1.2506  0.8541 -0.9468
 2076TIP3   OH227862   3.223   1.680   1.405  0.3667 -0.3161 -0.3141
 2076TIP3    H127863   3.217   1.587   1.427 -0.7827 -0.1376  0.2397
 2076TIP3    H227864   3.132   1.708   1.395  0.7196  0.6002 -1.1621
 2077TIP3   OH227865   2.968   3.299   8.338 -0.0481 -0.0450  0.2501
 2077TIP3    H127866   3.018   3.257   8.268  2.4478  0.6238  1.5090
 2077TIP3    H227867   2.902   3.235   8.363  1.5574 -1.9045 -0.0696
 2078TIP3   OH227868   5.095   5.156   1.107  0.3579  0.4446 -0.0008
 2078TIP3    H127869   5.103   5.100   1.184  0.2101  0.8954  0.3474
 2078TIP3    H227870   5.174   5.137   1.056  0.9309  0.8206  0.7129
 2079TIP3   OH227871   4.010   6.656   0.904  0.2139 -0.3308  0.1306
 2079TIP3    H127872   4.016   6.729   0.844  0.8555 -1.1833 -0.8705
 2079TIP3    H227873   3.936   6.604   0.871  0.4905 -0.7377  0.1497
 2080TIP3   OH227874   6.710   1.490   2.633  0.1380  0.1435 -0.3881
 2080TIP3    H127875   6.650   1.485   2.558 -0.5641 -0.3477  0.1903
 2080TIP3    H227876   6.760   1.570   2.619 -0.2958  0.2900 -1.1546
 2081TIP3   OH227877   6.096   0.953   2.037  0.4562 -0.3075  0.0498
 2081TIP3    H127878   6.043   0.900   1.977 -0.4277  0.2806  0.2891
 2081TIP3    H227879   6.065   0.927   2.124 -0.2103  0.7939  0.1658
 2082TIP3   OH227880   0.818   1.883   7.525  0.4519  0.1856 -0.2583
 2082TIP3    H127881   0.775   1.797   7.520  1.2436 -0.3438  1.3383
 2082TIP3    H227882   0.752   1.941   7.564  0.4115 -0.0779  0.0748
 2083TIP3   OH227883   0.123   1.261   0.414  0.3774 -0.4108  0.0085
 2083TIP3    H127884   0.145   1.342   0.368  1.5202 -1.1878 -0.8707
 2083TIP3    H227885   0.099   1.289   0.502  2.0960  0.7825  0.1428
 2084TIP3   OH227886   4.741   1.984   8.770  0.5703 -0.0682  0.1143
 2084TIP3    H127887   4.783   1.908   8.809  1.2651  1.1925  2.0297
 2084TIP3    H227888   4.788   2.059   8.807 -0.4207  1.3124 -1.2649
 2085TIP3   OH227889   2.419   2.908   0.156 -0.1529  0.0191  0.2161
 2085TIP3    H127890   2.428   2.813   0.168 -1.3564 -0.3055 -1.0954
 2085TIP3    H227891   2.488   2.946   0.209  1.3407 -1.6667 -0.4214
 2086TIP3   OH227892   0.335   1.666   1.732 -0.2547  0.2950  0.0044
 2086TIP3    H127893   0.243   1.645   1.714  0.0992 -0.0781 -1.5032
 2086TIP3    H227894   0.369   1.588   1.775 -0.8298  0.7492  1.3272
 2087TIP3   OH227895   6.437   5.506   8.733  0.1775  0.1170 -0.3954
 2087TIP3    H127896   6.407   5.582   8.683 -1.3415  0.2699  0.6853
 2087TIP3    H227897   6.488   5.544   8.805 -0.4568  0.1081  0.0608
 2088TIP3   OH227898   3.094   4.082   8.600 -0.2091 -0.6097 -0.4680
 2088TIP3    H127899   3.171   4.047   8.555  1.0542 -0.0503  1.1866
 2088TIP3    H227900   3.071   4.161   8.551  2.2352  0.9920  0.7836
 2089TIP3   OH227901   4.500   4.924   7.037  0.8341 -0.1442  0.5336
 2089TIP3    H127902   4.580   4.973   7.057 -0.6176  1.8497  1.9677
 2089TIP3    H227903   4.514   4.888   6.950  2.6425  1.5611  0.0570
 2090TIP3   OH227904   2.561   5.245   2.142  0.0057  0.1029 -0.2804
 2090TIP3    H127905   2.575   5.166   2.194 -0.1478 -0.0488 -0.4665
 2090TIP3    H227906   2.467   5.243   2.121  0.0097  0.3124 -0.3224
 2091TIP3   OH227907   3.383   2.289   8.317 -0.2857  0.5744  0.0027
 2091TIP3    H127908   3.402   2.310   8.225 -1.0563 -1.1179 -0.5852
 2091TIP3    H227909   3.453   2.229   8.342 -1.1013 -0.4208 -0.0704
 2092TIP3   OH227910   4.324   2.315   1.097  0.1080 -0.1323 -0.1631
 2092TIP3    H127911   4.315   2.345   1.007 -3.2179 -0.6886 -0.1619
 2092TIP3    H227912   4.277   2.231   1.099 -0.0994 -0.0363  2.0940
 2093TIP3   OH227913   0.534   5.155   2.095  0.0732  0.2268 -0.6038
 2093TIP3    H127914   0.581   5.168   2.177  1.0535  1.7669 -1.3629
 2093TIP3    H227915   0.496   5.067   2.102  1.4039 -0.2619  0.8575
 2094TIP3   OH227916   3.781   3.362   7.949 -0.2857 -0.0433 -0.7074
 2094TIP3    H127917   3.759   3.274   7.978 -1.7803 -0.0986 -1.8975
 2094TIP3    H227918   3.697   3.407   7.943  0.4408  1.4351 -0.2601
 2095TIP3   OH227919   5.954   4.739   3.184 -0.3493 -0.4882  0.1888
 2095TIP3    H127920   5.915   4.690   3.257 -1.0616 -2.2057 -1.2610
 2095TIP3    H227921   5.893   4.727   3.112  0.7329  0.4871 -0.9394
 2096TIP3   OH227922   6.000   5.218   0.869  0.0283 -0.8987 -0.5368
 2096TIP3    H127923   6.074   5.158   0.878  0.4957 -0.1595  0.5851
 2096TIP3    H227924   5.955   5.213   0.953 -0.8090 -0.8141 -0.9736
 2097TIP3   OH227925   5.588   5.194   2.762 -0.0132  0.2363  0.2713
 2097TIP3    H127926   5.633   5.198   2.677 -1.4135  2.5910 -0.4610
 2097TIP3    H227927   5.521   5.127   2.750  1.1881 -1.0033  0.2930
 2098TIP3   OH227928   1.903   3.678   8.186  0.4790 -0.0661  0.2547
 2098TIP3    H127929   1.912   3.594   8.141 -0.9109  0.1519 -0.4703
 2098TIP3    H227930   1.810   3.685   8.207  0.5496  1.3284  0.2180
 2099TIP3   OH227931   4.593   6.215   0.574 -0.1630 -0.0916 -0.1317
 2099TIP3    H127932   4.582   6.294   0.626 -2.2354 -0.6473  0.3550
 2099TIP3    H227933   4.597   6.144   0.638 -1.1293 -0.6225 -0.6323
 2100TIP3   OH227934   0.606   3.512   2.580  0.7637 -0.1411 -0.7042
 2100TIP3    H127935   0.595   3.504   2.675  2.2834 -0.7537 -0.5528
 2100TIP3    H227936   0.590   3.424   2.547  0.1115  0.1004 -1.0372
 2101TIP3   OH227937   4.519   0.920   2.978  0.1323 -0.2934  0.5811
 2101TIP3    H127938   4.523   1.012   3.007 -0.5580  0.2643 -0.9957
 2101TIP3    H227939   4.600   0.907   2.929 -1.3350  0.6909 -2.3909
 2102TIP3   OH227940   1.980   4.051   0.907 -0.7989  0.0418  0.3312
 2102TIP3    H127941   1.925   4.091   0.974 -0.2462  1.3874  0.0122
 2102TIP3    H227942   1.984   4.117   0.837 -1.9304 -1.5742 -1.3677
 2103TIP3   OH227943   0.424   0.707   3.131 -0.1189  0.6817  0.5959
 2103TIP3    H127944   0.360   0.752   3.187 -1.8116 -0.3100 -0.4482
 2103TIP3    H227945   0.484   0.776   3.103 -1.8872  2.0841  0.0604
 2104TIP3   OH227946   4.197   1.370   2.229 -0.0184 -0.2157  0.2197
 2104TIP3    H127947   4.164   1.429   2.297 -0.6119 -0.3150  0.0261
 2104TIP3    H227948   4.206   1.425   2.151  1.6017  0.1236  0.6107
 2105TIP3   OH227949   5.144   5.337   8.184 -0.4669 -0.2848  0.8775
 2105TIP3    H127950   5.183   5.258   8.223  0.2240 -0.1588  0.4604
 2105TIP3    H227951   5.051   5.316   8.175 -0.0576 -1.6659 -0.6778
 2106TIP3   OH227952   0.353   3.203   6.592 -0.5989 -0.3926  0.4260
 2106TIP3    H127953   0.375   3.296   6.603 -0.9566 -0.3546  0.8402
 2106TIP3    H227954   0.406   3.175   6.518  0.9696 -0.3475  1.4751
 2107TIP3   OH227955   5.893   4.054   0.658  0.0411 -0.0857  0.3182
 2107TIP3    H127956   5.813   4.071   0.608 -0.0308  0.8401  0.7365
 2107TIP3    H227957   5.901   3.958   0.657 -0.0744 -0.1069 -1.2584
 2108TIP3   OH227958   3.372   5.717   0.258  0.2316  0.2127 -0.1352
 2108TIP3    H127959   3.322   5.638   0.234 -0.1175  0.6818 -0.9997
 2108TIP3    H227960   3.457   5.706   0.215  0.1601  0.3254 -0.3101
 2109TIP3   OH227961   6.642   0.411   8.298 -0.1129  0.0524 -0.2931
 2109TIP3    H127962   6.643   0.506   8.284 -0.1093  0.0639 -0.2157
 2109TIP3    H227963   6.728   0.392   8.335 -0.2868  0.0863  0.1306
 2110TIP3   OH227964   4.236   5.655   0.360 -0.3484  0.1308  0.3212
 2110TIP3    H127965   4.164   5.715   0.373 -0.1340  0.9613 -1.9530
 2110TIP3    H227966   4.282   5.687   0.282  1.5861 -1.2272  0.8016
 2111TIP3   OH227967   0.335   1.687   1.381 -0.0503 -0.8380  0.0969
 2111TIP3    H127968   0.330   1.690   1.285  0.0143 -2.1123  0.0449
 2111TIP3    H227969   0.302   1.601   1.404  2.1742 -1.5030  1.0545
 2112TIP3   OH227970   5.868   6.239   2.400 -0.5079 -0.6129  0.0249
 2112TIP3    H127971   5.826   6.241   2.486  0.8782 -0.4655  0.7157
 2112TIP3    H227972   5.927   6.164   2.403 -0.8980 -0.9779 -1.0310
 2113TIP3   OH227973   1.484   4.159   0.799  0.2759 -0.1705 -0.3814
 2113TIP3    H127974   1.400   4.115   0.813 -0.4296  0.6801 -1.7272
 2113TIP3    H227975   1.549   4.088   0.803 -0.5205 -0.8932  0.3144
 2114TIP3   OH227976   2.531   1.765   0.534  0.3551  0.4568 -0.1266
 2114TIP3    H127977   2.583   1.742   0.612  0.9561  0.2946 -0.5733
 2114TIP3    H227978   2.480   1.841   0.562  1.4251  1.1313  0.0740
 2115TIP3   OH227979   4.547   1.874   1.865 -0.0518 -0.2210  0.3977
 2115TIP3    H127980   4.516   1.875   1.774 -0.2321  2.3822  0.4228
 2115TIP3    H227981   4.470   1.899   1.917  0.5597  0.3792  1.0352
 2116TIP3   OH227982   4.965   6.088   7.943 -0.0628 -0.0647 -0.2409
 2116TIP3    H127983   5.024   6.088   7.868  0.1198 -0.2042 -0.0981
 2116TIP3    H227984   5.014   6.134   8.012  0.2272 -0.9227  0.1461
 2117TIP3   OH227985   3.270   2.230   7.376  0.1587  0.1208  0.3931
 2117TIP3    H127986   3.251   2.137   7.386  1.4231 -0.3973 -1.4591
 2117TIP3    H227987   3.197   2.274   7.419 -1.2812 -1.7150 -0.0494
 2118TIP3   OH227988   4.421   0.511   8.062 -0.1104  0.3676  0.0123
 2118TIP3    H127989   4.503   0.560   8.066 -0.1298  0.5248 -1.0970
 2118TIP3    H227990   4.361   0.570   8.016 -0.6234 -0.0439  0.1479
 2119TIP3   OH227991   0.854   6.508   7.330 -0.8165 -0.4204 -0.2270
 2119TIP3    H127992   0.825   6.482   7.418  1.3527 -1.3611  0.2827
 2119TIP3    H227993   0.917   6.578   7.347 -0.2745 -0.7068 -1.0247
 2120TIP3   OH227994   0.063   1.410   2.435  0.1787  0.0067 -0.0266
 2120TIP3    H127995   0.036   1.463   2.510 -0.1638  0.2599 -0.3224
 2120TIP3    H227996   0.049   1.467   2.360 -0.1984 -0.5044 -0.3506
 2121TIP3   OH227997   4.386   2.731   8.466 -0.2537 -0.6693 -0.2390
 2121TIP3    H127998   4.438   2.706   8.543  0.0362 -1.2016 -0.6055
 2121TIP3    H227999   4.321   2.793   8.500  0.3892 -0.2710  0.2913
 2122TIP3   OH228000   5.505   6.010   0.703 -0.1049  0.0753 -0.4541
 2122TIP3    H128001   5.435   5.946   0.718 -0.6634  0.6123 -0.6853
 2122TIP3    H228002   5.586   5.960   0.708 -0.5316 -0.6309 -0.5483
 2123TIP3   OH228003   2.343   2.324   1.197  0.0981 -0.2653 -0.5310
 2123TIP3    H128004   2.386   2.304   1.114 -0.7683  0.9841 -1.3269
 2123TIP3    H228005   2.403   2.384   1.242  0.9834 -1.6373  0.1881
 2124TIP3   OH228006   1.817   0.519   8.701  0.1217 -0.3155  0.2106
 2124TIP3    H128007   1.750   0.587   8.710  0.6120  0.2833 -0.5521
 2124TIP3    H228008   1.873   0.549   8.630  1.0987 -0.8941  0.7012
 2125TIP3   OH228009   4.293   0.569   6.941 -0.1451 -0.1342 -0.7003
 2125TIP3    H128010   4.356   0.512   6.985 -0.5954  0.9073  1.4021
 2125TIP3    H228011   4.332   0.585   6.855  0.6708 -2.4102 -0.8218
 2126TIP3   OH228012   5.691   4.804   1.649  0.0183  0.6519 -1.2403
 2126TIP3    H128013   5.703   4.719   1.691  1.2597  2.1421  1.7738
 2126TIP3    H228014   5.777   4.825   1.612 -0.0841  0.9072 -1.3362
 2127TIP3   OH228015   0.754   1.595   2.243  0.1888  0.6871  0.2347
 2127TIP3    H128016   0.781   1.640   2.163  2.0492  2.2036  1.6256
 2127TIP3    H228017   0.695   1.656   2.286  0.7350  0.7302  0.9387
 2128TIP3   OH228018   6.813   2.428   8.036  0.0482  0.4704 -0.2635
 2128TIP3    H128019   6.879   2.442   8.104  0.7803 -0.6422 -0.7224
 2128TIP3    H228020   6.848   2.471   7.958  0.8850 -1.1970 -0.8583
 2129TIP3   OH228021   2.892   6.073   1.395  0.4310 -0.6562 -0.2230
 2129TIP3    H128022   2.878   6.117   1.479  1.2150  0.6614 -0.7461
 2129TIP3    H228023   2.943   5.994   1.417 -1.4379 -1.6383  0.7922
 2130TIP3   OH228024   2.654   3.184   7.006 -0.1287 -0.1055 -0.3086
 2130TIP3    H128025   2.579   3.241   7.024  1.2947  1.3748  1.2736
 2130TIP3    H228026   2.710   3.235   6.946  0.7029 -0.2243  0.3467
 2131TIP3   OH228027   4.149   5.327   1.690  0.7359 -0.0298  0.4371
 2131TIP3    H128028   4.119   5.382   1.762  1.5788  0.9332  0.0718
 2131TIP3    H228029   4.166   5.242   1.731 -1.2034 -0.2501  0.8907
 2132TIP3   OH228030   3.202   4.961   3.079 -0.2094  0.1523  0.1791
 2132TIP3    H128031   3.211   5.055   3.096 -1.2792  0.4628 -0.8045
 2132TIP3    H228032   3.122   4.936   3.125  0.4371 -0.4443  1.0032
 2133TIP3   OH228033   0.328   3.171   7.684  0.4800  0.5784  0.4521
 2133TIP3    H128034   0.318   3.266   7.687 -1.0127  0.5023 -0.7554
 2133TIP3    H228035   0.403   3.156   7.626 -0.1572  1.0134 -0.5036
 2134TIP3   OH228036   6.580   4.871   0.319  0.0540 -0.1088  0.2812
 2134TIP3    H128037   6.495   4.870   0.362  0.0289 -0.4927  0.2208
 2134TIP3    H228038   6.579   4.796   0.259 -0.4692  1.2329 -1.4748
 2135TIP3   OH228039   2.607   3.906   1.498 -0.4217 -1.1295 -0.1531
 2135TIP3    H128040   2.600   3.817   1.532  0.9283 -1.3710 -0.4708
 2135TIP3    H228041   2.612   3.961   1.575 -1.3095 -1.3096  0.0462
 2136TIP3   OH228042   3.829   2.351   0.651  0.2120 -0.3431  0.2100
 2136TIP3    H128043   3.838   2.306   0.735 -0.5529 -1.8328 -0.4481
 2136TIP3    H228044   3.917   2.379   0.628  0.6169 -0.9842  0.9556
 2137TIP3   OH228045   6.315   1.364   7.974  0.2383  0.1590  0.2673
 2137TIP3    H128046   6.269   1.399   8.050 -0.0538  2.5195 -0.8998
 2137TIP3    H228047   6.283   1.274   7.966 -1.5990  0.6402  1.4913
 2138TIP3   OH228048   4.750   1.661   7.879 -0.2321  0.0187  0.0269
 2138TIP3    H128049   4.843   1.660   7.901 -0.4372 -0.5667  0.9029
 2138TIP3    H228050   4.733   1.752   7.852  0.3605  0.4038  0.9007
 2139TIP3   OH228051   1.057   2.082   0.931  0.2559  0.4570 -0.7565
 2139TIP3    H128052   1.126   2.053   0.872  0.2899 -0.4374 -0.2973
 2139TIP3    H228053   1.025   2.164   0.893  2.2743  1.4618 -0.4193
 2140TIP3   OH228054   0.663   0.654   2.862  0.1104  0.0505 -0.0950
 2140TIP3    H128055   0.700   0.713   2.796  1.3728  0.0667  0.6098
 2140TIP3    H228056   0.718   0.666   2.939  0.1125 -1.7406  0.2120
 2141TIP3   OH228057   0.085   2.745   1.037  0.1493  0.2418  0.0607
 2141TIP3    H128058   0.061   2.658   1.006  0.4528  0.3653 -0.5308
 2141TIP3    H228059   0.173   2.733   1.073  0.4114  0.4168 -0.5195
 2142TIP3   OH228060   1.483   6.253   0.568  0.0076 -0.6602  0.1786
 2142TIP3    H128061   1.542   6.194   0.521 -2.1997 -2.2354 -0.7582
 2142TIP3    H228062   1.527   6.338   0.565  2.0029 -1.6543 -0.8190
 2143TIP3   OH228063   4.500   1.825   7.149 -0.0362  0.3426  0.0581
 2143TIP3    H128064   4.478   1.905   7.101 -0.1030  1.0733  1.2589
 2143TIP3    H228065   4.417   1.777   7.154  0.1157 -0.0867 -1.1260
 2144TIP3   OH228066   0.759   3.651   1.112  0.0364 -0.6487  0.9522
 2144TIP3    H128067   0.738   3.561   1.138 -0.1971 -1.2135 -1.0558
 2144TIP3    H228068   0.854   3.652   1.105 -0.0721 -1.5357 -1.5112
 2145TIP3   OH228069   6.707   3.315   0.320 -0.2291 -0.2801  0.0081
 2145TIP3    H128070   6.735   3.365   0.244  1.5411 -2.0278 -0.5658
 2145TIP3    H228071   6.650   3.247   0.285 -1.8345  0.6518  0.6670
 2146TIP3   OH228072   2.985   2.033   0.769 -0.2789  0.3130 -0.0267
 2146TIP3    H128073   2.917   2.076   0.717 -0.6775  2.3884  2.0377
 2146TIP3    H228074   3.028   2.105   0.816  0.9033 -1.3273  1.5139
 2147TIP3   OH228075   3.072   4.394   8.095 -0.7104 -0.2927 -0.2165
 2147TIP3    H128076   3.026   4.375   8.177  0.3296 -0.6232  0.3036
 2147TIP3    H228077   3.131   4.320   8.082 -0.2169  0.1878 -0.8005
 2148TIP3   OH228078   3.592   6.630   8.579 -0.5133  0.1475  0.1029
 2148TIP3    H128079   3.524   6.645   8.645 -0.5586  1.1254 -0.1609
 2148TIP3    H228080   3.650   6.565   8.619 -1.0984 -0.0159  0.6969
 2149TIP3   OH228081   0.269   5.907   2.336 -0.0165  0.4416 -0.7523
 2149TIP3    H128082   0.262   5.983   2.393  2.0186 -0.0297  0.2250
 2149TIP3    H228083   0.362   5.884   2.339 -0.4373 -1.5573 -1.7139
 2150TIP3   OH228084   4.898   2.760   7.401 -0.4651  0.1383  0.4291
 2150TIP3    H128085   4.940   2.691   7.350  0.0086  0.1721  0.7606
 2150TIP3    H228086   4.829   2.794   7.345 -0.4834 -0.3806  0.1344
 2151TIP3   OH228087   5.243   3.739   8.662  0.1141 -0.6706  0.2927
 2151TIP3    H128088   5.154   3.740   8.628  0.4058  0.7783 -0.4976
 2151TIP3    H228089   5.234   3.754   8.756 -0.4739 -0.5831  0.2219
 2152TIP3   OH228090   2.428   4.349   0.012  0.5850  0.3555  0.3892
 2152TIP3    H128091   2.457   4.437  -0.013 -1.0996  0.5788 -0.9048
 2152TIP3    H228092   2.497   4.318   0.071  3.1368  1.1156 -1.9283
 2153TIP3   OH228093   0.094   2.545   7.638  0.0826 -0.0426  0.1139
 2153TIP3    H128094   0.119   2.577   7.551  0.1294 -0.7738 -0.1517
 2153TIP3    H228095   0.020   2.487   7.622  1.2982 -1.7141  0.3155
 2154TIP3   OH228096   2.473   4.110   2.743  0.4968 -0.3019  0.0725
 2154TIP3    H128097   2.568   4.119   2.744  0.3871  1.3031 -0.8059
 2154TIP3    H228098   2.442   4.168   2.812  0.1210 -0.3172 -0.0786
 2155TIP3   OH228099   6.341   5.472   2.230 -0.1948  0.2982  0.6492
 2155TIP3    H128100   6.410   5.524   2.188 -1.7485  0.8647 -1.3775
 2155TIP3    H228101   6.378   5.384   2.238  1.7626  1.1778  2.3133
 2156TIP3   OH228102   1.053   2.419   2.803 -0.9644  0.4085 -0.1951
 2156TIP3    H128103   1.048   2.356   2.731  0.2698 -2.0594  1.6812
 2156TIP3    H228104   1.137   2.464   2.790 -0.4190 -0.5085 -0.0150
 2157TIP3   OH228105   0.793   5.707   0.792 -0.1830 -0.3352 -0.0479
 2157TIP3    H128106   0.859   5.774   0.812  0.5081 -0.7710 -0.7978
 2157TIP3    H228107   0.735   5.749   0.728  0.7056 -0.6885 -1.1130
 2158TIP3   OH228108   5.588   1.915   8.256  0.5172  0.2667 -0.4073
 2158TIP3    H128109   5.542   1.941   8.335  1.6142 -1.6612  0.9483
 2158TIP3    H228110   5.681   1.922   8.278  0.8518 -0.3398 -1.5051
 2159TIP3   OH228111   6.114   1.537   7.403  0.1496 -0.2634 -0.0845
 2159TIP3    H128112   6.109   1.441   7.394 -1.4122 -0.0621 -2.1883
 2159TIP3    H228113   6.201   1.560   7.371 -0.0431 -0.8781 -1.0945
 2160TIP3   OH228114   5.584   0.100   0.841 -0.0516  0.0093  0.2866
 2160TIP3    H128115   5.491   0.094   0.864 -0.8303  0.9394 -2.2728
 2160TIP3    H228116   5.599   0.194   0.828  1.3031 -0.1190  0.8043
 2161TIP3   OH228117   6.212   6.731   0.216  0.2602 -0.0684  0.0512
 2161TIP3    H128118   6.217   6.647   0.170 -1.0166  1.0810 -2.3434
 2161TIP3    H228119   6.277   6.786   0.173  0.9032  0.2941  1.4315
 2162TIP3   OH228120   1.090   4.253   0.831  0.0374  0.2770 -0.6255
 2162TIP3    H128121   1.075   4.295   0.746 -1.4193 -0.3027 -0.6987
 2162TIP3    H228122   1.154   4.308   0.875  2.7795 -0.7451 -3.0630
 2163TIP3   OH228123   4.594   6.672   7.457  0.4902  0.2147  0.3112
 2163TIP3    H128124   4.560   6.689   7.545 -1.7343  1.2369 -0.6581
 2163TIP3    H228125   4.536   6.605   7.421  1.4709 -0.3090 -0.3353
 2164TIP3   OH228126   5.376   5.891   7.599 -0.0793  0.0129 -0.0064
 2164TIP3    H128127   5.464   5.858   7.579  0.0027  0.1548  0.1108
 2164TIP3    H228128   5.359   5.957   7.532  0.1184  0.3554  0.2732
 2165TIP3   OH228129   2.315   6.207   7.305 -0.2802 -0.4503 -0.0220
 2165TIP3    H128130   2.368   6.127   7.312  1.3181  0.4668 -0.9748
 2165TIP3    H228131   2.265   6.195   7.224  0.2258 -0.3509 -0.3550
 2166TIP3   OH228132   3.941   1.933   8.759  0.5393  0.0108 -0.0824
 2166TIP3    H128133   3.934   1.922   8.854 -0.2015  0.6834 -0.0557
 2166TIP3    H228134   4.017   1.880   8.735  0.3890 -0.6368  0.8036
 2167TIP3   OH228135   3.262   2.081   1.401  0.2352  0.0896  0.6518
 2167TIP3    H128136   3.212   2.123   1.331  1.3043  1.0580  0.4343
 2167TIP3    H228137   3.295   2.000   1.361 -0.6576 -0.2648  0.6181
 2168TIP3   OH228138   5.732   1.028   8.350 -0.3015 -0.4975 -0.4556
 2168TIP3    H128139   5.776   1.060   8.429  1.1375 -0.1882 -1.3434
 2168TIP3    H228140   5.696   1.107   8.309 -0.9156 -0.6378 -0.1953
 2169TIP3   OH228141   2.579   1.606   7.792  0.4644 -0.2177 -0.0619
 2169TIP3    H128142   2.567   1.539   7.860  0.3062  0.7022  0.8357
 2169TIP3    H228143   2.540   1.685   7.829  1.5543  0.6407 -0.6734
 2170TIP3   OH228144   1.127   3.592   7.614  0.4475 -0.1510  0.0071
 2170TIP3    H128145   1.209   3.584   7.567 -0.8272  0.0605 -2.4137
 2170TIP3    H228146   1.074   3.518   7.583 -1.0150  0.9204 -0.1681
 2171TIP3   OH228147   0.330   3.092   2.609  0.0054 -1.0551 -0.2906
 2171TIP3    H128148   0.348   3.157   2.678  0.2733 -0.3461 -1.0057
 2171TIP3    H228149   0.365   3.010   2.643  0.1404 -0.7136  0.4124
 2172TIP3   OH228150   2.618   6.706   7.535 -0.2004 -0.2620  0.3985
 2172TIP3    H128151   2.549   6.770   7.553  0.2742  0.5355 -0.5301
 2172TIP3    H228152   2.590   6.665   7.453  1.3611  1.4596 -1.0769
 2173TIP3   OH228153   1.164   3.927   2.291 -0.0768  0.1457 -0.1486
 2173TIP3    H128154   1.100   3.861   2.317  0.7261 -0.4299  0.4252
 2173TIP3    H228155   1.244   3.902   2.337  0.0293  2.0154  0.7652
 2174TIP3   OH228156   2.669   0.302   1.049 -0.5610 -0.1591 -0.0063
 2174TIP3    H128157   2.681   0.230   0.988  0.9836 -0.2635  0.3763
 2174TIP3    H228158   2.753   0.348   1.049 -0.4734 -0.2053  2.0654
 2175TIP3   OH228159   0.035   1.979   1.643 -0.0731  0.9694 -0.2644
 2175TIP3    H128160   0.101   1.975   1.573  1.2012  1.7694  0.8467
 2175TIP3    H228161   0.082   2.016   1.718 -1.2642 -0.3684  1.2070
 2176TIP3   OH228162   4.376   4.854   1.352  0.1423 -0.1017  0.5629
 2176TIP3    H128163   4.318   4.798   1.405 -0.0711  1.0409  1.5665
 2176TIP3    H228164   4.464   4.829   1.380  0.0471  2.0196  3.2434
 2177TIP3   OH228165   4.722   1.843   7.604 -0.1121  0.7173  0.0026
 2177TIP3    H128166   4.650   1.905   7.617 -0.4345  0.0149  1.8586
 2177TIP3    H228167   4.771   1.845   7.687  1.4148  0.4075 -0.8453
 2178TIP3   OH228168   3.831   0.058   1.293  0.0751 -0.1437 -0.1718
 2178TIP3    H128169   3.912   0.105   1.271 -0.1364  0.5679  0.5438
 2178TIP3    H228170   3.840  -0.026   1.248  1.3157 -0.1707  0.0890
 2179TIP3   OH228171   6.267   2.960   2.020 -0.0466  0.1161 -0.2507
 2179TIP3    H128172   6.300   3.013   1.948  1.2843 -1.3188 -0.7534
 2179TIP3    H228173   6.289   3.009   2.099  3.9156 -0.9247 -0.5026
 2180TIP3   OH228174   3.618   3.321   1.090  0.2940  0.0260  0.2598
 2180TIP3    H128175   3.636   3.399   1.037 -2.0739 -0.4144 -1.3385
 2180TIP3    H228176   3.690   3.262   1.071  1.1690  1.1289  0.0624
 2181TIP3   OH228177   5.282   1.635   8.187 -0.6733 -0.1488 -0.0629
 2181TIP3    H128178   5.261   1.728   8.189 -0.3016 -0.0816  1.7095
 2181TIP3    H228179   5.290   1.610   8.279  2.4271 -1.1968 -0.5136
 2182TIP3   OH228180   3.781   0.006   0.383  0.3041  0.3350 -0.1544
 2182TIP3    H128181   3.738  -0.030   0.305  0.2405 -0.9317  0.4422
 2182TIP3    H228182   3.725  -0.020   0.456  1.6635 -0.6741  0.5640
 2183TIP3   OH228183   0.571   6.655   7.422 -0.5960  0.4268 -0.4260
 2183TIP3    H128184   0.641   6.689   7.478 -1.8073 -0.1512  1.5321
 2183TIP3    H228185   0.500   6.718   7.432 -0.9573  0.1208 -1.0331
 2184TIP3   OH228186   4.441   4.874   7.919 -0.0399 -0.1249  0.3094
 2184TIP3    H128187   4.447   4.913   7.832 -1.1940  0.9075  0.6610
 2184TIP3    H228188   4.515   4.912   7.967 -0.3255  0.5535  0.2294
 2185TIP3   OH228189   6.792   0.793   1.469  0.1014  0.4876  0.9891
 2185TIP3    H128190   6.803   0.878   1.426  0.2823  1.0603  2.1467
 2185TIP3    H228191   6.792   0.730   1.397  1.0309  1.3661  0.1828
 2186TIP3   OH228192   5.243   6.606   1.116  0.2536 -0.1655  0.1322
 2186TIP3    H128193   5.287   6.648   1.190  2.3166 -0.7178 -0.7115
 2186TIP3    H228194   5.293   6.526   1.101 -1.4795 -1.1798 -0.4914
 2187TIP3   OH228195   2.818   6.520   0.879 -0.1320 -0.1092 -0.2374
 2187TIP3    H128196   2.793   6.583   0.811 -0.5299 -0.4508 -0.4120
 2187TIP3    H228197   2.747   6.455   0.879  1.5247 -2.0364 -1.8862
 2188TIP3   OH228198   2.076   1.346   7.487 -0.2925  0.0734  0.1866
 2188TIP3    H128199   2.039   1.419   7.437  0.8352  0.0220 -0.7766
 2188TIP3    H228200   2.171   1.361   7.485 -0.1846 -0.1499  2.0121
 2189TIP3   OH228201   1.655   1.427   1.042  0.4599  0.0724 -0.0696
 2189TIP3    H128202   1.679   1.340   1.073 -2.1133 -0.5993  0.2580
 2189TIP3    H228203   1.654   1.418   0.946 -0.0171 -0.3425 -0.0316
 2190TIP3   OH228204   3.201   4.813   7.548 -0.0180 -0.1158  0.2738
 2190TIP3    H128205   3.208   4.787   7.456 -0.9621  1.0720 -0.1575
 2190TIP3    H228206   3.252   4.894   7.554  0.2707 -0.3376  0.8612
 2191TIP3   OH228207   6.822   5.547   2.200 -0.1137  0.1004  0.0209
 2191TIP3    H128208   6.819   5.468   2.254  1.9227 -0.3847 -0.4845
 2191TIP3    H228209   6.894   5.598   2.236 -1.0858  1.5276  0.0281
 2192TIP3   OH228210   2.696   2.285   1.608  0.0086  0.4030 -0.3144
 2192TIP3    H128211   2.693   2.362   1.552  0.2267  0.6035 -0.0459
 2192TIP3    H228212   2.659   2.314   1.691  0.5630  0.3544 -0.0480
 2193TIP3   OH228213   3.644   5.732   0.200 -0.2846  0.5459 -0.3893
 2193TIP3    H128214   3.691   5.776   0.271  2.2127 -1.0363 -0.9306
 2193TIP3    H228215   3.706   5.729   0.128 -0.7304 -2.6867 -0.7875
 2194TIP3   OH228216   6.204   3.737   0.453 -0.6793  0.1194 -0.2215
 2194TIP3    H128217   6.276   3.673   0.458 -2.0283 -1.3728  1.9647
 2194TIP3    H228218   6.154   3.709   0.377 -0.0589 -0.0781 -0.5698
 2195TIP3   OH228219   5.688   0.007   7.466 -0.5011 -0.1297 -0.0422
 2195TIP3    H128220   5.782   0.003   7.449 -0.6099  1.1926 -1.2080
 2195TIP3    H228221   5.677   0.086   7.519 -0.9726 -0.1694 -0.0764
 2196TIP3   OH228222   0.491   6.680   7.965  0.1601 -0.5170  0.0979
 2196TIP3    H128223   0.584   6.665   7.980  0.3937  0.4016 -0.3701
 2196TIP3    H228224   0.470   6.630   7.887  0.3232 -0.5004  0.0439
 2197TIP3   OH228225   2.338   2.662   2.930 -0.3814  0.6188 -0.3212
 2197TIP3    H128226   2.338   2.721   3.006  0.8783  0.7323 -0.3909
 2197TIP3    H228227   2.300   2.714   2.859 -1.1682  0.6522  0.1066
 2198TIP3   OH228228   6.366   5.266   7.414 -0.2229  0.2996 -0.0756
 2198TIP3    H128229   6.413   5.240   7.335  0.0114  1.8490 -0.4771
 2198TIP3    H228230   6.356   5.361   7.406  0.5829  0.6333  2.1576
 2199TIP3   OH228231   0.245   0.968   1.999 -0.0027 -0.2051  0.4605
 2199TIP3    H128232   0.171   0.908   2.009 -0.5055  0.6296  2.2251
 2199TIP3    H228233   0.319   0.922   2.037 -0.3630  0.1988  1.7076
 2200TIP3   OH228234   4.050   4.786   2.998 -0.6371  0.3431  0.3705
 2200TIP3    H128235   4.088   4.812   2.913 -2.4976  0.0632 -0.5937
 2200TIP3    H228236   4.066   4.692   3.003 -0.8541  0.2905  0.1349
 2201TIP3   OH228237   6.550   2.477   7.339  0.4768  0.5559  0.6459
 2201TIP3    H128238   6.625   2.494   7.284  2.0725 -0.6262  2.3359
 2201TIP3    H228239   6.501   2.408   7.294  0.0787  1.7063 -0.7244
 2202TIP3   OH228240   3.818   4.933   7.954 -0.1079  0.0354  0.0219
 2202TIP3    H128241   3.733   4.893   7.939  0.0508 -0.0206 -0.7744
 2202TIP3    H228242   3.799   5.013   8.002 -0.9712  1.7055 -2.8403
 2203TIP3   OH228243   0.277   6.035   0.099  0.2006 -0.4646  0.8153
 2203TIP3    H128244   0.286   6.124   0.066  2.0119 -1.1468 -0.6891
 2203TIP3    H228245   0.202   5.999   0.052  1.1713 -0.5963 -0.6761
 2204TIP3   OH228246   0.210   5.292   1.932  0.8582  0.6462  0.5909
 2204TIP3    H128247   0.256   5.285   1.848  2.0817  0.0743  1.2791
 2204TIP3    H228248   0.257   5.362   1.978 -0.2706  1.4645  0.5402
 2205TIP3   OH228249   3.314   0.519   1.122  0.1249 -0.4526  0.8752
 2205TIP3    H128250   3.300   0.511   1.028  1.3863  0.8138  0.5439
 2205TIP3    H228251   3.265   0.597   1.147 -0.1702 -0.7582  1.2750
 2206TIP3   OH228252   0.282   0.427   7.397 -0.7606 -0.2081  0.2289
 2206TIP3    H128253   0.195   0.432   7.357 -0.8174 -3.8221 -0.4325
 2206TIP3    H228254   0.339   0.473   7.336 -1.6012 -1.5183 -1.6397
 2207TIP3   OH228255   4.165   4.520   8.191  0.3594 -0.1023 -0.3077
 2207TIP3    H128256   4.173   4.479   8.278 -1.6863  0.9500  0.4500
 2207TIP3    H228257   4.107   4.594   8.205 -0.7362 -0.4083 -2.7604
 2208TIP3   OH228258   6.482   6.059   2.320  0.2243  0.1880  0.3446
 2208TIP3    H128259   6.449   6.134   2.270  1.2578  0.1991 -0.3527
 2208TIP3    H228260   6.424   6.054   2.396 -0.3912  1.1663 -0.0346
 2209TIP3   OH228261   6.654   4.154   8.360  0.1291 -0.0146  0.3962
 2209TIP3    H128262   6.726   4.097   8.386  1.0452  0.8083 -0.2694
 2209TIP3    H228263   6.589   4.096   8.322  0.2126 -0.8281  1.4436
 2210TIP3   OH228264   3.867   0.796   0.692  0.0754  0.2148  0.1273
 2210TIP3    H128265   3.803   0.766   0.628  1.2638 -0.3618 -0.8348
 2210TIP3    H228266   3.940   0.829   0.640  1.5618 -1.3266  1.1240
 2211TIP3   OH228267   3.894   2.427   2.097  0.3459 -0.4048 -0.5311
 2211TIP3    H128268   3.898   2.411   2.191 -1.4569  1.2473 -0.1079
 2211TIP3    H228269   3.840   2.356   2.063 -2.5901  1.2033  0.4108
 2212TIP3   OH228270   5.283   2.723   8.532  0.4320 -0.0412  0.3465
 2212TIP3    H128271   5.242   2.673   8.602  0.1700  0.0032  0.2263
 2212TIP3    H228272   5.301   2.659   8.464  1.0458 -0.1549  0.6108
 2213TIP3   OH228273   4.686   1.204   2.382  0.2587 -0.0360 -0.1541
 2213TIP3    H128274   4.686   1.123   2.434 -1.1406  0.8063  1.2567
 2213TIP3    H228275   4.737   1.266   2.434 -0.6809  0.6542 -0.0187
 2214TIP3   OH228276   1.172   2.340   1.428 -0.6064  0.5709 -0.3039
 2214TIP3    H128277   1.137   2.402   1.492  1.3465 -0.9219  2.4308
 2214TIP3    H228278   1.260   2.373   1.407 -0.3900 -0.1215 -0.5173
 2215TIP3   OH228279   4.869   0.304   1.159 -0.2306 -0.0751  0.5347
 2215TIP3    H128280   4.814   0.226   1.157 -0.6334  0.1847  1.2742
 2215TIP3    H228281   4.912   0.300   1.245  1.2868 -0.5274 -0.2054
 2216TIP3   OH228282   5.981   4.885   7.783 -0.1101  0.6356  0.2347
 2216TIP3    H128283   6.000   4.876   7.876 -0.3452 -1.2446  0.1408
 2216TIP3    H228284   6.068   4.890   7.742  0.0022  1.0986  0.5276
 2217TIP3   OH228285   5.016   0.065   2.971  0.4153 -0.3263 -0.1819
 2217TIP3    H128286   5.073  -0.000   2.929  0.4020 -0.7775  0.4919
 2217TIP3    H228287   4.949   0.084   2.906 -1.7850 -3.7382  0.8274
 2218TIP3   OH228288   1.771   6.666   0.640  0.2346  0.2765 -0.9817
 2218TIP3    H128289   1.850   6.612   0.633  1.0650  1.4777 -1.1965
 2218TIP3    H228290   1.776   6.705   0.727 -0.2151  0.2200 -0.9292
 2219TIP3   OH228291   5.377   3.776   0.323  0.1454 -0.2152  1.0778
 2219TIP3    H128292   5.346   3.831   0.251 -1.8416  0.4053  2.3554
 2219TIP3    H228293   5.392   3.691   0.283  2.0575  0.8506 -0.6805
 2220TIP3   OH228294   0.293   1.156   0.660 -0.2334 -0.4327 -0.0829
 2220TIP3    H128295   0.300   1.250   0.641 -0.0843 -0.7108 -1.4897
 2220TIP3    H228296   0.384   1.128   0.673 -0.3566 -0.1674  1.5753
 2221TIP3   OH228297   4.410   3.060   1.157  0.8281  0.1199  0.1175
 2221TIP3    H128298   4.474   3.131   1.164  0.1659  0.7308  0.0242
 2221TIP3    H228299   4.406   3.041   1.063  0.5980  0.3281  0.0869
 2222TIP3   OH228300   1.742   5.697   7.270  0.5252  0.1817 -0.1547
 2222TIP3    H128301   1.758   5.732   7.358  0.3199  0.3053 -0.1630
 2222TIP3    H228302   1.684   5.623   7.284 -1.9909  1.9619 -0.3819
 2223TIP3   OH228303   2.429   1.648   2.855 -0.1391  0.0399 -0.0811
 2223TIP3    H128304   2.453   1.718   2.795 -0.0928  0.5341  0.4989
 2223TIP3    H228305   2.334   1.641   2.847 -0.1081 -0.0451 -0.3733
 2224TIP3   OH228306   5.922   1.679   1.733 -0.2764  0.0509 -0.1409
 2224TIP3    H128307   5.867   1.751   1.701  0.5133 -0.4253 -2.8284
 2224TIP3    H228308   5.964   1.645   1.654  1.9236 -1.2374  1.4935
 2225TIP3   OH228309   3.449   2.034   7.759 -0.1142  0.0087 -0.4505
 2225TIP3    H128310   3.519   2.094   7.785  1.8888 -1.4468 -2.0931
 2225TIP3    H228311   3.371   2.088   7.756  0.8583  1.6808  1.6680
 2226TIP3   OH228312   0.303   2.212   8.200  0.7588  0.5073  0.1282
 2226TIP3    H128313   0.373   2.166   8.153 -0.0891 -0.9100  0.2127
 2226TIP3    H228314   0.222   2.173   8.167 -0.1248  2.9972 -0.9387
 2227TIP3   OH228315   3.910   2.507   7.917  0.1956  0.9239  0.2763
 2227TIP3    H128316   3.918   2.418   7.951 -0.3891  0.0877 -1.6515
 2227TIP3    H228317   3.891   2.560   7.994  2.1081 -0.3393  1.7056
 2228TIP3   OH228318   6.362   1.667   0.706 -0.3846 -0.0925 -0.2636
 2228TIP3    H128319   6.313   1.725   0.648  0.3680  0.9526  0.1020
 2228TIP3    H228320   6.449   1.707   0.711 -1.1103  1.4768  3.6687
 2229TIP3   OH228321   2.115   2.588   1.402  0.4058 -0.4345 -0.5097
 2229TIP3    H128322   2.101   2.532   1.326 -1.4177 -3.1775  1.6748
 2229TIP3    H228323   2.041   2.649   1.401  2.2094  1.9683 -2.6912
 2230TIP3   OH228324   0.532   1.163   0.393 -0.0624  0.2545 -0.4311
 2230TIP3    H128325   0.460   1.136   0.336 -1.3491 -2.5464  2.1794
 2230TIP3    H228326   0.585   1.084   0.403  0.3035  0.7062  1.8361
 2231TIP3   OH228327   5.177   2.356   2.045 -0.1565  0.5897  0.3762
 2231TIP3    H128328   5.234   2.432   2.031 -0.9905  1.2417  0.4528
 2231TIP3    H228329   5.139   2.370   2.131  0.3442 -0.3675  0.7648
 2232TIP3   OH228330   3.591   6.676   7.008 -0.1078 -0.4448 -0.0082
 2232TIP3    H128331   3.613   6.591   6.970  1.6362 -0.0249 -0.0180
 2232TIP3    H228332   3.666   6.697   7.064 -0.2425  1.3372 -0.4323
 2233TIP3   OH228333   6.036   1.925   8.119 -0.1368 -0.7587 -0.4326
 2233TIP3    H128334   6.119   1.954   8.082  0.4464 -0.8835  0.7507
 2233TIP3    H228335   6.042   1.829   8.121 -0.2179 -0.7601 -0.1542
 2234TIP3   OH228336   2.314   1.154   0.561  0.2586 -0.5212 -0.2477
 2234TIP3    H128337   2.314   1.112   0.647 -3.6484  0.7459  0.5938
 2234TIP3    H228338   2.242   1.112   0.514  2.2779 -1.1554 -3.0262
 2235TIP3   OH228339   4.301   1.172   7.994 -0.0265 -0.0931 -0.6858
 2235TIP3    H128340   4.264   1.246   7.945 -2.8538 -0.0710  1.2242
 2235TIP3    H228341   4.347   1.213   8.067  0.0227 -0.1707 -0.6741
 2236TIP3   OH228342   4.047   6.233   7.301  0.1958 -0.5083  0.4298
 2236TIP3    H128343   4.024   6.223   7.393  0.6944 -0.8157  0.5209
 2236TIP3    H228344   3.980   6.292   7.266 -1.5523 -2.3829  0.4041
 2237TIP3   OH228345   4.064   6.183   1.453 -0.2401  0.0147  0.6790
 2237TIP3    H128346   4.015   6.242   1.511  0.6672  0.4465  1.0211
 2237TIP3    H228347   4.141   6.159   1.504 -0.1749 -0.7932  0.2043
 2238TIP3   OH228348   4.529   4.103   2.771  0.0109 -0.0879 -0.3707
 2238TIP3    H128349   4.555   4.012   2.756 -1.1527 -0.8320  1.7572
 2238TIP3    H228350   4.465   4.121   2.702 -0.6626 -1.2981 -0.0760
 2239TIP3   OH228351   6.816   1.856   0.895  0.1907  0.6572  0.2984
 2239TIP3    H128352   6.801   1.870   0.989  3.4781  1.5930  0.8236
 2239TIP3    H228353   6.785   1.937   0.854 -1.3554  0.2071  0.5087
 2240TIP3   OH228354   5.759   4.596   8.084 -0.1020  0.2966 -0.2282
 2240TIP3    H128355   5.746   4.502   8.088 -0.7977  0.3752 -0.3567
 2240TIP3    H228356   5.842   4.612   8.129 -1.0608 -0.1510  1.8104
 2241TIP3   OH228357   6.363   4.308   1.886 -0.3592 -0.0006  0.0946
 2241TIP3    H128358   6.353   4.398   1.917 -1.1196 -0.7288  2.1610
 2241TIP3    H228359   6.274   4.279   1.865 -0.2287 -0.5080  0.2121
 2242TIP3   OH228360   6.199   0.437   7.963  0.0199 -0.0526 -0.5190
 2242TIP3    H128361   6.179   0.355   7.917  0.7516 -0.0199 -0.9191
 2242TIP3    H228362   6.254   0.410   8.036 -1.0583 -0.0921  0.2985
 2243TIP3   OH228363   5.518   3.900   1.330 -0.1870  0.2375  0.0782
 2243TIP3    H128364   5.439   3.940   1.366  0.3187 -0.0207  1.5484
 2243TIP3    H228365   5.540   3.954   1.254 -1.4179  0.6847  0.0251
 2244TIP3   OH228366   3.037   4.520   1.738 -0.5193  0.2404  0.4910
 2244TIP3    H128367   3.089   4.440   1.737 -0.2003  0.4213 -1.3212
 2244TIP3    H228368   3.008   4.531   1.648  0.7986  3.0194  0.3120
 2245TIP3   OH228369   4.062   3.298   1.603 -0.0702 -0.1562  0.2013
 2245TIP3    H128370   4.005   3.371   1.578 -0.0343 -0.2977 -0.2995
 2245TIP3    H228371   4.003   3.223   1.611  0.0753 -0.3563 -0.5541
 2246TIP3   OH228372   1.666   3.972   0.953  0.0208  0.6062  0.2837
 2246TIP3    H128373   1.656   4.055   1.001  1.2723  0.6235  0.5398
 2246TIP3    H228374   1.644   3.905   1.017  3.1830  0.5371  1.4659
 2247TIP3   OH228375   4.710   5.565   3.325 -0.2655  1.0141  1.0476
 2247TIP3    H128376   4.615   5.576   3.332 -0.3517  0.0915  1.4856
 2247TIP3    H228377   4.746   5.646   3.363 -0.8588  2.1046 -0.6201
 2248TIP3   OH228378   2.209   6.636   1.201 -0.2679  0.0754 -0.3200
 2248TIP3    H128379   2.185   6.694   1.273  0.3523 -0.0618  0.0072
 2248TIP3    H228380   2.253   6.694   1.138 -0.9748  0.2291 -0.6760
 2249TIP3   OH228381   5.816   3.902   8.010  0.4715 -0.4125  0.0359
 2249TIP3    H128382   5.800   3.893   8.104 -0.7819 -0.3180 -0.1486
 2249TIP3    H228383   5.833   3.813   7.980  0.6752 -0.4687  0.3139
 2250TIP3   OH228384   0.629   4.235   1.441  0.1130  0.1874  0.5000
 2250TIP3    H128385   0.663   4.259   1.355  1.8977  0.8955  1.3520
 2250TIP3    H228386   0.546   4.281   1.448  1.3821  2.6699  0.3175
 2251TIP3   OH228387   1.474   6.042   0.820 -0.3540  0.0926 -0.5684
 2251TIP3    H128388   1.415   6.038   0.744 -0.0651 -1.3980 -0.7501
 2251TIP3    H228389   1.421   6.011   0.893 -0.2313  0.2038 -0.4320
 2252TIP3   OH228390   5.860   4.435   2.220  0.0552  0.6232  0.7153
 2252TIP3    H128391   5.859   4.523   2.183 -1.7309  1.5846  2.7865
 2252TIP3    H228392   5.800   4.384   2.166 -1.0691  1.4848  1.1184
 2253TIP3   OH228393   0.174   2.114   7.653 -0.7741  0.2053  0.2738
 2253TIP3    H128394   0.242   2.068   7.603 -0.5879 -0.1459  0.8370
 2253TIP3    H228395   0.123   2.161   7.587 -0.4876 -0.1900 -0.2372
 2254TIP3   OH228396   4.333   6.139   1.483  0.1867 -0.3182 -0.2578
 2254TIP3    H128397   4.304   6.215   1.432 -1.9089  0.1556  1.4621
 2254TIP3    H228398   4.405   6.173   1.536  0.1732  0.1188 -0.5140
 2255TIP3   OH228399   5.495   1.078   0.459  0.2984  0.0109 -0.3531
 2255TIP3    H128400   5.490   1.168   0.427  1.7515 -0.1967 -1.2602
 2255TIP3    H228401   5.410   1.062   0.499 -0.7219  1.1255 -1.9551
 2256TIP3   OH228402   2.734   2.884   1.088  0.1530 -0.1682 -0.1508
 2256TIP3    H128403   2.722   2.793   1.116  0.6894  0.4764  2.3532
 2256TIP3    H228404   2.647   2.923   1.094  0.2288 -0.0867  0.4458
 2257TIP3   OH228405   0.342   2.069   0.157  0.1067  0.1320  0.0883
 2257TIP3    H128406   0.304   2.108   0.079  0.7262 -1.2189 -0.9277
 2257TIP3    H228407   0.415   2.126   0.179  1.3167 -0.6662 -1.6638
 2258TIP3   OH228408   5.568   2.021   2.845 -0.5595  0.2332 -0.2423
 2258TIP3    H128409   5.496   1.998   2.785 -0.9102  0.6305  0.0185
 2258TIP3    H228410   5.526   2.075   2.912 -0.1903 -0.2646  0.4051
 2259TIP3   OH228411   1.404   4.483   1.193 -0.1709 -0.1598  0.0363
 2259TIP3    H128412   1.383   4.511   1.282 -2.0804 -2.4052  0.3767
 2259TIP3    H228413   1.499   4.493   1.186  0.1087 -0.5475  2.5540
 2260TIP3   OH228414   5.277   6.583   8.259 -0.2057 -0.3313  0.3288
 2260TIP3    H128415   5.263   6.489   8.251  2.2343 -0.6465 -1.4012
 2260TIP3    H228416   5.212   6.621   8.200 -0.5042 -1.0085  0.2074
 2261TIP3   OH228417   0.271   5.571   8.192 -0.6327 -0.4173 -0.7554
 2261TIP3    H128418   0.260   5.493   8.138  0.4552 -1.3887  0.3632
 2261TIP3    H228419   0.360   5.601   8.174 -0.8875  0.3105 -0.8398
 2262TIP3   OH228420   2.961   6.683   8.420 -0.1099 -0.0433 -0.0606
 2262TIP3    H128421   2.938   6.698   8.328  1.1329  0.0708 -0.3781
 2262TIP3    H228422   2.877   6.677   8.466 -0.7339  0.6142 -1.0871
 2263TIP3   OH228423   2.199   3.388   1.733 -0.8085  0.2025 -0.7701
 2263TIP3    H128424   2.144   3.311   1.724 -0.8646  0.2669 -0.9767
 2263TIP3    H228425   2.167   3.449   1.667 -1.4215  0.8017  0.0582
 2264TIP3   OH228426   6.366   1.062   7.380 -0.2505 -0.0919 -0.2542
 2264TIP3    H128427   6.394   0.972   7.394  0.9870 -0.0016 -1.8106
 2264TIP3    H228428   6.298   1.056   7.313 -1.3853  0.0283  0.8392
 2265TIP3   OH228429   6.578   3.149   6.765  0.2379  0.4067 -0.5798
 2265TIP3    H128430   6.491   3.183   6.747  0.3069  0.3341 -1.0629
 2265TIP3    H228431   6.586   3.153   6.860 -0.7380 -0.6568 -0.4290
 2266TIP3   OH228432   5.583   4.512   0.173  0.1393  0.7532  0.1828
 2266TIP3    H128433   5.530   4.579   0.217  0.9611  1.6285 -0.1132
 2266TIP3    H228434   5.654   4.561   0.132  0.2446 -0.2195 -0.8360
 2267TIP3   OH228435   3.162   6.482   2.097  0.0931 -0.5729  0.3185
 2267TIP3    H128436   3.211   6.542   2.041 -1.7334 -0.3153 -1.1040
 2267TIP3    H228437   3.140   6.534   2.174  0.5844 -0.1694  0.1930
 2268TIP3   OH228438   1.942   4.307   7.414 -0.2723 -0.1733  0.1053
 2268TIP3    H128439   2.008   4.375   7.428 -0.8805  0.0056  2.5385
 2268TIP3    H228440   1.993   4.227   7.401  0.5174 -0.1473  2.5236
 2269TIP3   OH228441   5.568   3.700   1.640 -0.1120 -0.7129  0.0611
 2269TIP3    H128442   5.513   3.670   1.712  0.2993 -1.8216 -0.0673
 2269TIP3    H228443   5.568   3.628   1.577  0.8194 -0.4075 -0.3181
 2270TIP3   OH228444   5.550   2.667   7.754  0.1979  0.0258 -0.5848
 2270TIP3    H128445   5.476   2.727   7.747  1.2584  1.2726 -1.5523
 2270TIP3    H228446   5.510   2.580   7.751 -1.2729  0.6572 -0.4175
 2271TIP3   OH228447   6.072   4.981   0.405 -0.0094 -0.4685  0.0075
 2271TIP3    H128448   6.016   5.008   0.478 -0.7433 -0.6184 -0.4958
 2271TIP3    H228449   6.078   5.059   0.349 -1.3044 -1.0121 -0.9277
 2272TIP3   OH228450   3.440   5.702   7.398  0.8103 -0.3196  0.4201
 2272TIP3    H128451   3.401   5.727   7.315  0.1869 -0.7452  0.5744
 2272TIP3    H228452   3.453   5.784   7.444  1.0651 -0.0912 -0.0559
 2273TIP3   OH228453   3.835   4.472   1.406  0.1009 -0.0598 -0.2057
 2273TIP3    H128454   3.845   4.442   1.316 -0.4449  0.2169 -0.3626
 2273TIP3    H228455   3.898   4.543   1.416  0.5609 -0.4667 -0.1930
 2274TIP3   OH228456   3.109   0.964   0.823  0.2328  0.5310 -0.4504
 2274TIP3    H128457   3.166   0.898   0.783 -0.1350 -0.0508 -0.0336
 2274TIP3    H228458   3.163   1.003   0.892  0.9552  1.7138 -1.6349
 2275TIP3   OH228459   3.633   6.324   8.096  0.2946  0.1709  0.6864
 2275TIP3    H128460   3.711   6.271   8.080 -0.4007 -1.1781  1.6435
 2275TIP3    H228461   3.619   6.319   8.190 -0.2729  1.3986  0.6827
 2276TIP3   OH228462   4.236   4.425   7.433  0.3734 -0.2859 -0.4344
 2276TIP3    H128463   4.226   4.331   7.451  0.2647  0.1471  2.1897
 2276TIP3    H228464   4.306   4.430   7.368  1.5562 -2.1285  0.5986
 2277TIP3   OH228465   3.888   0.866   7.956  0.8302  0.4414 -0.0199
 2277TIP3    H128466   3.813   0.914   7.921 -0.3308  0.1214  1.8966
 2277TIP3    H228467   3.923   0.922   8.025  2.2116  0.4651 -0.7148
 2278TIP3   OH228468   2.233   5.024   1.672  0.1682  0.3313  0.0011
 2278TIP3    H128469   2.214   5.114   1.698 -0.5951  0.4752 -0.9802
 2278TIP3    H228470   2.163   4.973   1.714 -0.6507  0.4777 -1.1361
 2279TIP3   OH228471   3.415   2.248   0.734  0.7370 -0.3085  0.2243
 2279TIP3    H128472   3.392   2.210   0.819 -0.9078 -1.9132 -0.8638
 2279TIP3    H228473   3.373   2.190   0.670  0.2817  1.9238 -1.6259
 2280TIP3   OH228474   5.866   2.837   7.430 -0.6805 -0.3431 -0.6093
 2280TIP3    H128475   5.880   2.816   7.522  1.7194 -2.3708 -1.3357
 2280TIP3    H228476   5.866   2.933   7.427 -0.6576 -0.2451  1.4557
 2281TIP3   OH228477   3.168   3.755   8.589  0.0697  0.1574  0.4750
 2281TIP3    H128478   3.122   3.700   8.526  0.1039  0.4694  0.1796
 2281TIP3    H228479   3.248   3.706   8.609 -0.9558 -1.0145  1.9606
 2282TIP3   OH228480   1.104   1.326   7.385  0.3561 -0.5129  0.2132
 2282TIP3    H128481   1.183   1.373   7.358 -0.1106  1.5210  2.1181
 2282TIP3    H228482   1.071   1.374   7.461 -1.8052 -2.2827  0.5270
 2283TIP3   OH228483   3.599   5.955   8.177 -0.4039 -0.2746 -0.2283
 2283TIP3    H128484   3.531   5.969   8.111 -0.6677  0.4352  0.1798
 2283TIP3    H228485   3.661   5.895   8.136 -0.3033  0.5526 -1.3021
 2284TIP3   OH228486   3.549   2.476   0.686 -0.1253  0.5416 -0.0816
 2284TIP3    H128487   3.633   2.454   0.645  0.2742 -0.3473  1.1357
 2284TIP3    H228488   3.505   2.391   0.695 -0.2796  0.7406  1.1153
 2285TIP3   OH228489   6.623   2.319   0.851  0.0241 -0.0263 -0.5413
 2285TIP3    H128490   6.550   2.300   0.792 -0.7284  2.4298 -0.5155
 2285TIP3    H228491   6.613   2.412   0.872  0.6467 -0.6004  2.8963
 2286TIP3   OH228492   1.192   3.401   1.791 -0.5149  0.0506 -0.0225
 2286TIP3    H128493   1.148   3.466   1.736  0.0014 -0.3276 -0.9017
 2286TIP3    H228494   1.179   3.318   1.746  0.0359 -0.2527  0.3624
 2287TIP3   OH228495   3.737   6.642   1.952  0.2082 -0.2552 -0.4708
 2287TIP3    H128496   3.658   6.655   1.900  0.4462  0.4220 -0.6721
 2287TIP3    H228497   3.778   6.728   1.955 -0.0446 -0.1625  1.2491
 2288TIP3   OH228498   4.451   0.743   8.544  0.9843  0.1135 -0.4088
 2288TIP3    H128499   4.388   0.722   8.476 -1.2030  1.8518  0.9008
 2288TIP3    H228500   4.491   0.825   8.515  1.8086 -0.3903 -0.7026
 2289TIP3   OH228501   1.822   4.606   8.642 -0.4991 -0.1919 -0.0951
 2289TIP3    H128502   1.743   4.557   8.620  0.3870 -1.9688  0.5493
 2289TIP3    H228503   1.849   4.647   8.560 -0.7598 -1.5155 -0.8558
 2290TIP3   OH228504   6.214   5.594   0.418  0.3142  0.4039 -0.4467
 2290TIP3    H128505   6.269   5.543   0.476  1.1757  2.2167  0.4204
 2290TIP3    H228506   6.133   5.607   0.468  0.2174  0.1533 -0.5381
 2291TIP3   OH228507   3.636   4.878   8.418 -0.2236 -0.8264  0.1173
 2291TIP3    H128508   3.610   4.880   8.326  1.2243 -1.2269 -0.3189
 2291TIP3    H228509   3.720   4.923   8.420 -0.0102 -1.2592  1.1746
 2292TIP3   OH228510   1.915   5.395   7.211  0.3930  0.2949  0.1697
 2292TIP3    H128511   1.925   5.467   7.273 -1.8783 -0.0413  1.0316
 2292TIP3    H228512   1.897   5.437   7.127 -0.6172  0.7456  0.6043
 2293TIP3   OH228513   3.185   0.871   7.825 -0.4866  0.0342 -0.5288
 2293TIP3    H128514   3.247   0.814   7.869 -1.5544 -1.1110 -0.4557
 2293TIP3    H228515   3.188   0.844   7.733 -0.7043  0.1373 -0.5665
 2294TIP3   OH228516   0.329   2.392   2.816  0.0506  0.4556  0.1201
 2294TIP3    H128517   0.378   2.417   2.894 -0.3008  1.2944  0.0783
 2294TIP3    H228518   0.323   2.296   2.821  3.5363  0.0073 -0.9683
 2295TIP3   OH228519   5.160   6.765   0.379  0.0372 -0.1035 -0.3617
 2295TIP3    H128520   5.209   6.791   0.301 -0.3959  0.2297 -0.5319
 2295TIP3    H228521   5.161   6.843   0.434  0.1459 -0.2639 -0.1379
 2296TIP3   OH228522   2.982   2.379   8.126 -0.2400  0.9080 -0.4121
 2296TIP3    H128523   2.989   2.302   8.070 -1.5776 -0.2481  0.9075
 2296TIP3    H228524   3.045   2.441   8.090  1.5792 -1.1359 -0.9711
 2297TIP3   OH228525   4.142   1.874   1.560 -0.0649  0.5742  0.2548
 2297TIP3    H128526   4.209   1.942   1.554 -0.3330  1.0428  2.1236
 2297TIP3    H228527   4.143   1.847   1.652  0.1940 -2.1410 -0.4478
 2298TIP3   OH228528   1.448   1.950   1.287 -0.0261  0.2252  0.0691
 2298TIP3    H128529   1.507   1.889   1.331 -1.1645 -1.0103 -0.0775
 2298TIP3    H228530   1.504   1.996   1.224  1.0527  0.0576  0.8867
 2299TIP3   OH228531   5.399   6.022   2.088 -0.6864 -0.3455  0.4461
 2299TIP3    H128532   5.321   5.969   2.068 -1.3031  0.2831  1.1126
 2299TIP3    H228533   5.380   6.060   2.174  0.2133  0.0991  0.4540
 2300TIP3   OH228534   2.996   4.387   0.288 -0.0914 -0.1461  0.0819
 2300TIP3    H128535   3.063   4.451   0.264 -1.0342  0.7771 -0.1383
 2300TIP3    H228536   2.926   4.401   0.225 -2.2451  1.7040  2.6655
 2301TIP3   OH228537   0.559   4.130   2.006 -0.1193 -0.0189  0.3932
 2301TIP3    H128538   0.464   4.135   2.010 -0.1381 -0.6442  0.7481
 2301TIP3    H228539   0.587   4.115   2.096  0.4408  1.9792  0.6046
 2302TIP3   OH228540   6.488   3.735   7.262  0.0714  0.3317  0.0334
 2302TIP3    H128541   6.474   3.827   7.239 -0.9336  0.1691 -0.0570
 2302TIP3    H228542   6.402   3.695   7.254  0.3391 -0.4505  0.8594
 2303TIP3   OH228543   3.240   4.521   2.515 -0.2976 -0.1551  0.1472
 2303TIP3    H128544   3.149   4.550   2.527 -0.8363 -2.0070  0.8239
 2303TIP3    H228545   3.237   4.462   2.440 -0.0472 -1.7403  1.3439
 2304TIP3   OH228546   3.300   5.100   2.187  0.0762  0.0324 -0.3539
 2304TIP3    H128547   3.369   5.065   2.131 -0.0839  0.4925 -0.8475
 2304TIP3    H228548   3.344   5.161   2.245  0.4246 -1.2320  0.7757
 2305TIP3   OH228549   5.999   4.162   0.902 -0.3839 -0.1403  0.1834
 2305TIP3    H128550   6.067   4.094   0.909 -0.4940 -0.2780 -0.0807
 2305TIP3    H228551   5.959   4.147   0.817 -0.8938 -0.1910  0.4322
 2306TIP3   OH228552   0.027   5.479   1.856  0.4589  0.0213  0.3919
 2306TIP3    H128553   0.077   5.411   1.901  2.3214  0.2237 -1.2141
 2306TIP3    H228554   0.066   5.561   1.887 -0.1705  0.2799  0.5189
 2307TIP3   OH228555   6.648   1.938   7.509  0.0504  0.0707 -0.5896
 2307TIP3    H128556   6.624   1.970   7.422  0.3287 -1.9285 -1.4600
 2307TIP3    H228557   6.616   2.005   7.569 -1.6035  0.7484 -2.1322
 2308TIP3   OH228558   4.048   3.072   8.754 -0.4633 -0.6944 -0.6763
 2308TIP3    H128559   4.133   3.034   8.776 -0.4101  0.3119  1.0392
 2308TIP3    H228560   3.989   2.997   8.746  0.2122 -1.2948 -0.1399
 2309TIP3   OH228561   5.387   0.718   0.505  0.1124 -0.3231  0.6230
 2309TIP3    H128562   5.451   0.649   0.491  0.6444  0.3376 -0.3645
 2309TIP3    H228563   5.347   0.698   0.589  0.4258 -1.6841  0.4671
 2310TIP3   OH228564   1.180   1.653   8.126 -0.0107 -0.6042  0.4211
 2310TIP3    H128565   1.230   1.677   8.048  1.1778 -1.8011  0.7745
 2310TIP3    H228566   1.138   1.735   8.154  0.1128 -0.0050 -1.0431
 2311TIP3   OH228567   6.662   2.338   1.149 -0.6846 -0.0329 -0.0452
 2311TIP3    H128568   6.629   2.287   1.075 -2.7743  1.1481 -0.0110
 2311TIP3    H228569   6.718   2.405   1.110 -0.2661 -0.5564 -0.3539
 2312TIP3   OH228570   0.664   4.261   0.058 -0.4419 -0.4494  0.5402
 2312TIP3    H128571   0.623   4.324   0.117 -2.8219 -2.8835  1.6990
 2312TIP3    H228572   0.734   4.221   0.110  0.9299  1.0039 -0.1259
 2313TIP3   OH228573   6.137   3.865   2.642  0.3502  0.0170  0.2568
 2313TIP3    H128574   6.118   3.777   2.675  0.1607  0.2393  0.7477
 2313TIP3    H228575   6.058   3.916   2.663 -0.6450 -0.3017 -2.3097
 2314TIP3   OH228576   2.236   6.501   0.526  0.0183 -0.2254 -0.2681
 2314TIP3    H128577   2.230   6.539   0.439  0.5772 -1.0742 -0.6984
 2314TIP3    H228578   2.326   6.518   0.553 -0.1674  0.0782  0.1649
 2315TIP3   OH228579   3.555   1.046   0.161 -0.5352 -0.5849 -0.1955
 2315TIP3    H128580   3.466   1.020   0.138 -0.1635 -0.1817 -2.2514
 2315TIP3    H228581   3.546   1.135   0.197 -1.0029 -0.7055 -0.0169
 2316TIP3   OH228582   3.406   5.975   7.540 -0.3778 -0.0789 -0.0687
 2316TIP3    H128583   3.493   6.015   7.544 -0.3134 -0.2894  0.7269
 2316TIP3    H228584   3.378   5.968   7.632 -1.9178  1.4999 -0.3492
 2317TIP3   OH228585   2.956   3.787   1.554 -0.2751  0.6857 -0.3753
 2317TIP3    H128586   3.044   3.749   1.560 -0.4707  0.3941  0.8933
 2317TIP3    H228587   2.971   3.881   1.565 -0.1687  0.5855  0.3678
 2318TIP3   OH228588   3.484   0.706   1.508 -0.2762  0.1484  0.8003
 2318TIP3    H128589   3.415   0.721   1.444 -0.3726 -0.0162  0.8662
 2318TIP3    H228590   3.564   0.696   1.456 -0.5008 -0.9201  0.6424
 2319TIP3   OH228591   4.672   4.322   1.483 -0.1081 -0.2993  0.4733
 2319TIP3    H128592   4.685   4.230   1.461  1.2266 -0.2560  0.9773
 2319TIP3    H228593   4.640   4.321   1.574 -0.0611 -0.2597  0.4903
 2320TIP3   OH228594   3.839   6.562   7.800  0.0721  0.1754 -0.3164
 2320TIP3    H128595   3.801   6.577   7.887 -1.6723  1.3575 -1.2150
 2320TIP3    H228596   3.923   6.607   7.802  0.2856 -0.2255  0.8918
 2321TIP3   OH228597   4.107   4.132   7.679 -0.8436 -0.1149  0.0355
 2321TIP3    H128598   4.180   4.073   7.661 -0.6740  0.5986 -1.7203
 2321TIP3    H228599   4.095   4.126   7.774 -0.1466 -2.1432  0.0413
 2322TIP3   OH228600   1.889   5.190   0.087 -0.3280 -0.1284 -0.1967
 2322TIP3    H128601   1.883   5.282   0.061 -0.3904 -0.3052 -0.8223
 2322TIP3    H228602   1.981   5.167   0.074 -0.5653 -0.5118 -1.3018
 2323TIP3   OH228603   1.616   6.823   0.834  0.1730  0.0865  0.1781
 2323TIP3    H128604   1.525   6.846   0.853 -0.0233  0.6528 -1.2992
 2323TIP3    H228605   1.665   6.905   0.844 -0.0646  0.6191 -2.2970
 2324TIP3   OH228606   4.260   3.684   8.799 -0.2900 -0.0950 -0.9957
 2324TIP3    H128607   4.353   3.670   8.814 -0.5369  0.3814  1.2497
 2324TIP3    H228608   4.255   3.768   8.754  0.3300  0.1027 -0.6977
 2325TIP3   OH228609   4.798   5.957   1.008 -0.6997  0.1434  0.1152
 2325TIP3    H128610   4.886   5.944   1.044 -1.0774 -1.9852  0.4028
 2325TIP3    H228611   4.769   5.869   0.985 -2.1853  0.9853 -1.3824
 2326TIP3   OH228612   3.818   5.012   2.275 -0.2346  0.3590  0.5096
 2326TIP3    H128613   3.794   4.921   2.288 -2.1370  0.6128 -0.8980
 2326TIP3    H228614   3.795   5.056   2.357 -3.0346  0.2453 -0.1443
 2327TIP3   OH228615   2.841   3.985   2.110 -0.2412  0.2659 -0.5216
 2327TIP3    H128616   2.916   3.932   2.135  0.3097  1.0910 -0.3746
 2327TIP3    H228617   2.766   3.925   2.115  0.4527 -0.6623 -1.0564
 2328TIP3   OH228618   3.590   6.693   1.732 -0.5267  0.0795  0.5668
 2328TIP3    H128619   3.661   6.732   1.681 -1.1316 -1.8556 -1.9980
 2328TIP3    H228620   3.547   6.633   1.671 -1.6557 -2.1000  3.2609
 2329TIP3   OH228621   6.806   1.293   0.178  0.2343  0.1031 -0.0087
 2329TIP3    H128622   6.879   1.349   0.152  0.3796  1.1909  2.4929
 2329TIP3    H228623   6.829   1.261   0.265 -1.8341 -0.3139  0.4374
 2330TIP3   OH228624   1.936   1.654   0.050  0.0641 -0.2346  0.2023
 2330TIP3    H128625   1.909   1.615   0.133 -1.1733 -2.0472 -0.9820
 2330TIP3    H228626   1.909   1.746   0.055 -0.4422 -0.4504  1.5900
 2331TIP3   OH228627   2.159   4.738   0.799  0.0070 -0.1332 -0.1629
 2331TIP3    H128628   2.102   4.773   0.867  1.2920 -0.9969  1.4386
 2331TIP3    H228629   2.240   4.789   0.807  1.0251 -1.7648  0.5921
 2332TIP3   OH228630   2.415   2.893   8.361 -0.2390 -0.3401  0.0177
 2332TIP3    H128631   2.477   2.873   8.291  0.4159 -1.2020  0.8203
 2332TIP3    H228632   2.443   2.978   8.395 -0.6965  0.1925 -0.8858
 2333TIP3   OH228633   4.845   4.055   1.670 -0.1687  0.0461  0.0363
 2333TIP3    H128634   4.904   3.989   1.706 -1.0216 -1.7889 -1.7281
 2333TIP3    H228635   4.775   4.005   1.628 -1.7053  2.1213 -0.0395
 2334TIP3   OH228636   0.880   1.249   0.640  0.5132 -0.0391 -0.4480
 2334TIP3    H128637   0.811   1.301   0.681  0.9947  0.7167 -0.5737
 2334TIP3    H228638   0.871   1.268   0.546  1.2370  0.4949 -0.4130
 2335TIP3   OH228639   5.658   2.366   8.813 -0.4661 -0.5946  0.4082
 2335TIP3    H128640   5.715   2.442   8.802 -2.0619  0.3595 -1.9885
 2335TIP3    H228641   5.718   2.292   8.823  1.1960  0.9662  4.3518
 2336TIP3   OH228642   5.718   5.853   1.533 -0.0781 -0.1026  0.1857
 2336TIP3    H128643   5.797   5.895   1.499  0.0499 -1.4280 -1.2821
 2336TIP3    H228644   5.649   5.880   1.472  0.1260 -2.4042 -1.2105
 2337TIP3   OH228645   0.757   5.113   2.287 -0.1259  0.2416  0.4646
 2337TIP3    H128646   0.840   5.097   2.241 -0.7602  1.6954 -1.2660
 2337TIP3    H228647   0.728   5.026   2.314  0.1387 -0.7460 -2.1631
 2338TIP3   OH228648   4.752   4.679   8.226  0.3250  0.2588 -0.2466
 2338TIP3    H128649   4.782   4.670   8.316 -0.4010  2.3070  0.2410
 2338TIP3    H228650   4.805   4.749   8.189  0.0493  0.0076 -1.1618
 2339TIP3   OH228651   3.863   2.835   7.251  0.0139  0.1570  0.3492
 2339TIP3    H128652   3.926   2.895   7.213  1.1532 -2.3966 -2.1483
 2339TIP3    H228653   3.893   2.823   7.341  1.5680  0.9470 -0.0364
 2340TIP3   OH228654   6.056   2.400   1.110 -0.0305  0.2941  0.7426
 2340TIP3    H128655   6.059   2.468   1.178  0.8192  0.8361  0.1886
 2340TIP3    H228656   6.110   2.329   1.144  1.1459  0.9284  0.2932
 2341TIP3   OH228657   2.592   5.879   0.224  0.3060  0.7951 -0.6860
 2341TIP3    H128658   2.636   5.794   0.219 -1.0278 -0.0791  1.0723
 2341TIP3    H228659   2.643   5.937   0.167  0.0172 -1.6854 -3.6938
 2342TIP3   OH228660   0.965   2.702   1.282  0.3257  0.4939 -0.4213
 2342TIP3    H128661   0.930   2.736   1.364  0.2867 -1.1286  0.2809
 2342TIP3    H228662   0.974   2.608   1.297  3.1254  0.5165 -1.2403
 2343TIP3   OH228663   1.452   2.064   7.604  0.0573 -0.3861  0.7655
 2343TIP3    H128664   1.367   2.020   7.604 -0.2378  0.0704  3.0576
 2343TIP3    H228665   1.434   2.149   7.563 -0.3956 -0.6160  0.4700
 2344TIP3   OH228666   2.551   3.998   1.023 -0.0925 -0.2307  1.0379
 2344TIP3    H128667   2.494   4.024   0.950  1.9950  0.5574 -0.4090
 2344TIP3    H228668   2.510   4.037   1.100 -0.6791  1.7123 -0.1726
 2345TIP3   OH228669   4.614   0.071   0.728  0.3331  0.4904  0.0134
 2345TIP3    H128670   4.564   0.127   0.669  0.7685  1.4947  0.5734
 2345TIP3    H228671   4.558  -0.005   0.742 -0.0018  0.4831 -1.2524
 2346TIP3   OH228672   4.761   4.160   1.149 -0.0022  0.6246 -0.2590
 2346TIP3    H128673   4.744   4.156   1.244  1.5878  2.2765  0.1405
 2346TIP3    H228674   4.718   4.081   1.114  0.0688 -0.4659  1.9276
 2347TIP3   OH228675   3.298   5.811   1.255  0.7208 -0.3274 -0.2468
 2347TIP3    H128676   3.381   5.787   1.215  1.1676 -2.9626  1.9403
 2347TIP3    H228677   3.323   5.859   1.335  0.0275  0.7464 -0.6496
 2348TIP3   OH228678   3.876   1.345   7.235  0.4154 -0.4284 -0.5735
 2348TIP3    H128679   3.904   1.285   7.304 -1.0512 -1.1552 -0.5754
 2348TIP3    H228680   3.921   1.428   7.256  2.2316 -1.3979 -0.3997
 2349TIP3   OH228681   6.669   6.274   2.143  0.3197  0.1985 -0.1040
 2349TIP3    H128682   6.575   6.284   2.127  0.1325 -0.9399  0.2058
 2349TIP3    H228683   6.678   6.282   2.238  0.1374 -2.2996  0.1980
 2350TIP3   OH228684   3.712   1.622   0.986 -0.0519  0.3044 -1.0732
 2350TIP3    H128685   3.661   1.661   0.915  0.4614 -1.0367 -2.2096
 2350TIP3    H228686   3.788   1.583   0.943  0.2700 -0.5368  0.2135
 2351TIP3   OH228687   2.340   1.607   7.637 -0.7761 -0.7224 -0.5188
 2351TIP3    H128688   2.400   1.538   7.608  1.5184  0.0552  1.9660
 2351TIP3    H228689   2.305   1.575   7.720 -0.5766  0.5697  0.0898
 2352TIP3   OH228690   1.088   6.788   0.864 -0.2015 -0.7435 -0.0322
 2352TIP3    H128691   1.017   6.740   0.821 -2.1335 -1.0113  3.1665
 2352TIP3    H228692   1.076   6.878   0.836 -2.7628 -0.5392  1.4862
 2353TIP3   OH228693   1.374   2.542   1.888 -0.5016  0.0880  0.0147
 2353TIP3    H128694   1.459   2.523   1.849 -0.7750 -0.8351 -0.1601
 2353TIP3    H228695   1.394   2.600   1.962  0.1451  0.8665 -0.7384
 2354TIP3   OH228696   3.174   6.704   1.557  0.0928 -0.1350 -0.1504
 2354TIP3    H128697   3.221   6.719   1.639  0.2990 -0.2669 -0.2454
 2354TIP3    H228698   3.101   6.646   1.581 -0.1506  0.2394  0.0369
 2355TIP3   OH228699   5.025   1.203   0.932 -0.0984 -0.7438 -0.2349
 2355TIP3    H128700   4.989   1.221   1.018 -0.1626 -0.8561 -0.2382
 2355TIP3    H228701   5.015   1.286   0.884  2.4082  0.2029  0.7107
 2356TIP3   OH228702   3.481   3.534   1.547  0.5379  0.1273  0.6893
 2356TIP3    H128703   3.547   3.480   1.504  0.5755  0.5751  0.1681
 2356TIP3    H228704   3.428   3.472   1.597  0.8189 -0.3418  0.4127
 2357TIP3   OH228705   1.207   4.740   0.111 -0.1825  0.6554  0.2345
 2357TIP3    H128706   1.282   4.768   0.165 -0.5962  0.3521  0.9821
 2357TIP3    H228707   1.247   4.696   0.037  0.4940  2.8243 -0.7874
 2358TIP3   OH228708   5.973   4.821   8.599 -0.1552 -0.1797  1.1956
 2358TIP3    H128709   6.026   4.863   8.667  0.9567 -1.5986  1.2604
 2358TIP3    H228710   5.976   4.728   8.620  0.5243 -0.7113 -0.9616
 2359TIP3   OH228711   3.568   3.048   0.527 -0.1823  0.2958 -0.2201
 2359TIP3    H128712   3.555   2.955   0.548 -0.7863  0.4795  0.2598
 2359TIP3    H228713   3.653   3.051   0.483 -0.0754 -0.4635 -0.0841
 2360TIP3   OH228714   6.051   5.950   7.225 -0.8599 -0.0462 -0.1091
 2360TIP3    H128715   6.002   6.032   7.233 -3.1938 -1.4156  0.8996
 2360TIP3    H228716   6.027   5.916   7.138  0.6690  0.6347 -0.8240
 2361TIP3   OH228717   0.362   4.464   7.762  0.4998 -0.0083  0.3537
 2361TIP3    H128718   0.341   4.504   7.677  0.1351 -0.7926  0.0642
 2361TIP3    H228719   0.397   4.536   7.814  3.6974 -0.0937 -1.4518
 2362TIP3   OH228720   0.153   6.637   7.842 -0.1500  0.5322  0.1707
 2362TIP3    H128721   0.191   6.713   7.797 -0.5574  0.1699 -0.8269
 2362TIP3    H228722   0.157   6.567   7.777 -3.3479  0.6981 -0.3767
 2363TIP3   OH228723   2.802   3.318   0.673  0.1508 -0.2990  0.1459
 2363TIP3    H128724   2.897   3.334   0.666  0.0103  0.1722 -0.9472
 2363TIP3    H228725   2.793   3.265   0.752  1.2471  0.2908  0.7034
 2364TIP3   OH228726   4.212   1.146   2.757 -0.5678 -0.0732  0.1553
 2364TIP3    H128727   4.163   1.218   2.796 -1.0882 -0.3463  0.0166
 2364TIP3    H228728   4.267   1.187   2.689  0.1833  0.3744  1.0123
 2365TIP3   OH228729   4.287   3.781   6.855  0.2002  0.7659 -0.3385
 2365TIP3    H128730   4.322   3.870   6.850  0.6835  0.5936 -0.1630
 2365TIP3    H228731   4.201   3.791   6.894  0.2072  1.1690 -0.4181
 2366TIP3   OH228732   5.008   0.345   8.383  0.2029 -0.1100  0.4108
 2366TIP3    H128733   4.944   0.412   8.410  0.2529 -0.0086  0.2783
 2366TIP3    H228734   4.997   0.275   8.447  2.3612  1.3370  2.5631
 2367TIP3   OH228735   0.701   1.651   7.428  0.1780  0.1699 -0.1256
 2367TIP3    H128736   0.738   1.613   7.348  0.6977 -1.8873  1.0184
 2367TIP3    H228737   0.624   1.699   7.398  0.4967 -0.3289 -1.8898
 2368TIP3   OH228738   0.647   0.702   2.486  0.2481  0.0256 -0.0249
 2368TIP3    H128739   0.556   0.715   2.513  0.3500  2.0617 -0.4794
 2368TIP3    H228740   0.642   0.680   2.393  0.2280  1.5472 -0.4175
 2369TIP3   OH228741   3.336   6.366   0.904  0.0468 -0.3185 -0.3248
 2369TIP3    H128742   3.244   6.364   0.881  0.0991 -0.1679 -0.5471
 2369TIP3    H228743   3.380   6.318   0.834  0.3651  1.3270 -1.3104
 2370TIP3   OH228744   0.168   1.167   7.876 -0.0761 -0.7732 -0.0884
 2370TIP3    H128745   0.139   1.258   7.885 -0.7002 -1.1205  2.0380
 2370TIP3    H228746   0.125   1.136   7.797 -0.4736  0.5465 -0.4265
 2371TIP3   OH228747   1.171   5.002   1.172 -0.4186 -0.0267 -0.4338
 2371TIP3    H128748   1.228   5.075   1.146  0.6252 -0.0523  1.6191
 2371TIP3    H228749   1.082   5.036   1.160  0.0155  0.8408 -1.4432
 2372TIP3   OH228750   6.023   1.112   3.120  0.1419 -0.0145  0.6818
 2372TIP3    H128751   6.036   1.100   3.026  0.0319 -0.6974  0.7512
 2372TIP3    H228752   6.103   1.156   3.149 -0.2014  1.0130  0.1275
 2373TIP3   OH228753   5.227   2.899   1.883 -0.4728 -0.3678  0.4527
 2373TIP3    H128754   5.290   2.832   1.861  0.3749  0.3899  0.5154
 2373TIP3    H228755   5.147   2.874   1.836 -1.1060 -2.9202  2.6119
 2374TIP3   OH228756   3.470   4.449   0.003 -0.0824  0.4279 -0.0437
 2374TIP3    H128757   3.447   4.503  -0.073  1.4145  2.0006  0.5327
 2374TIP3    H228758   3.494   4.364  -0.034 -1.0769  0.6072 -1.1425
 2375TIP3   OH228759   4.153   3.380   2.961  0.3584 -0.3677  0.0203
 2375TIP3    H128760   4.177   3.411   3.049  0.7004 -0.4242 -0.0499
 2375TIP3    H228761   4.068   3.338   2.972  0.7399 -1.0460  0.4718
 2376TIP3   OH228762   2.788   0.751   2.293  0.2218 -0.2543 -0.2740
 2376TIP3    H128763   2.801   0.676   2.351  1.9736 -1.6222 -2.3198
 2376TIP3    H228764   2.876   0.788   2.282 -0.3999  1.2455 -0.4480
 2377TIP3   OH228765   5.593   1.096   1.692 -0.1698  0.6208 -0.0683
 2377TIP3    H128766   5.670   1.073   1.641 -0.6547  1.0690 -1.0510
 2377TIP3    H228767   5.521   1.051   1.648 -0.5036  0.3850  0.7027
 2378TIP3   OH228768   0.933   3.175   0.668 -0.5506  0.8085  0.1299
 2378TIP3    H128769   0.848   3.210   0.696 -0.0063  0.4248  2.5281
 2378TIP3    H228770   0.986   3.253   0.651 -1.1217  1.0570 -0.5671
 2379TIP3   OH228771   3.345   3.933   7.325 -0.2127  0.4874 -0.0498
 2379TIP3    H128772   3.377   4.023   7.315  0.3523  0.1383 -1.8513
 2379TIP3    H228773   3.388   3.901   7.404  3.8592  0.1597 -2.1561
 2380TIP3   OH228774   1.424   5.038   7.354  0.1713 -0.1158 -0.0556
 2380TIP3    H128775   1.447   5.122   7.316 -0.0364  0.5654  1.2806
 2380TIP3    H228776   1.484   4.976   7.314  1.4316  0.9379  0.1568
 2381TIP3   OH228777   4.184   1.668   0.663  0.0108 -0.1584  0.5046
 2381TIP3    H128778   4.114   1.720   0.701 -2.0390 -2.8708  0.7094
 2381TIP3    H228779   4.221   1.619   0.737  1.9334  0.9014  0.3289
 2382TIP3   OH228780   4.287   3.062   0.600 -0.4820 -0.3463 -0.0961
 2382TIP3    H128781   4.381   3.050   0.588 -0.3082 -0.8855  1.4797
 2382TIP3    H228782   4.254   3.089   0.514  0.8520 -1.7327 -1.0882
 2383TIP3   OH228783   5.998   4.048   0.072 -0.0129  0.1367 -0.4415
 2383TIP3    H128784   6.040   4.134   0.068 -1.1054  0.6523 -1.0997
 2383TIP3    H228785   5.970   4.031  -0.018 -0.0349 -0.8001 -0.2656
 2384TIP3   OH228786   2.574   3.850   0.315 -0.2534 -0.0407  0.5245
 2384TIP3    H128787   2.535   3.880   0.233 -0.8085  0.9276  1.1091
 2384TIP3    H228788   2.499   3.839   0.374 -0.0217 -2.2302  0.4773
 2385TIP3   OH228789   3.794   2.640   0.439  0.0104 -0.2422 -0.1349
 2385TIP3    H128790   3.718   2.615   0.386 -0.2260 -0.5906  0.3621
 2385TIP3    H228791   3.861   2.576   0.418  0.0444 -0.1574 -0.2899
 2386TIP3   OH228792   1.570   3.967   8.069  0.5812 -0.1242  0.5773
 2386TIP3    H128793   1.552   4.049   8.023  0.9271  0.5941  1.7029
 2386TIP3    H228794   1.509   3.966   8.143 -0.6667 -1.7439 -0.3811
 2387TIP3   OH228795   4.865   5.621   2.763 -0.1914 -0.2505 -0.1073
 2387TIP3    H128796   4.817   5.693   2.804  1.2680  0.5648  0.2410
 2387TIP3    H228797   4.933   5.598   2.826  1.4056  0.2736 -1.5705
 2388TIP3   OH228798   0.433   1.894   1.506  0.3803 -0.1428 -0.4297
 2388TIP3    H128799   0.511   1.851   1.542  0.2980 -1.4176 -1.6707
 2388TIP3    H228800   0.398   1.831   1.443 -1.5622  0.4805 -0.0442
 2389TIP3   OH228801   0.890   3.502   3.198  0.4122  0.1558  0.2972
 2389TIP3    H128802   0.851   3.582   3.233  0.0657 -0.1810  0.7017
 2389TIP3    H228803   0.964   3.531   3.146 -1.6761  1.0256 -2.4222
 2390TIP3   OH228804   1.060   3.645   8.433  0.8053 -0.8459  0.2277
 2390TIP3    H128805   1.060   3.708   8.505  0.1544  0.4605 -0.8754
 2390TIP3    H228806   1.072   3.560   8.476  1.6162 -0.0000  1.7635
 2391TIP3   OH228807   2.353   3.234   2.305 -0.4025 -0.3567  0.5877
 2391TIP3    H128808   2.439   3.214   2.342  0.2718 -0.7653 -1.1136
 2391TIP3    H228809   2.292   3.180   2.357  0.6275 -1.7427  0.4256
 2392TIP3   OH228810   3.032   1.386   1.264 -0.3242 -0.2509 -0.0257
 2392TIP3    H128811   3.081   1.438   1.200 -0.1492 -0.2619  0.0999
 2392TIP3    H228812   3.011   1.305   1.217 -1.6882  0.4316 -0.6427
 2393TIP3   OH228813   0.542   4.589   0.803 -0.0824 -0.5316  0.4925
 2393TIP3    H128814   0.520   4.546   0.720  0.1576  2.0027 -0.9807
 2393TIP3    H228815   0.630   4.558   0.824  1.4376  1.4531 -2.2399
 2394TIP3   OH228816   4.378   1.732   0.010 -0.2005 -0.2450 -0.2420
 2394TIP3    H128817   4.391   1.816  -0.033 -0.1102 -0.2390 -0.2031
 2394TIP3    H228818   4.283   1.721   0.013 -0.3713  1.0846  2.0615
 2395TIP3   OH228819   5.806   6.784   0.211  0.1187 -0.0305 -0.1552
 2395TIP3    H128820   5.770   6.751   0.293  0.5387 -0.5239 -0.1658
 2395TIP3    H228821   5.741   6.847   0.180  0.1619  0.4930  0.7782
 2396TIP3   OH228822   2.995   0.393   1.127 -0.2549  0.3923  0.0492
 2396TIP3    H128823   2.977   0.304   1.160 -2.5229 -0.1099 -2.2790
 2396TIP3    H228824   2.963   0.451   1.197  1.5478 -0.5216  1.7517
 2397TIP3   OH228825   1.056   3.189   3.220  0.3685 -0.2132  0.3218
 2397TIP3    H128826   1.014   3.110   3.254  1.7494 -1.4643 -0.7629
 2397TIP3    H228827   1.114   3.217   3.290 -0.0017 -0.2418  0.6449
 2398TIP3   OH228828   1.497   5.935   7.199 -0.0520 -0.1213  0.0468
 2398TIP3    H128829   1.535   5.917   7.112  0.5204 -0.0791  0.2821
 2398TIP3    H228830   1.407   5.902   7.193 -1.0572  2.5848 -1.5629
 2399TIP3   OH228831   5.471   3.470   8.085  0.3057 -0.1086  0.5043
 2399TIP3    H128832   5.478   3.502   8.175  2.0738 -0.8502  0.6589
 2399TIP3    H228833   5.520   3.388   8.084  0.3425 -0.1071 -1.1484
 2400TIP3   OH228834   5.159   2.657   8.764 -0.8788 -0.7627 -0.1549
 2400TIP3    H128835   5.190   2.575   8.802  0.9156 -0.2641 -0.4668
 2400TIP3    H228836   5.170   2.722   8.833  1.9012  0.0443 -1.2400
 2401TIP3   OH228837   4.319   5.872   1.439 -0.0702  0.0530  0.0520
 2401TIP3    H128838   4.279   5.817   1.506 -0.9266  0.2344 -0.2908
 2401TIP3    H228839   4.327   5.958   1.480 -0.2960  0.0810  0.0436
 2402TIP3   OH228840   5.996   2.001   2.013  0.0092  0.1780 -0.4531
 2402TIP3    H128841   6.064   2.052   2.056  0.0070 -1.1739  1.2807
 2402TIP3    H228842   6.044   1.942   1.954  0.1452  0.8815 -1.0523
 2403TIP3   OH228843   1.015   6.593   0.262 -0.0470  0.1811  0.6197
 2403TIP3    H128844   1.077   6.533   0.305  0.8406  0.3449 -0.3808
 2403TIP3    H228845   1.015   6.671   0.319 -1.4690 -0.8541  2.1083
 2404TIP3   OH228846   6.833   5.659   8.045 -0.3356 -0.2129  0.1003
 2404TIP3    H128847   6.925   5.675   8.023  0.5653 -1.9458  2.2779
 2404TIP3    H228848   6.815   5.720   8.116 -0.9593  0.2020 -0.3967
 2405TIP3   OH228849   4.483   6.705   1.960  0.2972 -0.2341 -0.1653
 2405TIP3    H128850   4.404   6.669   2.000  0.1055  0.1935 -0.1550
 2405TIP3    H228851   4.533   6.628   1.931 -0.8076 -0.4824 -1.5005
 2406TIP3   OH228852   4.407   2.176   2.556 -0.2081  0.1921  0.0232
 2406TIP3    H128853   4.397   2.166   2.651  0.1424  1.0250  0.1590
 2406TIP3    H228854   4.471   2.246   2.547 -0.8235  0.6505 -0.8412
 2407TIP3   OH228855   4.447   5.902   2.010 -0.1253 -0.2128  0.6076
 2407TIP3    H128856   4.416   5.989   1.989  1.2811  0.3528  0.7586
 2407TIP3    H228857   4.369   5.847   2.006 -0.8884  0.8901 -0.3037
 2408TIP3   OH228858   6.245   5.223   1.255 -0.0327  0.3609  0.0268
 2408TIP3    H128859   6.260   5.133   1.227 -1.2316  0.2611 -0.3129
 2408TIP3    H228860   6.219   5.216   1.347 -2.9584  0.0654 -0.7329
 2409TIP3   OH228861   3.778   4.312   2.386 -1.1673 -0.3758  0.7484
 2409TIP3    H128862   3.828   4.358   2.454  1.5624 -2.1076  0.0659
 2409TIP3    H228863   3.767   4.223   2.420 -1.9470 -0.5843 -0.0304
 2410TIP3   OH228864   1.747   1.760   2.960 -0.0777  0.3989  0.0513
 2410TIP3    H128865   1.787   1.674   2.947  1.5023  1.1258 -0.1028
 2410TIP3    H228866   1.703   1.779   2.877 -1.0187 -0.5248  0.3136
 2411TIP3   OH228867   1.129   2.874   7.298 -0.3813 -0.2953 -0.2758
 2411TIP3    H128868   1.217   2.908   7.286 -0.4909 -0.0947 -0.5198
 2411TIP3    H228869   1.088   2.883   7.212 -0.4932 -0.8061 -0.2766
 2412TIP3   OH228870   1.988   0.318   2.013 -0.3554  0.1280 -0.1546
 2412TIP3    H128871   1.962   0.324   1.921  0.3053 -0.1704 -0.3641
 2412TIP3    H228872   1.906   0.330   2.061 -0.4503  2.1388 -0.7229
 2413TIP3   OH228873   1.109   3.910   1.998  0.0572 -0.1388 -0.5898
 2413TIP3    H128874   1.111   3.926   2.092  0.1571  1.1619 -0.7933
 2413TIP3    H228875   1.059   3.829   1.988 -2.1004  0.9853  0.4270
 2414TIP3   OH228876   2.567   2.198   0.429 -0.4444  0.0585  0.1275
 2414TIP3    H128877   2.477   2.180   0.401 -0.2415  1.6002 -1.7453
 2414TIP3    H228878   2.620   2.139   0.375 -0.3074 -1.1861  1.5638
 2415TIP3   OH228879   2.034   4.511   8.206 -0.9122  0.0059  0.1661
 2415TIP3    H128880   2.120   4.476   8.185  0.0160  1.5866  1.1066
 2415TIP3    H228881   2.001   4.544   8.122  0.7928  2.1867  0.2524
 2416TIP3   OH228882   2.435   3.434   1.319 -0.3767 -0.1146 -0.1922
 2416TIP3    H128883   2.380   3.484   1.379  1.4237  1.3210  0.3751
 2416TIP3    H228884   2.426   3.479   1.235  0.0767  0.2802 -0.0386
 2417TIP3   OH228885   2.572   4.353   1.939 -0.1762 -0.2141  0.5416
 2417TIP3    H128886   2.518   4.346   2.017  0.5106 -1.1098  0.9559
 2417TIP3    H228887   2.653   4.307   1.961  0.2149 -0.0774 -0.5303
 2418TIP3   OH228888   1.773   2.633   6.890  0.5555  0.0882  0.1357
 2418TIP3    H128889   1.805   2.702   6.948  0.8665 -0.4348  0.6025
 2418TIP3    H228890   1.682   2.618   6.919 -0.0189  1.3068 -0.9374
 2419TIP3   OH228891   0.698   1.748   2.028 -0.0198 -0.2438 -0.5529
 2419TIP3    H128892   0.737   1.703   1.953 -0.6778  0.5082 -1.3665
 2419TIP3    H228893   0.701   1.841   2.004 -3.7243 -0.1948 -1.4169
 2420TIP3   OH228894   3.205   6.047   0.530 -0.2751  0.0195  0.3997
 2420TIP3    H128895   3.287   6.002   0.551  0.1158 -0.0873 -1.2234
 2420TIP3    H228896   3.227   6.140   0.533  0.4605 -0.0216 -1.8936
 2421TIP3   OH228897   0.337   5.459   2.094  0.0887  0.1841 -0.4763
 2421TIP3    H128898   0.428   5.484   2.079  0.3730 -0.4376  0.1747
 2421TIP3    H228899   0.337   5.416   2.180 -0.6172 -0.8443 -0.9699
 2422TIP3   OH228900   3.812   1.858   7.673  0.0122  0.1913  0.2362
 2422TIP3    H128901   3.886   1.807   7.704  0.1903 -0.8599 -1.7849
 2422TIP3    H228902   3.740   1.796   7.666 -0.7473  0.9497  0.9977
 2423TIP3   OH228903   4.843   0.148   7.623 -0.1544 -0.0255  0.5897
 2423TIP3    H128904   4.927   0.191   7.605 -0.6783  0.0106 -2.2069
 2423TIP3    H228905   4.794   0.212   7.674  0.3257  1.3724 -0.6086
 2424TIP3   OH228906   1.628   6.543   1.476 -0.0288 -0.1213  0.1160
 2424TIP3    H128907   1.705   6.512   1.522  0.6825  1.6783  0.2406
 2424TIP3    H228908   1.644   6.522   1.384  0.5786  0.1660  0.1534
 2425TIP3   OH228909   5.750   1.121   1.464 -0.1655 -0.2486 -0.4462
 2425TIP3    H128910   5.826   1.102   1.409 -0.1266 -1.6838  0.0458
 2425TIP3    H228911   5.692   1.047   1.451 -1.9050  1.2352 -1.4561
 2426TIP3   OH228912   3.216   3.017   7.896 -0.2482 -0.1451  0.0019
 2426TIP3    H128913   3.291   3.075   7.888 -0.7164  0.5235  0.3631
 2426TIP3    H228914   3.253   2.934   7.926  0.1693  0.7448  2.1797
 2427TIP3   OH228915   5.955   4.188   7.603  0.7172 -0.5682 -0.1766
 2427TIP3    H128916   5.980   4.130   7.531  0.5605 -0.4389 -0.3324
 2427TIP3    H228917   5.926   4.128   7.672  1.9337 -0.7608  0.2015
 2428TIP3   OH228918   0.387   0.126   6.887  0.3091 -0.2520  0.1977
 2428TIP3    H128919   0.453   0.115   6.818 -0.2725 -2.0003 -0.1325
 2428TIP3    H228920   0.353   0.038   6.902 -0.2404  0.2335  2.0937
 2429TIP3   OH228921   0.350   5.253   8.664 -0.5454 -0.3570 -0.1805
 2429TIP3    H128922   0.282   5.261   8.731 -0.9894  0.6078 -0.7250
 2429TIP3    H228923   0.319   5.307   8.591 -0.0529 -1.3501 -1.1628
 2430TIP3   OH228924   2.155   0.132   1.257  0.3580 -0.1371  0.0534
 2430TIP3    H128925   2.221   0.063   1.259 -1.1136 -1.6282  2.6971
 2430TIP3    H228926   2.072   0.085   1.248 -0.6149  1.4047  0.5957
 2431TIP3   OH228927   4.258   0.950   0.199 -0.2482 -0.0473  0.6834
 2431TIP3    H128928   4.246   1.019   0.134 -1.3878  0.8750  1.8303
 2431TIP3    H228929   4.291   0.995   0.276 -2.0804 -0.5546  1.8284
 2432TIP3   OH228930   2.220   3.872   7.869 -0.3193  1.0623 -0.3203
 2432TIP3    H128931   2.181   3.789   7.895  0.6955  0.7602  0.2603
 2432TIP3    H228932   2.164   3.938   7.910 -0.0986  0.6273  0.7144
 2433TIP3   OH228933   0.614   3.127   0.193 -0.2065 -0.4385  0.3385
 2433TIP3    H128934   0.567   3.046   0.171  2.3781 -1.6298 -1.3017
 2433TIP3    H228935   0.649   3.112   0.281 -1.6905 -0.0750  1.0213
 2434TIP3   OH228936   2.358   5.943   7.801 -0.3150 -0.7030 -0.3372
 2434TIP3    H128937   2.402   5.859   7.816 -1.0206 -0.9666  0.3154
 2434TIP3    H228938   2.317   5.933   7.715 -0.6304 -1.1336 -0.1394
 2435TIP3   OH228939   0.232   2.545   1.962 -0.3433  0.5780 -0.3755
 2435TIP3    H128940   0.251   2.635   1.935 -1.4935  0.9611  0.0530
 2435TIP3    H228941   0.224   2.549   2.057 -1.0334  0.1432 -0.4107
 2436TIP3   OH228942   4.755   4.916   2.750  0.3589 -0.1784 -0.6083
 2436TIP3    H128943   4.804   4.906   2.832  0.6589 -0.7300 -0.8502
 2436TIP3    H228944   4.666   4.889   2.771  0.2653  0.3672 -0.2867
 2437TIP3   OH228945   0.344   2.289   1.565 -0.3991  0.2968 -0.3504
 2437TIP3    H128946   0.416   2.328   1.614 -1.8864  3.1553 -0.1806
 2437TIP3    H228947   0.268   2.344   1.587 -2.0107 -0.8303 -2.6895
 2438TIP3   OH228948   0.357   6.707   8.815  0.4079  0.4950  0.1135
 2438TIP3    H128949   0.313   6.701   8.899 -1.6899  0.6790 -0.9134
 2438TIP3    H228950   0.332   6.793   8.781  0.9561  0.2882 -0.8589
 2439TIP3   OH228951   4.713   2.589   7.554 -0.3653  0.2603 -0.0046
 2439TIP3    H128952   4.745   2.665   7.505  0.1054  0.8943  1.2526
 2439TIP3    H228953   4.619   2.587   7.537 -0.2680  0.6842 -0.6316
 2440TIP3   OH228954   5.780   6.230   2.680  0.1426  0.0444  0.4338
 2440TIP3    H128955   5.722   6.262   2.749  0.2484 -1.5731  1.3083
 2440TIP3    H228956   5.864   6.214   2.724  1.4987  2.8100 -0.8979
 2441TIP3   OH228957   0.222   5.634   8.695  0.1927  0.0088 -0.3017
 2441TIP3    H128958   0.183   5.698   8.636 -1.6665 -0.1381  0.7067
 2441TIP3    H228959   0.288   5.590   8.641  1.4824  2.6254 -1.0610
 2442TIP3   OH228960   2.146   2.072   0.590  0.4386  0.7505 -0.1793
 2442TIP3    H128961   2.082   2.001   0.598  1.4323 -0.4149 -2.0034
 2442TIP3    H228962   2.106   2.145   0.638 -0.7301 -0.9288  1.5366
 2443TIP3   OH228963   0.658   4.318   2.590  0.2773  0.0965  0.1598
 2443TIP3    H128964   0.644   4.265   2.668 -0.3942  1.6088  1.1210
 2443TIP3    H228965   0.752   4.314   2.575  0.3040 -0.9022  0.5336
 2444TIP3   OH228966   1.094   6.166   8.633  0.1484  0.2051  0.0401
 2444TIP3    H128967   1.002   6.177   8.609 -0.0237 -1.6862 -0.2534
 2444TIP3    H228968   1.099   6.078   8.670  1.8968  0.1777 -0.1987
 2445TIP3   OH228969   5.831   1.200   8.608 -0.0343 -0.1208  0.1857
 2445TIP3    H128970   5.747   1.245   8.602  0.3865  0.4584 -2.0244
 2445TIP3    H228971   5.890   1.265   8.646 -0.0007  0.3907 -0.7117
 2446TIP3   OH228972   6.455   6.756   1.775 -0.2144 -0.1738 -0.4025
 2446TIP3    H128973   6.470   6.737   1.682 -1.5836 -2.1870 -0.2893
 2446TIP3    H228974   6.382   6.818   1.775 -1.4256 -1.5302 -0.7031
 2447TIP3   OH228975   6.824   0.177   6.979  0.3149 -0.6612  0.3088
 2447TIP3    H128976   6.820   0.126   7.060 -0.8583  0.8213  1.2574
 2447TIP3    H228977   6.739   0.221   6.975  0.5829 -0.2235 -1.4323
 2448TIP3   OH228978   2.154   2.770   8.478  0.1567 -0.5691  0.3144
 2448TIP3    H128979   2.127   2.693   8.428 -0.4423  0.2541 -0.6602
 2448TIP3    H228980   2.224   2.808   8.426 -0.4328  0.2682  0.1215
 2449TIP3   OH228981   2.562   1.819   7.227 -0.2754 -0.1721 -0.1216
 2449TIP3    H128982   2.498   1.810   7.298  1.4303 -1.0783  1.3982
 2449TIP3    H228983   2.592   1.729   7.211  1.4668  0.3279  0.0829
 2450TIP3   OH228984   4.944   4.614   1.288 -0.2104  0.1827  0.6446
 2450TIP3    H128985   4.880   4.607   1.359  0.1378  0.8216  1.0276
 2450TIP3    H228986   5.005   4.542   1.304 -1.2365 -0.9020 -0.1543
 2451TIP3   OH228987   0.923   2.301   0.128 -0.5812  0.2628 -0.2376
 2451TIP3    H128988   0.880   2.366   0.071 -0.1943  0.0955 -0.7292
 2451TIP3    H228989   0.851   2.253   0.169 -0.8790  1.2870  0.4697
 2452TIP3   OH228990   5.089   4.771   0.967 -0.3239  0.3023 -1.0485
 2452TIP3    H128991   5.139   4.690   0.969  0.5744  0.8319 -1.4780
 2452TIP3    H228992   5.116   4.818   1.046 -1.1886  0.0014 -0.5533
 2453TIP3   OH228993   0.479   6.739   8.255  0.2822  0.2456  0.3014
 2453TIP3    H128994   0.517   6.823   8.228  0.8175  0.2780  1.1169
 2453TIP3    H228995   0.461   6.693   8.173 -0.0306  1.1590 -0.1632
 2454TIP3   OH228996   0.302   0.450   0.420 -0.1150  0.9753  0.0193
 2454TIP3    H128997   0.239   0.518   0.441 -1.0310  0.1706 -0.0752
 2454TIP3    H228998   0.262   0.401   0.348  1.8228  2.1244 -1.9510
 2455TIP3   OH228999   6.739   0.640   8.790  0.4428  0.5448  0.1379
 2455TIP3    H129000   6.722   0.555   8.750  1.5436 -0.4575  1.7185
 2455TIP3    H229001   6.818   0.628   8.842 -0.5446  1.9211  2.1296
 2456TIP3   OH229002   1.401   4.408   1.948  0.0423 -0.3484  0.0284
 2456TIP3    H129003   1.329   4.470   1.962 -1.6992 -2.0793 -0.8062
 2456TIP3    H229004   1.457   4.451   1.884 -1.0203  0.4614 -0.3863
 2457TIP3   OH229005   5.319   5.003   0.059  0.0492  0.2947 -0.8529
 2457TIP3    H129006   5.273   5.085   0.075  0.6114  1.0807 -3.0188
 2457TIP3    H229007   5.410   5.029   0.047  0.2300 -0.6417 -1.5942
 2458TIP3   OH229008   6.643   2.062   0.041 -0.6354  0.0400 -0.4551
 2458TIP3    H129009   6.647   1.969   0.062  0.1389 -0.1563 -1.3846
 2458TIP3    H229010   6.650   2.106   0.126  0.4719 -0.7367 -0.1222
 2459TIP3   OH229011   2.537   0.705   1.225 -0.0018  0.5687  0.5929
 2459TIP3    H129012   2.458   0.658   1.198  0.8426 -0.8188  0.4286
 2459TIP3    H229013   2.579   0.730   1.143  1.7689 -2.2957  0.4669
 2460TIP3   OH229014   2.784   1.425   1.402  0.2187 -0.5433  0.8179
 2460TIP3    H129015   2.794   1.500   1.462 -1.1953  1.9962 -1.8395
 2460TIP3    H229016   2.866   1.423   1.353 -0.3834  0.4598 -0.2783
 2461TIP3   OH229017   1.346   2.541   6.593  0.1062  0.3143  0.4112
 2461TIP3    H129018   1.354   2.489   6.673 -1.8728  0.5471  0.8126
 2461TIP3    H229019   1.278   2.497   6.542  0.2709  1.0350 -0.4536
 2462TIP3   OH229020   4.965   3.173   8.470  0.0155  0.1657  0.3014
 2462TIP3    H129021   5.006   3.098   8.512 -0.7870  0.1801  1.1413
 2462TIP3    H229022   5.037   3.234   8.454  0.4916 -0.2956  0.6615
 2463TIP3   OH229023   1.859   2.787   1.990 -0.0886 -0.0944 -0.5342
 2463TIP3    H129024   1.823   2.864   2.035  0.6443 -0.3630  0.5368
 2463TIP3    H229025   1.875   2.818   1.901 -0.8045  0.6832 -0.4152
 2464TIP3   OH229026   6.472   3.006   1.036  0.3501 -0.2811 -0.2717
 2464TIP3    H129027   6.436   3.095   1.031  1.9935  0.4142 -0.4666
 2464TIP3    H229028   6.446   2.965   0.954  0.0043  0.1950 -0.4069
 2465TIP3   OH229029   0.261   1.816   8.198  0.0737  0.0961  0.0925
 2465TIP3    H129030   0.322   1.871   8.149 -0.0020 -0.3150 -0.4689
 2465TIP3    H229031   0.286   1.726   8.176 -2.3196 -0.1370 -2.2695
 2466TIP3   OH229032   4.281   4.741   6.806  0.4868  0.0129 -0.1959
 2466TIP3    H129033   4.370   4.777   6.802  0.3530  0.4958  0.7855
 2466TIP3    H229034   4.225   4.818   6.817 -0.0255 -0.3132 -0.5227
 2467TIP3   OH229035   6.512   3.104   0.714  0.3701  0.4783  0.4307
 2467TIP3    H129036   6.510   3.179   0.772  1.0174  0.7754  0.0826
 2467TIP3    H229037   6.488   3.029   0.769 -1.4163  1.0781  0.5322
 2468TIP3   OH229038   4.469   0.384   1.743  0.0498  0.5879  0.5121
 2468TIP3    H129039   4.537   0.377   1.677 -1.3275  0.2707 -0.9259
 2468TIP3    H229040   4.480   0.307   1.798  0.8549  0.5498  0.2989
 2469TIP3   OH229041   1.655   5.854   8.297 -0.5091 -0.1520 -0.2401
 2469TIP3    H129042   1.707   5.809   8.230 -0.6679 -0.2543 -0.2941
 2469TIP3    H229043   1.613   5.926   8.249 -0.3368 -0.0081 -0.1752
 2470TIP3   OH229044   5.101   1.609   1.741 -0.5811 -0.4863 -0.3669
 2470TIP3    H129045   5.089   1.515   1.740 -0.3935 -0.5309  0.5670
 2470TIP3    H229046   5.023   1.644   1.784 -0.0687 -0.3320  0.4738
 2471TIP3   OH229047   6.676   6.420   0.891  0.0464 -0.1576  0.9702
 2471TIP3    H129048   6.631   6.439   0.974 -0.6770  0.0534  0.5429
 2471TIP3    H229049   6.650   6.492   0.833 -1.0985 -1.3362 -0.0606
 2472TIP3   OH229050   2.534   0.804   0.191  0.3664 -0.1161 -0.0319
 2472TIP3    H129051   2.527   0.842   0.104 -2.0230  0.9694  0.5526
 2472TIP3    H229052   2.456   0.749   0.200  0.1872  0.3616  1.6695
 2473TIP3   OH229053   5.204   3.824   2.749  0.0559 -0.2346  0.4261
 2473TIP3    H129054   5.183   3.752   2.689  2.7679 -1.7933  1.1663
 2473TIP3    H229055   5.200   3.784   2.836 -0.5154  1.1269  1.0522
 2474TIP3   OH229056   5.504   1.581   2.206  1.0264  0.0075  0.1300
 2474TIP3    H129057   5.421   1.533   2.208  0.4946  0.8878 -0.0739
 2474TIP3    H229058   5.571   1.513   2.215  0.2528 -0.5664  2.0615
 2475TIP3   OH229059   6.640   1.441   2.031 -0.0650  0.5232 -0.6112
 2475TIP3    H129060   6.604   1.517   1.987 -2.4260  0.4412  1.0057
 2475TIP3    H229061   6.708   1.476   2.088  0.2307  1.1283 -1.3189
 2476TIP3   OH229062   2.749   2.930   2.192 -0.1363 -0.2246 -0.2538
 2476TIP3    H129063   2.835   2.927   2.234  1.0976 -1.0894 -2.6872
 2476TIP3    H229064   2.767   2.936   2.098 -2.7214 -1.3666 -0.9227
 2477TIP3   OH229065   5.423   4.159   1.425 -0.0151 -0.1935 -0.6330
 2477TIP3    H129066   5.410   4.252   1.443  0.1494 -0.1198 -0.8864
 2477TIP3    H229067   5.362   4.140   1.354  0.4997 -0.0941 -1.1112
 2478TIP3   OH229068   4.676   3.217   8.442 -0.4038  0.0823 -0.4238
 2478TIP3    H129069   4.615   3.148   8.414  0.1733 -0.8017  0.3967
 2478TIP3    H229070   4.762   3.175   8.438 -0.1034  0.5683  0.6391
 2479TIP3   OH229071   3.820   3.039   6.760 -0.9845 -0.3252 -0.3913
 2479TIP3    H129072   3.729   3.032   6.730 -0.4920 -1.0084 -1.7871
 2479TIP3    H229073   3.845   2.950   6.783 -0.6648 -0.1360  0.0095
 2480TIP3   OH229074   4.102   2.902   2.701 -0.1415 -0.0332 -0.1128
 2480TIP3    H129075   4.177   2.889   2.760 -0.9698 -1.1792  0.7313
 2480TIP3    H229076   4.031   2.930   2.759 -0.8250 -0.6269 -0.6524
 2481TIP3   OH229077   4.118   0.902   0.873 -0.2663  0.1747 -0.4630
 2481TIP3    H129078   4.099   0.968   0.939  0.3943  0.2841 -0.3762
 2481TIP3    H229079   4.038   0.898   0.820 -0.2444  1.1955 -0.5993
 2482TIP3   OH229080   2.627   3.173   2.329  0.3182 -0.1804 -1.0424
 2482TIP3    H129081   2.689   3.173   2.402 -0.1248  0.4805 -0.6622
 2482TIP3    H229082   2.655   3.098   2.275  1.6676  0.3050 -1.0717
 2483TIP3   OH229083   4.192   4.020   1.671  0.1780 -0.0894  0.6454
 2483TIP3    H129084   4.286   4.021   1.685  0.0815  0.2939  1.2883
 2483TIP3    H229085   4.159   4.095   1.720 -0.4537 -0.1659  0.3549
 2484TIP3   OH229086   3.571   4.551   1.430  0.1065  0.3902  0.1715
 2484TIP3    H129087   3.665   4.529   1.426 -0.0072 -0.2070  0.5229
 2484TIP3    H229088   3.569   4.643   1.456  0.6039  0.6699 -0.7414
 2485TIP3   OH229089   1.800   4.263   1.593 -0.8265  0.8216  0.1612
 2485TIP3    H129090   1.715   4.218   1.592 -0.9259  1.0174 -0.8542
 2485TIP3    H229091   1.810   4.291   1.684 -0.0955 -2.4451  1.2096
 2486TIP3   OH229092   1.075   4.190   1.236 -0.2116 -0.2625 -0.0229
 2486TIP3    H129093   1.049   4.129   1.168  0.3674 -1.5914  0.8874
 2486TIP3    H229094   1.050   4.146   1.318  2.0836 -0.2951  0.7524
 2487TIP3   OH229095   5.945   4.696   7.395 -0.3868 -0.2737 -0.8389
 2487TIP3    H129096   5.992   4.657   7.470  0.0782  0.4271 -0.7580
 2487TIP3    H229097   6.009   4.754   7.355 -1.5897  1.8241  0.1064
 2488TIP3   OH229098   3.797   4.368   1.711  0.3875 -0.3832 -0.5495
 2488TIP3    H129099   3.822   4.448   1.666  0.5486  0.2269  0.5701
 2488TIP3    H229100   3.835   4.377   1.799 -0.9330 -0.9416  0.1187
 2489TIP3   OH229101   0.932   2.418   1.996  0.4450  0.5769  0.8283
 2489TIP3    H129102   0.956   2.378   2.080 -0.4477  2.4856  2.0505
 2489TIP3    H229103   0.846   2.382   1.976  1.6147 -1.7180 -0.5715
 2490TIP3   OH229104   6.772   6.483   8.089  0.0006 -0.1304 -0.0852
 2490TIP3    H129105   6.848   6.438   8.053 -0.6059  0.0365 -1.6800
 2490TIP3    H229106   6.733   6.420   8.150 -0.3889 -1.5233 -1.6756
 2491TIP3   OH229107   3.842   5.801   8.810 -0.2291  0.0124 -0.0286
 2491TIP3    H129108   3.820   5.735   8.744 -1.2293 -0.4077  0.7099
 2491TIP3    H229109   3.835   5.884   8.764 -0.0966 -0.3273 -0.6701
 2492TIP3   OH229110   4.456   2.663   7.470 -0.3037 -0.4124 -0.0831
 2492TIP3    H129111   4.446   2.701   7.383  0.0070 -1.2056 -0.4801
 2492TIP3    H229112   4.410   2.723   7.528  0.5464  0.7905 -0.6142
 2493TIP3   OH229113   2.395   3.663   7.215 -0.1754 -0.1105 -0.7791
 2493TIP3    H129114   2.427   3.574   7.200  0.6900 -0.1440  0.9863
 2493TIP3    H229115   2.457   3.700   7.277 -2.5562  0.4499  1.4348
 2494TIP3   OH229116   2.256   4.713   8.168  0.2131 -0.9719  0.5213
 2494TIP3    H129117   2.330   4.659   8.196  0.4039 -1.3627 -0.6741
 2494TIP3    H229118   2.186   4.650   8.152  0.8256 -1.1032 -2.1740
 2495TIP3   OH229119   1.215   5.406   2.941  0.4469 -0.8655  0.1282
 2495TIP3    H129120   1.299   5.452   2.939  0.1843 -0.1379  2.6812
 2495TIP3    H229121   1.154   5.465   2.896  0.6151  0.2198  1.2763
 2496TIP3   OH229122   4.612   4.406   3.114  0.3214  0.4674  0.3666
 2496TIP3    H129123   4.523   4.411   3.077  0.8429 -2.5796 -1.7319
 2496TIP3    H229124   4.667   4.452   3.051  0.4734  0.6075  0.6017
 2497TIP3   OH229125   6.233   0.044   1.709 -0.0141  0.6700 -0.4246
 2497TIP3    H129126   6.161   0.049   1.772  0.1432 -0.5267 -0.1254
 2497TIP3    H229127   6.241   0.133   1.674 -0.6034  1.1810  0.6873
 2498TIP3   OH229128   6.476   6.820   0.681  0.1118 -0.0311  0.8192
 2498TIP3    H129129   6.383   6.799   0.691 -0.5568  0.8267 -2.5582
 2498TIP3    H229130   6.479   6.886   0.613  3.0422  2.2775  2.9088
 2499TIP3   OH229131   6.797   0.823   0.651 -0.1619  0.2279 -0.1285
 2499TIP3    H129132   6.886   0.857   0.637 -1.0264  2.0000 -1.6879
 2499TIP3    H229133   6.756   0.888   0.709 -0.2209 -1.0334  1.3083
 2500TIP3   OH229134   4.259   5.497   1.489  0.2629  0.3792  0.4281
 2500TIP3    H129135   4.211   5.444   1.552 -1.4810  1.2348 -0.1258
 2500TIP3    H229136   4.225   5.586   1.502  2.2277  1.1745  0.4945
 2501TIP3   OH229137   0.137   6.235   1.275  0.3058  0.2716  0.1636
 2501TIP3    H129138   0.095   6.291   1.340  1.8723  1.8241 -0.1124
 2501TIP3    H229139   0.073   6.229   1.204 -1.0883 -0.7794  1.4225
 2502TIP3   OH229140   4.051   3.471   7.016  0.0077 -0.0882 -0.0985
 2502TIP3    H129141   4.140   3.472   6.982 -0.1376 -1.1996 -0.5720
 2502TIP3    H229142   4.017   3.385   6.990 -1.3422  0.4847 -0.2919
 2503TIP3   OH229143   1.090   0.890   0.740 -0.0843 -0.0126  0.0671
 2503TIP3    H129144   1.035   0.814   0.719 -2.1999  1.1585  1.0988
 2503TIP3    H229145   1.074   0.951   0.668 -0.7479  0.6386  0.7588
 2504TIP3   OH229146   1.279   1.376   2.383 -0.2629 -0.3479 -0.2407
 2504TIP3    H129147   1.251   1.352   2.471 -0.1188 -0.2577 -0.1692
 2504TIP3    H229148   1.337   1.304   2.356 -1.8505 -1.3811 -1.0426
 2505TIP3   OH229149   3.612   4.173   1.661 -0.2329  0.2414  0.2896
 2505TIP3    H129150   3.665   4.250   1.684 -1.1462  0.8308  0.5119
 2505TIP3    H229151   3.557   4.159   1.738  0.2835 -0.9705  0.4549
 2506TIP3   OH229152   2.057   5.877   7.987  0.2036  0.0178 -0.5186
 2506TIP3    H129153   2.064   5.936   8.062 -0.6039  0.6846 -0.9622
 2506TIP3    H229154   1.972   5.834   7.998  0.4755 -0.5492 -0.5810
 2507TIP3   OH229155   6.077   4.526   8.816  0.1494  0.3141 -0.3236
 2507TIP3    H129156   6.166   4.550   8.791  1.1229 -1.9849  0.6733
 2507TIP3    H229157   6.061   4.574   8.897  0.7102  0.2671 -0.1815
 2508TIP3   OH229158   5.948   6.279   7.744  0.0758 -0.2673 -0.3310
 2508TIP3    H129159   5.888   6.217   7.784  1.1352 -0.7229  0.5925
 2508TIP3    H229160   5.897   6.319   7.673 -0.9772 -1.3651 -0.2252
 2509TIP3   OH229161   4.626   0.670   8.031 -0.7249 -0.1599 -0.5255
 2509TIP3    H129162   4.690   0.635   7.969 -0.4461 -0.3520 -0.1418
 2509TIP3    H229163   4.638   0.765   8.028 -0.6961 -0.1720 -0.7510
 2510TIP3   OH229164   3.148   4.537   7.586 -0.9609  0.4515 -0.2171
 2510TIP3    H129165   3.111   4.489   7.512  1.4739  1.0145 -1.9133
 2510TIP3    H229166   3.131   4.629   7.566 -1.7007  0.5619  0.7992
 2511TIP3   OH229167   0.099   4.442   2.248  0.1463  0.0074 -0.1342
 2511TIP3    H129168   0.057   4.452   2.334  0.5521  0.5371  0.0078
 2511TIP3    H229169   0.091   4.528   2.208  1.5528  0.2713  0.1128
 2512TIP3   OH229170   1.139   2.292   3.063  0.0405 -0.4222  0.0378
 2512TIP3    H129171   1.061   2.329   3.022  0.2058  1.0867  0.9798
 2512TIP3    H229172   1.186   2.248   2.992 -0.9659 -0.1325 -0.8294
 2513TIP3   OH229173   0.581   1.178   8.097  0.0781  0.0555 -0.2457
 2513TIP3    H129174   0.588   1.272   8.115 -1.5703  0.6279 -2.2247
 2513TIP3    H229175   0.488   1.162   8.086  0.4889 -1.2408 -2.5984
 2514TIP3   OH229176   2.769   5.620   0.797  0.3991 -0.2474  0.3293
 2514TIP3    H129177   2.697   5.608   0.859  1.3736  0.6921  1.7262
 2514TIP3    H229178   2.728   5.614   0.711 -1.2404 -0.2923  1.0665
 2515TIP3   OH229179   1.615   4.451   7.519  0.1379  0.1046 -0.6255
 2515TIP3    H129180   1.596   4.512   7.448 -0.3072  0.4334 -0.2337
 2515TIP3    H229181   1.582   4.367   7.488 -1.0217  0.4525 -0.3995
 2516TIP3   OH229182   3.483   0.661   1.809  0.4476 -0.2269 -0.1770
 2516TIP3    H129183   3.447   0.584   1.854  0.4806 -0.0723  0.1105
 2516TIP3    H229184   3.457   0.648   1.717 -0.9404  0.2243  0.1333
 2517TIP3   OH229185   5.603   0.383   0.850  0.4499  0.4645 -0.2980
 2517TIP3    H129186   5.679   0.425   0.889 -0.2075  0.6720  0.8092
 2517TIP3    H229187   5.540   0.454   0.836  0.0110  0.1220 -0.0858
 2518TIP3   OH229188   0.653   1.367   7.389  0.4228  0.3792  0.2829
 2518TIP3    H129189   0.683   1.392   7.477  0.2759  1.7735 -0.0322
 2518TIP3    H229190   0.732   1.366   7.336  0.2982  1.3426  0.0533
 2519TIP3   OH229191   4.721   1.537   0.342  0.3434  0.0523 -0.0465
 2519TIP3    H129192   4.744   1.535   0.435  1.1364  1.1700 -0.2017
 2519TIP3    H229193   4.719   1.630   0.320  2.7872 -0.2134 -1.7475
 2520TIP3   OH229194   6.170   5.455   0.185  0.2711 -0.1645  0.3392
 2520TIP3    H129195   6.162   5.506   0.266 -0.2981 -1.6751  1.2590
 2520TIP3    H229196   6.257   5.416   0.190  0.3022 -0.1212  0.1349
 2521TIP3   OH229197   3.148   4.074   0.192 -0.1599  0.2093 -0.6222
 2521TIP3    H129198   3.120   4.033   0.274 -0.0907  1.1464 -0.1207
 2521TIP3    H229199   3.188   4.157   0.219 -1.0288  0.9903 -1.6713
 2522TIP3   OH229200   6.090   1.721   1.295 -0.8474 -0.1996 -0.1987
 2522TIP3    H129201   6.142   1.677   1.228 -0.8607 -1.8516  0.8302
 2522TIP3    H229202   6.093   1.662   1.371 -0.3648  1.8311  1.4802
 2523TIP3   OH229203   0.378   1.825   8.501  0.3501  0.1777  0.0950
 2523TIP3    H129204   0.359   1.807   8.409  1.5498  0.9373 -0.3180
 2523TIP3    H229205   0.313   1.890   8.527  0.3573  0.3713 -0.3730
 2524TIP3   OH229206   0.626   5.483   2.099 -0.4057 -0.3312  0.2841
 2524TIP3    H129207   0.650   5.529   2.019  0.6062  0.8401  1.2137
 2524TIP3    H229208   0.659   5.394   2.087 -0.9360 -0.3946 -0.8781
 2525TIP3   OH229209   4.863   1.328   1.125  0.1666  0.2941  0.3336
 2525TIP3    H129210   4.849   1.311   1.218  1.3695 -0.3626  0.4055
 2525TIP3    H229211   4.819   1.412   1.109 -0.0910  0.3876  1.4715
 2526TIP3   OH229212   4.221   2.537   1.461  0.0352 -0.4821  0.5087
 2526TIP3    H129213   4.132   2.517   1.432 -0.2821 -1.5302  2.0467
 2526TIP3    H229214   4.209   2.599   1.532  0.7515  1.5435 -1.0498
 2527TIP3   OH229215   0.150   2.592   7.907 -0.2495  0.8208  0.1346
 2527TIP3    H129216   0.243   2.582   7.927 -0.4785  0.4150  1.0405
 2527TIP3    H229217   0.143   2.570   7.814  0.4337 -0.0266  0.2698
 2528TIP3   OH229218   5.729   6.003   7.510  0.1344 -0.1832 -0.1400
 2528TIP3    H129219   5.670   6.044   7.573  0.2888 -1.4134  0.8478
 2528TIP3    H229220   5.696   6.031   7.425 -1.8093 -0.7025  0.3859
 2529TIP3   OH229221   2.667   5.773   1.217  0.0019 -0.3400 -0.6423
 2529TIP3    H129222   2.617   5.791   1.296  0.6065 -0.4960 -0.2217
 2529TIP3    H229223   2.654   5.851   1.162  1.9031  1.1048  0.8070
 2530TIP3   OH229224   2.129   2.045   8.471 -0.4621 -0.4516 -0.6374
 2530TIP3    H129225   2.131   2.140   8.487 -0.7743 -0.6821  0.9063
 2530TIP3    H229226   2.193   2.032   8.401 -0.9479  0.9823 -1.4082
 2531TIP3   OH229227   4.286   0.053   6.911  0.4598  0.0080 -0.3753
 2531TIP3    H129228   4.357   0.089   6.858  1.2433  1.3794  1.5025
 2531TIP3    H229229   4.225   0.126   6.922 -0.1513 -0.5272 -0.1441
 2532TIP3   OH229230   3.912   1.451   1.787  0.4453 -0.0181 -0.4211
 2532TIP3    H129231   3.993   1.431   1.740  1.1275 -1.4446  1.2036
 2532TIP3    H229232   3.938   1.515   1.854  0.0073  0.2710 -0.5226
 2533TIP3   OH229233   5.746   5.667   8.328 -0.3432  0.3857 -0.3079
 2533TIP3    H129234   5.747   5.578   8.290 -1.2221 -0.6460  1.9120
 2533TIP3    H229235   5.836   5.682   8.355 -0.0104  0.5463 -1.4522
 2534TIP3   OH229236   6.334   6.132   8.444  0.2408 -0.1553  0.0337
 2534TIP3    H129237   6.277   6.104   8.516  1.4975  2.1569  2.0881
 2534TIP3    H229238   6.421   6.136   8.483  0.9932  1.0691 -1.6483
 2535TIP3   OH229239   1.892   2.538   1.603 -0.2599  0.2888 -0.7723
 2535TIP3    H129240   1.954   2.551   1.531  1.6942 -0.0266  0.7719
 2535TIP3    H229241   1.907   2.448   1.631 -0.3970  0.6706  0.5623
 2536TIP3   OH229242   3.934   2.087   2.247  0.3762 -0.5910 -0.0368
 2536TIP3    H129243   3.994   2.159   2.231  0.4543 -0.4452  0.8800
 2536TIP3    H229244   3.848   2.122   2.224  0.4844 -0.3862 -0.1298
 2537TIP3   OH229245   2.734   3.721   0.565  0.2256  0.1017  0.6463
 2537TIP3    H129246   2.817   3.768   0.580 -0.0825  0.4137  1.4352
 2537TIP3    H229247   2.716   3.677   0.648 -0.3222 -0.1033  0.4254
 2538TIP3   OH229248   5.263   3.775   1.391 -0.2798  0.4792 -0.2990
 2538TIP3    H129249   5.185   3.798   1.441  0.9761  1.7691  1.1499
 2538TIP3    H229250   5.284   3.685   1.418 -1.5481 -0.0997 -1.1399
 2539TIP3   OH229251   2.239   5.906   7.537  0.0627 -0.6219 -0.0618
 2539TIP3    H129252   2.243   5.834   7.475 -0.7617 -2.0098  1.4467
 2539TIP3    H229253   2.231   5.984   7.482 -1.3521 -1.8435 -1.6875
 2540TIP3   OH229254   6.379   3.076   1.523 -0.2135 -0.0504  0.0905
 2540TIP3    H129255   6.461   3.123   1.538 -0.6582  0.5657  0.6350
 2540TIP3    H229256   6.339   3.068   1.609 -0.0659 -1.6280  0.0531
 2541TIP3   OH229257   6.529   2.857   2.412 -0.1394 -0.2873 -0.2332
 2541TIP3    H129258   6.618   2.867   2.377 -0.7266  3.8816 -1.0120
 2541TIP3    H229259   6.537   2.884   2.503 -0.5406 -0.5761 -0.1106
 2542TIP3   OH229260   6.178   2.640   2.356  0.0617 -0.3883 -0.0439
 2542TIP3    H129261   6.192   2.583   2.432  1.5217  0.3007  0.2333
 2542TIP3    H229262   6.219   2.593   2.283 -0.4050 -0.5583 -0.1997
 2543TIP3   OH229263   1.534   5.451   7.623  0.7367  0.5384  0.8108
 2543TIP3    H129264   1.552   5.357   7.629 -0.1746  0.2070 -0.8822
 2543TIP3    H229265   1.557   5.473   7.532  0.0643  1.7450  0.9195
 2544TIP3   OH229266   4.691   1.679   0.596  0.1236 -0.1964 -0.2375
 2544TIP3    H129267   4.600   1.654   0.582  0.2432  0.2297 -2.0288
 2544TIP3    H229268   4.689   1.742   0.668 -0.5250 -2.9336  2.3527
 2545TIP3   OH229269   5.478   0.655   0.934 -0.2236  0.1315  0.1449
 2545TIP3    H129270   5.479   0.748   0.955 -1.5562 -0.2198  2.0809
 2545TIP3    H229271   5.527   0.614   1.006  0.4582 -0.6737 -0.7442
 2546TIP3   OH229272   2.088   0.988   2.373 -0.5334 -0.3304 -0.2491
 2546TIP3    H129273   2.099   0.924   2.302 -0.8632 -1.2541  0.5224
 2546TIP3    H229274   2.052   0.938   2.445  0.4027  0.4651  0.8064
 2547TIP3   OH229275   3.291   3.512   0.077 -0.4793  0.1786  0.1195
 2547TIP3    H129276   3.205   3.492   0.115  0.3308  0.0216  1.9913
 2547TIP3    H229277   3.325   3.427   0.050 -0.6952  0.1765 -0.1506
 2548TIP3   OH229278   6.406   2.297   0.684 -0.4141  0.1551 -0.2548
 2548TIP3    H129279   6.350   2.333   0.616 -3.0723  1.6858  2.5025
 2548TIP3    H229280   6.347   2.250   0.742  1.6065 -0.5750  1.3499
 2549TIP3   OH229281   5.378   2.414   0.566  0.2331  0.3410 -0.4185
 2549TIP3    H129282   5.441   2.405   0.494  0.2415 -0.7161 -0.2937
 2549TIP3    H229283   5.325   2.334   0.561 -0.8720  1.0541 -0.2964
 2550TIP3   OH229284   4.932   2.710   2.008  0.1319  0.8541  0.2401
 2550TIP3    H129285   5.017   2.695   1.967  0.0297 -0.7799  0.5365
 2550TIP3    H229286   4.914   2.628   2.056 -0.8461  1.7849  1.5418
 2551TIP3   OH229287   3.947   4.781   7.500 -0.7984 -0.2875 -0.3858
 2551TIP3    H129288   3.929   4.687   7.494  1.6076 -0.8192 -0.3954
 2551TIP3    H229289   3.952   4.810   7.409  0.1440 -0.5337 -0.4177
 2552TIP3   OH229290   2.770   3.803   8.009  0.2910 -0.0616 -0.2757
 2552TIP3    H129291   2.743   3.818   8.100  2.2164 -1.6160  0.6423
 2552TIP3    H229292   2.728   3.721   7.985 -1.0616  0.8598 -1.2298
 2553TIP3   OH229293   0.665   2.460   1.209 -0.0646  0.0121 -0.2554
 2553TIP3    H129294   0.581   2.427   1.242  0.0758 -0.3846 -0.2833
 2553TIP3    H229295   0.712   2.490   1.287 -0.3754  0.5732 -0.2809
 2554TIP3   OH229296   1.719   4.305   0.443 -0.3968  1.0224 -0.1244
 2554TIP3    H129297   1.626   4.286   0.456 -0.7708  2.8362  0.1642
 2554TIP3    H229298   1.722   4.361   0.365  0.3954  1.3401  0.1148
 2555TIP3   OH229299   2.588   0.101   3.074 -0.5633 -0.0126 -0.1428
 2555TIP3    H129300   2.662   0.131   3.126 -0.4568  0.1764 -0.3995
 2555TIP3    H229301   2.587   0.159   2.998  0.2299 -1.2654 -1.1482
 2556TIP3   OH229302   6.566   3.616   2.063 -0.0305 -0.2711  0.4505
 2556TIP3    H129303   6.523   3.683   2.115 -0.4161 -0.8150  0.8497
 2556TIP3    H229304   6.496   3.578   2.010  0.4999  0.8189 -1.0829
 2557TIP3   OH229305   4.509   0.958   7.970  0.1531 -0.5014  0.6422
 2557TIP3    H129306   4.441   0.911   8.020  0.3196 -1.4107  0.0503
 2557TIP3    H229307   4.476   1.047   7.962 -0.1983 -0.5193  1.7775
 2558TIP3   OH229308   3.984   3.359   1.252  0.3209 -0.0578  0.2643
 2558TIP3    H129309   4.039   3.436   1.237  0.7448 -0.3097  0.4876
 2558TIP3    H229310   3.898   3.394   1.273  0.0950  0.3352 -1.1804
 2559TIP3   OH229311   3.816   0.790   0.954  0.0826  0.2240 -0.2840
 2559TIP3    H129312   3.819   0.871   1.004 -2.0868  0.2658 -0.0962
 2559TIP3    H229313   3.830   0.818   0.863  2.1795  0.3888  0.0538
 2560TIP3   OH229314   0.648   6.640   0.799  0.1238  0.0195 -0.3585
 2560TIP3    H129315   0.616   6.554   0.824 -2.8524  0.9915 -0.4523
 2560TIP3    H229316   0.592   6.667   0.726  0.3307  2.3709  0.2431
 2561TIP3   OH229317   5.284   0.359   7.752  0.0456 -0.3607  0.5011
 2561TIP3    H129318   5.219   0.334   7.817 -0.7346  1.6129  0.5172
 2561TIP3    H229319   5.332   0.432   7.792 -0.1121  0.5484 -0.9118
 2562TIP3   OH229320   4.579   2.641   8.276 -0.3057  0.1430  0.2841
 2562TIP3    H129321   4.564   2.697   8.200 -0.2568  1.4585  1.2096
 2562TIP3    H229322   4.522   2.677   8.344  1.7594  0.8450  1.7417
 2563TIP3   OH229323   5.851   6.464   0.169 -0.3399 -0.3849  0.3672
 2563TIP3    H129324   5.800   6.544   0.163 -1.4347 -0.6877  3.6841
 2563TIP3    H229325   5.870   6.441   0.078 -2.2408  2.1677 -0.8048
 2564TIP3   OH229326   5.360   5.520   8.653  0.2064  0.2754 -0.3550
 2564TIP3    H129327   5.447   5.535   8.617 -0.1770  2.8163 -0.4570
 2564TIP3    H229328   5.355   5.578   8.729 -0.6940 -1.4147  0.9471
 2565TIP3   OH229329   1.757   6.776   8.620  0.1782  0.2391  0.3159
 2565TIP3    H129330   1.685   6.748   8.677  0.4775  0.3796  0.7735
 2565TIP3    H229331   1.816   6.701   8.618  0.0950  0.1780  0.0598
 2566TIP3   OH229332   3.245   2.002   8.226  0.3357 -0.4630  0.7657
 2566TIP3    H129333   3.185   1.941   8.268  0.4605  0.0256  1.6908
 2566TIP3    H229334   3.274   2.059   8.297  2.6462 -1.2768  0.5555
 2567TIP3   OH229335   0.586   6.258   8.468  0.2509 -0.1314 -0.2815
 2567TIP3    H129336   0.578   6.218   8.555  2.8033  1.2369  0.6845
 2567TIP3    H229337   0.553   6.347   8.479  1.0158  0.1974 -0.5573
 2568TIP3   OH229338   2.837   4.541   0.580 -0.3096  0.1110 -0.3622
 2568TIP3    H129339   2.851   4.560   0.487  2.5236  0.8564  0.1217
 2568TIP3    H229340   2.851   4.447   0.587 -1.1875 -0.0639 -0.7441
 2569TIP3   OH229341   3.599   1.600   1.485  0.1852  0.1603 -0.3145
 2569TIP3    H129342   3.633   1.547   1.557 -1.8538 -2.1313 -0.8672
 2569TIP3    H229343   3.538   1.661   1.527 -0.3554 -0.5878  0.0119
 2570TIP3   OH229344   6.451   3.817   0.264  0.0375 -0.2866  0.0358
 2570TIP3    H129345   6.386   3.814   0.194 -0.2616  0.4947  0.2796
 2570TIP3    H229346   6.468   3.725   0.285 -1.0916 -0.4925  0.0736
 2571TIP3   OH229347   4.011   0.308   0.082 -0.3825  0.0807  0.2795
 2571TIP3    H129348   4.012   0.286   0.175  1.3061 -0.3076  0.1995
 2571TIP3    H229349   4.088   0.264   0.046  0.0416  1.7344 -0.9430
 2572TIP3   OH229350   3.019   6.547   0.267  0.2485 -0.0516 -0.0142
 2572TIP3    H129351   2.941   6.492   0.277  0.2547 -0.2040 -0.7785
 2572TIP3    H229352   3.060   6.516   0.187  0.7322  0.4811  0.0250
 2573TIP3   OH229353   4.468   1.921   1.008 -0.7168 -0.4514 -0.4523
 2573TIP3    H129354   4.562   1.901   1.011 -0.2837  1.4707  0.1834
 2573TIP3    H229355   4.458   1.997   1.064 -3.2995 -2.7181  2.4959
 2574TIP3   OH229356   3.892   2.920   8.035  0.0233 -0.2172  0.0598
 2574TIP3    H129357   3.933   2.929   7.949  0.3991  0.6410  0.3161
 2574TIP3    H229358   3.903   3.006   8.076  1.1467 -1.0184  1.5291
 2575TIP3   OH229359   5.633   0.446   8.187  0.6725  0.2122  0.1787
 2575TIP3    H129360   5.681   0.364   8.176 -0.5256 -0.6604  1.2271
 2575TIP3    H229361   5.699   0.508   8.219  1.1172 -0.9659  1.6711
 2576TIP3   OH229362   1.095   2.890   1.162  0.1392 -0.4543  0.1222
 2576TIP3    H129363   1.033   2.908   1.091 -1.0983  0.9610  1.5098
 2576TIP3    H229364   1.056   2.817   1.210 -0.8096  0.8212  1.3474
 2577TIP3   OH229365   2.487   2.293   7.277  0.0903 -0.1532  0.3592
 2577TIP3    H129366   2.528   2.267   7.194 -0.9060  2.1776 -0.9606
 2577TIP3    H229367   2.400   2.252   7.274  0.3072 -0.6438  0.6088
 2578TIP3   OH229368   5.507   1.305   2.951 -0.0936 -0.0074  0.3022
 2578TIP3    H129369   5.467   1.308   3.038 -0.3504 -1.5777  0.2685
 2578TIP3    H229370   5.593   1.264   2.965 -0.5285 -1.1750 -0.2887
 2579TIP3   OH229371   1.630   6.852   8.327  0.7109 -0.6083 -0.2287
 2579TIP3    H129372   1.677   6.918   8.275  1.5337 -1.6745 -0.8805
 2579TIP3    H229373   1.665   6.863   8.416 -0.9610  1.4654  0.2788
 2580TIP3   OH229374   0.799   1.492   0.744  0.8222 -0.4238 -0.3431
 2580TIP3    H129375   0.823   1.513   0.653 -1.9447  1.0370 -0.8506
 2580TIP3    H229376   0.781   1.577   0.784 -0.0531 -1.1715  0.9213
 2581TIP3   OH229377   5.929   3.208   2.453 -0.0728 -0.5293 -0.2896
 2581TIP3    H129378   5.967   3.123   2.473  1.7582  0.3551  0.2598
 2581TIP3    H229379   5.941   3.259   2.533  0.6349  0.8145 -1.2058
 2582TIP3   OH229380   5.572   0.466   1.341  0.6804 -0.2733  0.1066
 2582TIP3    H129381   5.579   0.415   1.260 -1.1637 -0.1490 -0.1732
 2582TIP3    H229382   5.509   0.417   1.394 -0.4900  1.2523  0.1752
 2583TIP3   OH229383   0.571   4.312   0.918  0.6203 -0.1343  0.0303
 2583TIP3    H129384   0.530   4.385   0.965 -1.0029 -1.4078  0.7123
 2583TIP3    H229385   0.638   4.353   0.864  0.4576  1.7458  1.1397
 2584TIP3   OH229386   6.124   0.860   0.532 -0.2662  0.2407 -0.2039
 2584TIP3    H129387   6.063   0.810   0.586  2.5779 -1.8664  1.3134
 2584TIP3    H229388   6.152   0.799   0.464  0.8169  0.8289 -0.3126
 2585TIP3   OH229389   1.248   3.646   7.867 -0.1887 -0.0995  0.1472
 2585TIP3    H129390   1.210   3.614   7.786  0.5515 -1.4894  0.3336
 2585TIP3    H229391   1.204   3.730   7.882 -0.3554  0.1756 -1.6593
 2586TIP3   OH229392   0.279   3.468   1.095  0.3558 -0.1691 -0.3673
 2586TIP3    H129393   0.360   3.481   1.045  0.1581 -0.7035 -0.8315
 2586TIP3    H229394   0.210   3.500   1.038  0.1066 -0.9856 -0.5352
 2587TIP3   OH229395   1.096   3.056   6.916 -0.4043 -0.1687 -0.3972
 2587TIP3    H129396   1.075   3.141   6.879  1.3227  0.4331 -0.1196
 2587TIP3    H229397   1.013   3.008   6.917 -1.4153  1.5089 -0.5289
 2588TIP3   OH229398   5.390   0.161   1.760 -0.0744  0.3978  0.5522
 2588TIP3    H129399   5.366   0.070   1.742  0.0775  0.6415 -1.0859
 2588TIP3    H229400   5.343   0.183   1.840 -2.0956 -0.3965 -0.3256
 2589TIP3   OH229401   1.865   6.679   2.076 -0.2703  0.1555 -0.4530
 2589TIP3    H129402   1.917   6.722   2.143  0.1440  0.2392 -0.8252
 2589TIP3    H229403   1.856   6.588   2.107  4.6565 -1.4749 -2.8037
 2590TIP3   OH229404   5.424   5.535   7.651 -0.2962  0.0892 -0.3837
 2590TIP3    H129405   5.395   5.484   7.576  1.4279  1.0770 -1.7968
 2590TIP3    H229406   5.516   5.553   7.634  0.3143 -0.1031  2.2614
 2591TIP3   OH229407   1.194   4.215   6.958  0.8109 -0.2531 -0.0245
 2591TIP3    H129408   1.264   4.156   6.988  1.6936  1.4630  1.4988
 2591TIP3    H229409   1.199   4.290   7.017 -2.0350  0.1625 -0.1655
 2592TIP3   OH229410   3.299   4.579   8.132 -0.6996 -0.4813  0.5593
 2592TIP3    H129411   3.237   4.556   8.064  1.3388  1.1175 -2.0262
 2592TIP3    H229412   3.364   4.508   8.130 -0.1324  0.0456  0.1587
 2593TIP3   OH229413   0.784   3.757   2.829 -0.1767  0.4068 -0.1208
 2593TIP3    H129414   0.861   3.762   2.887 -0.7201  0.6065  0.6013
 2593TIP3    H229415   0.733   3.836   2.850 -0.8674 -0.0164 -0.1705
 2594TIP3   OH229416   2.241   0.985   0.305  0.1581  0.0336 -0.1223
 2594TIP3    H129417   2.147   0.975   0.321  0.5029 -2.3087  0.7900
 2594TIP3    H229418   2.250   0.977   0.210 -0.6564  1.6081 -0.3658
 2595TIP3   OH229419   5.636   5.910   8.251 -0.2785  0.1844  0.0073
 2595TIP3    H129420   5.684   5.967   8.190  0.5496  1.2747  1.6211
 2595TIP3    H229421   5.677   5.824   8.239 -1.3157 -0.0915 -2.2019
 2596TIP3   OH229422   3.714   3.703   8.799 -0.0095 -0.1148 -0.3511
 2596TIP3    H129423   3.707   3.668   8.888 -2.3308 -1.0369 -0.8213
 2596TIP3    H229424   3.702   3.797   8.809  1.5727  0.0359  0.4534
 2597TIP3   OH229425   0.087   4.490   3.302  0.0499 -0.2128  0.5881
 2597TIP3    H129426   0.174   4.484   3.342  1.5351 -0.4362 -2.4297
 2597TIP3    H229427   0.072   4.403   3.264 -2.5640 -0.9133  2.8769
 2598TIP3   OH229428   1.744   6.613   1.252  0.0670  0.2578 -0.2384
 2598TIP3    H129429   1.667   6.635   1.200 -0.4636 -0.7202  0.0912
 2598TIP3    H229430   1.792   6.550   1.199  1.1104  1.5117 -0.8106
 2599TIP3   OH229431   1.623   0.957   7.043  0.4391  0.1365 -0.5487
 2599TIP3    H129432   1.560   0.895   7.080  2.4579 -1.2071  0.8517
 2599TIP3    H229433   1.628   0.934   6.950  0.7639 -1.5304 -0.1540
 2600TIP3   OH229434   0.499   3.897   8.569  0.0169 -0.1381 -0.2904
 2600TIP3    H129435   0.526   3.903   8.477  0.8020 -3.6807 -0.4337
 2600TIP3    H229436   0.404   3.904   8.566  0.0243 -0.2459 -1.3836
 2601TIP3   OH229437   6.152   2.282   8.185 -0.1344 -0.2025 -0.0508
 2601TIP3    H129438   6.072   2.333   8.169 -0.7531 -1.0881  0.1063
 2601TIP3    H229439   6.193   2.324   8.260 -0.9178 -0.2455  0.4216
 2602TIP3   OH229440   4.947   5.505   7.548  0.2479  0.3573  0.0286
 2602TIP3    H129441   4.899   5.481   7.469  0.7140  0.4432 -0.2855
 2602TIP3    H229442   5.005   5.576   7.520  0.7964  0.0346  0.3228
 2603TIP3   OH229443   5.551   4.103   1.138 -0.0409  0.1968  0.1016
 2603TIP3    H129444   5.646   4.102   1.129 -0.0689  1.3244 -0.4995
 2603TIP3    H229445   5.530   4.190   1.171 -0.8912  0.1025 -0.1429
 2604TIP3   OH229446   6.109   5.006   8.408  0.7030  0.2450  0.3665
 2604TIP3    H129447   6.055   4.950   8.465  0.9087 -1.5345 -1.0957
 2604TIP3    H229448   6.121   4.955   8.328  1.4459  2.1660 -0.8184
 2605TIP3   OH229449   2.446   2.701   2.567 -0.0579  0.1741 -0.2028
 2605TIP3    H129450   2.471   2.609   2.555  2.7300  0.5004  1.9515
 2605TIP3    H229451   2.508   2.750   2.513 -0.9484  0.8256 -0.6442
 2606TIP3   OH229452   0.257   1.444   1.423  0.3371  0.3514  0.4877
 2606TIP3    H129453   0.333   1.445   1.482  1.4880  0.7584 -0.9460
 2606TIP3    H229454   0.259   1.357   1.383  1.3938  1.0822 -1.1658
 2607TIP3   OH229455   0.917   1.375   0.058  0.5076 -0.7817  0.1031
 2607TIP3    H129456   0.862   1.298   0.045 -0.8274  0.2612 -0.7632
 2607TIP3    H229457   0.857   1.442   0.090  1.5360  0.0351  0.3654
 2608TIP3   OH229458   3.176   2.914   7.514  0.2519 -0.3631  0.0979
 2608TIP3    H129459   3.101   2.958   7.473 -1.1678 -1.0766  1.7884
 2608TIP3    H229460   3.137   2.842   7.563  1.9657 -0.2826  1.6689
 2609TIP3   OH229461   5.218   3.999   2.531 -0.4369 -0.4347 -0.0721
 2609TIP3    H129462   5.312   3.987   2.543 -0.5543 -1.0859  0.2442
 2609TIP3    H229463   5.178   3.938   2.593 -1.0928  2.3962  2.5669
 2610TIP3   OH229464   0.678   1.371   2.719 -0.1851  0.0392 -0.1371
 2610TIP3    H129465   0.676   1.338   2.629 -0.9842  0.3228 -0.2276
 2610TIP3    H229466   0.701   1.463   2.710  1.8306 -0.3853  0.1017
 2611TIP3   OH229467   3.299   5.444   7.976 -0.1777  0.7467  0.8425
 2611TIP3    H129468   3.219   5.464   8.024 -1.6036 -0.2726 -1.0405
 2611TIP3    H229469   3.292   5.493   7.894  0.4633 -0.4174  0.0611
 2612TIP3   OH229470   6.343   5.354   1.016  0.0899 -0.7038 -0.3748
 2612TIP3    H129471   6.311   5.314   1.097  0.9142 -0.7268 -0.0514
 2612TIP3    H229472   6.317   5.293   0.947  1.6397 -2.0292  0.1405
 2613TIP3   OH229473   3.335   4.492   2.857 -0.2367 -0.7410 -0.0118
 2613TIP3    H129474   3.368   4.581   2.868 -0.1999 -0.6290 -0.9018
 2613TIP3    H229475   3.363   4.445   2.936  1.7749 -0.5619 -0.5548
 2614TIP3   OH229476   5.703   0.263   7.583 -0.3655  0.5386 -0.1627
 2614TIP3    H129477   5.679   0.354   7.566 -0.6831  0.5787  0.4705
 2614TIP3    H229478   5.702   0.256   7.678 -2.6420 -0.7283 -0.2153
 2615TIP3   OH229479   4.615   4.546   8.510 -0.2136  0.1141 -0.5368
 2615TIP3    H129480   4.628   4.487   8.435  0.7182 -0.8141  0.3232
 2615TIP3    H229481   4.544   4.505   8.560  0.0058  0.0597 -0.2673
 2616TIP3   OH229482   1.559   2.378   0.210 -0.1763 -0.0066 -0.6693
 2616TIP3    H129483   1.576   2.289   0.239  0.9955  0.9906  2.0558
 2616TIP3    H229484   1.469   2.395   0.238  0.0420  0.0639  0.0150
 2617TIP3   OH229485   4.084   0.470   1.703 -0.4843  0.0687  0.1339
 2617TIP3    H129486   4.116   0.409   1.636  1.5532  0.6740  0.4837
 2617TIP3    H229487   4.035   0.535   1.654 -2.1838 -1.4470 -0.3124
 2618TIP3   OH229488   1.329   4.361   8.361  0.1207 -0.7159  0.6716
 2618TIP3    H129489   1.343   4.437   8.305 -3.1636 -1.4230 -1.4002
 2618TIP3    H229490   1.370   4.385   8.445  0.8068  2.5077 -0.4293
 2619TIP3   OH229491   1.179   3.988   8.340  0.3900 -1.0005  0.4055
 2619TIP3    H129492   1.274   3.976   8.344  0.2908 -1.7873  0.7021
 2619TIP3    H229493   1.160   4.054   8.407  0.8511  0.0909 -0.5100
 2620TIP3   OH229494   3.106   1.513   7.923  0.2790 -0.5096  0.8386
 2620TIP3    H129495   3.200   1.503   7.910  0.4114  1.3026  0.1051
 2620TIP3    H229496   3.073   1.546   7.840 -0.4168  2.2063  2.0736
 2621TIP3   OH229497   5.721   5.450   8.140 -0.0482  0.1556 -0.0340
 2621TIP3    H129498   5.796   5.449   8.081 -0.3191  0.1536 -0.3756
 2621TIP3    H229499   5.651   5.492   8.091 -0.0149  0.9922  0.6057
 2622TIP3   OH229500   5.648   6.473   0.505 -0.1555  0.2261 -0.2763
 2622TIP3    H129501   5.622   6.441   0.418 -2.0582  0.0407  0.3013
 2622TIP3    H229502   5.643   6.396   0.561 -2.0636  0.9208  0.5868
 2623TIP3   OH229503   5.359   6.718   0.175 -0.4440  0.4055  0.5474
 2623TIP3    H129504   5.362   6.803   0.131 -1.6646 -0.6392 -1.7428
 2623TIP3    H229505   5.430   6.721   0.240 -1.1273  3.5113  1.2810
 2624TIP3   OH229506   4.630   1.612   2.075 -0.0075 -0.4798  0.9170
 2624TIP3    H129507   4.639   1.535   2.131 -1.0191 -0.7431  0.7329
 2624TIP3    H229508   4.546   1.650   2.100 -0.4838 -0.6053 -0.4168
 2625TIP3   OH229509   0.256   5.787   8.376 -0.7898 -0.2715  0.0407
 2625TIP3    H129510   0.287   5.869   8.338 -0.6822 -0.2083  0.2623
 2625TIP3    H229511   0.254   5.725   8.303 -0.8111 -0.0889 -0.1134
 2626TIP3   OH229512   4.120   6.107   0.338  0.5720  0.2272 -0.1875
 2626TIP3    H129513   4.076   6.033   0.295  1.0806 -0.3409  0.2549
 2626TIP3    H229514   4.198   6.068   0.379 -0.3261  0.5927  1.9658
 2627TIP3   OH229515   2.288   5.420   1.056 -0.3325 -0.1362  0.0081
 2627TIP3    H129516   2.318   5.366   1.129  0.7164  0.5222  0.0758
 2627TIP3    H229517   2.277   5.507   1.093 -0.1075  0.1313 -0.5380
 2628TIP3   OH229518   4.265   1.900   0.317  0.0342  0.1788  0.0049
 2628TIP3    H129519   4.256   1.807   0.295 -0.4967  0.4399 -0.9436
 2628TIP3    H229520   4.176   1.927   0.342 -0.2579  0.8902 -1.6672
 2629TIP3   OH229521   0.575   0.104   0.122  0.6439 -0.4402  0.1597
 2629TIP3    H129522   0.535   0.191   0.129 -0.3294 -0.7112 -1.6434
 2629TIP3    H229523   0.660   0.120   0.080  0.1716 -0.4183 -0.8030
 2630TIP3   OH229524   4.808   1.146   7.132  0.2458  0.2113 -0.0949
 2630TIP3    H129525   4.758   1.226   7.148  0.5207  0.4270 -0.2948
 2630TIP3    H229526   4.754   1.075   7.168  0.2192  0.5336  0.4997
 2631TIP3   OH229527   0.857   6.728   8.180 -0.1603 -0.3010  0.2271
 2631TIP3    H129528   0.950   6.752   8.178 -0.0223 -0.8039  0.4564
 2631TIP3    H229529   0.839   6.710   8.272 -0.4513 -0.3356  0.1634
 2632TIP3   OH229530   6.167   1.152   7.828 -0.6244 -0.0827  0.3452
 2632TIP3    H129531   6.189   1.190   7.743  0.4501 -1.5310 -0.0746
 2632TIP3    H229532   6.073   1.136   7.824 -0.8474  1.2096  0.0200
 2633TIP3   OH229533   4.123   4.633   0.818 -0.5200  1.0940 -0.1947
 2633TIP3    H129534   4.032   4.616   0.841 -0.1103 -0.9170  0.1887
 2633TIP3    H229535   4.149   4.706   0.874 -1.2811  0.2121  1.3698
 2634TIP3   OH229536   0.465   3.201   8.197  0.8677  0.0603 -0.3057
 2634TIP3    H129537   0.475   3.212   8.103  0.5801 -0.5354 -0.4169
 2634TIP3    H229538   0.516   3.122   8.218  1.5748  0.6364  0.1690
 2635TIP3   OH229539   0.966   6.020   7.449 -0.6782  0.1370 -0.2905
 2635TIP3    H129540   0.990   5.928   7.435  1.4207  0.6908 -0.5716
 2635TIP3    H229541   1.002   6.041   7.535  0.5321  1.2101 -1.0414
 2636TIP3   OH229542   3.458   3.868   1.051 -0.1618 -0.0350 -0.2292
 2636TIP3    H129543   3.460   3.784   1.098  1.4263  0.6131  0.9357
 2636TIP3    H229544   3.485   3.846   0.962 -0.3793 -0.8478 -0.1064
 2637TIP3   OH229545   1.076   1.980   3.061 -0.2862 -0.5683  0.6782
 2637TIP3    H129546   1.002   2.041   3.056  0.1235 -0.1639 -0.8221
 2637TIP3    H229547   1.137   2.022   3.121  0.1011  0.6678 -0.5267
 2638TIP3   OH229548   3.263   4.258   0.398 -0.4279 -0.3250  0.3885
 2638TIP3    H129549   3.189   4.229   0.452 -0.4502  1.0374  1.1097
 2638TIP3    H229550   3.252   4.352   0.391  0.3365 -0.3152 -0.8912
 2639TIP3   OH229551   0.127   2.044   2.560 -0.5087  0.2683 -0.2938
 2639TIP3    H129552   0.150   2.073   2.648 -0.5974  0.2553 -0.2657
 2639TIP3    H229553   0.192   1.977   2.539  0.3952  1.2843 -0.8141
 2640TIP3   OH229554   5.169   5.975   0.566  0.0607  0.8071  0.0093
 2640TIP3    H129555   5.173   6.065   0.532  0.3666  0.6384 -0.4130
 2640TIP3    H229556   5.260   5.954   0.589 -0.2626  1.2509  1.8403
 2641TIP3   OH229557   3.516   1.352   0.229 -0.3265  0.5021 -0.2581
 2641TIP3    H129558   3.598   1.392   0.200  0.7803 -1.9601 -0.7750
 2641TIP3    H229559   3.449   1.392   0.174  0.6618  1.7098 -0.6441
 2642TIP3   OH229560   3.836   0.497   2.322 -0.1343 -0.7978  0.1925
 2642TIP3    H129561   3.863   0.559   2.390 -2.8248  1.1620 -0.3772
 2642TIP3    H229562   3.763   0.449   2.361 -0.4873 -0.9645 -0.6676
 2643TIP3   OH229563   0.154   0.532   8.551  0.1259 -0.3328  0.3756
 2643TIP3    H129564   0.127   0.620   8.576 -0.2717 -0.5761  0.8119
 2643TIP3    H229565   0.240   0.543   8.510 -0.8936  0.5623 -1.6736
 2644TIP3   OH229566   4.294   5.580   1.879  0.0727 -0.0723  0.1547
 2644TIP3    H129567   4.217   5.634   1.858  0.2946  0.8549  1.5855
 2644TIP3    H229568   4.310   5.529   1.800 -1.1508  0.7714 -0.6669
 2645TIP3   OH229569   3.248   0.496   7.681  0.0035 -0.1271 -0.5944
 2645TIP3    H129570   3.260   0.516   7.588  1.6276  0.1866 -0.3624
 2645TIP3    H229571   3.274   0.405   7.689  1.0178  0.1725 -0.2866
 2646TIP3   OH229572   1.470   3.773   1.197 -0.6932  0.0877 -0.3523
 2646TIP3    H129573   1.475   3.694   1.251 -0.9477  0.2939 -0.0172
 2646TIP3    H229574   1.521   3.753   1.119 -0.0762 -0.1184  0.0981
 2647TIP3   OH229575   0.421   3.523   0.583 -0.4354 -0.2801 -0.3355
 2647TIP3    H129576   0.450   3.614   0.581  0.6810 -0.4912  1.9138
 2647TIP3    H229577   0.489   3.475   0.536  0.8058 -0.2761  1.3487
 2648TIP3   OH229578   1.627   3.157   7.474  0.2443 -0.1019 -0.3234
 2648TIP3    H129579   1.626   3.251   7.458  0.7938  0.2775  1.6316
 2648TIP3    H229580   1.548   3.140   7.524 -1.0477 -1.1239 -2.5604
 2649TIP3   OH229581   1.937   1.225   8.418 -0.4582 -0.4609 -0.1968
 2649TIP3    H129582   1.885   1.303   8.433 -0.3616 -0.3706 -0.3334
 2649TIP3    H229583   2.012   1.234   8.477 -1.6830 -1.6262  1.6155
 2650TIP3   OH229584   5.739   4.341   7.483 -0.6418 -0.2476  0.1078
 2650TIP3    H129585   5.721   4.362   7.391 -1.0893  1.1802  0.4876
 2650TIP3    H229586   5.829   4.310   7.483 -0.3651  0.4941 -0.7257
 2651TIP3   OH229587   6.330   2.875   0.533  0.6405  0.2429  0.7110
 2651TIP3    H129588   6.285   2.792   0.547 -0.8131  0.7336 -0.7178
 2651TIP3    H229589   6.346   2.878   0.438  2.6252  0.6583  1.0054
 2652TIP3   OH229590   4.899   2.656   0.844 -0.2990 -0.4715  1.0051
 2652TIP3    H129591   4.988   2.631   0.819 -0.7683  0.3746 -2.0048
 2652TIP3    H229592   4.905   2.748   0.866 -0.7146  0.3384 -1.8174
 2653TIP3   OH229593   4.745   1.766   7.250 -0.7256  0.1411  0.6595
 2653TIP3    H129594   4.784   1.724   7.174 -0.1480 -0.5326  1.3021
 2653TIP3    H229595   4.658   1.794   7.221  0.0395  1.2700 -0.6751
 2654TIP3   OH229596   4.024   5.689   8.497  0.5183  0.2949 -0.1042
 2654TIP3    H129597   4.010   5.753   8.427  0.9343  1.8580  1.1653
 2654TIP3    H229598   3.936   5.665   8.526  0.3407  1.3572  0.2932
 2655TIP3   OH229599   5.487   4.917   7.929 -0.2929  0.0040 -0.9764
 2655TIP3    H129600   5.462   4.994   7.877  1.8152  0.6498 -1.1278
 2655TIP3    H229601   5.570   4.942   7.971 -0.8653 -1.2565  1.0713
 2656TIP3   OH229602   1.440   5.822   1.801 -0.2268  0.2792 -0.0194
 2656TIP3    H129603   1.407   5.806   1.890  3.8408  0.6987  1.8062
 2656TIP3    H229604   1.496   5.746   1.783  1.6984  1.7741 -0.6949
 2657TIP3   OH229605   4.638   5.253   1.152  0.0488  0.3794 -0.5985
 2657TIP3    H129606   4.712   5.282   1.205  0.1722 -1.1427  0.1078
 2657TIP3    H229607   4.674   5.187   1.093 -0.8417 -0.9358  0.2678
 2658TIP3   OH229608   3.910   4.194   7.476  0.0087  0.3684  0.3953
 2658TIP3    H129609   3.817   4.170   7.480 -0.0725  0.7251  0.7041
 2658TIP3    H229610   3.949   4.152   7.552 -0.0496  0.8439  0.6935
 2659TIP3   OH229611   2.384   6.711   1.471 -0.2837  0.5486 -0.0415
 2659TIP3    H129612   2.290   6.711   1.493  0.1577  1.3619  2.0995
 2659TIP3    H229613   2.416   6.795   1.504  1.4903 -0.3615  0.6953
 2660TIP3   OH229614   2.563   4.536   1.039 -0.2860  0.3119 -0.5988
 2660TIP3    H129615   2.615   4.456   1.033 -0.0723  0.5644 -2.8346
 2660TIP3    H229616   2.473   4.507   1.029 -0.4476  0.1308  1.0348
 2661TIP3   OH229617   2.724   4.641   8.200 -0.0269  0.0299 -0.3864
 2661TIP3    H129618   2.663   4.650   8.273  0.2123  0.2858 -0.2192
 2661TIP3    H229619   2.711   4.552   8.169  1.5294 -0.8921  1.4438
 2662TIP3   OH229620   4.199   6.224   3.154 -0.0903 -0.1848 -0.3923
 2662TIP3    H129621   4.232   6.226   3.244  0.1097 -0.3189 -0.4621
 2662TIP3    H229622   4.230   6.306   3.115  0.8687 -0.6780 -0.7045
 2663TIP3   OH229623   2.535   6.229   0.358 -0.2839 -0.2731 -0.4051
 2663TIP3    H129624   2.540   6.187   0.444  1.2619 -1.2441 -0.9388
 2663TIP3    H229625   2.477   6.173   0.307  1.2429 -1.4842 -0.9070
 2664TIP3   OH229626   0.757   1.842   7.996 -0.3640  0.8668  0.1641
 2664TIP3    H129627   0.795   1.758   8.021 -1.1742  0.7829  1.1723
 2664TIP3    H229628   0.751   1.891   8.078 -2.2097  0.9577  0.0138
 2665TIP3   OH229629   3.413   6.516   1.598 -0.2702  0.4266  0.0295
 2665TIP3    H129630   3.354   6.478   1.532 -1.6061  1.2637  0.6935
 2665TIP3    H229631   3.377   6.486   1.681  0.0360  1.2249  0.4586
 2666TIP3   OH229632   3.824   3.262   2.805 -0.4016 -0.0939 -0.2981
 2666TIP3    H129633   3.841   3.315   2.727  0.0458  0.9647  0.4985
 2666TIP3    H229634   3.766   3.316   2.859 -1.4911 -1.2117 -0.3012
 2667TIP3   OH229635   0.177   6.080   2.508 -0.0492 -0.3549  0.1288
 2667TIP3    H129636   0.089   6.044   2.515  0.0760 -0.7641 -0.2804
 2667TIP3    H229637   0.179   6.154   2.569 -0.2556 -1.1781  1.1727
 2668TIP3   OH229638   3.224   4.562   0.414 -0.8645 -0.2320 -0.1451
 2668TIP3    H129639   3.204   4.640   0.364  0.6988  0.7992  0.7654
 2668TIP3    H229640   3.319   4.559   0.419 -0.9184 -1.3482  1.1162
 2669TIP3   OH229641   4.170   1.376   8.323 -0.3346 -0.0054  0.1182
 2669TIP3    H129642   4.138   1.323   8.249 -0.4977  0.0010  0.1835
 2669TIP3    H229643   4.091   1.398   8.372 -0.4386  1.4065 -0.6325
 2670TIP3   OH229644   4.373   5.152   0.476 -0.2947  0.2422 -0.3039
 2670TIP3    H129645   4.361   5.246   0.464 -0.8017  0.0475 -1.4250
 2670TIP3    H229646   4.359   5.114   0.389 -2.8828 -1.1467  0.5875
 2671TIP3   OH229647   2.855   0.077   1.735 -0.0061 -0.9478  0.3615
 2671TIP3    H129648   2.843   0.152   1.794 -1.2907  0.2476 -1.3531
 2671TIP3    H229649   2.842   0.001   1.791  1.5957  0.0350  2.2220
 2672TIP3   OH229650   1.594   4.195   1.082 -0.1844  0.2080 -0.5510
 2672TIP3    H129651   1.636   4.246   1.152 -1.7426  1.7737 -0.6782
 2672TIP3    H229652   1.500   4.204   1.099 -0.6183  0.6540 -2.8564
 2673TIP3   OH229653   3.627   4.086   1.409 -0.3741  0.0238 -0.7257
 2673TIP3    H129654   3.592   3.998   1.395 -0.1026 -0.0482 -0.9730
 2673TIP3    H229655   3.592   4.113   1.494 -1.7395  0.3153 -1.3546
 2674TIP3   OH229656   3.076   6.782   1.296  0.5476 -0.0640 -0.0666
 2674TIP3    H129657   3.133   6.783   1.373 -0.2834  0.5540  0.5651
 2674TIP3    H229658   3.098   6.700   1.251  2.1529  0.3240 -0.0429
 2675TIP3   OH229659   4.323   3.480   7.370 -0.1030  0.2367 -0.0609
 2675TIP3    H129660   4.404   3.526   7.394  1.2473 -1.4602 -1.0649
 2675TIP3    H229661   4.335   3.391   7.404 -1.2565 -0.2174 -0.7767
 2676TIP3   OH229662   2.312   2.108   2.002 -0.4315  0.2928  0.7601
 2676TIP3    H129663   2.361   2.103   2.084  0.9976  2.3272  0.1118
 2676TIP3    H229664   2.379   2.115   1.934 -1.5722 -1.4977 -0.6507
 2677TIP3   OH229665   2.964   0.455   7.285  0.0942 -0.5278 -0.0618
 2677TIP3    H129666   2.994   0.513   7.216  0.4197  2.2462  2.2409
 2677TIP3    H229667   3.033   0.389   7.292  1.4408  0.7802 -0.5152
 2678TIP3   OH229668   0.213   4.634   8.723  0.2842 -0.1843 -0.0657
 2678TIP3    H129669   0.197   4.597   8.810  1.1115  1.1873  0.6994
 2678TIP3    H229670   0.130   4.676   8.699 -0.1317 -1.0610 -0.2251
 2679TIP3   OH229671   3.065   5.886   2.676  0.8891  0.2630  0.0911
 2679TIP3    H129672   3.096   5.795   2.677 -0.2718 -0.1440 -0.1515
 2679TIP3    H229673   3.048   5.906   2.768 -0.4945 -0.3484 -0.0188
 2680TIP3   OH229674   4.026   2.772   8.208 -0.6477 -0.0486  0.2579
 2680TIP3    H129675   3.971   2.698   8.228  0.2132 -1.0440 -0.8787
 2680TIP3    H229676   3.975   2.825   8.147 -1.2052  0.2339  0.9605
 2681TIP3   OH229677   5.414   0.110   7.394  0.0515  0.1719 -0.3009
 2681TIP3    H129678   5.366   0.111   7.311  1.1756  2.6236 -1.0225
 2681TIP3    H229679   5.502   0.079   7.371  0.8617  2.4020 -0.4163
 2682TIP3   OH229680   6.741   1.327   7.402 -0.0794 -0.6158  0.5111
 2682TIP3    H129681   6.687   1.294   7.473 -0.2466 -0.1935  0.5796
 2682TIP3    H229682   6.730   1.262   7.332 -1.3283 -0.1099  0.2243
 2683TIP3   OH229683   1.770   4.752   1.180  0.4694  0.4401  0.3996
 2683TIP3    H129684   1.800   4.833   1.140  1.3726 -1.4226 -3.1362
 2683TIP3    H229685   1.849   4.712   1.216  0.1268  0.8275  1.6146
 2684TIP3   OH229686   3.191   3.185   1.171  0.4271 -0.0595  0.0237
 2684TIP3    H129687   3.248   3.253   1.206 -0.6326  0.9493 -0.1152
 2684TIP3    H229688   3.167   3.218   1.084  1.0826 -1.3442 -0.6648
 2685TIP3   OH229689   5.785   2.397   7.491 -1.0922  0.6313 -0.4099
 2685TIP3    H129690   5.844   2.374   7.563  0.1952  3.1435 -0.5352
 2685TIP3    H229691   5.841   2.399   7.414 -2.5659 -2.6507 -1.7595
 2686TIP3   OH229692   5.466   4.903   1.341 -0.8016 -0.3226  0.1332
 2686TIP3    H129693   5.446   4.995   1.358 -0.0193  0.0036 -0.6116
 2686TIP3    H229694   5.473   4.863   1.427 -0.8915  0.3745  0.4690
 2687TIP3   OH229695   1.116   0.877   1.030  0.2724 -0.5907 -0.5344
 2687TIP3    H129696   1.092   0.968   1.049  1.4674 -0.7674  2.3081
 2687TIP3    H229697   1.109   0.870   0.934  1.4261  2.8675 -1.0257
 2688TIP3   OH229698   3.397   1.819   1.563  0.5356  0.0812  0.3380
 2688TIP3    H129699   3.340   1.791   1.491  0.5286  0.7245  0.0917
 2688TIP3    H229700   3.446   1.893   1.528  0.9054  0.0733  0.8299
 2689TIP3   OH229701   1.524   1.181   7.158 -0.2013 -0.1414 -0.4070
 2689TIP3    H129702   1.578   1.122   7.106  0.0279 -0.1307 -0.1791
 2689TIP3    H229703   1.488   1.127   7.228  1.9158  0.4728  1.2361
 2690TIP3   OH229704   4.604   5.445   0.547 -0.2972 -0.1202  0.0233
 2690TIP3    H129705   4.634   5.389   0.475 -2.5356 -1.0252 -0.3161
 2690TIP3    H229706   4.608   5.389   0.625 -1.1638 -0.3248 -0.0606
 2691TIP3   OH229707   0.473   5.718   8.093 -0.4168 -0.5612  0.6962
 2691TIP3    H129708   0.562   5.689   8.111 -0.5853 -0.6882  1.3472
 2691TIP3    H229709   0.481   5.773   8.015  0.1134 -1.1855  0.3049
 2692TIP3   OH229710   0.813   2.070   1.379  0.4112 -0.4154 -0.1870
 2692TIP3    H129711   0.888   2.103   1.428  0.7985 -2.2096  0.4965
 2692TIP3    H229712   0.737   2.092   1.433  0.5862 -0.0490 -0.0860
 2693TIP3   OH229713   2.601   2.927   1.889  0.0334  0.2684 -0.0285
 2693TIP3    H129714   2.527   2.867   1.896 -0.0228  0.3658  0.2551
 2693TIP3    H229715   2.651   2.896   1.814  0.3798 -0.5432  0.5268
 2694TIP3   OH229716   0.194   6.257   2.271 -0.5205 -0.5197 -0.4695
 2694TIP3    H129717   0.185   6.214   2.356  0.1294  2.1706  1.0878
 2694TIP3    H229718   0.286   6.242   2.247 -0.1817  0.2783  0.2689
 2695TIP3   OH229719   6.361   0.196   7.894  0.0866  0.0136  1.2675
 2695TIP3    H129720   6.284   0.143   7.918 -1.1071  0.3904 -1.3760
 2695TIP3    H229721   6.431   0.132   7.882 -1.2192 -1.0582 -1.4519
 2696TIP3   OH229722   2.237   6.618   0.271 -0.2233 -0.4827  0.0792
 2696TIP3    H129723   2.301   6.687   0.258 -1.0732  0.5723  1.2344
 2696TIP3    H229724   2.258   6.552   0.205  0.8036  0.7315 -0.8469
 2697TIP3   OH229725   4.978   0.073   8.463  0.6163 -0.1227 -0.0291
 2697TIP3    H129726   4.986  -0.014   8.425 -0.3485  0.9847 -3.1060
 2697TIP3    H229727   4.887   0.077   8.494  0.6641 -0.2086  0.1231
 2698TIP3   OH229728   0.249   2.058   0.623 -0.2349  0.8421 -0.3931
 2698TIP3    H129729   0.304   2.055   0.702  0.7432 -0.0403 -1.0747
 2698TIP3    H229730   0.169   2.012   0.648 -0.7621  2.2292  0.6471
 2699TIP3   OH229731   0.117   1.238   8.629  0.1893 -0.1598  0.1511
 2699TIP3    H129732   0.177   1.246   8.703  0.9846 -2.8167 -0.0944
 2699TIP3    H229733   0.149   1.302   8.565  2.1459 -0.7788  0.4422
 2700TIP3   OH229734   1.749   0.226   0.356 -0.4478  0.3598  0.4086
 2700TIP3    H129735   1.683   0.262   0.298 -1.3460 -1.5515  0.1645
 2700TIP3    H229736   1.738   0.131   0.349  2.6915 -0.0884 -0.0694
 2701TIP3   OH229737   1.343   1.959   8.633  0.6574 -0.2840  0.2796
 2701TIP3    H129738   1.428   1.915   8.642  0.8596  0.0697  0.1093
 2701TIP3    H229739   1.348   2.034   8.693  0.4046 -0.3514  0.3879
 2702TIP3   OH229740   1.562   0.074   1.604 -0.0641 -0.0839 -0.3738
 2702TIP3    H129741   1.592   0.126   1.530 -0.5384  1.4133  0.4590
 2702TIP3    H229742   1.483   0.118   1.634  0.1695 -0.6042  1.0831
 2703TIP3   OH229743   2.445   1.602   0.292  0.6050 -0.6525  0.6307
 2703TIP3    H129744   2.408   1.651   0.366 -0.4495 -0.4324 -0.0247
 2703TIP3    H229745   2.475   1.670   0.231  0.0185 -0.8138  0.1528
 2704TIP3   OH229746   6.036   1.518   1.495 -0.1761  0.0615  0.2291
 2704TIP3    H129747   6.009   1.458   1.565 -0.8944 -0.2192 -0.2806
 2704TIP3    H229748   6.130   1.503   1.486  0.1144  0.7669  1.7555
 2705TIP3   OH229749   5.662   6.283   0.691 -0.7341 -0.1219 -0.4819
 2705TIP3    H129750   5.631   6.264   0.779  0.7791 -0.8323 -0.0710
 2705TIP3    H229751   5.737   6.225   0.679 -1.2679 -0.4624 -2.4694
 2706TIP3   OH229752   6.422   0.442   8.462  0.2980  0.2428 -0.2138
 2706TIP3    H129753   6.342   0.425   8.413  0.0140 -3.1744  1.1597
 2706TIP3    H229754   6.490   0.398   8.411  0.5549 -0.4193  0.6694
 2707TIP3   OH229755   3.222   4.915   8.612 -0.3796 -0.3054  0.0627
 2707TIP3    H129756   3.232   4.976   8.685  0.0343  1.2495 -1.2186
 2707TIP3    H229757   3.300   4.860   8.616 -0.4609 -0.3692  0.8974
 2708TIP3   OH229758   3.098   5.663   1.169  0.0912 -0.1276 -0.4360
 2708TIP3    H129759   3.178   5.702   1.205 -0.4292  0.9654 -0.4143
 2708TIP3    H229760   3.077   5.719   1.094  0.3965 -1.5595 -1.6271
 2709TIP3   OH229761   2.999   6.357   6.952 -0.3029  0.1496 -0.1809
 2709TIP3    H129762   2.956   6.441   6.967 -0.6130  0.2294 -1.4159
 2709TIP3    H229763   2.928   6.294   6.945 -0.0489 -0.3536  1.3772
 2710TIP3   OH229764   1.243   1.045   7.275  0.1454  0.2859 -0.1615
 2710TIP3    H129765   1.228   0.964   7.323  1.3139 -0.0197 -0.2812
 2710TIP3    H229766   1.240   1.113   7.342 -0.2099  0.0758  0.0387
 2711TIP3   OH229767   2.666   1.255   8.394 -0.3633  0.0494  0.9516
 2711TIP3    H129768   2.690   1.307   8.318 -2.8173 -0.8164 -0.5584
 2711TIP3    H229769   2.722   1.178   8.389  1.8675  1.5099  2.0518
 2712TIP3   OH229770   5.997   4.377   7.809  0.2866 -0.6242  0.2091
 2712TIP3    H129771   5.992   4.331   7.725 -1.5738 -0.2850  0.0747
 2712TIP3    H229772   6.029   4.464   7.787 -0.1577 -0.5467 -0.1612
 2713TIP3   OH229773   5.530   3.882   0.554 -0.1076  0.3944 -0.3769
 2713TIP3    H129774   5.505   3.875   0.462  2.0350 -0.1636 -0.9707
 2713TIP3    H229775   5.597   3.950   0.556  1.3760 -1.0212  0.3962
 2714TIP3   OH229776   1.594   3.565   0.718  0.6290 -0.0960 -0.0884
 2714TIP3    H129777   1.600   3.633   0.650 -0.4336  1.0727  0.9382
 2714TIP3    H229778   1.685   3.537   0.732  1.1901  1.6414 -0.0363
 2715TIP3   OH229779   3.900   1.826   1.030 -0.2813 -0.2563  0.3291
 2715TIP3    H129780   3.859   1.740   1.025 -1.8819  0.5036 -0.1909
 2715TIP3    H229781   3.853   1.872   1.100  2.0698 -0.5275  2.2322
 2716TIP3   OH229782   0.712   5.628   1.861 -0.0308  0.5197  0.2521
 2716TIP3    H129783   0.774   5.666   1.924  0.2028  0.7314 -0.0970
 2716TIP3    H229784   0.628   5.669   1.881  0.1411  0.9505  0.1250
 2717TIP3   OH229785   1.401   2.767   7.625  0.0314 -0.3112  0.1063
 2717TIP3    H129786   1.461   2.801   7.558 -1.0285  0.2940 -0.5578
 2717TIP3    H229787   1.319   2.813   7.609 -0.0670  0.3694  2.2744
 2718TIP3   OH229788   5.666   3.263   2.601  0.0122  0.3089  0.8280
 2718TIP3    H129789   5.637   3.216   2.679 -0.2220  0.9335  1.1226
 2718TIP3    H229790   5.751   3.299   2.625  1.1646 -1.6524 -0.0874
 2719TIP3   OH229791   6.065   1.096   0.349  0.2813 -0.0449 -0.1661
 2719TIP3    H129792   5.984   1.061   0.384  0.9229 -3.6654 -1.8639
 2719TIP3    H229793   6.130   1.082   0.418  0.0668 -0.0701  0.0271
 2720TIP3   OH229794   1.140   5.686   1.109 -1.1725 -0.4363  0.7605
 2720TIP3    H129795   1.163   5.692   1.202 -0.8779  0.5179  0.6351
 2720TIP3    H229796   1.189   5.611   1.077  1.1229  0.9754  0.7115
 2721TIP3   OH229797   6.728   6.368   2.405 -0.0589  0.2177 -0.0737
 2721TIP3    H129798   6.800   6.432   2.411 -2.1369  2.6054  2.1961
 2721TIP3    H229799   6.752   6.299   2.467  0.1023  1.2679  1.0781
 2722TIP3   OH229800   4.844   3.047   2.388 -0.1207  0.4680 -0.4586
 2722TIP3    H129801   4.841   2.963   2.433 -3.9883  0.6393 -0.0954
 2722TIP3    H229802   4.778   3.041   2.319  1.4359  2.3181 -2.2484
 2723TIP3   OH229803   2.729   2.269   8.068 -0.5041  0.6160  0.3511
 2723TIP3    H129804   2.745   2.291   7.976 -0.7990  0.3109  0.2272
 2723TIP3    H229805   2.807   2.301   8.113 -0.9039  1.9047  0.1759
 2724TIP3   OH229806   2.498   6.207   8.213 -0.0120  0.0913  0.0883
 2724TIP3    H129807   2.448   6.285   8.189 -0.6487 -0.0133  0.9956
 2724TIP3    H229808   2.440   6.159   8.273  0.9015 -0.3859  0.6221
 2725TIP3   OH229809   2.407   0.183   8.743 -0.4939 -0.5874  0.3080
 2725TIP3    H129810   2.447   0.261   8.782 -1.6415  0.6349 -0.8592
 2725TIP3    H229811   2.316   0.209   8.727 -0.3634 -1.4064 -2.0934
 2726TIP3   OH229812   1.966   6.222   0.667  0.2288  0.5757 -0.6473
 2726TIP3    H129813   1.963   6.176   0.583 -0.5779  0.0652 -0.3591
 2726TIP3    H229814   1.937   6.311   0.647 -3.6314 -0.4450 -0.4021
 2727TIP3   OH229815   5.216   5.998   0.270 -0.3574  0.8765  0.0659
 2727TIP3    H129816   5.126   5.974   0.290 -0.2869  0.6026  0.0589
 2727TIP3    H229817   5.237   6.068   0.332 -1.1639  2.2180 -1.1035
 2728TIP3   OH229818   0.002   6.172   0.136  0.9753  0.0904 -0.1724
 2728TIP3    H129819   0.017   6.087   0.093 -1.3255 -0.9349  0.8594
 2728TIP3    H229820   0.046   6.164   0.221  2.8445  0.9369 -0.9904
 2729TIP3   OH229821   2.510   6.644   7.290  0.5103  0.5159 -0.1749
 2729TIP3    H129822   2.443   6.693   7.242  0.3614  0.6576  0.1759
 2729TIP3    H229823   2.538   6.576   7.229 -0.4746 -0.0006 -0.0622
 2730TIP3   OH229824   0.945   0.840   2.329  0.0003 -0.3454 -0.3055
 2730TIP3    H129825   1.026   0.888   2.308 -0.0744  0.4285  1.0376
 2730TIP3    H229826   0.955   0.816   2.421 -0.8929 -1.0756 -0.3917
 2731TIP3   OH229827   0.106   2.434   1.580  0.3956 -0.1656  0.7369
 2731TIP3    H129828   0.085   2.432   1.673 -2.8441  0.8988  0.1715
 2731TIP3    H229829   0.029   2.394   1.537  1.0051  0.9353 -1.5423
 2732TIP3   OH229830   1.192   2.700   2.536 -0.4512  0.2856  0.1081
 2732TIP3    H129831   1.217   2.663   2.621 -0.3147 -0.3293 -0.1919
 2732TIP3    H229832   1.229   2.789   2.537  0.2113  0.0115  0.3849
 2733TIP3   OH229833   5.733   2.960   1.335  0.4683  0.3676 -0.1950
 2733TIP3    H129834   5.674   2.886   1.326 -0.6008  1.0685  0.7744
 2733TIP3    H229835   5.783   2.942   1.415  2.2795 -0.6688 -1.4943
 2734TIP3   OH229836   3.774   2.068   1.655  0.0418 -0.1251  0.0362
 2734TIP3    H129837   3.865   2.084   1.682  0.0526  2.7339 -1.3067
 2734TIP3    H229838   3.751   2.144   1.602 -3.3094 -0.5698  0.6354
 2735TIP3   OH229839   1.908   5.554   1.807  0.1907 -0.1569 -0.1809
 2735TIP3    H129840   1.871   5.546   1.720  0.5406  2.9893 -0.7402
 2735TIP3    H229841   1.838   5.525   1.866 -1.7882  1.8749 -1.3803
 2736TIP3   OH229842   5.688   5.867   8.694  0.4455  0.2969  0.3174
 2736TIP3    H129843   5.749   5.824   8.634  0.0138 -0.6507  0.5301
 2736TIP3    H229844   5.607   5.874   8.645  0.0631 -0.5634  0.7957
 2737TIP3   OH229845   5.432   1.905   0.998 -0.5023 -0.3028 -0.0007
 2737TIP3    H129846   5.406   1.966   0.929 -1.5692 -0.7188  0.0052
 2737TIP3    H229847   5.374   1.925   1.071 -0.0866 -0.5646  0.4056
 2738TIP3   OH229848   0.679   6.088   1.025  0.4230  0.1025 -0.3622
 2738TIP3    H129849   0.698   5.995   1.030  0.4585  0.0387 -1.4874
 2738TIP3    H229850   0.707   6.123   1.110  0.4200 -0.9009  0.0568
 2739TIP3   OH229851   2.722   0.797   1.795 -0.2572 -0.0265 -1.1376
 2739TIP3    H129852   2.784   0.863   1.823 -2.5478  2.3426 -1.2725
 2739TIP3    H229853   2.651   0.846   1.753 -1.3901 -2.7034 -2.6253
 2740TIP3   OH229854   4.288   6.303   7.160  0.3502 -0.0356  0.2077
 2740TIP3    H129855   4.242   6.284   7.242  0.0553 -1.4838 -0.2801
 2740TIP3    H229856   4.223   6.291   7.092  1.6670 -3.6200 -0.6439
 2741TIP3   OH229857   4.384   6.725   2.982 -0.2944 -0.2051  0.1678
 2741TIP3    H129858   4.398   6.711   2.888  1.6929  0.1548  0.3738
 2741TIP3    H229859   4.429   6.651   3.024 -1.7293 -0.7259  0.8388
 2742TIP3   OH229860   3.683   4.447   2.148  0.5005  0.1538 -0.3051
 2742TIP3    H129861   3.735   4.419   2.224  0.6947  0.9798 -0.1257
 2742TIP3    H229862   3.599   4.403   2.159  0.2517  0.8658  0.8109
 2743TIP3   OH229863   2.939   6.732   2.773  0.5098 -0.1395 -0.9158
 2743TIP3    H129864   2.866   6.717   2.833 -0.5082  1.5507 -1.6687
 2743TIP3    H229865   2.976   6.645   2.760 -1.0510 -0.9854 -0.1103
 2744TIP3   OH229866   0.706   1.551   0.081 -0.5405 -0.2017 -0.3952
 2744TIP3    H129867   0.710   1.627   0.139  0.6740 -0.1588 -0.5207
 2744TIP3    H229868   0.733   1.585  -0.004 -0.1081 -0.7411 -0.4801
 2745TIP3   OH229869   4.688   3.356   2.651 -0.4883  0.6605  0.3555
 2745TIP3    H129870   4.632   3.300   2.704 -0.2315  1.7846  1.8834
 2745TIP3    H229871   4.680   3.443   2.690  0.1751  1.4234 -1.1100
 2746TIP3   OH229872   1.927   5.476   0.093 -0.0303  0.7080 -0.4523
 2746TIP3    H129873   2.016   5.509   0.109  0.1055 -0.2957  1.1145
 2746TIP3    H229874   1.893   5.532   0.024  2.5489 -0.1530 -2.6312
 2747TIP3   OH229875   2.535   3.814   7.386  0.2145  0.4674  0.1264
 2747TIP3    H129876   2.590   3.891   7.371  0.4647  0.3776  0.5698
 2747TIP3    H229877   2.557   3.785   7.474  0.6726 -0.5565 -0.3030
 2748TIP3   OH229878   1.067   4.809   7.671 -0.5392  0.2479  0.0808
 2748TIP3    H129879   1.126   4.853   7.611  1.3560 -0.5922  1.2283
 2748TIP3    H229880   1.042   4.728   7.626 -3.7152  2.1091 -1.8624
 2749TIP3   OH229881   2.983   1.875   7.849  0.1658 -0.3058 -0.1305
 2749TIP3    H129882   3.060   1.875   7.906  1.3781  1.5910 -1.6288
 2749TIP3    H229883   2.974   1.784   7.820 -0.3801 -1.2899  2.8304
 2750TIP3   OH229884   6.039   0.819   1.590  0.2904 -0.1527 -0.3020
 2750TIP3    H129885   6.100   0.859   1.528  1.1031  0.2004  0.6986
 2750TIP3    H229886   6.014   0.890   1.649  1.8455 -1.0406  1.5693
 2751TIP3   OH229887   1.745   0.135   0.024 -0.3793 -0.7857  0.2238
 2751TIP3    H129888   1.691   0.057   0.010  0.9143 -1.3880 -1.7565
 2751TIP3    H229889   1.827   0.101   0.060  0.1951 -0.3697 -0.6667
 2752TIP3   OH229890   1.638   5.342   1.725 -0.3098  0.6097 -0.4509
 2752TIP3    H129891   1.700   5.369   1.658  0.1086  1.1658  0.1552
 2752TIP3    H229892   1.689   5.286   1.784 -0.1008  1.8710  0.6086
 2753TIP3   OH229893   5.054   4.419   8.594 -0.5330 -0.7654  0.3877
 2753TIP3    H129894   5.052   4.441   8.501 -0.1847 -1.1235  0.2940
 2753TIP3    H229895   5.080   4.500   8.637 -0.9778 -0.5191  0.1998
 2754TIP3   OH229896   5.893   5.459   0.768 -0.4877 -0.9768  0.2341
 2754TIP3    H129897   5.930   5.384   0.814 -0.6695 -1.5054 -0.4632
 2754TIP3    H229898   5.895   5.530   0.833 -1.1463 -1.8053  1.2039
 2755TIP3   OH229899   4.148   5.849   2.113 -0.0640  0.3363  0.7071
 2755TIP3    H129900   4.101   5.898   2.045  1.4642  0.6951 -0.1327
 2755TIP3    H229901   4.095   5.771   2.128 -1.7036  1.4389  0.8891
 2756TIP3   OH229902   2.911   3.962   6.856 -0.4374  0.6051  0.0831
 2756TIP3    H129903   2.952   4.047   6.866 -0.0849  0.6370 -1.3805
 2756TIP3    H229904   2.844   3.959   6.924  0.5190  1.4391  1.0972
 2757TIP3   OH229905   3.354   1.536   0.769  0.1909  0.0854  0.2085
 2757TIP3    H129906   3.337   1.578   0.685  0.9734  0.8929  0.4458
 2757TIP3    H229907   3.365   1.443   0.747 -0.9426  0.0730 -0.3932
 2758TIP3   OH229908   2.825   1.451   6.783 -0.2574 -0.1216  0.1144
 2758TIP3    H129909   2.736   1.426   6.808 -1.1574 -0.5237 -2.9601
 2758TIP3    H229910   2.816   1.482   6.693  2.6527  0.3952 -0.0985
 2759TIP3   OH229911   3.431   2.886   8.169  0.5221 -0.5246  0.2919
 2759TIP3    H129912   3.415   2.838   8.087  0.1194 -1.4224  0.8777
 2759TIP3    H229913   3.452   2.975   8.141 -0.2156 -0.6623 -0.7661
 2760TIP3   OH229914   0.895   1.042   1.476 -0.0789 -0.6567 -0.1171
 2760TIP3    H129915   0.920   1.029   1.384  1.3146 -1.2809  0.3218
 2760TIP3    H229916   0.974   1.076   1.518 -0.7752 -0.1444  0.8062
 2761TIP3   OH229917   5.877   5.431   7.907  0.3114  0.4916  0.4202
 2761TIP3    H129918   5.944   5.391   7.852 -0.2867 -1.0337  0.7681
 2761TIP3    H229919   5.795   5.389   7.880 -0.6996  2.9232 -0.6129
 2762TIP3   OH229920   1.332   0.835   7.793  0.8382 -0.3257  0.2901
 2762TIP3    H129921   1.336   0.906   7.857  2.1435  0.8642 -1.0308
 2762TIP3    H229922   1.412   0.786   7.806  1.0775 -0.1213 -0.3551
 2763TIP3   OH229923   0.767   5.157   1.027 -0.1035  0.2991 -1.3345
 2763TIP3    H129924   0.721   5.144   1.111  0.5511 -2.2138 -1.2725
 2763TIP3    H229925   0.856   5.180   1.052  0.0658 -0.3493 -1.3290
 2764TIP3   OH229926   1.868   6.448   1.069 -0.3368  0.4010 -0.0856
 2764TIP3    H129927   1.892   6.355   1.067  1.4275  0.7818  1.1199
 2764TIP3    H229928   1.940   6.492   1.023 -0.1883  1.3252  0.9942
 2765TIP3   OH229929   3.649   6.276   1.901 -0.7401  0.4791  0.0458
 2765TIP3    H129930   3.721   6.217   1.923 -0.0385  1.6952  1.1375
 2765TIP3    H229931   3.647   6.277   1.805 -0.3362 -0.7685  0.0052
 2766TIP3   OH229932   1.059   5.932   1.321  0.5092  0.0248 -0.1563
 2766TIP3    H129933   1.018   5.943   1.406 -0.7245  0.3291 -0.7689
 2766TIP3    H229934   1.111   5.851   1.330  0.9003  0.3856  1.0479
 2767TIP3   OH229935   6.559   2.549   8.053 -0.1395 -0.0745  0.0900
 2767TIP3    H129936   6.502   2.481   8.017  0.6552 -0.8523  0.2699
 2767TIP3    H229937   6.648   2.517   8.037  0.2589  1.2031 -0.3423
 2768TIP3   OH229938   5.551   1.221   8.316  0.4896  0.3943 -0.4107
 2768TIP3    H129939   5.500   1.148   8.352 -0.3705  1.1564 -0.0506
 2768TIP3    H229940   5.492   1.265   8.255  1.1314  0.5650 -0.9210
 2769TIP3   OH229941   1.735   3.091   8.595  0.2891  0.5614  0.1101
 2769TIP3    H129942   1.820   3.114   8.556  1.1160 -0.5299  1.1691
 2769TIP3    H229943   1.674   3.156   8.560  1.6523  1.6658 -0.3255
 2770TIP3   OH229944   1.201   1.257   2.057 -0.3222 -0.1319  0.1697
 2770TIP3    H129945   1.126   1.237   2.113  0.7057 -3.0841  0.6776
 2770TIP3    H229946   1.277   1.227   2.107  0.9573  0.3168 -1.4184
 2771TIP3   OH229947   5.115   4.421   1.447  0.5338  0.3373  0.0280
 2771TIP3    H129948   5.092   4.335   1.411 -0.0825  0.2860  0.5281
 2771TIP3    H229949   5.105   4.411   1.542  1.6334  0.6194  0.1916
 2772TIP3   OH229950   4.964   6.550   0.631 -0.0948 -0.0032  0.1801
 2772TIP3    H129951   4.999   6.595   0.554 -0.0374  1.3323  0.9569
 2772TIP3    H229952   5.032   6.558   0.697 -0.4504 -0.4727  0.6108
 2773TIP3   OH229953   5.492   0.582   7.282 -0.8611  0.0892  0.3512
 2773TIP3    H129954   5.417   0.622   7.239 -1.3963  0.1703  1.3350
 2773TIP3    H229955   5.567   0.609   7.229 -1.5614 -0.3481 -0.8792
 2774TIP3   OH229956   0.174   2.162   8.794 -0.2718  0.6471  0.0876
 2774TIP3    H129957   0.167   2.240   8.739 -1.4050 -0.1915 -1.0035
 2774TIP3    H229958   0.167   2.089   8.733  0.2165 -0.3205  1.1597
 2775TIP3   OH229959   5.042   3.681   1.537 -0.4752  0.2954 -0.4008
 2775TIP3    H129960   5.048   3.598   1.584 -0.8426 -0.5755 -1.8440
 2775TIP3    H229961   5.052   3.748   1.605 -0.9949 -0.9140  0.9026
 2776TIP3   OH229962   0.477   5.261   0.148  0.3466  0.1943  0.3208
 2776TIP3    H129963   0.434   5.287   0.066  0.9789  0.0110 -0.0697
 2776TIP3    H229964   0.511   5.343   0.184 -2.7271  0.8843  2.1046
 2777TIP3   OH229965   0.294   4.571   3.078 -0.8875  0.0357 -0.3444
 2777TIP3    H129966   0.304   4.634   3.149  1.1318  1.1445 -1.5263
 2777TIP3    H229967   0.249   4.620   3.009  0.5286  0.1735 -1.2016
 2778TIP3   OH229968   0.237   0.116   2.179  0.3070  0.0883  0.0211
 2778TIP3    H129969   0.237   0.066   2.098  1.9933 -0.1485  0.1271
 2778TIP3    H229970   0.268   0.055   2.246  0.0651  0.6035  0.6154
 2779TIP3   OH229971   2.568   0.808   0.453  0.2363 -0.0720  0.9176
 2779TIP3    H129972   2.548   0.813   0.359  0.2208 -1.2311  0.8432
 2779TIP3    H229973   2.486   0.833   0.496 -0.3400 -1.3281  0.6077
 2780TIP3   OH229974   4.083   2.058   1.938  0.3036 -0.0824 -0.0810
 2780TIP3    H129975   4.059   2.136   1.887 -2.4789 -0.8752 -0.1848
 2780TIP3    H229976   3.999   2.024   1.970  1.6067 -1.9415  1.6181
 2781TIP3   OH229977   6.511   0.167   8.669  0.4964 -0.7154  0.5752
 2781TIP3    H129978   6.428   0.132   8.636  0.4032 -0.5407  0.6210
 2781TIP3    H229979   6.554   0.092   8.710  1.5420 -1.4500 -1.6970
 2782TIP3   OH229980   2.346   6.098   1.636 -0.1851  0.4078  0.3345
 2782TIP3    H129981   2.440   6.095   1.652 -0.1220  1.1629  0.1817
 2782TIP3    H229982   2.338   6.133   1.547 -0.5974 -0.3924  0.0464
 2783TIP3   OH229983   5.520   3.559   8.329 -0.4226 -0.6023 -0.0621
 2783TIP3    H129984   5.481   3.642   8.355 -1.0399 -0.7934 -0.3459
 2783TIP3    H229985   5.602   3.554   8.378 -1.5325 -0.9647  1.8348
 2784TIP3   OH229986   5.492   6.319   2.049  0.1651 -0.0083  0.0326
 2784TIP3    H129987   5.411   6.353   2.088  0.9064  1.5687  0.2544
 2784TIP3    H229988   5.465   6.238   2.006 -1.2182 -0.3425  1.4528
 2785TIP3   OH229989   2.871   5.451   7.727  0.5889  0.2170 -0.1665
 2785TIP3    H129990   2.831   5.438   7.641  1.5198  0.5921 -0.6739
 2785TIP3    H229991   2.945   5.510   7.710  0.9269  0.1070  0.8534
 2786TIP3   OH229992   5.446   1.614   2.546  0.0230 -0.3494 -0.1663
 2786TIP3    H129993   5.387   1.661   2.487 -0.2218  1.2160  1.2569
 2786TIP3    H229994   5.387   1.573   2.610  0.4310  0.6341  0.8506
 2787TIP3   OH229995   2.009   1.861   0.939 -0.1623 -0.0765 -0.9707
 2787TIP3    H129996   2.104   1.858   0.925  0.0079  0.1965  0.0308
 2787TIP3    H229997   1.975   1.790   0.884  0.9559 -2.3252  1.0279
 2788TIP3   OH229998   6.824   4.242   1.791  0.9958  0.1319 -0.0773
 2788TIP3    H129999   6.869   4.325   1.779  0.7583  0.3760  0.6928
 2788TIP3    H230000   6.757   4.259   1.856 -1.7314  0.3242 -2.7155
 2789TIP3   OH230001   1.345   0.673   0.984 -0.1975 -0.0881  0.0404
 2789TIP3    H130002   1.406   0.746   0.970  1.6050 -0.9358  2.7094
 2789TIP3    H230003   1.259   0.714   0.990  0.5493  1.6083 -0.2179
 2790TIP3   OH230004   1.831   1.878   0.277  0.5538  0.1795  0.1468
 2790TIP3    H130005   1.898   1.886   0.209  1.8213  1.1488  1.4416
 2790TIP3    H230006   1.765   1.820   0.240  1.2336  0.6382 -1.8676
 2791TIP3   OH230007   1.377   5.730   8.141 -0.0848  0.1442 -0.4959
 2791TIP3    H130008   1.446   5.683   8.094  0.1550  1.0416 -1.0497
 2791TIP3    H230009   1.359   5.807   8.087  0.6260  1.5434  1.1994
 2792TIP3   OH230010   5.568   6.230   2.466 -0.0224  0.0545 -0.0602
 2792TIP3    H130011   5.584   6.230   2.561 -0.1923 -1.1333 -0.0141
 2792TIP3    H230012   5.650   6.200   2.428 -0.5042 -1.2065 -0.1525
 2793TIP3   OH230013   0.409   3.484   6.614 -0.6980  0.6838  0.3447
 2793TIP3    H130014   0.484   3.541   6.600 -0.0860  0.2230  1.5480
 2793TIP3    H230015   0.362   3.523   6.688  0.6125 -1.1577  2.2530
 2794TIP3   OH230016   5.344   5.767   0.425 -0.6225  0.5551  0.2271
 2794TIP3    H130017   5.302   5.847   0.395 -0.8523  0.2285 -0.3427
 2794TIP3    H230018   5.284   5.697   0.400  0.1274  0.0994 -0.3711
 2795TIP3   OH230019   5.323   1.359   2.214 -0.0513 -0.0697 -0.1162
 2795TIP3    H130020   5.391   1.294   2.197  0.5291  0.4624  0.1424
 2795TIP3    H230021   5.285   1.332   2.298  0.7005  0.3470  0.3674
 2796TIP3   OH230022   2.617   1.120   2.203  0.0371 -0.5236  0.1322
 2796TIP3    H130023   2.682   1.063   2.245  0.0879  0.3878  1.3619
 2796TIP3    H230024   2.533   1.080   2.225 -0.0141  0.5510  2.2221
 2797TIP3   OH230025   6.823   4.346   8.254  0.3108 -0.2233 -0.2041
 2797TIP3    H130026   6.785   4.268   8.294 -0.2922  0.2154  0.1036
 2797TIP3    H230027   6.835   4.323   8.162  0.1978 -0.6980 -0.0996
 2798TIP3   OH230028   0.765   2.302   7.221  0.0224 -0.3725 -0.2718
 2798TIP3    H130029   0.771   2.207   7.226 -1.9661 -0.4865  1.1931
 2798TIP3    H230030   0.743   2.320   7.130 -0.0105 -1.3624 -0.4668
 2799TIP3   OH230031   5.315   0.870   6.934  0.8224 -0.3636 -0.0121
 2799TIP3    H130032   5.224   0.841   6.941  0.3765  1.3091  1.7435
 2799TIP3    H230033   5.362   0.791   6.907 -0.8549 -1.7769  0.9227
 2800TIP3   OH230034   1.586   1.199   8.294  0.1057 -0.0150 -0.2449
 2800TIP3    H130035   1.643   1.260   8.246  1.0005 -1.1474 -0.6607
 2800TIP3    H230036   1.566   1.130   8.231 -1.7959  0.3681 -0.1152
 2801TIP3   OH230037   2.715   6.335   1.419 -0.1778 -0.1444 -0.1411
 2801TIP3    H130038   2.671   6.262   1.375  0.1115 -0.0860 -0.5330
 2801TIP3    H230039   2.769   6.374   1.351  0.4597 -0.1962  0.3346
 2802TIP3   OH230040   0.874   0.814   7.906  0.7180  0.4204 -0.0565
 2802TIP3    H130041   0.794   0.838   7.858  0.7745  1.8078  0.4854
 2802TIP3    H230042   0.929   0.893   7.901  0.9270  0.4237  1.8444
 2803TIP3   OH230043   1.302   1.355   8.723  0.5488  0.0819  0.3540
 2803TIP3    H130044   1.292   1.422   8.655  1.7755 -0.6520 -0.5801
 2803TIP3    H230045   1.258   1.392   8.799  0.3341  1.5175 -0.4301
 2804TIP3   OH230046   2.781   5.267   0.852  0.2100 -0.4770  0.1041
 2804TIP3    H130047   2.840   5.223   0.913  0.1465  1.4430  1.6321
 2804TIP3    H230048   2.835   5.331   0.807  0.0290 -1.1794 -1.1716
 2805TIP3   OH230049   0.564   3.930   1.821  0.3033 -0.1922  0.2835
 2805TIP3    H130050   0.471   3.907   1.826  0.4408 -1.1366 -0.9376
 2805TIP3    H230051   0.578   3.989   1.895 -1.1566 -0.4108  0.7746
 2806TIP3   OH230052   2.384   3.750   7.659  0.3160 -0.2579  0.1243
 2806TIP3    H130053   2.328   3.753   7.582 -1.0121  0.0492  1.0602
 2806TIP3    H230054   2.364   3.666   7.700 -1.2129  0.7895  1.6737
 2807TIP3   OH230055   2.236   2.314   6.915 -0.0504  0.0598  0.1228
 2807TIP3    H130056   2.175   2.270   6.854 -0.1488 -0.8172  0.8213
 2807TIP3    H230057   2.300   2.357   6.859 -0.4422 -0.2956 -0.6090
 2808TIP3   OH230058   5.794   3.900   7.213 -0.2524 -0.3532 -0.2597
 2808TIP3    H130059   5.752   3.983   7.238 -0.0264  0.5823 -2.7401
 2808TIP3    H230060   5.871   3.926   7.162  0.8155 -2.1030  0.3659
 2809TIP3   OH230061   5.817   0.954   2.768 -0.0400  0.4656  0.1202
 2809TIP3    H130062   5.787   0.987   2.683 -0.8960 -0.4960  0.0267
 2809TIP3    H230063   5.912   0.952   2.760 -0.1342 -0.2130 -1.0572
 2810TIP3   OH230064   4.004   2.390   1.481 -0.4547  0.2207  0.5382
 2810TIP3    H130065   3.910   2.407   1.488 -0.4608  0.7547 -0.5622
 2810TIP3    H230066   4.010   2.308   1.432 -0.3448 -0.1823  1.2120
 2811TIP3   OH230067   1.701   3.636   2.797 -0.0781  0.1056  0.4809
 2811TIP3    H130068   1.792   3.650   2.823 -0.7341  1.9683  2.0241
 2811TIP3    H230069   1.696   3.542   2.778  2.5827  0.2744 -1.6534
 2812TIP3   OH230070   3.446   3.459   2.555  0.1609 -0.2467 -0.6566
 2812TIP3    H130071   3.420   3.542   2.514 -0.7425 -0.8067 -1.2358
 2812TIP3    H230072   3.399   3.392   2.506  1.1989 -1.1477 -0.4537
 2813TIP3   OH230073   6.083   3.259   8.385  0.0346  0.2401 -0.3335
 2813TIP3    H130074   6.051   3.274   8.474 -2.3778 -0.5514 -0.9903
 2813TIP3    H230075   6.097   3.347   8.350 -0.5011  0.5954  0.3267
 2814TIP3   OH230076   5.379   1.059   0.134 -0.1745 -0.6657  0.2030
 2814TIP3    H130077   5.337   0.996   0.193 -0.6571 -2.8583 -2.2778
 2814TIP3    H230078   5.307   1.110   0.099 -0.2623 -1.4122 -0.7215
 2815TIP3   OH230079   1.087   6.245   0.121  0.6997  0.0466 -0.2081
 2815TIP3    H130080   1.079   6.335   0.151  0.3243  0.0957 -0.4538
 2815TIP3    H230081   1.016   6.198   0.167  0.5363 -0.0077 -0.5107
 2816TIP3   OH230082   4.126   0.568   8.693  0.4044 -0.4070 -0.7109
 2816TIP3    H130083   4.183   0.636   8.730 -0.9119  0.9853 -1.1621
 2816TIP3    H230084   4.082   0.611   8.619 -1.9376 -1.1170  0.1913
 2817TIP3   OH230085   3.608   1.742   0.734  0.1555  0.3096  0.4243
 2817TIP3    H130086   3.620   1.835   0.751  0.4048  0.2816  0.4011
 2817TIP3    H230087   3.645   1.729   0.647 -0.8749  0.4038 -0.0427
 2818TIP3   OH230088   3.373   3.364   1.268 -0.6081 -0.2183 -0.2102
 2818TIP3    H130089   3.359   3.459   1.264 -0.2432 -0.0618  1.4883
 2818TIP3    H230090   3.457   3.350   1.225 -0.4085  0.2947  0.0053
 2819TIP3   OH230091   1.248   5.913   7.525  0.0286 -0.1661  0.4321
 2819TIP3    H130092   1.204   5.926   7.608  0.4607 -0.2285  0.6737
 2819TIP3    H230093   1.328   5.865   7.547  0.0518 -0.3561 -0.0410
 2820TIP3   OH230094   3.209   6.076   1.848 -0.0615  0.1740 -0.5453
 2820TIP3    H130095   3.221   6.004   1.787  1.9289 -1.8552  1.9770
 2820TIP3    H230096   3.298   6.105   1.869 -0.5151 -0.2330  2.3637
 2821TIP3   OH230097   5.510   3.141   1.178 -0.7978 -0.4333 -0.1683
 2821TIP3    H130098   5.598   3.158   1.146  0.0167 -1.4568  1.3632
 2821TIP3    H230099   5.476   3.227   1.203  0.4158 -0.1966  0.7529
 2822TIP3   OH230100   0.808   3.829   0.595  0.0343  0.1349 -0.7935
 2822TIP3    H130101   0.749   3.900   0.617 -0.8206 -0.1809 -1.9431
 2822TIP3    H230102   0.892   3.854   0.634 -1.0319  0.1693  1.6255
 2823TIP3   OH230103   1.580   6.772   1.814 -0.0598  0.0959 -0.3123
 2823TIP3    H130104   1.524   6.702   1.780  0.1235  0.1299 -0.6865
 2823TIP3    H230105   1.578   6.839   1.746  0.0630  0.2967 -0.1179
 2824TIP3   OH230106   5.368   2.125   0.386  0.2617 -0.1572 -0.0012
 2824TIP3    H130107   5.410   2.155   0.467  0.4392 -0.3398 -0.0245
 2824TIP3    H230108   5.312   2.053   0.413  0.5577 -0.4217 -0.0846
 2825TIP3   OH230109   2.185   2.700   0.322  0.6250 -0.0356 -0.0636
 2825TIP3    H130110   2.158   2.657   0.241  1.0757  3.2286 -2.1150
 2825TIP3    H230111   2.279   2.713   0.311  0.9790 -0.7962  1.7034
 2826TIP3   OH230112   4.394   2.635   2.663  0.4087 -0.0922  0.0808
 2826TIP3    H130113   4.316   2.630   2.608  0.8999  2.3708 -0.9642
 2826TIP3    H230114   4.364   2.679   2.742  0.6908  0.7054 -0.2517
 2827TIP3   OH230115   2.682   2.974   1.442 -0.3552  0.2987 -0.6846
 2827TIP3    H130116   2.721   2.988   1.356  1.4232  0.7934  0.1572
 2827TIP3    H230117   2.616   3.043   1.451  0.0559  0.7723 -1.3021
 2828TIP3   OH230118   6.673   0.768   0.342 -0.0454  0.0788  0.3677
 2828TIP3    H130119   6.604   0.796   0.402  0.1219  3.3121 -0.7478
 2828TIP3    H230120   6.628   0.750   0.260  0.1849  0.0796  0.2401
 2829TIP3   OH230121   0.888   4.842   0.237 -0.4510 -0.5621 -0.5128
 2829TIP3    H130122   0.952   4.899   0.195  1.7416 -2.8322 -0.4692
 2829TIP3    H230123   0.820   4.830   0.171  0.8606 -0.7319 -1.8869
 2830TIP3   OH230124   0.415   1.801   0.090  0.1148 -0.5747 -0.0243
 2830TIP3    H130125   0.508   1.804   0.114 -0.0890 -0.6514  0.8270
 2830TIP3    H230126   0.378   1.880   0.130 -0.3013 -0.8662  0.1704
 2831TIP3   OH230127   3.517   6.236   1.322 -0.1592 -0.2403  0.2934
 2831TIP3    H130128   3.469   6.190   1.391  0.2586  1.6632  1.9774
 2831TIP3    H230129   3.594   6.182   1.306 -0.1445 -0.6183  1.5173
 2832TIP3   OH230130   2.155   1.656   2.816 -0.3732 -0.7176 -0.1863
 2832TIP3    H130131   2.131   1.706   2.894  0.7843  0.9955 -0.8619
 2832TIP3    H230132   2.075   1.611   2.790 -1.3488  0.4172  0.7501
 2833TIP3   OH230133   1.736   5.626   0.237 -0.4017 -0.2943 -0.3994
 2833TIP3    H130134   1.700   5.567   0.303 -0.4654  1.6818  1.4581
 2833TIP3    H230135   1.814   5.581   0.204 -0.9816 -1.8137  0.2380
 2834TIP3   OH230136   0.678   3.012   8.232  0.0384 -0.4676 -0.0801
 2834TIP3    H130137   0.702   3.104   8.235  1.7794 -0.8325 -1.4268
 2834TIP3    H230138   0.670   2.987   8.325  1.3379  0.6113  0.3587
 2835TIP3   OH230139   0.014   0.275   1.084  0.0203  0.3437  0.0575
 2835TIP3    H130140   0.037   0.201   1.141 -0.2304 -1.1200 -1.6530
 2835TIP3    H230141   0.086   0.279   1.020  0.3432  2.0064  0.4717
 2836TIP3   OH230142   0.066   3.612   3.137  0.5213 -0.5796  0.1289
 2836TIP3    H130143  -0.027   3.620   3.158  0.5575 -1.0489  0.4793
 2836TIP3    H230144   0.110   3.672   3.198  0.2977  1.3128 -1.4586
 2837TIP3   OH230145   5.705   1.303   8.000  0.3837 -0.2547  0.1590
 2837TIP3    H130146   5.690   1.288   7.906 -0.0570 -1.1239  0.3657
 2837TIP3    H230147   5.669   1.390   8.016  1.2830  0.2888 -0.6671
 2838TIP3   OH230148   3.970   2.936   0.945 -1.1737 -0.5440 -0.0408
 2838TIP3    H130149   3.917   2.965   0.871 -0.3153  0.7386 -0.1915
 2838TIP3    H230150   3.969   3.011   1.005  0.2342 -0.5966  0.0726
 2839TIP3   OH230151   2.015   2.604   7.428 -0.5180 -0.7658  0.1074
 2839TIP3    H130152   2.011   2.645   7.341  0.8950 -1.8984 -0.5294
 2839TIP3    H230153   1.947   2.649   7.478  0.2416  1.6354 -0.8354
 2840TIP3   OH230154   1.960   2.088   7.062 -0.2551 -0.2852 -0.5041
 2840TIP3    H130155   1.954   2.183   7.065  1.9796 -0.0005 -2.6002
 2840TIP3    H230156   1.893   2.062   6.999  0.7095  0.1674 -1.7548
 2841TIP3   OH230157   4.028   3.140   0.179 -0.3812  0.6041  0.1828
 2841TIP3    H130158   4.039   3.047   0.203  0.7559  0.8379  0.6198
 2841TIP3    H230159   3.966   3.138   0.107  2.5936 -0.9059 -2.6266
 2842TIP3   OH230160   3.915   3.033   1.603  0.1745  0.0639 -0.7914
 2842TIP3    H130161   3.830   3.051   1.563  0.3330 -1.0954 -1.7220
 2842TIP3    H230162   3.899   3.037   1.697 -0.8500  0.0987 -0.9555
 2843TIP3   OH230163   3.209   2.450   1.820  0.0658 -0.1128 -0.0757
 2843TIP3    H130164   3.192   2.479   1.730  2.2177 -0.6432 -0.7059
 2843TIP3    H230165   3.176   2.522   1.875  1.7195  1.7777 -1.4280
 2844TIP3   OH230166   6.403   1.708   2.529  0.0178 -1.3368 -0.7983
 2844TIP3    H130167   6.391   1.803   2.534 -0.8117 -1.4859  0.4149
 2844TIP3    H230168   6.444   1.684   2.613  0.3224 -2.0463 -1.1365
 2845TIP3   OH230169   2.723   5.734   7.419 -0.4528  0.1071 -0.2039
 2845TIP3    H130170   2.773   5.662   7.456  0.7102 -0.2637 -2.3430
 2845TIP3    H230171   2.654   5.751   7.483  0.6497 -1.3251  1.4429
 2846TIP3   OH230172   0.402   5.049   7.952  0.3209 -0.5099 -0.0346
 2846TIP3    H130173   0.409   4.998   8.034 -0.5256 -1.8624 -0.7632
 2846TIP3    H230174   0.317   5.094   7.960  0.7513  0.2626  0.3025
 2847TIP3   OH230175   1.443   0.622   0.675  0.5096 -0.6614  0.5972
 2847TIP3    H130176   1.406   0.664   0.597  1.8955 -1.3903 -0.5145
 2847TIP3    H230177   1.532   0.658   0.682  0.7735 -1.3964  1.2001
 2848TIP3   OH230178   2.295   4.018   8.332  0.2087 -0.0992 -0.9933
 2848TIP3    H130179   2.327   3.947   8.277  2.7666  0.6138 -0.5719
 2848TIP3    H230180   2.222   3.980   8.380 -0.0598 -1.6771 -2.5544
 2849TIP3   OH230181   4.447   3.433   0.383 -0.3909  0.0627 -0.0319
 2849TIP3    H130182   4.410   3.367   0.325 -0.5936 -1.2017  1.4643
 2849TIP3    H230183   4.452   3.512   0.329  0.5212 -1.3183 -2.0887
 2850TIP3   OH230184   3.463   2.428   8.645  0.0807  0.2406 -0.2001
 2850TIP3    H130185   3.433   2.343   8.675  0.1461  0.0452 -0.6831
 2850TIP3    H230186   3.436   2.433   8.553 -1.5754  1.5123  0.3174
 2851TIP3   OH230187   3.394   1.278   1.082  0.0558 -0.0077 -0.1480
 2851TIP3    H130188   3.362   1.351   1.135 -2.9587 -0.1970 -1.4505
 2851TIP3    H230189   3.442   1.320   1.010 -0.9466  0.6951 -0.4389
 2852TIP3   OH230190   6.786   1.991   8.389  0.5302  0.0374  0.2178
 2852TIP3    H130191   6.786   1.901   8.423  1.7423 -0.9853 -2.1922
 2852TIP3    H230192   6.696   2.006   8.360 -0.6571  1.1042  3.9149
 2853TIP3   OH230193   0.715   1.986   8.809  0.5772 -0.3076  0.7651
 2853TIP3    H130194   0.716   2.063   8.866 -0.9868 -0.3678  0.9207
 2853TIP3    H230195   0.648   2.006   8.743  2.1900 -0.3286 -0.9761
 2854TIP3   OH230196   5.496   5.089   7.554 -0.3560  0.4811 -0.2316
 2854TIP3    H130197   5.572   5.123   7.508  0.3554 -0.1240  0.4610
 2854TIP3    H230198   5.453   5.031   7.491 -0.6963  1.4032 -0.8790
 2855TIP3   OH230199   2.004   3.244   1.636  0.5334 -0.2470  0.0215
 2855TIP3    H130200   1.955   3.200   1.704 -0.1579  0.5373  0.0499
 2855TIP3    H230201   2.025   3.176   1.573 -3.0244 -0.2173 -1.4244
 2856TIP3   OH230202   6.080   3.339   1.081 -0.2921  0.4636  0.4417
 2856TIP3    H130203   6.085   3.326   1.175  2.0979  2.8614  0.7597
 2856TIP3    H230204   6.136   3.272   1.044  1.1829  1.3447  1.0046
 2857TIP3   OH230205   2.880   6.269   8.059 -0.2951  0.4173  0.4973
 2857TIP3    H130206   2.886   6.309   8.146  1.1964  0.1428  0.5457
 2857TIP3    H230207   2.927   6.186   8.068  2.2925  1.5704 -1.2342
 2858TIP3   OH230208   6.311   3.578   1.147 -0.2575  0.0404 -0.7093
 2858TIP3    H130209   6.302   3.637   1.222 -0.0443 -1.5153  0.6251
 2858TIP3    H230210   6.227   3.583   1.102 -1.3372 -0.7504  1.0655
 2859TIP3   OH230211   3.948   6.082   0.818 -0.0559 -0.1997 -0.4812
 2859TIP3    H130212   3.955   6.013   0.752 -3.1441 -2.8579  1.6209
 2859TIP3    H230213   4.020   6.064   0.879 -0.9058 -1.8236  0.1240
 2860TIP3   OH230214   3.066   3.895   0.402 -0.1682 -0.5423 -0.1323
 2860TIP3    H130215   2.973   3.910   0.423  0.1932  1.6237  0.1219
 2860TIP3    H230216   3.089   3.817   0.452 -1.5407 -0.4231  0.7545
 2861TIP3   OH230217   0.497   1.403   2.349 -0.2243 -0.1929  0.1743
 2861TIP3    H130218   0.474   1.351   2.272 -3.2302 -0.0554  0.8643
 2861TIP3    H230219   0.499   1.493   2.317  0.8922 -0.3213 -0.1735
 2862TIP3   OH230220   5.207   2.133   8.758  0.3301  0.1937 -0.2690
 2862TIP3    H130221   5.124   2.128   8.806  0.5330 -0.4281  0.0306
 2862TIP3    H230222   5.202   2.215   8.710  0.5852  1.4141  1.6883
 2863TIP3   OH230223   0.151   1.331   8.381  0.1173  0.6103 -0.6431
 2863TIP3    H130224   0.100   1.257   8.414  0.8766  0.2630 -0.2292
 2863TIP3    H230225   0.103   1.360   8.304  0.2641 -0.8571 -1.3120
 2864TIP3   OH230226   0.582   3.969   0.841  0.7419 -0.2017 -0.3977
 2864TIP3    H130227   0.648   4.000   0.903 -1.2637  1.7495  0.8961
 2864TIP3    H230228   0.589   3.874   0.845  1.9786 -0.0981  1.3672
 2865TIP3   OH230229   4.331   0.105   2.776  0.0459 -0.3189 -0.4280
 2865TIP3    H130230   4.249   0.069   2.741  0.3317  0.3963 -1.9438
 2865TIP3    H230231   4.305   0.189   2.815 -0.0985 -0.5756  0.0313
 2866TIP3   OH230232   4.683   1.422   7.748 -0.1480  0.2000 -0.1899
 2866TIP3    H130233   4.607   1.438   7.693 -0.7343  0.1358  0.5888
 2866TIP3    H230234   4.665   1.471   7.828 -0.3545 -1.4863  0.8449
 2867TIP3   OH230235   2.878   3.943   7.547  0.1694 -0.1138  0.1262
 2867TIP3    H130236   2.909   4.034   7.545  2.1605 -0.5847  3.1622
 2867TIP3    H230237   2.785   3.950   7.567 -0.2665  1.2191 -1.9712
 2868TIP3   OH230238   4.635   6.356   0.091 -0.0846  0.3544 -0.7972
 2868TIP3    H130239   4.560   6.407   0.062 -0.0261  0.6754 -0.4008
 2868TIP3    H230240   4.661   6.397   0.174  0.2815  0.0012 -0.7338
 2869TIP3   OH230241   3.737   0.974   7.644  0.3179 -0.1390 -0.1035
 2869TIP3    H130242   3.679   0.918   7.593 -1.5998  0.1963  1.5508
 2869TIP3    H230243   3.713   0.955   7.735  1.5550  1.3505  0.5707
 2870TIP3   OH230244   1.828   1.272   7.299  0.2733 -0.2158  0.0081
 2870TIP3    H130245   1.815   1.267   7.204 -2.1081 -1.0272  0.3138
 2870TIP3    H230246   1.862   1.360   7.314  0.0284  0.1669 -1.5365
 2871TIP3   OH230247   0.849   1.360   8.214  0.2248  0.2917 -0.3612
 2871TIP3    H130248   0.845   1.405   8.298 -0.6899 -3.2635  1.7049
 2871TIP3    H230249   0.936   1.321   8.211 -0.7848 -2.3124  0.6767
 2872TIP3   OH230250   4.071   3.604   0.335  0.5966  0.1790 -0.2232
 2872TIP3    H130251   4.150   3.624   0.285  0.2788  1.4100 -0.2691
 2872TIP3    H230252   4.007   3.578   0.269  0.3699  1.1787 -0.4194
 2873TIP3   OH230253   0.036   3.813   8.155 -0.1455  0.3967 -0.0846
 2873TIP3    H130254   0.020   3.897   8.113 -0.9144 -0.5738 -1.8761
 2873TIP3    H230255   0.092   3.766   8.093 -1.6005 -1.2220 -0.2632
 2874TIP3   OH230256   0.023   2.700   8.256 -0.1081 -0.3475 -0.7843
 2874TIP3    H130257   0.032   2.606   8.266 -0.1256 -0.2565  0.1773
 2874TIP3    H230258   0.113   2.732   8.249 -0.1241 -0.4923 -1.7682
 2875TIP3   OH230259   5.633   4.811   2.574 -0.3305 -0.0461  0.5116
 2875TIP3    H130260   5.569   4.850   2.633 -0.3826 -1.4562  1.4506
 2875TIP3    H230261   5.591   4.730   2.544  1.0894 -1.1440  1.3745
 2876TIP3   OH230262   3.351   3.207   2.833 -0.5301 -0.0217  0.0716
 2876TIP3    H130263   3.341   3.113   2.845 -0.1658 -0.0609  0.0825
 2876TIP3    H230264   3.364   3.218   2.739 -0.9520  0.0558  0.0193
 2877TIP3   OH230265   0.507   4.432   8.132  0.1944  0.1835 -0.7109
 2877TIP3    H130266   0.495   4.365   8.065  1.1798  1.3442 -2.1093
 2877TIP3    H230267   0.549   4.505   8.086 -1.7763  2.2080  0.4595
 2878TIP3   OH230268   2.389   2.554   1.427 -0.5826 -0.0531  0.5910
 2878TIP3    H130269   2.303   2.592   1.409 -1.0626 -1.1748  0.4951
 2878TIP3    H230270   2.412   2.587   1.514 -1.2835 -0.0575  0.7816
 2879TIP3   OH230271   4.106   2.829   8.494  0.1106 -0.8126  0.5936
 2879TIP3    H130272   4.024   2.837   8.542 -0.4049  1.2652 -0.5487
 2879TIP3    H230273   4.081   2.805   8.405  0.7550 -0.5434  0.3289
 2880TIP3   OH230274   2.549   6.568   0.550 -0.3017  0.3269  0.1571
 2880TIP3    H130275   2.560   6.518   0.631 -0.5868  0.9489  0.5986
 2880TIP3    H230276   2.499   6.645   0.577 -3.5714 -1.1255 -1.2359
 2881TIP3   OH230277   2.250   4.153   2.395  0.2310  1.1140 -0.2810
 2881TIP3    H130278   2.293   4.237   2.408 -2.2636  2.7155 -1.6014
 2881TIP3    H230279   2.161   4.166   2.429 -0.5766 -0.5867 -1.6120
 2882TIP3   OH230280   5.134   0.128   0.557  0.5304 -0.2572  0.4296
 2882TIP3    H130281   5.174   0.199   0.608  0.0872  0.3612 -0.0529
 2882TIP3    H230282   5.045   0.121   0.592 -0.3530  1.2996 -1.2596
 2883TIP3   OH230283   1.408   5.374   0.739  0.1385 -0.0778 -0.3400
 2883TIP3    H130284   1.499   5.344   0.731 -0.0243 -0.4819 -0.6594
 2883TIP3    H230285   1.392   5.423   0.659 -0.7159 -2.1060 -1.4752
 2884TIP3   OH230286   3.213   6.085   2.558  0.2923 -0.6942  0.1894
 2884TIP3    H130287   3.298   6.065   2.595 -0.0847 -1.4926  0.6413
 2884TIP3    H230288   3.153   6.022   2.598 -0.3093 -0.9142 -1.0001
 2885TIP3   OH230289   4.222   2.510   3.139  0.4622  0.1852  0.1235
 2885TIP3    H130290   4.254   2.431   3.096  1.5306  0.0343  1.1500
 2885TIP3    H230291   4.136   2.486   3.172 -0.1434  0.1381 -1.4363
 2886TIP3   OH230292   0.235   1.271   1.026  0.0862 -0.0802 -0.4461
 2886TIP3    H130293   0.178   1.198   1.050  0.6508 -0.1449  0.7653
 2886TIP3    H230294   0.324   1.237   1.037  0.4874 -0.5310 -3.8955
 2887TIP3   OH230295   2.817   0.720   1.469  0.1843  0.0979  0.2012
 2887TIP3    H130296   2.897   0.716   1.521  0.8194  0.1058 -0.7532
 2887TIP3    H230297   2.840   0.774   1.393 -0.2705 -1.0729 -0.8163
 2888TIP3   OH230298   2.655   4.054   1.734  0.3493 -0.6062  0.1916
 2888TIP3    H130299   2.692   3.967   1.753 -1.6724 -2.2908 -2.7924
 2888TIP3    H230300   2.581   4.061   1.795  0.3055 -1.1335  0.2068
 2889TIP3   OH230301   1.183   2.256   0.191 -0.1447 -0.0505 -0.7653
 2889TIP3    H130302   1.104   2.303   0.165  0.5298  0.5311 -1.8580
 2889TIP3    H230303   1.216   2.305   0.267 -1.7736 -1.3683  0.8673
 2890TIP3   OH230304   0.383   4.206   0.744 -0.5301  0.4107 -0.2616
 2890TIP3    H130305   0.452   4.228   0.808 -0.5359 -0.0333 -0.1018
 2890TIP3    H230306   0.397   4.114   0.724  0.6376  0.9717 -2.3315
 2891TIP3   OH230307   6.234   1.282   7.501  0.4656  0.0002 -0.5053
 2891TIP3    H130308   6.272   1.358   7.546  0.5868  0.9196 -2.0985
 2891TIP3    H230309   6.306   1.219   7.496  0.1483 -0.5959  1.5361
 2892TIP3   OH230310   1.380   2.573   0.704 -0.4077  0.5896  0.0999
 2892TIP3    H130311   1.397   2.667   0.699 -1.9584  0.8638 -0.3867
 2892TIP3    H230312   1.361   2.547   0.614  1.0241 -0.4315  0.0467
 2893TIP3   OH230313   2.349   0.269   6.811 -0.2634  0.2575 -0.0423
 2893TIP3    H130314   2.422   0.209   6.799  0.1946  0.9162 -0.6014
 2893TIP3    H230315   2.315   0.285   6.723 -1.5709 -0.6223  0.2673
 2894TIP3   OH230316   3.494   2.236   2.635 -0.2026  0.6675  0.3401
 2894TIP3    H130317   3.557   2.170   2.665 -0.2194  1.4173  2.1585
 2894TIP3    H230318   3.461   2.201   2.552 -0.8260 -2.0288  1.6256
 2895TIP3   OH230319   5.248   2.353   8.625 -0.1415 -0.0849 -0.6393
 2895TIP3    H130320   5.310   2.358   8.553  0.4780 -1.1856 -0.1971
 2895TIP3    H230321   5.162   2.352   8.583  0.0906  1.5353 -1.2560
 2896TIP3   OH230322   5.084   1.545   2.901 -0.2335  0.1293 -0.0591
 2896TIP3    H130323   5.101   1.453   2.919 -3.2892 -0.1122  2.5017
 2896TIP3    H230324   5.118   1.591   2.977 -0.9911  0.7926 -0.1045
 2897TIP3   OH230325   0.156   1.347   7.401  0.5802  0.2375 -0.0297
 2897TIP3    H130326   0.190   1.436   7.391 -0.5138  0.8270  1.1221
 2897TIP3    H230327   0.061   1.359   7.403  0.3173 -1.1750 -1.6621
 2898TIP3   OH230328   3.272   3.318   7.980  0.0918  0.3998  0.1174
 2898TIP3    H130329   3.267   3.314   7.884 -4.5126  0.7755  0.1590
 2898TIP3    H230330   3.302   3.407   7.998 -0.0699  0.7012 -0.9864
 2899TIP3   OH230331   0.159   4.329   0.654 -0.0405  0.1598  0.4972
 2899TIP3    H130332   0.226   4.261   0.665  0.0173  0.3289  1.1984
 2899TIP3    H230333   0.100   4.317   0.728 -0.8672 -0.0711 -0.1838
 2900TIP3   OH230334   2.825   4.277   0.740 -0.4193  0.4421 -0.0445
 2900TIP3    H130335   2.748   4.221   0.735 -1.2767  1.7027 -2.2620
 2900TIP3    H230336   2.806   4.338   0.811 -0.3377 -0.7680  1.0583
 2901TIP3   OH230337   1.282   5.486   1.500 -0.2339  0.5456 -0.4575
 2901TIP3    H130338   1.272   5.404   1.451  0.8874 -0.3887  0.7989
 2901TIP3    H230339   1.254   5.464   1.589 -1.4596  1.9945 -0.4346
 2902TIP3   OH230340   3.152   0.160   1.735 -0.6576  0.2154  0.7879
 2902TIP3    H130341   3.063   0.141   1.705  0.0608 -0.1396 -1.2637
 2902TIP3    H230342   3.185   0.075   1.765 -0.6294  0.1020  0.4450
 2903TIP3   OH230343   0.125   4.980   0.374  0.1321  0.3643  0.5144
 2903TIP3    H130344   0.071   4.914   0.417  0.6822 -0.4245  0.0250
 2903TIP3    H230345   0.186   5.009   0.441 -1.4203  1.8999  1.3320
 2904TIP3   OH230346   2.404   3.244   2.044  0.0744  0.0293 -0.5970
 2904TIP3    H130347   2.410   3.231   2.138 -0.8390 -0.6034 -0.6194
 2904TIP3    H230348   2.445   3.330   2.029  0.3006  0.0960  0.3527
 2905TIP3   OH230349   0.611   3.638   6.651 -0.7234  0.1138 -0.3875
 2905TIP3    H130350   0.631   3.693   6.726  0.0247 -1.4495  0.6088
 2905TIP3    H230351   0.691   3.636   6.600 -0.3358 -0.9748  0.2205
 2906TIP3   OH230352   3.365   1.731   0.170  0.6314 -0.0150 -0.9500
 2906TIP3    H130353   3.332   1.646   0.141 -1.1441  0.0178  0.7842
 2906TIP3    H230354   3.331   1.793   0.105 -0.9515 -0.2470 -0.3633
 2907TIP3   OH230355   0.265   5.703   1.615 -0.2187 -0.4523 -0.7243
 2907TIP3    H130356   0.178   5.724   1.650  0.2835  1.7554 -0.6988
 2907TIP3    H230357   0.317   5.678   1.692 -0.5571 -0.8940 -0.6309
 2908TIP3   OH230358   4.465   1.489   7.599  0.4266 -0.2399 -0.5912
 2908TIP3    H130359   4.455   1.458   7.509  3.7781  1.4693 -1.6873
 2908TIP3    H230360   4.455   1.584   7.594  1.7062 -0.0040  0.6495
 2909TIP3   OH230361   3.663   1.758   0.149  0.2774 -0.5204  0.5834
 2909TIP3    H130362   3.658   1.780   0.056 -1.2512  1.0629  0.9787
 2909TIP3    H230363   3.573   1.735   0.173  0.6580 -0.9751  1.6712
 2910TIP3   OH230364   2.328   3.430   0.502  0.1898  0.1277 -0.2881
 2910TIP3    H130365   2.423   3.429   0.517 -0.0099  0.9984  1.1766
 2910TIP3    H230366   2.315   3.369   0.429  1.7272 -1.0803  0.3908
 2911TIP3   OH230367   1.027   0.770   7.234 -0.2471 -0.6520 -0.4858
 2911TIP3    H130368   1.017   0.800   7.144 -1.3194  1.7229  0.3627
 2911TIP3    H230369   0.952   0.711   7.247 -1.8452  1.3119 -0.3110
 2912TIP3   OH230370   6.700   1.782   3.083  0.0131  0.3020 -0.0953
 2912TIP3    H130371   6.689   1.696   3.125  0.4617  0.7712  1.0482
 2912TIP3    H230372   6.792   1.803   3.098  0.4526  0.0959 -2.1749
 2913TIP3   OH230373   1.315   4.750   7.876  0.0998  0.2076  0.5817
 2913TIP3    H130374   1.321   4.813   7.805 -0.4848  0.2539  0.5735
 2913TIP3    H230375   1.403   4.712   7.881  0.6502  1.5122  1.0512
 2914TIP3   OH230376   6.283   3.034   2.778 -0.0459  0.3600 -0.0923
 2914TIP3    H130377   6.242   2.977   2.713  0.6104 -0.7846  0.4718
 2914TIP3    H230378   6.377   3.020   2.768  0.0738 -1.3667  2.3434
 2915TIP3   OH230379   4.046   2.118   3.054  0.1491 -0.1821  0.2374
 2915TIP3    H130380   4.059   2.060   3.129  1.5515 -2.0039 -1.2991
 2915TIP3    H230381   4.125   2.173   3.052  0.6338 -0.8825 -0.4862
 2916TIP3   OH230382   2.150   3.645   7.016  0.1793  0.4661 -0.2077
 2916TIP3    H130383   2.222   3.628   7.076  2.8620  2.0678 -2.7157
 2916TIP3    H230384   2.071   3.639   7.071  2.0156 -2.3890  2.4743
 2917TIP3   OH230385   6.726   6.760   6.882  0.4351  0.3145  0.7209
 2917TIP3    H130386   6.762   6.844   6.853 -3.0932  1.2055 -1.8958
 2917TIP3    H230387   6.772   6.695   6.829 -0.5723  1.2543 -1.4580
 2918TIP3   OH230388   6.402   4.504   8.471  0.0477  0.5122  0.0636
 2918TIP3    H130389   6.461   4.489   8.545  2.3700  1.6341 -1.4595
 2918TIP3    H230390   6.459   4.514   8.396 -2.2116 -0.0425 -1.8501
 2919TIP3   OH230391   2.477   4.019   7.914 -0.1409  0.1416  0.2504
 2919TIP3    H130392   2.489   4.063   7.998 -0.1578 -1.3508  1.0748
 2919TIP3    H230393   2.385   3.993   7.914 -0.5198  1.3725 -0.8903
 2920TIP3   OH230394   3.178   3.955   0.816  0.1657 -0.0038  0.6146
 2920TIP3    H130395   3.222   4.003   0.887  0.2054  1.3184 -0.2720
 2920TIP3    H230396   3.249   3.926   0.759  0.0037  1.5721 -0.4697
 2921TIP3   OH230397   6.277   3.261   7.724 -0.3408 -0.6710  0.1520
 2921TIP3    H130398   6.297   3.238   7.815 -2.3422 -1.5411  0.4098
 2921TIP3    H230399   6.203   3.206   7.701  0.4511 -0.8453 -2.2118
 2922TIP3   OH230400   2.629   2.615   8.155 -0.3558  0.1225 -0.6266
 2922TIP3    H130401   2.622   2.523   8.129 -0.3491 -0.7085  2.0851
 2922TIP3    H230402   2.587   2.619   8.240 -0.9638  2.8192 -0.9818
 2923TIP3   OH230403   4.847   3.244   8.710  0.0912  0.2925 -0.5489
 2923TIP3    H130404   4.834   3.338   8.697  0.9542  0.6473  0.9677
 2923TIP3    H230405   4.897   3.216   8.634 -0.3800  1.0060 -1.1318
 2924TIP3   OH230406   0.726   2.605   2.164 -0.7801 -0.2735  0.0991
 2924TIP3    H130407   0.657   2.622   2.100 -0.5808 -1.0648 -0.3379
 2924TIP3    H230408   0.806   2.634   2.122 -0.9281  1.6741  1.0236
 2925TIP3   OH230409   6.596   3.852   0.513 -0.2553 -0.9461  0.3174
 2925TIP3    H130410   6.667   3.788   0.520  1.3832  0.4936 -1.8003
 2925TIP3    H230411   6.567   3.845   0.422 -0.8551  0.4598  0.3832
 2926TIP3   OH230412   4.054   0.695   2.318 -0.1466  0.4879 -0.1557
 2926TIP3    H130413   3.983   0.760   2.311  1.1009  2.1867  1.6085
 2926TIP3    H230414   4.034   0.647   2.399 -0.3472 -0.4291 -0.7416
 2927TIP3   OH230415   0.129   6.186   0.399 -0.6859 -0.1082 -0.8009
 2927TIP3    H130416   0.201   6.124   0.404  0.0438  0.8428  1.3985
 2927TIP3    H230417   0.072   6.163   0.472 -0.8775  1.2196 -0.5103
 2928TIP3   OH230418   2.641   2.757   8.703  0.3605 -0.5490 -0.2821
 2928TIP3    H130419   2.673   2.788   8.787 -1.1049 -0.1098  0.1406
 2928TIP3    H230420   2.664   2.664   8.701  0.5585 -0.5233  0.5128
 2929TIP3   OH230421   3.848   2.996   8.387  0.5661 -0.7689  0.4279
 2929TIP3    H130422   3.837   3.017   8.294 -0.8192  0.0425  0.7570
 2929TIP3    H230423   3.877   3.078   8.427  1.7294 -1.2651  0.6382
 2930TIP3   OH230424   3.117   3.419   1.936  0.1141 -0.2600  0.1231
 2930TIP3    H130425   3.071   3.398   1.854  0.0693 -0.2681  0.1505
 2930TIP3    H230426   3.116   3.337   1.985 -0.4070 -0.0920  0.4009
 2931TIP3   OH230427   3.766   1.201   0.843  0.1562  0.7568 -0.5322
 2931TIP3    H130428   3.772   1.246   0.758 -2.3135 -0.2791 -1.3699
 2931TIP3    H230429   3.854   1.206   0.880  1.3257  1.2816 -3.1524
 2932TIP3   OH230430   5.437   0.466   2.379 -0.0646 -0.0783  0.3585
 2932TIP3    H130431   5.428   0.519   2.299  0.1818 -1.6231 -0.7215
 2932TIP3    H230432   5.398   0.521   2.448  0.4724  1.6434 -0.6404
 2933TIP3   OH230433   2.319   4.694   8.596  0.6701 -0.5258  0.4407
 2933TIP3    H130434   2.254   4.753   8.557  2.2719  0.4624 -0.8385
 2933TIP3    H230435   2.273   4.610   8.602 -0.4898 -0.0672 -1.1773
 2934TIP3   OH230436   3.155   3.973   1.312 -0.1130 -0.3629 -0.3447
 2934TIP3    H130437   3.125   4.009   1.396  0.5619 -0.7547  0.0821
 2934TIP3    H230438   3.089   3.907   1.289  0.6208 -1.5822  0.8433
 2935TIP3   OH230439   1.098   5.442   8.269  0.8535  0.0018 -0.1522
 2935TIP3    H130440   1.132   5.358   8.300 -1.6063 -1.2294 -0.4663
 2935TIP3    H230441   1.076   5.490   8.349 -0.9913 -1.1769  0.1215
 2936TIP3   OH230442   0.213   6.014   1.737  0.3187 -0.3150  0.0161
 2936TIP3    H130443   0.300   5.974   1.737  0.6433  0.3361  1.0964
 2936TIP3    H230444   0.222   6.090   1.795 -0.8279  0.0902 -0.3136
 2937TIP3   OH230445   0.065   6.454   1.779  0.3113 -0.3615 -0.2560
 2937TIP3    H130446   0.105   6.539   1.763 -0.1433 -0.1220 -0.1492
 2937TIP3    H230447   0.035   6.459   1.870  2.5803 -1.5816  0.6396
 2938TIP3   OH230448   0.572   0.260   1.816 -0.2983  0.0598 -0.3431
 2938TIP3    H130449   0.551   0.339   1.766 -0.7487  0.5445  0.5858
 2938TIP3    H230450   0.509   0.260   1.888 -0.4632 -1.2786 -0.4618
 2939TIP3   OH230451   5.102   2.289   2.312 -0.6351  0.1278 -0.0955
 2939TIP3    H130452   5.095   2.194   2.306 -1.2750  0.2441 -2.2687
 2939TIP3    H230453   5.044   2.314   2.383 -0.3322 -1.0926  0.6124
 2940TIP3   OH230454   1.264   5.145   1.792 -0.1332 -0.1453  0.5484
 2940TIP3    H130455   1.191   5.149   1.730  0.3486  0.4330 -0.0001
 2940TIP3    H230456   1.322   5.078   1.757  0.1121  0.1436  0.3892
 2941TIP3   OH230457   6.777   3.788   2.110 -0.1007 -0.5852 -0.0102
 2941TIP3    H130458   6.734   3.846   2.172 -0.3075  0.3856 -1.0395
 2941TIP3    H230459   6.718   3.713   2.102 -1.2382  0.3653 -0.8052
 2942TIP3   OH230460   3.528   4.818   1.531  0.0822  0.3142  0.2125
 2942TIP3    H130461   3.551   4.869   1.609 -1.5805 -0.0756  0.9923
 2942TIP3    H230462   3.440   4.785   1.549 -0.7982  1.1142 -2.2959
 2943TIP3   OH230463   6.651   2.406   2.631 -0.1260 -0.0051 -0.2899
 2943TIP3    H130464   6.561   2.375   2.644  0.2625 -0.5838  1.3004
 2943TIP3    H230465   6.701   2.363   2.701  0.8605  2.5244  0.6682
 2944TIP3   OH230466   4.261   3.250   8.140 -0.3950 -0.0303 -0.0094
 2944TIP3    H130467   4.322   3.317   8.170 -0.8744  0.7021 -0.6262
 2944TIP3    H230468   4.234   3.205   8.220 -0.0129  0.4593  0.4060
 2945TIP3   OH230469   4.033   5.567   2.057 -0.1567 -0.1827  0.4092
 2945TIP3    H130470   3.988   5.552   2.139  2.5507 -3.2426  1.5663
 2945TIP3    H230471   4.114   5.516   2.064  1.3730  1.3613 -3.2031
 2946TIP3   OH230472   6.703   2.539   2.385  0.2795 -0.3613  0.5293
 2946TIP3    H130473   6.758   2.615   2.403  1.0960 -0.6344 -0.6866
 2946TIP3    H230474   6.719   2.481   2.460  1.1822 -0.1563  0.5167
 2947TIP3   OH230475   6.069   4.625   7.666  0.2717 -0.4873  0.2294
 2947TIP3    H130476   6.112   4.709   7.683 -0.4423 -0.3496  1.5430
 2947TIP3    H230477   6.126   4.561   7.708  1.2888 -0.7971 -1.5449
 2948TIP3   OH230478   0.401   5.057   1.550 -0.3606 -0.1914 -0.4074
 2948TIP3    H130479   0.412   5.136   1.496 -0.2420  0.1820  0.1565
 2948TIP3    H230480   0.307   5.049   1.562 -0.2950  1.2134  1.4781
 2949TIP3   OH230481   6.493   2.076   1.127  0.0235  0.7078 -0.9137
 2949TIP3    H130482   6.416   2.075   1.070 -1.3050 -0.3498  0.7693
 2949TIP3    H230483   6.473   2.011   1.195  2.9137 -0.4294 -1.0126
 2950TIP3   OH230484   5.177   3.708   0.567  0.2094  0.4343  0.0088
 2950TIP3    H130485   5.110   3.664   0.620  1.2919  0.9004  1.8750
 2950TIP3    H230486   5.156   3.801   0.576  1.1945  0.5958  0.7775
 2951TIP3   OH230487   4.048   5.761   0.678 -0.1290 -0.0344 -0.2218
 2951TIP3    H130488   4.022   5.672   0.704 -2.3479  0.2299 -1.3062
 2951TIP3    H230489   4.141   5.766   0.700 -0.0619 -2.4438  0.3332
 2952TIP3   OH230490   1.352   6.555   2.262  0.5101 -0.0825 -0.2613
 2952TIP3    H130491   1.261   6.573   2.287  1.6229  2.3559  2.5501
 2952TIP3    H230492   1.363   6.599   2.178 -1.2269 -1.7857 -1.4901
 2953TIP3   OH230493   6.011   5.746   1.815  0.2706  0.0601 -0.2764
 2953TIP3    H130494   5.982   5.690   1.744 -1.2045  0.8446 -0.3359
 2953TIP3    H230495   5.963   5.715   1.892  0.9988 -0.0557  0.1452
 2954TIP3   OH230496   1.430   5.256   7.926  0.2881  0.2233  0.2026
 2954TIP3    H130497   1.338   5.273   7.910  0.1447 -0.6739 -0.0200
 2954TIP3    H230498   1.448   5.295   8.012 -0.1883  0.7563  0.0625
 2955TIP3   OH230499   5.495   4.637   0.970  0.9574 -0.0525  0.1102
 2955TIP3    H130500   5.416   4.583   0.965  0.8144  0.1204  0.4977
 2955TIP3    H230501   5.563   4.577   1.001  1.1172 -0.3418 -0.7452
 2956TIP3   OH230502   3.796   3.973   2.847 -0.1358  0.0677  0.5384
 2956TIP3    H130503   3.756   3.966   2.760 -0.6693 -2.0228  0.8979
 2956TIP3    H230504   3.841   4.058   2.845  1.2028 -0.5604 -2.3371
 2957TIP3   OH230505   2.189   3.086   7.341  0.6309  0.1178  0.1788
 2957TIP3    H130506   2.149   3.032   7.409 -0.7403  0.8847 -0.0016
 2957TIP3    H230507   2.128   3.082   7.268 -0.1426  2.8328  0.5668
 2958TIP3   OH230508   4.328   2.030   2.032  0.4393  0.2968 -0.3831
 2958TIP3    H130509   4.237   2.043   2.008  0.5366  1.7908 -0.0104
 2958TIP3    H230510   4.375   2.101   1.990  1.2237  0.3974  0.6224
 2959TIP3   OH230511   5.202   5.613   1.750  0.0821  0.1780 -0.3776
 2959TIP3    H130512   5.267   5.647   1.689  0.6009 -1.8893 -1.0532
 2959TIP3    H230513   5.123   5.665   1.734  1.0800  1.6715 -0.6405
 2960TIP3   OH230514   5.334   5.711   8.836  0.1214 -0.2496 -0.5440
 2960TIP3    H130515   5.274   5.678   8.903  0.8335 -1.2807 -0.3900
 2960TIP3    H230516   5.381   5.782   8.878  1.9888 -2.1636  0.7687
 2961TIP3   OH230517   1.513   2.169   1.855  0.1837  0.0320  0.2217
 2961TIP3    H130518   1.433   2.117   1.853  0.4239 -0.4268  1.4707
 2961TIP3    H230519   1.489   2.252   1.815 -0.8844 -0.1242  0.5175
 2962TIP3   OH230520   4.052   1.048   8.432 -0.5735  0.2763 -0.0037
 2962TIP3    H130521   4.097   1.115   8.484  0.5328  0.5132 -1.2043
 2962TIP3    H230522   3.966   1.038   8.474 -0.4713  1.8888  0.6532
 2963TIP3   OH230523   0.197   0.470   7.921 -0.2222  0.6406 -0.1418
 2963TIP3    H130524   0.134   0.509   7.861 -0.1276  1.6595  0.4100
 2963TIP3    H230525   0.150   0.395   7.959 -0.8794  1.0159 -0.1950
 2964TIP3   OH230526   2.287   0.632   1.096  0.5508 -0.2926  0.1097
 2964TIP3    H130527   2.296   0.537   1.110  1.9396 -0.3781 -1.1401
 2964TIP3    H230528   2.193   0.647   1.098  0.2946 -1.7166  0.2580
 2965TIP3   OH230529   2.120   4.269   0.432 -0.0439 -0.9254  0.5368
 2965TIP3    H130530   2.215   4.279   0.424 -0.3064  0.7439 -1.5004
 2965TIP3    H230531   2.089   4.357   0.452 -1.1832 -1.4573  1.1662
 2966TIP3   OH230532   6.201   2.723   6.996  0.8705 -0.3718  0.2941
 2966TIP3    H130533   6.212   2.747   7.088  2.1960 -0.5638  0.2127
 2966TIP3    H230534   6.272   2.769   6.951  0.0716 -0.0594 -0.6837
 2967TIP3   OH230535   1.311   1.514   2.015  0.0151  0.3500  0.7861
 2967TIP3    H130536   1.270   1.432   1.987  0.1008  0.4512  0.3477
 2967TIP3    H230537   1.272   1.534   2.100  0.4837 -0.4966  1.2108
 2968TIP3   OH230538   5.282   2.548   8.341 -0.6211 -0.0434 -0.4701
 2968TIP3    H130539   5.363   2.525   8.296 -0.5454 -0.0807 -0.3164
 2968TIP3    H230540   5.232   2.599   8.277 -1.6777 -2.2907 -1.5400
 2969TIP3   OH230541   6.037   4.851   7.080 -0.6339  0.0957  0.2338
 2969TIP3    H130542   6.130   4.832   7.098 -0.4051  1.3025  0.4722
 2969TIP3    H230543   6.003   4.771   7.042  1.0078  0.2332 -1.7278
 2970TIP3   OH230544   0.258   0.198   0.942 -0.1139  0.3584  0.1609
 2970TIP3    H130545   0.258   0.112   0.984  0.5907 -0.1190 -0.7823
 2970TIP3    H230546   0.320   0.249   0.994  0.3754 -0.0791  0.0234
 2971TIP3   OH230547   1.855   4.077   7.611  0.1569 -0.4298  0.2847
 2971TIP3    H130548   1.784   4.018   7.637  1.9880 -1.7952  2.5303
 2971TIP3    H230549   1.848   4.082   7.516 -3.0950 -0.2427  0.4333
 2972TIP3   OH230550   0.092   4.311   1.016  0.2804  0.1001 -0.2335
 2972TIP3    H130551   0.113   4.220   1.033  0.4268  0.2698  0.5093
 2972TIP3    H230552   0.128   4.359   1.090 -0.2318  0.7087 -0.3669
 2973TIP3   OH230553   6.051   5.473   2.221  0.0519  0.5338 -0.7361
 2973TIP3    H130554   6.026   5.383   2.241 -0.9355  1.3801  2.5206
 2973TIP3    H230555   6.147   5.473   2.226 -0.0101  0.1762  2.6227
 2974TIP3   OH230556   5.353   3.344   1.191 -0.2154  0.1492 -0.4846
 2974TIP3    H130557   5.259   3.328   1.194 -0.2277 -0.0674 -1.5545
 2974TIP3    H230558   5.363   3.424   1.139  0.2547 -0.8785 -2.0914
 2975TIP3   OH230559   5.739   0.065   2.302  0.4733 -0.4216 -0.1152
 2975TIP3    H130560   5.664   0.044   2.359 -0.1417  0.4202 -0.5923
 2975TIP3    H230561   5.788  -0.017   2.297 -0.0001 -0.7808  0.8297
 2976TIP3   OH230562   0.888   6.211   1.585  0.1527  0.0985  0.0143
 2976TIP3    H130563   0.829   6.181   1.517  0.7000  0.2567 -0.5400
 2976TIP3    H230564   0.855   6.297   1.610 -0.9130 -0.5553  1.0028
 2977TIP3   OH230565   6.621   0.449   7.143 -0.0208  0.3240 -0.1597
 2977TIP3    H130566   6.561   0.516   7.176 -1.0301 -1.0964  0.9916
 2977TIP3    H230567   6.591   0.432   7.054  0.3374  1.4728 -0.5224
 2978TIP3   OH230568   5.488   5.922   8.498 -0.3425  0.5945 -0.1632
 2978TIP3    H130569   5.538   5.942   8.419  2.6141  2.4317  1.9647
 2978TIP3    H230570   5.436   6.001   8.515 -2.3693 -0.4488 -1.0973
 2979TIP3   OH230571   1.595   1.828   8.405 -0.7132  0.7369 -0.7070
 2979TIP3    H130572   1.625   1.818   8.495 -1.7976  0.4969 -0.3534
 2979TIP3    H230573   1.662   1.881   8.362 -0.5566  1.4875  0.4404
 2980TIP3   OH230574   1.587   1.733   8.677  0.3278  0.2369  0.1414
 2980TIP3    H130575   1.634   1.813   8.702  0.4748  0.1349  0.1925
 2980TIP3    H230576   1.578   1.684   8.759  1.5175 -0.4708 -0.1281
 2981TIP3   OH230577   1.122   1.976   0.649  0.5194 -0.0402  0.1980
 2981TIP3    H130578   1.201   2.017   0.615  2.0108 -0.9545  2.3704
 2981TIP3    H230579   1.133   1.883   0.628 -0.5209 -0.0379 -0.4265
 2982TIP3   OH230580   6.542   1.762   2.770  0.3936  0.3399  0.1886
 2982TIP3    H130581   6.582   1.800   2.848 -1.3553 -0.5465  1.5868
 2982TIP3    H230582   6.495   1.835   2.730 -0.1030  0.4328  0.9239
 2983TIP3   OH230583   0.002   5.925   2.794  0.0327 -0.0828 -0.4960
 2983TIP3    H130584  -0.052   6.003   2.810  0.1691 -0.0312 -0.2832
 2983TIP3    H230585   0.089   5.960   2.777 -0.0691 -0.1476 -1.1786
 2984TIP3   OH230586   5.531   2.532   8.537 -0.3427 -0.1723  0.7294
 2984TIP3    H130587   5.468   2.496   8.474  0.6481 -2.4355  0.9445
 2984TIP3    H230588   5.594   2.462   8.551  1.9424  1.8069  0.9788
 2985TIP3   OH230589   1.568   1.165   1.498 -0.0247 -0.1688  0.3359
 2985TIP3    H130590   1.482   1.167   1.455 -0.4440  0.8019  1.1651
 2985TIP3    H230591   1.590   1.258   1.511  0.8709 -0.4197  0.6807
 2986TIP3   OH230592   0.360   0.120   8.064  0.7155 -0.4092  0.4639
 2986TIP3    H130593   0.448   0.130   8.099  1.2058 -0.2021 -0.7811
 2986TIP3    H230594   0.369   0.055   7.994  0.3600  1.3032 -1.2371
 2987TIP3   OH230595   4.566   1.988   2.236  0.1308  0.5064  0.5407
 2987TIP3    H130596   4.581   1.932   2.160 -1.3631  1.0074 -0.1649
 2987TIP3    H230597   4.612   2.069   2.216 -1.4826  1.2023 -0.5721
 2988TIP3   OH230598   5.929   0.857   0.889  0.1767  0.1322 -0.3138
 2988TIP3    H130599   5.886   0.868   0.974 -1.7262 -0.0399 -1.2010
 2988TIP3    H230600   6.019   0.886   0.904 -0.5522  1.7980  1.3223
 2989TIP3   OH230601   2.469   5.419   1.756 -0.0576 -0.2131  0.0164
 2989TIP3    H130602   2.406   5.467   1.810  0.2935 -0.0020  0.2525
 2989TIP3    H230603   2.478   5.334   1.798  1.0921  0.3632  0.9938
 2990TIP3   OH230604   2.723   2.179   7.641  0.0912  0.4000 -0.0137
 2990TIP3    H130605   2.686   2.238   7.576  0.8186  0.1645 -0.6575
 2990TIP3    H230606   2.655   2.115   7.657  0.5143 -0.5938 -1.8976
 2991TIP3   OH230607   4.949   4.647   8.447  0.0806  0.4573 -0.1716
 2991TIP3    H130608   4.937   4.649   8.542  1.0852 -0.3070 -0.0072
 2991TIP3    H230609   4.998   4.727   8.427  2.0292 -0.5328  0.3276
 2992TIP3   OH230610   0.410   3.485   7.991  0.6188 -0.2293  0.3183
 2992TIP3    H130611   0.491   3.517   8.031  1.5015  0.5891 -1.9770
 2992TIP3    H230612   0.425   3.491   7.897 -1.6580 -1.2776 -0.1845
 2993TIP3   OH230613   0.893   1.565   1.863 -0.0891  0.4503  0.0996
 2993TIP3    H130614   0.955   1.616   1.812  1.5887 -0.5534  1.0552
 2993TIP3    H230615   0.945   1.525   1.932 -1.7160 -0.8664  0.6436
 2994TIP3   OH230616   4.323   1.236   2.509 -0.2869 -0.0892 -0.5921
 2994TIP3    H130617   4.386   1.307   2.522  0.6504 -1.3431  2.9741
 2994TIP3    H230618   4.311   1.231   2.415  1.4439  3.1809 -1.1297
 2995TIP3   OH230619   1.655   1.828   7.314 -0.0325  0.2025  0.3088
 2995TIP3    H130620   1.646   1.748   7.262  2.3527  0.6421 -0.9475
 2995TIP3    H230621   1.652   1.799   7.405  1.8805 -1.5278 -0.1225
 2996TIP3   OH230622   4.205   0.375   0.985 -0.1257 -0.0578 -0.1450
 2996TIP3    H130623   4.185   0.469   0.992 -1.1616 -0.2260 -0.7484
 2996TIP3    H230624   4.188   0.353   0.894 -1.4421 -1.1616  0.3265
 2997TIP3   OH230625   6.059   6.485   1.757 -0.2920 -0.6101 -0.2129
 2997TIP3    H130626   6.082   6.403   1.713 -0.7471 -0.8914  0.0527
 2997TIP3    H230627   6.061   6.463   1.850 -1.3646 -0.5989 -0.1671
 2998TIP3   OH230628   3.871   4.725   8.258 -0.7478  0.2559  0.5066
 2998TIP3    H130629   3.867   4.685   8.171 -1.8627  0.6158  0.3748
 2998TIP3    H230630   3.920   4.662   8.312 -0.3802 -0.1393 -0.2822
 2999TIP3   OH230631   0.571   5.424   8.347 -0.5061 -0.0333 -0.2384
 2999TIP3    H130632   0.568   5.491   8.416 -1.7956  0.2268 -0.5238
 2999TIP3    H230633   0.480   5.416   8.317 -0.0095 -0.2316 -1.8122
 3000TIP3   OH230634   1.365   0.917   0.706  0.0973  0.9233  0.5640
 3000TIP3    H130635   1.277   0.885   0.726  0.5182 -0.1524  0.7860
 3000TIP3    H230636   1.410   0.918   0.790  0.5650  0.5809  0.3262
 3001TIP3   OH230637   6.634   5.805   0.551 -0.0924 -0.2250  0.8174
 3001TIP3    H130638   6.610   5.713   0.540 -1.3077  0.3444 -2.6853
 3001TIP3    H230639   6.550   5.851   0.557  0.4615  0.7589  1.1769
 3002TIP3   OH230640   0.401   1.464   8.512  0.0051 -0.3521 -0.3476
 3002TIP3    H130641   0.492   1.494   8.503 -0.1870  0.6464  0.8394
 3002TIP3    H230642   0.368   1.510   8.589 -1.6825 -0.3044 -1.0648
 3003TIP3   OH230643   2.153   5.514   8.725 -0.2697  0.4318  0.5671
 3003TIP3    H130644   2.247   5.496   8.720 -0.3286  0.5410 -1.6591
 3003TIP3    H230645   2.148   5.601   8.766  0.8804  2.1321 -2.5869
 3004TIP3   OH230646   3.447   6.325   2.082  0.3428  0.2611 -0.3046
 3004TIP3    H130647   3.534   6.331   2.042  0.9644  1.5319  1.1655
 3004TIP3    H230648   3.428   6.413   2.112 -2.0149  0.3055 -1.6448
 3005TIP3   OH230649   0.269   1.170   2.396 -0.3244  0.1952  0.1176
 3005TIP3    H130650   0.311   1.254   2.376 -0.0684  0.4527  1.6243
 3005TIP3    H230651   0.306   1.109   2.332 -0.5559  1.2202 -1.0396
 3006TIP3   OH230652   5.542   3.417   0.917  0.0959 -0.0524 -0.0731
 3006TIP3    H130653   5.615   3.354   0.923  0.8229  0.6702 -1.0742
 3006TIP3    H230654   5.470   3.366   0.880  0.0053 -0.8296  1.1153
 3007TIP3   OH230655   4.620   1.945   8.520  0.0683 -0.2399  0.3053
 3007TIP3    H130656   4.668   1.943   8.602 -0.4484 -0.4298  0.6105
 3007TIP3    H230657   4.660   2.016   8.470 -0.4072  0.6842  1.2122
 3008TIP3   OH230658   3.450   0.981   6.908 -0.0332 -0.5498 -0.2135
 3008TIP3    H130659   3.502   0.911   6.946 -1.5444 -2.9167 -2.2231
 3008TIP3    H230660   3.487   0.994   6.820 -0.0103  0.9683 -0.0119
 3009TIP3   OH230661   4.190   2.352   2.604 -0.3942  0.5310  0.3072
 3009TIP3    H130662   4.272   2.305   2.586  0.9694  3.9533 -4.8590
 3009TIP3    H230663   4.181   2.350   2.699  3.3856 -3.4716  0.9266
 3010TIP3   OH230664   3.435   5.044   0.474  0.4602  0.1802 -0.8455
 3010TIP3    H130665   3.392   4.958   0.474  1.0275 -0.1180 -1.7105
 3010TIP3    H230666   3.511   5.033   0.417 -0.4962  1.7589 -2.5475
 3011TIP3   OH230667   0.712   0.410   2.492 -0.5100 -0.1916 -0.2131
 3011TIP3    H130668   0.657   0.346   2.538 -1.0081  0.2365 -0.2055
 3011TIP3    H230669   0.696   0.492   2.538  1.3178 -0.3325  0.7869
 3012TIP3   OH230670   5.756   4.321   8.278  0.5985 -0.0692  0.0192
 3012TIP3    H130671   5.787   4.314   8.188  2.7335  0.3630  0.6621
 3012TIP3    H230672   5.705   4.403   8.279  1.9432  0.8168 -0.4674
 3013TIP3   OH230673   1.897   3.611   0.955 -0.5547  0.1005 -0.2314
 3013TIP3    H130674   1.976   3.608   0.901 -0.6122  1.7170 -0.4513
 3013TIP3    H230675   1.918   3.556   1.031 -0.3237 -1.8808 -1.6268
 3014TIP3   OH230676   1.960   4.665   7.970  0.2667  0.4000  0.0019
 3014TIP3    H130677   2.006   4.599   7.918  0.1402  0.1090  0.2557
 3014TIP3    H230678   1.878   4.679   7.924  0.3376  0.4554 -0.1081
 3015TIP3   OH230679   5.294   0.518   1.276  0.1919  0.5150 -0.2570
 3015TIP3    H130680   5.284   0.434   1.230 -0.1331  1.2974 -1.6730
 3015TIP3    H230681   5.388   0.527   1.287  0.2353 -0.0082 -0.1591
 3016TIP3   OH230682   0.198   6.591   8.098  0.0698 -0.1175  0.0745
 3016TIP3    H130683   0.141   6.575   8.023  0.6279  0.3177 -0.4524
 3016TIP3    H230684   0.245   6.671   8.076  1.3993 -0.8403  0.1660
 3017TIP3   OH230685   5.846   1.256   0.161 -0.7588 -0.3723 -0.1267
 3017TIP3    H130686   5.796   1.178   0.137  0.2268 -1.2970  0.6921
 3017TIP3    H230687   5.920   1.222   0.212 -0.1881  1.0857  0.0680
 3018TIP3   OH230688   3.634   5.365   8.311 -0.1311 -0.0163 -0.6091
 3018TIP3    H130689   3.634   5.417   8.231  2.5754  0.2931 -0.4971
 3018TIP3    H230690   3.723   5.331   8.318 -0.9353 -1.9988  1.0540
 3019TIP3   OH230691   6.264   2.769   1.629  0.3057  0.2622 -0.6271
 3019TIP3    H130692   6.260   2.677   1.604  1.3741  0.7874 -3.0454
 3019TIP3    H230693   6.245   2.769   1.723  1.7555 -2.5746 -0.1997
 3020TIP3   OH230694   5.720   1.878   1.694  0.1314 -0.6461  0.6283
 3020TIP3    H130695   5.639   1.827   1.695  0.7829 -1.7086  1.2100
 3020TIP3    H230696   5.736   1.894   1.601  0.6021 -2.7043  0.2975
 3021TIP3   OH230697   5.257   6.731   2.930  0.0838 -0.4635  0.0031
 3021TIP3    H130698   5.333   6.679   2.956  1.0215  0.7359 -0.1881
 3021TIP3    H230699   5.295   6.809   2.889 -1.2573  0.2092 -0.0294
 3022TIP3   OH230700   5.480   0.954   2.012  0.0063 -0.7906 -0.8408
 3022TIP3    H130701   5.397   0.916   1.984  0.4434 -2.0208 -0.5240
 3022TIP3    H230702   5.455   1.021   2.076 -0.7290 -1.3818 -0.4932
 3023TIP3   OH230703   3.890   4.510   0.151  0.2562 -0.1130 -0.1045
 3023TIP3    H130704   3.838   4.581   0.190 -3.1538 -1.5400 -1.6668
 3023TIP3    H230705   3.848   4.430   0.182  3.2359 -1.5267  0.6038
 3024TIP3   OH230706   3.257   0.737   1.346 -0.8716 -0.2428 -0.0748
 3024TIP3    H130707   3.165   0.717   1.327 -1.0988  1.7841 -1.3738
 3024TIP3    H230708   3.272   0.823   1.306  1.2655  0.0335  1.1583
 3025TIP3   OH230709   5.524   5.582   7.973  0.6048 -0.1851  0.0170
 3025TIP3    H130710   5.472   5.534   7.907  0.0722 -0.0646  0.3459
 3025TIP3    H230711   5.480   5.564   8.055  0.8138  0.3178  0.2374
 3026TIP3   OH230712   6.583   3.055   0.233  0.0980  0.3591  0.8086
 3026TIP3    H130713   6.646   3.076   0.163  0.1866  2.0269  1.3453
 3026TIP3    H230714   6.516   3.003   0.190  0.6180  0.5936 -0.3256
 3027TIP3   OH230715   1.679   5.408   0.400 -0.0375 -0.1137 -0.0709
 3027TIP3    H130716   1.734   5.331   0.416 -1.2861 -1.0040  0.0008
 3027TIP3    H230717   1.663   5.444   0.487  0.4852  0.2080 -0.0990
 3028TIP3   OH230718   2.352   4.495   1.275  0.0916 -0.3875  0.0414
 3028TIP3    H130719   2.404   4.445   1.212  0.4527 -0.2889  0.2552
 3028TIP3    H230720   2.417   4.548   1.322 -0.2905  0.3163 -0.2122
 3029TIP3   OH230721   2.561   4.595   1.428  0.4160  0.2871  0.0014
 3029TIP3    H130722   2.565   4.641   1.512  0.2628  0.9271 -0.3345
 3029TIP3    H230723   2.546   4.664   1.363 -2.6636 -0.5075 -0.2541
 3030TIP3   OH230724   4.425   3.969   8.649  0.1081 -0.2899 -0.0868
 3030TIP3    H130725   4.471   3.982   8.732 -1.4976  0.2917  0.7604
 3030TIP3    H230726   4.463   3.889   8.612  1.5060 -0.0327  0.7341
 3031TIP3   OH230727   1.294   2.694   7.883 -0.1171  0.3659 -0.1510
 3031TIP3    H130728   1.339   2.697   7.799 -1.0232 -0.6354 -0.6914
 3031TIP3    H230729   1.340   2.627   7.933 -1.5165 -1.3610 -1.0560
 3032TIP3   OH230730   4.936   2.814   2.516  0.1692  0.0557 -0.1401
 3032TIP3    H130731   4.959   2.723   2.534  0.5185  0.3835  1.2449
 3032TIP3    H230732   4.880   2.839   2.589  0.2055  0.9920 -0.4210
 3033TIP3   OH230733   0.830   4.429   0.451 -0.6335  0.4148 -0.0569
 3033TIP3    H130734   0.884   4.508   0.450 -1.2966  0.8748  0.1825
 3033TIP3    H230735   0.762   4.445   0.386 -0.7226  0.0024 -0.0671
 3034TIP3   OH230736   3.570   6.455   0.612  0.8722  0.2953  0.7542
 3034TIP3    H130737   3.547   6.365   0.633  4.4287 -0.7267  0.9192
 3034TIP3    H230738   3.563   6.460   0.517  0.9767 -0.2418  0.7158
 3035TIP3   OH230739   3.653   1.445   7.755  0.0592 -0.4899 -0.1150
 3035TIP3    H130740   3.651   1.367   7.700  1.7509 -1.2836  0.8645
 3035TIP3    H230741   3.624   1.416   7.841 -0.3100  0.2070  0.0070
 3036TIP3   OH230742   3.276   2.891   1.585  0.8677 -0.3153  0.5720
 3036TIP3    H130743   3.319   2.955   1.641 -0.3464 -0.9476  2.2971
 3036TIP3    H230744   3.293   2.922   1.496 -0.4305  2.9026  1.3244
 3037TIP3   OH230745   0.517   6.654   1.816 -0.0490  0.1542 -0.5796
 3037TIP3    H130746   0.515   6.600   1.895  2.8216 -0.9805 -1.1351
 3037TIP3    H230747   0.449   6.617   1.759 -2.8415  1.5993  1.5871
 3038TIP3   OH230748   4.403   4.385   2.898 -0.2472 -0.1305  0.4593
 3038TIP3    H130749   4.430   4.299   2.864 -0.0441  0.1525 -0.1154
 3038TIP3    H230750   4.372   4.432   2.821  0.2435  0.5384  0.6611
 3039TIP3   OH230751   2.611   6.327   0.816 -0.0923 -0.3885  0.3016
 3039TIP3    H130752   2.534   6.337   0.873  1.5513 -1.0683  2.8047
 3039TIP3    H230753   2.637   6.236   0.827  0.0668 -0.6635 -1.9523
 3040TIP3   OH230754   3.487   2.109   7.485 -0.2264  0.4026  0.2692
 3040TIP3    H130755   3.422   2.160   7.436 -0.3133 -0.2476 -0.3004
 3040TIP3    H230756   3.562   2.168   7.494 -0.6721  0.9564  0.4265
 3041TIP3   OH230757   4.218   1.820   1.846 -0.1386  0.3234 -0.0019
 3041TIP3    H130758   4.225   1.912   1.873 -0.9336  0.0712  1.1253
 3041TIP3    H230759   4.143   1.786   1.895  0.4060 -1.0503 -0.0663
 3042TIP3   OH230760   6.729   1.574   0.889  0.1029  0.5106  0.3827
 3042TIP3    H130761   6.770   1.655   0.859 -0.4795  0.2749 -1.1043
 3042TIP3    H230762   6.802   1.523   0.925  0.6052  1.3448  0.5826
 3043TIP3   OH230763   4.358   2.543   1.746 -0.2752  0.0952 -0.1909
 3043TIP3    H130764   4.353   2.450   1.766 -0.7097 -0.0665 -1.0396
 3043TIP3    H230765   4.267   2.569   1.731 -0.0599  0.4277 -0.9572
 3044TIP3   OH230766   6.656   2.819   8.691 -0.3790 -0.1450 -0.5616
 3044TIP3    H130767   6.699   2.768   8.623 -0.9303  0.7246 -1.6110
 3044TIP3    H230768   6.657   2.909   8.657 -2.7445 -0.0338 -0.5373
 3045TIP3   OH230769   1.941   5.356   0.774  0.1543 -0.2140  0.8132
 3045TIP3    H130770   2.034   5.376   0.777  0.3296 -1.0018  0.8081
 3045TIP3    H230771   1.937   5.262   0.758 -0.6341  0.1811 -1.7586
 3046TIP3   OH230772   2.332   1.136   2.293 -0.4923 -0.0649 -0.3459
 3046TIP3    H130773   2.254   1.082   2.306 -1.4709  0.9076 -1.8081
 3046TIP3    H230774   2.308   1.195   2.221  0.9795  1.4407  0.3324
 3047TIP3   OH230775   4.029   0.977   0.530 -0.8906  0.2213 -0.1388
 3047TIP3    H130776   4.014   0.985   0.436 -1.5168 -2.0924 -0.2755
 3047TIP3    H230777   4.020   1.067   0.563  0.7778  1.3374 -2.4448
 3048TIP3   OH230778   2.057   3.376   0.636  0.6326  0.2758 -0.2060
 3048TIP3    H130779   1.993   3.406   0.571  0.3171 -0.2343 -0.1433
 3048TIP3    H230780   2.141   3.405   0.603  0.4849 -0.0685 -0.9066
 3049TIP3   OH230781   4.468   4.168   8.275  0.0052  0.0550 -0.4365
 3049TIP3    H130782   4.405   4.166   8.347 -0.3241  0.3967 -0.7111
 3049TIP3    H230783   4.430   4.229   8.212  1.3090  1.4170  0.0373
 3050TIP3   OH230784   2.030   3.658   8.640  0.0012  0.2346  0.1591
 3050TIP3    H130785   1.950   3.607   8.653 -0.3387 -0.2551 -3.1114
 3050TIP3    H230786   2.004   3.748   8.657 -0.9897 -0.0389  0.1677
 3051TIP3   OH230787   3.869   0.551   0.232 -0.3391 -0.8145 -0.4363
 3051TIP3    H130788   3.805   0.623   0.229  0.6099  0.0883  0.4216
 3051TIP3    H230789   3.846   0.502   0.311 -0.7926 -1.2877 -0.8543
 3052TIP3   OH230790   0.006   3.730   2.440  0.0793 -0.0753 -0.0748
 3052TIP3    H130791   0.066   3.780   2.384 -0.3353 -1.3388 -1.7452
 3052TIP3    H230792   0.061   3.696   2.510  0.9401  0.3124 -0.5456
 3053TIP3   OH230793   0.860   3.913   7.410  0.6103 -0.4707  0.2843
 3053TIP3    H130794   0.853   3.843   7.345 -1.7363  0.6650 -0.8238
 3053TIP3    H230795   0.927   3.972   7.374  1.2084 -1.1538  0.2511
 3054TIP3   OH230796   5.740   5.569   0.006 -0.4047  0.0360  0.1349
 3054TIP3    H130797   5.737   5.616  -0.077 -1.8911 -0.4099 -0.0811
 3054TIP3    H230798   5.746   5.477  -0.019  1.8306 -0.0047  0.5585
 3055TIP3   OH230799   3.438   5.874   0.492 -0.3672  0.3129  0.5417
 3055TIP3    H130800   3.466   5.931   0.420  2.2730 -1.3694  0.0710
 3055TIP3    H230801   3.409   5.794   0.449  0.2948 -0.3431  1.2762
 3056TIP3   OH230802   2.948   2.077   1.100 -0.0865 -0.1556  0.7060
 3056TIP3    H130803   2.970   2.010   1.035  1.2799  0.1335  0.8441
 3056TIP3    H230804   2.887   2.135   1.055 -0.9042 -1.2067  0.4230
 3057TIP3   OH230805   5.899   6.189   0.988  0.4071  0.3116  0.1982
 3057TIP3    H130806   5.912   6.183   0.893  1.4470  0.4307  0.3170
 3057TIP3    H230807   5.957   6.261   1.015 -1.9040  2.1482  0.5687
 3058TIP3   OH230808   6.099   6.645   8.226 -0.3081  0.2554 -0.6121
 3058TIP3    H130809   6.029   6.595   8.185 -0.6701  0.6192 -0.4375
 3058TIP3    H230810   6.111   6.605   8.312  1.5063 -1.5193 -1.6095
 3059TIP3   OH230811   0.896   5.361   2.061  0.0029  0.1774  0.1609
 3059TIP3    H130812   0.941   5.307   2.126  0.4412  0.0144 -0.2714
 3059TIP3    H230813   0.910   5.451   2.091  2.2891  0.2746 -0.9574
 3060TIP3   OH230814   0.894   3.056   7.863 -0.6482 -0.1025 -0.1804
 3060TIP3    H130815   0.839   3.029   7.937 -0.0534  0.1854  0.3835
 3060TIP3    H230816   0.954   2.983   7.850 -0.5407 -0.0172 -0.1650
 3061TIP3   OH230817   4.209   2.291   8.159 -0.8509 -0.1514  0.5664
 3061TIP3    H130818   4.218   2.348   8.082 -0.2382  0.4679  1.0794
 3061TIP3    H230819   4.246   2.342   8.231  1.7258 -1.9844  0.6911
 3062TIP3   OH230820   0.829   4.583   8.789  0.0320 -0.5605 -0.2973
 3062TIP3    H130821   0.811   4.586   8.695  0.5904  1.0529 -0.3945
 3062TIP3    H230822   0.749   4.615   8.830  0.2819  0.1190 -0.3249
 3063TIP3   OH230823   5.377   4.505   1.383 -0.0096  0.4181  0.0538
 3063TIP3    H130824   5.283   4.518   1.394  0.0858  1.8989 -0.6136
 3063TIP3    H230825   5.417   4.587   1.412  1.0308  0.0588 -0.2908
 3064TIP3   OH230826   6.121   2.310   0.571  0.0299  0.0447  0.1076
 3064TIP3    H130827   6.055   2.327   0.638 -1.0705 -1.0101 -0.6613
 3064TIP3    H230828   6.076   2.254   0.507  1.5687 -0.3899 -0.6332
 3065TIP3   OH230829   2.262   2.848   1.645 -0.4317 -0.2335  0.1200
 3065TIP3    H130830   2.197   2.784   1.674 -1.1087 -0.3152 -1.4851
 3065TIP3    H230831   2.347   2.806   1.663 -0.8491 -1.1056  0.1137
 3066TIP3   OH230832   2.922   4.114   1.063 -0.2886  0.0564 -0.6456
 3066TIP3    H130833   2.877   4.102   1.147  0.4986 -0.4564 -0.2785
 3066TIP3    H230834   2.896   4.038   1.011 -0.7614  0.3643 -0.8557
 3067TIP3   OH230835   4.861   1.038   8.499 -0.3113 -0.0080  0.3092
 3067TIP3    H130836   4.889   1.022   8.409 -1.9719  3.2437 -0.9498
 3067TIP3    H230837   4.942   1.048   8.548  0.6363 -0.6342 -1.0690
 3068TIP3   OH230838   5.834   4.947   7.271 -0.2449 -0.3250  0.3400
 3068TIP3    H130839   5.878   4.908   7.195 -0.2420  1.2314 -0.5035
 3068TIP3    H230840   5.744   4.917   7.265 -0.7302  1.2482 -1.4241
 3069TIP3   OH230841   4.265   2.276   0.356  0.3402  0.1554 -0.2961
 3069TIP3    H130842   4.270   2.291   0.261 -0.8844 -0.7913 -0.5462
 3069TIP3    H230843   4.333   2.332   0.393  2.6799 -1.4119 -1.9297
 3070TIP3   OH230844   2.311   5.485   2.632  0.1268  0.4984 -0.1129
 3070TIP3    H130845   2.402   5.513   2.629  0.4327 -0.5062 -0.8264
 3070TIP3    H230846   2.310   5.413   2.696 -0.0520  0.1426 -0.5117
 3071TIP3   OH230847   4.052   6.502   7.042 -0.4614 -0.1000  0.1679
 3071TIP3    H130848   4.055   6.549   7.125 -0.7637 -0.4314  0.3653
 3071TIP3    H230849   4.076   6.568   6.976 -0.6459  0.2680  0.4701
 3072TIP3   OH230850   5.040   1.353   1.749  0.3180  0.0402 -0.2047
 3072TIP3    H130851   4.945   1.343   1.755  0.4674 -0.5903  2.3313
 3072TIP3    H230852   5.074   1.303   1.823  2.6154  0.6509 -0.7642
 3073TIP3   OH230853   0.230   3.619   0.364  0.0283 -0.6514  0.5269
 3073TIP3    H130854   0.232   3.633   0.459 -0.7231 -0.1774  0.4741
 3073TIP3    H230855   0.160   3.675   0.332 -0.4696 -1.6395 -0.1732
 3074TIP3   OH230856   2.664   0.033   7.794  0.2695 -0.1086 -0.1643
 3074TIP3    H130857   2.648   0.005   7.704  1.6334 -0.3052 -0.3708
 3074TIP3    H230858   2.714   0.115   7.785  0.7647 -0.3377  0.4037
 3075TIP3   OH230859   2.372   1.235   7.757 -0.1591  0.3832 -0.2017
 3075TIP3    H130860   2.448   1.186   7.788  0.8716  2.4342  0.7576
 3075TIP3    H230861   2.307   1.225   7.826  0.2105  0.7104  0.2018
 3076TIP3   OH230862   2.351   3.768   8.197  0.0283 -0.0707  0.1204
 3076TIP3    H130863   2.281   3.733   8.252  0.0846 -1.5256 -0.6740
 3076TIP3    H230864   2.343   3.719   8.115  1.1519  0.6812 -0.4606
 3077TIP3   OH230865   1.558   0.339   0.524  0.3522 -0.0896  0.6167
 3077TIP3    H130866   1.540   0.340   0.618  2.0049  0.4860  0.9487
 3077TIP3    H230867   1.582   0.248   0.505  0.2591 -0.1532  0.8001
 3078TIP3   OH230868   3.422   4.262   1.880  0.2167  0.2996 -0.6369
 3078TIP3    H130869   3.436   4.228   1.968  0.9196  1.3446 -0.3305
 3078TIP3    H230870   3.466   4.347   1.879  1.3076 -0.2277 -2.3630
 3079TIP3   OH230871   3.575   0.651   1.156 -0.7433 -0.0953  0.2787
 3079TIP3    H130872   3.626   0.571   1.165  0.2262  0.3912 -0.6861
 3079TIP3    H230873   3.484   0.621   1.154 -0.4099 -1.1406  0.2697
 3080TIP3   OH230874   4.213   5.514   8.248 -1.0664 -0.4623  0.1358
 3080TIP3    H130875   4.129   5.555   8.226 -1.3035 -0.0911  1.6630
 3080TIP3    H230876   4.215   5.435   8.194 -2.3566 -0.4242 -0.0079
 3081TIP3   OH230877   6.671   0.293   2.224  0.0623 -0.6231 -0.3298
 3081TIP3    H130878   6.629   0.297   2.310 -0.5360 -1.6961 -0.5529
 3081TIP3    H230879   6.754   0.338   2.236 -0.1408 -0.4938  0.7309
 3082TIP3   OH230880   5.394   3.800   8.401  0.5241  0.2980  0.1607
 3082TIP3    H130881   5.334   3.785   8.474 -0.2134 -0.4144 -0.5747
 3082TIP3    H230882   5.423   3.891   8.413  1.0735 -0.0420  1.7885
 3083TIP3   OH230883   4.529   4.276   1.749  0.1406  0.3711  0.1292
 3083TIP3    H130884   4.435   4.287   1.736 -0.0809  0.3600  1.5934
 3083TIP3    H230885   4.556   4.352   1.801  1.0653  0.6924 -0.7799
 3084TIP3   OH230886   6.838   0.806   1.031 -0.5699  0.2565  0.3302
 3084TIP3    H130887   6.814   0.765   1.114 -0.3522 -2.0769 -0.7018
 3084TIP3    H230888   6.794   0.755   0.964  3.7600 -1.7493 -1.3850
 3085TIP3   OH230889   3.097   5.598   8.719 -0.0149 -0.0559  0.3357
 3085TIP3    H130890   3.185   5.635   8.720  0.5373 -1.3386  0.7301
 3085TIP3    H230891   3.063   5.618   8.632  0.9539 -0.2097 -0.0808
 3086TIP3   OH230892   3.853   4.681   0.947 -0.0297 -0.1766 -0.0891
 3086TIP3    H130893   3.909   4.725   1.011  0.3191 -2.6360  1.4374
 3086TIP3    H230894   3.768   4.723   0.957  0.2546  0.1245  1.3770
 3087TIP3   OH230895   6.090   5.379   7.724  0.6512  0.1296  0.2258
 3087TIP3    H130896   6.025   5.429   7.675  1.7012  0.9052 -0.4025
 3087TIP3    H230897   6.098   5.296   7.676  1.5860  0.8374 -0.8878
 3088TIP3   OH230898   1.984   3.491   1.986 -0.2434  0.2929 -0.0609
 3088TIP3    H130899   2.028   3.408   1.966  0.2994  0.6100 -0.1993
 3088TIP3    H230900   1.891   3.468   1.992 -0.0821 -0.3504  0.0491
 3089TIP3   OH230901   3.189   1.919   1.733  0.2252 -0.3407  0.1075
 3089TIP3    H130902   3.218   2.001   1.773  1.6834 -0.6190 -0.3123
 3089TIP3    H230903   3.243   1.911   1.654 -1.1235 -0.8441 -0.7987
 3090TIP3   OH230904   5.815   4.071   1.081  0.1976 -0.0326 -0.4486
 3090TIP3    H130905   5.902   4.102   1.056  1.7163 -1.9233  2.0774
 3090TIP3    H230906   5.825   3.977   1.091 -2.5053 -0.4936 -1.2152
 3091TIP3   OH230907   6.341   0.045   8.510 -0.2999 -0.3237 -0.0542
 3091TIP3    H130908   6.260   0.045   8.459 -0.6155  0.7654  0.4289
 3091TIP3    H230909   6.409   0.019   8.448 -0.5703  1.5764 -1.2032
 3092TIP3   OH230910   5.897   5.288   0.340  0.3441  0.3227  0.2779
 3092TIP3    H130911   5.976   5.282   0.286  0.0339  1.1524 -0.2855
 3092TIP3    H230912   5.847   5.210   0.318  0.8638 -0.0591  0.4189
 3093TIP3   OH230913   1.872   2.697   8.116 -0.1258  0.2715  0.1848
 3093TIP3    H130914   1.953   2.697   8.065  0.4701  0.1682  1.1012
 3093TIP3    H230915   1.817   2.764   8.074  0.2161 -0.0310 -0.7710
 3094TIP3   OH230916   6.318   5.439   2.525 -0.2028 -0.3536  0.2230
 3094TIP3    H130917   6.304   5.350   2.558  0.0991 -0.9378 -1.1757
 3094TIP3    H230918   6.348   5.427   2.435  0.1427  1.1610  0.1126
 3095TIP3   OH230919   4.186   3.813   1.469 -0.2527 -0.5273 -0.0617
 3095TIP3    H130920   4.163   3.882   1.531 -2.7806 -2.1042  0.8676
 3095TIP3    H230921   4.122   3.823   1.398  1.7984  0.4345 -1.9115
 3096TIP3   OH230922   0.359   1.673   1.091 -0.3163 -0.4731 -0.0554
 3096TIP3    H130923   0.350   1.673   0.996  0.8304  0.4793 -0.1972
 3096TIP3    H230924   0.445   1.633   1.107 -0.3482 -0.3083  0.5580
 3097TIP3   OH230925   0.791   6.737   0.448  0.5099  0.2996  0.2256
 3097TIP3    H130926   0.786   6.829   0.421  0.8802  0.1907 -0.2256
 3097TIP3    H230927   0.702   6.704   0.434 -0.2597  1.1498  2.5241
 3098TIP3   OH230928   5.868   6.076   1.929  0.3097  0.7914  0.3219
 3098TIP3    H130929   5.802   6.030   1.981 -0.4903  1.1715 -0.3305
 3098TIP3    H230930   5.843   6.168   1.935 -0.0101  0.8069 -1.0097
 3099TIP3   OH230931   1.689   6.272   7.567  0.2822 -0.4859 -0.0486
 3099TIP3    H130932   1.761   6.312   7.518  0.5177  0.4464  1.0033
 3099TIP3    H230933   1.701   6.178   7.557  0.6311 -0.3148 -1.3172
 3100TIP3   OH230934   1.156   1.580   2.245 -0.2362  0.4257  0.0154
 3100TIP3    H130935   1.130   1.630   2.323 -0.0296  1.5332 -0.6016
 3100TIP3    H230936   1.194   1.500   2.280  1.1024  1.4846  1.1214
 3101TIP3   OH230937   6.827   2.997   1.998 -0.2435  0.5313 -0.1912
 3101TIP3    H130938   6.810   2.939   1.923  2.0384 -0.3904 -0.0940
 3101TIP3    H230939   6.919   3.021   1.988 -0.0452  0.8560  2.0047
 3102TIP3   OH230940   5.222   5.489   1.271 -0.0458  0.4651 -0.2406
 3102TIP3    H130941   5.195   5.560   1.328 -1.7364 -0.5609  0.3213
 3102TIP3    H230942   5.139   5.452   1.238  0.6712 -2.1363  0.6322
 3103TIP3   OH230943   2.609   3.552   7.991 -0.6855  0.1634  0.5381
 3103TIP3    H130944   2.556   3.472   7.983 -1.8683  0.9315  0.4111
 3103TIP3    H230945   2.686   3.525   8.041 -0.8852 -1.1330  0.1786
 3104TIP3   OH230946   4.712   5.862   1.918 -0.3758  0.1889  0.1653
 3104TIP3    H130947   4.718   5.767   1.915  1.5756  0.2484  0.3790
 3104TIP3    H230948   4.630   5.880   1.964  0.6524 -1.4579  2.8906
 3105TIP3   OH230949   2.664   5.330   7.882  0.5256  0.1467  0.4344
 3105TIP3    H130950   2.586   5.369   7.842  0.6022 -0.8803 -0.7879
 3105TIP3    H230951   2.737   5.364   7.830  0.6831 -0.7162  0.0711
 3106TIP3   OH230952   3.686   4.126   2.072 -0.0122  0.0417 -0.4373
 3106TIP3    H130953   3.773   4.091   2.094 -0.3575 -0.5784 -0.0322
 3106TIP3    H230954   3.670   4.095   1.982  1.1681  2.1258 -1.4352
 3107TIP3   OH230955   4.829   1.405   8.773 -0.1885 -0.3246  0.0270
 3107TIP3    H130956   4.782   1.357   8.705  0.1158  1.9145 -1.9029
 3107TIP3    H230957   4.784   1.490   8.778 -0.6715 -0.6392  3.2355
 3108TIP3   OH230958   4.278   1.338   0.699 -0.2288 -0.5152  0.6204
 3108TIP3    H130959   4.365   1.371   0.674  0.2850  1.8891  4.7072
 3108TIP3    H230960   4.296   1.268   0.761 -1.1980 -0.2866  1.1807
 3109TIP3   OH230961   0.329   1.769   2.111  0.2022 -0.4795  0.0249
 3109TIP3    H130962   0.322   1.825   2.189  0.8653  0.6795 -0.7239
 3109TIP3    H230963   0.250   1.715   2.114 -0.8044  0.9397  0.4448
 3110TIP3   OH230964   3.241   1.464   7.414  0.2639 -0.0015 -0.6601
 3110TIP3    H130965   3.336   1.467   7.428 -0.0331  2.9316  2.1158
 3110TIP3    H230966   3.205   1.447   7.501 -1.7325  1.5885 -1.0856
 3111TIP3   OH230967   5.677   1.332   2.744  0.2697 -0.1931  0.2845
 3111TIP3    H130968   5.617   1.280   2.798  2.0773 -0.7430  1.8745
 3111TIP3    H230969   5.736   1.374   2.807  0.8296  1.2983 -1.1527
 3112TIP3   OH230970   2.458   6.180   6.976  0.0180  0.0482  0.3420
 3112TIP3    H130971   2.363   6.184   6.968  0.1887  0.2088 -2.7694
 3112TIP3    H230972   2.480   6.256   7.030 -1.5967 -0.4654  1.8459
 3113TIP3   OH230973   3.571   5.289   3.153 -0.4268 -0.1125 -0.2037
 3113TIP3    H130974   3.574   5.378   3.115 -1.3669  0.1470  0.3201
 3113TIP3    H230975   3.659   5.276   3.189 -0.2682  0.5934 -0.3191
 3114TIP3   OH230976   3.064   3.331   0.752 -0.5275  0.4093  0.1666
 3114TIP3    H130977   3.121   3.336   0.674  0.0741  2.1585  0.6571
 3114TIP3    H230978   3.125   3.334   0.826 -1.0724 -1.5813  0.7540
 3115TIP3   OH230979   5.809   2.936   8.682  0.1294  0.1545 -0.5926
 3115TIP3    H130980   5.767   2.980   8.608 -1.2232 -0.0397  0.0362
 3115TIP3    H230981   5.885   2.893   8.643 -0.1725  0.6193 -1.7490
 3116TIP3   OH230982   0.832   0.170   0.060  0.1958  0.3091  0.0003
 3116TIP3    H130983   0.860   0.080   0.046  1.0633  0.7042 -0.9858
 3116TIP3    H230984   0.913   0.217   0.082 -0.3066  0.7808  0.8806
 3117TIP3   OH230985   6.812   1.078   1.407  0.4534 -0.4062  0.6037
 3117TIP3    H130986   6.795   1.133   1.331 -0.1460 -0.8363  0.4263
 3117TIP3    H230987   6.737   1.092   1.465  1.8936  1.5987  2.1454
 3118TIP3   OH230988   5.739   0.994   1.928 -0.4230  0.3714 -0.0760
 3118TIP3    H130989   5.651   0.974   1.960 -0.1110  0.3872  0.8168
 3118TIP3    H230990   5.796   0.934   1.976 -0.1424 -1.3315 -2.3630
 3119TIP3   OH230991   3.699   0.159   2.044 -0.2936  0.7252 -0.1790
 3119TIP3    H130992   3.710   0.253   2.057 -0.5843  1.1501 -2.5252
 3119TIP3    H230993   3.784   0.129   2.011 -0.3531  0.2704  0.0760
 3120TIP3   OH230994   2.219   3.013   0.399  0.4169  0.1103 -0.5330
 3120TIP3    H130995   2.154   2.947   0.374  1.2688 -0.9456 -0.0454
 3120TIP3    H230996   2.294   2.963   0.429  1.0572  1.3144 -0.0368
 3121TIP3   OH230997   3.273   2.161   1.822  0.1858  0.3327 -0.3006
 3121TIP3    H130998   3.227   2.222   1.764 -0.7193  1.0840  1.1480
 3121TIP3    H230999   3.270   2.202   1.908  1.4546 -0.7717  0.3107
 3122TIP3   OH231000   2.201   6.168   7.079  0.3047  0.1210  0.2239
 3122TIP3    H131001   2.145   6.240   7.052  0.6189 -0.4426 -2.1334
 3122TIP3    H231002   2.141   6.103   7.116 -0.4698 -0.0093 -1.2224
 3123TIP3   OH231003   5.757   0.229   0.523 -0.6252  0.6033  0.1761
 3123TIP3    H131004   5.850   0.221   0.500 -1.0102 -1.8705 -0.8380
 3123TIP3    H231005   5.735   0.146   0.564 -2.8600  0.3077 -1.4479
 3124TIP3   OH231006   2.030   1.747   1.966  0.2650 -0.1572  0.1999
 3124TIP3    H131007   2.025   1.745   2.061  1.0968  2.3977  0.3676
 3124TIP3    H231008   1.944   1.781   1.938  0.7204  1.0630  0.2142
 3125TIP3   OH231009   0.880   3.162   7.216  0.4384  0.4711 -0.4917
 3125TIP3    H131010   0.809   3.211   7.257 -1.2476 -1.3738 -1.0752
 3125TIP3    H231011   0.902   3.213   7.138  0.1568  1.3502 -0.0075
 3126TIP3   OH231012   2.344   6.204   1.366  0.6005  0.0637  0.1622
 3126TIP3    H131013   2.427   6.243   1.339  0.6241  0.2596  0.5036
 3126TIP3    H231014   2.289   6.279   1.389  0.2515 -0.0564 -0.2842
 3127TIP3   OH231015   0.915   2.806   1.523  0.1977  0.0854  0.1894
 3127TIP3    H131016   0.852   2.877   1.512 -0.6672 -0.8080 -0.9283
 3127TIP3    H231017   0.916   2.790   1.618 -0.5331  0.7563  0.3221
 3128TIP3   OH231018   6.071   6.144   7.514  0.4674 -0.1885 -0.0928
 3128TIP3    H131019   6.021   6.223   7.534  0.8644  0.1959 -0.5895
 3128TIP3    H231020   6.160   6.164   7.543  0.4888 -0.6021  0.1352
 3129TIP3   OH231021   2.806   6.460   7.227 -0.7802  0.1223 -0.1688
 3129TIP3    H131022   2.835   6.505   7.148  0.7013  0.5934  0.6080
 3129TIP3    H231023   2.807   6.528   7.295  0.9521 -0.9123  0.9083
 3130TIP3   OH231024   1.325   5.971   8.008 -0.0798 -0.2059 -0.0658
 3130TIP3    H131025   1.249   6.018   8.040  0.6568  1.1239 -0.2089
 3130TIP3    H231026   1.307   5.954   7.916  0.3489  1.3015 -0.4437
 3131TIP3   OH231027   1.148   2.184   6.875 -0.3727  0.0860  0.1485
 3131TIP3    H131028   1.159   2.247   6.946 -0.4285  0.0186  0.2167
 3131TIP3    H231029   1.054   2.168   6.871 -0.3175 -0.3190  0.4142
 3132TIP3   OH231030   1.969   2.519   0.785  0.3468 -0.2586  0.0454
 3132TIP3    H131031   2.021   2.596   0.808 -1.5694  1.3069 -0.5656
 3132TIP3    H231032   1.883   2.537   0.821 -0.4068 -1.6918 -0.9523
 3133TIP3   OH231033   2.083   6.102   1.307 -0.0855  0.4042  0.8564
 3133TIP3    H131034   2.150   6.165   1.333  0.8354 -0.0202 -0.3406
 3133TIP3    H231035   2.001   6.151   1.309  0.5412  1.5180  0.4162
 3134TIP3   OH231036   0.216   6.605   1.325 -0.3645 -0.9074  0.9014
 3134TIP3    H131037   0.170   6.591   1.243 -1.4068 -2.2452  1.6654
 3134TIP3    H231038   0.289   6.543   1.322  0.8240  0.4736  0.1447
 3135TIP3   OH231039   4.514   0.828   2.169 -0.1336  0.7799  0.2234
 3135TIP3    H131040   4.538   0.738   2.192 -0.2648  0.4813 -0.7671
 3135TIP3    H231041   4.420   0.833   2.185  0.2147  1.3915  2.3103
 3136TIP3   OH231042   2.001   1.092   8.753 -0.1047 -0.2953 -0.3944
 3136TIP3    H131043   1.936   1.115   8.820  0.8649  0.6975  0.2442
 3136TIP3    H231044   2.040   1.176   8.728  2.0351 -0.9997  0.3988
 3137TIP3   OH231045   1.648   5.276   0.735 -0.2152  0.3247  0.4528
 3137TIP3    H131046   1.651   5.187   0.700  1.6733  1.3366 -2.4013
 3137TIP3    H231047   1.693   5.271   0.819  2.7943 -0.9941 -1.0650
 3138TIP3   OH231048   5.119   6.058   8.199 -0.4415  0.0645 -0.0260
 3138TIP3    H131049   5.119   5.973   8.155  0.5148 -0.5168  1.0322
 3138TIP3    H231050   5.208   6.066   8.234 -1.3402  0.1328  2.4244
 3139TIP3   OH231051   2.684   2.350   7.439 -0.5229 -0.1165 -0.2639
 3139TIP3    H131052   2.734   2.428   7.414 -1.3518  1.1100  1.6250
 3139TIP3    H231053   2.607   2.353   7.381  0.7250 -1.1434 -2.0930
 3140TIP3   OH231054   6.003   2.573   1.652  0.1107  0.1977 -0.1817
 3140TIP3    H131055   5.950   2.634   1.703  1.3250  0.6775  0.5477
 3140TIP3    H231056   5.993   2.489   1.698  1.2808  0.6481  0.9561
 3141TIP3   OH231057   3.606   5.573   1.257  0.5539  0.7596 -0.0975
 3141TIP3    H131058   3.630   5.576   1.350  2.6074  0.8962 -0.5709
 3141TIP3    H231059   3.533   5.511   1.253  1.1570 -0.1329  1.4770
 3142TIP3   OH231060   6.638   2.251   8.166  0.5515  0.3465  0.1896
 3142TIP3    H131061   6.622   2.323   8.226  1.4903  1.1991 -0.5441
 3142TIP3    H231062   6.709   2.282   8.110 -0.1039 -0.5208 -1.1775
 3143TIP3   OH231063   1.258   3.350   7.374 -0.1079  0.3214  0.7324
 3143TIP3    H131064   1.288   3.288   7.308  1.8013  1.9939 -0.1127
 3143TIP3    H231065   1.338   3.374   7.422 -1.0747  0.8499  2.1504
 3144TIP3   OH231066   5.032   0.201   6.528  0.4161 -0.5991  0.2336
 3144TIP3    H131067   5.115   0.247   6.537  0.5867 -1.0121  0.8552
 3144TIP3    H231068   5.055   0.118   6.487  0.4282 -1.0250  1.0795
 3145TIP3   OH231069   5.594   4.153   1.646 -0.0299 -0.4307 -0.6577
 3145TIP3    H131070   5.541   4.117   1.575 -1.5533 -1.4958  0.9493
 3145TIP3    H231071   5.683   4.123   1.628 -0.4867 -1.1583 -1.7890
 3146TIP3   OH231072   2.155   6.400   1.386  0.3810  0.5050  0.3597
 3146TIP3    H131073   2.065   6.412   1.357  1.1449 -0.4973 -2.8115
 3146TIP3    H231074   2.204   6.470   1.343  1.3270  0.2101  0.9152
 3147TIP3   OH231075   2.021   5.565   7.990 -0.3706  0.3406  0.2524
 3147TIP3    H131076   2.073   5.499   7.945 -0.7060  0.8208 -0.8699
 3147TIP3    H231077   2.079   5.641   7.999 -1.0130  1.1085 -1.5756
 3148TIP3   OH231078   4.552   0.474   1.211 -0.5274 -0.2481  0.5541
 3148TIP3    H131079   4.521   0.404   1.270  2.6024 -1.1403  1.3243
 3148TIP3    H231080   4.494   0.548   1.230 -0.5365 -0.9300  3.8015
 3149TIP3   OH231081   4.283   0.376   8.572 -0.0449 -0.0773 -0.3425
 3149TIP3    H131082   4.211   0.314   8.568  0.7739 -1.0741  0.0205
 3149TIP3    H231083   4.244   0.455   8.609 -0.9578 -0.5802 -0.1969
 3150TIP3   OH231084   2.431   6.391   1.810  0.3759 -1.1299 -0.6067
 3150TIP3    H131085   2.405   6.483   1.799  0.4365 -0.8447  1.2530
 3150TIP3    H231086   2.510   6.382   1.758  0.7022  0.0409 -0.3540
 3151TIP3   OH231087   6.351   6.520   0.782 -1.0896  0.1852 -0.2670
 3151TIP3    H131088   6.346   6.430   0.749  1.9454 -0.4346  0.6267
 3151TIP3    H231089   6.405   6.566   0.717  1.3565  0.0422  1.5267
 3152TIP3   OH231090   0.041   3.777   1.183  0.4662  0.2879 -0.1636
 3152TIP3    H131091   0.111   3.729   1.138  0.0586  1.1152 -1.7437
 3152TIP3    H231092  -0.021   3.800   1.114 -0.9227  0.3900  1.0503
 3153TIP3   OH231093   1.342   4.207   0.217  0.7638  0.0788  0.7267
 3153TIP3    H131094   1.323   4.114   0.207 -1.7597  0.6173 -0.2666
 3153TIP3    H231095   1.411   4.225   0.154  0.6353 -0.9568  0.2725
 3154TIP3   OH231096   2.457   2.959   8.699 -0.5483 -0.1215  0.3484
 3154TIP3    H131097   2.515   2.892   8.663  0.5492  0.5558  0.7919
 3154TIP3    H231098   2.439   2.930   8.788  1.8453  1.2430  1.3939
 3155TIP3   OH231099   4.668   3.751   2.028  0.9840  0.4623 -0.1786
 3155TIP3    H131100   4.580   3.733   1.995  0.5182 -0.4323  1.4567
 3155TIP3    H231101   4.663   3.839   2.064  0.4216  0.0138  0.8866
 3156TIP3   OH231102   3.343   5.779   0.881 -0.6259  0.2109 -0.4321
 3156TIP3    H131103   3.419   5.791   0.938 -0.7106 -0.1034 -0.2524
 3156TIP3    H231104   3.297   5.863   0.885 -1.1884 -0.1394  0.7733
 3157TIP3   OH231105   4.931   3.501   0.536 -0.1156 -0.2394  0.4144
 3157TIP3    H131106   4.850   3.538   0.570 -0.2860  0.0412 -0.2835
 3157TIP3    H231107   4.942   3.542   0.449  0.0283 -1.3233 -0.0950
 3158TIP3   OH231108   3.128   2.176   8.011  0.9971  0.5718 -0.1345
 3158TIP3    H131109   3.180   2.137   8.081 -0.6594 -1.4947  0.0656
 3158TIP3    H231110   3.113   2.103   7.949  0.0665  1.6164 -1.1859
 3159TIP3   OH231111   3.246   2.220   7.695  0.5963  0.1498  0.3183
 3159TIP3    H131112   3.178   2.230   7.628 -0.7276 -0.9696  1.4315
 3159TIP3    H231113   3.281   2.308   7.707 -0.7663  0.7899 -0.1895
 3160TIP3   OH231114   1.863   6.479   8.707 -0.4220  0.5312  0.0508
 3160TIP3    H131115   1.835   6.392   8.735 -0.5472  0.0338 -1.5334
 3160TIP3    H231116   1.901   6.518   8.785  2.2736 -2.0172  0.1918
 3161TIP3   OH231117   0.606   0.225   2.751  0.5604  1.1027  0.2554
 3161TIP3    H131118   0.582   0.312   2.782 -1.2371  0.4292  0.8436
 3161TIP3    H231119   0.535   0.200   2.691  1.9867  0.7612 -1.3868
 3162TIP3   OH231120   2.764   2.768   6.839 -0.4268 -0.5074  0.5883
 3162TIP3    H131121   2.857   2.744   6.838  0.3331  2.1232 -0.0442
 3162TIP3    H231122   2.762   2.854   6.880 -2.6524 -0.6177  0.8223
 3163TIP3   OH231123   6.020   2.980   2.531  0.1431 -0.4553  0.0762
 3163TIP3    H131124   5.990   2.990   2.622  0.4585  0.2658  0.1050
 3163TIP3    H231125   6.094   2.920   2.537  0.9814  0.5984  0.4654
 3164TIP3   OH231126   6.317   0.695   7.971 -0.5444  0.3774 -0.0383
 3164TIP3    H131127   6.332   0.725   8.061 -1.4439  0.5634  0.0589
 3164TIP3    H231128   6.266   0.615   7.981  1.9182 -1.3508 -0.2909
 3165TIP3   OH231129   0.862   5.176   1.551  0.4569  0.6849 -0.0751
 3165TIP3    H131130   0.879   5.195   1.643  1.0959 -0.2158 -0.0021
 3165TIP3    H231131   0.793   5.110   1.552  2.3776 -1.4484 -0.1105
 3166TIP3   OH231132   2.506   3.132   8.493  0.1289 -0.2689 -0.4370
 3166TIP3    H131133   2.498   3.067   8.562 -0.1573 -0.3561 -0.5506
 3166TIP3    H231134   2.503   3.216   8.539  1.0436 -0.3423 -0.2394
 3167TIP3   OH231135   3.153   0.801   2.727 -0.1631  0.1894 -0.1781
 3167TIP3    H131136   3.249   0.802   2.719 -0.1928 -0.6718 -0.7566
 3167TIP3    H231137   3.123   0.867   2.664  0.0539  0.7151  0.2573
 3168TIP3   OH231138   0.027   0.988   0.210  0.2235  0.6673 -0.5182
 3168TIP3    H131139   0.050   0.902   0.175  1.3007  0.4495  0.6742
 3168TIP3    H231140   0.024   1.045   0.133  0.2986 -0.2587 -1.2282
 3169TIP3   OH231141   3.080   0.162   8.150 -0.3779 -0.1230  0.0268
 3169TIP3    H131142   3.062   0.187   8.241 -0.0694  1.6008 -0.3471
 3169TIP3    H231143   3.175   0.149   8.147 -0.4105 -0.3553 -0.0199
 3170TIP3   OH231144   6.256   1.080   8.091  0.0806 -0.5983 -0.5368
 3170TIP3    H131145   6.212   1.070   8.007 -1.0757 -0.0338 -0.0168
 3170TIP3    H231146   6.197   1.133   8.143  1.3575  0.1336  0.2235
 3171TIP3   OH231147   1.103   3.288   1.564 -0.1233  0.1938 -0.6596
 3171TIP3    H131148   1.137   3.236   1.491 -0.6699  0.2514 -0.9642
 3171TIP3    H231149   1.094   3.376   1.527  0.9968  0.5669 -0.0886
 3172TIP3   OH231150   0.285   4.695   1.954 -0.6048 -0.0911  0.0476
 3172TIP3    H131151   0.349   4.730   1.892 -0.4482 -0.7826 -0.1959
 3172TIP3    H231152   0.320   4.609   1.978 -1.1652 -0.2440  0.3318
 3173TIP3   OH231153   2.223   1.525   7.173  0.1115 -0.3361 -0.0747
 3173TIP3    H131154   2.211   1.592   7.105  0.8326  1.2123  1.2725
 3173TIP3    H231155   2.271   1.455   7.128  1.2975  0.9980 -1.0008
 3174TIP3   OH231156   0.263   3.251   0.469  0.3635 -0.5544 -0.0323
 3174TIP3    H131157   0.178   3.270   0.429  0.0504 -0.9290  0.4415
 3174TIP3    H231158   0.317   3.326   0.446  0.0251 -0.4926 -0.6709
 3175TIP3   OH231159   5.414   4.996   0.505  0.4444 -0.3583 -0.6886
 3175TIP3    H131160   5.461   5.076   0.480  0.8133 -1.0889 -2.4527
 3175TIP3    H231161   5.329   5.027   0.535  0.7322  0.7286 -0.9385
 3176TIP3   OH231162   5.757   5.897   2.114  0.2666 -0.3867  0.2680
 3176TIP3    H131163   5.771   5.823   2.173 -0.7565 -0.0595  0.9390
 3176TIP3    H231164   5.698   5.956   2.162  0.4384  0.4920 -0.5670
 3177TIP3   OH231165   1.873   3.986   1.582  0.0902 -0.2250 -0.0638
 3177TIP3    H131166   1.788   4.027   1.569 -0.6334 -1.4971  0.5122
 3177TIP3    H231167   1.932   4.035   1.524 -1.0505  0.5633 -0.5975
 3178TIP3   OH231168   2.909   0.524   2.986 -0.0655 -0.2572  0.6793
 3178TIP3    H131169   2.854   0.592   2.948  1.1465  1.6125  2.0561
 3178TIP3    H231170   2.983   0.516   2.926 -0.2092 -0.3834  0.5168
 3179TIP3   OH231171   3.022   5.209   8.057 -0.3124  0.2542  0.5134
 3179TIP3    H131172   3.007   5.140   8.122  0.5647  0.0820  0.5549
 3179TIP3    H231173   2.990   5.171   7.975 -2.9116  1.0715  1.0542
 3180TIP3   OH231174   4.320   3.219   7.046  0.3047  0.2605 -0.1690
 3180TIP3    H131175   4.335   3.152   6.980 -0.4911  2.3061 -2.6361
 3180TIP3    H231176   4.395   3.278   7.038 -0.0229  0.7767  0.4440
 3181TIP3   OH231177   6.476   3.594   0.051  0.2918 -0.2245  0.5253
 3181TIP3    H131178   6.399   3.651   0.060 -0.2672 -0.7937 -0.5748
 3181TIP3    H231179   6.443   3.506   0.067  1.1230 -0.2985  2.0489
 3182TIP3   OH231180   4.961   6.557   1.924  0.0718  0.4581 -0.3635
 3182TIP3    H131181   4.899   6.630   1.924 -0.3664  0.0932 -0.8043
 3182TIP3    H231182   4.915   6.486   1.967  0.0706  0.0996 -0.9384
 3183TIP3   OH231183   6.089   0.535   2.073 -0.1485 -0.3134  0.6676
 3183TIP3    H131184   6.074   0.456   2.020 -0.8570 -0.7189  1.4486
 3183TIP3    H231185   6.128   0.502   2.154  1.6433  0.3772  0.1291
 3184TIP3   OH231186   3.619   0.684   0.571  0.2419  0.0771  0.1137
 3184TIP3    H131187   3.546   0.742   0.545  0.4539  0.7863  1.0358
 3184TIP3    H231188   3.613   0.610   0.510  0.0305  1.1124 -1.1934
 3185TIP3   OH231189   0.983   2.091   7.134  0.2590 -0.3390 -0.2509
 3185TIP3    H131190   0.918   2.072   7.203 -0.2316 -0.4819 -0.7460
 3185TIP3    H231191   0.932   2.132   7.065  0.3034 -2.2523 -1.4956
 3186TIP3   OH231192   3.077   4.933   1.113  0.1709  0.9715 -0.1182
 3186TIP3    H131193   3.139   4.875   1.069 -0.6132  0.9333 -1.2096
 3186TIP3    H231194   3.119   4.954   1.196  1.3888  0.4869 -0.5828
 3187TIP3   OH231195   6.342   1.908   0.917  0.0327 -0.3170  0.2631
 3187TIP3    H131196   6.400   1.853   0.970  0.9641 -1.5692 -1.9341
 3187TIP3    H231197   6.301   1.847   0.856 -0.4135  1.1767 -0.9787
 3188TIP3   OH231198   4.995   4.002   8.834 -0.2137  0.4059 -0.5148
 3188TIP3    H131199   4.963   4.076   8.885 -0.0659 -0.1046  0.3432
 3188TIP3    H231200   5.083   4.028   8.806  0.1980  0.2132  0.5493
 3189TIP3   OH231201   2.733   4.923   8.392  0.5161  0.1743 -0.1099
 3189TIP3    H131202   2.730   4.903   8.298 -0.1808 -0.8716  0.1149
 3189TIP3    H231203   2.680   5.003   8.401 -1.2166 -0.8790 -0.3693
 3190TIP3   OH231204   4.053   2.636   7.681  0.3213 -0.0096 -0.1762
 3190TIP3    H131205   4.112   2.695   7.728  0.4390  0.4504 -0.8777
 3190TIP3    H231206   3.996   2.600   7.748  1.6638 -0.7866  0.5911
 3191TIP3   OH231207   4.159   3.016   7.397 -0.6326 -0.0185  0.1791
 3191TIP3    H131208   4.178   3.105   7.368  1.6919 -0.4440  0.2026
 3191TIP3    H231209   4.185   2.961   7.323 -1.3280 -0.7235  0.4462
 3192TIP3   OH231210   4.283   3.233   0.244  0.4449  0.3787 -0.2857
 3192TIP3    H131211   4.237   3.152   0.268  2.2362 -0.1042  1.8263
 3192TIP3    H231212   4.290   3.228   0.149 -2.1631 -0.3976 -0.5309
 3193TIP3   OH231213   5.791   6.351   1.942 -0.1234  0.1891  0.4608
 3193TIP3    H131214   5.804   6.376   1.850  1.0232 -1.1006  0.2567
 3193TIP3    H231215   5.708   6.394   1.966 -0.4528  0.5441 -1.1647
 3194TIP3   OH231216   5.146   6.054   1.581  0.4223 -0.7044  0.0997
 3194TIP3    H131217   5.072   6.062   1.521  0.6671 -2.4433 -0.5029
 3194TIP3    H231218   5.220   6.028   1.525  1.0084 -0.9172  0.9512
 3195TIP3   OH231219   0.755   0.130   0.373  0.5996  0.2067 -0.1510
 3195TIP3    H131220   0.696   0.114   0.447 -1.2900 -0.8935 -1.8041
 3195TIP3    H231221   0.701   0.118   0.296  2.8994 -0.3089 -1.7907
 3196TIP3   OH231222   3.361   4.672   0.154  0.3006  0.1667  0.3644
 3196TIP3    H131223   3.326   4.642   0.070  1.4367  0.5023 -0.2608
 3196TIP3    H231224   3.417   4.600   0.183  1.3847  0.8032 -0.1063
 3197TIP3   OH231225   3.872   2.331   2.485  0.1425  0.4408  0.3006
 3197TIP3    H131226   3.805   2.318   2.552  0.5800  0.9643  0.8414
 3197TIP3    H231227   3.899   2.242   2.460 -1.2741  0.1885 -0.4666
 3198TIP3   OH231228   1.220   3.486   8.836 -0.0520 -0.3980  0.1146
 3198TIP3    H131229   1.154   3.521   8.896  0.9448  0.2082  0.8889
 3198TIP3    H231230   1.269   3.423   8.889  0.8102  0.1154 -0.0565
 3199TIP3   OH231231   3.409   5.317   8.433 -0.2270 -0.1131 -0.4937
 3199TIP3    H131232   3.348   5.295   8.363  1.1543 -3.8292 -0.7381
 3199TIP3    H231233   3.491   5.336   8.388  0.2129 -0.7788  0.0104
 3200TIP3   OH231234   4.758   0.680   0.112  0.5664 -0.3477 -0.1151
 3200TIP3    H131235   4.781   0.736   0.038  1.8769  0.2860  0.7447
 3200TIP3    H231236   4.663   0.690   0.120  0.5018  0.1273 -1.2610
 3201TIP3   OH231237   0.578   4.617   1.253 -0.0314 -0.0063  0.0654
 3201TIP3    H131238   0.551   4.709   1.253  1.2001  0.3779  0.4920
 3201TIP3    H231239   0.555   4.586   1.341 -0.5954 -0.1650 -0.1320
 3202TIP3   OH231240   4.749   0.211   2.071  0.0032 -0.5405  0.4819
 3202TIP3    H131241   4.786   0.297   2.091  2.6983 -1.6803  0.7091
 3202TIP3    H231242   4.663   0.231   2.033  0.2262  2.1965  1.1771
 3203TIP3   OH231243   6.268   4.668   0.564  0.2410 -0.0824  0.3583
 3203TIP3    H131244   6.172   4.668   0.561  0.2175 -1.7164 -1.8716
 3203TIP3    H231245   6.289   4.596   0.624  0.0888  0.1805  0.7332
 3204TIP3   OH231246   2.729   5.951   8.448  0.5327 -0.1876 -0.1737
 3204TIP3    H131247   2.730   6.007   8.370 -1.7037 -1.9398 -1.6030
 3204TIP3    H231248   2.731   6.012   8.522  2.3553  1.5516 -1.5524
 3205TIP3   OH231249   5.234   5.823   7.829  0.5618 -0.2955 -0.5665
 3205TIP3    H131250   5.268   5.804   7.741 -0.9809  2.6417 -1.8971
 3205TIP3    H231251   5.311   5.854   7.877  1.1395 -0.5206 -1.3118
 3206TIP3   OH231252   5.934   5.691   1.296 -0.0109 -0.9743 -0.0136
 3206TIP3    H131253   6.028   5.703   1.285 -0.1232  0.5363  0.4253
 3206TIP3    H231254   5.904   5.655   1.212  0.3709  2.3978 -1.7809
 3207TIP3   OH231255   2.354   1.156   7.376  0.1315  0.4965 -0.0124
 3207TIP3    H131256   2.401   1.072   7.374  0.5997  0.7559 -1.8603
 3207TIP3    H231257   2.264   1.133   7.356  0.3992  0.4650 -1.3154
 3208TIP3   OH231258   0.282   5.898   0.401  0.2919  0.0211  0.2562
 3208TIP3    H131259   0.236   5.896   0.317 -0.6434 -3.4805  0.7341
 3208TIP3    H231260   0.374   5.884   0.378 -0.0277 -1.4716 -0.1976
 3209TIP3   OH231261   4.311   4.347   1.969  0.2481  0.2073 -0.1731
 3209TIP3    H131262   4.255   4.348   1.891  0.0869  0.0079 -0.0591
 3209TIP3    H231263   4.350   4.260   1.970  0.9722  0.5197 -0.5410
 3210TIP3   OH231264   5.167   3.423   2.455  0.1301  0.1537 -0.0454
 3210TIP3    H131265   5.085   3.379   2.477  0.4030 -0.4457 -0.1985
 3210TIP3    H231266   5.223   3.353   2.422  0.1709  0.7896 -1.4293
 3211TIP3   OH231267   4.911   5.598   1.784 -0.3011  0.3066  0.2399
 3211TIP3    H131268   4.980   5.565   1.843 -0.1740 -1.7459 -0.9685
 3211TIP3    H231269   4.923   5.693   1.785  3.4559  0.0131 -0.8991
 3212TIP3   OH231270   5.827   3.189   0.219 -0.4839  0.0176 -0.0543
 3212TIP3    H131271   5.756   3.206   0.158  0.7721 -0.7588 -1.8298
 3212TIP3    H231272   5.867   3.108   0.187  1.9015  1.0302  0.1492
 3213TIP3   OH231273   5.484   6.802   2.754 -0.2466 -0.4374 -0.0636
 3213TIP3    H131274   5.480   6.707   2.768 -3.1842 -0.2546  0.9033
 3213TIP3    H231275   5.562   6.830   2.803 -0.0406 -2.2031  0.6941
 3214TIP3   OH231276   6.565   0.407   0.274 -0.2625 -0.0217  0.2443
 3214TIP3    H131277   6.615   0.331   0.244 -0.7776 -0.4252  0.3856
 3214TIP3    H231278   6.576   0.408   0.369  2.0746  1.7600  0.0229
 3215TIP3   OH231279   5.123   1.789   1.513  0.4184 -0.5850 -0.3240
 3215TIP3    H131280   5.104   1.737   1.591  0.3104 -0.6776 -0.4129
 3215TIP3    H231281   5.048   1.848   1.505  0.2122 -0.8882 -0.6217
 3216TIP3   OH231282   4.988   2.152   1.986 -0.2678 -0.1221  0.3020
 3216TIP3    H131283   5.034   2.234   2.001 -2.6045  1.1816  0.8382
 3216TIP3    H231284   5.034   2.112   1.913  1.4884  1.2106  0.6099
 3217TIP3   OH231285   2.236   1.865   8.792  0.2524  0.2546 -0.1743
 3217TIP3    H131286   2.230   1.880   8.887 -1.2240  1.6947 -0.4449
 3217TIP3    H231287   2.204   1.776   8.780 -0.3507  0.3539  0.6068
 3218TIP3   OH231288   5.956   5.973   1.455  0.4134  0.0800 -0.3816
 3218TIP3    H131289   5.984   5.917   1.383  1.1656  0.7266 -0.6025
 3218TIP3    H231290   6.003   6.056   1.442 -1.6942  1.2749 -0.8400
 3219TIP3   OH231291   4.088   6.830   8.225 -0.1548  0.3104 -0.0598
 3219TIP3    H131292   4.144   6.770   8.176 -0.4587 -1.3213  1.4677
 3219TIP3    H231293   4.002   6.822   8.184 -0.1725 -0.2704  0.0766
 3220TIP3   OH231294   1.982   5.449   1.186  0.0569 -0.1428  0.0411
 3220TIP3    H131295   1.900   5.441   1.236 -0.4519 -1.3442 -0.9239
 3220TIP3    H231296   2.009   5.539   1.199 -0.7219 -0.0730  1.4581
 3221TIP3   OH231297   1.193   4.094   8.595 -0.2042  0.1831 -0.0923
 3221TIP3    H131298   1.109   4.098   8.640  0.0273  1.6048  0.2683
 3221TIP3    H231299   1.247   4.037   8.651 -0.8405 -0.5856 -0.2330
 3222TIP3   OH231300   5.339   1.941   2.371  0.4538  0.3103  0.2858
 3222TIP3    H131301   5.286   1.863   2.356  0.1404  0.2633  1.5349
 3222TIP3    H231302   5.424   1.920   2.332  0.1138 -0.3208 -0.1269
 3223TIP3   OH231303   6.402   2.353   1.972 -0.1941 -0.0236 -0.9000
 3223TIP3    H131304   6.457   2.371   1.896 -0.3579 -0.1222 -1.0421
 3223TIP3    H231305   6.358   2.270   1.951 -0.9737  0.4368 -1.1122
 3224TIP3   OH231306   3.380   3.607   1.977  0.0871 -0.1293 -0.0616
 3224TIP3    H131307   3.423   3.561   2.049  0.2608 -0.6638 -0.5008
 3224TIP3    H231308   3.297   3.560   1.966 -0.0123  0.0565 -0.1027
 3225TIP3   OH231309   3.952   5.618   0.931  0.0726  0.8016 -0.4390
 3225TIP3    H131310   3.984   5.573   1.009  2.5177  2.0529 -0.6148
 3225TIP3    H231311   3.957   5.553   0.862 -3.2339 -0.6929  0.5204
 3226TIP3   OH231312   2.066   2.917   7.512 -0.0092  0.9568  0.3458
 3226TIP3    H131313   2.097   2.828   7.529 -0.9283  0.6388  0.4287
 3226TIP3    H231314   2.054   2.955   7.599 -1.6555  0.4150  0.3980
 3227TIP3   OH231315   5.225   5.004   1.574 -0.3456  0.1705  0.5779
 3227TIP3    H131316   5.143   4.963   1.603 -0.0789 -2.2491 -1.7288
 3227TIP3    H231317   5.285   4.991   1.648 -1.0888 -1.1443  0.9888
 3228TIP3   OH231318   2.510   4.659   8.392  0.2297 -0.5281 -0.1071
 3228TIP3    H131319   2.492   4.575   8.435  0.3128 -0.0351  0.9070
 3228TIP3    H231320   2.485   4.725   8.456  2.3933  0.2031  0.0529
 3229TIP3   OH231321   0.668   6.160   0.735 -0.2032 -0.3770 -0.3606
 3229TIP3    H131322   0.593   6.121   0.691  0.5256 -0.5788 -1.4690
 3229TIP3    H231323   0.655   6.139   0.828 -0.7631 -1.6708 -0.7052
 3230TIP3   OH231324   3.522   6.107   1.022 -0.3480 -0.0603 -0.8539
 3230TIP3    H131325   3.615   6.095   1.039 -0.3904  1.2895  0.5617
 3230TIP3    H231326   3.481   6.027   1.056  0.1473  0.1124  0.1972
 3231TIP3   OH231327   0.274   6.191   1.952 -0.2948 -0.4076 -0.9430
 3231TIP3    H131328   0.330   6.157   2.021 -0.1415  1.5586 -0.0481
 3231TIP3    H231329   0.257   6.282   1.976 -2.7823 -0.5223 -1.8734
 3232TIP3   OH231330   3.372   0.989   1.292 -0.0650  0.0956 -0.0191
 3232TIP3    H131331   3.464   0.967   1.282 -0.5433 -1.4761 -1.4001
 3232TIP3    H231332   3.372   1.066   1.349  2.1294  0.6014 -0.6027
 3233TIP3   OH231333   1.743   4.340   7.758 -0.3591 -0.3166 -0.0773
 3233TIP3    H131334   1.776   4.269   7.703  0.2739  0.6095 -0.9302
 3233TIP3    H231335   1.690   4.394   7.699  1.0709  1.1953 -0.0559
 3234TIP3   OH231336   1.277   5.434   1.793 -0.0740  0.3114 -0.5616
 3234TIP3    H131337   1.244   5.455   1.880 -1.6811 -1.0360 -0.7973
 3234TIP3    H231338   1.344   5.368   1.807 -0.1504  0.2839 -0.3296
 3235TIP3   OH231339   5.359   3.350   0.209 -0.5295  0.0565 -0.0325
 3235TIP3    H131340   5.303   3.402   0.267 -1.4994 -0.6986 -0.2601
 3235TIP3    H231341   5.379   3.271   0.259 -0.8658 -0.3253 -0.4906
 3236TIP3   OH231342   6.627   4.174   1.591  0.8709  0.3757 -0.0508
 3236TIP3    H131343   6.692   4.214   1.648  1.0771  1.0164 -0.7138
 3236TIP3    H231344   6.663   4.186   1.503 -0.0556  0.5789 -0.4093
 3237TIP3   OH231345   2.690   4.348   8.500  0.8519  0.4641 -0.0636
 3237TIP3    H131346   2.605   4.369   8.540  0.0175 -3.3311  0.5761
 3237TIP3    H231347   2.754   4.373   8.566 -0.0559  0.2046  0.9484
 3238TIP3   OH231348   0.637   0.656   7.752  0.1551 -0.0096  0.2284
 3238TIP3    H131349   0.723   0.643   7.792  0.1912  0.2010  0.2220
 3238TIP3    H231350   0.591   0.573   7.766  1.2262 -1.0400 -1.9357
 3239TIP3   OH231351   2.025   3.673   2.802 -0.1759 -0.0946  0.2437
 3239TIP3    H131352   2.035   3.744   2.738 -0.7807 -1.0046 -0.9057
 3239TIP3    H231353   2.113   3.640   2.816 -0.0505  0.0320 -0.2238
 3240TIP3   OH231354   1.990   6.828   7.736  0.2177 -0.3463 -0.0361
 3240TIP3    H131355   1.949   6.812   7.651  1.3285  2.7122 -1.2878
 3240TIP3    H231356   2.046   6.752   7.750 -0.0444 -0.9755 -2.0332
 3241TIP3   OH231357   4.143   1.938   6.870  1.0012  0.7826 -0.2293
 3241TIP3    H131358   4.214   1.997   6.845 -0.2760  1.9680 -1.2894
 3241TIP3    H231359   4.106   1.910   6.786  2.2782 -2.5303  0.1922
 3242TIP3   OH231360   4.415   6.509   6.980 -0.2527  0.4314 -0.0872
 3242TIP3    H131361   4.510   6.512   6.965 -0.4595 -1.5143 -2.3345
 3242TIP3    H231362   4.404   6.442   7.048  0.0407  2.1121  1.7079
 3243TIP3   OH231363   3.634   1.124   8.190  0.5217  0.2223 -0.3839
 3243TIP3    H131364   3.591   1.140   8.274  1.5434 -2.5418  0.7850
 3243TIP3    H231365   3.712   1.180   8.192  0.3520  0.4434  0.3708
 3244TIP3   OH231366   2.113   5.318   1.739 -0.4144 -0.4769 -0.3307
 3244TIP3    H131367   2.025   5.341   1.769 -0.2118  1.0278 -0.8070
 3244TIP3    H231368   2.132   5.381   1.669  2.1520  1.1285  1.6178
 3245TIP3   OH231369   5.341   1.710   7.546 -0.2490 -0.4202 -0.3025
 3245TIP3    H131370   5.254   1.729   7.510 -0.1844 -0.7944 -0.6675
 3245TIP3    H231371   5.332   1.727   7.640 -0.8300 -0.8264 -0.2740
 3246TIP3   OH231372   1.697   0.541   0.361  0.0669 -0.1798 -0.1021
 3246TIP3    H131373   1.728   0.517   0.273 -0.8536  1.1516 -0.8387
 3246TIP3    H231374   1.633   0.474   0.384  0.5521 -0.7147 -0.3184
 3247TIP3   OH231375   4.436   3.386   1.969  0.3437  0.0497 -0.0783
 3247TIP3    H131376   4.350   3.388   1.928  0.5102  0.9969 -0.3956
 3247TIP3    H231377   4.474   3.472   1.951  0.6095  0.3450  1.6323
 3248TIP3   OH231378   6.651   3.964   2.272  0.4932 -0.2501 -0.0118
 3248TIP3    H131379   6.707   4.041   2.266  0.9011 -0.5916 -0.9504
 3248TIP3    H231380   6.565   3.993   2.241  0.5152 -0.0550  0.1128
 3249TIP3   OH231381   1.669   0.797   8.020  0.0992 -0.0526 -0.0845
 3249TIP3    H131382   1.651   0.769   8.110  0.4851 -0.5991 -0.1730
 3249TIP3    H231383   1.618   0.737   7.966  0.8211 -0.4977 -0.2729
 3250TIP3   OH231384   0.486   2.244   8.397  0.1284  0.3182 -0.1695
 3250TIP3    H131385   0.524   2.332   8.393  0.5144  0.1318 -0.8840
 3250TIP3    H231386   0.420   2.243   8.328  1.0889 -0.3785 -1.1066
 3251TIP3   OH231387   1.661   0.836   0.115 -0.0001  0.1137 -0.5800
 3251TIP3    H131388   1.612   0.783   0.052  0.6417  0.7029 -1.5959
 3251TIP3    H231389   1.599   0.851   0.187 -0.2953 -1.7119 -0.4215
 3252TIP3   OH231390   1.260   6.334   0.862 -0.2070 -0.0241  0.0990
 3252TIP3    H131391   1.286   6.423   0.840 -0.9052  0.4232  1.0198
 3252TIP3    H231392   1.335   6.299   0.911  1.3250 -1.0020 -2.7199
 3253TIP3   OH231393   3.963   4.553   8.462  0.5016 -0.1720 -0.4112
 3253TIP3    H131394   4.026   4.606   8.511 -1.7067  2.8300 -0.5014
 3253TIP3    H231395   3.928   4.491   8.526  1.8330 -0.2881  0.2244
 3254TIP3   OH231396   3.559   5.292   2.703  0.1325 -0.1782 -0.0318
 3254TIP3    H131397   3.485   5.346   2.733 -0.5183 -0.1215 -1.6143
 3254TIP3    H231398   3.624   5.298   2.773 -1.0131  0.4904  1.0057
 3255TIP3   OH231399   5.061   6.166   2.000  0.4443  0.2110  0.0179
 3255TIP3    H131400   4.986   6.180   1.942  0.1063 -0.6781  0.2358
 3255TIP3    H231401   5.137   6.192   1.947  0.0772  0.1293 -0.5549
 3256TIP3   OH231402   6.221   2.518   1.526 -0.1808 -0.1075  0.2539
 3256TIP3    H131403   6.146   2.530   1.585  1.1367  2.0910  1.6173
 3256TIP3    H231404   6.226   2.423   1.512 -1.5665 -0.5504  2.3183
 3257TIP3   OH231405   1.834   4.188   8.513 -0.1531 -0.1273  0.0078
 3257TIP3    H131406   1.893   4.205   8.439  0.7111 -2.1304  0.1687
 3257TIP3    H231407   1.884   4.215   8.590 -0.5608  0.7820 -0.0390
 3258TIP3   OH231408   1.900   0.822   8.766  1.1362  0.0397  0.9532
 3258TIP3    H131409   1.818   0.837   8.813  0.7987 -0.1335  0.4249
 3258TIP3    H231410   1.944   0.907   8.768  0.7426  0.2489  0.8619
 3259TIP3   OH231411   2.755   4.466   0.123 -0.4258  0.2880 -0.0668
 3259TIP3    H131412   2.707   4.387   0.100 -1.4098  0.2585  1.8377
 3259TIP3    H231413   2.689   4.524   0.161 -0.1495  2.9041 -3.1204
 3260TIP3   OH231414   2.069   1.419   2.562 -0.0528 -0.2120  0.1146
 3260TIP3    H131415   2.146   1.385   2.608 -0.8163 -0.2126  1.4406
 3260TIP3    H231416   2.064   1.367   2.481  0.5512 -1.1408  0.6654
 3261TIP3   OH231417   1.449   4.153   0.520 -0.1719 -0.5414  0.1342
 3261TIP3    H131418   1.448   4.153   0.615  0.0365 -0.4190  0.1384
 3261TIP3    H231419   1.359   4.173   0.494 -0.2308 -0.5885  0.3044
 3262TIP3   OH231420   6.293   2.269   6.991 -0.0926 -0.3213 -0.7499
 3262TIP3    H131421   6.308   2.248   6.899 -1.0900 -0.5140 -0.8886
 3262TIP3    H231422   6.209   2.316   6.991 -0.1639 -0.4347  0.0750
 3263TIP3   OH231423   6.440   5.250   2.306 -0.1256 -0.6605  0.0263
 3263TIP3    H131424   6.529   5.269   2.336  1.0669 -3.1241 -1.6571
 3263TIP3    H231425   6.411   5.176   2.359 -1.1173 -0.0177  0.4127
 3264TIP3   OH231426   4.358   1.251   8.462 -0.1009  0.2501 -0.3689
 3264TIP3    H131427   4.316   1.251   8.548  0.9712 -0.3801  0.1715
 3264TIP3    H231428   4.295   1.294   8.404 -1.2782 -0.2399  0.5146
 3265TIP3   OH231429   1.160   1.688   1.855 -0.0002 -0.3906  0.2304
 3265TIP3    H131430   1.196   1.614   1.904  0.0699  0.3661  1.3703
 3265TIP3    H231431   1.234   1.721   1.804  1.0837  1.2636  2.6833
 3266TIP3   OH231432   2.591   2.932   3.078 -0.6063 -0.1062 -0.4651
 3266TIP3    H131433   2.591   3.008   3.021 -0.2497 -0.6566 -1.2160
 3266TIP3    H231434   2.673   2.937   3.126  0.0842 -0.7531 -1.5401
 3267TIP3   OH231435   3.619   6.145   7.530 -0.3258 -0.5797  0.5650
 3267TIP3    H131436   3.605   6.181   7.443  1.0134 -0.5632  0.3332
 3267TIP3    H231437   3.624   6.221   7.587  0.1228 -0.5112  0.4403
 3268TIP3   OH231438   4.928   4.190   7.926  0.3750 -0.0188  0.3602
 3268TIP3    H131439   4.987   4.224   7.859  0.2484  1.4501  0.9648
 3268TIP3    H231440   4.843   4.226   7.904  0.3268  0.4692  1.2737
 3269TIP3   OH231441   6.582   3.434   0.633 -0.2349  0.7618  0.4335
 3269TIP3    H131442   6.606   3.351   0.591  0.9074  1.3920 -0.1837
 3269TIP3    H231443   6.527   3.408   0.707  0.3332 -0.5667  0.4113
 3270TIP3   OH231444   5.321   6.264   7.591 -0.1831  0.0593  0.2019
 3270TIP3    H131445   5.380   6.308   7.652 -0.2043  1.7315 -0.8987
 3270TIP3    H231446   5.352   6.291   7.505 -1.1189 -0.9596 -0.4789
 3271TIP3   OH231447   4.181   4.501   2.764 -0.0740 -0.0087  0.6457
 3271TIP3    H131448   4.106   4.537   2.717  0.8619 -0.6059 -1.4292
 3271TIP3    H231449   4.147   4.482   2.852 -2.0446  0.7275  0.1072
 3272TIP3   OH231450   3.808   0.430   2.050 -0.3722  0.0422  0.3712
 3272TIP3    H131451   3.761   0.508   2.020  1.6362  1.2631  0.1449
 3272TIP3    H231452   3.801   0.432   2.145 -1.3863 -0.2248  0.3088
 3273TIP3   OH231453   5.055   5.311   8.507 -0.0107  0.6111 -0.2987
 3273TIP3    H131454   5.139   5.318   8.461  0.0367  0.0919 -0.2957
 3273TIP3    H231455   5.001   5.256   8.451  0.2869 -0.6274  0.5987
 3274TIP3   OH231456   2.663   5.346   8.146  0.1010 -0.2584  0.2838
 3274TIP3    H131457   2.684   5.333   8.053 -0.8453 -1.1787  0.1745
 3274TIP3    H231458   2.671   5.441   8.159 -1.4610  0.1465 -1.2075
 3275TIP3   OH231459   0.594   4.908   7.436  0.1443 -0.0876 -1.0217
 3275TIP3    H131460   0.588   4.822   7.396 -1.1164  0.0318 -1.1344
 3275TIP3    H231461   0.667   4.900   7.498 -0.8089 -1.6628 -0.0277
 3276TIP3   OH231462   5.044   4.877   0.353  0.8333  0.5189 -0.7752
 3276TIP3    H131463   5.004   4.811   0.409  3.3483  0.0843  0.6691
 3276TIP3    H231464   5.074   4.829   0.276  2.7389 -0.1504  0.3109
 3277TIP3   OH231465   3.592   3.834   8.389 -0.0410  0.0971  0.2640
 3277TIP3    H131466   3.504   3.799   8.403 -0.9513  0.8824 -2.7812
 3277TIP3    H231467   3.588   3.923   8.423 -0.2945 -0.0145  0.5284
 3278TIP3   OH231468   6.433   6.180   8.019 -0.1674 -0.5461  0.4949
 3278TIP3    H131469   6.528   6.190   8.013 -0.0712  0.9399  3.0369
 3278TIP3    H231470   6.408   6.140   7.936  2.3980  1.0607 -1.1945
 3279TIP3   OH231471   3.616   2.886   2.424  0.3614  0.1090 -0.4016
 3279TIP3    H131472   3.607   2.961   2.482  1.7590 -0.2567  0.3226
 3279TIP3    H231473   3.698   2.900   2.377  0.8196 -1.1213 -0.0042
 3280TIP3   OH231474   0.439   5.569   0.667  0.0484  0.2164  0.2192
 3280TIP3    H131475   0.410   5.564   0.576  1.6321 -0.3543 -0.2869
 3280TIP3    H231476   0.524   5.526   0.667 -0.1332 -0.2264  2.0746
 3281TIP3   OH231477   5.377   6.523   0.721  0.3261 -0.4941 -0.0556
 3281TIP3    H131478   5.448   6.534   0.784  1.5208 -0.1649 -1.4096
 3281TIP3    H231479   5.360   6.428   0.721  1.1010 -0.6418 -0.0483
 3282TIP3   OH231480   0.723   2.499   1.482 -0.4103 -0.4777 -0.4229
 3282TIP3    H131481   0.784   2.516   1.554  0.7595 -1.8155 -1.0409
 3282TIP3    H231482   0.639   2.534   1.513  0.2734 -0.1381  1.1734
 3283TIP3   OH231483   2.545   2.619   6.934  0.2143 -0.1939 -0.0719
 3283TIP3    H131484   2.610   2.675   6.893  0.8033 -1.8397 -1.5229
 3283TIP3    H231485   2.464   2.638   6.887  0.0553  0.5375  0.4905
 3284TIP3   OH231486   5.504   3.907   2.290  0.2943 -0.2613 -0.9122
 3284TIP3    H131487   5.469   3.979   2.237 -0.9067 -0.3760 -0.3096
 3284TIP3    H231488   5.497   3.938   2.380  0.4476 -0.8461 -0.6961
 3285TIP3   OH231489   5.149   2.491   2.760 -0.3416  0.1175 -0.5277
 3285TIP3    H131490   5.072   2.451   2.802  1.1322 -1.7261  0.5483
 3285TIP3    H231491   5.205   2.517   2.834  1.2177 -0.9699 -1.2716
 3286TIP3   OH231492   4.154   5.067   0.147 -0.2389 -0.1822 -0.1077
 3286TIP3    H131493   4.092   4.995   0.140 -1.6840  1.0104 -0.1608
 3286TIP3    H231494   4.160   5.103   0.059 -1.4078  1.2116  0.3333
 3287TIP3   OH231495   3.456   4.143   7.533  0.1079 -0.4418  0.3873
 3287TIP3    H131496   3.413   4.120   7.616 -2.4411  2.1081 -0.0584
 3287TIP3    H231497   3.385   4.179   7.479  2.1349  0.1973 -2.0228
 3288TIP3   OH231498   4.342   0.513   0.610  0.6774  0.1176 -0.7441
 3288TIP3    H131499   4.360   0.588   0.553  0.5134  1.3379  0.7359
 3288TIP3    H231500   4.258   0.534   0.651  0.4958 -1.0198 -0.5162
 3289TIP3   OH231501   0.081   1.015   0.828 -0.3730  0.0110  0.4831
 3289TIP3    H131502   0.139   1.070   0.776 -0.2442  0.2742  0.9000
 3289TIP3    H231503   0.139   0.949   0.867 -0.2100  0.7436  1.5339
 3290TIP3   OH231504   5.576   6.092   8.836 -0.9550  0.2281  0.0759
 3290TIP3    H131505   5.527   6.040   8.899  0.9521  0.8986  2.2657
 3290TIP3    H231506   5.605   6.028   8.770 -2.1149 -0.6898  0.4136
 3291TIP3   OH231507   1.978   4.918   1.784  0.0135  0.3329 -0.2342
 3291TIP3    H131508   2.021   4.872   1.856  0.9253  2.0181  0.3623
 3291TIP3    H231509   1.898   4.954   1.822 -0.3394 -0.1431 -0.5123
 3292TIP3   OH231510   3.797   4.815   8.792  0.3973  0.6283 -0.0315
 3292TIP3    H131511   3.729   4.808   8.859  1.0439  0.6479  0.6346
 3292TIP3    H231512   3.750   4.802   8.709 -0.2422 -0.3675  0.4746
 3293TIP3   OH231513   1.602   1.740   0.229 -0.1587  0.3742 -0.5502
 3293TIP3    H131514   1.591   1.659   0.180  1.2861 -0.4009  0.3488
 3293TIP3    H231515   1.521   1.789   0.214  0.0538  0.0298 -3.4085
 3294TIP3   OH231516   0.773   5.303   1.794  0.7888 -0.1906  0.6398
 3294TIP3    H131517   0.749   5.366   1.726  1.0579 -0.7728 -0.0153
 3294TIP3    H231518   0.819   5.355   1.860 -0.0640  0.4996  0.7119
 3295TIP3   OH231519   1.484   5.387   2.070 -0.6647 -0.2397  0.2385
 3295TIP3    H131520   1.432   5.467   2.074  0.0565  0.2146  0.8290
 3295TIP3    H231521   1.569   5.415   2.035  0.2990 -0.3307  2.3271
 3296TIP3   OH231522   2.154   2.382   7.801 -0.2002 -0.2044  0.1585
 3296TIP3    H131523   2.106   2.374   7.719 -0.1057  0.0616  0.0790
 3296TIP3    H231524   2.246   2.373   7.777 -0.2139 -0.9278  0.3375
 3297TIP3   OH231525   5.160   0.687   1.741 -0.1459  0.0337 -0.0090
 3297TIP3    H131526   5.069   0.660   1.737  0.0862 -0.7298 -0.1903
 3297TIP3    H231527   5.188   0.692   1.649  0.2136 -0.5073  0.0661
 3298TIP3   OH231528   2.043   4.857   8.784 -0.1106 -0.2142  0.2959
 3298TIP3    H131529   1.965   4.891   8.741 -0.9909  0.0410  2.0029
 3298TIP3    H231530   2.048   4.765   8.755  0.4909  0.4340 -1.8533
 3299TIP3   OH231531   1.144   2.960   7.615  0.0598  0.0026 -0.6239
 3299TIP3    H131532   1.121   3.044   7.656 -1.8303  0.1020 -1.7901
 3299TIP3    H231533   1.108   2.894   7.674  1.1028 -0.0145  0.0288
 3300TIP3   OH231534   0.382   5.301   1.436 -0.1175 -0.4258  0.3013
 3300TIP3    H131535   0.409   5.388   1.408  0.3502 -1.0786 -1.3855
 3300TIP3    H231536   0.317   5.317   1.505  0.5785  1.2260  0.6169
 3301TIP3   OH231537   5.859   1.298   6.890  0.3830 -0.2744  0.2018
 3301TIP3    H131538   5.840   1.310   6.983 -0.8717 -0.8772  0.0362
 3301TIP3    H231539   5.937   1.353   6.875 -0.3881  1.1734  1.2123
 3302TIP3   OH231540   1.615   1.272   7.485 -0.2824 -0.1045  0.1174
 3302TIP3    H131541   1.612   1.176   7.491 -1.1579 -0.1010 -0.0782
 3302TIP3    H231542   1.657   1.289   7.401 -2.9310 -0.3992 -1.3767
 3303TIP3   OH231543   2.301   3.574   1.511 -0.2861  0.4016 -0.4859
 3303TIP3    H131544   2.377   3.564   1.568 -1.5061  0.3947  1.2043
 3303TIP3    H231545   2.290   3.668   1.501 -1.7126  0.5555  1.7120
 3304TIP3   OH231546   4.715   2.460   0.961  0.6730  0.0584  0.4309
 3304TIP3    H131547   4.790   2.493   1.011  0.3372  0.9437  0.3597
 3304TIP3    H231548   4.686   2.534   0.908  0.8899 -0.7936 -0.9481
 3305TIP3   OH231549   6.842   1.552   2.884  0.2817 -0.1878  0.0877
 3305TIP3    H131550   6.768   1.546   2.824  0.0319  0.3063  0.3396
 3305TIP3    H231551   6.869   1.644   2.879  0.0824 -0.0710  0.9376
 3306TIP3   OH231552   3.130   5.776   0.423  0.2962 -0.1701  0.1028
 3306TIP3    H131553   3.157   5.866   0.435 -0.1840 -0.1265  0.9468
 3306TIP3    H231554   3.207   5.724   0.443  1.2233  0.0828 -2.4487
 3307TIP3   OH231555   6.045   1.616   3.034 -0.0705  0.7505 -0.0690
 3307TIP3    H131556   6.009   1.690   2.985 -1.6530  0.4807  0.6507
 3307TIP3    H231557   6.124   1.653   3.076 -0.2176  1.7233 -0.6073
 3308TIP3   OH231558   2.888   2.299   0.299  0.1232  0.9154 -0.1319
 3308TIP3    H131559   2.874   2.278   0.391 -2.7418 -3.5279 -1.2760
 3308TIP3    H231560   2.966   2.249   0.274 -0.2718  0.4735 -0.5073
 3309TIP3   OH231561   3.605   5.812   2.262  0.8261 -0.6129  0.4671
 3309TIP3    H131562   3.616   5.757   2.340 -0.3030 -1.5363  0.0192
 3309TIP3    H231563   3.519   5.786   2.227 -0.4970  2.5082  1.0450
 3310TIP3   OH231564   4.335   2.382   0.097  0.0618  0.3264  0.1051
 3310TIP3    H131565   4.328   2.329   0.018  1.5233  0.8394 -0.3881
 3310TIP3    H231566   4.421   2.423   0.091  1.1886 -1.2905  2.9721
 3311TIP3   OH231567   0.929   4.469   8.118  0.0668 -0.1024  0.0329
 3311TIP3    H131568   0.987   4.415   8.172 -1.1702 -1.2075  0.3247
 3311TIP3    H231569   0.980   4.488   8.039  1.9168  1.5302  1.5207
 3312TIP3   OH231570   0.133   5.025   1.522  0.0219 -0.2223 -0.3384
 3312TIP3    H131571   0.053   4.975   1.536 -0.2485  0.2084 -0.3063
 3312TIP3    H231572   0.108   5.092   1.458  0.3543 -0.0832 -0.3223
 3313TIP3   OH231573   4.359   6.635   1.059  0.5900  0.6346 -0.2795
 3313TIP3    H131574   4.288   6.601   1.006  0.0769  0.5712  0.4371
 3313TIP3    H231575   4.422   6.562   1.064  0.8063  0.7572 -1.0701
 3314TIP3   OH231576   3.295   0.527   7.101  0.6407  0.0734 -0.2827
 3314TIP3    H131577   3.389   0.521   7.116  0.7395  1.7003 -0.0099
 3314TIP3    H231578   3.274   0.454   7.042  2.0958 -0.2043 -0.4752
 3315TIP3   OH231579   5.913   4.109   2.281  0.2324  0.9166 -0.8328
 3315TIP3    H131580   5.904   4.022   2.320 -0.6296  1.5256  0.3966
 3315TIP3    H231581   5.825   4.132   2.253 -0.0775  2.4094  1.1733
 3316TIP3   OH231582   3.429   5.245   1.960  0.1859  0.1336 -0.3057
 3316TIP3    H131583   3.415   5.206   1.873 -0.1185  0.4648 -0.4080
 3316TIP3    H231584   3.489   5.184   2.004  0.9531  0.3512 -1.0193
 3317TIP3   OH231585   1.756   3.388   8.511  0.0297 -0.3361 -0.3053
 3317TIP3    H131586   1.675   3.357   8.471 -0.0690 -0.5603  0.0687
 3317TIP3    H231587   1.825   3.346   8.461 -0.0738  0.0695 -0.8038
 3318TIP3   OH231588   6.410   4.613   2.480 -0.0155  0.4680  0.7487
 3318TIP3    H131589   6.435   4.676   2.548 -0.4407 -0.0935  1.4411
 3318TIP3    H231590   6.352   4.551   2.525  0.7292 -0.6610  0.1944
 3319TIP3   OH231591   6.389   2.290   2.710 -0.2713 -0.0490  0.0834
 3319TIP3    H131592   6.402   2.244   2.793  0.0536  0.5335  0.3612
 3319TIP3    H231593   6.323   2.357   2.729 -1.1182 -0.7069 -0.4440
 3320TIP3   OH231594   4.872   2.332   1.586  0.5317 -0.0302  0.7815
 3320TIP3    H131595   4.876   2.428   1.592  0.5741  0.2880 -2.4355
 3320TIP3    H231596   4.947   2.302   1.638  1.5870  1.8005  0.4341
 3321TIP3   OH231597   0.925   3.643   6.554  0.4937  0.2892 -0.2117
 3321TIP3    H131598   0.924   3.608   6.643 -0.8930  0.3395 -0.1817
 3321TIP3    H231599   1.014   3.627   6.522 -0.0252 -3.3556 -0.2489
 3322TIP3   OH231600   1.701   6.026   7.911 -0.2521  0.1110 -0.3199
 3322TIP3    H131601   1.640   6.055   7.843 -0.3554 -0.2250 -0.3738
 3322TIP3    H231602   1.690   6.090   7.982  0.0355  0.6026 -0.7146
 3323TIP3   OH231603   6.012   0.376   0.101 -0.0605 -0.0826  0.2384
 3323TIP3    H131604   6.100   0.351   0.129  0.4507 -0.7532 -1.7767
 3323TIP3    H231605   6.010   0.471   0.108  1.1316  0.0119 -0.4625
 3324TIP3   OH231606   2.189   0.786   2.189  0.7652 -0.5787 -0.1542
 3324TIP3    H131607   2.219   0.848   2.122 -1.6456  1.6225  0.6242
 3324TIP3    H231608   2.117   0.738   2.146  0.3486 -0.3738  0.3088
 3325TIP3   OH231609   3.039   0.258   7.825 -0.1917 -0.4801  0.5088
 3325TIP3    H131610   3.101   0.185   7.830 -1.0416 -1.3079 -0.4901
 3325TIP3    H231611   3.084   0.325   7.775  1.2560  0.4165  2.8789
 3326TIP3   OH231612   4.084   4.722   7.990 -0.3923 -0.2934  0.2193
 3326TIP3    H131613   3.995   4.739   8.020 -0.4536 -0.4041  0.0939
 3326TIP3    H231614   4.080   4.729   7.895 -0.2059 -0.0023  0.2283
 3327TIP3   OH231615   4.386   3.803   2.283  0.6560  0.2457 -0.8630
 3327TIP3    H131616   4.412   3.713   2.266  0.8498  0.3664 -1.2259
 3327TIP3    H231617   4.322   3.823   2.215  1.2434  0.6511 -1.3164
 3328TIP3   OH231618   0.769   4.007   1.037  0.2770  0.1094 -0.4429
 3328TIP3    H131619   0.726   3.967   1.112 -0.4420  0.6905 -0.5268
 3328TIP3    H231620   0.862   4.005   1.058  0.1487 -0.4902  0.0877
 3329TIP3   OH231621   0.862   4.716   2.710 -0.0411 -0.1690 -0.0872
 3329TIP3    H131622   0.809   4.791   2.684  0.7016  0.3960 -0.0192
 3329TIP3    H231623   0.871   4.664   2.630  1.6819  1.2241 -0.8820
 3330TIP3   OH231624   3.256   1.723   7.665  1.2572  0.3199  0.2563
 3330TIP3    H131625   3.167   1.697   7.688  0.5559  3.1829  1.2047
 3330TIP3    H231626   3.311   1.651   7.696 -0.5437 -0.4948  1.7788
 3331TIP3   OH231627   3.268   4.313   7.729  0.7013  0.0880  0.1690
 3331TIP3    H131628   3.269   4.405   7.702 -2.0701  0.4776  1.1085
 3331TIP3    H231629   3.231   4.267   7.654  2.6579 -0.4461 -0.5452
 3332TIP3   OH231630   3.401   0.671   0.292 -0.5404 -0.6848  0.3124
 3332TIP3    H131631   3.308   0.656   0.305 -0.7751 -0.2504 -0.7776
 3332TIP3    H231632   3.415   0.656   0.198  0.2549  0.4275  0.2416
 3333TIP3   OH231633   1.505   3.479   6.980  0.0981 -0.0540 -0.4749
 3333TIP3    H131634   1.553   3.538   7.038 -1.0435  0.4294  0.0201
 3333TIP3    H231635   1.467   3.537   6.914  1.5493 -0.6257 -1.8443
 3334TIP3   OH231636   0.137   2.021   2.135  0.3912 -0.4019 -0.3144
 3334TIP3    H131637   0.167   2.071   2.059 -1.1501 -0.2329 -0.8584
 3334TIP3    H231638   0.138   2.084   2.207  0.2522 -0.0981 -0.5762
 3335TIP3   OH231639   4.523   2.301   7.855  0.7112  0.5281  0.4079
 3335TIP3    H131640   4.497   2.333   7.941 -2.8637  0.7913 -0.6014
 3335TIP3    H231641   4.488   2.212   7.851 -1.2147  1.2800 -1.4719
 3336TIP3   OH231642   2.957   4.736   0.797  0.6230  0.5182 -0.2554
 3336TIP3    H131643   2.951   4.695   0.711  0.6697  0.5681 -0.2822
 3336TIP3    H231644   3.020   4.807   0.786  0.8450  0.3422 -0.1060
 3337TIP3   OH231645   1.465   5.812   7.738  0.2658  0.3779 -0.0508
 3337TIP3    H131646   1.483   5.906   7.748  2.2577  0.3950 -2.5068
 3337TIP3    H231647   1.549   5.775   7.710 -0.8839 -1.8283 -0.8392
 3338TIP3   OH231648   0.102   1.959   0.282  0.4584  0.0140 -0.1206
 3338TIP3    H131649   0.148   2.017   0.222 -0.1708 -0.1715 -0.7909
 3338TIP3    H231650   0.020   2.005   0.302  1.4739  1.0165  2.1776
 3339TIP3   OH231651   3.009   2.966   1.916 -0.3022  0.2691  0.1847
 3339TIP3    H131652   2.981   2.888   1.965 -0.8418 -0.3273 -1.0175
 3339TIP3    H231653   3.070   2.932   1.851  0.4138  1.0501  0.4415
 3340TIP3   OH231654   0.833   2.014   8.478 -0.1636 -0.7015 -0.3096
 3340TIP3    H131655   0.873   2.040   8.560  0.0158 -0.6094 -0.4259
 3340TIP3    H231656   0.738   2.021   8.494 -0.1244 -0.4724 -0.1811
 3341TIP3   OH231657   4.362   0.748   0.380  0.2606 -0.5128  0.5719
 3341TIP3    H131658   4.384   0.841   0.375  0.4204 -0.6021 -0.7345
 3341TIP3    H231659   4.402   0.710   0.302 -1.2996 -1.3612  0.1444
 3342TIP3   OH231660   6.815   3.687   0.335 -0.2080  0.1868  0.5766
 3342TIP3    H131661   6.799   3.636   0.414 -1.3686 -1.4782 -0.6649
 3342TIP3    H231662   6.805   3.624   0.263 -3.0666  2.3695 -1.1441
 3343TIP3   OH231663   5.138   0.707   2.171  0.0292 -0.1216  0.2469
 3343TIP3    H131664   5.174   0.619   2.163 -0.8406 -0.5458  0.8533
 3343TIP3    H231665   5.212   0.761   2.199  0.7250 -0.5172 -0.7888
 3344TIP3   OH231666   5.046   5.853   1.773 -0.2752 -0.2238  0.2317
 3344TIP3    H131667   5.110   5.915   1.738  0.4907 -0.9359  0.3204
 3344TIP3    H231668   4.974   5.854   1.710  0.0008  0.3011 -0.0834
 3345TIP3   OH231669   6.236   0.686   0.326 -0.6812  0.1179 -0.2138
 3345TIP3    H131670   6.244   0.680   0.231 -1.7015 -1.0328 -0.2584
 3345TIP3    H231671   6.170   0.620   0.349  1.1346 -1.2209  1.5233
 3346TIP3   OH231672   5.314   4.675   8.467  0.1285  0.9551 -0.1878
 3346TIP3    H131673   5.336   4.723   8.387  1.9633 -0.2767 -0.4731
 3346TIP3    H231674   5.224   4.644   8.452 -0.3088  2.4735 -0.8680
 3347TIP3   OH231675   4.592   2.872   7.738  0.0787  0.4574  0.2048
 3347TIP3    H131676   4.575   2.778   7.728 -1.6906  0.7146  0.5965
 3347TIP3    H231677   4.604   2.905   7.649 -2.9303  0.4793 -0.2755
 3348TIP3   OH231678   6.188   5.113   2.207 -0.0501 -0.0909  0.5715
 3348TIP3    H131679   6.126   5.143   2.274  0.1791 -0.9985  1.2043
 3348TIP3    H231680   6.228   5.035   2.244  1.3658  0.3857  0.0959
 3349TIP3   OH231681   4.713   6.754   2.231  0.5289  0.1031  0.2139
 3349TIP3    H131682   4.709   6.765   2.136  0.5842  1.2603  0.3290
 3349TIP3    H231683   4.622   6.753   2.260  0.5183  0.4701  0.2071
 3350TIP3   OH231684   5.444   2.051   1.793 -0.1410  0.3581 -0.2357
 3350TIP3    H131685   5.429   2.077   1.702 -2.0155  0.9180  0.1911
 3350TIP3    H231686   5.508   2.114   1.825  0.4773  0.2069 -1.1386
 3351TIP3   OH231687   3.816   3.433   0.383  0.1038 -0.0659 -0.2807
 3351TIP3    H131688   3.743   3.443   0.322  0.6468  0.2290 -0.8957
 3351TIP3    H231689   3.894   3.438   0.328  0.5891 -0.6641  0.3268
 3352TIP3   OH231690   4.030   3.248   0.671  0.0427  0.4137 -0.2709
 3352TIP3    H131691   4.044   3.246   0.577  0.0642 -0.6768 -0.2665
 3352TIP3    H231692   4.115   3.224   0.708  0.2629  1.6796  0.0613
 3353TIP3   OH231693   5.793   2.380   1.055 -0.5140  0.4722  0.3502
 3353TIP3    H131694   5.883   2.391   1.084 -0.9374  0.8715  1.5443
 3353TIP3    H231695   5.793   2.297   1.007  0.0057 -0.7566  2.3766
 3354TIP3   OH231696   4.068   5.878   7.557  0.6589 -0.1357  0.0557
 3354TIP3    H131697   4.081   5.967   7.526 -1.6191 -0.3300 -1.6633
 3354TIP3    H231698   4.130   5.825   7.507  2.4682  0.4726  1.5308
 3355TIP3   OH231699   6.478   4.806   2.670  0.7993  0.2806 -0.3583
 3355TIP3    H131700   6.543   4.821   2.737 -1.0516 -1.6645  2.0838
 3355TIP3    H231701   6.453   4.893   2.640  3.3982  1.1061 -0.3512
 3356TIP3   OH231702   1.617   5.444   8.285 -0.6892  0.0552  0.2083
 3356TIP3    H131703   1.582   5.528   8.315 -1.3254 -0.7081  1.7025
 3356TIP3    H231704   1.706   5.463   8.258 -1.5898  1.7041 -1.9527
 3357TIP3   OH231705   1.952   1.104   8.179  0.3913  0.4259  0.3982
 3357TIP3    H131706   1.979   1.133   8.266  2.5072 -0.2204  0.0132
 3357TIP3    H231707   1.931   1.185   8.132  0.1946  0.8512  1.2130
 3358TIP3   OH231708   1.651   4.206   1.834 -0.2890 -0.3306  0.6289
 3358TIP3    H131709   1.584   4.137   1.834 -1.1102  0.3710 -1.2847
 3358TIP3    H231710   1.726   4.167   1.877 -0.7861 -2.4012 -0.2493
 3359TIP3   OH231711   2.984   5.108   8.339  0.2980 -0.0267  0.3458
 3359TIP3    H131712   3.008   5.180   8.397  3.1994 -1.1098  0.6277
 3359TIP3    H231713   2.905   5.071   8.379  0.2790  1.3318  1.6602
 3360TIP3   OH231714   2.978   6.212   8.599  0.1849 -0.5995 -0.6434
 3360TIP3    H131715   3.023   6.294   8.579 -0.9179  0.3285  0.4910
 3360TIP3    H231716   3.036   6.166   8.660 -0.0949  0.3307  0.3693
 3361TIP3   OH231717   5.107   6.843   1.091  0.1214 -0.6807 -0.5899
 3361TIP3    H131718   5.157   6.762   1.078  2.0111  0.3226  0.1689
 3361TIP3    H231719   5.094   6.849   1.186 -0.8160 -0.5320 -0.7130
 3362TIP3   OH231720   3.979   2.851   7.528 -0.2578 -0.3577 -0.1636
 3362TIP3    H131721   4.027   2.779   7.569 -0.6227 -0.2771  0.4255
 3362TIP3    H231722   4.048   2.912   7.500 -0.0105  0.0688  1.2633
 3363TIP3   OH231723   2.591   3.763   8.791 -0.1611  0.2518  0.6603
 3363TIP3    H131724   2.508   3.775   8.744  0.6214  0.1550 -0.8257
 3363TIP3    H231725   2.581   3.680   8.837 -0.1657 -0.8069 -1.1735
 3364TIP3   OH231726   1.762   0.728   8.305  0.5411 -0.4512  0.6483
 3364TIP3    H131727   1.667   0.738   8.312  0.2602 -1.8904 -0.5638
 3364TIP3    H231728   1.797   0.785   8.373 -1.1638  0.6075  0.7041
 3365TIP3   OH231729   1.781   6.415   1.853  0.2188 -0.2120 -0.0957
 3365TIP3    H131730   1.752   6.464   1.930 -1.9275 -1.0224 -0.3277
 3365TIP3    H231731   1.795   6.326   1.885 -0.4820 -0.5053 -0.5916
 3366TIP3   OH231732   6.407   1.514   7.277 -0.0291 -0.3409 -0.3936
 3366TIP3    H131733   6.362   1.548   7.199  0.3825  3.3658  0.7964
 3366TIP3    H231734   6.500   1.532   7.261  0.2113 -0.8553  0.3666
 3367TIP3   OH231735   2.104   2.380   8.094  0.0238 -0.1282 -0.0372
 3367TIP3    H131736   2.030   2.322   8.077 -0.1934  0.2316 -0.3527
 3367TIP3    H231737   2.152   2.382   8.011  0.7657 -0.8839  0.3630
 3368TIP3   OH231738   5.287   1.259   0.930 -1.1439 -0.0683  0.2864
 3368TIP3    H131739   5.272   1.353   0.926 -1.3828 -0.1567 -2.0792
 3368TIP3    H231740   5.199   1.221   0.924 -1.3022 -0.5098  3.5341
 3369TIP3   OH231741   5.067   1.804   0.750 -0.0666 -0.2444 -0.0267
 3369TIP3    H131742   5.069   1.793   0.845  1.2316 -1.9789 -0.2104
 3369TIP3    H231743   5.016   1.729   0.718 -0.7750  0.4983 -0.7137
 3370TIP3   OH231744   6.707   4.135   0.798 -0.2175  0.0226  0.7225
 3370TIP3    H131745   6.783   4.088   0.832  0.6002  0.6414 -0.1725
 3370TIP3    H231746   6.645   4.067   0.775  1.0365 -0.6677 -0.7824
 3371TIP3   OH231747   0.896   6.183   0.371 -0.8323  0.4423  0.0533
 3371TIP3    H131748   0.941   6.103   0.345 -3.0819 -0.9802  0.2052
 3371TIP3    H231749   0.916   6.193   0.464 -0.7231 -0.0724  0.0865
 3372TIP3   OH231750   3.687   0.645   7.641  0.4409 -0.1301  0.4516
 3372TIP3    H131751   3.611   0.655   7.699  0.7303 -0.3944  0.8830
 3372TIP3    H231752   3.653   0.664   7.554 -0.5372 -1.9483  0.3877
 3373TIP3   OH231753   3.759   6.145   7.233  0.0428  0.6122 -0.0645
 3373TIP3    H131754   3.785   6.066   7.282 -0.0625  0.8223  0.3358
 3373TIP3    H231755   3.812   6.215   7.272  0.0281  0.7639 -0.3183
 3374TIP3   OH231756   2.612   0.595   2.118  0.1410  0.2179  0.0859
 3374TIP3    H131757   2.653   0.662   2.172  0.4485  0.1138 -0.0174
 3374TIP3    H231758   2.521   0.623   2.109  0.0319  0.1117  0.8485
 3375TIP3   OH231759   3.161   5.392   1.182 -0.3857  0.3142 -0.1692
 3375TIP3    H131760   3.125   5.478   1.162 -0.7588  0.1453 -0.2441
 3375TIP3    H231761   3.105   5.331   1.133 -1.4585 -0.1283  1.5284
 3376TIP3   OH231762   3.342   5.165   1.713  0.3661  0.9084  0.3978
 3376TIP3    H131763   3.264   5.128   1.673 -0.1649  1.1728  1.1602
 3376TIP3    H231764   3.329   5.260   1.709  1.1390  0.9986 -0.4136
 3377TIP3   OH231765   0.246   1.601   0.530  0.8113  0.0519 -0.2951
 3377TIP3    H131766   0.314   1.554   0.481  0.4870  1.0088 -1.7075
 3377TIP3    H231767   0.263   1.693   0.513 -0.2299  0.3465  0.1802
 3378TIP3   OH231768   2.783   2.217   0.943 -0.4655 -0.0648 -0.5257
 3378TIP3    H131769   2.761   2.284   0.879 -0.3446 -0.7613 -1.3122
 3378TIP3    H231770   2.760   2.135   0.900  1.4571 -0.6777 -0.4733
 3379TIP3   OH231771   2.013   5.377   7.710 -0.1266 -0.2593  0.6694
 3379TIP3    H131772   1.981   5.358   7.622 -0.0289 -1.4893  0.8791
 3379TIP3    H231773   2.108   5.386   7.699  0.1365 -2.2380  0.8887
 3380TIP3   OH231774   6.631   2.691   8.433 -0.1115  0.2049 -0.1562
 3380TIP3    H131775   6.555   2.749   8.429  0.9744  1.6443 -1.0988
 3380TIP3    H231776   6.693   2.729   8.370  1.7128 -0.4265  1.1755
 3381TIP3   OH231777   1.662   5.165   8.329 -0.0628 -0.2281  0.5069
 3381TIP3    H131778   1.594   5.122   8.380 -0.1118 -0.5856  0.1453
 3381TIP3    H231779   1.646   5.259   8.342 -0.6108 -0.3081  0.4448
 3382TIP3   OH231780   0.903   6.023   7.179  0.2064  0.3205 -0.1636
 3382TIP3    H131781   0.859   5.938   7.182 -0.6525  0.7741  0.7537
 3382TIP3    H231782   0.951   6.029   7.261  1.1599  0.2622 -0.7123
 3383TIP3   OH231783   2.431   1.347   7.528  0.1254 -0.6277  0.1312
 3383TIP3    H131784   2.405   1.301   7.608 -2.3505  0.2524 -0.0786
 3383TIP3    H231785   2.459   1.277   7.469  0.2169 -1.4684  1.1408
 3384TIP3   OH231786   5.433   5.138   7.799 -0.0093  0.3546 -0.2338
 3384TIP3    H131787   5.363   5.203   7.784  0.7456  1.1574 -0.3663
 3384TIP3    H231788   5.470   5.122   7.712 -0.8258 -1.0080 -0.3447
 3385TIP3   OH231789   6.476   3.513   1.687 -0.0986  0.5873 -0.0309
 3385TIP3    H131790   6.533   3.585   1.716  0.2954 -0.3188  1.5501
 3385TIP3    H231791   6.424   3.492   1.764 -0.2661 -0.7710 -0.5000
 3386TIP3   OH231792   0.752   0.900   0.836 -0.2042 -0.4171 -0.3417
 3386TIP3    H131793   0.768   0.926   0.926  0.3875  0.0944 -0.5874
 3386TIP3    H231794   0.821   0.836   0.817  2.0356  2.1912 -1.5777
 3387TIP3   OH231795   6.636   0.220   0.757 -0.0831  0.1173  0.2814
 3387TIP3    H131796   6.723   0.245   0.789 -0.1423 -0.0951  0.6089
 3387TIP3    H231797   6.623   0.131   0.790 -0.9605  0.6183  1.3148
 3388TIP3   OH231798   4.839   2.098   8.421 -0.5093  0.2328 -0.1760
 3388TIP3    H131799   4.932   2.075   8.420 -0.3796  0.5133  1.5837
 3388TIP3    H231800   4.827   2.153   8.344 -0.0237 -2.5490 -2.4195
 3389TIP3   OH231801   1.595   2.580   2.176 -0.0796  0.2143 -0.3462
 3389TIP3    H131802   1.569   2.491   2.199  0.9365  0.4222  1.8837
 3389TIP3    H231803   1.514   2.624   2.154 -0.6170 -1.2108 -1.3547
 3390TIP3   OH231804   2.752   5.995   7.269 -0.2529 -0.0070  0.6127
 3390TIP3    H131805   2.757   5.948   7.352  1.1960  0.9885  1.1289
 3390TIP3    H231806   2.668   6.042   7.273 -0.9255 -1.1961  0.8090
 3391TIP3   OH231807   0.910   2.733   2.523  0.5063 -0.0726 -0.0245
 3391TIP3    H131808   1.003   2.713   2.531  0.9863  1.7717 -0.5414
 3391TIP3    H231809   0.882   2.757   2.612  0.3990 -1.0316  0.2123
 3392TIP3   OH231810   1.354   6.786   8.333  0.3251  0.0246 -0.1624
 3392TIP3    H131811   1.359   6.795   8.428  0.0664 -1.7886  0.0600
 3392TIP3    H231812   1.437   6.821   8.301  0.5349  0.3849  0.7415
 3393TIP3   OH231813   2.751   5.928   7.713  0.2158  0.0507 -0.4865
 3393TIP3    H131814   2.829   5.928   7.658  1.7766  1.2582  1.5750
 3393TIP3    H231815   2.776   5.879   7.791 -1.2797  0.0033  0.0053
 3394TIP3   OH231816   1.273   3.039   8.283  0.3543  0.3387 -0.3755
 3394TIP3    H131817   1.319   3.015   8.203  1.8638 -0.1361  0.6038
 3394TIP3    H231818   1.338   3.088   8.334  0.1922 -1.3499  1.5540
 3395TIP3   OH231819   5.457   0.248   7.963 -0.3184 -0.1423  0.1739
 3395TIP3    H131820   5.448   0.211   7.875  1.5164 -2.0831  0.7047
 3395TIP3    H231821   5.552   0.262   7.973  0.0165 -3.1795  2.9350
 3396TIP3   OH231822   3.417   1.567   2.283 -0.3603  0.5129 -0.4231
 3396TIP3    H131823   3.343   1.618   2.316 -1.1855 -1.3463  0.7544
 3396TIP3    H231824   3.383   1.518   2.208 -0.1842  0.0658 -0.2178
 3397TIP3   OH231825   3.203   4.762   1.353 -0.0847  0.5918 -0.4668
 3397TIP3    H131826   3.121   4.807   1.370  0.1968  1.0944 -0.4019
 3397TIP3    H231827   3.187   4.671   1.377 -0.0401  1.0552  1.5154
 3398TIP3   OH231828   4.661   3.839   0.249 -0.0155 -0.5889  0.1145
 3398TIP3    H131829   4.745   3.855   0.293  1.0150  0.3451 -2.0563
 3398TIP3    H231830   4.603   3.907   0.283  1.3981  1.5572 -1.4938
 3399TIP3   OH231831   3.135   2.125   2.181  0.3891 -0.7131  1.0507
 3399TIP3    H131832   3.118   2.177   2.260  2.1273 -0.1537  1.1074
 3399TIP3    H231833   3.079   2.049   2.190 -0.0330 -0.2732  2.4454
 3400TIP3   OH231834   3.769   5.062   0.454 -0.1340 -0.5461 -0.1465
 3400TIP3    H131835   3.858   5.092   0.434  0.0058 -0.3940  0.6861
 3400TIP3    H231836   3.728   5.052   0.368 -0.0271  1.5655 -0.5174
 3401TIP3   OH231837   6.223   1.113   7.164  0.3304  0.5892 -0.5905
 3401TIP3    H131838   6.178   1.198   7.159 -0.5898  0.1536  0.0344
 3401TIP3    H231839   6.237   1.088   7.072 -0.2172  0.9917 -0.7893
 3402TIP3   OH231840   4.030   5.151   7.712  0.2837  0.1032 -0.2036
 3402TIP3    H131841   4.051   5.243   7.702 -1.2438  0.3680 -1.4152
 3402TIP3    H231842   3.961   5.149   7.779  1.0169 -0.2973  0.5709
 3403TIP3   OH231843   3.188   5.897   1.645 -0.3487  0.1205  0.2997
 3403TIP3    H131844   3.106   5.875   1.600  0.6501 -0.7280 -1.1838
 3403TIP3    H231845   3.193   5.835   1.718  0.3872 -1.8953 -1.3769
 3404TIP3   OH231846   6.635   3.694   7.937 -0.6576  0.1483 -0.0578
 3404TIP3    H131847   6.686   3.621   7.901 -1.8112 -1.3711  1.2996
 3404TIP3    H231848   6.669   3.706   8.025 -3.2597 -1.6299  1.2967
 3405TIP3   OH231849   5.799   2.466   7.845 -0.1635  0.0265 -0.1608
 3405TIP3    H131850   5.725   2.449   7.904  0.7112  0.0995  0.9828
 3405TIP3    H231851   5.760   2.465   7.758 -1.6637  0.8434  0.4587
 3406TIP3   OH231852   6.044   6.245   2.764 -0.2355  0.0153  0.2022
 3406TIP3    H131853   6.125   6.284   2.797 -0.7815 -0.9564  2.9357
 3406TIP3    H231854   6.072   6.195   2.687  1.7169 -0.0593  0.8903
 3407TIP3   OH231855   4.623   1.973   1.532  0.3200  0.1549  0.4352
 3407TIP3    H131856   4.677   2.007   1.603  1.5077 -1.4274  0.3427
 3407TIP3    H231857   4.567   2.047   1.507  0.5770  1.0419  2.3112
 3408TIP3   OH231858   0.727   4.957   8.594  0.0629  0.0466 -0.1462
 3408TIP3    H131859   0.668   5.025   8.561 -1.6878 -1.4627 -0.3197
 3408TIP3    H231860   0.798   5.005   8.637 -0.0990  1.9906 -1.8788
 3409TIP3   OH231861   4.956   1.429   8.450 -0.0929  0.3001 -0.2042
 3409TIP3    H131862   4.973   1.455   8.541 -0.8772 -0.3175  0.1317
 3409TIP3    H231863   5.043   1.413   8.413  0.1638 -0.9912  0.9078
 3410TIP3   OH231864   5.527   4.897   2.001 -0.6310 -0.8288 -0.3523
 3410TIP3    H131865   5.509   4.966   2.065  1.8580 -0.4703  0.0601
 3410TIP3    H231866   5.527   4.816   2.053 -0.1320 -0.7137 -0.1620
 3411TIP3   OH231867   1.890   5.660   2.259 -0.2711 -0.6921 -0.3897
 3411TIP3    H131868   1.950   5.587   2.246  1.7257  1.0553 -1.7134
 3411TIP3    H231869   1.867   5.657   2.352  0.8589 -2.1675 -0.1236
 3412TIP3   OH231870   0.259   0.089   1.426 -0.1910  0.1916  0.0293
 3412TIP3    H131871   0.312   0.036   1.485  0.5202 -1.2086 -1.7513
 3412TIP3    H231872   0.260   0.177   1.465 -0.0726 -0.7227  2.2222
 3413TIP3   OH231873   5.732   0.834   6.761 -0.2477  0.3597 -0.0452
 3413TIP3    H131874   5.715   0.752   6.715 -0.2902 -0.0514  0.6757
 3413TIP3    H231875   5.696   0.819   6.849  0.8055  0.7290  0.4564
 3414TIP3   OH231876   3.041   6.828   7.228  0.3227  0.0111 -0.8895
 3414TIP3    H131877   3.012   6.767   7.296  0.1706  1.0092 -0.0350
 3414TIP3    H231878   2.973   6.824   7.161  0.9052 -1.6352 -1.4284
 3415TIP3   OH231879   5.627   2.776   1.648 -0.2926 -0.9429 -0.9281
 3415TIP3    H131880   5.600   2.740   1.563 -2.2817 -0.4826 -0.5203
 3415TIP3    H231881   5.721   2.791   1.638 -0.6042 -0.1710 -3.3385
 3416TIP3   OH231882   2.935   0.361   1.627 -0.1602 -0.2212 -0.3051
 3416TIP3    H131883   3.002   0.341   1.563  0.0125  0.2751 -0.2867
 3416TIP3    H231884   2.966   0.442   1.669 -0.4369 -0.3549  0.1612
 3417TIP3   OH231885   6.194   2.622   0.589  0.7857  0.3480 -0.5490
 3417TIP3    H131886   6.197   2.530   0.564  2.0888  0.6797 -1.7599
 3417TIP3    H231887   6.105   2.636   0.621  0.1459 -1.0011 -1.6496
 3418TIP3   OH231888   1.539   3.711   1.668 -0.7071  0.0741  0.1019
 3418TIP3    H131889   1.508   3.672   1.586 -1.2419 -0.3921  0.5128
 3418TIP3    H231890   1.461   3.714   1.723  0.1442 -2.1375  1.5635
 3419TIP3   OH231891   5.967   4.576   1.028 -0.0793  0.0368 -0.3343
 3419TIP3    H131892   6.018   4.495   1.034  0.0974  0.1862  0.1803
 3419TIP3    H231893   5.997   4.616   0.946 -0.3608 -0.5440 -0.7326
 3420TIP3   OH231894   3.144   2.707   1.757 -0.6864  0.7174 -0.2452
 3420TIP3    H131895   3.210   2.739   1.818 -2.3297  0.0054  2.0140
 3420TIP3    H231896   3.148   2.768   1.683  0.7051  2.2110  1.0078
 3421TIP3   OH231897   5.417   0.552   7.908  0.3259 -0.1845 -0.1556
 3421TIP3    H131898   5.392   0.644   7.902  0.0087 -0.3464 -2.2011
 3421TIP3    H231899   5.377   0.521   7.989 -1.6352  0.9072 -0.6317
 3422TIP3   OH231900   3.002   3.148   7.079 -0.0139 -0.3267  0.3613
 3422TIP3    H131901   2.976   3.239   7.087 -2.0500 -0.7702 -0.4657
 3422TIP3    H231902   3.096   3.147   7.099 -0.2408  1.7001  1.7854
 3423TIP3   OH231903   3.055   4.300   2.707 -0.1724  0.2899 -0.6192
 3423TIP3    H131904   2.998   4.338   2.774 -0.5873 -0.7385 -0.3698
 3423TIP3    H231905   3.132   4.356   2.706 -0.0784  0.2190  0.8652
 3424TIP3   OH231906   4.037   5.159   0.405  0.5312 -0.3648 -0.0585
 3424TIP3    H131907   4.082   5.093   0.460 -0.6094 -1.7512 -0.7221
 3424TIP3    H231908   4.079   5.150   0.320  0.0783 -0.5498 -0.2628
 3425TIP3   OH231909   5.495   6.335   1.704 -0.3576 -1.1463  0.0022
 3425TIP3    H131910   5.552   6.270   1.746  1.5893 -0.3763 -1.2650
 3425TIP3    H231911   5.526   6.338   1.613  0.2721  2.1462  0.1955
 3426TIP3   OH231912   4.148   1.465   1.678  0.1939  0.2218 -0.1118
 3426TIP3    H131913   4.114   1.528   1.615  2.2432  0.5652 -0.9521
 3426TIP3    H231914   4.206   1.408   1.627 -2.2513 -3.0500  0.4089
 3427TIP3   OH231915   0.931   5.436   8.759  0.1637 -0.4642 -0.3594
 3427TIP3    H131916   0.856   5.396   8.804  0.9149  0.4528  1.8131
 3427TIP3    H231917   1.003   5.431   8.822  1.5343  0.1016 -1.8067
 3428TIP3   OH231918   6.165   0.885   1.358  0.1878  0.1913  0.0036
 3428TIP3    H131919   6.198   0.857   1.274 -0.5641  2.5126 -1.1720
 3428TIP3    H231920   6.243   0.904   1.410  0.6601 -0.1808 -0.5598
 3429TIP3   OH231921   4.142   5.012   8.037 -0.3075  0.1321  0.2913
 3429TIP3    H131922   4.083   5.011   7.962  0.2217 -1.1239 -0.1310
 3429TIP3    H231923   4.149   5.105   8.060 -0.2849  0.5778 -1.3692
 3430TIP3   OH231924   0.407   4.790   1.713 -0.0673 -0.2591  0.2549
 3430TIP3    H131925   0.390   4.716   1.654  0.8247  0.4199 -0.9010
 3430TIP3    H231926   0.386   4.867   1.661  0.0139  0.3478  1.1015
 3431TIP3   OH231927   5.504   1.507   0.745 -0.4966 -0.4069  0.1238
 3431TIP3    H131928   5.484   1.597   0.771  0.2682 -0.0432 -0.5035
 3431TIP3    H231929   5.572   1.516   0.678 -0.2359 -1.4684  0.2320
 3432TIP3   OH231930   4.489   2.053   7.655 -0.1924  0.1252  0.1317
 3432TIP3    H131931   4.470   2.032   7.746  0.3953  0.1881  0.2751
 3432TIP3    H231932   4.403   2.062   7.614 -0.4931  1.3638  0.9653
 3433TIP3   OH231933   4.973   0.002   0.810 -0.0909  0.0628  0.3387
 3433TIP3    H131934   4.992   0.053   0.890 -0.2858  0.0893  0.3692
 3433TIP3    H231935   4.986  -0.089   0.836  1.1663  0.1317  0.0384
 3434TIP3   OH231936   2.668   6.648   1.683  0.1507  0.7448 -0.2985
 3434TIP3    H131937   2.711   6.683   1.761 -0.0532  1.9265 -0.7066
 3434TIP3    H231938   2.578   6.677   1.690 -0.1261 -0.0393 -0.4601
 3435TIP3   OH231939   4.985   0.442   2.490  0.0853 -0.1946  0.2901
 3435TIP3    H131940   4.983   0.366   2.432 -0.9383 -0.9455  1.2709
 3435TIP3    H231941   4.963   0.407   2.576  0.1231  1.1393  0.8663
 3436TIP3   OH231942   3.205   4.604   8.395  0.4071  0.0195 -0.3619
 3436TIP3    H131943   3.262   4.622   8.320  0.7491 -0.0831 -0.1303
 3436TIP3    H231944   3.141   4.675   8.394 -0.3565 -0.6500 -1.4819
 3437TIP3   OH231945   4.669   6.563   8.204  0.3903 -0.0816 -0.1560
 3437TIP3    H131946   4.739   6.509   8.167 -0.2260 -0.6089 -0.5592
 3437TIP3    H231947   4.691   6.652   8.176  0.2626 -0.3949 -1.2914
 3438TIP3   OH231948   2.470   0.295   2.874 -0.6635  0.8460 -0.7720
 3438TIP3    H131949   2.507   0.379   2.848  0.4329  0.6707  0.1077
 3438TIP3    H231950   2.376   0.311   2.883 -0.6592  1.6303 -1.8739
 3439TIP3   OH231951   1.646   0.582   1.335  0.0543  0.3833 -0.0056
 3439TIP3    H131952   1.655   0.617   1.246  1.1376 -0.7739 -0.3842
 3439TIP3    H231953   1.736   0.577   1.368 -0.3026  0.4039  1.0057
 3440TIP3   OH231954   1.991   6.512   0.656 -0.3806 -0.0139  0.5183
 3440TIP3    H131955   2.056   6.491   0.723 -0.3430 -0.9747  0.1913
 3440TIP3    H231956   2.027   6.476   0.575 -1.5885 -1.1204  0.4386
 3441TIP3   OH231957   4.975   2.871   1.019 -0.4999  0.6507  0.7282
 3441TIP3    H131958   4.975   2.967   1.014 -1.1252  0.6021 -1.4393
 3441TIP3    H231959   5.051   2.850   1.073 -0.7017  2.3743  1.7550
 3442TIP3   OH231960   0.696   3.629   7.319 -0.5323  0.5126 -0.1446
 3442TIP3    H131961   0.758   3.683   7.269 -0.5759  0.7314  0.0386
 3442TIP3    H231962   0.614   3.637   7.270 -0.4163  0.2176 -0.3910
 3443TIP3   OH231963   3.384   1.908   2.443 -0.3635  0.4318  0.1913
 3443TIP3    H131964   3.330   1.844   2.397 -0.3329 -0.4822  1.3597
 3443TIP3    H231965   3.407   1.864   2.525  2.0209  0.8628 -0.2019
 3444TIP3   OH231966   4.386   5.007   0.830 -0.0355  0.1105 -0.3323
 3444TIP3    H131967   4.338   4.992   0.911  0.0166  0.8930 -0.1520
 3444TIP3    H231968   4.415   5.098   0.835 -0.3041  0.2700 -1.3670
 3445TIP3   OH231969   1.482   2.979   6.612  0.6241  0.8627 -0.2496
 3445TIP3    H131970   1.543   2.985   6.685  0.4238  1.6564 -0.1418
 3445TIP3    H231971   1.510   2.902   6.563 -0.2231 -0.6877  1.5716
 3446TIP3   OH231972   0.591   1.979   7.622  0.3314  0.0884  0.4274
 3446TIP3    H131973   0.590   2.073   7.639  0.6320  0.4768 -1.4464
 3446TIP3    H231974   0.506   1.961   7.582 -0.2937 -0.7410  2.0398
 3447TIP3   OH231975   6.287   3.936   8.591  0.0196 -0.2888 -0.4438
 3447TIP3    H131976   6.321   3.957   8.504  0.5453  1.1710  0.0890
 3447TIP3    H231977   6.364   3.938   8.648 -0.6680  1.4880  0.5089
 3448TIP3   OH231978   4.635   2.947   1.990  0.5048  0.3683  0.1237
 3448TIP3    H131979   4.554   2.932   1.941 -1.0951  1.5342  2.2442
 3448TIP3    H231980   4.683   3.011   1.938 -1.1601  1.6094  0.0220
 3449TIP3   OH231981   6.501   2.548   7.730  0.1416 -0.7238 -0.0210
 3449TIP3    H131982   6.443   2.575   7.802  1.3564 -2.3287  1.6478
 3449TIP3    H231983   6.544   2.629   7.702 -0.8038  0.0262  0.6363
 3450TIP3   OH231984   1.546   1.666   1.529  0.1775  0.0792 -0.5436
 3450TIP3    H131985   1.641   1.680   1.519 -0.0032  1.2522 -0.7827
 3450TIP3    H231986   1.539   1.588   1.583  1.2733 -0.6944 -1.4595
 3451TIP3   OH231987   2.887   3.788   1.268 -0.3109 -0.1470  0.3307
 3451TIP3    H131988   2.898   3.816   1.359 -3.1719 -1.3888  1.1773
 3451TIP3    H231989   2.792   3.777   1.257  0.1406 -5.3019 -1.1118
 3452TIP3   OH231990   5.234   1.476   1.345  0.6852 -0.0519  0.1460
 3452TIP3    H131991   5.293   1.447   1.415  2.2604  1.8506 -0.2792
 3452TIP3    H231992   5.273   1.559   1.315 -1.9186  0.9976 -0.5679
 3453TIP3   OH231993   4.692   5.922   7.415 -0.0914  0.3710 -0.5773
 3453TIP3    H131994   4.684   5.849   7.476 -0.0704  0.6071 -0.2883
 3453TIP3    H231995   4.689   6.000   7.471 -0.5079  0.6020 -0.9166
 3454TIP3   OH231996   2.475   2.206   0.900  0.1800 -0.2095 -0.0024
 3454TIP3    H131997   2.499   2.120   0.936  1.6046  0.1446 -0.0578
 3454TIP3    H231998   2.546   2.227   0.840 -0.6408  0.5971 -0.7251
 3455TIP3   OH231999   2.927   5.845   0.904 -0.3060 -0.5456  0.6095
 3455TIP3    H132000   2.914   5.889   0.820 -0.3857  0.2144  1.0121
 3455TIP3    H232001   2.904   5.753   0.887 -0.3875 -0.3858 -0.1769
 3456TIP3   OH232002   1.193   1.712   0.308 -0.6183 -0.2065  0.1515
 3456TIP3    H132003   1.258   1.734   0.242  0.1469  1.1682  1.3153
 3456TIP3    H232004   1.129   1.783   0.303 -0.6352 -0.1723  0.7735
 3457TIP3   OH232005   0.407   1.181   1.639  0.0399  0.3535 -0.5816
 3457TIP3    H132006   0.356   1.189   1.558  0.4158 -2.3538 -1.1653
 3457TIP3    H232007   0.342   1.160   1.706 -0.0812  1.1342 -0.4364
 3458TIP3   OH232008   0.061   4.084   1.197  0.8274  0.3386 -0.2417
 3458TIP3    H132009   0.018   4.085   1.112  1.6655 -0.3696 -0.6807
 3458TIP3    H232010   0.039   3.999   1.234  0.1023  0.8107  0.4580
 3459TIP3   OH232011   3.006   5.326   8.736  0.8290  0.5378  0.0643
 3459TIP3    H132012   3.000   5.320   8.640 -1.3066  1.0854  0.1051
 3459TIP3    H232013   3.001   5.419   8.755  0.6855  0.3990  0.7275
 3460TIP3   OH232014   4.330   6.129   0.782 -0.3504 -0.4278  0.1391
 3460TIP3    H132015   4.351   6.209   0.830  0.4720 -1.0951  0.9166
 3460TIP3    H232016   4.267   6.157   0.715 -0.1098  0.8497  0.4287
 3461TIP3   OH232017   6.285   1.449   7.706 -0.6196 -0.1705 -0.5953
 3461TIP3    H132018   6.189   1.446   7.706 -0.6384 -0.6082 -2.5812
 3461TIP3    H232019   6.310   1.406   7.788 -2.1056  2.0552  1.1701
 3462TIP3   OH232020   3.416   3.651   0.818  0.5792 -0.2948 -0.3783
 3462TIP3    H132021   3.324   3.624   0.825  0.7078 -0.4145  1.3359
 3462TIP3    H232022   3.446   3.614   0.735 -0.7566 -0.7376 -0.6906
 3463TIP3   OH232023   1.954   4.840   8.171 -0.6783  0.9421 -0.4061
 3463TIP3    H132024   2.016   4.913   8.168  1.9056 -1.0828 -0.7014
 3463TIP3    H232025   1.958   4.802   8.083 -0.3203 -0.7606  0.3134
 3464TIP3   OH232026   6.659   1.480   0.459 -0.1999  0.0863  0.2470
 3464TIP3    H132027   6.740   1.431   0.447 -1.0654 -1.0303 -1.5274
 3464TIP3    H232028   6.687   1.567   0.487  1.7714  0.3096 -2.0701
 3465TIP3   OH232029   0.995   6.136   6.930 -0.0847  0.2239  0.3035
 3465TIP3    H132030   1.074   6.126   6.983 -0.6728  0.6335  1.2804
 3465TIP3    H232031   0.924   6.107   6.987 -0.8886  1.9303  0.2395
 3466TIP3   OH232032   4.188   2.685   8.001 -0.0504  0.0920 -0.3743
 3466TIP3    H132033   4.122   2.706   8.067 -0.6350  0.2309 -0.9934
 3466TIP3    H232034   4.201   2.767   7.952 -1.1147 -0.5039 -1.7249
 3467TIP3   OH232035   5.322   3.188   2.541  0.3303  0.2771 -0.4500
 3467TIP3    H132036   5.259   3.126   2.505  0.4560  0.9223 -1.8527
 3467TIP3    H232037   5.399   3.178   2.485 -0.2452  2.9106 -1.8852
 3468TIP3   OH232038   1.531   2.729   6.497 -0.0133  0.0860 -0.6472
 3468TIP3    H132039   1.604   2.672   6.471 -0.5055 -0.5269 -0.7053
 3468TIP3    H232040   1.459   2.669   6.516  0.2902  0.4726  2.1263
 3469TIP3   OH232041   0.867   4.381   2.179  0.0295 -0.2096 -0.1957
 3469TIP3    H132042   0.905   4.443   2.242  0.0906  0.3921 -0.8115
 3469TIP3    H232043   0.773   4.384   2.196  0.1476 -0.9785  0.6866
 3470TIP3   OH232044   5.437   4.773   8.681  0.4343 -0.3556  0.0840
 3470TIP3    H132045   5.399   4.741   8.600  1.4422 -2.8826  0.5062
 3470TIP3    H232046   5.362   4.803   8.733 -0.5369 -1.4454 -0.6444
 3471TIP3   OH232047   2.016   5.960   8.467  0.6098 -0.8951 -0.0939
 3471TIP3    H132048   1.982   6.048   8.485 -0.3486 -0.9697 -1.3909
 3471TIP3    H232049   1.977   5.905   8.535  0.3963 -0.4911  0.1147
 3472TIP3   OH232050   0.945   5.372   7.996  0.6942  0.2872  0.0235
 3472TIP3    H132051   0.952   5.421   8.078  0.5766  0.0692  0.1648
 3472TIP3    H232052   0.873   5.414   7.949  0.2083 -0.1199  0.4007
 3473TIP3   OH232053   5.976   1.314   8.034 -0.5921  0.5182  0.1201
 3473TIP3    H132054   6.008   1.280   8.118 -3.3776 -0.1442  1.0124
 3473TIP3    H232055   5.887   1.279   8.026 -0.5416  0.8337 -2.9941
 3474TIP3   OH232056   3.722   5.722   0.840 -0.0015 -0.4027 -0.0841
 3474TIP3    H132057   3.797   5.678   0.882 -0.0847  0.0028  0.5027
 3474TIP3    H232058   3.728   5.695   0.748  0.0990 -1.4318  0.2028
 3475TIP3   OH232059   4.455   2.507   0.355 -0.6109 -0.5899  0.0174
 3475TIP3    H132060   4.514   2.496   0.280 -1.6130 -1.0882 -0.7221
 3475TIP3    H232061   4.505   2.561   0.416 -1.0088  2.8974 -2.4576
 3476TIP3   OH232062   4.072   1.721   8.602 -0.3820  0.2088 -0.0123
 3476TIP3    H132063   4.107   1.786   8.542  2.2054 -0.7745  0.2939
 3476TIP3    H232064   4.052   1.645   8.546  1.0509 -0.3408  0.1816
 3477TIP3   OH232065   6.725   5.067   1.716 -0.1989 -0.6252  0.3701
 3477TIP3    H132066   6.749   4.991   1.664  0.4020 -1.3861  1.6951
 3477TIP3    H232067   6.648   5.038   1.766 -1.9559  0.7075 -1.3954
 3478TIP3   OH232068   3.424   3.227   0.394  0.1198 -0.6185 -0.2173
 3478TIP3    H132069   3.501   3.189   0.435  1.1402  1.8855  0.3736
 3478TIP3    H232070   3.440   3.218   0.300  1.7139  0.7891 -0.1312
 3479TIP3   OH232071   6.662   2.391   7.589 -0.3238  0.3442  0.1348
 3479TIP3    H132072   6.626   2.429   7.509 -1.4152 -0.1584  0.3723
 3479TIP3    H232073   6.616   2.437   7.660  0.2151  0.3817  0.4681
 3480TIP3   OH232074   5.181   1.677   2.032  0.2959  0.1254  0.2349
 3480TIP3    H132075   5.180   1.648   1.940  1.8810 -0.3836  0.3434
 3480TIP3    H232076   5.233   1.757   2.031 -0.0798  0.3800  0.6363
 3481TIP3   OH232077   2.604   1.543   7.078 -0.9556  0.7091  0.0458
 3481TIP3    H132078   2.559   1.464   7.108  0.7943 -0.1643  0.4511
 3481TIP3    H232079   2.564   1.562   6.993 -0.8595 -1.0930 -0.4337
 3482TIP3   OH232080   1.171   5.009   0.326 -0.1834  0.0060  0.6577
 3482TIP3    H132081   1.124   4.988   0.407  1.7550 -0.5205  1.6883
 3482TIP3    H232082   1.243   4.947   0.322  2.0384  2.4399  0.5306
 3483TIP3   OH232083   4.288   0.592   1.919  0.1665  0.6619 -0.1291
 3483TIP3    H132084   4.307   0.524   1.855 -0.7137 -0.7737  1.0630
 3483TIP3    H232085   4.194   0.608   1.910  0.2809  1.4198 -0.0823
 3484TIP3   OH232086   5.392   3.339   8.790 -0.1347 -0.2694 -0.6952
 3484TIP3    H132087   5.373   3.348   8.883  1.7785 -1.0327 -0.2038
 3484TIP3    H232088   5.351   3.256   8.765  2.3585 -1.9098  0.3585
 3485TIP3   OH232089   4.646   1.316   2.141 -0.1897 -0.3412 -0.1623
 3485TIP3    H132090   4.652   1.297   2.235 -0.8838 -0.1237 -0.0691
 3485TIP3    H232091   4.646   1.230   2.099 -1.0827 -0.4923  0.1212
 3486TIP3   OH232092   5.292   4.717   2.338 -0.1458  0.2055 -0.1166
 3486TIP3    H132093   5.203   4.702   2.370 -0.4396  1.0664 -0.4955
 3486TIP3    H232094   5.331   4.630   2.334 -1.6053 -0.4425 -1.8070
 3487TIP3   OH232095   6.426   2.846   8.335  0.5700 -0.1623 -0.1247
 3487TIP3    H132096   6.504   2.895   8.310  0.4057  1.3385  1.9989
 3487TIP3    H232097   6.353   2.905   8.316  0.2339 -0.2247  0.8784
 3488TIP3   OH232098   6.793   3.233   0.577 -1.0617  0.0730  0.0220
 3488TIP3    H132099   6.771   3.142   0.600  0.3510 -0.2849  0.0380
 3488TIP3    H232100   6.760   3.243   0.488  0.8053 -1.2265 -0.8713
 3489TIP3   OH232101   4.638   2.783   0.237 -0.1099 -0.5677  0.2018
 3489TIP3    H132102   4.646   2.738   0.322 -0.1162 -0.1469  0.4270
 3489TIP3    H232103   4.561   2.839   0.247  0.0628 -0.2999  0.0178
 3490TIP3   OH232104   5.742   3.193   0.611  0.0812  0.4690  0.6292
 3490TIP3    H132105   5.654   3.188   0.573  1.2784 -0.9730 -2.1659
 3490TIP3    H232106   5.779   3.273   0.575  0.8727 -0.3822 -0.4902
 3491TIP3   OH232107   0.538   2.967   7.848 -0.3746 -0.0669  0.9999
 3491TIP3    H132108   0.579   3.049   7.876 -1.5258  0.1323  2.2334
 3491TIP3    H232109   0.540   2.971   7.752  0.8353  0.7498  1.0442
 3492TIP3   OH232110   4.544   3.742   8.473 -0.0243 -0.5089 -0.3612
 3492TIP3    H132111   4.624   3.781   8.439  0.3622 -0.3254  0.7120
 3492TIP3    H232112   4.561   3.648   8.473  0.2202 -0.4684 -0.1004
 3493TIP3   OH232113   5.951   4.971   2.413 -0.2027 -0.0306 -0.6661
 3493TIP3    H132114   6.027   4.957   2.470 -1.7456  0.6390  1.7169
 3493TIP3    H232115   5.955   5.064   2.390 -0.5424  0.1063 -0.1709
 3494TIP3   OH232116   5.077   5.292   7.231 -0.8044 -0.0525  0.1294
 3494TIP3    H132117   5.107   5.344   7.157 -0.9202  0.2338  0.2819
 3494TIP3    H232118   5.007   5.345   7.271 -0.5097 -0.0502  0.6460
 3495TIP3   OH232119   2.949   1.141   0.662 -0.6065  0.1026 -0.1708
 3495TIP3    H132120   2.993   1.078   0.719  0.6404  0.6779 -0.4592
 3495TIP3    H232121   3.016   1.166   0.598 -0.8092  2.2672  0.3794
 3496TIP3   OH232122   5.611   1.313   0.953 -0.4173 -0.4419 -0.2359
 3496TIP3    H132123   5.650   1.242   0.901  0.0752  0.8207 -1.6613
 3496TIP3    H232124   5.559   1.363   0.891 -1.5167 -0.0672  0.9427
 3497TIP3   OH232125   3.118   3.234   0.373 -0.1589  0.7352 -0.1841
 3497TIP3    H132126   3.094   3.326   0.384 -0.7774  0.5284  0.2609
 3497TIP3    H232127   3.201   3.225   0.422 -0.6344  0.8245  0.6627
 3498TIP3   OH232128   3.640   1.625   7.195  0.6810  0.3957 -0.0216
 3498TIP3    H132129   3.632   1.534   7.167 -1.5983 -0.1600  2.1034
 3498TIP3    H232130   3.715   1.659   7.145  1.1225 -2.3826 -1.4444
 3499TIP3   OH232131   1.653   6.031   8.515 -0.1378  0.1313  0.6913
 3499TIP3    H132132   1.591   6.002   8.582  0.1080 -0.4491  0.6713
 3499TIP3    H232133   1.658   5.959   8.453  1.6881 -0.4778  1.4807
 3500TIP3   OH232134   2.261   6.776   0.974  0.8092 -0.2226 -0.0088
 3500TIP3    H132135   2.188   6.764   0.913  0.1681  1.1467  0.4457
 3500TIP3    H232136   2.266   6.871   0.986  3.3720 -0.1611 -0.8575
 3501TIP3   OH232137   0.120   0.177   6.751 -0.1004 -0.1871 -0.5303
 3501TIP3    H132138   0.098   0.200   6.842 -0.6500 -0.4865 -0.5871
 3501TIP3    H232139   0.216   0.169   6.751 -0.0018  0.7786 -0.2001
 3502TIP3   OH232140   0.292   2.954   7.184  0.4779  0.6936 -0.0390
 3502TIP3    H132141   0.231   2.887   7.216  0.7244  0.1420 -0.7037
 3502TIP3    H232142   0.377   2.909   7.180  0.6555  1.0618 -0.4413
 3503TIP3   OH232143   1.524   1.008   7.422 -0.1189  0.5651  0.0442
 3503TIP3    H132144   1.439   0.992   7.462  0.9444  2.1157  3.3394
 3503TIP3    H232145   1.567   0.922   7.422 -1.0129  0.1077  0.0887
 3504TIP3   OH232146   6.665   6.683   0.803 -0.1277  0.4814 -0.0655
 3504TIP3    H132147   6.660   6.688   0.898 -1.1835  1.2238 -0.1389
 3504TIP3    H232148   6.592   6.737   0.772 -0.6259 -0.8218 -1.2877
 3505TIP3   OH232149   6.542   3.838   8.795 -0.0553 -0.1919  0.2080
 3505TIP3    H132150   6.518   3.750   8.826 -1.1167 -0.0150 -0.0906
 3505TIP3    H232151   6.607   3.868   8.859 -0.2836 -0.8733  0.7818
 3506TIP3   OH232152   1.473   5.833   1.202  0.1158 -0.5615 -0.0876
 3506TIP3    H132153   1.493   5.903   1.263 -0.1231 -1.2010  0.7425
 3506TIP3    H232154   1.511   5.754   1.242  1.3745 -0.7566 -1.5298
 3507TIP3   OH232155   0.228   6.823   1.950 -0.2659 -0.1519  0.3936
 3507TIP3    H132156   0.270   6.780   2.024  0.8198 -1.4995 -0.9631
 3507TIP3    H232157   0.209   6.753   1.888  0.7876  1.1572 -1.5330
 3508TIP3   OH232158   4.776   0.902   7.942  0.1751 -0.1668 -0.2541
 3508TIP3    H132159   4.793   0.872   7.852  0.2122 -3.5106  0.7393
 3508TIP3    H232160   4.696   0.955   7.935 -0.8874 -1.8563 -2.0567
 3509TIP3   OH232161   3.522   1.161   1.538  0.1267  0.8135 -0.3689
 3509TIP3    H132162   3.467   1.108   1.595 -0.1083  1.0142 -0.4095
 3509TIP3    H232163   3.602   1.110   1.528  0.2045  0.8143  0.2097
 3510TIP3   OH232164   5.979   3.300   0.773 -0.1408 -0.2063 -0.1743
 3510TIP3    H132165   5.937   3.301   0.687 -1.0897 -2.2008  0.2024
 3510TIP3    H232166   5.907   3.312   0.835  0.5245  1.1349  0.3823
 3511TIP3   OH232167   0.121   4.766   2.465 -0.3529 -0.3828 -0.1141
 3511TIP3    H132168   0.123   4.797   2.555 -1.7049 -0.7188  0.0505
 3511TIP3    H232169   0.042   4.714   2.459 -0.0231 -0.7812 -1.3709
 3512TIP3   OH232170   3.178   0.210   0.801  0.3589 -0.3174  0.2692
 3512TIP3    H132171   3.165   0.167   0.885 -1.0788  2.3659  1.5697
 3512TIP3    H232172   3.272   0.227   0.796  0.5771 -1.2823  0.8880
 3513TIP3   OH232173   2.684   1.263   1.969  0.2129  0.3357 -0.1862
 3513TIP3    H132174   2.719   1.329   2.029 -0.7935 -1.1643  2.2081
 3513TIP3    H232175   2.630   1.207   2.024 -1.7790 -0.4802 -2.7548
 3514TIP3   OH232176   1.220   1.370   1.665 -0.7227  0.3964 -0.0110
 3514TIP3    H132177   1.185   1.305   1.726  1.1150  0.2913  1.0272
 3514TIP3    H232178   1.238   1.321   1.585  0.0744 -0.2916  0.5626
 3515TIP3   OH232179   4.590   5.069   0.604 -0.3253 -0.4836  0.0662
 3515TIP3    H132180   4.511   5.098   0.560 -0.5592 -0.5383  0.4395
 3515TIP3    H232181   4.625   5.148   0.645 -1.3516 -0.8145  1.6843
 3516TIP3   OH232182   0.194   4.578   0.830  0.2602 -0.1288  0.0889
 3516TIP3    H132183   0.267   4.601   0.773  0.4804 -1.8911 -0.3845
 3516TIP3    H232184   0.222   4.498   0.874 -0.6209  0.2411  1.3644
 3517TIP3   OH232185   0.712   3.409   1.225  0.0882  0.0115  0.1764
 3517TIP3    H132186   0.628   3.392   1.268  0.6312 -2.2297  0.4714
 3517TIP3    H232187   0.778   3.386   1.291  0.9170 -0.9859 -0.9597
 3518TIP3   OH232188   0.190   0.386   3.147  0.1770  0.3302 -0.0810
 3518TIP3    H132189   0.268   0.440   3.133  1.0474 -0.9869 -0.4033
 3518TIP3    H232190   0.188   0.326   3.073 -0.4283 -0.5077  0.5870
 3519TIP3   OH232191   5.081   1.767   7.707 -0.7889  0.2432 -0.0704
 3519TIP3    H132192   5.067   1.835   7.640 -1.4843 -1.4756 -1.7768
 3519TIP3    H232193   5.032   1.692   7.674  2.3115 -2.0689  0.2063
 3520TIP3   OH232194   2.296   5.150   2.425  0.8133 -0.1193 -0.2418
 3520TIP3    H132195   2.220   5.119   2.474  0.7380 -0.6286 -0.6756
 3520TIP3    H232196   2.368   5.149   2.489  0.7420 -0.8844 -0.1700
 3521TIP3   OH232197   2.336   1.405   2.426  0.3442 -0.2363  0.1905
 3521TIP3    H132198   2.331   1.457   2.346  0.2372  0.2948  0.5351
 3521TIP3    H232199   2.329   1.314   2.397  2.1799 -0.1835 -0.5932
 3522TIP3   OH232200   6.426   3.072   8.776  0.3792  0.0328 -0.0382
 3522TIP3    H132201   6.367   3.042   8.707  2.0116  0.8756 -1.8946
 3522TIP3    H232202   6.448   3.161   8.751  0.6771  0.5217  1.8559
 3523TIP3   OH232203   0.098   4.659   1.371  0.1781 -0.0298  0.1696
 3523TIP3    H132204   0.115   4.753   1.366  0.2814 -0.0932 -0.9930
 3523TIP3    H232205   0.155   4.621   1.305 -0.4289 -0.8375  0.0912
 3524TIP3   OH232206   0.318   2.661   1.133  0.5100  0.3573  0.0563
 3524TIP3    H132207   0.281   2.640   1.219  1.6496  1.7208  0.9213
 3524TIP3    H232208   0.408   2.686   1.152  0.6376  1.1446 -1.4962
 3525TIP3   OH232209   3.951   0.580   2.578 -0.1934  0.4581  0.1994
 3525TIP3    H132210   4.006   0.515   2.621  0.7498  0.2856 -1.1673
 3525TIP3    H232211   3.890   0.609   2.645  0.1412 -0.9681  1.1616
 3526TIP3   OH232212   1.233   0.263   8.669  0.0552 -0.5971 -0.4021
 3526TIP3    H132213   1.204   0.298   8.584  0.5850  1.0993  0.0716
 3526TIP3    H232214   1.313   0.312   8.689 -0.2771 -0.6665  1.2517
 3527TIP3   OH232215   5.349   5.744   1.565 -0.1528 -0.1022 -0.1921
 3527TIP3    H132216   5.273   5.727   1.509  1.0944 -2.7925 -1.2565
 3527TIP3    H232217   5.392   5.820   1.525 -0.8193 -0.2399 -1.2172
 3528TIP3   OH232218   2.968   6.445   2.658  0.2949 -0.0620 -0.2278
 3528TIP3    H132219   3.056   6.407   2.658  0.1077 -0.5033  0.2886
 3528TIP3    H232220   2.910   6.370   2.645  0.0346  0.3509 -1.6175
 3529TIP3   OH232221   0.821   5.509   1.024 -0.2719  0.0451 -0.0935
 3529TIP3    H132222   0.785   5.569   0.958  0.3534 -0.2735 -0.7346
 3529TIP3    H232223   0.766   5.522   1.101 -1.1968  0.2075 -0.7727
 3530TIP3   OH232224   4.251   1.862   1.293  0.3804 -0.1262  0.0356
 3530TIP3    H132225   4.318   1.798   1.317 -0.7628 -0.8633  1.4056
 3530TIP3    H232226   4.191   1.864   1.368 -1.1805  0.4454 -1.1644
 3531TIP3   OH232227   2.810   6.451   8.829 -0.5191  0.2781  0.1247
 3531TIP3    H132228   2.880   6.397   8.792 -1.0704 -0.5528  0.2559
 3531TIP3    H232229   2.842   6.541   8.823 -0.3738  0.1226 -1.8892
 3532TIP3   OH232230   6.109   3.179   8.810  0.0790 -0.0066 -0.2283
 3532TIP3    H132231   6.124   3.244   8.741  0.5448  0.4162  0.2712
 3532TIP3    H232232   6.049   3.223   8.871 -1.3503 -0.8223 -0.9787
 3533TIP3   OH232233   3.598   0.486   0.366 -0.4214  0.3878 -0.0669
 3533TIP3    H132234   3.618   0.473   0.274  1.7577  1.3719  0.2092
 3533TIP3    H232235   3.523   0.546   0.366  0.3706  1.4271 -1.2118
 3534TIP3   OH232236   1.176   1.725   0.592  0.0976  0.3010  0.3632
 3534TIP3    H132237   1.168   1.631   0.607  1.7543 -0.2991 -1.8563
 3534TIP3    H232238   1.183   1.732   0.496  1.5770  2.5216  0.5809
 3535TIP3   OH232239   3.116   1.594   1.059  0.3852 -0.0637  0.1452
 3535TIP3    H132240   3.211   1.608   1.056  0.3515  0.5909  1.5035
 3535TIP3    H232241   3.082   1.645   0.986  0.8893  1.6475  1.0603
 3536TIP3   OH232242   5.429   0.986   2.564 -0.0978 -0.1168 -0.7132
 3536TIP3    H132243   5.523   0.974   2.553  0.3461  0.9114  1.3743
 3536TIP3    H232244   5.404   0.918   2.627 -0.9515 -0.9490 -1.9171
 3537TIP3   OH232245   1.268   4.353   1.007 -0.0049  0.2772 -0.2582
 3537TIP3    H132246   1.265   4.407   1.085 -1.5296  1.7921 -1.2908
 3537TIP3    H232247   1.337   4.392   0.953  1.0654 -0.7824  0.2925
 3538TIP3   OH232248   3.785   5.884   7.297  0.2519 -0.6108  0.1210
 3538TIP3    H132249   3.711   5.887   7.236 -0.0624  0.3204  0.5193
 3538TIP3    H232250   3.806   5.791   7.306  0.2962 -0.7796 -1.3869
 3539TIP3   OH232251   5.750   4.764   0.886  0.0119  0.1683 -0.4217
 3539TIP3    H132252   5.774   4.855   0.904 -1.4146  0.3480  0.7714
 3539TIP3    H232253   5.723   4.729   0.971  0.4365 -1.3623 -0.8734
 3540TIP3   OH232254   4.761   0.579   0.965  0.3112  0.3298 -0.7515
 3540TIP3    H132255   4.774   0.565   0.871 -0.3960 -1.3562 -0.6258
 3540TIP3    H232256   4.801   0.665   0.981  1.6480  0.0715 -2.3291
 3541TIP3   OH232257   6.846   5.628   0.413  0.3853  0.0995  0.2272
 3541TIP3    H132258   6.859   5.603   0.505 -1.8349  0.4431  0.6949
 3541TIP3    H232259   6.808   5.715   0.417  1.1446  0.5256 -1.0934
 3542TIP3   OH232260   1.790   3.669   1.428  0.2213 -0.1604  0.1672
 3542TIP3    H132261   1.841   3.701   1.502  1.4847  1.2636 -1.2615
 3542TIP3    H232262   1.835   3.590   1.401  1.4609  0.8472 -0.8063
 3543TIP3   OH232263   1.080   6.706   0.028 -0.5020 -0.0526  0.3512
 3543TIP3    H132264   1.012   6.741  -0.029  0.7817  2.0383  0.0188
 3543TIP3    H232265   1.032   6.667   0.102 -2.0654  1.5508  0.2475
 3544TIP3   OH232266   2.109   3.423   8.337  0.5650  0.4581  0.2798
 3544TIP3    H132267   2.124   3.390   8.248  0.8119 -2.0835  1.1836
 3544TIP3    H232268   2.138   3.514   8.334  0.1025  0.5767 -2.3532
 3545TIP3   OH232269   6.576   4.483   8.233  0.5444  0.4761  0.3211
 3545TIP3    H132270   6.602   4.534   8.156  0.2310 -2.0633 -1.6238
 3545TIP3    H232271   6.655   4.433   8.256  0.0839 -0.2511  0.3685
 3546TIP3   OH232272   5.377   2.480   7.865 -0.3771  0.3262  0.8575
 3546TIP3    H132273   5.301   2.452   7.916  1.0178 -0.2167  2.7340
 3546TIP3    H232274   5.410   2.558   7.909  1.1539 -0.4310  1.1332
 3547TIP3   OH232275   3.896   4.859   1.529 -0.3731  0.2753  0.3376
 3547TIP3    H132276   3.850   4.891   1.451  1.4959  0.7679 -0.6349
 3547TIP3    H232277   3.910   4.938   1.582  1.0868  0.5188 -0.3543
 3548TIP3   OH232278   1.899   1.794   6.882 -0.1934  0.2380 -0.6190
 3548TIP3    H132279   1.922   1.790   6.975  0.0399 -1.4432 -0.7203
 3548TIP3    H232280   1.847   1.875   6.873  0.7076  0.9947  0.7402
 3549TIP3   OH232281   4.784   2.201   7.905 -0.2601 -0.8449  0.0778
 3549TIP3    H132282   4.811   2.134   7.842 -0.6324 -0.8331 -0.1007
 3549TIP3    H232283   4.696   2.225   7.877  0.4598  0.8950 -0.8292
 3550TIP3   OH232284   5.713   3.227   2.247  0.1953  0.2677 -0.0089
 3550TIP3    H132285   5.764   3.275   2.182  0.6484 -0.2230 -0.0152
 3550TIP3    H232286   5.768   3.226   2.325  0.1522 -0.1781  0.0159
 3551TIP3   OH232287   0.030   1.582   8.774 -0.2023 -0.4972  0.1289
 3551TIP3    H132288   0.086   1.505   8.783 -0.2037 -0.5978 -0.6665
 3551TIP3    H232289   0.065   1.644   8.838  2.4418  0.3743 -1.9440
 3552TIP3   OH232290   6.208   6.127   8.774  0.6403 -0.1681  0.2046
 3552TIP3    H132291   6.161   6.184   8.834  1.2503 -0.2508  0.7738
 3552TIP3    H232292   6.301   6.145   8.791  0.8259 -0.6253 -0.2838
 3553TIP3   OH232293   0.718   2.005   8.223  0.3186  0.2327 -0.6270
 3553TIP3    H132294   0.755   2.091   8.200  2.3401 -0.4980 -0.2947
 3553TIP3    H232295   0.730   1.999   8.318  1.6764 -1.0551 -0.8600
 3554TIP3   OH232296   0.106   1.844   1.229  0.0231 -0.4231 -0.1177
 3554TIP3    H132297   0.193   1.877   1.205 -0.4537 -0.7645 -2.5985
 3554TIP3    H232298   0.110   1.832   1.324  2.3453  0.5114 -0.0329
 3555TIP3   OH232299   2.010   6.557   7.749  0.2980  0.4808  0.2540
 3555TIP3    H132300   2.083   6.585   7.804  1.9412  0.1112 -1.6037
 3555TIP3    H232301   2.022   6.463   7.740  1.4414  0.7844 -2.4300
 3556TIP3   OH232302   3.841   6.151   2.465 -0.0431  0.5883 -0.5078
 3556TIP3    H132303   3.786   6.152   2.386 -0.6896  0.4849 -0.0704
 3556TIP3    H232304   3.865   6.243   2.478 -0.8218  0.7671 -0.2351
 3557TIP3   OH232305   2.317   2.806   7.900  0.1773 -0.0830 -0.4380
 3557TIP3    H132306   2.289   2.805   7.992 -0.0592  1.4070 -0.4767
 3557TIP3    H232307   2.367   2.725   7.890 -2.1661 -1.7446  0.2488
 3558TIP3   OH232308   2.505   0.366   2.021  0.6345  0.1771 -0.2567
 3558TIP3    H132309   2.528   0.449   2.063 -0.6116  0.7534 -0.6631
 3558TIP3    H232310   2.425   0.385   1.972 -0.5091 -1.6010  0.7797
 3559TIP3   OH232311   2.459   0.096   2.314  0.4181 -0.1368 -0.4069
 3559TIP3    H132312   2.513   0.097   2.393  0.1509 -1.3892 -0.1793
 3559TIP3    H232313   2.403   0.019   2.325 -1.2842  0.9930 -0.7166
 3560TIP3   OH232314   6.427   2.944   7.008  0.3069  0.2260 -0.3326
 3560TIP3    H132315   6.479   2.924   7.085  1.8543 -0.0468 -1.3886
 3560TIP3    H232316   6.431   3.039   7.000  0.9674  0.1911 -0.5759
 3561TIP3   OH232317   6.084   5.443   8.595 -0.1359  0.4786  0.3670
 3561TIP3    H132318   6.052   5.377   8.657 -0.0783 -0.2479 -0.3603
 3561TIP3    H232319   6.097   5.521   8.648 -0.8197  0.0888  1.1278
 3562TIP3   OH232320   2.938   1.017   0.047  0.7238  0.0364  0.3926
 3562TIP3    H132321   2.907   1.065   0.123 -1.6194 -1.5898  0.5585
 3562TIP3    H232322   2.948   0.927   0.078 -1.3450 -0.8956 -1.3942
 3563TIP3   OH232323   0.064   2.819   8.544 -0.0880  0.2588  0.3927
 3563TIP3    H132324   0.135   2.783   8.598 -0.8833 -0.7074  0.8332
 3563TIP3    H232325   0.068   2.767   8.463 -0.0698  0.4507  0.2705
 3564TIP3   OH232326   5.410   1.869   1.469  0.0063  0.5235  0.7649
 3564TIP3    H132327   5.340   1.822   1.516 -0.7389  0.5085 -0.3283
 3564TIP3    H232328   5.437   1.808   1.400  1.6053  0.2447  1.5763
 3565TIP3   OH232329   3.947   3.828   0.460 -0.3660  0.4228  0.1570
 3565TIP3    H132330   3.859   3.802   0.489  0.4238 -0.4382  1.9332
 3565TIP3    H232331   3.980   3.751   0.414 -0.1064  0.3078  0.5319
 3566TIP3   OH232332   4.418   1.012   1.462  0.0160  0.2574 -0.6552
 3566TIP3    H132333   4.398   1.106   1.456 -0.8601  0.1076 -0.2841
 3566TIP3    H232334   4.354   0.979   1.525 -1.0486 -0.9536 -2.2781
 3567TIP3   OH232335   3.542   1.237   0.482  0.1496 -0.1433  0.5172
 3567TIP3    H132336   3.523   1.295   0.409 -1.0875  2.0177  2.4144
 3567TIP3    H232337   3.626   1.267   0.516  0.5458 -0.8958  0.2282
 3568TIP3   OH232338   4.307   1.642   1.012  0.4078 -0.0695 -0.6589
 3568TIP3    H132339   4.295   1.606   1.100  4.2960 -0.5908 -0.1740
 3568TIP3    H232340   4.277   1.733   1.018  0.3679 -0.1755  1.1404
 3569TIP3   OH232341   3.615   1.462   2.422 -0.4409  0.3948  0.2268
 3569TIP3    H132342   3.553   1.531   2.398  1.2508  2.1919  0.7277
 3569TIP3    H232343   3.676   1.505   2.483  0.9448 -1.4363  0.2246
 3570TIP3   OH232344   6.653   5.251   1.506 -0.1338  0.0501  0.8652
 3570TIP3    H132345   6.649   5.343   1.531  1.2911  0.0697  1.0878
 3570TIP3    H232346   6.674   5.205   1.587  2.8687 -0.0614  0.1301
 3571TIP3   OH232347   5.087   1.543   8.675 -0.1028  0.1080 -0.0249
 3571TIP3    H132348   5.023   1.520   8.744  0.2144 -2.3087 -0.4578
 3571TIP3    H232349   5.172   1.532   8.717  0.1329  3.4361  0.5805
 3572TIP3   OH232350   1.387   3.025   6.917  0.3552  0.4105 -0.1668
 3572TIP3    H132351   1.397   2.944   6.866  0.8434  0.2795  0.1374
 3572TIP3    H232352   1.293   3.035   6.927  0.3009 -0.3012  0.0792
 3573TIP3   OH232353   3.637   5.161   2.152 -0.1356 -0.0821  0.1233
 3573TIP3    H132354   3.697   5.089   2.173  0.7456  0.5506 -0.1869
 3573TIP3    H232355   3.676   5.203   2.076 -0.2711  1.1456  0.7122
 3574TIP3   OH232356   5.250   1.995   1.199 -0.4371  0.0817 -0.0049
 3574TIP3    H132357   5.217   2.082   1.219  0.5033  0.5666 -0.4770
 3574TIP3    H232358   5.249   1.949   1.283 -0.8613  0.5694  0.2610
 3575TIP3   OH232359   3.746   1.709   8.407  0.2783 -0.7556 -0.2224
 3575TIP3    H132360   3.707   1.643   8.350  2.0424 -1.9941 -0.0708
 3575TIP3    H232361   3.812   1.661   8.458 -0.5387  0.4989  2.1649
 3576TIP3   OH232362   3.296   4.097   1.086 -0.4515  0.1074 -0.3219
 3576TIP3    H132363   3.208   4.061   1.098 -0.7491  0.1426 -2.1780
 3576TIP3    H232364   3.353   4.021   1.091 -0.8910 -0.3802 -2.1116
 3577TIP3   OH232365   1.279   5.503   0.941  0.2719 -0.1079  0.2980
 3577TIP3    H132366   1.368   5.536   0.949 -0.0606  1.0389 -0.5150
 3577TIP3    H232367   1.284   5.434   0.876  0.5513  0.0162  0.1890
 3578TIP3   OH232368   2.576   4.156   0.699  0.6014 -0.0769 -0.4745
 3578TIP3    H132369   2.520   4.106   0.758  0.6242 -0.4365 -0.7535
 3578TIP3    H232370   2.518   4.220   0.658  0.2112 -0.9668 -1.3646
 3579TIP3   OH232371   4.522   0.798   6.624 -0.1690 -0.2223 -0.1107
 3579TIP3    H132372   4.526   0.871   6.686 -2.8146 -1.2045  1.3869
 3579TIP3    H232373   4.594   0.741   6.651  1.0201  1.1038 -0.3703
 3580TIP3   OH232374   0.131   3.909   2.237 -0.1515 -0.4783 -0.0331
 3580TIP3    H132375   0.094   3.997   2.245 -0.4235 -0.6378  0.5636
 3580TIP3    H232376   0.083   3.868   2.165 -0.8384 -0.5278  0.4401
 3581TIP3   OH232377   2.226   2.619   8.105 -0.0389 -0.0923  0.3868
 3581TIP3    H132378   2.316   2.600   8.080  0.2251  0.1316  1.1334
 3581TIP3    H232379   2.190   2.534   8.131 -0.5132 -0.4348 -1.3167
 3582TIP3   OH232380   2.436   1.676   1.926 -0.2111  0.0512  0.2736
 3582TIP3    H132381   2.372   1.725   1.874 -0.6539 -0.5884  0.2048
 3582TIP3    H232382   2.385   1.636   1.996  0.4744  1.4068  1.6039
 3583TIP3   OH232383   2.588   0.690   8.434 -0.3158 -0.5040 -0.1836
 3583TIP3    H132384   2.607   0.745   8.359 -0.6447  0.3823  0.3665
 3583TIP3    H232385   2.673   0.669   8.472 -0.0908 -1.5745 -1.2040
 3584TIP3   OH232386   4.787   6.325   2.252 -0.4308  0.3802 -0.0774
 3584TIP3    H132387   4.728   6.349   2.323 -0.8433  2.5844 -1.0450
 3584TIP3    H232388   4.729   6.300   2.180 -0.0084 -2.7074  0.5361
 3585TIP3   OH232389   1.977   1.442   7.795  0.1040  0.1920  0.6985
 3585TIP3    H132390   1.892   1.423   7.755  1.0831 -2.7209 -0.1787
 3585TIP3    H232391   2.012   1.515   7.743  0.0470 -1.5382 -1.9601
 3586TIP3   OH232392   1.768   0.943   1.907  0.4359 -0.2255 -0.1195
 3586TIP3    H132393   1.699   0.993   1.952 -0.5892 -1.7975  0.1545
 3586TIP3    H232394   1.843   1.002   1.904 -0.3333  0.8826  1.2566
 3587TIP3   OH232395   5.636   1.503   1.651 -0.3970  0.2900  0.0056
 3587TIP3    H132396   5.643   1.551   1.569  0.8189  2.7638  1.4449
 3587TIP3    H232397   5.677   1.560   1.716 -1.1779 -1.6223  2.3307
 3588TIP3   OH232398   3.513   4.038   8.076 -0.1715 -0.5282 -1.1788
 3588TIP3    H132399   3.601   4.065   8.048  0.4092 -0.0577  0.9521
 3588TIP3    H232400   3.513   3.943   8.068  1.3944 -0.7770  0.9692
 3589TIP3   OH232401   5.869   6.749   2.009  0.0433  0.2173  0.1359
 3589TIP3    H132402   5.827   6.665   2.023  3.5024 -1.8072 -0.4967
 3589TIP3    H232403   5.878   6.786   2.097 -1.0426 -0.2774  0.4754
 3590TIP3   OH232404   5.736   1.834   8.678  0.1211 -0.4916  0.2763
 3590TIP3    H132405   5.756   1.848   8.586 -0.4909 -0.6685  0.1163
 3590TIP3    H232406   5.698   1.916   8.708  1.8746  0.1627  0.8131
 3591TIP3   OH232407   3.749   1.813   1.789  0.4024  0.6702  0.2042
 3591TIP3    H132408   3.748   1.895   1.739 -0.8167 -0.0949 -1.1407
 3591TIP3    H232409   3.658   1.802   1.816 -0.0644 -1.4785 -1.8994
 3592TIP3   OH232410   4.019   4.831   0.124  0.3096  0.1253 -0.4637
 3592TIP3    H132411   3.957   4.818   0.052  1.0321 -1.6038 -0.8211
 3592TIP3    H232412   3.968   4.816   0.203  0.1710 -0.9666 -0.7413
 3593TIP3   OH232413   6.453   3.329   0.861  0.0334 -0.2861 -0.2846
 3593TIP3    H132414   6.365   3.352   0.833 -0.2774 -0.2354  0.6946
 3593TIP3    H232415   6.448   3.327   0.957  1.0814 -0.3191 -0.2178
 3594TIP3   OH232416   1.686   2.865   7.985  0.4816 -0.1362  0.2538
 3594TIP3    H132417   1.655   2.911   8.063  0.4934 -1.4721  1.0917
 3594TIP3    H232418   1.646   2.912   7.912  0.7819  1.3849  1.0292
 3595TIP3   OH232419   3.097   0.639   0.567 -0.2536 -0.6349  0.3979
 3595TIP3    H132420   3.157   0.683   0.627  0.2179 -0.9355  0.1519
 3595TIP3    H232421   3.133   0.551   0.558 -0.1159 -0.4791 -0.6144
 3596TIP3   OH232422   4.751   3.611   2.315  0.0566 -0.7141  0.4372
 3596TIP3    H132423   4.697   3.534   2.336  0.9116 -0.8730  2.2214
 3596TIP3    H232424   4.706   3.652   2.241 -1.6964 -1.6668  0.9116
 3597TIP3   OH232425   1.526   3.616   7.902  0.4619  0.7121  0.8019
 3597TIP3    H132426   1.434   3.640   7.910  0.4623  0.9537  0.0976
 3597TIP3    H232427   1.530   3.525   7.930  0.5960  1.6641  4.4382
 3598TIP3   OH232428   4.629   6.142   1.202  0.1487 -0.7528 -0.3284
 3598TIP3    H132429   4.670   6.171   1.284  0.1366  0.4316 -0.7292
 3598TIP3    H232430   4.703   6.122   1.144  0.1611 -0.1376 -0.5269
 3599TIP3   OH232431   0.082   6.214   8.374 -0.1409 -0.3843 -0.6720
 3599TIP3    H132432   0.055   6.199   8.465 -0.1944 -0.3624 -0.6839
 3599TIP3    H232433   0.110   6.305   8.371  0.0442 -0.4412 -0.6329
 3600TIP3   OH232434   1.101   2.222   7.602 -0.1306 -0.3170  0.0549
 3600TIP3    H132435   1.049   2.273   7.539  1.8414 -0.7300 -2.0536
 3600TIP3    H232436   1.122   2.142   7.555 -0.4665 -1.6976  2.1547
 3601TIP3   OH232437   2.191   1.401   8.215 -0.5108 -0.0363 -0.1366
 3601TIP3    H132438   2.108   1.432   8.179 -0.5383 -0.3708 -0.3749
 3601TIP3    H232439   2.167   1.360   8.299 -0.3726  1.2203  0.5285
 3602TIP3   OH232440   6.160   2.740   1.898 -0.4218 -0.2121  0.5147
 3602TIP3    H132441   6.064   2.737   1.898 -0.5990  2.7228  1.2628
 3602TIP3    H232442   6.182   2.805   1.964  2.0706  0.1227 -0.5381
 3603TIP3   OH232443   1.363   4.640   8.750 -0.1357  0.3478  0.5809
 3603TIP3    H132444   1.399   4.563   8.707  3.1094  1.5562  0.8632
 3603TIP3    H232445   1.316   4.686   8.681 -0.9186 -1.1390  0.0791
 3604TIP3   OH232446   6.370   5.756   8.626  0.4385  0.4396  0.1816
 3604TIP3    H132447   6.373   5.761   8.530  0.1369  0.6731  0.1808
 3604TIP3    H232448   6.279   5.777   8.648  0.3217 -0.3471  0.4786
 3605TIP3   OH232449   1.755   3.237   8.824 -0.4629 -0.4446  0.0302
 3605TIP3    H132450   1.761   3.174   8.752 -0.3109 -0.2941 -0.0905
 3605TIP3    H232451   1.662   3.260   8.828 -0.0066  2.4739 -2.6768
 3606TIP3   OH232452   1.651   6.638   6.744 -0.0993 -0.1857 -0.2530
 3606TIP3    H132453   1.686   6.552   6.720  1.7577 -0.4488  2.8556
 3606TIP3    H232454   1.576   6.618   6.799 -0.4338  0.2332 -0.5561
 3607TIP3   OH232455   5.424   5.965   1.743  0.2823  0.5944 -0.1961
 3607TIP3    H132456   5.462   5.899   1.801  0.3069 -0.5900 -1.5222
 3607TIP3    H232457   5.362   5.916   1.688 -1.6567  2.1192  0.5039
 3608TIP3   OH232458   3.671   0.124   7.782 -0.0324  0.5543 -0.3066
 3608TIP3    H132459   3.612   0.082   7.719 -2.7124 -1.4212  3.1011
 3608TIP3    H232460   3.756   0.126   7.739 -1.2165 -2.4257 -3.2055
 3609TIP3   OH232461   0.655   3.886   1.254 -0.5108 -0.0311 -0.2084
 3609TIP3    H132462   0.679   3.794   1.246  1.3427  0.4193 -0.1993
 3609TIP3    H232463   0.697   3.915   1.336 -1.5273  0.6924  0.0798
 3610TIP3   OH232464   0.050   2.111   8.079 -0.0056  0.0734  0.2966
 3610TIP3    H132465   0.008   2.091   7.995  0.1283  1.5295 -0.1591
 3610TIP3    H232466   0.041   2.031   8.130 -0.3744 -0.7435 -0.9909
 3611TIP3   OH232467   1.971   3.582   0.434 -0.8739 -0.0180  0.5661
 3611TIP3    H132468   1.886   3.625   0.448 -0.2408  1.1247  1.0097
 3611TIP3    H232469   1.955   3.521   0.362 -2.0385  0.3020  0.5346
 3612TIP3   OH232470   4.563   5.591   1.207  0.3185  0.5545 -0.0956
 3612TIP3    H132471   4.470   5.598   1.185 -0.0953 -0.3561  1.2667
 3612TIP3    H232472   4.569   5.511   1.259  2.4034 -1.2911 -2.8646
 3613TIP3   OH232473   4.710   6.753   2.745 -0.2120  0.2436  0.9167
 3613TIP3    H132474   4.749   6.840   2.741  1.8229 -0.6281 -1.1399
 3613TIP3    H232475   4.779   6.695   2.713 -2.4989 -1.7290 -0.8913
 3614TIP3   OH232476   2.309   5.272   1.964 -0.1587 -0.0448  0.0105
 3614TIP3    H132477   2.248   5.319   1.908  0.7440  2.2661  0.8190
 3614TIP3    H232478   2.269   5.277   2.051  0.6125  0.5151  0.3457
 3615TIP3   OH232479   6.576   2.149   7.658  0.4306 -0.0672  0.3257
 3615TIP3    H132480   6.625   2.230   7.640 -0.4301  0.6115  0.9261
 3615TIP3    H232481   6.485   2.178   7.667 -0.1179 -1.3082 -0.8504
 3616TIP3   OH232482   3.164   2.670   7.698 -0.7659  0.2747 -0.1922
 3616TIP3    H132483   3.100   2.657   7.768  0.2141  2.7819  1.3156
 3616TIP3    H232484   3.238   2.614   7.721 -0.6742  0.6744  0.5175
 3617TIP3   OH232485   0.952   2.885   8.557  0.1951  0.0978  0.8975
 3617TIP3    H132486   0.868   2.927   8.542  0.8272  2.0906  2.5291
 3617TIP3    H232487   0.994   2.882   8.471 -0.8144  0.6694  0.3737
 3618TIP3   OH232488   2.777   0.306   1.879  0.2240 -0.2725 -0.3417
 3618TIP3    H132489   2.684   0.318   1.896 -0.4787 -1.3178 -3.0210
 3618TIP3    H232490   2.807   0.390   1.847  0.0837 -0.0924 -0.0042
 3619TIP3   OH232491   2.569   1.414   6.806  0.3061  0.2274  0.5488
 3619TIP3    H132492   2.508   1.347   6.775  1.3324 -0.4417 -0.0720
 3619TIP3    H232493   2.512   1.482   6.844 -0.9754  0.4764 -1.6066
 3620TIP3   OH232494   4.005   2.918   1.389  0.0489  0.2415  0.4223
 3620TIP3    H132495   4.098   2.936   1.397  0.2365 -0.7421  0.5575
 3620TIP3    H232496   3.969   2.935   1.476  0.4832 -1.4134  0.9621
 3621TIP3   OH232497   3.867   2.895   8.718  0.5579  0.0842  0.6626
 3621TIP3    H132498   3.894   2.831   8.785  1.6171 -0.0110  0.1617
 3621TIP3    H232499   3.796   2.851   8.671  0.4367 -0.2208  1.1141
 3622TIP3   OH232500   2.454   5.377   1.313 -0.6390  0.4270 -0.4393
 3622TIP3    H132501   2.518   5.320   1.271 -0.1727 -0.6946  1.6696
 3622TIP3    H232502   2.504   5.426   1.378 -1.4489  1.6224 -0.6869
 3623TIP3   OH232503   0.326   0.497   2.249  0.0122  0.1507  1.0322
 3623TIP3    H132504   0.411   0.503   2.205 -0.2417  2.1720  0.7165
 3623TIP3    H232505   0.348   0.484   2.341  0.6188 -0.6026  0.7976
 3624TIP3   OH232506   1.804   6.494   0.323  0.2113  0.2691 -0.1101
 3624TIP3    H132507   1.753   6.480   0.244 -1.5209  1.3836  0.7650
 3624TIP3    H232508   1.882   6.542   0.293  0.7793 -1.3964 -1.4464
 3625TIP3   OH232509   0.500   6.434   7.300 -0.3331  0.0739 -0.3023
 3625TIP3    H132510   0.520   6.431   7.207  0.2770 -1.2851 -0.1426
 3625TIP3    H232511   0.538   6.517   7.330 -2.2455  1.5162 -1.6051
 3626TIP3   OH232512   1.211   6.419   8.723 -0.5145 -0.7683 -0.2066
 3626TIP3    H132513   1.248   6.427   8.811 -0.3103  2.6383 -0.4860
 3626TIP3    H232514   1.190   6.326   8.715  2.8446 -1.9080  2.0213
 3627TIP3   OH232515   6.027   5.690   7.052 -0.0172  0.1242  0.2932
 3627TIP3    H132516   6.013   5.610   7.002 -0.1153  1.0898 -1.2987
 3627TIP3    H232517   5.964   5.752   7.016  0.9898  1.3229  0.5127
 3628TIP3   OH232518   2.964   3.815   7.791 -0.2907 -0.1202 -0.0399
 3628TIP3    H132519   2.898   3.835   7.857  0.5760 -0.6712  1.0212
 3628TIP3    H232520   2.937   3.866   7.715  0.3378  3.0704  1.6640
 3629TIP3   OH232521   2.496   5.263   0.815 -0.1704  0.1844  0.5008
 3629TIP3    H132522   2.505   5.279   0.721 -0.9433 -3.0445 -0.2366
 3629TIP3    H232523   2.585   5.246   0.846 -0.0415  0.1908  0.1337
 3630TIP3   OH232524   0.874   6.008   8.246 -0.2590 -0.2170 -0.0559
 3630TIP3    H132525   0.823   6.084   8.219 -0.8125 -0.6354 -0.2109
 3630TIP3    H232526   0.953   6.011   8.193  0.1466  0.7598  0.5911
 3631TIP3   OH232527   2.919   2.316   1.972  1.3226  1.2082 -0.8050
 3631TIP3    H132528   2.934   2.408   1.948  0.1941  1.3136 -1.1987
 3631TIP3    H232529   2.912   2.317   2.068  2.2627  1.3754 -0.7340
 3632TIP3   OH232530   4.608   2.677   2.493  0.6168 -0.8458 -0.7366
 3632TIP3    H132531   4.577   2.755   2.447  1.2303 -0.6874 -0.8975
 3632TIP3    H232532   4.543   2.661   2.561 -0.0664 -0.8169 -1.3752
 3633TIP3   OH232533   4.847   1.784   0.073  0.2806 -0.5073 -0.0667
 3633TIP3    H132534   4.816   1.819   0.156 -0.6467 -3.2908  0.8726
 3633TIP3    H232535   4.942   1.789   0.078  0.2198  1.1963  0.2343
 3634TIP3   OH232536   4.978   4.363   1.699  0.7359  0.1541 -0.0432
 3634TIP3    H132537   4.925   4.430   1.742 -0.1150 -1.3855  1.4380
 3634TIP3    H232538   4.921   4.327   1.631  0.6180 -0.1212  0.1999
 3635TIP3   OH232539   0.723   3.134   2.974  0.1539 -0.0512 -0.1394
 3635TIP3    H132540   0.690   3.052   2.937 -0.6364  0.5781 -0.8977
 3635TIP3    H232541   0.643   3.182   2.999  0.4086  1.6786 -2.3578
 3636TIP3   OH232542   5.653   1.181   7.669  0.6722  0.2928 -0.2109
 3636TIP3    H132543   5.593   1.246   7.634 -0.1256  0.8134  1.9619
 3636TIP3    H232544   5.597   1.108   7.694  1.0768  0.3068  0.7757
 3637TIP3   OH232545   4.964   5.068   7.847  0.4306 -0.5561 -0.0980
 3637TIP3    H132546   4.959   5.106   7.759 -0.0019  0.3580  0.3061
 3637TIP3    H232547   5.008   5.135   7.900 -1.2222 -0.1534  0.8507
 3638TIP3   OH232548   4.810   5.961   8.260 -0.2181  0.5064 -0.8712
 3638TIP3    H132549   4.773   6.034   8.211 -0.0639  0.9292 -0.3614
 3638TIP3    H232550   4.905   5.971   8.250 -0.1613  0.9823  0.0608
 3639TIP3   OH232551   4.582   0.076   2.971  0.2135 -0.5409 -0.1390
 3639TIP3    H132552   4.498   0.045   3.006  0.0649 -0.0822 -0.0837
 3639TIP3    H232553   4.585   0.041   2.882  0.3520 -1.2693  0.1445
 3640TIP3   OH232554   4.835   5.445   0.912 -0.4270 -0.1513 -0.0441
 3640TIP3    H132555   4.806   5.534   0.930 -0.1865 -0.0346 -0.2270
 3640TIP3    H232556   4.878   5.416   0.992  0.2892  0.2201 -0.2939
 3641TIP3   OH232557   0.663   0.919   7.753  0.4359  0.1624  0.5862
 3641TIP3    H132558   0.586   0.974   7.761 -1.1509 -2.0377  1.5025
 3641TIP3    H232559   0.629   0.829   7.752  2.9992 -0.9373  1.5503
 3642TIP3   OH232560   2.279   5.219   6.813 -0.5244 -0.2983  0.2930
 3642TIP3    H132561   2.276   5.236   6.907 -0.6599  1.1658  0.0496
 3642TIP3    H232562   2.371   5.199   6.796 -0.3505  0.1893  0.6278
 3643TIP3   OH232563   2.962   3.196   7.942  0.1884  0.7730  0.7900
 3643TIP3    H132564   3.016   3.210   8.020  0.7816  0.5100  0.4327
 3643TIP3    H232565   3.016   3.141   7.885 -0.5473  0.3233  0.5178
 3644TIP3   OH232566   1.737   5.421   1.286 -0.4487 -0.1553  0.2688
 3644TIP3    H132567   1.704   5.332   1.297  0.4414 -0.5521 -0.1750
 3644TIP3    H232568   1.660   5.476   1.296 -0.6251 -0.7728  3.2038
 3645TIP3   OH232569   0.272   4.721   8.323  0.0894  0.0594  0.1983
 3645TIP3    H132570   0.318   4.805   8.327  1.1165 -0.4266 -0.7072
 3645TIP3    H232571   0.302   4.673   8.400  0.8899 -0.1338 -0.2220
 3646TIP3   OH232572   2.262   0.413   0.751  0.0235  0.5424 -0.1636
 3646TIP3    H132573   2.184   0.444   0.797  0.2423  0.3227  0.3616
 3646TIP3    H232574   2.316   0.373   0.819  1.1562  1.7774 -0.2961
 3647TIP3   OH232575   2.577   5.172   2.555 -0.4128 -0.1463 -0.3578
 3647TIP3    H132576   2.671   5.156   2.569 -0.4585 -0.2618 -0.1788
 3647TIP3    H232577   2.559   5.250   2.608 -0.4899 -0.3237 -0.1193
 3648TIP3   OH232578   2.060   3.024   1.217 -0.0330  0.4987  0.3140
 3648TIP3    H132579   2.045   2.946   1.270  0.0716  0.1615 -0.1445
 3648TIP3    H232580   2.083   3.093   1.280  0.8891 -0.0970  0.6439
 3649TIP3   OH232581   3.681   4.777   2.365 -0.0490 -0.0314  0.5380
 3649TIP3    H132582   3.649   4.706   2.420  0.1623 -0.1435  0.5175
 3649TIP3    H232583   3.655   4.752   2.276  0.1157 -0.1319  0.5190
 3650TIP3   OH232584   2.621   2.739   7.827  0.4804 -0.4836  0.1717
 3650TIP3    H132585   2.631   2.823   7.872 -1.5241  0.0775 -0.3237
 3650TIP3    H232586   2.680   2.745   7.752  0.1869  0.5992  0.0024
 3651TIP3   OH232587   3.441   2.777   8.416 -0.8916 -0.1596 -0.9255
 3651TIP3    H132588   3.444   2.824   8.333  0.8340  0.5204 -0.5124
 3651TIP3    H232589   3.458   2.686   8.394  2.9960  0.4491 -1.0841
 3652TIP3   OH232590   4.789   0.696   2.018 -0.3241  0.1863 -0.2751
 3652TIP3    H132591   4.758   0.775   1.974  0.9044  1.3392  0.8217
 3652TIP3    H232592   4.826   0.728   2.101 -0.6350 -1.6549  0.6184
 3653TIP3   OH232593   5.695   6.564   7.611  0.1004  0.0264  0.7934
 3653TIP3    H132594   5.687   6.551   7.516 -1.6552 -1.6664  1.1238
 3653TIP3    H232595   5.763   6.631   7.620  0.1040  0.4429 -1.6642
 3654TIP3   OH232596   1.641   5.827   0.873  0.1038  0.1115  0.8645
 3654TIP3    H132597   1.585   5.880   0.816  1.3968 -1.2769 -1.9402
 3654TIP3    H232598   1.671   5.887   0.941  0.6334  2.7204 -1.5019
 3655TIP3   OH232599   5.805   2.687   0.850 -0.8738 -0.2363  0.4101
 3655TIP3    H132600   5.760   2.618   0.802 -1.8679 -0.4680  1.6079
 3655TIP3    H232601   5.854   2.735   0.783 -2.2964 -0.4579 -0.8384
 3656TIP3   OH232602   3.851   0.449   7.331  0.2085  0.5017  0.0678
 3656TIP3    H132603   3.772   0.397   7.343  0.4205  0.4047  1.2533
 3656TIP3    H232604   3.916   0.387   7.297  0.2885  0.1159  0.8921
 3657TIP3   OH232605   3.525   2.573   7.524  0.2040  0.4322  0.5201
 3657TIP3    H132606   3.619   2.590   7.515  0.3751 -0.8662 -0.4067
 3657TIP3    H232607   3.509   2.495   7.472 -1.1503 -0.1894  1.7807
 3658TIP3   OH232608   0.386   4.205   7.768  0.6868  0.0444 -0.0585
 3658TIP3    H132609   0.396   4.298   7.784  2.1020 -0.0490 -0.2601
 3658TIP3    H232610   0.475   4.174   7.751  0.2435 -1.3432  0.0246
 3659TIP3   OH232611   5.821   4.892   1.960  0.0444 -0.0410 -0.5307
 3659TIP3    H132612   5.727   4.880   1.942  0.0184 -3.1351  1.0974
 3659TIP3    H232613   5.865   4.859   1.882 -0.1817  0.0939 -0.7186
 3660TIP3   OH232614   4.481   6.623   2.760  0.1010  0.1853  0.0735
 3660TIP3    H132615   4.510   6.550   2.707 -1.5705 -0.1025 -0.5107
 3660TIP3    H232616   4.555   6.684   2.760  1.3019 -1.2157  0.0923
 3661TIP3   OH232617   5.639   1.549   1.942 -0.4584  0.8902 -0.2995
 3661TIP3    H132618   5.647   1.557   2.037  0.5892  0.4623 -0.3343
 3661TIP3    H232619   5.626   1.456   1.927  1.0939  0.7018 -0.6541
 3662TIP3   OH232620   5.765   1.928   7.168 -0.3418 -0.1884  0.2940
 3662TIP3    H132621   5.752   2.022   7.158  2.7637  0.4225  0.9064
 3662TIP3    H232622   5.752   1.911   7.261 -0.8673 -0.3490  0.1901
 3663TIP3   OH232623   5.588   0.079   1.417  0.3711 -0.9691  0.5156
 3663TIP3    H132624   5.642   0.059   1.493 -0.3224 -1.1421  0.9746
 3663TIP3    H232625   5.649   0.114   1.353  0.9796 -0.8852  1.1261
 3664TIP3   OH232626   4.695   5.662   0.688  0.0985 -0.1684 -0.3827
 3664TIP3    H132627   4.778   5.615   0.684 -0.2360 -0.8977  0.7269
 3664TIP3    H232628   4.634   5.607   0.639 -0.6772 -1.8418  2.2141
 3665TIP3   OH232629   5.013   3.127   7.281  0.6169 -0.7351 -0.0821
 3665TIP3    H132630   4.935   3.153   7.233  0.8606 -0.8339 -0.5372
 3665TIP3    H232631   5.064   3.207   7.288 -0.3709 -0.2254  1.8732
 3666TIP3   OH232632   0.449   1.435   0.160 -0.5132  0.2253  0.3613
 3666TIP3    H132633   0.523   1.453   0.103 -1.4760 -0.2228 -1.0854
 3666TIP3    H232634   0.484   1.444   0.249  1.2338  0.1103 -0.2788
 3667TIP3   OH232635   1.255   1.603   3.222 -0.1949  0.2295 -0.1733
 3667TIP3    H132636   1.211   1.532   3.268  0.0121  0.4778  0.4193
 3667TIP3    H232637   1.204   1.615   3.142 -0.0963 -0.7414 -0.3986
 3668TIP3   OH232638   2.228   0.402   1.899  0.1609  0.0875  0.4755
 3668TIP3    H132639   2.206   0.495   1.891 -0.7292 -0.1533 -0.0635
 3668TIP3    H232640   2.151   0.362   1.938  0.2788 -0.5252  0.1035
 3669TIP3   OH232641   5.232   0.942   1.816 -0.6353  0.6738  0.1110
 3669TIP3    H132642   5.312   0.946   1.763 -0.1891  0.4955  0.7623
 3669TIP3    H232643   5.199   0.854   1.802 -0.4031  0.5565  0.2907
 3670TIP3   OH232644   3.593   3.791   2.165 -0.3273 -0.1750 -1.0289
 3670TIP3    H132645   3.671   3.777   2.219 -1.2684 -0.5399  0.2723
 3670TIP3    H232646   3.618   3.758   2.079  1.2068  0.4170 -0.8405
 3671TIP3   OH232647   1.359   4.947   8.721  0.1511  0.8744 -0.2233
 3671TIP3    H132648   1.336   4.999   8.797 -1.2463 -0.6649  0.4619
 3671TIP3    H232649   1.277   4.936   8.673  0.7501  0.7250 -1.2539
 3672TIP3   OH232650   0.478   6.445   1.273  0.2679 -0.3772  0.4220
 3672TIP3    H132651   0.463   6.351   1.272  1.8437 -0.6550  0.6899
 3672TIP3    H232652   0.518   6.465   1.188  1.1576 -0.1800  0.8758
 3673TIP3   OH232653   1.027   4.986   7.874 -0.5895 -1.0109  0.2161
 3673TIP3    H132654   1.021   4.924   7.802 -2.0097 -2.5910  1.5899
 3673TIP3    H232655   1.088   4.945   7.935  0.9487  0.5184 -0.2397
 3674TIP3   OH232656   6.434   3.642   2.749 -0.1325  0.0576  0.1312
 3674TIP3    H132657   6.472   3.640   2.662 -1.6357  1.0031 -0.5876
 3674TIP3    H232658   6.505   3.671   2.806  1.6496 -3.0569 -0.2763
 3675TIP3   OH232659   6.386   2.230   0.388  0.0943 -0.1084 -0.4389
 3675TIP3    H132660   6.301   2.273   0.397  0.4304  0.3664  0.5656
 3675TIP3    H232661   6.444   2.298   0.354 -0.1438 -0.7108 -2.1463
 3676TIP3   OH232662   5.460   3.598   1.190 -0.0884 -0.5325  0.0325
 3676TIP3    H132663   5.441   3.672   1.249 -0.2159  0.4989 -1.2461
 3676TIP3    H232664   5.519   3.542   1.239  0.9327  1.0077  0.6492
 3677TIP3   OH232665   6.028   2.597   7.732 -0.0515 -0.3851  0.4536
 3677TIP3    H132666   5.980   2.530   7.782 -0.1947  1.2624  2.6909
 3677TIP3    H232667   5.959   2.651   7.693  0.0625 -1.5854 -1.5052
 3678TIP3   OH232668   4.722   2.339   8.515  0.8725 -0.6534 -0.4661
 3678TIP3    H132669   4.748   2.406   8.452 -0.0921 -0.2573 -0.4526
 3678TIP3    H232670   4.729   2.257   8.466  1.4582 -0.4880 -0.6671
 3679TIP3   OH232671   2.009   0.732   2.536 -0.1802  0.1669  0.0684
 3679TIP3    H132672   1.950   0.702   2.605 -0.3579  1.0155  0.3018
 3679TIP3    H232673   2.095   0.733   2.578 -0.2707  0.5720  0.2517
 3680TIP3   OH232674   4.330   3.377   1.477  0.0190 -0.0572 -0.4987
 3680TIP3    H132675   4.300   3.424   1.399 -0.4177  0.1421 -0.2189
 3680TIP3    H232676   4.249   3.357   1.525  0.3836  1.9508  1.1022
 3681TIP3   OH232677   5.083   2.941   8.596 -0.0171  0.3290 -0.3182
 3681TIP3    H132678   5.158   2.890   8.565  1.1902  0.7202  1.7402
 3681TIP3    H232679   5.022   2.874   8.629  1.0036  0.1022  1.2070
 3682TIP3   OH232680   5.566   0.066   2.084  0.6161 -0.4053 -0.1122
 3682TIP3    H132681   5.603   0.079   2.171  2.0819 -1.7408 -0.4780
 3682TIP3    H232682   5.619   0.120   2.027  0.7396 -0.8139 -0.3885
 3683TIP3   OH232683   5.279   3.157   1.990  0.3837  0.4330 -0.7834
 3683TIP3    H132684   5.329   3.197   1.919  0.3492 -0.2249 -1.1825
 3683TIP3    H232685   5.274   3.064   1.968  1.7255 -0.0881  0.8477
 3684TIP3   OH232686   1.941   4.107   2.713 -0.3363  0.7415 -0.2536
 3684TIP3    H132687   1.864   4.051   2.702 -0.2787  0.9015 -1.7175
 3684TIP3    H232688   1.916   4.170   2.780 -1.3286  0.5242 -0.4022
 3685TIP3   OH232689   6.234   1.498   0.869  0.4367 -0.1107  0.3923
 3685TIP3    H132690   6.273   1.549   0.798 -2.1906  2.8571  0.8996
 3685TIP3    H232691   6.239   1.555   0.946  0.7320 -2.1563  1.9843
 3686TIP3   OH232692   3.938   4.009   7.257  0.0892 -1.0131  0.4528
 3686TIP3    H132693   3.933   4.081   7.195  1.0624 -1.2887  0.0440
 3686TIP3    H232694   3.904   4.046   7.339 -0.2786 -0.3700  0.0202
 3687TIP3   OH232695   0.403   0.863   1.125 -0.0697 -0.2555  0.4480
 3687TIP3    H132696   0.336   0.818   1.074 -1.2764  1.0149  0.8439
 3687TIP3    H232697   0.425   0.941   1.073  2.5544 -1.5539 -0.6131
 3688TIP3   OH232698   5.650   5.587   1.220  0.1423 -0.1645 -0.2545
 3688TIP3    H132699   5.700   5.583   1.301  2.0471 -0.9528 -1.4017
 3688TIP3    H232700   5.600   5.506   1.218  0.1172 -0.1563  0.1075
 3689TIP3   OH232701   0.364   0.368   8.821 -0.2898 -0.3596  0.0301
 3689TIP3    H132702   0.417   0.428   8.769 -0.5600  0.0696  0.2442
 3689TIP3    H232703   0.371   0.402   8.911 -0.7683 -0.4090  0.0863
 3690TIP3   OH232704   1.820   4.971   8.710 -0.1294  0.4726 -0.1341
 3690TIP3    H132705   1.800   5.064   8.723 -1.4041  0.0974  0.7504
 3690TIP3    H232706   1.782   4.927   8.786  0.5353 -0.7769 -0.4940
 3691TIP3   OH232707   0.775   1.415   6.933  0.0737  0.3137  0.0912
 3691TIP3    H132708   0.785   1.321   6.949  0.3490  0.3202 -0.0275
 3691TIP3    H232709   0.693   1.423   6.885 -0.1329  0.1696  0.4230
 3692TIP3   OH232710   5.735   5.570   1.505  0.3900  0.5616 -0.0293
 3692TIP3    H132711   5.733   5.661   1.534  1.0391  0.2637  0.9827
 3692TIP3    H232712   5.720   5.519   1.584 -0.5605 -0.2121 -0.6901
 3693TIP3   OH232713   3.701   6.421   6.975 -0.4783  0.1031  0.1250
 3693TIP3    H132714   3.628   6.359   6.978 -0.2804 -0.1014  0.9531
 3693TIP3    H232715   3.774   6.371   6.938 -0.6674  0.2165 -0.4065
 3694TIP3   OH232716   0.089   5.580   0.658  0.3751 -0.2516 -0.0064
 3694TIP3    H132717   0.128   5.492   0.657  1.3756  0.1296  1.8357
 3694TIP3    H232718   0.160   5.637   0.687 -0.2278  1.2236 -1.2562
 3695TIP3   OH232719   0.775   1.573   7.176  0.5234  0.4821 -0.0699
 3695TIP3    H132720   0.689   1.586   7.135  0.1450  0.9075  0.8444
 3695TIP3    H232721   0.818   1.508   7.120 -0.5163  0.0202 -0.3591
 3696TIP3   OH232722   2.034   5.029   2.505  0.0488 -0.4464  0.2234
 3696TIP3    H132723   1.991   5.114   2.497 -0.1132 -0.6676 -1.5670
 3696TIP3    H232724   1.972   4.977   2.557  0.4339  0.6609  1.8871
 3697TIP3   OH232725   2.359   2.901   7.037 -0.0943 -0.6269  0.6793
 3697TIP3    H132726   2.274   2.892   6.994  0.8029  0.9888 -1.6438
 3697TIP3    H232727   2.362   2.831   7.101 -2.5979 -1.5873 -0.1730
 3698TIP3   OH232728   4.340   6.140   1.865 -0.7049 -0.2442 -0.2948
 3698TIP3    H132729   4.401   6.134   1.792 -0.0222 -0.5199  0.2888
 3698TIP3    H232730   4.331   6.234   1.881  0.0788 -0.2172  0.0319
 3699TIP3   OH232731   6.649   1.799   0.044 -0.6505  0.3528 -0.5086
 3699TIP3    H132732   6.556   1.795   0.023 -0.6238 -0.8103 -0.4909
 3699TIP3    H232733   6.667   1.716   0.089  0.7252 -0.1575 -1.8883
 3700TIP3   OH232734   1.727   2.193   3.050 -0.2987  0.1635 -0.6864
 3700TIP3    H132735   1.697   2.207   3.140 -1.5949 -0.5420 -0.9704
 3700TIP3    H232736   1.790   2.263   3.034  0.6178 -0.2082  1.0476
 3701TIP3   OH232737   3.728   5.391   1.726 -0.6263  0.5125 -0.0168
 3701TIP3    H132738   3.777   5.466   1.758  0.1426 -0.4059  1.0697
 3701TIP3    H232739   3.751   5.384   1.634  1.3145  0.1335  0.4573
 3702TIP3   OH232740   3.690   2.823   6.515  0.3403  0.1174  0.5123
 3702TIP3    H132741   3.781   2.850   6.524  0.4817  0.1076 -0.7038
 3702TIP3    H232742   3.640   2.886   6.567  1.0329  0.1851  1.0972
 3703TIP3   OH232743   0.273   0.342   1.766 -0.4318 -0.0891  0.4558
 3703TIP3    H132744   0.264   0.334   1.671 -0.5386  0.3142  0.4320
 3703TIP3    H232745   0.198   0.295   1.801 -0.9004  0.5422  0.3200
 3704TIP3   OH232746   4.144   0.733   0.543 -0.3130 -0.0380 -0.7431
 3704TIP3    H132747   4.209   0.729   0.473 -0.6525 -0.2893 -1.0494
 3704TIP3    H232748   4.095   0.814   0.525 -0.0270  0.1986 -0.4599
 3705TIP3   OH232749   0.700   2.995   1.685 -0.5069  0.2046  0.1440
 3705TIP3    H132750   0.625   3.046   1.656 -1.3121  0.1147  1.9345
 3705TIP3    H232751   0.664   2.911   1.713  0.4565 -0.3862 -0.3448
 3706TIP3   OH232752   3.732   4.308   8.567  0.1156  0.3942  0.0918
 3706TIP3    H132753   3.795   4.346   8.627  0.2396  0.7550 -0.2606
 3706TIP3    H232754   3.696   4.383   8.519  0.4938  0.0537 -0.7427
 3707TIP3   OH232755   6.006   2.812   8.548  0.1955  0.1813 -0.1030
 3707TIP3    H132756   6.003   2.806   8.452  0.7769 -0.3682 -0.0999
 3707TIP3    H232757   6.062   2.738   8.574 -2.0009 -1.2511  0.8217
 3708TIP3   OH232758   1.173   0.025   0.551  0.2965  0.5745  0.1770
 3708TIP3    H132759   1.148   0.087   0.482  1.4943 -0.3236 -1.1075
 3708TIP3    H232760   1.152   0.071   0.632  3.2134  3.6833 -0.6034
 3709TIP3   OH232761   4.162   5.312   0.659 -0.4311 -0.0065  0.3641
 3709TIP3    H132762   4.145   5.233   0.608  1.9341 -0.4039  0.0568
 3709TIP3    H232763   4.228   5.359   0.608  1.0846  0.2169  2.3936
 3710TIP3   OH232764   4.154   2.100   7.833 -0.0445  0.1037  0.6348
 3710TIP3    H132765   4.147   2.194   7.848  2.9237  1.3354 -3.7758
 3710TIP3    H232766   4.237   2.075   7.873  0.9166  0.2543 -1.1746
 3711TIP3   OH232767   0.917   5.085   1.280 -0.2574  0.7242 -0.4515
 3711TIP3    H132768   0.967   5.093   1.361 -0.5791  1.6378 -0.3329
 3711TIP3    H232769   0.855   5.158   1.283 -0.4543  0.6014 -1.3916
 3712TIP3   OH232770   4.023   3.770   2.830 -0.3598 -0.1875 -0.3897
 3712TIP3    H132771   3.966   3.777   2.907 -1.4961 -1.5654 -1.0593
 3712TIP3    H232772   4.062   3.857   2.821  0.6315 -0.2679  2.3419
 3713TIP3   OH232773   6.177   6.768   0.687 -0.0981 -0.3608 -0.0025
 3713TIP3    H132774   6.117   6.841   0.673 -0.9605 -1.3168 -1.6269
 3713TIP3    H232775   6.157   6.707   0.616  1.5662 -1.5370  0.4823
 3714TIP3   OH232776   2.066   0.046   1.953  0.1610  0.1865  0.0393
 3714TIP3    H132777   2.004  -0.023   1.978 -0.7293  1.5018  1.6672
 3714TIP3    H232778   2.061   0.110   2.024  3.6843  0.2083  0.4645
 3715TIP3   OH232779   3.750   1.509   0.193 -0.1821 -0.2936 -0.3354
 3715TIP3    H132780   3.776   1.506   0.101  1.5401  1.2437  0.0632
 3715TIP3    H232781   3.741   1.602   0.213  0.9494 -0.5165  1.4230
 3716TIP3   OH232782   0.544   0.011   1.229  0.3638  0.1934 -0.4216
 3716TIP3    H132783   0.574  -0.050   1.296 -0.7220 -0.1296 -0.2011
 3716TIP3    H232784   0.620   0.025   1.172  0.9351 -0.4966  0.1632
 3717TIP3   OH232785   1.290   0.844   7.450 -0.0624 -0.1525  0.9635
 3717TIP3    H132786   1.277   0.834   7.545  0.1058  0.7478  1.0850
 3717TIP3    H232787   1.240   0.771   7.412 -1.0825  0.1387  1.6872
 3718TIP3   OH232788   0.417   4.542   1.472  0.7742 -0.4217  0.2261
 3718TIP3    H132789   0.447   4.487   1.544 -0.1641 -2.5118 -0.9120
 3718TIP3    H232790   0.329   4.510   1.451  1.2980 -0.4473 -2.3297
 3719TIP3   OH232791   0.778   1.224   1.808 -0.1748 -0.2621  0.4626
 3719TIP3    H132792   0.872   1.206   1.811 -0.3438 -1.5101 -0.8965
 3719TIP3    H232793   0.737   1.147   1.846 -0.6587  0.4401  1.4133
 3720TIP3   OH232794   2.967   0.770   2.033  0.5631 -0.3071  0.1414
 3720TIP3    H132795   2.877   0.797   2.045  0.7674  1.2425 -1.5154
 3720TIP3    H232796   3.019   0.844   2.063  1.2424 -0.4507 -0.6528
 3721TIP3   OH232797   5.521   0.753   0.264  0.9037  0.0109 -0.3750
 3721TIP3    H132798   5.471   0.790   0.338  2.6774  2.0656 -0.1105
 3721TIP3    H232799   5.456   0.743   0.194 -0.3313  0.3966  0.6717
 3722TIP3   OH232800   1.363   6.528   0.393 -0.5148  0.7505 -0.2780
 3722TIP3    H132801   1.450   6.506   0.427  0.2936 -0.9058 -3.1062
 3722TIP3    H232802   1.307   6.529   0.470  1.7101  0.3026  1.4545
 3723TIP3   OH232803   6.102   4.761   0.185  0.6594  0.3917 -0.6869
 3723TIP3    H132804   6.045   4.811   0.244 -0.6957 -0.2128 -1.4155
 3723TIP3    H232805   6.132   4.687   0.237  2.5904  1.8432  0.3649
 3724TIP3   OH232806   3.572   0.550   7.049  0.6649 -0.1520 -0.2284
 3724TIP3    H132807   3.666   0.570   7.049  1.3204 -2.4474 -3.3481
 3724TIP3    H232808   3.537   0.600   6.976  0.5754 -2.9445 -2.2650
 3725TIP3   OH232809   4.500   2.597   7.773  0.6568 -0.0212  0.0047
 3725TIP3    H132810   4.549   2.541   7.834  0.4151  0.4654  0.6528
 3725TIP3    H232811   4.461   2.535   7.711  0.9325 -0.5248  0.3229
 3726TIP3   OH232812   2.503   0.937   1.727  0.2219 -0.1036  0.2594
 3726TIP3    H132813   2.546   1.012   1.685  1.9045 -1.2711 -0.1957
 3726TIP3    H232814   2.496   0.872   1.658  1.7688 -1.5557  1.3946
 3727TIP3   OH232815   0.656   2.597   0.150 -0.3343 -0.1062  0.0951
 3727TIP3    H132816   0.576   2.583   0.200 -0.2754 -0.8063  0.0050
 3727TIP3    H232817   0.712   2.649   0.207  0.6767 -2.8349  1.7785
 3728TIP3   OH232818   0.504   4.645   2.213 -0.1779  0.0553 -0.0759
 3728TIP3    H132819   0.473   4.572   2.159 -2.1197  0.6039  0.2423
 3728TIP3    H232820   0.571   4.607   2.269  0.7381 -0.8819 -1.7353
 3729TIP3   OH232821   2.050   6.789   0.818  0.0865 -0.1401  0.0976
 3729TIP3    H132822   2.049   6.884   0.825  0.1915 -0.1959  0.9404
 3729TIP3    H232823   2.025   6.771   0.727  0.2506  0.6928 -0.1146
 3730TIP3   OH232824   0.696   4.113   8.673  0.5015  0.2016 -0.1061
 3730TIP3    H132825   0.684   4.175   8.744  1.0174  0.3168 -0.1104
 3730TIP3    H232826   0.622   4.053   8.679 -0.1969  1.0342 -0.3297
 3731TIP3   OH232827   2.437   3.539   1.070 -0.2434 -0.5118  0.8108
 3731TIP3    H132828   2.478   3.477   1.009 -1.4879 -1.9813  1.4127
 3731TIP3    H232829   2.444   3.624   1.026  1.1557 -1.1162 -0.2151
 3732TIP3   OH232830   6.574   5.543   7.902 -0.6699 -0.1491  0.0595
 3732TIP3    H132831   6.531   5.520   7.820  2.5199  1.7781 -2.4192
 3732TIP3    H232832   6.559   5.637   7.912 -1.0349 -0.3511  1.7869
 3733TIP3   OH232833   6.166   0.268   1.561  0.1612 -0.2987  0.1855
 3733TIP3    H132834   6.087   0.219   1.540  0.1400  0.2903 -1.2277
 3733TIP3    H232835   6.136   0.357   1.576  0.5815  0.0155 -0.7670
 3734TIP3   OH232836   3.489   3.296   0.797  0.5187 -0.0038  0.2254
 3734TIP3    H132837   3.464   3.203   0.793 -0.7265  0.3558 -1.1968
 3734TIP3    H232838   3.568   3.297   0.851  1.5955 -2.1217 -1.1715
 3735TIP3   OH232839   3.405   5.559   2.464 -0.7809 -0.1192 -0.5399
 3735TIP3    H132840   3.428   5.502   2.390  0.6918  3.8634 -3.4849
 3735TIP3    H232841   3.486   5.607   2.483 -1.6367  0.3369  2.5785
 3736TIP3   OH232842   4.429   5.809   0.495 -0.9713 -0.1363  0.7399
 3736TIP3    H132843   4.405   5.898   0.520 -0.2531  0.1909  0.2962
 3736TIP3    H232844   4.402   5.802   0.404 -0.8697 -0.3201  0.7239
 3737TIP3   OH232845   4.882   4.932   8.798 -0.2448 -0.1022 -0.6131
 3737TIP3    H132846   4.798   4.930   8.843 -0.6452  2.8335 -1.0670
 3737TIP3    H232847   4.919   4.845   8.812 -2.0778 -0.5518  2.0269
 3738TIP3   OH232848   3.017   5.636   0.686 -0.2152 -0.5988 -0.2573
 3738TIP3    H132849   2.940   5.623   0.743 -1.4153 -1.0147 -1.8919
 3738TIP3    H232850   2.987   5.700   0.621  1.6267  1.0372  0.4205
 3739TIP3   OH232851   2.297   1.746   7.354 -0.3345  0.1720  0.4602
 3739TIP3    H132852   2.336   1.724   7.438 -2.0935 -0.7361  1.0796
 3739TIP3    H232853   2.285   1.662   7.310  1.0492  0.6666 -0.9736
 3740TIP3   OH232854   0.946   4.965   7.280  0.4220  0.0066  0.5034
 3740TIP3    H132855   0.906   5.001   7.359  0.6709  1.0454  0.1705
 3740TIP3    H232856   0.918   5.024   7.210 -0.4912 -1.3795 -0.3367
 3741TIP3   OH232857   4.503   3.019   0.359  0.4215 -0.6467 -0.6747
 3741TIP3    H132858   4.552   3.082   0.306 -0.2170  0.7077  0.2655
 3741TIP3    H232859   4.539   3.031   0.448 -0.4230 -0.8649 -0.2981
 3742TIP3   OH232860   1.247   5.595   0.586  0.6663 -0.3590  0.1872
 3742TIP3    H132861   1.185   5.595   0.659  0.2081 -1.4049 -0.1787
 3742TIP3    H232862   1.203   5.543   0.518  0.5509  1.5577 -1.2861
 3743TIP3   OH232863   5.235   4.967   7.688  0.4322  0.1989 -0.1622
 3743TIP3    H132864   5.282   5.026   7.747 -0.4753  1.5494 -0.7409
 3743TIP3    H232865   5.287   4.968   7.608 -0.1732  1.1271 -0.5568
 3744TIP3   OH232866   3.526   1.534   1.888  0.4487  0.2388  0.2176
 3744TIP3    H132867   3.548   1.514   1.797 -1.2910  2.0395 -0.6729
 3744TIP3    H232868   3.495   1.624   1.887 -1.3103 -0.2300  2.2576
 3745TIP3   OH232869   1.065   1.027   0.172  0.4218 -0.3380  0.4284
 3745TIP3    H132870   1.117   1.028   0.092 -0.5500 -1.2431 -0.2287
 3745TIP3    H232871   1.123   1.066   0.238  1.4328 -0.0852 -0.5723
 3746TIP3   OH232872   2.032   0.229   0.336  0.4827 -0.2705 -0.6758
 3746TIP3    H132873   2.029   0.135   0.349  1.0579 -0.3638 -1.1692
 3746TIP3    H232874   1.941   0.258   0.345  0.3131 -0.8628 -0.4785
 3747TIP3   OH232875   2.894   0.755   0.109 -0.4072  0.2775  0.2539
 3747TIP3    H132876   2.876   0.737   0.017  0.7297 -0.0937  0.0943
 3747TIP3    H232877   2.820   0.716   0.156  0.3794 -2.0098 -0.3157
 3748TIP3   OH232878   5.632   2.938   0.781 -0.1875 -0.5043  0.5588
 3748TIP3    H132879   5.690   2.862   0.767 -0.6774 -0.7010 -0.5136
 3748TIP3    H232880   5.652   2.967   0.870  0.6630 -1.3360  0.6603
 3749TIP3   OH232881   0.736   5.732   7.665 -0.4278  0.3704  0.4783
 3749TIP3    H132882   0.752   5.827   7.666 -0.0110  0.3432 -1.0386
 3749TIP3    H232883   0.820   5.694   7.638 -0.6310 -0.4291  0.9433
 3750TIP3   OH232884   4.367   5.864   0.216 -0.4008  0.8391  0.0488
 3750TIP3    H132885   4.422   5.941   0.206  1.8170 -0.8198 -1.6321
 3750TIP3    H232886   4.297   5.875   0.152 -0.0561  1.4163 -0.2283
 3751TIP3   OH232887   5.359   3.351   2.752 -0.4797 -0.2039  0.1329
 3751TIP3    H132888   5.442   3.332   2.797  0.3926  1.0432 -0.8746
 3751TIP3    H232889   5.354   3.285   2.683 -0.3435 -0.3127  0.2269
 3752TIP3   OH232890   4.529   2.986   8.353 -0.2363  0.2065 -0.3062
 3752TIP3    H132891   4.467   2.995   8.281  0.4341 -0.9260 -1.0464
 3752TIP3    H232892   4.475   2.997   8.432 -1.3225 -0.4483 -0.9320
 3753TIP3   OH232893   0.682   3.325   7.344  0.2251 -0.7213  0.4612
 3753TIP3    H132894   0.596   3.292   7.372 -0.2763 -0.9750 -1.2126
 3753TIP3    H232895   0.676   3.420   7.354  0.0711 -0.8026  1.1830
 3754TIP3   OH232896   4.246   4.653   1.536  0.7411 -0.4799  0.0587
 3754TIP3    H132897   4.223   4.561   1.552  1.8384 -0.9170 -0.7432
 3754TIP3    H232898   4.281   4.684   1.619  0.9533 -0.9712  0.1520
 3755TIP3   OH232899   5.815   5.292   1.417 -0.4821 -0.7938  0.2172
 3755TIP3    H132900   5.895   5.272   1.466 -0.7883 -0.4732  0.8694
 3755TIP3    H232901   5.804   5.387   1.426 -1.0117 -0.8531  0.2616
 3756TIP3   OH232902   2.246   5.385   7.931 -0.0803  0.1321  0.7554
 3756TIP3    H132903   2.291   5.343   8.004 -0.0668  0.1567  0.7612
 3756TIP3    H232904   2.314   5.401   7.866 -0.5751 -2.9346 -0.7157
 3757TIP3   OH232905   3.423   5.358   1.142 -0.1904  0.4748 -0.1695
 3757TIP3    H132906   3.431   5.264   1.162  1.0529  0.5818 -0.0908
 3757TIP3    H232907   3.332   5.379   1.164 -0.3674 -0.6210  0.2266
 3758TIP3   OH232908   0.581   6.383   1.509 -0.2032  0.6320 -0.3443
 3758TIP3    H132909   0.547   6.297   1.534  0.3813  0.9117  1.6455
 3758TIP3    H232910   0.526   6.412   1.437 -0.6355 -1.2502 -0.8172
 3759TIP3   OH232911   0.960   6.453   0.954 -0.4240  0.0265  0.3065
 3759TIP3    H132912   0.971   6.386   0.886  0.4822 -3.1649  3.2793
 3759TIP3    H232913   1.046   6.492   0.964 -0.7579  1.1342 -0.8588
 3760TIP3   OH232914   4.441   1.950   0.690  0.9250 -0.5673  0.4296
 3760TIP3    H132915   4.375   2.013   0.660  1.2144 -0.0271  0.9189
 3760TIP3    H232916   4.423   1.871   0.638  1.4714  0.3659 -1.2566
 3761TIP3   OH232917   2.803   1.650   8.223 -0.1304  0.3392 -0.2731
 3761TIP3    H132918   2.803   1.723   8.161 -1.3000 -0.3405 -1.1271
 3761TIP3    H232919   2.784   1.573   8.168  1.5471 -0.6949  0.5183
 3762TIP3   OH232920   5.691   6.392   0.983  0.1311 -0.5087  0.0973
 3762TIP3    H132921   5.757   6.322   0.980  0.0120 -0.6507  0.5871
 3762TIP3    H232922   5.729   6.459   1.040 -0.0536 -0.4964  0.2094
 3763TIP3   OH232923   3.592   3.094   2.611 -0.2810  0.2100  0.0001
 3763TIP3    H132924   3.656   3.165   2.618 -1.0771  0.8709  0.6806
 3763TIP3    H232925   3.586   3.058   2.699  0.4813 -1.0633 -0.4302
 3764TIP3   OH232926   5.210   5.469   1.987 -0.5508  0.3530 -0.7509
 3764TIP3    H132927   5.203   5.526   2.064  0.1057  0.0468 -0.4512
 3764TIP3    H232928   5.232   5.527   1.915 -1.1927  0.6464 -0.7176
 3765TIP3   OH232929   1.411   5.966   2.556 -0.1630  0.1314 -0.2627
 3765TIP3    H132930   1.388   6.059   2.558 -0.6053  0.0136  0.9946
 3765TIP3    H232931   1.507   5.965   2.551 -0.1720  0.6604 -0.5077
 3766TIP3   OH232932   2.530   0.260   0.775 -0.0361  0.2173 -0.2989
 3766TIP3    H132933   2.453   0.242   0.720  0.1096  0.0422 -0.4463
 3766TIP3    H232934   2.549   0.176   0.817 -0.1969  0.3702  0.0863
 3767TIP3   OH232935   2.154   3.453   8.017 -0.3943 -0.0709 -0.0059
 3767TIP3    H132936   2.103   3.525   7.981 -0.2145  0.4549  0.7606
 3767TIP3    H232937   2.244   3.485   8.014 -0.4306  0.2199  1.4073
 3768TIP3   OH232938   0.127   5.161   8.791 -0.2576 -0.0002 -0.0915
 3768TIP3    H132939   0.077   5.117   8.723 -1.3102  0.6321  0.2568
 3768TIP3    H232940   0.150   5.091   8.853 -0.1090 -0.4048 -0.5941
 3769TIP3   OH232941   1.492   0.676   8.275  0.0850 -0.1542 -0.3602
 3769TIP3    H132942   1.497   0.592   8.230  0.5817 -0.1037 -0.4088
 3769TIP3    H232943   1.422   0.665   8.339 -0.4332 -0.3230 -0.9356
 3770TIP3   OH232944   4.779   1.022   0.226 -0.9400 -0.5109  0.5693
 3770TIP3    H132945   4.802   0.966   0.152  1.5104 -0.5591  1.2701
 3770TIP3    H232946   4.815   1.108   0.203 -1.2334 -0.2222  1.1722
 3771TIP3   OH232947   3.971   4.472   7.472  0.4818 -0.2611  0.3539
 3771TIP3    H132948   4.065   4.468   7.458  0.4069 -1.3390  0.0637
 3771TIP3    H232949   3.937   4.392   7.431 -0.4509 -0.3421  1.2327
 3772TIP3   OH232950   4.919   3.702   0.830  0.2650 -1.0430  0.2242
 3772TIP3    H132951   4.845   3.672   0.883 -0.1637 -0.3580  0.0224
 3772TIP3    H232952   4.965   3.764   0.887 -0.5640  0.1924 -0.4041
 3773TIP3   OH232953   3.463   4.182   8.741  0.5791 -0.4449 -0.2720
 3773TIP3    H132954   3.526   4.174   8.812 -0.6202 -0.1747  0.8507
 3773TIP3    H232955   3.402   4.110   8.754  0.2336 -0.2762 -0.9109
 3774TIP3   OH232956   2.973   5.344   2.486  0.1415  0.1145  0.0296
 3774TIP3    H132957   2.906   5.404   2.519 -1.7289 -2.0431  0.3496
 3774TIP3    H232958   2.924   5.273   2.445  2.2794 -1.0987 -0.5794
 3775TIP3   OH232959   6.460   4.158   2.220  0.0244 -0.2620 -0.4194
 3775TIP3    H132960   6.439   4.249   2.237  0.0123 -0.4842  0.8681
 3775TIP3    H232961   6.375   4.116   2.205  0.1832  0.4206 -3.8588
 3776TIP3   OH232962   4.034   1.631   0.294  0.3176  0.7857  0.4105
 3776TIP3    H132963   4.115   1.628   0.344  0.6752  0.5300 -0.1745
 3776TIP3    H232964   4.062   1.639   0.203 -0.3207  1.0138  0.2295
 3777TIP3   OH232965   6.493   6.680   7.008  0.1109  0.3960  0.0491
 3777TIP3    H132966   6.574   6.709   6.965 -0.7010  1.2716 -0.9375
 3777TIP3    H232967   6.435   6.755   7.003 -1.3513 -0.7300 -0.7432
 3778TIP3   OH232968   6.383   3.434   1.939 -1.0758 -0.3074  0.0823
 3778TIP3    H132969   6.455   3.385   1.978 -0.9828  0.2911  0.6722
 3778TIP3    H232970   6.307   3.413   1.994 -0.9588  0.4892  0.5627
 3779TIP3   OH232971   3.875   3.839   3.134 -0.3180  0.0704 -0.1116
 3779TIP3    H132972   3.816   3.770   3.106 -0.7769 -0.1237  1.2543
 3779TIP3    H232973   3.818   3.915   3.149  0.3421  1.2401 -2.9606
 3780TIP3   OH232974   4.727   1.285   8.311  0.0964  0.0833  0.0832
 3780TIP3    H132975   4.792   1.333   8.363  0.7928 -1.0984  0.3256
 3780TIP3    H232976   4.756   1.298   8.220  0.0632  0.4211  0.1171
 3781TIP3   OH232977   3.005   3.534   0.062 -0.3839 -0.1091 -0.3162
 3781TIP3    H132978   3.068   3.492   0.004  0.2630  0.4017 -0.0060
 3781TIP3    H232979   2.924   3.485   0.051  0.6134 -2.1148  0.8089
 3782TIP3   OH232980   0.986   3.250   2.957  0.6412 -0.8267  0.1717
 3782TIP3    H132981   0.907   3.196   2.946  0.5160 -0.7105  0.4779
 3782TIP3    H232982   1.006   3.244   3.051 -0.1780  0.7470  0.5001
 3783TIP3   OH232983   2.656   2.381   6.852 -0.8925 -0.2748  0.0435
 3783TIP3    H132984   2.728   2.414   6.799  0.0197 -1.4885  0.4717
 3783TIP3    H232985   2.623   2.458   6.898  1.1949  0.0884  1.0690
 3784TIP3   OH232986   0.860   3.371   8.537  0.0237  0.3351  0.0080
 3784TIP3    H132987   0.784   3.323   8.506  0.8548  0.0108 -1.6449
 3784TIP3    H232988   0.838   3.463   8.522 -1.1311  0.4642  2.1639
 3785TIP3   OH232989   6.235   3.859   1.916  0.2985 -0.3872  0.3483
 3785TIP3    H132990   6.243   3.947   1.878 -2.0974 -0.3765 -0.2995
 3785TIP3    H232991   6.165   3.867   1.981  1.3325 -1.4314  1.6647
 3786TIP3   OH232992   0.062   3.773   1.483  0.0688  0.0444  0.1408
 3786TIP3    H132993   0.154   3.799   1.486  0.6826 -1.9738  0.6772
 3786TIP3    H232994   0.040   3.770   1.390  1.3708 -1.9506 -0.1557
 3787TIP3   OH232995   1.281   5.667   8.626  0.2995  0.0523  0.2638
 3787TIP3    H132996   1.338   5.669   8.550 -0.1304  0.1458 -0.0623
 3787TIP3    H232997   1.321   5.604   8.685  2.0887  1.8854  1.1290
 3788TIP3   OH232998   2.504   1.849   7.878 -0.4005  0.0171  0.5297
 3788TIP3    H132999   2.423   1.862   7.926  0.6211  2.8885  1.7396
 3788TIP3    H233000   2.504   1.918   7.811 -0.5297 -2.1917 -1.9115
 3789TIP3   OH233001   0.996   0.576   7.981  0.5577  0.1875 -0.1660
 3789TIP3    H133002   0.981   0.567   8.075 -2.6417 -2.2323 -0.7490
 3789TIP3    H233003   0.939   0.649   7.955  0.0092 -0.3415 -0.4671
 3790TIP3   OH233004   6.201   2.985   8.639 -0.1836  0.1648  0.5139
 3790TIP3    H133005   6.169   3.048   8.703  0.6565  1.2481 -0.0964
 3790TIP3    H233006   6.123   2.954   8.594 -0.4680  2.5584 -0.7856
 3791TIP3   OH233007   4.688   5.706   7.612 -0.2723  0.0812 -0.4696
 3791TIP3    H133008   4.698   5.613   7.593 -1.6295  0.0403 -1.1333
 3791TIP3    H233009   4.775   5.736   7.637  0.6367 -0.9036 -2.3163
 3792TIP3   OH233010   1.182   5.133   8.108 -0.0015 -0.0743 -0.1253
 3792TIP3    H133011   1.228   5.049   8.114  2.0378  0.8150 -2.0191
 3792TIP3    H233012   1.245   5.197   8.140  0.1028  1.1785 -2.6466
 3793TIP3   OH233013   1.812   2.516   0.230 -0.6327  0.1877 -0.2424
 3793TIP3    H133014   1.839   2.492   0.318  0.4348 -1.5657 -0.9894
 3793TIP3    H233015   1.731   2.466   0.215 -0.7441  0.3835 -0.2985
 3794TIP3   OH233016   1.101   1.914   8.191  0.4766 -0.5808  0.6514
 3794TIP3    H133017   1.060   1.978   8.132  1.3199  0.5626  1.2737
 3794TIP3    H233018   1.145   1.967   8.257 -1.9966 -1.7728  3.4811
 3795TIP3   OH233019   6.722   6.661   7.881  0.1652 -0.3055  1.0146
 3795TIP3    H133020   6.818   6.660   7.883  0.1737  0.3443  1.0296
 3795TIP3    H233021   6.696   6.609   7.958  0.4956 -1.6675  0.2394
 3796TIP3   OH233022   3.533   5.408   7.687 -0.0985 -0.3120 -0.4918
 3796TIP3    H133023   3.524   5.354   7.609 -0.9815  0.2631 -0.7998
 3796TIP3    H233024   3.495   5.356   7.758  3.7794 -2.3618  0.3542
 3797TIP3   OH233025   0.685   2.781   7.595  0.0769  0.4651 -0.1575
 3797TIP3    H133026   0.759   2.820   7.547  1.1971  0.3055  1.3543
 3797TIP3    H233027   0.623   2.755   7.527  1.3773  0.7037 -1.4802
 3798TIP3   OH233028   5.102   5.892   2.054 -0.2317  0.4245  0.4879
 3798TIP3    H133029   5.097   5.865   1.962  0.9449 -0.6170  0.6917
 3798TIP3    H233030   5.084   5.986   2.053  0.9108  0.6744 -0.9675
 3799TIP3   OH233031   0.662   1.002   1.901  0.2862 -0.9215  0.1203
 3799TIP3    H133032   0.655   0.924   1.845  0.0487 -0.4260 -0.5447
 3799TIP3    H233033   0.641   0.969   1.989 -1.4889 -1.2944 -0.4044
 3800TIP3   OH233034   3.047   4.664   0.172 -0.5075  0.1519 -0.4690
 3800TIP3    H133035   3.079   4.611   0.099 -0.5650  1.6096 -1.5976
 3800TIP3    H233036   3.031   4.750   0.134 -2.2604  0.4716  0.8816
 3801TIP3   OH233037   2.461   0.594   6.621 -0.1283  0.0685  0.2882
 3801TIP3    H133038   2.400   0.663   6.593  0.1838  0.0296 -0.5243
 3801TIP3    H233039   2.508   0.632   6.695 -0.7844  0.2887  0.5951
 3802TIP3   OH233040   4.897   2.948   0.111 -0.3798 -0.3580 -0.0884
 3802TIP3    H133041   4.875   2.942   0.204  0.8776 -0.3334  0.2307
 3802TIP3    H233042   4.834   2.891   0.067  0.3936 -2.1495  1.0139
 3803TIP3   OH233043   4.022   1.627   1.435  0.3737  0.2738  0.7222
 3803TIP3    H133044   4.049   1.709   1.477 -1.0526 -0.4973  3.4476
 3803TIP3    H233045   3.943   1.651   1.386 -0.6481  0.4247  2.3506
 3804TIP3   OH233046   1.965   0.232   7.493  0.0928  0.0445 -0.2406
 3804TIP3    H133047   2.031   0.206   7.429  0.0838 -0.2368 -0.1378
 3804TIP3    H233048   1.891   0.265   7.441  0.6409  1.1718 -0.3377
 3805TIP3   OH233049   6.198   0.439   2.638 -0.3822  0.0720 -0.3686
 3805TIP3    H133050   6.224   0.491   2.715 -2.5152  0.0167  0.4482
 3805TIP3    H233051   6.281   0.410   2.600  0.7541  0.6879  1.5006
 3806TIP3   OH233052   5.070   3.846   1.994  0.1622  0.4467 -0.0188
 3806TIP3    H133053   5.155   3.818   2.028 -0.7491 -1.2478  1.0013
 3806TIP3    H233054   5.034   3.904   2.061 -1.2050 -2.1086  1.5951
 3807TIP3   OH233055   1.555   1.496   0.068  0.2530 -0.6794 -0.3056
 3807TIP3    H133056   1.483   1.457   0.118  0.0257 -1.0141 -0.8912
 3807TIP3    H233057   1.567   1.438  -0.006  0.0890  0.2234 -1.0551
 3808TIP3   OH233058   6.046   0.154   0.638  0.5927 -0.2206 -0.2724
 3808TIP3    H133059   6.108   0.208   0.588  2.1801  0.2234  2.0415
 3808TIP3    H233060   6.008   0.214   0.702  0.3669 -1.2648  0.5978
 3809TIP3   OH233061   5.488   6.065   0.995  0.0382 -0.5215  0.2691
 3809TIP3    H133062   5.519   6.034   0.910  0.6417  1.0733 -0.1181
 3809TIP3    H233063   5.559   6.042   1.056  0.6051  0.3029 -0.0628
 3810TIP3   OH233064   6.576   2.923   7.229  0.0388  0.3660  0.3070
 3810TIP3    H133065   6.626   2.989   7.278 -2.1542  0.9146  1.9900
 3810TIP3    H233066   6.589   2.842   7.278 -0.6856  0.5172  0.7696
 3811TIP3   OH233067   1.071   4.032   7.291 -0.4332 -0.0237  0.2362
 3811TIP3    H133068   1.059   3.958   7.232 -0.7636 -0.1594  0.4759
 3811TIP3    H233069   1.111   4.100   7.236 -0.0905 -0.3890  0.0270
 3812TIP3   OH233070   2.006   0.206   8.606 -0.0406 -0.1696 -0.0439
 3812TIP3    H133071   2.001   0.252   8.689 -1.8136  1.0626 -0.7815
 3812TIP3    H233072   1.959   0.124   8.620 -2.0742  0.8902 -0.3054
 3813TIP3   OH233073   0.861   3.808   8.080  0.3229  0.3853  0.1381
 3813TIP3    H133074   0.784   3.854   8.045 -0.3933 -1.6230 -1.1040
 3813TIP3    H233075   0.876   3.849   8.165 -1.4510  1.5811 -0.0602
 3814TIP3   OH233076   5.724   1.923   2.058  0.8098  0.2590  0.1531
 3814TIP3    H133077   5.702   2.016   2.051 -1.2346 -0.1267  0.7815
 3814TIP3    H233078   5.818   1.922   2.073  0.9641  2.1977 -0.3569
 3815TIP3   OH233079   1.529   5.570   1.362  0.3183 -0.0252 -0.3781
 3815TIP3    H133080   1.439   5.567   1.330  0.5219 -1.0037 -0.9077
 3815TIP3    H233081   1.522   5.541   1.453  0.0566  0.1980 -0.3257
 3816TIP3   OH233082   4.782   4.235   3.273  0.0506  0.0656  0.4683
 3816TIP3    H133083   4.853   4.291   3.302  0.5225 -0.6305  0.6846
 3816TIP3    H233084   4.730   4.290   3.215  0.2828  0.8380  0.9724
 3817TIP3   OH233085   1.239   0.686   1.893  0.2476 -0.4844 -0.0342
 3817TIP3    H133086   1.193   0.613   1.935  2.3037 -1.1302  1.2167
 3817TIP3    H233087   1.294   0.722   1.962  2.4522 -0.4530 -1.7006
 3818TIP3   OH233088   6.821   3.243   7.726 -0.1067  0.0748  0.4436
 3818TIP3    H133089   6.872   3.315   7.763  0.4380  0.4326 -0.9342
 3818TIP3    H233090   6.871   3.165   7.748 -0.5436  0.1260  1.6836
 3819TIP3   OH233091   4.265   0.533   2.306  0.6815 -0.1333  1.1819
 3819TIP3    H133092   4.182   0.578   2.288  0.8355 -0.0964  0.5510
 3819TIP3    H233093   4.242   0.466   2.369  0.4256  0.7591  2.0701
 3820TIP3   OH233094   5.763   2.819   8.011 -0.2544  0.1164  0.3763
 3820TIP3    H133095   5.817   2.775   8.076  1.7567  0.0806 -1.2313
 3820TIP3    H233096   5.689   2.854   8.061  0.7674 -0.6344  2.5144
 3821TIP3   OH233097   4.218   4.751   7.405  0.2316 -0.1854 -0.5709
 3821TIP3    H133098   4.125   4.730   7.394  0.5939 -2.2918  0.0008
 3821TIP3    H233099   4.221   4.801   7.487 -0.3658 -0.3478 -0.4414
 3822TIP3   OH233100   2.974   3.560   1.709 -0.1078 -0.2823 -0.7694
 3822TIP3    H133101   2.930   3.641   1.683  1.6226  0.3402 -1.9987
 3822TIP3    H233102   3.053   3.557   1.654  2.3848 -0.3682  2.4913
 3823TIP3   OH233103   5.141   6.381   1.344 -0.2325  0.0931  0.0627
 3823TIP3    H133104   5.128   6.399   1.437 -0.2666  1.4683 -0.1997
 3823TIP3    H233105   5.224   6.334   1.341  0.0315  0.5004  0.7441
 3824TIP3   OH233106   3.071   2.490   2.205 -0.2576  0.5034  0.4994
 3824TIP3    H133107   3.013   2.417   2.230  0.3007 -0.0790  0.1393
 3824TIP3    H233108   3.151   2.447   2.173 -0.8426  1.1713 -2.1070
 3825TIP3   OH233109   5.795   3.970   8.655  0.1821 -0.2157  0.4789
 3825TIP3    H133110   5.829   3.885   8.684 -1.1761 -0.7258  0.6375
 3825TIP3    H233111   5.840   3.986   8.572  0.7726 -0.8713  0.6568
 3826TIP3   OH233112   2.663   2.021   1.520 -0.3248  0.7260 -0.8504
 3826TIP3    H133113   2.673   2.116   1.530  3.5191  0.3649  0.2416
 3826TIP3    H233114   2.598   1.997   1.586 -0.2528  2.4262 -0.1078
 3827TIP3   OH233115   2.602   5.093   1.606  0.0900  0.2739  0.1061
 3827TIP3    H133116   2.551   5.018   1.574  1.6265 -0.7632 -0.0101
 3827TIP3    H233117   2.582   5.099   1.699  0.7437 -0.9612  0.3390
 3828TIP3   OH233118   1.021   2.357   0.478 -0.4864  0.1122  0.3018
 3828TIP3    H133119   1.111   2.387   0.464 -0.4438  0.1100  0.5664
 3828TIP3    H233120   0.969   2.406   0.415 -0.3960  0.6246  0.6214
 3829TIP3   OH233121   3.008   2.735   2.077 -0.4632  0.5017 -0.9162
 3829TIP3    H133122   3.061   2.664   2.113  0.0940  0.2127 -2.2609
 3829TIP3    H233123   3.007   2.802   2.146  0.7526  0.0608 -0.4608
 3830TIP3   OH233124   1.866   5.544   8.219  0.1139  0.3431  0.0218
 3830TIP3    H133125   1.919   5.524   8.142  0.2795 -0.5510  0.3598
 3830TIP3    H233126   1.926   5.591   8.278 -0.4026  2.3381 -0.9617
 3831TIP3   OH233127   4.203   5.118   6.968 -0.3225 -0.5809  0.0059
 3831TIP3    H133128   4.282   5.086   6.924 -0.5378 -1.2722  0.1061
 3831TIP3    H233129   4.161   5.039   7.002 -1.1796 -0.2426 -0.2430
 3832TIP3   OH233130   1.945   2.493   0.489  0.3838  0.3377 -0.3286
 3832TIP3    H133131   1.955   2.499   0.584  0.9249  0.6048 -0.3967
 3832TIP3    H233132   1.984   2.574   0.456 -0.1139  0.4056 -0.7566
 3833TIP3   OH233133   0.624   3.344   7.617  0.1064 -0.3624  0.1868
 3833TIP3    H133134   0.649   3.381   7.702 -0.7071 -1.9997  1.1888
 3833TIP3    H233135   0.699   3.292   7.590 -0.1961 -1.0486  0.6466
 3834TIP3   OH233136   1.133   2.510   6.412 -0.4215  0.1362 -0.1243
 3834TIP3    H133137   1.111   2.578   6.348  1.2700 -0.3550 -1.3035
 3834TIP3    H233138   1.099   2.429   6.374 -0.2686 -0.0270  0.0829
 3835TIP3   OH233139   2.301   0.175   0.532 -0.6377 -0.3487 -0.1079
 3835TIP3    H133140   2.233   0.237   0.556  0.3716  0.5126  0.6141
 3835TIP3    H233141   2.299   0.172   0.436 -2.3080 -1.0730 -0.0791
 3836TIP3   OH233142   0.193   3.668   7.980 -0.0281 -0.2097 -0.8270
 3836TIP3    H133143   0.243   3.590   8.004 -0.0288 -0.5346 -1.8328
 3836TIP3    H233144   0.259   3.736   7.967 -0.0728  0.1465  0.6865
 3837TIP3   OH233145   0.747   0.883   1.621  0.3028 -0.2043  0.0510
 3837TIP3    H133146   0.808   0.948   1.586 -1.2174  1.0841 -0.3246
 3837TIP3    H233147   0.691   0.860   1.547 -0.1852 -0.7414  0.5784
 3838TIP3   OH233148   5.552   6.376   0.042 -0.1894 -0.1866 -0.1671
 3838TIP3    H133149   5.564   6.283   0.021  3.1044  0.0206  0.3293
 3838TIP3    H233150   5.554   6.380   0.138 -2.3255  0.2560 -0.0859
 3839TIP3   OH233151   3.105   4.591   3.305  0.3716 -0.3106  0.0013
 3839TIP3    H133152   3.140   4.620   3.221 -1.1722  1.7644  0.0132
 3839TIP3    H233153   3.121   4.665   3.364 -0.0491 -1.0819  1.1108
 3840TIP3   OH233154   6.480   3.970   1.750 -0.1377  0.2157 -0.0680
 3840TIP3    H133155   6.498   4.033   1.680  0.5309 -0.2729 -0.3413
 3840TIP3    H233156   6.522   3.889   1.721 -1.3805 -0.4972  0.0591
 3841TIP3   OH233157   6.431   1.054   0.247  0.2088  0.2061  0.0800
 3841TIP3    H133158   6.471   1.015   0.325 -0.8764  0.1863  0.6526
 3841TIP3    H233159   6.427   1.148   0.266 -0.5822  0.1351  0.3131
 3842TIP3   OH233160   3.017   5.187   1.014  0.1676 -0.1809 -0.3184
 3842TIP3    H133161   3.026   5.101   1.054  1.5049  0.4134  0.7303
 3842TIP3    H233162   3.051   5.176   0.925  0.7015 -0.6461 -0.0627
 3843TIP3   OH233163   6.753   6.035   2.500  0.5199  0.6186  0.0840
 3843TIP3    H133164   6.694   5.988   2.442  0.3700  0.1336  0.6181
 3843TIP3    H233165   6.712   6.029   2.586  0.6791  1.4306  0.2255
 3844TIP3   OH233166   6.420   3.537   0.367 -0.1944  0.5724  0.6688
 3844TIP3    H133167   6.403   3.461   0.312 -1.4712 -0.2900  2.1538
 3844TIP3    H233168   6.480   3.505   0.434 -0.3713  1.0026  1.0316
 3845TIP3   OH233169   0.690   5.224   7.644 -0.0412 -0.0411 -0.2217
 3845TIP3    H133170   0.636   5.302   7.656 -0.3386 -0.4630  1.4953
 3845TIP3    H233171   0.722   5.203   7.732  1.3461 -0.9254 -0.9062
 3846TIP3   OH233172   1.983   4.434   0.814  0.3268 -0.1216 -0.1425
 3846TIP3    H133173   1.965   4.415   0.906 -0.0191 -0.0112 -0.1856
 3846TIP3    H233174   1.948   4.357   0.767  0.2543 -0.0521 -0.2027
 3847TIP3   OH233175   4.596   3.607   1.182  0.3036 -0.2533  0.3544
 3847TIP3    H133176   4.565   3.548   1.251 -1.3664  0.0649 -0.0878
 3847TIP3    H233177   4.548   3.689   1.196  2.9026  1.2438  1.2405
 3848TIP3   OH233178   2.515   4.851   0.559 -0.0958 -0.5891  0.4535
 3848TIP3    H133179   2.542   4.939   0.534 -0.5551 -0.4517  0.4170
 3848TIP3    H233180   2.489   4.860   0.651  2.9854 -1.4013  1.5138
 3849TIP3   OH233181   5.119   2.999   0.372  0.0701  0.3577 -0.7116
 3849TIP3    H133182   5.025   2.981   0.383  0.1327 -0.4829 -1.4424
 3849TIP3    H233183   5.127   3.093   0.384 -1.2455  0.8440 -3.1057
 3850TIP3   OH233184   0.765   4.406   0.744  0.1059 -0.2476 -0.0813
 3850TIP3    H133185   0.793   4.378   0.656 -0.5039  0.7966 -0.6229
 3850TIP3    H233186   0.821   4.356   0.803  0.4673 -1.0475 -1.0597
 3851TIP3   OH233187   6.184   4.088   2.237 -0.5172  0.4284  0.1094
 3851TIP3    H133188   6.178   3.993   2.222  0.1243  0.5645 -1.1246
 3851TIP3    H233189   6.095   4.115   2.259 -0.9633 -0.2596 -0.8018
 3852TIP3   OH233190   0.257   3.437   7.711  0.9040  0.1441 -1.2138
 3852TIP3    H133191   0.311   3.515   7.720 -0.9563  1.3660  0.0707
 3852TIP3    H233192   0.193   3.459   7.642  0.8302 -0.5313 -1.3728
 3853TIP3   OH233193   2.296   1.333   1.201  0.1296 -0.0882 -0.4722
 3853TIP3    H133194   2.267   1.405   1.145 -2.0694 -0.8985 -0.4385
 3853TIP3    H233195   2.392   1.342   1.203  0.1510  1.0411 -2.8926
 3854TIP3   OH233196   6.711   6.209   1.138 -0.5558  0.6468  0.2198
 3854TIP3    H133197   6.731   6.137   1.199  0.2472  0.6131 -0.0680
 3854TIP3    H233198   6.721   6.170   1.051  0.1114  1.1619  0.0612
 3855TIP3   OH233199   6.335   5.238   2.026 -0.4469  0.4861 -0.3573
 3855TIP3    H133200   6.424   5.250   2.058 -0.4777 -0.2397  0.0226
 3855TIP3    H233201   6.289   5.194   2.098 -0.6686 -0.6380 -1.1571
 3856TIP3   OH233202   6.264   3.716   7.551  0.4912  0.2798  0.3397
 3856TIP3    H133203   6.223   3.656   7.613 -0.1030  1.9702  1.6725
 3856TIP3    H233204   6.195   3.733   7.486 -0.1914  1.3150  1.2892
 3857TIP3   OH233205   3.881   6.336   0.908  0.3142 -0.1587  0.1707
 3857TIP3    H133206   3.921   6.257   0.872 -2.4934 -1.3236 -0.7045
 3857TIP3    H233207   3.907   6.337   1.000 -0.9114 -3.1633  0.6742
 3858TIP3   OH233208   6.714   1.919   1.144  0.0155  0.0516  0.3544
 3858TIP3    H133209   6.665   2.001   1.137  0.2145  0.1496  0.0739
 3858TIP3    H233210   6.797   1.943   1.185 -0.4427 -0.2323  1.4695
 3859TIP3   OH233211   6.427   5.628   0.842 -0.2949 -0.4425 -0.7807
 3859TIP3    H133212   6.384   5.658   0.762  1.3231  1.7581 -0.9240
 3859TIP3    H233213   6.428   5.704   0.899  0.1900 -1.4611  0.6254
 3860TIP3   OH233214   1.485   0.808   1.417  0.1334  0.5212 -0.2492
 3860TIP3    H133215   1.440   0.786   1.499  0.0818 -1.9075 -0.8702
 3860TIP3    H233216   1.526   0.727   1.389  2.0792  1.8508 -1.4955
 3861TIP3   OH233217   3.911   3.308   8.711  0.3976 -0.5335  0.0799
 3861TIP3    H133218   3.994   3.354   8.719 -0.6330  2.1676 -2.6180
 3861TIP3    H233219   3.934   3.215   8.718  3.7889  0.0472 -1.3351
 3862TIP3   OH233220   6.092   3.878   1.272  0.3421  0.2404 -0.3689
 3862TIP3    H133221   6.105   3.793   1.316  1.3753 -0.3270 -1.6912
 3862TIP3    H233222   6.142   3.940   1.325 -0.9438  0.1901  0.9829
 3863TIP3   OH233223   0.886   6.431   2.499 -0.4616 -0.7323  0.1442
 3863TIP3    H133224   0.912   6.358   2.554 -3.4687 -1.1272  1.1925
 3863TIP3    H233225   0.916   6.509   2.547 -2.3680 -1.0994  2.0662
 3864TIP3   OH233226   0.270   2.782   1.874  0.0353 -0.1689  0.0357
 3864TIP3    H133227   0.202   2.764   1.808  0.5727 -0.3875 -0.4678
 3864TIP3    H233228   0.255   2.873   1.900 -1.0457 -0.5082  0.6324
 3865TIP3   OH233229   3.315   0.223   7.668  0.0342 -0.5099  0.0424
 3865TIP3    H133230   3.409   0.243   7.663 -0.2573  0.5929 -2.2128
 3865TIP3    H233231   3.312   0.134   7.702  1.8384 -0.1791  1.2037
 3866TIP3   OH233232   0.279   1.142   8.113  0.1691 -0.3677  0.0916
 3866TIP3    H133233   0.254   1.151   8.021  0.4448 -1.2956 -0.0774
 3866TIP3    H233234   0.219   1.200   8.160  0.8750  1.1430 -0.7909
 3867TIP3   OH233235   2.359   3.637   7.944 -0.0918  0.2795 -0.0821
 3867TIP3    H133236   2.356   3.711   7.883  1.2370  0.9825  0.6438
 3867TIP3    H233237   2.452   3.618   7.954 -0.3910 -1.1954  0.1261
 3868TIP3   OH233238   4.462   5.516   7.062 -0.3886 -0.5946 -0.4250
 3868TIP3    H133239   4.534   5.552   7.112 -0.5553  0.8694 -1.1585
 3868TIP3    H233240   4.436   5.588   7.003 -1.6323 -1.4925 -1.0215
 3869TIP3   OH233241   4.713   3.849   2.474 -0.5783  0.1866  0.8987
 3869TIP3    H133242   4.707   3.758   2.443  0.7461  0.0435  0.9891
 3869TIP3    H233243   4.693   3.844   2.567  0.5328 -0.1877  1.1265
 3870TIP3   OH233244   5.873   4.379   0.418 -0.4404  0.6563 -0.6106
 3870TIP3    H133245   5.786   4.348   0.442 -0.0171  0.2797  0.4724
 3870TIP3    H233246   5.881   4.358   0.325 -1.7818  1.3748 -0.9056
 3871TIP3   OH233247   0.869   2.394   3.005  0.5927  0.0013  0.3115
 3871TIP3    H133248   0.873   2.300   3.020  2.9184  0.0468  0.2218
 3871TIP3    H233249   0.903   2.406   2.916 -0.3190  0.8896  0.0556
 3872TIP3   OH233250   1.602   4.706   0.731 -0.0335  0.0128  0.3568
 3872TIP3    H133251   1.583   4.738   0.643  0.7680 -0.8013 -0.1329
 3872TIP3    H233252   1.516   4.685   0.768 -0.4543  1.3422  0.1730
 3873TIP3   OH233253   1.394   2.037   3.081  0.3747  0.1625 -0.0731
 3873TIP3    H133254   1.451   2.084   3.141  2.1991 -0.4885 -1.2216
 3873TIP3    H233255   1.417   1.945   3.093  1.5519  0.0765 -2.4375
 3874TIP3   OH233256   5.124   4.474   8.326  0.2931  0.8345 -0.2090
 3874TIP3    H133257   5.163   4.495   8.241  0.5126  0.3683 -0.2281
 3874TIP3    H233258   5.030   4.481   8.312  0.1521 -1.8617 -1.2452
 3875TIP3   OH233259   4.142   6.603   1.366 -0.2693 -0.1008 -0.1512
 3875TIP3    H133260   4.130   6.696   1.384  0.3292  0.4301 -2.2546
 3875TIP3    H233261   4.214   6.599   1.304  1.4066 -2.1956  1.7483
 3876TIP3   OH233262   5.535   1.609   7.088  0.7009  0.4334 -0.4999
 3876TIP3    H133263   5.461   1.578   7.034 -0.4283  2.8152 -0.4351
 3876TIP3    H233264   5.592   1.532   7.095 -1.1950 -1.1869 -1.5060
 3877TIP3   OH233265   5.886   0.610   1.571  0.9578  0.0541  0.8871
 3877TIP3    H133266   5.828   0.637   1.499 -1.4680 -1.0823  2.3223
 3877TIP3    H233267   5.951   0.681   1.577 -0.8997  1.9308 -0.1208
 3878TIP3   OH233268   3.576   6.342   7.719 -0.2385 -0.2862 -0.2329
 3878TIP3    H133269   3.630   6.395   7.778  1.6088 -1.5532 -0.6855
 3878TIP3    H233270   3.492   6.335   7.764 -0.3462  2.3460  0.1842
 3879TIP3   OH233271   1.203   0.894   8.412  0.4176 -0.3785  0.2963
 3879TIP3    H133272   1.151   0.894   8.332  0.9083 -2.5007 -0.0729
 3879TIP3    H233273   1.218   0.987   8.431 -3.5850  0.3809  0.5358
 3880TIP3   OH233274   2.714   4.005   0.006  0.4030 -0.0222  0.0158
 3880TIP3    H133275   2.674   3.920  -0.008 -0.6414  0.5195 -0.3828
 3880TIP3    H233276   2.757   4.026  -0.077  2.4886 -1.0607  0.7537
 3881TIP3   OH233277   5.228   4.818   1.935  0.2326 -0.2965 -0.3774
 3881TIP3    H133278   5.276   4.752   1.884 -1.0352 -0.9430 -0.7749
 3881TIP3    H233279   5.210   4.774   2.019 -1.9958 -1.0900 -1.2158
 3882TIP3   OH233280   5.002   1.079   0.655  0.0081 -0.0271  0.0976
 3882TIP3    H133281   4.961   0.993   0.652  0.2835 -0.1571  0.0485
 3882TIP3    H233282   5.033   1.087   0.745 -0.9639  0.4651  0.3969
 3883TIP3   OH233283   5.764   4.780   2.330  0.7366 -0.7926 -0.0476
 3883TIP3    H133284   5.707   4.753   2.402  1.0748 -2.0000 -0.2044
 3883TIP3    H233285   5.828   4.838   2.370  1.4678 -2.1516  0.8461
 3884TIP3   OH233286   5.197   0.401   2.735  0.4845 -0.9714 -0.2610
 3884TIP3    H133287   5.153   0.399   2.820  1.7621  0.7027  0.4818
 3884TIP3    H233288   5.261   0.330   2.740 -0.2929 -1.6904 -0.3274
 3885TIP3   OH233289   4.672   4.089   7.434  0.8851  0.0356 -0.2282
 3885TIP3    H133290   4.660   4.105   7.528  0.6192  1.4722 -0.4951
 3885TIP3    H233291   4.681   3.994   7.428 -1.3878 -0.3370  1.0139
 3886TIP3   OH233292   4.361   5.245   1.204 -0.2638 -0.0743  0.4358
 3886TIP3    H133293   4.314   5.282   1.279 -0.2505 -0.3496  0.5810
 3886TIP3    H233294   4.453   5.246   1.231 -0.0641  1.2503 -0.1720
 3887TIP3   OH233295   1.211   6.367   2.860  0.0551  0.2836 -0.1027
 3887TIP3    H133296   1.197   6.354   2.954 -0.8260  0.4457 -0.1982
 3887TIP3    H233297   1.288   6.315   2.839  1.8989  2.3226  1.2157
 3888TIP3   OH233298   0.995   5.291   1.076  0.0910 -0.4253 -0.7010
 3888TIP3    H133299   1.059   5.275   1.006  1.5316  1.9290 -0.0718
 3888TIP3    H233300   0.947   5.368   1.047 -0.8128 -0.7342 -0.0588
 3889TIP3   OH233301   5.924   1.771   0.528  0.6587  0.3167  0.2818
 3889TIP3    H133302   5.911   1.716   0.605  0.3686 -0.7152 -0.4674
 3889TIP3    H233303   5.840   1.816   0.516  0.4915 -0.0087  0.2138
 3890TIP3   OH233304   0.680   1.814   0.188  0.2152 -0.4267  0.1136
 3890TIP3    H133305   0.668   1.861   0.271  0.0804  1.1803 -0.7632
 3890TIP3    H233306   0.719   1.879   0.129 -0.0001 -1.4278 -1.1885
 3891TIP3   OH233307   0.434   2.899   2.364 -0.3758 -0.4213  0.1551
 3891TIP3    H133308   0.437   2.929   2.273  1.2235 -3.5767 -0.9735
 3891TIP3    H233309   0.341   2.891   2.384 -0.7563 -0.0268 -1.3366
 3892TIP3   OH233310   3.029   2.814   0.145 -0.2551  0.5314  0.7367
 3892TIP3    H133311   3.065   2.728   0.164  1.2501  0.8959 -0.2912
 3892TIP3    H233312   3.103   2.874   0.153 -1.2249  1.7173  1.2068
 3893TIP3   OH233313   2.264   2.414   1.980 -0.7831  0.2331 -0.1597
 3893TIP3    H133314   2.266   2.387   1.888  0.4253 -2.2530  0.4907
 3893TIP3    H233315   2.280   2.333   2.029 -1.0978  1.5200  2.2447
 3894TIP3   OH233316   1.469   2.044   7.240  0.4935  0.6793  0.0136
 3894TIP3    H133317   1.512   2.060   7.155 -0.4576  0.7528 -0.4635
 3894TIP3    H233318   1.538   2.006   7.294  1.4312  1.6834 -0.4319
 3895TIP3   OH233319   0.545   5.008   0.245  0.7195  0.3751 -0.3121
 3895TIP3    H133320   0.468   4.956   0.267  0.7607  1.0447  1.6539
 3895TIP3    H233321   0.509   5.092   0.216  0.6855 -0.3029 -2.4312
 3896TIP3   OH233322   3.403   5.197   2.961 -0.3610 -0.4538  0.0769
 3896TIP3    H133323   3.427   5.107   2.939  0.0488 -0.3704  0.1602
 3896TIP3    H233324   3.449   5.213   3.044 -0.8843 -0.3561  0.3489
 3897TIP3   OH233325   0.811   3.389   0.193 -0.4949  0.1534  0.6526
 3897TIP3    H133326   0.745   3.370   0.126 -0.6808 -1.0589  1.1592
 3897TIP3    H233327   0.870   3.452   0.151 -0.6597 -0.5076 -0.6175
 3898TIP3   OH233328   1.794   4.532   7.197  0.2217 -0.7741 -0.1954
 3898TIP3    H133329   1.799   4.456   7.256 -0.6135  1.0371  2.4063
 3898TIP3    H233330   1.869   4.523   7.139  0.3941 -3.3345  0.3007
 3899TIP3   OH233331   6.521   1.209   1.395  0.0973 -0.3397 -0.0771
 3899TIP3    H133332   6.588   1.276   1.413  0.9202 -1.0247 -0.5239
 3899TIP3    H233333   6.493   1.180   1.482  0.2421  0.0895  0.1180
 3900TIP3   OH233334   6.361   3.667   7.907 -0.7842 -0.1875 -0.1018
 3900TIP3    H133335   6.350   3.617   7.826 -0.6201  1.0503 -0.9113
 3900TIP3    H233336   6.453   3.655   7.929 -0.4521  0.6804 -0.9427
 3901TIP3   OH233337   0.543   1.915   1.057 -0.3532 -0.2579 -0.0566
 3901TIP3    H133338   0.624   1.945   1.015 -0.3482  1.0009  0.7997
 3901TIP3    H233339   0.573   1.856   1.127 -0.2207 -0.3200 -0.1649
 3902TIP3   OH233340   4.768   2.546   7.133 -0.1937  0.0639 -0.1923
 3902TIP3    H133341   4.725   2.532   7.049 -0.2531 -4.4019  0.3537
 3902TIP3    H233342   4.853   2.502   7.124  0.3640  0.6547  1.6631
 3903TIP3   OH233343   6.851   3.045   8.139  0.1250  0.4759  0.7292
 3903TIP3    H133344   6.940   3.046   8.173  0.2736 -3.1187  0.8482
 3903TIP3    H233345   6.856   2.990   8.060 -2.2851 -1.9737  2.0993
 3904TIP3   OH233346   3.818   0.333   2.799  0.4645  0.3874 -0.2896
 3904TIP3    H133347   3.877   0.402   2.768  0.6972 -0.3028 -1.4528
 3904TIP3    H233348   3.876   0.258   2.813  0.0592  0.1169 -0.0545
 3905TIP3   OH233349   4.504   3.914   7.871 -0.0160  0.2220  0.3028
 3905TIP3    H133350   4.518   3.956   7.956  2.1970 -2.1339  1.2254
 3905TIP3    H233351   4.455   3.835   7.890 -0.5067  0.2357 -0.8170
 3906TIP3   OH233352   1.236   5.039   2.724 -0.1599  0.4360  0.2531
 3906TIP3    H133353   1.187   5.104   2.775 -0.4908  0.2195  0.2152
 3906TIP3    H233354   1.309   5.014   2.781  0.2509  1.2020  0.0674
 3907TIP3   OH233355   5.809   6.658   7.127 -0.8513 -0.2765  0.1116
 3907TIP3    H133356   5.846   6.719   7.064 -2.5114  1.4206  0.6810
 3907TIP3    H233357   5.719   6.644   7.096 -0.8958 -1.4357  0.7060
 3908TIP3   OH233358   6.097   5.345   1.791  0.2768 -0.1590 -0.4921
 3908TIP3    H133359   6.081   5.266   1.841  0.8850  0.7266  1.1974
 3908TIP3    H233360   6.016   5.395   1.797  0.3154 -0.0971 -0.4793
 3909TIP3   OH233361   3.442   3.491   8.134  0.1140  0.8798 -0.2471
 3909TIP3    H133362   3.498   3.478   8.210 -2.5157 -4.6685  1.2964
 3909TIP3    H233363   3.353   3.480   8.167 -1.3466  0.9801 -3.6918
 3910TIP3   OH233364   3.929   3.080   1.199  0.6712 -0.2133 -0.9600
 3910TIP3    H133365   3.946   3.011   1.264  0.6038 -0.3066 -1.0398
 3910TIP3    H233366   3.972   3.158   1.234  0.0134 -0.0726 -0.4411
 3911TIP3   OH233367   6.755   3.313   1.840 -0.0506 -0.2733  0.1430
 3911TIP3    H133368   6.786   3.295   1.929 -0.4919  0.6115  0.4818
 3911TIP3    H233369   6.830   3.353   1.796 -0.5410  1.5409  0.8584
 3912TIP3   OH233370   6.431   1.229   1.875 -0.5946 -0.2336 -0.1547
 3912TIP3    H133371   6.350   1.279   1.886 -0.4275 -0.0369  0.1908
 3912TIP3    H233372   6.490   1.263   1.942 -1.0099 -1.9954  1.1704
 3913TIP3   OH233373   1.381   3.114   7.636  0.4832 -0.2186  0.0003
 3913TIP3    H133374   1.307   3.170   7.657  1.5145  2.4786 -2.7392
 3913TIP3    H233375   1.342   3.039   7.590 -0.6285  0.6161 -0.4609
 3914TIP3   OH233376   1.385   6.803   7.367  0.1632 -0.3349  0.7629
 3914TIP3    H133377   1.481   6.806   7.367  0.1749 -0.3801  1.9200
 3914TIP3    H233378   1.362   6.789   7.275  1.2810 -0.8466  0.5413
 3915TIP3   OH233379   4.141   6.231   0.610 -0.2900  0.4128 -0.1224
 3915TIP3    H133380   4.132   6.326   0.616  0.7091  0.6219 -1.3309
 3915TIP3    H233381   4.103   6.209   0.525 -0.1139 -0.1969 -0.0464
 3916TIP3   OH233382   5.777   1.579   1.402 -0.2301  0.7171 -0.1936
 3916TIP3    H133383   5.873   1.579   1.400 -0.2303  1.9234 -1.6159
 3916TIP3    H233384   5.752   1.491   1.373  0.4583  1.2582 -2.6136
 3917TIP3   OH233385   2.847   3.068   7.633 -0.8727 -0.4573  0.2088
 3917TIP3    H133386   2.831   3.010   7.708  1.3033 -1.7223 -0.2185
 3917TIP3    H233387   2.841   3.011   7.557  1.3711 -0.1858 -0.2227
 3918TIP3   OH233388   3.514   3.395   2.997  0.1890  0.0005 -0.0951
 3918TIP3    H133389   3.477   3.474   2.958  0.5679  0.3076  0.1644
 3918TIP3    H233390   3.477   3.323   2.945 -2.4509  0.1268  1.4166
 3919TIP3   OH233391   0.398   4.381   8.380 -0.2303  0.2561  0.5235
 3919TIP3    H133392   0.408   4.411   8.289 -1.2900 -1.1688 -0.1139
 3919TIP3    H233393   0.487   4.380   8.415  0.1795  0.9915 -0.4515
 3920TIP3   OH233394   0.820   0.839   2.684 -0.4545  0.4742 -0.0503
 3920TIP3    H133395   0.901   0.790   2.670  0.0353  1.0620  0.6046
 3920TIP3    H233396   0.763   0.814   2.611  0.7725  0.9831 -1.2289
 3921TIP3   OH233397   5.503   2.638   8.052  0.2613 -0.0906 -0.4632
 3921TIP3    H133398   5.568   2.686   8.001  1.2853 -0.2814  0.6114
 3921TIP3    H233399   5.462   2.703   8.108 -0.8404  0.1126 -1.4540
 3922TIP3   OH233400   3.438   1.324   8.477 -0.1364 -0.4541 -0.1911
 3922TIP3    H133401   3.380   1.388   8.435 -0.3207  0.2969  1.1382
 3922TIP3    H233402   3.378   1.258   8.512 -0.1224 -0.2010  0.3199
 3923TIP3   OH233403   1.690   1.970   8.790  0.2724 -0.2253  0.3564
 3923TIP3    H133404   1.648   2.033   8.731  0.2940 -1.0045 -0.5137
 3923TIP3    H233405   1.678   2.007   8.878 -0.7449  0.3973 -0.0331
 3924TIP3   OH233406   3.889   6.683   1.177  0.3292  0.1649  0.8815
 3924TIP3    H133407   3.880   6.602   1.227  0.2638  0.3340  1.1459
 3924TIP3    H233408   3.949   6.661   1.106 -0.5581 -0.4191  0.3003
 3925TIP3   OH233409   6.716   1.615   7.210  0.5176 -0.5630 -0.2528
 3925TIP3    H133410   6.773   1.691   7.196  0.2739 -0.6599 -1.9708
 3925TIP3    H233411   6.704   1.578   7.122 -2.1811 -0.5728  0.0621
 3926TIP3   OH233412   5.164   2.890   0.126 -0.7260 -0.8534  0.0758
 3926TIP3    H133413   5.188   2.932   0.208  0.5656 -3.5536  1.2120
 3926TIP3    H233414   5.073   2.913   0.112 -0.6675  0.5114  1.7156
 3927TIP3   OH233415   2.423   1.216   8.176  0.0980 -0.2275 -0.3541
 3927TIP3    H133416   2.434   1.196   8.269 -1.2417 -1.1037 -0.3621
 3927TIP3    H233417   2.351   1.279   8.174 -1.3369 -1.8171 -0.9111
 3928TIP3   OH233418   1.529   2.821   7.377 -0.3875  0.2673 -0.1097
 3928TIP3    H133419   1.460   2.853   7.319 -1.1338 -1.9906 -0.5500
 3928TIP3    H233420   1.610   2.833   7.328 -0.5512  1.9706 -0.0082
 3929TIP3   OH233421   1.018   2.015   1.182 -0.4363 -0.1593 -0.0226
 3929TIP3    H133422   1.025   2.013   1.086 -0.0566  0.7336 -0.0218
 3929TIP3    H233423   0.932   2.052   1.199 -0.3110  0.1385 -0.0248
 3930TIP3   OH233424   3.455   4.763   8.586 -0.0049  0.5002  0.3441
 3930TIP3    H133425   3.525   4.794   8.528 -0.5862  0.8761 -0.1772
 3930TIP3    H233426   3.442   4.672   8.561  0.3855  0.3896  0.5341
 3931TIP3   OH233427   3.524   2.620   8.838 -0.3441 -0.5770 -0.2324
 3931TIP3    H133428   3.505   2.558   8.767  1.9510 -0.1219 -1.3537
 3931TIP3    H233429   3.490   2.703   8.806  0.9849 -0.3026 -1.0274
 3932TIP3   OH233430   4.323   1.524   7.202  0.2294  0.1536 -0.8605
 3932TIP3    H133431   4.366   1.501   7.119  0.0346 -1.0145 -0.6499
 3932TIP3    H233432   4.231   1.534   7.178 -0.5304 -3.8284 -0.2323
 3933TIP3   OH233433   3.761   0.840   7.170  0.0508 -0.5217  0.6737
 3933TIP3    H133434   3.800   0.922   7.139 -1.2124  0.6938  2.1044
 3933TIP3    H233435   3.820   0.810   7.239 -0.2431  0.0248  1.1801
 3934TIP3   OH233436   5.094   6.419   0.145  0.5324 -0.4470 -0.2361
 3934TIP3    H133437   5.036   6.394   0.073  0.2117 -0.1329 -0.0884
 3934TIP3    H233438   5.182   6.402   0.112  0.3341 -3.4671  0.4528
 3935TIP3   OH233439   3.623   2.071   2.347  0.0821 -0.0561  0.7620
 3935TIP3    H133440   3.656   1.986   2.375  4.1704  0.9687 -0.3301
 3935TIP3    H233441   3.638   2.129   2.421  0.9186  0.4460  0.2210
 3936TIP3   OH233442   3.539   2.035   1.529 -0.6090 -0.0886 -0.1060
 3936TIP3    H133443   3.612   2.064   1.584  2.4404 -0.1039 -3.7135
 3936TIP3    H233444   3.512   2.114   1.482  0.9072 -0.9827 -2.6829
 3937TIP3   OH233445   2.190   6.400   0.110 -0.3464  0.0418 -0.2888
 3937TIP3    H133446   2.149   6.327   0.156 -0.9548  0.9658  0.6985
 3937TIP3    H233447   2.277   6.368   0.086 -0.4295 -0.8492  0.5252
 3938TIP3   OH233448   2.564   1.386   2.181  0.7142  0.0018 -0.2119
 3938TIP3    H133449   2.617   1.446   2.234 -1.6471  1.8699  0.2262
 3938TIP3    H233450   2.592   1.299   2.208  1.9275  0.9028  1.6705
 3939TIP3   OH233451   2.219   1.394   0.488 -0.5160  0.7507 -0.3129
 3939TIP3    H133452   2.146   1.351   0.444  0.3301  1.4679 -2.5706
 3939TIP3    H233453   2.267   1.323   0.530 -1.8490  0.1484  0.2800
 3940TIP3   OH233454   5.484   1.570   2.867  0.4061  0.3039  0.1368
 3940TIP3    H133455   5.455   1.542   2.779 -1.6776  1.2000  0.4673
 3940TIP3    H233456   5.515   1.490   2.908 -0.8095 -0.6011 -0.6265
 3941TIP3   OH233457   5.335   5.949   1.406 -0.1879 -0.1095 -0.2199
 3941TIP3    H133458   5.316   5.901   1.325 -2.4882  0.1948  0.0826
 3941TIP3    H233459   5.421   5.988   1.390  0.5315 -2.0360 -1.5424
 3942TIP3   OH233460   5.003   0.305   7.882  0.2867 -0.5315 -0.5322
 3942TIP3    H133461   5.003   0.209   7.886  0.7855 -0.4879  1.3250
 3942TIP3    H233462   4.914   0.328   7.856 -0.0368 -1.4705 -0.2855
 3943TIP3   OH233463   5.863   1.320   1.097 -0.2023  0.4998 -0.2159
 3943TIP3    H133464   5.892   1.412   1.095  0.3719  0.3508 -2.6182
 3943TIP3    H233465   5.775   1.323   1.061 -0.2359  0.1177 -0.1613
 3944TIP3   OH233466   0.526   5.631   2.307  0.3707 -0.6965  0.5924
 3944TIP3    H133467   0.525   5.726   2.306  0.0318 -0.6953 -0.8309
 3944TIP3    H233468   0.581   5.606   2.232 -0.3041 -1.6109  0.3758
 3945TIP3   OH233469   1.994   3.952   8.127  0.6263 -0.4743  0.2773
 3945TIP3    H133470   1.947   3.960   8.043  0.4454  0.0373  0.4224
 3945TIP3    H233471   1.990   3.859   8.148  1.6929 -0.8071 -0.8672
 3946TIP3   OH233472   2.401   2.920   7.650 -0.1683 -0.8399 -0.4206
 3946TIP3    H133473   2.454   2.849   7.615 -0.2783 -0.2491 -1.8408
 3946TIP3    H233474   2.345   2.877   7.715  0.1736 -1.9417 -0.8236
 3947TIP3   OH233475   2.502   4.128   8.474  0.3714  0.0809 -0.7975
 3947TIP3    H133476   2.417   4.100   8.440  0.0893  0.2615 -0.2466
 3947TIP3    H233477   2.496   4.224   8.477  0.2933  0.0620 -0.0090
 3948TIP3   OH233478   3.726   2.230   8.767 -0.0633  0.1125  0.0810
 3948TIP3    H133479   3.741   2.298   8.832 -0.7256 -0.7273  1.1382
 3948TIP3    H233480   3.789   2.162   8.788 -0.2867 -0.1695 -0.1500
 3949TIP3   OH233481   2.728   6.733   0.328 -0.7266 -0.3793  0.3017
 3949TIP3    H133482   2.754   6.763   0.416  0.5283 -0.7737  0.0886
 3949TIP3    H233483   2.700   6.643   0.342 -1.5888 -0.0913  0.4645
 3950TIP3   OH233484   1.717   2.867   0.484 -0.1312  0.2223 -0.1445
 3950TIP3    H133485   1.668   2.789   0.456  0.5928 -0.5494  0.6898
 3950TIP3    H233486   1.790   2.872   0.422  1.1716 -1.1804  1.1849
 3951TIP3   OH233487   2.187   3.788   1.782  0.4080 -0.2828 -0.2880
 3951TIP3    H133488   2.221   3.732   1.852  2.6782  0.0511 -1.0525
 3951TIP3    H233489   2.103   3.819   1.816  0.7106 -1.3591  1.6194
 3952TIP3   OH233490   5.379   5.754   0.714  0.4679  0.3235  0.2754
 3952TIP3    H133491   5.409   5.726   0.628  2.0274  1.3976  0.4243
 3952TIP3    H233492   5.397   5.679   0.771  1.3070  0.3211  0.0246
 3953TIP3   OH233493   4.531   1.276   1.643  0.2007  0.1037 -0.4252
 3953TIP3    H133494   4.526   1.190   1.685  1.2836  0.6723  0.9138
 3953TIP3    H233495   4.445   1.287   1.601 -0.3308 -1.1708  0.2759
 3954TIP3   OH233496   2.114   5.461   2.429  0.1859 -0.5012  0.4864
 3954TIP3    H133497   2.157   5.437   2.511  2.2715  0.3188 -0.2958
 3954TIP3    H233498   2.025   5.427   2.437  0.3036 -0.3720  3.1082
 3955TIP3   OH233499   4.135   6.120   8.284 -0.0696  0.1041  0.2535
 3955TIP3    H133500   4.041   6.133   8.282  0.0787  1.3718 -2.1884
 3955TIP3    H233501   4.164   6.140   8.195  2.4871 -0.4660  0.8743
 3956TIP3   OH233502   6.703   5.240   7.773 -0.3482  0.0558  0.6962
 3956TIP3    H133503   6.734   5.152   7.753 -1.4200 -0.6906  2.1083
 3956TIP3    H233504   6.663   5.271   7.692 -0.3570 -0.9475  0.3094
 3957TIP3   OH233505   5.115   4.662   1.705 -0.3243 -0.4055 -0.0094
 3957TIP3    H133506   5.090   4.642   1.614  0.6136  0.1629 -0.4066
 3957TIP3    H233507   5.080   4.749   1.721 -0.0232 -0.2818 -0.0127
 3958TIP3   OH233508   4.144   3.295   1.004 -0.0774  0.2934 -0.1931
 3958TIP3    H133509   4.111   3.377   0.968  2.2060  1.8163  0.9262
 3958TIP3    H233510   4.084   3.272   1.075 -0.6798  1.0410 -0.4576
 3959TIP3   OH233511   5.691   5.256   0.786 -0.1622  0.1487 -0.8941
 3959TIP3    H133512   5.728   5.322   0.729  0.3051  0.2157 -0.5174
 3959TIP3    H233513   5.616   5.299   0.827  1.4832  1.2509  1.1190
 3960TIP3   OH233514   4.850   4.867   7.982 -0.3143  0.3598 -0.1542
 3960TIP3    H133515   4.771   4.907   8.020 -1.2997 -0.1535 -1.5543
 3960TIP3    H233516   4.882   4.931   7.920 -0.0599  0.2546 -0.1323
 3961TIP3   OH233517   4.882   6.364   7.743 -0.2643 -0.3960 -0.3783
 3961TIP3    H133518   4.825   6.288   7.756  1.2250 -1.7778 -1.5220
 3961TIP3    H233519   4.918   6.352   7.655  2.2001  0.1383  0.4931
 3962TIP3   OH233520   6.486   1.046   7.802  0.2546 -0.9729 -0.2077
 3962TIP3    H133521   6.455   1.052   7.893  0.2323 -1.8370 -0.1512
 3962TIP3    H233522   6.548   0.973   7.803  0.9810 -0.3754 -0.6881
 3963TIP3   OH233523   3.648   5.160   2.464 -0.4274 -0.6529  0.3143
 3963TIP3    H133524   3.671   5.237   2.412  0.0727 -1.5653 -0.8524
 3963TIP3    H233525   3.588   5.193   2.531  0.0381  0.7986  0.0368
 3964TIP3   OH233526   4.593   1.217   7.932 -0.6658  0.0159  0.3784
 3964TIP3    H133527   4.644   1.257   8.003  0.9670 -0.5242 -0.4352
 3964TIP3    H233528   4.576   1.288   7.871 -2.1745  0.5084  1.3263
 3965TIP3   OH233529   3.932   2.088   8.516  0.2681  0.0249 -0.1292
 3965TIP3    H133530   3.933   2.024   8.446 -2.1977  0.5348 -0.7288
 3965TIP3    H233531   3.923   2.036   8.596  0.1779 -0.4318 -0.4332
 3966TIP3   OH233532   6.189   0.430   0.486 -0.3420  0.0948 -0.5159
 3966TIP3    H133533   6.107   0.460   0.447 -0.0952  0.3008 -0.8805
 3966TIP3    H233534   6.197   0.482   0.566 -0.1530  0.6768 -0.9070
 3967TIP3   OH233535   0.572   5.608   0.011  0.2242 -0.3860 -0.0003
 3967TIP3    H133536   0.539   5.699   0.010  0.2314 -0.3825 -1.0989
 3967TIP3    H233537   0.642   5.609   0.076  0.9870  0.6784 -0.8034
 3968TIP3   OH233538   6.377   1.957   2.719 -0.0915 -0.0368 -0.1645
 3968TIP3    H133539   6.301   1.988   2.769 -0.7623 -0.2730 -1.0054
 3968TIP3    H233540   6.391   2.025   2.653 -0.0675 -0.3685 -0.5063
 3969TIP3   OH233541   6.585   3.626   1.155 -0.4786 -0.2722 -0.5002
 3969TIP3    H133542   6.490   3.623   1.146 -0.7242  2.4802  0.3005
 3969TIP3    H233543   6.618   3.573   1.082 -2.5918 -2.1924 -0.1629
 3970TIP3   OH233544   1.164   2.078   6.569  0.1820  1.0190 -0.5236
 3970TIP3    H133545   1.081   2.033   6.555  0.7575 -0.3148  0.0740
 3970TIP3    H233546   1.170   2.088   6.664  2.2530 -2.2145 -0.1547
 3971TIP3   OH233547   6.091   5.256   1.533 -0.3594  0.3332 -0.2839
 3971TIP3    H133548   6.140   5.174   1.527  0.4348  0.8628 -1.4003
 3971TIP3    H233549   6.095   5.280   1.625 -0.7831 -0.9745  0.1083
 3972TIP3   OH233550   3.744   3.887   0.819 -0.3380 -0.2693 -0.0807
 3972TIP3    H133551   3.799   3.949   0.868  1.2824  0.2503 -2.3597
 3972TIP3    H233552   3.774   3.801   0.849 -0.6297  0.0087  1.0819
 3973TIP3   OH233553   0.019   0.164   2.454 -0.1309 -0.1353  0.2071
 3973TIP3    H133554  -0.061   0.190   2.500 -0.5273 -1.0798  0.0856
 3973TIP3    H233555   0.027   0.225   2.382 -1.7251 -1.0710 -0.8244
 3974TIP3   OH233556   6.123   1.194   1.157 -0.0875 -0.5132 -0.0896
 3974TIP3    H133557   6.188   1.263   1.149  0.6429 -1.3977 -3.0488
 3974TIP3    H233558   6.040   1.237   1.133 -0.3002  0.1223  1.6533
 3975TIP3   OH233559   0.040   0.295   8.382  0.3384 -0.6666 -0.0861
 3975TIP3    H133560   0.026   0.212   8.427 -0.8363  0.0142  0.8767
 3975TIP3    H233561   0.087   0.349   8.446  1.2997 -0.6480 -0.7882
 3976TIP3   OH233562   4.096   4.905   1.827  0.0635 -0.1939 -0.3108
 3976TIP3    H133563   4.048   4.829   1.793 -0.6769  0.0912  0.0804
 3976TIP3    H233564   4.038   4.942   1.894  0.9930 -0.0698  0.4528
 3977TIP3   OH233565   0.599   4.333   2.276 -0.0093 -0.1894 -0.5082
 3977TIP3    H133566   0.609   4.242   2.248 -0.7014 -0.1623 -0.8680
 3977TIP3    H233567   0.540   4.328   2.352  2.2557 -0.3202  1.3613
 3978TIP3   OH233568   3.394   5.233   7.857 -0.1321  0.2166 -0.4869
 3978TIP3    H133569   3.349   5.296   7.914 -2.8117  1.1221 -3.3453
 3978TIP3    H233570   3.364   5.147   7.887  0.0332  0.5194  0.6111
 3979TIP3   OH233571   5.321   3.179   1.717 -0.1385 -0.9172 -0.3819
 3979TIP3    H133572   5.410   3.145   1.724  0.3445  0.0110 -1.5058
 3979TIP3    H233573   5.285   3.137   1.639  0.2107  0.4985 -1.3580
 3980TIP3   OH233574   0.100   6.519   2.409 -0.0532 -0.4056 -0.4814
 3980TIP3    H133575   0.096   6.607   2.447 -0.0574 -1.0905  1.1956
 3980TIP3    H233576   0.173   6.523   2.348 -0.7831  1.0786 -1.3162
 3981TIP3   OH233577   1.824   0.835   0.875 -0.0547  0.0490  0.9540
 3981TIP3    H133578   1.786   0.792   0.799  0.3800  0.4555  0.5027
 3981TIP3    H233579   1.831   0.927   0.850 -0.7950  0.3619  1.8356
 3982TIP3   OH233580   2.085   2.054   2.257  0.4373  0.2157  0.0249
 3982TIP3    H133581   2.077   2.076   2.164 -1.0434  0.0100  0.0798
 3982TIP3    H233582   2.034   2.121   2.302 -1.6052 -1.5027  0.4229
 3983TIP3   OH233583   1.424   3.344   2.015 -0.5274  0.1764 -0.2715
 3983TIP3    H133584   1.498   3.403   1.998 -0.7479  0.5679  0.1034
 3983TIP3    H233585   1.355   3.374   1.955  0.1103 -1.1688 -1.7455
 3984TIP3   OH233586   4.025   0.153   2.882  0.6208  0.0898  0.1927
 3984TIP3    H133587   4.019   0.064   2.848  0.4333  0.3727 -0.5488
 3984TIP3    H233588   4.070   0.144   2.966 -1.5932 -1.0029  1.3611
 3985TIP3   OH233589   5.288   0.766   8.200 -0.1985  0.0673 -0.1904
 3985TIP3    H133590   5.226   0.777   8.272 -1.6098 -1.5530 -1.0735
 3985TIP3    H233591   5.332   0.684   8.218  2.2156  1.4570  0.7120
 3986TIP3   OH233592   4.485   0.515   0.828 -0.2187  0.4299  0.0912
 3986TIP3    H133593   4.452   0.603   0.845 -1.1606  0.4360 -1.6708
 3986TIP3    H233594   4.454   0.493   0.741  2.1577 -0.6511 -0.5775
 3987TIP3   OH233595   5.113   0.265   2.213  0.5207 -0.2263  0.6699
 3987TIP3    H133596   5.035   0.210   2.203 -1.1644  1.7967  1.9139
 3987TIP3    H233597   5.085   0.351   2.182  2.9031  0.1511 -0.6934
 3988TIP3   OH233598   4.970   6.659   8.428 -0.0832  0.3368 -0.1194
 3988TIP3    H133599   5.037   6.601   8.393  0.9474  1.4453 -0.0677
 3988TIP3    H233600   4.902   6.601   8.461  1.1077 -0.8447  0.3298
 3989TIP3   OH233601   6.643   3.120   1.709 -0.2795 -0.0102 -0.1180
 3989TIP3    H133602   6.688   3.145   1.628 -1.0027 -1.9175 -1.1605
 3989TIP3    H233603   6.686   3.173   1.777  1.4514  0.4552 -1.4890
 3990TIP3   OH233604   3.798   4.753   0.290  0.0079  0.0404 -0.0072
 3990TIP3    H133605   3.751   4.820   0.240  1.2708  0.8372 -0.1618
 3990TIP3    H233606   3.765   4.762   0.379 -2.7762 -1.8431 -0.7003
 3991TIP3   OH233607   6.076   1.288   0.617 -0.1496 -0.0462 -0.4945
 3991TIP3    H133608   6.138   1.215   0.617  2.0597  1.7031 -0.4783
 3991TIP3    H233609   6.108   1.346   0.548  0.2547  2.4466  1.6118
 3992TIP3   OH233610   0.976   1.166   2.189 -0.1786  0.3407 -0.9937
 3992TIP3    H133611   0.902   1.146   2.246 -1.1759 -0.7839 -2.6102
 3992TIP3    H233612   0.966   1.259   2.169 -0.7023  0.3786 -0.5653
 3993TIP3   OH233613   0.159   4.414   2.715 -0.1936 -0.2040 -0.0115
 3993TIP3    H133614   0.203   4.417   2.630 -1.1075  0.1355 -0.4903
 3993TIP3    H233615   0.106   4.335   2.712  1.7887 -1.6842  1.3151
 3994TIP3   OH233616   1.339   1.197   1.033 -0.1326  0.3533  0.5819
 3994TIP3    H133617   1.299   1.210   0.947  0.5872 -1.3014 -0.0472
 3994TIP3    H233618   1.347   1.286   1.069 -2.9385  0.8714  0.1405
 3995TIP3   OH233619   1.290   2.231   8.791  0.0365 -0.0158  0.0697
 3995TIP3    H133620   1.288   2.236   8.887  0.6368  1.0916  0.0350
 3995TIP3    H233621   1.204   2.263   8.763  0.4849  1.3237  0.1875
 3996TIP3   OH233622   4.041   0.065   0.657  0.0472 -0.9029  0.3347
 3996TIP3    H133623   4.114   0.035   0.602  0.1244 -1.6313  0.8222
 3996TIP3    H233624   3.963   0.035   0.610  0.0821 -0.6906  0.1402
 3997TIP3   OH233625   2.670   5.545   8.706  0.3693  1.0461 -0.0336
 3997TIP3    H133626   2.634   5.608   8.643  0.9334  0.9664 -0.4457
 3997TIP3    H233627   2.737   5.594   8.754  0.7620  0.7946 -0.3080
 3998TIP3   OH233628   4.950   4.923   1.623  0.3940 -0.1655 -0.5006
 3998TIP3    H133629   4.907   4.890   1.701  1.1262  1.6412  0.7235
 3998TIP3    H233630   4.879   4.957   1.569  0.0661  0.8838  0.5567
 3999TIP3   OH233631   1.323   2.977   1.025  0.7080 -0.6745 -0.4427
 3999TIP3    H133632   1.245   2.939   1.066 -0.2849  1.7258  0.1335
 3999TIP3    H233633   1.367   3.023   1.097 -0.0338  2.0298 -1.5605
 4000TIP3   OH233634   4.501   4.589   8.117 -0.0935  0.1037 -0.2514
 4000TIP3    H133635   4.479   4.496   8.105 -0.2879  0.4073 -2.8163
 4000TIP3    H233636   4.558   4.590   8.193 -0.7644 -2.0148  0.3552
 4001TIP3   OH233637   6.006   6.121   8.552  0.8068 -0.1479 -0.1990
 4001TIP3    H133638   5.915   6.147   8.562  1.1427  1.6404 -1.2434
 4001TIP3    H233639   6.050   6.156   8.630  0.8480  0.3342 -0.4360
 4002TIP3   OH233640   1.071   2.249   8.428  0.1976 -0.0137  0.5903
 4002TIP3    H133641   0.976   2.255   8.415 -0.6474 -2.3790  4.2028
 4002TIP3    H233642   1.086   2.292   8.512  2.6700  1.6219 -0.5803
 4003TIP3   OH233643   6.804   2.062   7.837  0.0710 -0.1494  0.8108
 4003TIP3    H133644   6.877   2.040   7.779  1.4264 -1.4442  2.8580
 4003TIP3    H233645   6.729   2.073   7.778  1.5086 -0.6033 -1.2271
 4004TIP3   OH233646   0.680   5.052   1.888  0.6125 -0.2322 -0.5376
 4004TIP3    H133647   0.660   5.068   1.980 -1.7504  1.2973 -1.2174
 4004TIP3    H233648   0.698   5.139   1.852 -0.2368 -0.5606 -1.8528
 4005TIP3   OH233649   6.416   1.348   0.340  0.1275  0.5551 -0.2298
 4005TIP3    H133650   6.452   1.355   0.251 -1.6812 -0.1495 -1.0658
 4005TIP3    H233651   6.484   1.385   0.396  1.7874  0.0471 -1.7923
 4006TIP3   OH233652   6.445   3.173   0.461  0.1496  0.4187 -0.8180
 4006TIP3    H133653   6.491   3.118   0.398  2.8476  2.5544 -0.9136
 4006TIP3    H233654   6.458   3.129   0.545  2.3464  0.8431 -0.8769
 4007TIP3   OH233655   4.112   2.337   2.271 -0.4374 -0.8764  0.1730
 4007TIP3    H133656   4.172   2.379   2.209 -2.3299  0.4906 -0.8378
 4007TIP3    H233657   4.147   2.249   2.283  1.3003 -0.3905 -0.9996
 4008TIP3   OH233658   3.372   2.818   8.674  0.2583 -0.5818  0.7762
 4008TIP3    H133659   3.284   2.782   8.685 -0.1610  0.1213 -0.2450
 4008TIP3    H233660   3.394   2.801   8.583 -0.1330  2.1147  0.1017
 4009TIP3   OH233661   2.267   2.125   1.344  0.3588 -0.3293  0.2516
 4009TIP3    H133662   2.276   2.194   1.279  0.2784  0.3635  0.9619
 4009TIP3    H233663   2.315   2.050   1.308  0.1127 -0.0303 -0.6985
 4010TIP3   OH233664   0.087   0.258   8.104 -0.4646 -0.6192 -0.4781
 4010TIP3    H133665   0.165   0.203   8.100 -0.0013  0.0387 -0.5963
 4010TIP3    H233666   0.074   0.274   8.198  1.0281  1.3256 -0.5472
 4011TIP3   OH233667   4.302   0.107   0.134  0.0539 -0.6652 -0.4148
 4011TIP3    H133668   4.366   0.080   0.069 -0.0989  1.5452 -1.5931
 4011TIP3    H233669   4.319   0.200   0.147 -0.2780 -0.9177  2.3608
 4012TIP3   OH233670   5.764   2.719   1.111 -0.1290  0.1417  0.2343
 4012TIP3    H133671   5.789   2.695   1.022 -0.3435 -0.9820  0.4660
 4012TIP3    H233672   5.803   2.805   1.125 -1.0593  0.8561 -1.3453
 4013TIP3   OH233673   3.871   0.894   1.953  0.3936 -0.2282  0.0697
 4013TIP3    H133674   3.832   0.877   1.868 -0.1420 -0.0705  0.2780
 4013TIP3    H233675   3.901   0.985   1.948  2.4631 -0.9005 -0.7394
 4014TIP3   OH233676   1.080   3.826   8.661  0.0781 -0.2483 -0.3460
 4014TIP3    H133677   1.159   3.810   8.714  0.0583 -0.7091 -0.4476
 4014TIP3    H233678   1.046   3.909   8.693  1.7400  1.0258 -1.6831
 4015TIP3   OH233679   5.103   3.445   8.678 -0.4610  0.1475 -0.5845
 4015TIP3    H133680   5.163   3.500   8.729 -1.6180  0.0532  0.9267
 4015TIP3    H233681   5.150   3.429   8.596  0.1660  2.9373 -0.8782
 4016TIP3   OH233682   4.256   5.119   1.855 -0.0717  0.3912 -0.3908
 4016TIP3    H133683   4.347   5.093   1.840  0.1616  0.8981  0.0983
 4016TIP3    H233684   4.205   5.040   1.837  0.6078 -0.3834  0.9682
 4017TIP3   OH233685   5.222   6.215   1.786  0.1401  0.1722 -0.3400
 4017TIP3    H133686   5.315   6.240   1.779  0.0981  0.4857  0.1227
 4017TIP3    H233687   5.200   6.179   1.701  0.9769 -0.8821 -0.1362
 4018TIP3   OH233688   4.557   6.237   7.121 -0.3666  0.2439 -0.2445
 4018TIP3    H133689   4.466   6.234   7.150 -0.4045 -1.6945 -0.4584
 4018TIP3    H233690   4.577   6.147   7.095  0.9967  1.0178 -2.0895
 4019TIP3   OH233691   4.484   4.774   0.687  0.3514  1.0396 -0.1673
 4019TIP3    H133692   4.562   4.825   0.709  0.9398  0.7950 -1.5717
 4019TIP3    H233693   4.415   4.840   0.675  0.9334  1.4769 -1.2660
 4020TIP3   OH233694   3.360   2.719   7.321  0.1632  0.1981 -0.3435
 4020TIP3    H133695   3.388   2.802   7.281 -0.0532 -0.4582 -1.9287
 4020TIP3    H233696   3.441   2.681   7.357  0.2946  0.9949  0.2299
 4021TIP3   OH233697   1.570   6.302   0.882  0.6601  0.2627  0.0707
 4021TIP3    H133698   1.538   6.212   0.878  0.0791  0.2070  3.3973
 4021TIP3    H233699   1.665   6.293   0.874  0.5289 -0.4400 -1.0628
 4022TIP3   OH233700   0.556   4.376   0.295 -0.1541 -0.5433  0.0523
 4022TIP3    H133701   0.478   4.351   0.344 -0.9907  1.2523 -0.2980
 4022TIP3    H233702   0.563   4.470   0.308  1.0005 -0.4138 -1.2993
 4023TIP3   OH233703   0.767   1.691   1.505  0.0951  0.3831  0.4534
 4023TIP3    H133704   0.734   1.753   1.570  2.1188  1.0716  0.8874
 4023TIP3    H233705   0.857   1.719   1.489  1.1498 -2.5275  0.7835
 4024TIP3   OH233706   4.042   1.225   0.649  0.2071 -0.4031 -0.2934
 4024TIP3    H133707   4.024   1.198   0.739  2.0100 -1.7787 -0.2801
 4024TIP3    H233708   4.120   1.280   0.656  0.5537 -0.7880 -1.0365
 4025TIP3   OH233709   1.824   1.826   1.544 -0.5811 -0.1591  0.5367
 4025TIP3    H133710   1.822   1.850   1.451 -0.5280 -0.9096  0.3336
 4025TIP3    H233711   1.822   1.910   1.591 -1.1110  0.2109 -0.1348
 4026TIP3   OH233712   5.300   0.162   1.464  0.2650 -0.7305 -0.8484
 4026TIP3    H133713   5.385   0.118   1.461 -0.3961 -2.1748  0.2362
 4026TIP3    H233714   5.304   0.215   1.544  0.2903 -0.4739 -1.0195
 4027TIP3   OH233715   2.246   3.259   0.266  0.3003  0.1641 -0.2477
 4027TIP3    H133716   2.251   3.174   0.308  0.8282 -0.6934 -1.9563
 4027TIP3    H233717   2.160   3.262   0.226 -0.6696  1.4581  1.7516
 4028TIP3   OH233718   3.471   0.417   1.934 -0.3124  0.6267  0.2046
 4028TIP3    H133719   3.376   0.418   1.920 -0.7264 -3.0655  1.6175
 4028TIP3    H233720   3.503   0.349   1.876  1.6565  2.2359 -0.7018
 4029TIP3   OH233721   4.528   6.724   8.691  0.1890  0.1973  0.4056
 4029TIP3    H133722   4.554   6.710   8.600 -0.3025 -0.7085  0.3907
 4029TIP3    H233723   4.579   6.800   8.720 -0.9326  1.5962 -1.1439
 4030TIP3   OH233724   2.813   3.449   8.565  0.2203  0.1634  0.1938
 4030TIP3    H133725   2.830   3.393   8.490 -1.2562 -0.4367  0.2748
 4030TIP3    H233726   2.892   3.441   8.620  1.1795  0.3746 -1.1161
 4031TIP3   OH233727   2.328   2.464   7.507 -0.0407 -0.4704  0.6342
 4031TIP3    H133728   2.235   2.453   7.528 -0.3243 -1.8836 -1.1757
 4031TIP3    H233729   2.332   2.459   7.412  1.7840  0.6568  0.6140
 4032TIP3   OH233730   1.044   3.665   0.209 -0.4448  0.0612  0.2746
 4032TIP3    H133731   1.114   3.635   0.266 -0.7521 -2.5406 -0.5894
 4032TIP3    H233732   0.970   3.684   0.268  0.1440  0.2572  0.9553
 4033TIP3   OH233733   2.326   0.513   6.943 -0.3050  0.0663  0.1441
 4033TIP3    H133734   2.335   0.426   6.904 -0.6380  0.6341 -1.2540
 4033TIP3    H233735   2.398   0.563   6.905  0.3668  0.2209  1.5458
 4034TIP3   OH233736   2.427   5.339   3.029  0.0531 -0.0314 -0.4637
 4034TIP3    H133737   2.383   5.259   3.059 -0.6204  0.3500 -0.4055
 4034TIP3    H233738   2.392   5.354   2.941 -0.6252  0.7681 -0.0676
 4035TIP3   OH233739   2.045   1.769   2.236  0.1958 -0.5646  0.1170
 4035TIP3    H133740   2.042   1.858   2.269 -1.3697 -1.2223  1.9538
 4035TIP3    H233741   2.087   1.719   2.306  0.3183 -1.4042 -0.5390
 4036TIP3   OH233742   6.722   5.459   0.769 -0.5067  0.4987  0.5183
 4036TIP3    H133743   6.803   5.504   0.747 -1.1820  1.4591 -0.0603
 4036TIP3    H233744   6.745   5.366   0.767  0.2885  0.6999 -0.8487
 4037TIP3   OH233745   2.308   0.193   1.765  0.3735  0.5327 -0.0743
 4037TIP3    H133746   2.329   0.160   1.853  0.3206 -0.1712 -0.3231
 4037TIP3    H233747   2.293   0.287   1.778 -0.7270  0.2476  0.8575
 4038TIP3   OH233748   4.035   5.536   1.211 -0.1310 -0.1038  0.4639
 4038TIP3    H133749   4.039   5.603   1.280 -0.4964  1.8080 -1.2873
 4038TIP3    H233750   4.044   5.453   1.258 -1.2633  1.0580  2.9071
 4039TIP3   OH233751   4.098   4.548   1.876 -0.4670  0.2349  0.3138
 4039TIP3    H133752   4.037   4.588   1.814 -0.1215 -1.0840 -0.9115
 4039TIP3    H233753   4.042   4.497   1.935 -0.5674 -1.3309 -1.0768
 4040TIP3   OH233754   4.291   4.734   2.610 -0.2449  0.3237 -0.1259
 4040TIP3    H133755   4.250   4.821   2.609  1.6318  1.2844  0.8315
 4040TIP3    H233756   4.223   4.676   2.644 -1.2390  1.5901  0.1378
 4041TIP3   OH233757   2.919   3.018   0.284  0.0858  0.1174 -0.1373
 4041TIP3    H133758   2.975   2.951   0.244  0.8658  1.7740 -1.9992
 4041TIP3    H233759   2.979   3.070   0.337 -0.5626 -0.7454  1.5160
 4042TIP3   OH233760   1.943   0.301   8.360 -0.3286  0.6952 -0.1943
 4042TIP3    H133761   1.894   0.237   8.308  0.4987  0.1304 -0.2885
 4042TIP3    H233762   1.985   0.249   8.428  1.4649  0.9242 -1.0837
 4043TIP3   OH233763   0.616   2.792   1.243  0.0532  0.0223 -0.2631
 4043TIP3    H133764   0.678   2.741   1.296  0.5255  0.0543 -0.7832
 4043TIP3    H233765   0.658   2.877   1.231 -1.2292  0.9940  1.5803
 4044TIP3   OH233766   6.194   4.060   7.983 -0.8363 -1.2422 -0.5780
 4044TIP3    H133767   6.279   4.097   7.961 -0.9056 -1.1524 -0.6953
 4044TIP3    H233768   6.145   4.131   8.024  0.8025 -2.4442  4.0594
 4045TIP3   OH233769   4.522   4.527   1.896  0.1498  0.2360 -0.3806
 4045TIP3    H133770   4.458   4.484   1.953  1.0780  0.1413  0.6140
 4045TIP3    H233771   4.474   4.599   1.856 -0.4261  0.5421  0.8210
 4046TIP3   OH233772   3.238   0.512   8.572  0.3817 -0.1970  0.3978
 4046TIP3    H133773   3.222   0.499   8.665 -0.7634  2.8787  0.7343
 4046TIP3    H233774   3.313   0.570   8.568  0.7963 -0.7714 -0.6504
 4047TIP3   OH233775   4.952   3.617   0.287 -0.5487 -0.3051 -0.0840
 4047TIP3    H133776   4.951   3.709   0.315  0.2334 -0.3985  0.2956
 4047TIP3    H233777   5.027   3.611   0.227 -2.5076  0.0242 -2.7628
 4048TIP3   OH233778   2.531   5.352   0.549  0.0380 -0.2573 -0.0646
 4048TIP3    H133779   2.468   5.418   0.521  0.9145 -0.3966 -2.6574
 4048TIP3    H233780   2.609   5.402   0.572  0.7494 -0.3128 -2.1646
 4049TIP3   OH233781   3.866   1.091   7.112 -0.6574 -0.4603  0.7177
 4049TIP3    H133782   3.888   1.184   7.109  0.2352 -0.6291  1.2835
 4049TIP3    H233783   3.839   1.069   7.023  0.4229  0.0505  0.2442
 4050TIP3   OH233784   1.055   1.772   8.665  0.5118 -0.9178  0.2951
 4050TIP3    H133785   1.068   1.763   8.571  2.5399  0.3630  0.3689
 4050TIP3    H233786   1.123   1.718   8.704  0.0266 -1.0191  1.0216
 4051TIP3   OH233787   2.041   3.589   0.138 -0.1902 -0.0098 -0.1959
 4051TIP3    H133788   2.131   3.605   0.110 -0.3935  1.5638 -0.0347
 4051TIP3    H233789   2.000   3.548   0.062  0.6881 -0.9262 -0.2036
 4052TIP3   OH233790   5.227   5.896   8.641 -0.6761 -0.0025 -0.8227
 4052TIP3    H133791   5.315   5.895   8.604  0.2721  0.9994  1.2933
 4052TIP3    H233792   5.233   5.842   8.719 -1.9201  0.1466 -0.6069
 4053TIP3   OH233793   5.951   3.055   0.515  0.2852 -0.7026  0.5426
 4053TIP3    H133794   5.876   3.093   0.561 -0.1982  2.0038 -2.1683
 4053TIP3    H233795   5.917   3.032   0.429  2.4120  0.1110 -0.5791
 4054TIP3   OH233796   4.827   2.634   0.112  0.0077 -0.2024 -0.0235
 4054TIP3    H133797   4.892   2.645   0.181 -1.0378 -0.0433  0.9734
 4054TIP3    H233798   4.750   2.683   0.143 -0.7411 -0.7376 -0.9517
 4055TIP3   OH233799   1.086   2.301   2.224 -0.2018 -0.4209 -0.0434
 4055TIP3    H133800   1.142   2.224   2.213  1.3342  0.7699 -1.0584
 4055TIP3    H233801   1.133   2.355   2.288 -1.9992 -0.9242  1.7908
 4056TIP3   OH233802   1.856   1.453   0.559  0.2575  0.2592  0.2652
 4056TIP3    H133803   1.830   1.506   0.484  1.8249  1.9674  0.8569
 4056TIP3    H233804   1.885   1.370   0.520 -1.6331  0.0052 -0.7316
 4057TIP3   OH233805   5.549   5.597   0.407 -0.2177  0.2054 -0.9043
 4057TIP3    H133806   5.502   5.538   0.466  0.5396  1.9671  1.6520
 4057TIP3    H233807   5.491   5.673   0.398  0.5580  0.8398 -0.6750
 4058TIP3   OH233808   6.217   4.637   8.022 -0.1744  0.5714  0.0089
 4058TIP3    H133809   6.271   4.593   7.957 -2.1585  0.0731 -1.3791
 4058TIP3    H233810   6.228   4.731   8.003 -0.6682  0.4322 -1.0127
 4059TIP3   OH233811   6.316   3.830   1.568  0.1969  0.0603  0.6694
 4059TIP3    H133812   6.327   3.885   1.646 -1.1260  0.3270  0.6743
 4059TIP3    H233813   6.284   3.889   1.501  2.8467  0.1979 -0.6252
 4060TIP3   OH233814   3.297   2.969   1.334  0.2199  0.3418  0.2592
 4060TIP3    H133815   3.247   3.025   1.274 -0.7274 -0.6506  0.0850
 4060TIP3    H233816   3.364   2.928   1.278 -0.0599  0.1403  0.0688
 4061TIP3   OH233817   0.896   2.872   2.805 -0.2198 -0.6001  0.1598
 4061TIP3    H133818   0.920   2.941   2.742  0.1685 -0.7875  0.1014
 4061TIP3    H233819   0.807   2.895   2.832  0.1268  0.2554  0.5881
 4062TIP3   OH233820   4.011   2.805   0.384 -0.0528  0.6036 -0.1364
 4062TIP3    H133821   3.926   2.769   0.410  0.6527 -1.3120 -0.3737
 4062TIP3    H233822   4.075   2.749   0.426  1.1057  0.9483 -1.3826
 4063TIP3   OH233823   5.800   0.847   1.132  0.4807 -0.2494 -0.3214
 4063TIP3    H133824   5.704   0.840   1.131  0.4937 -0.3567 -1.0150
 4063TIP3    H233825   5.819   0.897   1.212 -0.3176  2.3099 -1.6287
 4064TIP3   OH233826   3.200   5.785   2.426  0.0297 -0.4497  0.2025
 4064TIP3    H133827   3.203   5.744   2.512  0.7857  0.3002  0.5534
 4064TIP3    H233828   3.234   5.719   2.366  2.6534  0.0873  0.9656
 4065TIP3   OH233829   1.541   6.059   8.163  0.1954 -0.2245 -0.4998
 4065TIP3    H133830   1.478   6.016   8.105  1.3114 -2.4056 -0.2090
 4065TIP3    H233831   1.490   6.125   8.209 -1.2712 -0.1148 -2.1708
 4066TIP3   OH233832   0.310   2.289   7.826  0.2464 -0.0977  0.1072
 4066TIP3    H133833   0.268   2.217   7.779  0.1144 -0.8624  1.3496
 4066TIP3    H233834   0.239   2.327   7.879  0.7943 -0.5162  1.1673
 4067TIP3   OH233835   1.933   2.924   0.998  0.1437  0.9680  0.0931
 4067TIP3    H133836   1.989   2.944   1.073  1.5632  0.6550 -0.8382
 4067TIP3    H233837   1.993   2.894   0.930 -1.1334  0.9320 -1.0804
 4068TIP3   OH233838   6.051   6.271   0.163 -0.2994 -0.3166  0.4016
 4068TIP3    H133839   5.969   6.318   0.180  0.2244  1.0183 -0.5381
 4068TIP3    H233840   6.026   6.179   0.162 -2.0527  0.1021 -0.9754
 4069TIP3   OH233841   1.181   2.558   8.213 -0.2670  0.5689 -0.1612
 4069TIP3    H133842   1.183   2.488   8.148 -1.8945  0.7415 -0.4324
 4069TIP3    H233843   1.273   2.579   8.228  0.3841 -2.3981  0.7799
 4070TIP3   OH233844   5.399   4.272   7.577  0.3210  0.4011 -0.0010
 4070TIP3    H133845   5.462   4.202   7.594  0.0968 -0.4298 -2.2489
 4070TIP3    H233846   5.383   4.267   7.483 -1.1021  2.3175  0.0896
 4071TIP3   OH233847   4.090   2.602   2.008  0.8059 -0.3506  0.8661
 4071TIP3    H133848   4.114   2.554   1.929  1.5561  0.4652  0.5898
 4071TIP3    H233849   4.035   2.540   2.057 -1.0613 -0.3071 -1.0409
 4072TIP3   OH233850   3.418   5.980   7.961  0.1879 -0.3949  0.1507
 4072TIP3    H133851   3.344   5.974   7.900  0.6792  0.9565 -0.6332
 4072TIP3    H233852   3.484   5.922   7.925  0.1121 -0.3467 -0.0680
 4073TIP3   OH233853   0.459   4.765   8.716 -0.1527 -0.1165  0.3738
 4073TIP3    H133854   0.455   4.846   8.666  1.4362 -0.8169 -1.0026
 4073TIP3    H233855   0.370   4.731   8.714 -0.6122  1.0584  0.0575
 4074TIP3   OH233856   1.207   2.597   3.061  0.3116  0.1869  0.1643
 4074TIP3    H133857   1.287   2.551   3.035  0.1777 -0.0772  0.2133
 4074TIP3    H233858   1.150   2.527   3.093 -0.7863  0.0675 -1.8978
 4075TIP3   OH233859   0.821   0.548   1.410 -0.7982 -0.3744  0.3607
 4075TIP3    H133860   0.835   0.459   1.444 -0.1745 -0.4289 -0.0185
 4075TIP3    H233861   0.736   0.574   1.445 -0.2310 -0.4614  1.8980
 4076TIP3   OH233862   3.321   6.744   8.420 -0.1736 -0.0432  0.1491
 4076TIP3    H133863   3.400   6.696   8.446 -0.5109 -0.1202  1.0606
 4076TIP3    H233864   3.293   6.701   8.339  1.1653  0.5081 -0.6401
 4077TIP3   OH233865   5.715   6.552   2.107  0.2167  0.0562 -0.3575
 4077TIP3    H133866   5.797   6.504   2.101  0.0171 -0.2726 -0.4527
 4077TIP3    H233867   5.669   6.513   2.181 -1.0754 -1.6665 -1.9770
 4078TIP3   OH233868   5.679   5.719   7.790 -0.4523 -0.3304  0.0425
 4078TIP3    H133869   5.685   5.656   7.718 -1.3641 -0.1401 -0.2142
 4078TIP3    H233870   5.630   5.673   7.858  1.6693 -1.0549  1.1832
 4079TIP3   OH233871   3.650   2.722   7.130  0.1155 -0.2318 -0.7535
 4079TIP3    H133872   3.591   2.798   7.132 -0.2340 -0.4830 -1.3664
 4079TIP3    H233873   3.733   2.756   7.163 -0.0407  0.4200 -1.0111
 4080TIP3   OH233874   5.742   1.117   2.990 -0.3778  0.2952 -0.0915
 4080TIP3    H133875   5.830   1.106   3.026 -0.2437  0.6059 -0.3204
 4080TIP3    H233876   5.741   1.062   2.912  0.3708  1.9984 -1.3696
 4081TIP3   OH233877   2.751   6.743   1.932  0.0560  0.1177  0.3997
 4081TIP3    H133878   2.780   6.679   1.997  0.6581  0.8464  0.8722
 4081TIP3    H233879   2.669   6.777   1.968  0.1964  0.2498  0.5999
 4082TIP3   OH233880   0.448   2.912   0.875 -0.1746 -0.4259  0.1920
 4082TIP3    H133881   0.428   2.970   0.949 -1.7634 -1.3614  0.5612
 4082TIP3    H233882   0.388   2.940   0.806 -0.3534 -1.0605  0.0817
 4083TIP3   OH233883   4.657   6.670   7.824  0.1586  0.1515 -0.4948
 4083TIP3    H133884   4.588   6.718   7.778 -2.1962 -0.7361  1.8636
 4083TIP3    H233885   4.657   6.707   7.912 -0.5238 -2.9078  0.8947
 4084TIP3   OH233886   4.648   2.215   0.270  0.3936 -0.1064 -0.3995
 4084TIP3    H133887   4.596   2.137   0.256  0.6369 -0.2020 -0.8050
 4084TIP3    H233888   4.736   2.192   0.238  0.1105  0.8011 -1.9812
 4085TIP3   OH233889   2.606   3.434   2.229  0.3640 -0.0839  0.2241
 4085TIP3    H133890   2.604   3.342   2.252 -1.4631 -0.6896 -1.9838
 4085TIP3    H233891   2.648   3.477   2.304  1.1114 -2.6501  1.3716
 4086TIP3   OH233892   1.033   1.104   7.504  0.0499 -0.0472  0.5320
 4086TIP3    H133893   1.073   1.181   7.464 -1.4333  0.0456 -0.8650
 4086TIP3    H233894   0.954   1.137   7.547 -0.1285 -0.6485  0.6728
 4087TIP3   OH233895   0.399   0.008   7.425  0.3512 -0.6639  0.1810
 4087TIP3    H133896   0.369   0.025   7.336  0.0757 -0.4841  0.3068
 4087TIP3    H233897   0.320   0.013   7.479  0.7159  0.7423  0.6464
 4088TIP3   OH233898   2.824   5.955   7.009  0.2159  0.3108 -0.4798
 4088TIP3    H133899   2.817   5.980   7.101  1.0906  1.3704 -0.6836
 4088TIP3    H233900   2.912   5.918   7.001  0.3225  0.6693 -0.9908
 4089TIP3   OH233901   5.062   1.123   1.602 -0.0964  0.3873  0.0502
 4089TIP3    H133902   5.050   1.213   1.633  1.5724 -0.2989  2.9884
 4089TIP3    H233903   5.039   1.069   1.677  2.2687 -1.4921 -0.4682
 4090TIP3   OH233904   5.866   3.791   0.560  0.2712  0.2565  0.0457
 4090TIP3    H133905   5.884   3.811   0.468  0.2525  0.6926  0.1328
 4090TIP3    H233906   5.792   3.731   0.557 -0.7868  1.5255 -0.1851
 4091TIP3   OH233907   3.473   0.710   8.014  0.6165  0.1211 -0.4030
 4091TIP3    H133908   3.472   0.614   8.022 -0.2519  0.1176 -0.4145
 4091TIP3    H233909   3.503   0.741   8.099 -1.6156 -0.1162  0.5491
 4092TIP3   OH233910   4.213   3.780   2.026 -0.4988 -0.0329 -0.0836
 4092TIP3    H133911   4.295   3.762   1.980 -0.6922 -0.7671 -0.1614
 4092TIP3    H233912   4.149   3.796   1.957 -0.8409 -1.3601 -0.1087
 4093TIP3   OH233913   1.684   4.530   8.264 -0.0883  0.3274 -0.3247
 4093TIP3    H133914   1.726   4.489   8.188 -1.6259  0.6800 -1.4190
 4093TIP3    H233915   1.731   4.494   8.339  3.0312  1.6933 -1.4491
 4094TIP3   OH233916   0.442   2.885   0.228  0.5019 -0.2928 -0.1214
 4094TIP3    H133917   0.510   2.843   0.280  1.2362  1.4522  0.3915
 4094TIP3    H233918   0.380   2.920   0.293 -0.0656 -0.5301 -0.5260
 4095TIP3   OH233919   3.849   1.924   2.019 -0.4052 -0.4747 -0.8093
 4095TIP3    H133920   3.813   1.893   1.936 -0.8794  0.8081 -1.1110
 4095TIP3    H233921   3.773   1.936   2.075 -0.1805 -0.3988 -0.5171
 4096TIP3   OH233922   4.293   2.790   7.686 -0.7351 -0.0914 -0.1808
 4096TIP3    H133923   4.305   2.882   7.713 -0.3124 -0.1499 -0.1654
 4096TIP3    H233924   4.356   2.742   7.738 -0.2926 -0.2786 -0.8827
 4097TIP3   OH233925   0.564   3.903   6.885  0.1551  0.4837 -0.6494
 4097TIP3    H133926   0.598   3.922   6.973 -1.1604  0.4814 -0.1203
 4097TIP3    H233927   0.630   3.940   6.826  1.9684 -1.0578  0.2779
 4098TIP3   OH233928   1.978   1.342   0.814 -0.0038 -0.3204  0.4583
 4098TIP3    H133929   1.939   1.256   0.832  0.1806 -0.1886  1.6076
 4098TIP3    H233930   1.912   1.388   0.763  0.3134 -1.4879 -1.0571
 4099TIP3   OH233931   1.829   2.108   1.622  0.3523  0.2619  0.3002
 4099TIP3    H133932   1.774   2.137   1.695  0.9913  0.4763  0.7009
 4099TIP3    H233933   1.778   2.128   1.544  0.3249  1.4710  0.6179
 4100TIP3   OH233934   1.810   5.871   0.663  0.3560 -0.0909 -0.3288
 4100TIP3    H133935   1.740   5.853   0.727  0.2934 -1.2715 -0.7037
 4100TIP3    H233936   1.869   5.930   0.709 -1.2570  1.5743 -0.2649
 4101TIP3   OH233937   0.664   3.233   2.251  0.3067 -0.1305  0.3916
 4101TIP3    H133938   0.653   3.240   2.346  2.9052  0.0173  0.7570
 4101TIP3    H233939   0.668   3.324   2.221 -1.9148 -0.1445 -0.1346
 4102TIP3   OH233940   3.571   0.396   7.470  0.3021 -0.6077  0.4352
 4102TIP3    H133941   3.575   0.434   7.558  0.3477 -0.7283  0.4848
 4102TIP3    H233942   3.550   0.470   7.413  0.0672 -0.5660  0.5729
 4103TIP3   OH233943   2.764   0.592   8.211 -0.7444 -0.8549 -0.2249
 4103TIP3    H133944   2.838   0.556   8.260 -1.3858 -0.3204  1.1819
 4103TIP3    H233945   2.756   0.682   8.240 -0.9689 -0.4111 -1.5687
 4104TIP3   OH233946   0.219   4.789   8.040  0.1016  0.5354  0.0651
 4104TIP3    H133947   0.216   4.761   8.131  1.3867 -0.6041 -0.2130
 4104TIP3    H233948   0.170   4.871   8.038 -1.1797 -0.1560  1.4921
 4105TIP3   OH233949   4.749   3.790   8.817  0.0111 -0.2576  0.0695
 4105TIP3    H133950   4.832   3.837   8.808 -0.0256  0.1740  1.6322
 4105TIP3    H233951   4.745   3.767   8.910 -2.2487  0.9388  0.3345
 4106TIP3   OH233952   4.229   2.654   0.447 -0.7670 -0.5709 -1.5043
 4106TIP3    H133953   4.307   2.608   0.415 -1.0426 -1.6515 -0.6901
 4106TIP3    H233954   4.249   2.673   0.539 -1.6684 -1.3597 -1.1290
 4107TIP3   OH233955   5.761   0.100   1.192 -0.2940  0.7679 -0.1227
 4107TIP3    H133956   5.807   0.182   1.212  0.6018  0.4492 -0.7967
 4107TIP3    H233957   5.748   0.103   1.097  0.4462 -0.2088 -0.2722
 4108TIP3   OH233958   5.138   5.191   6.923 -0.0301 -0.1455  0.8562
 4108TIP3    H133959   5.122   5.274   6.966  2.8341  0.7227  0.4312
 4108TIP3    H233960   5.063   5.180   6.864  0.2721  2.9703 -0.2811
 4109TIP3   OH233961   4.448   0.873   0.624 -0.1604  0.2548  0.6269
 4109TIP3    H133962   4.511   0.817   0.578 -0.7972  0.9327 -1.1583
 4109TIP3    H233963   4.407   0.815   0.689  0.8897 -0.6976  0.4648
 4110TIP3   OH233964   4.131   2.701   1.687 -0.1243  0.6012 -0.7291
 4110TIP3    H133965   4.036   2.695   1.699 -0.0712  1.6287  0.3564
 4110TIP3    H233966   4.153   2.789   1.714  1.4641 -0.3743  1.3911
 4111TIP3   OH233967   4.235   4.387   1.388  0.3696 -0.0679  0.4750
 4111TIP3    H133968   4.284   4.386   1.305 -0.1160  0.3638  0.1778
 4111TIP3    H233969   4.157   4.439   1.369  1.0063  1.3953  1.6233
 4112TIP3   OH233970   5.807   3.983   1.901 -0.2260  0.0791 -0.3423
 4112TIP3    H133971   5.742   3.918   1.872  1.5114 -1.6874 -0.4845
 4112TIP3    H233972   5.811   3.970   1.996 -1.1735  1.3115 -0.0987
 4113TIP3   OH233973   5.354   6.785   7.910  0.0609  0.0163 -0.9518
 4113TIP3    H133974   5.380   6.784   8.002 -1.2424  0.6893 -0.5526
 4113TIP3    H233975   5.424   6.833   7.866  0.2211  0.5450 -0.1491
 4114TIP3   OH233976   5.435   4.107   8.187  0.6099 -0.2163  0.1853
 4114TIP3    H133977   5.444   4.128   8.094 -0.3567 -0.0421  0.1188
 4114TIP3    H233978   5.524   4.089   8.216  0.9169 -0.3518 -0.7924
 4115TIP3   OH233979   5.720   3.731   1.933 -0.9867  0.0565  0.1184
 4115TIP3    H133980   5.657   3.681   1.883 -0.1009 -3.6481  2.3329
 4115TIP3    H233981   5.805   3.704   1.899 -0.4741  1.2729  0.3660
 4116TIP3   OH233982   6.223   2.823   2.574 -0.2281 -0.1857  0.3285
 4116TIP3    H133983   6.265   2.779   2.501 -0.7010 -0.2564  0.0960
 4116TIP3    H233984   6.189   2.752   2.628  1.2384 -0.1912  1.3147
 4117TIP3   OH233985   5.169   1.965   0.498  0.0310 -0.2261  0.0901
 4117TIP3    H133986   5.124   1.915   0.567 -0.7821 -0.5007 -0.6149
 4117TIP3    H233987   5.115   1.951   0.420  1.6635 -1.0374 -0.9373
 4118TIP3   OH233988   4.070   4.496   3.008 -0.4902 -0.2780 -0.0465
 4118TIP3    H133989   4.104   4.423   3.059 -0.6267 -0.3006  0.0130
 4118TIP3    H233990   3.975   4.484   3.010 -0.5983  0.5861  1.0029
 4119TIP3   OH233991   2.712   6.184   7.539  0.2091 -0.4091 -0.1679
 4119TIP3    H133992   2.674   6.104   7.575  0.3631 -0.3132  0.2153
 4119TIP3    H233993   2.638   6.244   7.530 -0.0455 -0.8669 -1.2326
 4120TIP3   OH233994   6.475   6.838   8.094 -0.3508  0.0319 -0.2524
 4120TIP3    H133995   6.529   6.856   8.017 -0.8394  1.2341 -0.3400
 4120TIP3    H233996   6.393   6.804   8.058 -0.9099  1.4228 -0.3362
 4121TIP3   OH233997   4.745   5.990   2.210 -0.0494  0.4318 -0.5212
 4121TIP3    H133998   4.742   5.957   2.120  0.7684  0.5527 -0.6071
 4121TIP3    H233999   4.660   6.032   2.223 -0.2063  0.3533 -1.2157
 4122TIP3   OH234000   5.186   3.397   8.406  0.1546 -0.0787  0.0888
 4122TIP3    H134001   5.153   3.436   8.325 -0.3570 -1.4449 -0.3895
 4122TIP3    H234002   5.270   3.358   8.381  0.2937  0.0294  0.3812
 4123TIP3   OH234003   0.322   4.158   1.747 -0.6019  0.0184 -0.4208
 4123TIP3    H134004   0.268   4.127   1.819  0.5135 -0.4932  0.2195
 4123TIP3    H234005   0.319   4.087   1.682  1.2425 -1.1368  0.6701
 4124TIP3   OH234006   4.500   6.036   7.742  0.1840  0.1530 -0.1109
 4124TIP3    H134007   4.552   6.039   7.822  1.7273 -0.3425 -1.0562
 4124TIP3    H234008   4.508   5.946   7.712  0.5078  0.5864 -1.3768
 4125TIP3   OH234009   3.992   6.506   2.185  0.5303 -0.2140 -0.0383
 4125TIP3    H134010   4.028   6.419   2.203 -0.9570 -0.8955 -0.1961
 4125TIP3    H234011   4.000   6.553   2.268  0.2278 -0.9281  0.4009
 4126TIP3   OH234012   0.657   3.923   8.357 -0.5081 -0.5694 -0.2421
 4126TIP3    H134013   0.751   3.908   8.350 -0.2451 -0.2067  1.7307
 4126TIP3    H234014   0.647   4.018   8.355 -0.4441 -0.4278  2.4951
 4127TIP3   OH234015   5.342   0.508   8.239 -0.2318 -0.0274  0.0595
 4127TIP3    H134016   5.427   0.463   8.233  0.7222  1.6947  0.1647
 4127TIP3    H234017   5.284   0.456   8.183  0.6203 -1.7809  0.7240
 4128TIP3   OH234018   4.121   0.782   6.988  0.1635  0.1856 -0.1339
 4128TIP3    H134019   4.167   0.700   6.969  1.3467  0.9570 -0.7394
 4128TIP3    H234020   4.181   0.830   7.045 -0.2460  0.8818 -0.2755
 4129TIP3   OH234021   5.698   1.911   0.567 -0.6009  0.6829 -0.0560
 4129TIP3    H134022   5.655   1.857   0.633  1.1695 -0.2923  0.3405
 4129TIP3    H234023   5.664   1.999   0.583 -1.1719  0.2444  1.3121
 4130TIP3   OH234024   0.949   2.879   8.082  0.3576  0.1212 -0.2587
 4130TIP3    H134025   0.981   2.832   8.005 -2.0817  0.8664 -1.8535
 4130TIP3    H234026   0.918   2.811   8.142 -1.6880 -0.4631 -1.8643
 4131TIP3   OH234027   2.767   0.282   7.692 -0.4045  0.6630  0.1849
 4131TIP3    H134028   2.736   0.361   7.649  0.6680  1.6161  1.0893
 4131TIP3    H234029   2.857   0.302   7.717  0.2254 -1.2145 -0.4495
 4132TIP3   OH234030   0.843   2.512   1.727 -0.3846 -0.0548  0.6806
 4132TIP3    H134031   0.928   2.511   1.769  0.3675 -0.9229 -0.7776
 4132TIP3    H234032   0.793   2.577   1.775  1.5985  1.6293  0.5805
 4133TIP3   OH234033   4.560   2.787   1.018 -0.3326  0.3952  0.4761
 4133TIP3    H134034   4.629   2.823   1.072  0.0676  1.0124 -0.4166
 4133TIP3    H234035   4.480   2.798   1.070  0.1652  0.0566  1.3352
 4134TIP3   OH234036   1.573   5.594   8.040  0.3080 -0.6313  0.1499
 4134TIP3    H134037   1.605   5.509   8.010 -1.1216 -1.5152  1.0309
 4134TIP3    H234038   1.653   5.645   8.056  1.3646 -2.7886  2.4402
 4135TIP3   OH234039   2.050   5.705   8.321  0.1597 -0.2087 -0.4067
 4135TIP3    H134040   2.029   5.747   8.238  0.4209  0.1935 -0.2665
 4135TIP3    H234041   2.047   5.775   8.385  1.7351 -0.1807 -0.3447
 4136TIP3   OH234042   3.242   6.236   2.242  0.2842  0.5351  0.0784
 4136TIP3    H134043   3.318   6.270   2.194  0.8869  0.1166  0.7247
 4136TIP3    H234044   3.168   6.281   2.202  0.9558  1.7450  0.1294
 4137TIP3   OH234045   5.113   2.130   2.715 -0.2835 -0.1737 -0.4144
 4137TIP3    H134046   5.036   2.177   2.746 -0.0178 -0.9681  1.5720
 4137TIP3    H234047   5.128   2.061   2.780  1.9832 -0.1800 -0.8453
 4138TIP3   OH234048   4.295   0.309   8.235  0.2321 -0.0230  0.1370
 4138TIP3    H134049   4.345   0.332   8.312 -0.1037 -0.4371  0.4853
 4138TIP3    H234050   4.308   0.382   8.174  0.5515  0.2684  0.5548
 4139TIP3   OH234051   1.028   1.594   1.310 -0.0245  0.4102  0.7475
 4139TIP3    H134052   1.038   1.685   1.284  0.4506  0.3149  0.5891
 4139TIP3    H234053   1.089   1.582   1.383 -0.8471  0.4918  1.4710
 4140TIP3   OH234054   1.607   5.798   2.207  0.6776  0.1233 -0.2037
 4140TIP3    H134055   1.682   5.766   2.258  0.7808  0.8049  0.0810
 4140TIP3    H234056   1.586   5.883   2.246 -1.3057 -0.7634  0.8400
 4141TIP3   OH234057   2.153   4.878   8.420  0.8318  0.0667  0.4589
 4141TIP3    H134058   2.181   4.826   8.345 -0.0919 -0.7811  0.6797
 4141TIP3    H234059   2.063   4.851   8.436  1.1260 -0.0763  2.1257
 4142TIP3   OH234060   3.894   4.187   1.400  0.1301  0.3871  0.1560
 4142TIP3    H134061   3.863   4.276   1.413 -0.9563  0.0354  0.0210
 4142TIP3    H234062   3.815   4.134   1.392  0.7461 -0.7200  1.0495
 4143TIP3   OH234063   1.618   2.513   1.761 -0.1855 -0.3836  0.3513
 4143TIP3    H134064   1.680   2.507   1.834  0.9591 -0.8568 -0.6158
 4143TIP3    H234065   1.670   2.552   1.690 -1.7880  1.8977  0.3262
 4144TIP3   OH234066   4.942   1.684   8.287 -0.1717  0.4271  0.1475
 4144TIP3    H134067   4.942   1.625   8.362  1.5084  2.2314  1.6952
 4144TIP3    H234068   4.980   1.633   8.216 -2.8669 -1.7053  0.0856
 4145TIP3   OH234069   1.236   6.354   1.982  0.0545 -0.3320 -0.3426
 4145TIP3    H134070   1.331   6.342   1.973  0.2485  2.2249 -3.6413
 4145TIP3    H234071   1.200   6.316   1.903 -1.7339 -1.1049  0.7914
 4146TIP3   OH234072   4.750   5.388   7.737  0.2920  0.4817  0.7992
 4146TIP3    H134073   4.672   5.422   7.693  0.5125  1.6943  1.3038
 4146TIP3    H234074   4.823   5.420   7.684  0.6041  2.5710  2.3464
 4147TIP3   OH234075   0.718   6.501   8.123  0.0294 -0.1404  0.1297
 4147TIP3    H134076   0.788   6.565   8.132 -0.8482  0.8304  0.2016
 4147TIP3    H234077   0.704   6.493   8.028 -1.1771  1.2794  0.1514
 4148TIP3   OH234078   1.263   0.899   1.737  0.2640 -0.0707  0.3334
 4148TIP3    H134079   1.359   0.903   1.735  0.3558 -1.9965 -1.4007
 4148TIP3    H234080   1.243   0.843   1.813  0.3899  1.4787  1.5723
 4149TIP3   OH234081   1.283   5.223   0.440  0.1849  0.4370  0.4709
 4149TIP3    H134082   1.250   5.153   0.383 -1.6430  2.1064 -0.6522
 4149TIP3    H234083   1.311   5.178   0.519 -0.2735 -1.6366 -0.4643
 4150TIP3   OH234084   6.805   6.076   2.014  0.3981  0.4133  0.0469
 4150TIP3    H134085   6.870   6.109   1.952 -0.5322  0.4746 -0.9284
 4150TIP3    H234086   6.772   6.154   2.058  0.6934  0.4219  0.2550
 4151TIP3   OH234087   4.970   3.449   1.646 -0.2204  0.6383  0.4350
 4151TIP3    H134088   5.044   3.417   1.595 -1.1563  1.0707 -1.2454
 4151TIP3    H234089   4.939   3.372   1.694 -1.1394 -0.5344 -1.9129
 4152TIP3   OH234090   3.652   4.247   2.706  0.3104  0.3643 -0.6267
 4152TIP3    H134091   3.619   4.206   2.785  0.6826  0.7248 -0.2760
 4152TIP3    H234092   3.668   4.175   2.645  2.8030 -0.2443  0.6427
 4153TIP3   OH234093   2.971   4.671   8.058 -0.5240  0.7177  0.2726
 4153TIP3    H134094   3.003   4.588   8.094 -0.3259  1.2448  1.3524
 4153TIP3    H234095   2.902   4.698   8.118  1.3749  2.7799  1.7025
 4154TIP3   OH234096   6.273   1.474   8.278  0.0805  0.2102  0.0591
 4154TIP3    H134097   6.315   1.461   8.363  1.1544 -1.2781 -0.6613
 4154TIP3    H234098   6.278   1.569   8.264  2.6325  0.1868  0.3246
 4155TIP3   OH234099   4.853   6.545   1.297 -0.0682  0.9152 -0.0718
 4155TIP3    H134100   4.880   6.456   1.276 -0.1670  1.1874 -1.4267
 4155TIP3    H234101   4.934   6.596   1.293  0.0326  0.8685  0.9531
 4156TIP3   OH234102   3.166   5.407   7.207  0.6327 -0.0848 -0.3655
 4156TIP3    H134103   3.132   5.400   7.118  0.5519 -1.2084 -0.2631
 4156TIP3    H234104   3.219   5.328   7.219 -0.4750 -0.6783  1.0486
 4157TIP3   OH234105   4.714   1.232   8.616 -0.1462  0.5531  0.3667
 4157TIP3    H134106   4.652   1.254   8.547 -0.6838 -1.7897  0.0303
 4157TIP3    H234107   4.775   1.170   8.576  1.4894  1.5842  1.1436
 4158TIP3   OH234108   6.544   4.415   3.331 -0.8732  0.2834 -0.2802
 4158TIP3    H134109   6.452   4.431   3.352 -1.1679  0.6134 -1.7524
 4158TIP3    H234110   6.584   4.502   3.330 -0.6706  0.1921 -0.2466
 4159TIP3   OH234111   4.423   3.645   0.210  0.3509  0.4093 -0.4909
 4159TIP3    H134112   4.402   3.736   0.231  1.5337  0.7619 -0.7269
 4159TIP3    H234113   4.464   3.649   0.123 -1.3564 -0.6073 -1.3999
 4160TIP3   OH234114   1.396   1.621   8.299 -0.2076  0.7261  0.2122
 4160TIP3    H134115   1.461   1.691   8.294  0.1331  0.3334 -1.2749
 4160TIP3    H234116   1.331   1.642   8.233 -0.0896 -0.3379 -0.2774
 4161TIP3   OH234117   0.526   4.012   1.554 -0.4299 -0.4058  0.3202
 4161TIP3    H134118   0.567   4.003   1.641  2.0142 -0.5129 -0.7521
 4161TIP3    H234119   0.553   4.099   1.524  1.1438 -1.4074 -1.4003
 4162TIP3   OH234120   5.858   0.265   7.860  0.2227  0.4258  0.8309
 4162TIP3    H134121   5.937   0.265   7.806  1.3397  0.9249  2.3911
 4162TIP3    H234122   5.846   0.357   7.884 -0.1992  0.2047  1.4803
 4163TIP3   OH234123   4.037   4.662   1.361  0.4612 -0.1020  0.1123
 4163TIP3    H134124   3.994   4.746   1.378  0.4354  0.4270 -2.1809
 4163TIP3    H234125   4.126   4.673   1.394  1.4044  2.0172 -2.7263
 4164TIP3   OH234126   3.146   3.195   7.377 -0.0772 -0.1671  0.5009
 4164TIP3    H134127   3.056   3.211   7.350  0.3913  2.2556  0.2076
 4164TIP3    H234128   3.189   3.161   7.299 -0.7031 -1.3934  0.6584
 4165TIP3   OH234129   3.886   1.148   7.452  0.1244 -0.5769  0.1746
 4165TIP3    H134130   3.856   1.100   7.530 -2.2345 -0.7638 -0.7621
 4165TIP3    H234131   3.807   1.159   7.400  1.1762  1.7953 -1.0322
 4166TIP3   OH234132   2.305   5.617   1.900 -0.1674 -0.1117 -0.9632
 4166TIP3    H134133   2.370   5.669   1.947 -0.6415 -0.4264  0.0547
 4166TIP3    H234134   2.239   5.680   1.872  0.1135  0.0724 -1.2246
 4167TIP3   OH234135   4.692   4.643   0.108 -0.6052 -0.0540  1.0346
 4167TIP3    H134136   4.759   4.642   0.176 -0.4033  1.0282  0.8718
 4167TIP3    H234137   4.611   4.665   0.155 -0.4380  0.8467  0.9116
 4168TIP3   OH234138   4.734   0.967   7.422 -0.0951 -1.2595  0.1011
 4168TIP3    H134139   4.689   0.962   7.337 -0.4314 -1.5551  0.2918
 4168TIP3    H234140   4.663   0.964   7.486  0.1067 -0.3522  0.3883
 4169TIP3   OH234141   2.962   5.358   1.468 -0.2169 -0.1925  0.3154
 4169TIP3    H134142   2.944   5.429   1.407 -0.7840 -0.2470  0.4123
 4169TIP3    H234143   2.948   5.396   1.554  1.4063  0.1235  0.4758
 4170TIP3   OH234144   5.909   1.123   7.687  0.3949 -0.2132 -0.4164
 4170TIP3    H134145   5.821   1.161   7.683  0.0174 -0.5041  2.7963
 4170TIP3    H234146   5.947   1.143   7.601 -1.7822  2.4199 -0.9148
 4171TIP3   OH234147   3.615   5.689   1.797  0.2078  0.3488  0.2101
 4171TIP3    H134148   3.702   5.669   1.833  1.0532  1.9511 -0.8319
 4171TIP3    H234149   3.623   5.669   1.704 -0.7660 -0.1330  0.2273
 4172TIP3   OH234150   6.294   4.265   1.241  0.1451  0.2838  0.8405
 4172TIP3    H134151   6.305   4.184   1.190  1.2047  1.5738 -1.1234
 4172TIP3    H234152   6.372   4.317   1.220 -2.0136  3.2126 -0.7533
 4173TIP3   OH234153   3.216   3.380   0.969 -0.0382 -0.2318 -0.3781
 4173TIP3    H134154   3.308   3.386   0.944 -0.5031  0.0786 -2.1498
 4173TIP3    H234155   3.207   3.441   1.042  1.6704 -2.1196  1.5139
 4174TIP3   OH234156   1.030   4.984   2.516  0.2278  0.4598 -0.4117
 4174TIP3    H134157   1.035   4.890   2.527 -1.2627  0.3911 -0.0367
 4174TIP3    H234158   1.090   5.020   2.581 -0.1100 -0.2103  0.2816
 4175TIP3   OH234159   2.014   4.756   0.247 -0.6484 -0.5643  0.2795
 4175TIP3    H134160   2.025   4.851   0.251 -2.4263 -0.2863 -0.4866
 4175TIP3    H234161   2.006   4.736   0.154  0.9525 -1.6658  0.3287
 4176TIP3   OH234162   1.021   3.487   1.393 -0.2635  0.5285 -0.2188
 4176TIP3    H134163   1.110   3.490   1.359  0.9258  2.9293  2.6061
 4176TIP3    H234164   0.992   3.579   1.391 -1.3327  0.2998  1.9299
 4177TIP3   OH234165   3.195   0.993   8.203 -0.0380 -0.0109  0.4429
 4177TIP3    H134166   3.161   0.906   8.225  0.9230 -0.7059 -0.6586
 4177TIP3    H234167   3.279   0.997   8.249 -0.0187  0.2850  0.3790
 4178TIP3   OH234168   3.563   3.104   2.100 -0.0776  0.5885  0.5209
 4178TIP3    H134169   3.580   3.110   2.194 -1.0298  0.4210  0.7105
 4178TIP3    H234170   3.482   3.054   2.093  0.1048  0.4030 -0.4047
 4179TIP3   OH234171   6.207   6.250   2.324  0.4052 -0.6241 -0.0090
 4179TIP3    H134172   6.169   6.202   2.398  0.4506  0.5949  0.8262
 4179TIP3    H234173   6.190   6.342   2.344 -0.9074 -0.3131 -2.2471
 4180TIP3   OH234174   2.510   1.161   0.349 -0.1779  0.5969 -0.1598
 4180TIP3    H134175   2.604   1.146   0.332 -0.4459  0.0339 -1.2452
 4180TIP3    H234176   2.497   1.133   0.439  0.4966 -0.3018 -0.3331
 4181TIP3   OH234177   3.343   1.879   0.908 -0.8522 -0.8091 -0.4960
 4181TIP3    H134178   3.381   1.907   0.824 -0.6791 -1.7123 -0.7328
 4181TIP3    H234179   3.386   1.795   0.927  0.0437 -0.0230  1.1372
 4182TIP3   OH234180   5.747   0.406   6.611  0.3654  0.1921 -0.2227
 4182TIP3    H134181   5.706   0.486   6.576 -1.4638 -0.6226 -0.0780
 4182TIP3    H234182   5.694   0.385   6.689  1.9163 -0.2037  0.7766
 4183TIP3   OH234183   4.956   1.436   2.190 -0.1651 -0.0426  0.9964
 4183TIP3    H134184   4.944   1.341   2.197  1.2198 -0.5993 -2.2916
 4183TIP3    H234185   5.050   1.449   2.181 -0.3874  1.5367  0.5044
 4184TIP3   OH234186   1.231   2.559   1.594  0.0630 -0.2487 -1.0475
 4184TIP3    H134187   1.204   2.649   1.578 -2.0484 -0.8368 -1.0665
 4184TIP3    H234188   1.211   2.544   1.686 -0.2396 -0.8868 -1.2099
 4185TIP3   OH234189   2.272   4.252   1.071  0.3826  1.1384  0.2757
 4185TIP3    H134190   2.367   4.238   1.061  0.3597  2.1955 -2.2094
 4185TIP3    H234191   2.234   4.167   1.052  0.7418  1.5082 -2.4541
 4186TIP3   OH234192   2.798   1.963   8.635  0.2326 -0.5838 -0.1739
 4186TIP3    H134193   2.831   1.881   8.598 -1.6179 -1.1741 -0.5904
 4186TIP3    H234194   2.737   1.997   8.569 -1.5770 -0.5997  1.4083
 4187TIP3   OH234195   3.530   6.204   0.760  0.0507 -0.3430  0.8228
 4187TIP3    H134196   3.569   6.137   0.705  1.6224  1.6283 -0.5932
 4187TIP3    H234197   3.544   6.172   0.850  3.1784 -0.7490  0.3190
 4188TIP3   OH234198   3.778   2.668   7.513  0.4190 -0.0852  0.2138
 4188TIP3    H134199   3.823   2.591   7.548  1.3411  0.3517  0.0020
 4188TIP3    H234200   3.820   2.742   7.555 -0.7765  0.3066  0.7663
 4189TIP3   OH234201   3.412   6.430   7.962  0.0644 -0.4654 -0.0446
 4189TIP3    H134202   3.343   6.387   8.013 -0.7359 -1.3630 -1.8127
 4189TIP3    H234203   3.492   6.386   7.988 -0.4071 -1.2998  0.0410
 4190TIP3   OH234204   3.851   6.175   8.355 -0.5599  0.2275  0.3703
 4190TIP3    H134205   3.768   6.168   8.403 -1.4085 -0.6995 -1.1707
 4190TIP3    H234206   3.855   6.267   8.328  0.4635  1.0721  3.0254
 4191TIP3   OH234207   1.058   1.410   3.305  0.1101  0.3480  0.3661
 4191TIP3    H134208   0.971   1.438   3.331  0.2107  0.7549  0.2815
 4191TIP3    H234209   1.046   1.323   3.268 -0.4814  0.9224 -0.8768
 4192TIP3   OH234210   0.760   5.698   0.315 -0.3146  0.6307  0.3502
 4192TIP3    H134211   0.722   5.610   0.310 -0.5279  0.7973 -1.5022
 4192TIP3    H234212   0.828   5.691   0.382 -0.9399 -0.6914  0.8887
 4193TIP3   OH234213   5.984   3.640   7.354 -0.1091  0.2048  0.2924
 4193TIP3    H134214   6.005   3.547   7.359 -0.8847 -0.0786 -1.1548
 4193TIP3    H234215   5.899   3.644   7.310  0.7964  1.6437 -1.4757
 4194TIP3   OH234216   6.211   2.206   1.209  0.0580  0.0742 -0.2619
 4194TIP3    H134217   6.267   2.204   1.287 -0.3783  1.0146  0.0965
 4194TIP3    H234218   6.166   2.122   1.210  0.0784  0.0639  0.4997
 4195TIP3   OH234219   2.779   4.774   8.621 -0.5332 -0.0446  0.3074
 4195TIP3    H134220   2.776   4.832   8.545  1.7526  0.7715  0.7665
 4195TIP3    H234221   2.753   4.689   8.587 -0.4285  0.5028 -1.2048
 4196TIP3   OH234222   2.318   6.336   8.531  0.1725 -0.3120  0.2056
 4196TIP3    H134223   2.299   6.283   8.454 -0.4698  1.2715 -0.7673
 4196TIP3    H234224   2.234   6.378   8.553  0.5358 -0.1114  1.2746
 4197TIP3   OH234225   1.253   4.887   8.158  0.2425  0.6064 -0.1823
 4197TIP3    H134226   1.261   4.830   8.081 -0.4830 -0.3679  0.4450
 4197TIP3    H234227   1.318   4.854   8.220  0.1960  0.8108 -0.0216
 4198TIP3   OH234228   3.121   2.628   8.359  0.3951 -0.1067 -0.0127
 4198TIP3    H134229   3.186   2.678   8.310  0.8084 -1.9455 -1.4717
 4198TIP3    H234230   3.172   2.561   8.405 -0.1082  0.8882  2.1091
 4199TIP3   OH234231   0.110   3.198   2.347  0.4275  0.1256  0.3386
 4199TIP3    H134232   0.025   3.204   2.390 -0.1730  1.1509 -0.8952
 4199TIP3    H234233   0.165   3.261   2.393  0.1809  0.2623  0.4458
 4200TIP3   OH234234   1.787   1.730   1.850 -0.2903 -0.2102 -0.1257
 4200TIP3    H134235   1.793   1.744   1.756  2.8880  0.0860  0.0053
 4200TIP3    H234236   1.787   1.635   1.860 -0.6791 -0.2433 -0.4197
 4201TIP3   OH234237   3.671   2.855   7.905 -0.2036 -0.3504 -0.5389
 4201TIP3    H134238   3.745   2.864   7.965 -1.3368 -0.6618  0.9536
 4201TIP3    H234239   3.700   2.898   7.824  1.6807 -0.6747 -0.0753
 4202TIP3   OH234240   6.563   5.388   8.466  0.0304  0.4503  0.3445
 4202TIP3    H134241   6.475   5.383   8.430 -0.1278 -1.3582  0.8966
 4202TIP3    H234242   6.555   5.443   8.544 -0.3567  1.2855 -0.2751
 4203TIP3   OH234243   2.864   4.232   1.682  0.2280 -0.8336 -0.6318
 4203TIP3    H134244   2.777   4.194   1.690 -0.4535  0.8910  0.7103
 4203TIP3    H234245   2.894   4.244   1.772  1.0092  0.3859 -1.0202
 4204TIP3   OH234246   3.859   1.011   1.094 -0.2259  0.0859  0.5873
 4204TIP3    H134247   3.904   1.082   1.048  0.4077  0.0457  1.1284
 4204TIP3    H234248   3.799   1.054   1.154 -1.3868  0.1359 -0.5768
 4205TIP3   OH234249   0.282   1.707   2.419 -0.2516 -0.0439 -0.0832
 4205TIP3    H134250   0.334   1.747   2.488 -0.8994  0.1207  0.3121
 4205TIP3    H234251   0.344   1.694   2.347 -0.0733  1.8755 -0.3176
 4206TIP3   OH234252   6.840   1.067   8.181 -0.4796  0.5296 -0.0235
 4206TIP3    H134253   6.884   0.997   8.134  0.2592  0.6072  0.5317
 4206TIP3    H234254   6.835   1.035   8.271  0.7616  1.5735  0.4535
 4207TIP3   OH234255   4.014   6.224   0.057 -0.3087  0.6192  0.2999
 4207TIP3    H134256   4.045   6.207   0.147  0.1297 -1.2256 -0.1526
 4207TIP3    H234257   4.009   6.319   0.051  0.2476  0.8004  2.0907
 4208TIP3   OH234258   5.146   1.686   0.141 -0.4867 -0.4488 -0.0226
 4208TIP3    H134259   5.230   1.731   0.146 -0.1054 -1.1683  0.2388
 4208TIP3    H234260   5.121   1.672   0.233 -0.8052 -0.3855 -0.0996
 4209TIP3   OH234261   6.274   5.686   1.222 -0.3351  0.1224  0.0203
 4209TIP3    H134262   6.349   5.744   1.231  0.9161 -1.4052 -0.2715
 4209TIP3    H234263   6.287   5.618   1.288 -0.5891 -1.0585 -1.0941
 4210TIP3   OH234264   3.764   0.084   8.032  0.4443  0.4666  0.4482
 4210TIP3    H134265   3.729   0.110   7.947  0.0908  0.1483  0.4943
 4210TIP3    H234266   3.742  -0.009   8.040 -0.4834  0.7487  1.3607
 4211TIP3   OH234267   4.322   3.861   8.345 -0.7673  0.4147 -0.5048
 4211TIP3    H134268   4.389   3.823   8.402  0.5749  1.7989 -1.0700
 4211TIP3    H234269   4.338   3.822   8.259  0.8777  2.3626 -1.1857
 4212TIP3   OH234270   5.616   2.229   3.322 -0.5338  0.1870 -0.6997
 4212TIP3    H134271   5.531   2.224   3.365  0.0909 -2.8580  0.4571
 4212TIP3    H234272   5.679   2.217   3.392  0.6202 -2.0988 -2.0030
 4213TIP3   OH234273   3.395   5.119   0.907  0.0081  0.1619 -0.1133
 4213TIP3    H134274   3.405   5.135   1.001 -1.1191  0.6951 -0.0702
 4213TIP3    H234275   3.446   5.188   0.865  1.3305 -0.6522  0.0829
 4214TIP3   OH234276   6.395   6.306   2.119  0.5566  0.2095 -0.2562
 4214TIP3    H134277   6.310   6.313   2.162 -0.7848 -2.3665 -2.1871
 4214TIP3    H234278   6.391   6.369   2.047  1.3142  1.8029  1.0287
 4215TIP3   OH234279   5.907   4.711   1.247 -0.1651  0.4380 -0.2951
 4215TIP3    H134280   5.829   4.755   1.214 -0.3679 -1.3327 -2.5077
 4215TIP3    H234281   5.939   4.661   1.171  0.8998 -1.9038  1.5672
 4216TIP3   OH234282   0.029   1.783   2.005 -0.3510 -1.0049 -0.3923
 4216TIP3    H134283  -0.050   1.802   2.056 -0.3761 -2.3464  0.1187
 4216TIP3    H234284   0.077   1.865   2.004 -0.1991 -0.9752  2.0777
 4217TIP3   OH234285   4.197   3.504   1.849  0.1612  0.4035 -0.0382
 4217TIP3    H134286   4.135   3.573   1.826  0.3138  0.7913  0.6492
 4217TIP3    H234287   4.155   3.423   1.822 -1.0139  0.5864  1.1155
 4218TIP3   OH234288   5.025   0.209   1.442  0.3964  0.0133 -0.3421
 4218TIP3    H134289   5.003   0.231   1.532 -0.7206  0.5962 -0.7441
 4218TIP3    H234290   5.116   0.180   1.446 -0.7750 -4.0948  1.6604
 4219TIP3   OH234291   2.591   0.050   0.943  0.6294  0.0322 -0.3373
 4219TIP3    H134292   2.529  -0.018   0.915 -0.6876  1.3555 -0.7679
 4219TIP3    H234293   2.615   0.025   1.033 -1.2147 -0.0852  0.1680
 4220TIP3   OH234294   4.696   2.790   2.196 -0.1920  0.5809  0.4557
 4220TIP3    H134295   4.679   2.846   2.120  1.9579  1.8269  0.8228
 4220TIP3    H234296   4.776   2.743   2.174  0.1359  0.5183  1.7109
 4221TIP3   OH234297   0.338   6.320   1.009  0.1177  0.2567 -0.3416
 4221TIP3    H134298   0.243   6.335   1.013  0.3838  1.9297  2.1397
 4221TIP3    H234299   0.347   6.225   1.008 -1.6305 -0.0330  2.0716
 4222TIP3   OH234300   1.027   4.081   8.109 -0.6303 -0.8648  1.0207
 4222TIP3    H134301   1.099   4.044   8.160 -1.0534 -0.0752  2.2397
 4222TIP3    H234302   0.971   4.124   8.174 -2.2477 -1.5096  0.1145
 4223TIP3   OH234303   3.815   0.125   8.791 -0.7011 -0.4368 -0.8892
 4223TIP3    H134304   3.781   0.161   8.709  2.3973 -0.1450 -2.1985
 4223TIP3    H234305   3.885   0.185   8.817 -0.3268 -1.5676  0.9238
 4224TIP3   OH234306   5.940   0.509   7.935 -0.2682 -0.4615  0.2026
 4224TIP3    H134307   5.935   0.596   7.976  0.5043 -0.0102 -0.6219
 4224TIP3    H234308   6.024   0.473   7.965 -0.2613 -0.6265 -0.0127
 4225TIP3   OH234309   2.032   1.680   6.687 -0.5884 -0.2352  0.7207
 4225TIP3    H134310   1.980   1.746   6.732 -0.4964  1.5162 -1.5129
 4225TIP3    H234311   2.123   1.701   6.709 -0.6348 -1.8357  2.7366
 4226TIP3   OH234312   6.644   4.515   7.535  0.0151  0.2661 -0.6272
 4226TIP3    H134313   6.677   4.575   7.602 -0.7174  0.5566 -0.5229
 4226TIP3    H234314   6.723   4.480   7.494  0.5133  2.9400 -2.1783
 4227TIP3   OH234315   5.651   5.393   0.231 -0.4172 -0.6713  0.5846
 4227TIP3    H134316   5.635   5.481   0.264  1.3514  0.5907 -1.5950
 4227TIP3    H234317   5.735   5.367   0.271  0.8470  0.1553 -1.3867
 4228TIP3   OH234318   5.793   3.322   8.144  0.0324  0.4738  0.0743
 4228TIP3    H134319   5.781   3.374   8.065 -1.2096  2.2692  1.3660
 4228TIP3    H234320   5.887   3.327   8.163  0.3087  0.1958 -1.1241
 4229TIP3   OH234321   0.666   4.587   2.462  0.1780 -1.0416 -0.0853
 4229TIP3    H134322   0.661   4.519   2.529 -1.6339 -0.8236  0.0339
 4229TIP3    H234323   0.760   4.607   2.456  0.6575 -2.9080  0.4963
 4230TIP3   OH234324   4.341   0.751   0.856 -0.1636 -0.2661 -0.0030
 4230TIP3    H134325   4.257   0.796   0.860  0.0937  0.1903  0.5540
 4230TIP3    H234326   4.370   0.747   0.947  0.9891  0.7167 -0.2998
 4231TIP3   OH234327   4.148   2.909   2.434 -0.3439 -0.3419 -0.5096
 4231TIP3    H134328   4.126   2.918   2.527  1.6464 -2.5438  0.2666
 4231TIP3    H234329   4.201   2.987   2.415 -1.7290  0.7327 -0.1965
 4232TIP3   OH234330   3.982   0.934   1.621  0.2464 -0.1997 -0.2548
 4232TIP3    H134331   4.071   0.911   1.649  0.8946 -0.6969 -2.5398
 4232TIP3    H234332   3.949   0.990   1.692  2.5349  0.3863  0.4573
 4233TIP3   OH234333   2.252   0.734   2.651 -0.1862 -0.4037 -0.2010
 4233TIP3    H134334   2.329   0.676   2.650  0.6727  0.6917 -1.5509
 4233TIP3    H234335   2.289   0.822   2.647 -1.4081  0.3945  2.7618
 4234TIP3   OH234336   0.064   2.290   6.788 -0.1199 -0.0897  0.2028
 4234TIP3    H134337   0.150   2.248   6.788  0.0393  0.2233 -0.2234
 4234TIP3    H234338   0.075   2.366   6.730 -0.8032 -0.2929 -0.2082
 4235TIP3   OH234339   2.800   4.974   0.413 -0.1901 -0.1219 -0.0665
 4235TIP3    H134340   2.742   5.045   0.440  0.5238 -0.3482  2.3124
 4235TIP3    H234341   2.763   4.896   0.454 -0.0500 -0.8479 -1.2923
 4236TIP3   OH234342   6.554   4.478   8.677  0.0274 -0.3771 -0.3713
 4236TIP3    H134343   6.640   4.520   8.677  0.1200 -0.3596  3.0666
 4236TIP3    H234344   6.564   4.399   8.730 -2.0197 -0.5044 -0.0746
 4237TIP3   OH234345   1.517   5.768   7.442 -0.6738 -0.2057  0.0031
 4237TIP3    H134346   1.539   5.679   7.415 -1.9989 -0.1708 -1.3586
 4237TIP3    H234347   1.529   5.821   7.363 -0.6271  0.6903  0.5905
 4238TIP3   OH234348   5.667   2.616   7.278 -0.0471  0.2770 -0.1861
 4238TIP3    H134349   5.692   2.565   7.355 -1.0088  0.5409  0.3178
 4238TIP3    H234350   5.744   2.668   7.257 -0.2458  1.3457  1.5367
 4239TIP3   OH234351   2.073   2.207   8.826 -0.3377 -0.6724 -0.1768
 4239TIP3    H134352   2.045   2.118   8.850 -1.6889  0.4673  2.9322
 4239TIP3    H234353   1.992   2.256   8.815  0.3863  0.6542  0.1882
 4240TIP3   OH234354   3.719   1.845   2.480  0.6485 -0.6647 -0.0184
 4240TIP3    H134355   3.713   1.786   2.404  0.1107 -0.5333 -0.0860
 4240TIP3    H234356   3.698   1.790   2.555 -2.6072 -0.0552 -0.3223
 4241TIP3   OH234357   6.414   0.245   8.194  0.3158  0.0155 -0.3284
 4241TIP3    H134358   6.500   0.285   8.207  0.1396  0.1623  0.4723
 4241TIP3    H234359   6.427   0.179   8.126  0.9412  0.3972 -0.5834
 4242TIP3   OH234360   0.612   3.402   0.419  0.1807  0.1290 -0.0774
 4242TIP3    H134361   0.703   3.405   0.392  0.3225 -2.2614 -0.0077
 4242TIP3    H234362   0.576   3.324   0.378 -1.7779  0.8510  0.1340
 4243TIP3   OH234363   6.214   5.065   0.901  0.2874  0.0319  0.0795
 4243TIP3    H134364   6.301   5.077   0.938  1.9409 -1.7350 -2.8714
 4243TIP3    H234365   6.199   4.970   0.906 -1.6035  0.3207  0.7035
 4244TIP3   OH234366   6.172   4.487   2.220 -0.1188 -0.3580 -0.5800
 4244TIP3    H134367   6.212   4.480   2.133 -1.5870 -3.0733 -1.1465
 4244TIP3    H234368   6.106   4.555   2.211  0.2693 -0.0719 -1.3550
 4245TIP3   OH234369   4.048   4.529   7.732 -0.4704  0.1439 -0.0780
 4245TIP3    H134370   4.017   4.476   7.659  0.5393 -0.0083 -0.4211
 4245TIP3    H234371   3.989   4.604   7.735 -1.5625 -0.6892  0.0465
 4246TIP3   OH234372   3.598   6.216   2.291 -0.2206  0.1322  0.7895
 4246TIP3    H134373   3.511   6.251   2.272 -0.1938  0.0894  0.5874
 4246TIP3    H234374   3.658   6.288   2.271 -0.2652  0.4369  1.6989
 4247TIP3   OH234375   0.684   0.113   0.884 -0.0072 -0.3249 -0.0444
 4247TIP3    H134376   0.722   0.179   0.943  2.1326 -0.6144 -0.9869
 4247TIP3    H234377   0.700   0.030   0.928  0.8226 -0.4759 -0.6059
 4248TIP3   OH234378   0.616   0.908   0.407  0.8072 -0.1813 -0.0930
 4248TIP3    H134379   0.602   0.849   0.480  0.0559 -2.0862 -1.6942
 4248TIP3    H234380   0.681   0.864   0.352  0.2782  0.4990 -1.2996
 4249TIP3   OH234381   1.764   6.165   8.777  0.2298 -0.2589 -0.1326
 4249TIP3    H134382   1.821   6.156   8.701  1.4454 -0.6955  0.7962
 4249TIP3    H234383   1.704   6.091   8.771 -0.0128 -0.0068 -0.9284
 4250TIP3   OH234384   5.644   1.592   7.995 -0.5593  0.2999  0.0597
 4250TIP3    H134385   5.734   1.617   8.017  0.0759  0.0513 -2.0353
 4250TIP3    H234386   5.598   1.675   7.985 -0.4791  0.4345  0.7362
 4251TIP3   OH234387   3.591   2.581   6.581 -0.5094  0.0796 -0.0220
 4251TIP3    H134388   3.629   2.667   6.560 -0.9345  0.2391 -0.1491
 4251TIP3    H234389   3.658   2.519   6.553 -0.2916  0.3626 -0.1429
 4252TIP3   OH234390   3.404   6.639   0.944  0.4102  0.2877 -0.2977
 4252TIP3    H134391   3.347   6.692   0.888  0.5873 -1.4634 -2.2544
 4252TIP3    H234392   3.386   6.549   0.918  0.3680 -0.6806  2.6636
 4253TIP3   OH234393   4.026   1.694   2.026  0.2163 -0.5438  0.0672
 4253TIP3    H134394   3.950   1.638   2.039 -0.4903  0.1672 -0.8707
 4253TIP3    H234395   4.014   1.766   2.088 -0.3041 -0.0110 -0.6436
 4254TIP3   OH234396   6.264   1.077   0.591  0.2784  0.8715 -0.2528
 4254TIP3    H134397   6.212   0.998   0.607  0.2817  0.9081 -0.0566
 4254TIP3    H234398   6.303   1.097   0.676  0.3968  0.9990 -0.3376
 4255TIP3   OH234399   5.861   3.255   1.965  0.2677  0.2781  0.1850
 4255TIP3    H134400   5.871   3.164   1.991  1.6972 -0.1261 -1.5378
 4255TIP3    H234401   5.949   3.282   1.939 -0.2744  1.9153 -0.0499
 4256TIP3   OH234402   2.639   0.549   1.830  0.0465 -0.1227  0.0858
 4256TIP3    H134403   2.667   0.635   1.800 -2.1597  0.3996 -0.6981
 4256TIP3    H234404   2.634   0.558   1.925 -0.4330  0.7283 -0.0058
 4257TIP3   OH234405   5.122   1.298   0.292  1.0686 -0.0930 -0.0936
 4257TIP3    H134406   5.029   1.278   0.298  1.1493 -0.4492 -0.0423
 4257TIP3    H234407   5.165   1.232   0.346  1.1266  1.9519  2.5303
 4258TIP3   OH234408   5.399   5.523   8.232  0.5102  0.1504  0.4997
 4258TIP3    H134409   5.341   5.455   8.267  0.6815  0.3846  1.2445
 4258TIP3    H234410   5.470   5.530   8.295  0.6433  0.8213  0.2889
 4259TIP3   OH234411   3.039   3.493   0.354 -0.2252 -0.2199  0.8582
 4259TIP3    H134412   3.056   3.527   0.266  0.7673  1.0474  1.5040
 4259TIP3    H234413   2.946   3.474   0.355 -0.3594  0.2879 -0.2925
 4260TIP3   OH234414   2.607   3.328   0.483  0.1604  0.1998  0.3744
 4260TIP3    H134415   2.694   3.326   0.523  0.7441  0.1344 -0.8447
 4260TIP3    H234416   2.579   3.237   0.482 -0.1283  0.2752  1.1866
 4261TIP3   OH234417   2.243   1.044   1.374  0.5347 -0.0395  0.0636
 4261TIP3    H134418   2.304   1.045   1.300 -0.2217  0.0189 -0.5714
 4261TIP3    H234419   2.175   1.107   1.350  0.3436  0.0758  0.8714
 4262TIP3   OH234420   0.793   0.273   6.788 -0.0107  0.0208  0.3968
 4262TIP3    H134421   0.765   0.359   6.757  2.3176  0.6132 -0.2339
 4262TIP3    H234422   0.869   0.291   6.844  2.0523 -1.7081 -1.6561
 4263TIP3   OH234423   4.972   5.098   8.342 -0.2285 -0.3347 -0.3643
 4263TIP3    H134424   5.062   5.076   8.319 -0.5840 -0.4362 -1.7693
 4263TIP3    H234425   4.928   5.013   8.351 -0.5901 -0.2847 -1.4896
 4264TIP3   OH234426   5.679   2.119   1.435  0.4168 -0.5000 -0.4792
 4264TIP3    H134427   5.765   2.141   1.470 -0.0175  0.2801  0.1163
 4264TIP3    H234428   5.686   2.026   1.411  1.7673 -0.1490 -1.5143
 4265TIP3   OH234429   3.904   3.293   7.694 -0.1820  0.0591  0.1117
 4265TIP3    H134430   3.864   3.330   7.773 -0.6940  0.1674 -0.1978
 4265TIP3    H234431   3.830   3.271   7.638  0.1179 -1.1915  0.1822
 4266TIP3   OH234432   6.154   0.186   8.736  0.2024  0.3951  0.0852
 4266TIP3    H134433   6.190   0.110   8.782  0.7558 -1.1917 -2.7244
 4266TIP3    H234434   6.059   0.175   8.742  0.2165  0.8897  1.7708
 4267TIP3   OH234435   1.062   4.319   8.292 -0.4095 -0.2060 -0.1247
 4267TIP3    H134436   1.154   4.301   8.309 -0.4686 -1.9702 -1.4540
 4267TIP3    H234437   1.030   4.360   8.373  1.6642  1.0683  0.1022
 4268TIP3   OH234438   2.447   4.640   2.083  0.2083  0.6377  0.0404
 4268TIP3    H134439   2.398   4.720   2.105  0.0652  0.1611  1.5866
 4268TIP3    H234440   2.380   4.572   2.077  0.5706  0.1382  1.3627
 4269TIP3   OH234441   1.708   2.152   2.269  0.2538  0.7913  0.3764
 4269TIP3    H134442   1.632   2.208   2.253 -1.5863 -0.7295  2.9205
 4269TIP3    H234443   1.773   2.209   2.309 -0.4632  1.6902  0.2894
 4270TIP3   OH234444   0.644   1.655   8.264 -0.0518  0.3682  0.1335
 4270TIP3    H134445   0.710   1.724   8.256 -1.6930  1.8754 -1.3743
 4270TIP3    H234446   0.636   1.641   8.358  0.4049  2.1934  0.4922
 4271TIP3   OH234447   2.145   3.066   1.509  0.5854  0.4741  0.0052
 4271TIP3    H134448   2.194   3.026   1.581  0.2208  0.8179  0.4503
 4271TIP3    H234449   2.092   2.995   1.473  0.8998  0.2604 -0.0423
 4272TIP3   OH234450   3.433   3.748   0.085 -0.4132  0.3236  0.0185
 4272TIP3    H134451   3.382   3.813   0.037 -0.0635  1.3977  1.0580
 4272TIP3    H234452   3.368   3.686   0.117 -0.8850  0.7841 -0.0368
 4273TIP3   OH234453   2.556   1.858   8.232 -0.2902 -0.6042  0.0218
 4273TIP3    H134454   2.628   1.888   8.177 -0.9179  0.5915 -0.1714
 4273TIP3    H234455   2.592   1.783   8.279  0.6370 -0.8985 -1.1020
 4274TIP3   OH234456   5.620   0.840   0.633 -0.3552  0.4550 -0.0016
 4274TIP3    H134457   5.597   0.750   0.656  1.7615 -0.1823 -0.2036
 4274TIP3    H234458   5.555   0.865   0.567  0.2640 -1.6948 -1.5351
 4275TIP3   OH234459   3.794   6.130   8.044 -0.3868 -0.3550 -0.1108
 4275TIP3    H134460   3.747   6.058   8.085 -0.0670 -0.1253  0.6768
 4275TIP3    H234461   3.812   6.099   7.955  0.7540 -1.7351  0.5567
 4276TIP3   OH234462   1.168   1.464   0.148 -0.2019 -0.4041  0.1223
 4276TIP3    H134463   1.083   1.449   0.107  0.4939  0.1675 -1.6668
 4276TIP3    H234464   1.153   1.536   0.209 -1.0335 -0.3649 -0.1196
 4277TIP3   OH234465   1.359   1.467   6.802 -0.1694  0.2912  0.1121
 4277TIP3    H134466   1.422   1.517   6.751 -0.8851 -0.5424 -1.6536
 4277TIP3    H234467   1.283   1.458   6.745 -0.3954 -2.0612  0.6865
 4278TIP3   OH234468   2.181   1.803   0.224 -0.7224 -0.8343  0.3656
 4278TIP3    H134469   2.188   1.802   0.319 -0.7196 -1.3281  0.3601
 4278TIP3    H234470   2.177   1.711   0.198  0.3888 -0.7440 -0.1896
 4279TIP3   OH234471   5.184   0.513   1.959 -0.7080  0.1304 -0.0300
 4279TIP3    H134472   5.263   0.463   1.977 -1.1031 -0.2814  0.5755
 4279TIP3    H234473   5.208   0.569   1.885  0.1098 -0.0734  0.0704
 4280TIP3   OH234474   2.090   3.120   7.750  0.0843  0.0989  0.5107
 4280TIP3    H134475   2.021   3.058   7.770  0.6213 -0.7466 -0.1668
 4280TIP3    H234476   2.144   3.123   7.829 -0.2747  0.1564  0.7546
 4281TIP3   OH234477   2.276   0.266   0.266 -0.0322 -0.0650 -0.1026
 4281TIP3    H134478   2.183   0.287   0.274 -0.2700 -0.2759 -1.9756
 4281TIP3    H234479   2.321   0.344   0.299 -0.7954 -0.6787  2.6864
 4282TIP3   OH234480   4.592   5.710   8.820 -0.5361  0.0846 -0.2871
 4282TIP3    H134481   4.537   5.788   8.821  1.3692  1.4849  0.6306
 4282TIP3    H234482   4.541   5.646   8.769 -2.8596  1.3438  0.2974
 4283TIP3   OH234483   0.406   1.234   2.141 -0.8742  0.3824  0.0711
 4283TIP3    H134484   0.341   1.200   2.080 -1.0831  0.4746  0.2383
 4283TIP3    H234485   0.489   1.229   2.094 -0.9884  0.1672 -0.1068
 4284TIP3   OH234486   1.150   5.900   8.712 -0.3416 -0.7563  0.4379
 4284TIP3    H134487   1.218   5.835   8.690  1.0424  0.5872  0.5450
 4284TIP3    H234488   1.095   5.856   8.776  0.2494 -2.0143  0.1186
 4285TIP3   OH234489   6.074   2.452   7.010 -0.2712  0.1233 -0.1191
 4285TIP3    H134490   6.084   2.546   7.019 -0.0999 -0.0266  1.4391
 4285TIP3    H234491   5.982   2.440   6.984  0.2383  0.7978 -2.5769
 4286TIP3   OH234492   2.543   3.875   2.021  0.1592 -0.3108 -0.0402
 4286TIP3    H134493   2.524   3.839   2.108  0.0454  0.9696  0.4790
 4286TIP3    H234494   2.457   3.900   1.987  0.3581  0.6657  0.1512
 4287TIP3   OH234495   2.930   5.642   8.479  0.0083 -0.3077 -0.3072
 4287TIP3    H134496   2.961   5.682   8.397 -0.7560  0.8074 -0.0709
 4287TIP3    H234497   2.835   5.648   8.474 -0.0319  0.9008  1.1875
 4288TIP3   OH234498   4.365   6.296   1.175  0.2238 -0.2238  0.0147
 4288TIP3    H134499   4.452   6.329   1.152  0.7999 -2.4796 -1.4368
 4288TIP3    H234500   4.373   6.201   1.166 -2.9254 -0.4336 -2.3401
 4289TIP3   OH234501   6.807   0.033   1.630 -0.7713  0.4020  0.3189
 4289TIP3    H134502   6.724  -0.010   1.605 -0.7735 -0.6378  1.9414
 4289TIP3    H234503   6.784   0.126   1.636 -1.4069  0.3482 -0.7864
 4290TIP3   OH234504   1.399   1.884   7.837 -0.2843  0.0654 -0.3764
 4290TIP3    H134505   1.462   1.952   7.859 -0.5770 -0.3909  2.1681
 4290TIP3    H234506   1.315   1.928   7.836 -0.4002 -0.0973  0.6625
 4291TIP3   OH234507   6.042   2.708   0.195  0.0397  0.6347 -0.2008
 4291TIP3    H134508   5.962   2.658   0.207  0.1478  0.8043  1.3412
 4291TIP3    H234509   6.086   2.665   0.121 -1.1943  0.2028 -0.6965
 4292TIP3   OH234510   3.388   2.598   0.459 -0.1172  0.1108 -0.4297
 4292TIP3    H134511   3.307   2.631   0.499  0.4530  1.5474 -0.4053
 4292TIP3    H234512   3.387   2.504   0.478 -0.7092  0.4613  1.4615
 4293TIP3   OH234513   5.346   2.565   2.078  0.0035 -0.7714 -0.3428
 4293TIP3    H134514   5.329   2.575   2.172  1.3454 -2.5204  0.1531
 4293TIP3    H234515   5.441   2.574   2.070 -0.0747 -0.8740 -1.5005
 4294TIP3   OH234516   0.058   3.963   1.714  0.4561 -0.2650  0.4272
 4294TIP3    H134517  -0.013   4.014   1.752  1.2338 -0.2337  1.8694
 4294TIP3    H234518   0.050   3.978   1.619 -1.7294 -0.6376  0.4971
 4295TIP3   OH234519   2.225   2.738   8.751 -0.1453 -0.3375  0.2253
 4295TIP3    H134520   2.230   2.743   8.656 -3.1169 -1.3238 -0.0885
 4295TIP3    H234521   2.300   2.684   8.776  1.8237  1.5455 -1.2736
 4296TIP3   OH234522   5.418   5.304   2.098 -0.1621 -0.2401  0.7192
 4296TIP3    H134523   5.369   5.372   2.052  0.6008 -0.5707 -0.6435
 4296TIP3    H234524   5.380   5.221   2.067  1.4378 -0.5238 -0.7093
 4297TIP3   OH234525   5.376   0.698   0.035 -0.0392  0.0051 -0.0228
 4297TIP3    H134526   5.420   0.700  -0.050 -0.0731  1.3626 -0.0304
 4297TIP3    H234527   5.328   0.615   0.035 -0.7312  0.3617 -1.6937
 4298TIP3   OH234528   6.353   6.748   1.511  0.0834 -0.1994 -0.2458
 4298TIP3    H134529   6.292   6.691   1.466  0.4232 -0.0264 -0.9530
 4298TIP3    H234530   6.299   6.800   1.571 -0.1872 -1.4633  0.6484
 4299TIP3   OH234531   0.514   2.805   1.727 -0.0155 -0.3611 -0.5911
 4299TIP3    H134532   0.432   2.795   1.775 -0.6775  1.9530 -1.1132
 4299TIP3    H234533   0.503   2.752   1.649 -0.7457 -0.5853 -0.3403
 4300TIP3   OH234534   2.151   4.138   0.686 -0.0940 -0.9333 -0.0411
 4300TIP3    H134535   2.072   4.129   0.632  0.3907 -0.7421 -0.8039
 4300TIP3    H234536   2.199   4.211   0.645 -0.3691  0.1554  1.4922
 4301TIP3   OH234537   1.385   2.783   8.693 -0.1617  0.3651  0.3152
 4301TIP3    H134538   1.367   2.707   8.747 -0.3673 -0.0340 -0.3005
 4301TIP3    H234539   1.325   2.851   8.726 -0.1299  0.1960  0.7237
 4302TIP3   OH234540   0.440   4.990   8.288 -0.1239  0.1343 -0.1404
 4302TIP3    H134541   0.424   4.984   8.382  0.9937 -3.4795 -0.0465
 4302TIP3    H234542   0.535   4.980   8.279 -0.1368  0.9591 -1.6771
 4303TIP3   OH234543   4.155   4.984   0.566  0.0280  0.1327  0.3664
 4303TIP3    H134544   4.085   4.934   0.608  0.1541  1.2670  2.0168
 4303TIP3    H234545   4.218   5.000   0.636  2.5082 -1.6995 -1.2464
 4304TIP3   OH234546   6.071   6.646   0.452  0.1081  0.5986 -0.4735
 4304TIP3    H134547   6.024   6.595   0.386  0.6150 -0.6558  0.1075
 4304TIP3    H234548   6.113   6.716   0.403  1.7891 -1.2189 -1.7806
 4305TIP3   OH234549   0.991   1.219   8.579  0.4787 -0.0313 -0.0014
 4305TIP3    H134550   0.902   1.238   8.550 -0.4818 -3.6024  0.1625
 4305TIP3    H234551   0.985   1.214   8.674  0.5104 -1.3963 -0.0423
 4306TIP3   OH234552   0.295   2.794   8.260 -0.0834  0.3402  0.1366
 4306TIP3    H134553   0.366   2.730   8.267  0.2536  0.6411 -0.5217
 4306TIP3    H234554   0.300   2.826   8.170 -2.3653 -1.1750 -0.6312
 4307TIP3   OH234555   6.717   6.004   1.314 -0.0549  0.1990 -0.1697
 4307TIP3    H134556   6.798   5.967   1.348  0.0998  0.1274 -0.6211
 4307TIP3    H234557   6.674   6.041   1.391  0.1575 -0.2253  0.1591
 4308TIP3   OH234558   2.351   0.894   1.013  0.2695  0.2797  0.1389
 4308TIP3    H134559   2.429   0.914   1.065  1.6258 -0.7518 -1.3831
 4308TIP3    H234560   2.322   0.808   1.044  0.6139  0.0175 -0.2492
 4309TIP3   OH234561   1.067   5.967   7.722  0.3673  0.7830 -0.0235
 4309TIP3    H134562   0.981   5.928   7.706  1.3120 -0.4275 -2.9559
 4309TIP3    H234563   1.049   6.044   7.775 -2.0267 -1.5094  2.8613
 4310TIP3   OH234564   4.415   6.032   7.354 -0.8064 -0.3679  0.3912
 4310TIP3    H134565   4.398   5.977   7.430  0.1493 -1.0438  0.1414
 4310TIP3    H234566   4.461   5.974   7.293 -0.7712  0.4083 -0.3352
 4311TIP3   OH234567   4.911   0.800   0.581  0.3891  0.4862  0.2372
 4311TIP3    H134568   4.965   0.738   0.531 -0.0877  0.5587 -0.3803
 4311TIP3    H234569   4.874   0.748   0.652 -1.2260 -0.3315 -1.1472
 4312TIP3   OH234570   0.072   4.000   0.908 -0.0265  0.1367 -0.5785
 4312TIP3    H134571   0.160   4.014   0.943 -0.3894 -0.1092  0.4834
 4312TIP3    H234572   0.085   3.948   0.828  0.7705 -0.1421 -0.2770
 4313TIP3   OH234573   4.398   4.290   7.712 -0.6524  0.2507  0.1234
 4313TIP3    H134574   4.355   4.254   7.789 -1.7490  1.8621  0.3249
 4313TIP3    H234575   4.365   4.237   7.639  0.1073 -1.0430  0.6899
 4314TIP3   OH234576   0.410   0.845   0.186 -0.8183  0.0110 -0.1436
 4314TIP3    H134577   0.497   0.877   0.205 -0.4951 -0.1159 -1.3099
 4314TIP3    H234578   0.417   0.806   0.099 -1.5493 -1.8663  0.5782
 4315TIP3   OH234579   4.012   3.029   7.789  0.4131 -0.2116 -0.1040
 4315TIP3    H134580   4.105   3.047   7.802  1.2461 -2.5932 -1.9974
 4315TIP3    H234581   3.983   3.097   7.728  1.4551 -0.5954 -1.0625
 4316TIP3   OH234582   6.512   1.062   2.153 -0.6828 -0.0310 -0.6227
 4316TIP3    H134583   6.496   0.988   2.094 -1.0984 -1.1604  0.8582
 4316TIP3    H234584   6.607   1.071   2.154 -0.6125 -0.7774 -0.5248
 4317TIP3   OH234585   1.094   3.232   0.968  0.6748 -0.1351 -0.0735
 4317TIP3    H134586   1.182   3.257   0.998  1.1861 -1.5195 -0.3390
 4317TIP3    H234587   1.100   3.234   0.873 -0.1263  1.5018 -0.1150
 4318TIP3   OH234588   4.158   1.645   2.318  0.4699 -0.4861  0.2842
 4318TIP3    H134589   4.245   1.624   2.283  0.5417 -0.8929  0.6922
 4318TIP3    H234590   4.146   1.738   2.299  0.8749 -0.4942 -0.0305
 4319TIP3   OH234591   3.059   3.781   1.032  0.2075  0.7477  0.1237
 4319TIP3    H134592   2.992   3.818   1.091 -0.4583 -0.8094  0.3832
 4319TIP3    H234593   3.070   3.848   0.965 -1.2527  1.2762  0.3600
 4320TIP3   OH234594   5.927   6.773   1.298  0.1143 -0.6710  0.3618
 4320TIP3    H134595   6.006   6.827   1.293  0.8994 -1.6819  1.2143
 4320TIP3    H234596   5.858   6.826   1.259  1.3220  0.0524 -0.8759
 4321TIP3   OH234597   0.855   4.794   0.729  0.4623 -0.0346  0.2531
 4321TIP3    H134598   0.868   4.737   0.804 -1.6677 -0.0808  0.6270
 4321TIP3    H234599   0.809   4.870   0.764 -1.5690 -0.5442 -1.1356
 4322TIP3   OH234600   6.788   1.771   8.598 -0.7408  0.2737 -0.1078
 4322TIP3    H134601   6.841   1.700   8.634  0.9813  0.8565 -1.3345
 4322TIP3    H234602   6.729   1.795   8.669  1.6454  0.5736  1.9207
 4323TIP3   OH234603   3.770   1.830   0.502 -0.0545 -0.3865 -0.1939
 4323TIP3    H134604   3.863   1.838   0.480 -0.1731  0.5171 -0.4273
 4323TIP3    H234605   3.739   1.920   0.506 -1.2973 -0.6929 -1.7611
 4324TIP3   OH234606   1.200   0.009   1.333 -0.0952 -1.0848  1.0334
 4324TIP3    H134607   1.200  -0.062   1.399  0.7757 -1.4283  0.6803
 4324TIP3    H234608   1.132  -0.017   1.270 -0.2978 -1.2216  1.3040
 4325TIP3   OH234609   2.879   3.077   1.225 -0.0402 -0.1504  0.4292
 4325TIP3    H134610   2.835   3.010   1.173  0.1242  1.6225 -2.1311
 4325TIP3    H234611   2.967   3.083   1.188  0.1770  0.9701  1.0715
 4326TIP3   OH234612   0.531   4.678   2.920 -0.0124  0.2115  0.3402
 4326TIP3    H134613   0.491   4.762   2.899 -1.0730 -0.3984 -0.1738
 4326TIP3    H234614   0.457   4.618   2.929  0.7524 -0.7881  0.1122
 4327TIP3   OH234615   0.329   0.722   8.767  0.6990  0.0004  0.3061
 4327TIP3    H134616   0.303   0.764   8.685 -1.2460 -0.6733  0.5074
 4327TIP3    H234617   0.413   0.680   8.748  2.1115  2.8298 -0.2407
 4328TIP3   OH234618   0.821   4.842   1.161 -0.2872  0.0268  0.9143
 4328TIP3    H134619   0.726   4.849   1.150 -0.1848  1.0471  0.5582
 4328TIP3    H234620   0.847   4.927   1.197  0.7596  0.6842 -1.1875
 4329TIP3   OH234621   2.844   2.347   7.837  0.0681  0.3701  0.2804
 4329TIP3    H134622   2.816   2.300   7.759 -0.1595  0.1871  0.4713
 4329TIP3    H234623   2.935   2.371   7.818  0.0677  0.1831  0.0266
 4330TIP3   OH234624   5.799   3.064   7.572  0.4762  0.2006  0.2081
 4330TIP3    H134625   5.747   3.141   7.549  0.1108  0.9018  2.9668
 4330TIP3    H234626   5.737   3.007   7.617  1.4475 -0.2450  1.0099
 4331TIP3   OH234627   6.466   0.539   0.944  0.2204 -0.3535  0.3949
 4331TIP3    H134628   6.404   0.465   0.941  1.5911 -1.5569  0.7297
 4331TIP3    H234629   6.430   0.602   0.881 -2.2651 -0.2275  1.8008
 4332TIP3   OH234630   3.984   6.820   1.992  0.0169  0.0952  0.0294
 4332TIP3    H134631   4.016   6.746   1.940 -2.2498 -1.2527  0.4163
 4332TIP3    H234632   4.055   6.840   2.053  1.1312 -0.9572 -0.8758
 4333TIP3   OH234633   5.511   4.404   8.272 -0.1098 -0.0594 -0.2013
 4333TIP3    H134634   5.489   4.406   8.365 -1.1690 -2.2264 -0.3398
 4333TIP3    H234635   5.495   4.313   8.246  1.5497  0.1620 -2.1832
 4334TIP3   OH234636   5.175   1.027   7.866  0.0925 -0.1739 -0.2592
 4334TIP3    H134637   5.204   1.045   7.777  0.1160 -0.5837 -0.3361
 4334TIP3    H234638   5.193   0.934   7.879  1.1330  0.1197  0.5565
 4335TIP3   OH234639   1.024   4.969   0.034  0.5353  0.0286 -0.5639
 4335TIP3    H134640   1.087   4.904   0.065  0.4157  0.5716  0.9011
 4335TIP3    H234641   1.039   4.974  -0.060  1.2549 -1.3556 -0.5479
 4336TIP3   OH234642   3.127   1.329   0.877 -0.2205 -0.0240 -0.0972
 4336TIP3    H134643   3.171   1.286   0.803  0.8866 -1.2250  1.2043
 4336TIP3    H234644   3.101   1.414   0.843 -1.2654 -1.1625 -2.3904
 4337TIP3   OH234645   6.175   4.959   1.284 -0.4631  0.1953  0.8888
 4337TIP3    H134646   6.100   4.958   1.344 -0.5090 -3.2434  0.9917
 4337TIP3    H234647   6.238   4.898   1.323  0.2652 -0.8274 -1.6491
 4338TIP3   OH234648   2.234   6.169   8.300 -0.3330 -0.1550 -0.3502
 4338TIP3    H134649   2.211   6.099   8.360  0.8421 -0.3278 -0.0829
 4338TIP3    H234650   2.167   6.165   8.231 -0.1682 -1.6718 -0.4510
 4339TIP3   OH234651   3.605   6.065   1.640  0.6320  0.1100 -0.0620
 4339TIP3    H134652   3.553   6.041   1.716  0.5952  1.2026  0.2642
 4339TIP3    H234653   3.688   6.018   1.651  1.4565  1.8440  1.7570
 4340TIP3   OH234654   4.741   4.577   1.486 -0.4419 -0.2072  0.1475
 4340TIP3    H134655   4.721   4.582   1.579  2.3408 -0.9557  0.8808
 4340TIP3    H234656   4.696   4.498   1.456 -0.5058 -0.5561  1.1211
 4341TIP3   OH234657   1.563   2.639   0.414 -0.0368  0.4361 -0.3504
 4341TIP3    H134658   1.619   2.580   0.464  0.2167  0.3650 -0.7111
 4341TIP3    H234659   1.476   2.598   0.417  0.0540  0.2494 -0.2647
 4342TIP3   OH234660   3.509   5.737   7.793 -0.1532 -0.4445 -0.1817
 4342TIP3    H134661   3.545   5.659   7.750  1.6567 -0.4684  1.2410
 4342TIP3    H234662   3.414   5.728   7.785  0.0651 -1.9999 -1.3922
 4343TIP3   OH234663   5.469   4.706   1.533 -0.3656 -0.5809  0.4879
 4343TIP3    H134664   5.547   4.733   1.582 -0.0355 -0.8208  0.1041
 4343TIP3    H234665   5.404   4.687   1.600 -0.4331  0.6289  0.7913
 4344TIP3   OH234666   4.900   2.170   0.153  0.5653 -0.4440 -0.3642
 4344TIP3    H134667   4.927   2.239   0.213  0.4900  0.0856 -0.9328
 4344TIP3    H234668   4.921   2.204   0.066 -1.9877  0.0795 -0.8747
 4345TIP3   OH234669   0.646   4.377   1.956  0.7879  0.1204 -0.3703
 4345TIP3    H134670   0.735   4.411   1.944  0.5134  0.9318 -0.1155
 4345TIP3    H234671   0.657   4.282   1.955  1.5510  0.2003 -1.1940
 4346TIP3   OH234672   0.869   1.244   7.649  0.1085 -0.1039 -0.0155
 4346TIP3    H134673   0.811   1.318   7.632  1.1420  0.7369  0.0139
 4346TIP3    H234674   0.907   1.263   7.735 -0.0889 -1.0034  0.2841
 4347TIP3   OH234675   5.187   3.292   0.787  0.3150  0.6313 -0.0445
 4347TIP3    H134676   5.113   3.331   0.834 -0.9651 -0.7112 -0.8331
 4347TIP3    H234677   5.150   3.212   0.749  2.2027 -0.0810 -0.4502
 4348TIP3   OH234678   2.770   0.856   7.662 -0.1878 -0.0968 -0.0885
 4348TIP3    H134679   2.702   0.795   7.636  0.1036 -0.2695 -0.4605
 4348TIP3    H234680   2.837   0.847   7.594 -0.2841  0.8696 -0.3254
 4349TIP3   OH234681   2.415   5.672   0.823 -0.5282 -0.0081  0.3026
 4349TIP3    H134682   2.467   5.641   0.897 -0.5003  2.5404  1.4609
 4349TIP3    H234683   2.327   5.682   0.859 -1.0265 -0.8426 -0.6489
 4350TIP3   OH234684   6.104   5.175   0.211  0.1814  0.1277  0.0069
 4350TIP3    H134685   6.188   5.192   0.168  0.4162 -0.2858  0.3016
 4350TIP3    H234686   6.041   5.173   0.139  0.5625 -0.5025 -0.3153
 4351TIP3   OH234687   3.202   4.841   2.188  0.4071 -0.0914  0.5397
 4351TIP3    H134688   3.275   4.902   2.195  0.6301 -0.5248  2.9784
 4351TIP3    H234689   3.163   4.858   2.102  2.8945  0.6745 -0.5064
 4352TIP3   OH234690   0.835   4.140   0.773  0.0719 -0.3452  0.2877
 4352TIP3    H134691   0.929   4.155   0.766 -0.1893  1.6831  0.4813
 4352TIP3    H234692   0.820   4.120   0.865  0.0495  1.9414  0.8378
 4353TIP3   OH234693   5.293   2.783   7.813 -0.3005  0.2310 -0.0986
 4353TIP3    H134694   5.199   2.766   7.824 -0.1244 -1.0813 -0.5045
 4353TIP3    H234695   5.316   2.840   7.886 -0.7713 -1.9273  1.8373
 4354TIP3   OH234696   6.352   4.770   7.485  0.4497  0.0411 -0.6068
 4354TIP3    H134697   6.331   4.827   7.411 -1.4504 -0.3311 -0.4108
 4354TIP3    H234698   6.397   4.695   7.445 -0.5329 -0.1471 -1.4031
 4355TIP3   OH234699   2.679   5.302   8.587 -0.0352  0.0379 -0.9021
 4355TIP3    H134700   2.691   5.234   8.654 -1.9319 -0.4307 -0.9995
 4355TIP3    H234701   2.688   5.384   8.635 -1.1178 -0.2955 -0.0853
 4356TIP3   OH234702   3.390   3.620   2.796 -0.1470  0.1884 -0.1603
 4356TIP3    H134703   3.408   3.580   2.711  0.0379  0.1658 -0.1105
 4356TIP3    H234704   3.351   3.705   2.774  2.1952  1.2859 -0.3108
 4357TIP3   OH234705   6.497   3.508   7.745  0.0150  0.6498  0.8271
 4357TIP3    H134706   6.451   3.435   7.786  1.0023  0.9712  2.6003
 4357TIP3    H234707   6.504   3.483   7.653 -2.4132 -0.0249  0.7566
 4358TIP3   OH234708   4.233   2.835   0.963  0.7819  0.9859 -0.0922
 4358TIP3    H134709   4.142   2.864   0.969  0.0429 -0.9453 -1.1528
 4358TIP3    H234710   4.281   2.914   0.939 -0.8862  1.6689 -1.4137
 4359TIP3   OH234711   0.964   0.378   8.637 -0.1684  0.2195  0.2173
 4359TIP3    H134712   1.052   0.417   8.644  0.5664 -1.4026  0.4216
 4359TIP3    H234713   0.959   0.346   8.547 -0.3038 -0.2393  0.3831
 4360TIP3   OH234714   3.583   2.893   0.217 -0.1620  0.0824  0.1749
 4360TIP3    H134715   3.678   2.884   0.229 -0.5418 -3.5413  1.6207
 4360TIP3    H234716   3.573   2.914   0.125  2.0500  0.4797 -0.0391
 4361TIP3   OH234717   4.546   4.699   1.104 -0.1683  0.3193  0.4674
 4361TIP3    H134718   4.535   4.625   1.164  0.5829  0.5985  0.9624
 4361TIP3    H234719   4.538   4.661   1.017  0.2097 -0.3436  0.7197
 4362TIP3   OH234720   2.193   6.853   2.554  0.0292  0.2845  0.3192
 4362TIP3    H134721   2.232   6.802   2.483  1.2481  1.2715  0.2489
 4362TIP3    H234722   2.263   6.862   2.618 -1.0068 -0.4783  1.6299
 4363TIP3   OH234723   3.485   2.048   8.413  0.1948 -0.1382 -0.0060
 4363TIP3    H134724   3.581   2.054   8.415  0.1353  0.8625  1.7995
 4363TIP3    H234725   3.467   1.972   8.358  2.0362 -0.5170 -0.1474
 4364TIP3   OH234726   3.070   1.779   0.843  0.3234 -0.0164 -0.1180
 4364TIP3    H134727   3.058   1.823   0.759 -0.5321  0.6564  0.3427
 4364TIP3    H234728   3.157   1.807   0.872  0.4535  0.0733 -0.5847
 4365TIP3   OH234729   5.945   0.555   0.399 -0.1103 -0.2404  0.2793
 4365TIP3    H134730   5.876   0.615   0.426  0.4751  0.3334  0.5256
 4365TIP3    H234731   5.957   0.573   0.305  1.6047  1.6707  0.7906
 4366TIP3   OH234732   4.953   6.607   0.296 -0.2352 -0.5524 -0.0559
 4366TIP3    H134733   5.021   6.669   0.322 -1.5428  0.5307  0.9556
 4366TIP3    H234734   4.998   6.543   0.240  0.9779  1.8038 -1.9161
 4367TIP3   OH234735   4.670   1.365   7.144  0.4413 -0.5905  0.4192
 4367TIP3    H134736   4.630   1.430   7.202  1.6929  0.0789  0.5822
 4367TIP3    H234737   4.724   1.417   7.085  2.1698 -1.5136  1.1150
 4368TIP3   OH234738   3.852   2.681   1.273  0.1477 -0.4237  0.1468
 4368TIP3    H134739   3.821   2.694   1.184 -0.5856 -1.7756  0.1639
 4368TIP3    H234740   3.932   2.733   1.280 -0.2814  0.4082 -1.0050
 4369TIP3   OH234741   5.218   5.309   0.641  0.4804 -0.3265  0.0151
 4369TIP3    H134742   5.159   5.353   0.580  1.6289 -1.7700 -2.2912
 4369TIP3    H234743   5.185   5.219   0.647 -0.1042 -0.0226  2.2751
 4370TIP3   OH234744   0.521   2.665   8.190 -0.3208  0.7744 -0.0111
 4370TIP3    H134745   0.573   2.722   8.132 -1.0856 -0.3041 -1.8365
 4370TIP3    H234746   0.468   2.613   8.130 -1.1024 -0.4609  1.7013
 4371TIP3   OH234747   1.529   3.349   7.325 -0.2397  0.0029  0.0195
 4371TIP3    H134748   1.541   3.442   7.309 -1.8735 -0.1504 -2.7418
 4371TIP3    H234749   1.538   3.308   7.239  1.3502 -2.5514  1.2803
 4372TIP3   OH234750   3.304   3.353   0.609  0.2946 -0.1476  0.5149
 4372TIP3    H134751   3.355   3.343   0.529  0.1668 -2.0611  0.6184
 4372TIP3    H234752   3.365   3.334   0.680  0.1522  0.5109  0.8255
 4373TIP3   OH234753   5.330   1.238   8.617  0.2041  0.0709  0.0615
 4373TIP3    H134754   5.346   1.145   8.632 -2.2576 -0.2555  1.1753
 4373TIP3    H234755   5.308   1.273   8.703 -1.9754  0.9440 -0.7545
 4374TIP3   OH234756   4.824   1.632   1.453 -0.1795  0.4701  0.3877
 4374TIP3    H134757   4.745   1.606   1.406  0.4435  0.2046 -0.5444
 4374TIP3    H234758   4.838   1.724   1.428 -0.4011  0.6306  0.8503
 4375TIP3   OH234759   5.495   2.624   0.686 -0.3124 -0.2912 -0.5308
 4375TIP3    H134760   5.544   2.662   0.613  0.5607 -0.6602 -0.1525
 4375TIP3    H234761   5.473   2.536   0.657 -1.1072  0.0036 -0.8518
 4376TIP3   OH234762   3.192   2.836   0.482  0.7467 -0.2462 -0.1475
 4376TIP3    H134763   3.180   2.904   0.549  1.3041 -0.8824  0.6199
 4376TIP3    H234764   3.248   2.877   0.416 -1.7209  1.2075 -1.4810
 4377TIP3   OH234765   3.432   0.247   0.765 -0.2587  0.1547  0.4903
 4377TIP3    H134766   3.476   0.180   0.817 -0.9587 -1.8708 -1.3511
 4377TIP3    H234767   3.476   0.244   0.680 -0.8323  1.4895  0.1257
 4378TIP3   OH234768   3.896   0.125   0.881  0.1722 -0.5069 -0.0669
 4378TIP3    H134769   3.944   0.114   0.799 -0.7603 -1.4208 -0.5080
 4378TIP3    H234770   3.844   0.205   0.868  1.2023  0.2299  0.2426
 4379TIP3   OH234771   2.821   2.041   8.317  0.9879  0.5518 -0.4065
 4379TIP3    H134772   2.895   1.981   8.321  0.7887  0.3156 -0.2496
 4379TIP3    H234773   2.827   2.080   8.229  1.0765  0.2496 -0.5358
 4380TIP3   OH234774   0.789   2.784   6.523  0.2799  0.5303  0.2037
 4380TIP3    H134775   0.772   2.871   6.559  2.9623  0.1786  2.7538
 4380TIP3    H234776   0.876   2.790   6.485 -0.3780 -0.5487 -1.5918
 4381TIP3   OH234777   1.328   3.367   2.539  0.3435  0.1556  0.0183
 4381TIP3    H134778   1.342   3.391   2.448  1.3523 -0.2220  0.0562
 4381TIP3    H234779   1.246   3.410   2.563 -0.2584 -0.2580 -1.2346
 4382TIP3   OH234780   0.124   5.375   2.436 -0.7589  0.3507 -0.5824
 4382TIP3    H134781   0.099   5.392   2.527 -0.0187  1.4713 -0.5629
 4382TIP3    H234782   0.166   5.456   2.408  2.5693 -1.2625 -0.7058
 4383TIP3   OH234783   4.791   3.201   7.143 -0.7521  0.8259 -0.4374
 4383TIP3    H134784   4.747   3.284   7.128 -1.8658  0.0673 -1.5196
 4383TIP3    H234785   4.753   3.141   7.078  0.3038 -0.4248  0.0543
 4384TIP3   OH234786   0.850   0.662   8.443  0.5401  0.3953  0.0045
 4384TIP3    H134787   0.785   0.591   8.437  0.7186  0.1211  1.0896
 4384TIP3    H234788   0.797   0.741   8.452  0.3386  0.1902  0.7052
 4385TIP3   OH234789   3.891   5.595   1.789 -0.3312  0.0730  0.2012
 4385TIP3    H134790   3.945   5.591   1.867 -0.9669  0.1171  0.6557
 4385TIP3    H234791   3.947   5.634   1.722  0.2300 -0.0021  0.6209
 4386TIP3   OH234792   3.207   6.651   8.199 -0.4073  0.1449  0.0194
 4386TIP3    H134793   3.198   6.560   8.228 -0.1575  0.3516  0.7767
 4386TIP3    H234794   3.118   6.686   8.205 -0.3411  0.2117  0.6401
 4387TIP3   OH234795   0.411   3.098   0.658  0.2290 -0.0541  0.1723
 4387TIP3    H134796   0.493   3.144   0.640  0.1938 -0.7967 -2.2629
 4387TIP3    H234797   0.354   3.122   0.585 -2.0272  0.9658  2.1203
 4388TIP3   OH234798   4.690   1.085   1.083 -0.0805  0.2203  0.1617
 4388TIP3    H134799   4.698   1.157   1.146  2.1203  0.4160 -0.2501
 4388TIP3    H234800   4.620   1.030   1.118  0.5646  0.7245  2.3846
 4389TIP3   OH234801   6.624   2.940   7.869 -0.2885  0.1764 -0.6151
 4389TIP3    H134802   6.711   2.959   7.904  0.2570  0.0091 -1.8067
 4389TIP3    H234803   6.582   2.887   7.936  0.1222  1.1679  0.4494
 4390TIP3   OH234804   1.333   5.000   0.785  0.2441  0.8156  0.0163
 4390TIP3    H134805   1.296   5.070   0.838 -0.3619  0.3189  0.2691
 4390TIP3    H234806   1.257   4.952   0.752  0.5189  2.0545 -2.6668
 4391TIP3   OH234807   5.395   1.876   2.004 -0.2196  0.0944 -0.3799
 4391TIP3    H134808   5.475   1.873   2.056  0.9834 -1.0932 -2.1965
 4391TIP3    H234809   5.407   1.951   1.945 -0.8543  0.4507 -0.0710
 4392TIP3   OH234810   0.602   2.299   0.421  0.3792 -0.2286  0.0816
 4392TIP3    H134811   0.625   2.214   0.460 -0.4739 -0.9349 -0.8928
 4392TIP3    H234812   0.551   2.343   0.489  2.0728  0.1639  1.1639
 4393TIP3   OH234813   1.956   0.382   1.186  0.1134 -0.2555 -1.1122
 4393TIP3    H134814   2.051   0.388   1.196  0.1477  0.1857 -1.6999
 4393TIP3    H234815   1.922   0.415   1.270  0.4586  0.7874 -1.3631
 4394TIP3   OH234816   6.125   4.337   2.442 -0.4917 -0.1974 -0.3628
 4394TIP3    H134817   6.211   4.345   2.483 -0.0823 -1.9893 -0.8006
 4394TIP3    H234818   6.136   4.379   2.356 -0.4953  0.8804  0.1512
 4395TIP3   OH234819   6.605   4.967   1.948 -0.4345  0.2511 -0.1333
 4395TIP3    H134820   6.667   5.027   1.989 -2.2527  1.4693  0.9797
 4395TIP3    H234821   6.588   4.900   2.014 -2.0174  1.2229  0.4900
 4396TIP3   OH234822   6.240   2.773   7.259  0.2488  0.4830  0.2956
 4396TIP3    H134823   6.219   2.745   7.348 -0.4148 -1.7849 -0.4975
 4396TIP3    H234824   6.306   2.842   7.270  1.8916 -1.2961  2.4810
 4397TIP3   OH234825   1.796   2.808   3.013 -0.1405 -0.7491 -0.5721
 4397TIP3    H134826   1.731   2.868   2.974 -0.3323 -0.8212 -0.3653
 4397TIP3    H234827   1.782   2.816   3.107 -0.9782 -2.0075 -0.5661
 4398TIP3   OH234828   0.555   3.506   2.858 -0.8472  0.1958 -0.6613
 4398TIP3    H134829   0.538   3.562   2.934 -1.3669 -0.2704 -0.4160
 4398TIP3    H234830   0.648   3.483   2.865 -0.7578  0.6040 -0.4804
 4399TIP3   OH234831   1.294   0.440   0.443  0.6821  0.5812 -0.2643
 4399TIP3    H134832   1.372   0.423   0.495  1.8641  0.6427 -1.9413
 4399TIP3    H234833   1.307   0.391   0.363 -0.8048  0.9686 -0.7777
 4400TIP3   OH234834   1.782   6.397   8.402 -0.2000  0.0707  0.1939
 4400TIP3    H134835   1.767   6.469   8.340  0.8027  0.5570  0.4875
 4400TIP3    H234836   1.696   6.380   8.440 -0.3849  1.4394  0.4529
 4401TIP3   OH234837   0.056   6.442   2.072  0.6706 -0.4495  0.1921
 4401TIP3    H134838   0.127   6.396   2.116 -0.3401 -1.3335  0.9668
 4401TIP3    H234839  -0.024   6.400   2.104 -0.2704  1.2214  0.1969
 4402TIP3   OH234840   2.436   1.517   8.197 -0.3296 -0.4431 -0.5674
 4402TIP3    H134841   2.350   1.481   8.218 -0.4890 -0.2463 -0.8688
 4402TIP3    H234842   2.496   1.443   8.204 -0.6679 -0.8008 -1.2944
 4403TIP3   OH234843   2.419   2.432   0.110 -0.1222  0.2109 -0.0171
 4403TIP3    H134844   2.390   2.421   0.020 -0.9649  0.8295  0.1789
 4403TIP3    H234845   2.353   2.386   0.163  0.7825 -0.8399  0.2526
 4404TIP3   OH234846   5.312   5.385   7.467 -0.2368  0.7194  0.7804
 4404TIP3    H134847   5.290   5.293   7.449 -0.9956  0.9865  0.2992
 4404TIP3    H234848   5.323   5.425   7.381  1.2282  0.8395  0.9928
 4405TIP3   OH234849   5.340   0.769   7.699 -0.0408 -0.2583  0.4461
 4405TIP3    H134850   5.307   0.702   7.639  0.6578  0.5223 -0.8336
 4405TIP3    H234851   5.289   0.756   7.779  0.1213 -2.3705  0.2698
 4406TIP3   OH234852   3.265   5.456   0.150  0.6120  0.7126  0.1113
 4406TIP3    H134853   3.274   5.471   0.056 -0.3918 -0.4263 -0.1893
 4406TIP3    H234854   3.190   5.397   0.158 -0.6032  2.3884  1.7790
 4407TIP3   OH234855   3.625   3.726   2.566  0.1224 -0.1864 -0.4132
 4407TIP3    H134856   3.639   3.818   2.542 -0.7904 -0.3127 -1.4984
 4407TIP3    H234857   3.531   3.717   2.574  0.2188 -0.9927 -0.0938
 4408TIP3   OH234858   2.132   3.671   0.808 -0.3093  0.2124 -0.0260
 4408TIP3    H134859   2.221   3.638   0.825 -0.8715 -0.7718  1.2239
 4408TIP3    H234860   2.134   3.699   0.717  1.2290  0.0166 -0.0880
 4409TIP3   OH234861   6.825   0.607   1.233  0.4248 -0.0212 -0.1774
 4409TIP3    H134862   6.814   0.538   1.298  0.7313  0.1824  0.0954
 4409TIP3    H234863   6.821   0.562   1.148 -1.4509 -0.0965 -0.0847
 4410TIP3   OH234864   5.148   0.323   2.992  0.3464  0.1515  0.4983
 4410TIP3    H134865   5.218   0.306   3.055  0.6550  0.0841  0.1425
 4410TIP3    H234866   5.095   0.243   2.993  0.1040  0.3175  0.9837
 4411TIP3   OH234867   3.756   1.965   8.344  1.1375 -0.0283 -0.1273
 4411TIP3    H134868   3.763   1.966   8.248 -1.5591 -1.4322 -0.4454
 4411TIP3    H234869   3.753   1.872   8.366 -0.2535  0.2682  1.0896
 4412TIP3   OH234870   1.725   1.833   1.255 -0.1477 -0.4366  0.1938
 4412TIP3    H134871   1.684   1.802   1.174  2.3355 -1.5276 -0.7363
 4412TIP3    H234872   1.783   1.904   1.226 -1.0138  0.8085  1.4116
 4413TIP3   OH234873   1.747   2.123   0.650 -0.4629 -0.3838 -0.6401
 4413TIP3    H134874   1.693   2.194   0.618  0.7375  1.2563  0.7602
 4413TIP3    H234875   1.833   2.138   0.611 -0.0553 -0.7163  0.0929
 4414TIP3   OH234876   1.611   0.836   8.627  0.5873 -0.1544  0.1170
 4414TIP3    H134877   1.543   0.791   8.677  1.0993 -1.6278 -0.4485
 4414TIP3    H234878   1.565   0.906   8.581 -0.1989  0.0617  1.2078
 4415TIP3   OH234879   6.644   2.179   8.646  0.1454  0.5268 -0.4591
 4415TIP3    H134880   6.595   2.107   8.606 -1.0623  2.5076 -2.7709
 4415TIP3    H234881   6.666   2.147   8.734 -2.8569 -1.5786 -0.3272
 4416TIP3   OH234882   3.544   0.343   8.690 -0.7061  0.2050 -0.0897
 4416TIP3    H134883   3.469   0.284   8.696  0.1618 -0.7457  3.2322
 4416TIP3    H234884   3.599   0.305   8.621 -2.6789  0.3363 -1.8471
 4417TIP3   OH234885   6.375   3.619   8.214 -0.2041  0.1214 -0.2106
 4417TIP3    H134886   6.455   3.667   8.235  0.5476 -1.0035 -0.3746
 4417TIP3    H234887   6.347   3.654   8.129  0.0028  0.6696 -0.0532
 4418TIP3   OH234888   2.348   6.800   7.121  0.4663 -0.1809 -0.5619
 4418TIP3    H134889   2.380   6.740   7.054 -2.0295 -1.1647 -0.9490
 4418TIP3    H234890   2.292   6.862   7.074  1.3706  1.2309  0.1526
 4419TIP3   OH234891   1.452   2.602   1.425  0.0450 -0.8197 -0.1557
 4419TIP3    H134892   1.380   2.601   1.488  0.2962 -0.9276  0.1290
 4419TIP3    H234893   1.513   2.668   1.459 -0.1948 -0.2962 -0.7106
 4420TIP3   OH234894   0.393   0.911   7.167 -0.1279 -0.6741  0.3613
 4420TIP3    H134895   0.367   1.001   7.187 -1.0458 -0.8163 -0.1176
 4420TIP3    H234896   0.465   0.920   7.105  2.5037 -0.2266  3.2044
 4421TIP3   OH234897   2.776   4.678   0.334 -0.2748  0.4304  0.1079
 4421TIP3    H134898   2.707   4.713   0.277 -1.3354  0.6583  1.4844
 4421TIP3    H234899   2.847   4.654   0.274 -1.6420 -0.0479 -1.3672
 4422TIP3   OH234900   0.364   6.673   1.552 -0.0425  0.3375  0.1046
 4422TIP3    H134901   0.459   6.685   1.541 -0.0847  1.4334  0.7410
 4422TIP3    H234902   0.329   6.677   1.463  0.4159  0.8985 -0.0591
 4423TIP3   OH234903   5.929   6.162   0.684 -0.0185  0.0675  0.2448
 4423TIP3    H134904   5.982   6.082   0.682 -0.8191 -0.4678  0.1367
 4423TIP3    H234905   5.985   6.228   0.642  0.8325 -0.3117  0.7484
 4424TIP3   OH234906   0.882   4.037   0.128 -0.0900 -0.9360 -0.4598
 4424TIP3    H134907   0.826   3.960   0.136 -0.8177 -0.2101  3.5276
 4424TIP3    H234908   0.912   4.054   0.218  0.8757  2.8070 -1.3205
 4425TIP3   OH234909   3.590   5.031   1.734 -0.4665  0.8783 -0.4608
 4425TIP3    H134910   3.650   5.084   1.681  1.6879  1.8269  2.6308
 4425TIP3    H234911   3.520   5.091   1.759 -0.2118  1.1069 -0.2959
 4426TIP3   OH234912   3.389   2.489   7.737  0.1550 -0.2579  0.2977
 4426TIP3    H134913   3.455   2.479   7.806 -0.0045  0.4914  0.5632
 4426TIP3    H234914   3.438   2.520   7.661 -0.0605  1.6838  0.8916
 4427TIP3   OH234915   3.166   4.954   1.585  0.3378  0.7021 -1.0110
 4427TIP3    H134916   3.080   4.933   1.548 -0.2034  0.5509  0.3127
 4427TIP3    H234917   3.209   4.869   1.595  1.0574  0.8389 -2.5777
 4428TIP3   OH234918   0.924   3.917   8.356 -0.0185  0.0301 -0.3484
 4428TIP3    H134919   0.917   3.882   8.445 -1.9960  1.0168 -0.0818
 4428TIP3    H234920   1.016   3.943   8.348  0.3366 -0.6687  1.1531
 4429TIP3   OH234921   5.670   4.924   0.598 -0.1471 -0.5306 -0.2572
 4429TIP3    H134922   5.578   4.942   0.577 -0.1468  0.2564  0.3563
 4429TIP3    H234923   5.666   4.851   0.660 -0.5900  1.2428  1.9461
 4430TIP3   OH234924   1.716   0.567   7.704 -0.5853 -0.4607  0.1399
 4430TIP3    H134925   1.714   0.535   7.794  0.1962  2.3664  1.2753
 4430TIP3    H234926   1.806   0.552   7.676  0.6341  2.9978  1.7047
 4431TIP3   OH234927   1.843   1.042   0.200 -0.1841  0.1700  0.6740
 4431TIP3    H134928   1.778   0.976   0.174 -0.3457  0.3926  0.4978
 4431TIP3    H234929   1.898   0.999   0.264 -0.7946  0.1154  1.1765
 4432TIP3   OH234930   2.551   5.862   1.442  0.0771  0.1326 -0.4359
 4432TIP3    H134931   2.602   5.843   1.520  3.7285 -1.3483 -2.9081
 4432TIP3    H234932   2.575   5.951   1.418 -1.5286  0.8241  0.3608
 4433TIP3   OH234933   3.247   2.369   0.373 -0.1397 -0.2428 -0.3984
 4433TIP3    H134934   3.232   2.306   0.303  1.7791 -2.6086  1.1486
 4433TIP3    H234935   3.188   2.341   0.443  0.9385 -0.5597  0.4152
 4434TIP3   OH234936   3.660   5.973   0.660  0.1293 -0.1838 -0.3574
 4434TIP3    H134937   3.705   5.930   0.733 -1.8987  1.2719  1.8582
 4434TIP3    H234938   3.611   5.902   0.618 -0.8443 -0.6055  1.4055
 4435TIP3   OH234939   4.628   5.539   3.019 -0.0634  0.2499 -0.2001
 4435TIP3    H134940   4.653   5.626   2.987  1.4915  0.3452  1.1127
 4435TIP3    H234941   4.533   5.536   3.009  0.0134  1.4698 -1.7516
 4436TIP3   OH234942   1.584   4.095   8.487  0.0200 -0.1364 -0.1483
 4436TIP3    H134943   1.662   4.148   8.504  1.4210 -2.7869  2.5811
 4436TIP3    H234944   1.548   4.077   8.573  0.1478 -4.1772 -0.7438
 4437TIP3   OH234945   0.852   6.289   2.280 -0.7020 -0.2241  0.1526
 4437TIP3    H134946   0.867   6.361   2.341 -0.3870 -1.1664  1.2248
 4437TIP3    H234947   0.770   6.250   2.309 -0.0147 -1.3377  0.6718
 4438TIP3   OH234948   1.799   4.303   8.837  0.2694 -0.2490 -0.8920
 4438TIP3    H134949   1.800   4.207   8.833  2.0961 -0.2669 -0.5706
 4438TIP3    H234950   1.821   4.323   8.928 -0.1544  0.4893 -0.9458
 4439TIP3   OH234951   5.325   4.356   2.098 -0.3060  0.5301  0.2150
 4439TIP3    H134952   5.282   4.423   2.044  2.0158  1.6538 -0.3709
 4439TIP3    H234953   5.375   4.406   2.163  0.6321 -0.6726  0.4602
 4440TIP3   OH234954   2.291   6.687   8.503 -0.5787  0.2671 -0.0832
 4440TIP3    H134955   2.322   6.645   8.583 -1.2044 -2.0140 -0.9520
 4440TIP3    H234956   2.220   6.630   8.473  0.1831  0.5872 -2.6809
 4441TIP3   OH234957   5.140   3.257   0.363 -0.2946  0.4582  0.6653
 4441TIP3    H134958   5.167   3.348   0.375  2.0756  0.2492 -2.2144
 4441TIP3    H234959   5.079   3.259   0.289 -0.2483 -0.3101  0.5946
 4442TIP3   OH234960   0.976   5.210   0.600 -0.1672  0.2563  0.2628
 4442TIP3    H134961   0.892   5.202   0.646  1.1769  0.4715  2.9483
 4442TIP3    H234962   0.994   5.123   0.567  0.1607 -0.7235  2.8023
 4443TIP3   OH234963   0.351   3.329   2.727 -0.6709 -0.2456  0.4468
 4443TIP3    H134964   0.314   3.329   2.639  1.2074  0.7615 -0.4127
 4443TIP3    H234965   0.312   3.404   2.770 -0.3246  0.2834 -0.1433
 4444TIP3   OH234966   5.629   2.392   1.288  0.4347  0.2001 -0.1715
 4444TIP3    H134967   5.677   2.377   1.369 -0.4873 -1.7786  0.0576
 4444TIP3    H234968   5.696   2.409   1.222  1.8422 -4.6508 -0.3674
 4445TIP3   OH234969   0.506   6.532   8.439  0.2456 -0.1964  0.0298
 4445TIP3    H134970   0.541   6.596   8.501  0.3067  0.3520 -0.5592
 4445TIP3    H234971   0.505   6.578   8.355  0.2169 -0.9451 -0.3908
 4446TIP3   OH234972   6.328   5.095   1.536  0.2579 -0.4909  0.3031
 4446TIP3    H134973   6.354   5.110   1.627  2.8317 -1.8671 -0.1103
 4446TIP3    H234974   6.307   5.001   1.532 -1.7955 -0.0596 -0.1441
 4447TIP3   OH234975   2.976   1.190   1.090  0.6029  0.2714  0.3541
 4447TIP3    H134976   3.029   1.216   1.014  0.2792  0.1413  0.0768
 4447TIP3    H234977   2.992   1.097   1.099 -0.3108  0.0278 -0.3358
 4448TIP3   OH234978   2.402   4.251   0.369 -0.2423 -0.4879  0.0121
 4448TIP3    H134979   2.453   4.271   0.447 -1.1310  3.4562 -0.2298
 4448TIP3    H234980   2.437   4.167   0.338  2.4963 -0.4750  2.6643
 4449TIP3   OH234981   5.454   2.080   0.026  0.2281 -0.5710  0.2003
 4449TIP3    H134982   5.363   2.110   0.017  0.1277 -0.6285  1.0091
 4449TIP3    H234983   5.482   2.065  -0.064 -0.6414 -0.7826 -0.0479
 4450TIP3   OH234984   5.025   2.694   0.306 -0.0129 -0.2236 -0.1881
 4450TIP3    H134985   4.989   2.681   0.394 -0.4152 -0.6510 -0.4098
 4450TIP3    H234986   5.116   2.719   0.321 -0.2471  0.3414  0.3718
 4451TIP3   OH234987   1.838   0.842   7.790 -0.6755  0.1687 -0.7039
 4451TIP3    H134988   1.806   0.835   7.880 -0.4480  2.7690 -0.3484
 4451TIP3    H234989   1.828   0.753   7.755 -2.0916 -0.6103  1.4118
 4452TIP3   OH234990   6.761   5.586   8.732  0.8046  0.2436 -0.2268
 4452TIP3    H134991   6.850   5.586   8.698  0.6181 -1.8344 -0.8438
 4452TIP3    H234992   6.771   5.578   8.827  1.2678  0.0207 -0.2942
 4453TIP3   OH234993   2.067   6.853   0.080  0.5228 -0.5834 -0.1066
 4453TIP3    H134994   2.099   6.921   0.140 -1.1609 -0.2860  0.4987
 4453TIP3    H234995   2.088   6.887  -0.007 -0.2862  0.7525  0.1843
 4454TIP3   OH234996   0.839   3.958   1.747 -0.2629 -0.6103 -0.3299
 4454TIP3    H134997   0.752   3.939   1.782 -0.9832  1.1786 -1.0315
 4454TIP3    H234998   0.845   4.053   1.748  1.8235 -0.6905 -0.0392
 4455TIP3   OH234999   6.070   6.475   0.844  0.2391  0.4607 -0.1639
 4455TIP3    H135000   6.127   6.545   0.813  1.7181 -0.4869  0.3530
 4455TIP3    H235001   6.090   6.466   0.937 -1.8216  1.0716  0.4027
 4456TIP3   OH235002   1.552   3.788   2.594 -0.0430  0.4642  0.5197
 4456TIP3    H135003   1.605   3.743   2.660  0.0530  0.0677  0.1802
 4456TIP3    H235004   1.590   3.875   2.587  0.2057  0.3683  0.6898
 4457TIP3   OH235005   3.644   5.495   0.940 -0.0937 -0.1005  0.4071
 4457TIP3    H135006   3.575   5.497   1.007 -0.6943  0.9276 -0.2209
 4457TIP3    H235007   3.639   5.581   0.899  0.9856 -0.3438 -0.2462
 4458TIP3   OH235008   3.911   2.887   2.298  0.2831 -0.0323  0.0538
 4458TIP3    H135009   3.987   2.901   2.354 -0.1193  0.4379  0.5002
 4458TIP3    H235010   3.947   2.861   2.213  0.8491 -3.2034  1.1700
 4459TIP3   OH235011   4.545   0.909   1.224 -0.0056 -0.5238 -0.5764
 4459TIP3    H135012   4.490   0.952   1.289  0.2071 -1.1801  0.0469
 4459TIP3    H235013   4.600   0.849   1.275  0.8757 -0.3091 -1.2472
 4460TIP3   OH235014   1.007   4.849   8.311 -0.2382 -0.1686  0.0233
 4460TIP3    H135015   1.045   4.765   8.285 -2.2060 -0.9869 -0.4543
 4460TIP3    H235016   1.054   4.914   8.259  1.1392 -0.9877  0.2027
 4461TIP3   OH235017   5.702   4.578   1.377  0.2785  0.0388 -0.1873
 4461TIP3    H135018   5.616   4.621   1.375 -0.1687 -0.8025  0.3193
 4461TIP3    H235019   5.761   4.640   1.334 -0.3590  1.1159  0.4578
 4462TIP3   OH235020   6.575   3.865   0.783  0.2114  0.0272  0.1266
 4462TIP3    H135021   6.507   3.807   0.818 -1.2014  0.8135 -1.2006
 4462TIP3    H235022   6.574   3.848   0.689  1.8722  0.0678  0.0830
 4463TIP3   OH235023   6.243   3.766   0.114  0.0831  0.5833  0.4760
 4463TIP3    H135024   6.161   3.722   0.135  1.0264 -1.3613  0.3727
 4463TIP3    H235025   6.217   3.844   0.065 -1.8971  2.4514  4.1290
 4464TIP3   OH235026   3.085   0.704   1.586  0.1869  0.3458  0.1079
 4464TIP3    H135027   3.065   0.648   1.661  0.4937  0.6031  0.3904
 4464TIP3    H235028   3.104   0.790   1.625  1.5523  0.1907 -0.1461
 4465TIP3   OH235029   3.862   4.059   1.646 -0.1360  0.5503  0.0448
 4465TIP3    H135030   3.893   4.103   1.567 -1.1958  0.4193 -0.4619
 4465TIP3    H235031   3.786   4.109   1.673  0.1117  0.4842  0.8948
 4466TIP3   OH235032   3.156   4.484   8.815  0.0426  0.3385  0.2889
 4466TIP3    H135033   3.234   4.479   8.758  0.2304 -0.3460  0.5971
 4466TIP3    H235034   3.165   4.410   8.875 -0.8056  0.3060  0.3904
 4467TIP3   OH235035   3.898   5.617   7.575 -0.0394  0.4631 -0.7799
 4467TIP3    H135036   3.863   5.581   7.493  2.5613 -0.6039 -1.5275
 4467TIP3    H235037   3.926   5.706   7.552  0.1552  0.3757 -0.8775
 4468TIP3   OH235038   3.308   4.366   1.087  0.1103 -0.2806 -0.0225
 4468TIP3    H135039   3.222   4.389   1.054  0.6724 -0.1089 -1.4228
 4468TIP3    H235040   3.304   4.271   1.101 -1.0488  0.0266  2.3028
 4469TIP3   OH235041   5.670   1.048   0.119 -0.1137  0.0848 -0.6597
 4469TIP3    H135042   5.575   1.060   0.128 -0.1179 -0.3934 -0.0703
 4469TIP3    H235043   5.679   0.977   0.055 -0.1266  0.8230 -1.5161
 4470TIP3   OH235044   0.949   6.030   2.545  0.7004 -0.4356 -0.2416
 4470TIP3    H135045   0.945   6.122   2.572  0.2342 -0.0329 -1.5750
 4470TIP3    H235046   0.858   6.005   2.531  0.8274 -1.1192  0.1382
 4471TIP3   OH235047   1.643   4.660   2.168 -0.3239 -0.1384 -0.0358
 4471TIP3    H135048   1.581   4.728   2.194  0.8522  0.0911  2.5265
 4471TIP3    H235049   1.629   4.590   2.232  0.8035 -0.8582 -0.5525
 4472TIP3   OH235050   3.239   1.165   7.261 -0.5071  0.0796 -0.0484
 4472TIP3    H135051   3.220   1.252   7.297  0.3973  0.0200  0.5874
 4472TIP3    H235052   3.298   1.182   7.187 -0.9081  0.0518 -0.3829
 4473TIP3   OH235053   0.459   5.726   1.402  0.2598  0.1083  0.1794
 4473TIP3    H135054   0.529   5.774   1.446  0.8145 -0.3523 -0.1930
 4473TIP3    H235055   0.388   5.725   1.465  0.6318  0.4665  0.6129
 4474TIP3   OH235056   6.032   5.572   1.572 -0.2557  0.5016 -0.4316
 4474TIP3    H135057   6.030   5.483   1.606  0.9138  0.0479 -1.4714
 4474TIP3    H235058   5.978   5.569   1.493 -0.7626  0.8973 -0.1126
 4475TIP3   OH235059   4.757   0.053   1.160  0.0777 -0.1366  0.2264
 4475TIP3    H135060   4.782  -0.030   1.200 -1.8400 -0.1807  1.4617
 4475TIP3    H235061   4.662   0.051   1.158  0.0216  1.5510 -0.8281
 4476TIP3   OH235062   1.195   6.016   8.421 -0.3702 -0.4156 -0.0144
 4476TIP3    H135063   1.148   5.936   8.443 -1.6603 -0.6419 -3.0506
 4476TIP3    H235064   1.151   6.085   8.470 -1.0638 -1.2052  0.4945
 4477TIP3   OH235065   5.820   3.153   1.165  0.3157 -0.4350 -0.2707
 4477TIP3    H135066   5.783   3.087   1.223  1.1992 -1.7039 -1.1002
 4477TIP3    H235067   5.833   3.230   1.221  0.3679 -1.3376  1.0017
 4478TIP3   OH235068   5.669   4.824   1.157  0.2332  0.1633  0.4058
 4478TIP3    H135069   5.608   4.853   1.225  1.6619  3.3712  0.5031
 4478TIP3    H235070   5.694   4.904   1.112  1.6518 -1.4981 -1.9967
 4479TIP3   OH235071   4.968   5.567   3.032 -0.3853  0.9547 -1.2410
 4479TIP3    H135072   5.063   5.565   3.046 -0.5427 -0.4670 -0.1415
 4479TIP3    H235073   4.940   5.650   3.071  0.2453  0.7571 -0.3196
 4480TIP3   OH235074   2.143   6.458   8.215  0.1881 -0.5926  0.0798
 4480TIP3    H135075   2.134   6.378   8.266 -1.8096 -0.6615 -0.3035
 4480TIP3    H235076   2.230   6.452   8.175  0.9209 -1.5304  1.7439
 4481TIP3   OH235077   6.507   4.745   2.075 -0.1249  0.2163 -0.2519
 4481TIP3    H135078   6.551   4.677   2.023 -0.4462 -0.8761  0.8322
 4481TIP3    H235079   6.554   4.743   2.159 -1.6456 -0.3739  0.6282
 4482TIP3   OH235080   3.598   0.958   6.681  0.4752 -0.3117 -0.3243
 4482TIP3    H135081   3.532   0.949   6.612  0.5900 -1.3717 -0.3141
 4482TIP3    H235082   3.665   0.894   6.658  1.6285  0.8984 -0.4556
 4483TIP3   OH235083   4.686   3.063   0.950 -0.1899  0.0142  0.2869
 4483TIP3    H135084   4.710   3.026   1.034 -2.3297 -1.5549  0.2947
 4483TIP3    H235085   4.754   3.033   0.890 -0.1936 -1.3527  0.9239
 4484TIP3   OH235086   1.576   0.013   7.098 -0.1047 -0.2843 -0.4059
 4484TIP3    H135087   1.511   0.027   7.029 -2.2009 -0.1516  1.4859
 4484TIP3    H235088   1.594  -0.081   7.096 -1.6645 -0.6189  0.1008
 4485TIP3   OH235089   2.359   5.058   8.477 -0.3120  0.1494  0.1113
 4485TIP3    H135090   2.410   5.096   8.406  1.6721 -0.3782  1.1856
 4485TIP3    H235091   2.281   5.022   8.434 -0.1559  1.5701 -1.4843
 4486TIP3   OH235092   2.416   4.958   0.207  0.4729 -0.1950 -0.1957
 4486TIP3    H135093   2.420   5.049   0.238 -3.8666  0.6368 -1.3922
 4486TIP3    H235094   2.421   4.966   0.112 -0.4480 -1.0936 -0.3333
 4487TIP3   OH235095   0.232   3.038   1.335 -0.1637  0.6247 -0.5142
 4487TIP3    H135096   0.326   3.056   1.335  0.3081 -1.5551  0.4651
 4487TIP3    H235097   0.208   3.032   1.427 -0.9323 -0.3802 -0.7684
 4488TIP3   OH235098   2.918   6.704   8.155  0.0302 -0.2256  0.2021
 4488TIP3    H135099   2.827   6.728   8.138 -0.1512 -0.2979  1.0383
 4488TIP3    H235100   2.946   6.659   8.075 -1.5267 -2.6323  0.9083
 4489TIP3   OH235101   1.705   4.099   2.341 -0.1315 -0.4907  0.3212
 4489TIP3    H135102   1.673   4.180   2.382 -0.4028 -0.1423 -0.5628
 4489TIP3    H235103   1.627   4.059   2.303  0.5238  1.0156 -2.9969
 4490TIP3   OH235104   0.659   2.264   2.022 -0.4178 -0.2454 -0.6481
 4490TIP3    H135105   0.604   2.279   2.099  0.9128  1.6361  0.0028
 4490TIP3    H235106   0.720   2.195   2.048 -0.4346 -0.1118 -0.2596
 4491TIP3   OH235107   6.366   2.727   8.762 -0.1772  0.1302 -0.3690
 4491TIP3    H135108   6.366   2.756   8.671  0.0681  0.1286 -0.3699
 4491TIP3    H235109   6.456   2.739   8.791 -0.0827 -0.5838 -0.3552
 4492TIP3   OH235110   1.032   0.807   8.633 -0.2478  0.5263 -0.3030
 4492TIP3    H135111   1.071   0.858   8.562 -0.8838  0.0167 -1.0390
 4492TIP3    H235112   0.994   0.731   8.589 -0.1099 -0.1118  0.6734
 4493TIP3   OH235113   1.802   3.503   7.956 -0.2221  0.3690 -0.0393
 4493TIP3    H135114   1.758   3.453   8.025 -1.0703  1.3595  0.1677
 4493TIP3    H235115   1.737   3.568   7.929 -0.0734 -0.2538 -2.0783
 4494TIP3   OH235116   6.689   1.430   7.678  0.9102 -0.7272 -0.5176
 4494TIP3    H135117   6.676   1.503   7.618 -1.2874 -0.8221 -0.2175
 4494TIP3    H235118   6.659   1.353   7.630  0.3633 -0.9860  0.2137
 4495TIP3   OH235119   4.395   3.442   8.301 -0.1108 -0.1333 -0.5575
 4495TIP3    H135120   4.445   3.422   8.380 -0.9358 -0.4270 -0.0906
 4495TIP3    H235121   4.451   3.501   8.251  0.2160  0.4978  0.5086
 4496TIP3   OH235122   1.483   3.182   0.349 -0.2622  0.2112 -0.5759
 4496TIP3    H135123   1.391   3.205   0.361 -0.2451  0.3974 -0.8146
 4496TIP3    H235124   1.527   3.217   0.427  0.0534  2.5364 -1.6972
 4497TIP3   OH235125   6.272   5.342   8.411  0.3743  0.0402 -0.7450
 4497TIP3    H135126   6.306   5.256   8.438 -0.7139 -0.1043  0.2933
 4497TIP3    H235127   6.208   5.364   8.479  2.0266  2.6191  0.1382
 4498TIP3   OH235128   4.222   3.568   1.307  0.0702 -0.0684  0.0782
 4498TIP3    H135129   4.236   3.598   1.217 -1.5883 -0.5696 -0.3845
 4498TIP3    H235130   4.182   3.642   1.352 -2.1826 -0.8088 -0.5383
 4499TIP3   OH235131   1.517   0.962   1.688  0.2002 -0.0535  0.0558
 4499TIP3    H135132   1.581   0.891   1.683 -0.7605 -0.8886 -0.8538
 4499TIP3    H235133   1.540   1.019   1.615  1.9150  1.4570  1.6623
 4500TIP3   OH235134   2.566   4.255   1.185  0.8247 -0.2321  0.2037
 4500TIP3    H135135   2.658   4.261   1.160  0.7503  2.0563  0.2472
 4500TIP3    H235136   2.566   4.265   1.280  0.5640 -1.1379  0.3135
 4501TIP3   OH235137   1.370   5.786   2.081 -0.3206 -1.1138 -0.0177
 4501TIP3    H135138   1.318   5.831   2.147  1.4580  1.4109 -0.1776
 4501TIP3    H235139   1.449   5.758   2.127  1.4690  1.6672 -1.1077
 4502TIP3   OH235140   6.262   0.594   1.876 -0.1260 -0.4429  0.0719
 4502TIP3    H135141   6.220   0.592   1.962 -0.3354 -0.2817 -0.0286
 4502TIP3    H235142   6.352   0.564   1.893  0.2925  1.0154  0.6015
 4503TIP3   OH235143   0.730   2.724   1.872 -0.2436  0.3030  0.4184
 4503TIP3    H135144   0.763   2.790   1.933 -0.6889  0.5515  0.3978
 4503TIP3    H235145   0.645   2.758   1.844 -0.5350 -0.3458  0.5045
 4504TIP3   OH235146   2.851   0.167   8.006 -0.4566 -0.2965 -0.4458
 4504TIP3    H135147   2.917   0.166   8.075 -1.7302  0.6024  0.8239
 4504TIP3    H235148   2.897   0.201   7.929  0.8386 -0.7808  0.0977
 4505TIP3   OH235149   5.685   5.933   7.962 -1.0991 -0.3101  0.1778
 4505TIP3    H135150   5.771   5.929   8.004 -1.1646  0.1380  0.3629
 4505TIP3    H235151   5.687   5.862   7.898 -1.0334 -1.0683  0.9921
 4506TIP3   OH235152   3.239   1.643   8.677  0.1589 -0.4565  0.0197
 4506TIP3    H135153   3.185   1.697   8.735 -0.2133 -1.1232  0.3119
 4506TIP3    H235154   3.315   1.618   8.730  1.5066  1.6392 -0.8300
 4507TIP3   OH235155   6.796   1.082   2.119  0.0705  0.3080 -0.0839
 4507TIP3    H135156   6.810   0.991   2.092  2.9586  0.7056 -0.2982
 4507TIP3    H235157   6.863   1.097   2.186  0.7669  2.7068 -1.1910
 4508TIP3   OH235158   5.412   4.297   0.078 -0.3870  0.8796  0.0891
 4508TIP3    H135159   5.393   4.232   0.146 -0.5993  1.5808  0.7059
 4508TIP3    H235160   5.473   4.358   0.118  3.0295 -1.0526 -1.7128
 4509TIP3   OH235161   6.122   1.109   8.485  0.8386  0.2022  0.5498
 4509TIP3    H135162   6.193   1.109   8.549  0.4630 -0.3721  0.9819
 4509TIP3    H235163   6.049   1.151   8.530  0.1413 -1.4322  1.0200
 4510TIP3   OH235164   1.831   2.234   7.524  0.0047  0.1146  0.0834
 4510TIP3    H135165   1.762   2.287   7.563  0.9428  1.5898 -0.1633
 4510TIP3    H235166   1.786   2.179   7.460 -1.1280 -0.0791  1.0128
 4511TIP3   OH235167   4.029   2.616   2.700 -0.3876 -0.0836 -0.1168
 4511TIP3    H135168   4.089   2.562   2.752 -0.2755  0.3354  0.1884
 4511TIP3    H235169   4.062   2.705   2.710 -0.4489  0.0203 -0.7931
 4512TIP3   OH235170   0.204   1.474   2.140  0.4365  0.2403  0.4969
 4512TIP3    H135171   0.188   1.394   2.089  1.5921  0.5472 -0.3892
 4512TIP3    H235172   0.299   1.488   2.134  0.0053  3.1334 -1.6629
 4513TIP3   OH235173   4.662   0.313   2.398 -0.4388  0.5959  0.3963
 4513TIP3    H135174   4.737   0.261   2.369 -0.8598  0.4467 -0.4377
 4513TIP3    H235175   4.665   0.306   2.494  0.6090  0.6029  0.3806
 4514TIP3   OH235176   3.060   1.426   8.674  0.0825 -0.2720 -0.0951
 4514TIP3    H135177   3.118   1.503   8.668  0.1434 -0.2038  1.0204
 4514TIP3    H235178   2.972   1.463   8.680  0.2303 -0.0973  2.6753
 4515TIP3   OH235179   4.292   3.925   0.893 -0.0241  0.2614  0.3280
 4515TIP3    H135180   4.241   3.899   0.817 -0.3867  2.2410 -0.1770
 4515TIP3    H235181   4.375   3.878   0.884 -0.3728 -0.1577 -0.8621
 4516TIP3   OH235182   5.793   3.488   0.070  0.0729 -0.1247 -0.5764
 4516TIP3    H135183   5.884   3.462   0.086 -0.4055 -0.5296  1.6804
 4516TIP3    H235184   5.743   3.407   0.075 -0.7889  0.4731  1.4366
 4517TIP3   OH235185   4.171   3.741   7.474 -0.5878 -0.5416  0.3975
 4517TIP3    H135186   4.121   3.712   7.398 -2.4066 -1.5392  1.8793
 4517TIP3    H235187   4.248   3.685   7.475 -0.1523 -0.0209 -1.0773
 4518TIP3   OH235188   5.239   5.077   8.292 -0.0088 -0.2890  0.3358
 4518TIP3    H135189   5.298   5.137   8.339  0.1275 -1.4245  1.6808
 4518TIP3    H235190   5.297   5.012   8.252 -0.2193 -0.0877 -0.3073
 4519TIP3   OH235191   0.698   0.309   8.668 -0.3558  0.4386  0.3741
 4519TIP3    H135192   0.701   0.239   8.733 -1.7802  0.5507  0.6097
 4519TIP3    H235193   0.788   0.339   8.660  0.6459 -2.5374 -0.9933
 4520TIP3   OH235194   4.810   2.838   8.057 -0.0631 -0.2158  0.5875
 4520TIP3    H135195   4.815   2.933   8.062  0.5896 -0.2656  1.0193
 4520TIP3    H235196   4.747   2.814   8.125  0.5844 -0.1564  1.2218
 4521TIP3   OH235197   3.621   0.911   1.227 -0.0860 -0.1634  0.5967
 4521TIP3    H135198   3.608   0.964   1.148  0.0428 -0.4731  0.3672
 4521TIP3    H235199   3.610   0.821   1.198  0.4227 -0.3089  0.8382
 4522TIP3   OH235200   4.691   1.651   1.703 -0.2966  0.2453 -0.0082
 4522TIP3    H135201   4.751   1.619   1.635  0.5368 -1.4017  1.4441
 4522TIP3    H235202   4.606   1.612   1.680  0.6949 -3.3500  1.7474
 4523TIP3   OH235203   0.081   0.336   2.252 -0.4285 -0.8486  0.3191
 4523TIP3    H135204   0.125   0.265   2.206 -0.5962 -0.3798 -0.5791
 4523TIP3    H235205   0.152   0.392   2.283 -0.3272 -1.0158  0.3899
 4524TIP3   OH235206   6.685   1.955   2.516 -0.1312  0.3244  0.4598
 4524TIP3    H135207   6.741   2.025   2.549  0.2808  0.0734  0.3078
 4524TIP3    H235208   6.616   1.946   2.582 -0.3317  1.0382  0.3532
 4525TIP3   OH235209   2.286   3.292   8.835  0.1751 -0.1286 -0.1920
 4525TIP3    H135210   2.257   3.311   8.924 -0.7175 -0.4815 -0.3903
 4525TIP3    H235211   2.261   3.369   8.784  0.0161 -0.2370 -0.2773
 4526TIP3   OH235212   3.971   5.488   0.689  0.0791 -0.5789 -0.0359
 4526TIP3    H135213   4.030   5.413   0.678 -0.0478 -0.4280 -2.1525
 4526TIP3    H235214   3.887   5.459   0.655 -0.3214  0.1406  0.3013
 4527TIP3   OH235215   0.911   5.861   1.065 -0.4582 -0.6612 -0.5795
 4527TIP3    H135216   0.923   5.911   1.146 -1.7728  2.5141 -2.1551
 4527TIP3    H235217   0.974   5.789   1.072 -0.9167 -0.9132  3.4500
 4528TIP3   OH235218   5.660   5.265   7.888 -0.4054  0.1882  0.1546
 4528TIP3    H135219   5.727   5.221   7.837 -0.1424  0.1804  0.4996
 4528TIP3    H235220   5.578   5.228   7.857 -0.2572  0.2643 -0.3352
 4529TIP3   OH235221   0.713   2.817   0.824  0.9026  0.6192  0.1323
 4529TIP3    H135222   0.642   2.880   0.815 -0.1727 -0.6288 -0.4895
 4529TIP3    H235223   0.679   2.750   0.883  1.9910  0.5438  0.7096
 4530TIP3   OH235224   2.263   4.889   1.430 -0.3634  0.2265  0.1587
 4530TIP3    H135225   2.247   4.950   1.502 -0.3626 -0.0757  0.4159
 4530TIP3    H235226   2.309   4.941   1.364  0.8703  0.1586  0.9390
 4531TIP3   OH235227   1.355   2.980   7.233 -0.3883  0.1376 -0.0873
 4531TIP3    H135228   1.441   2.963   7.193 -1.4808 -0.8700 -2.1570
 4531TIP3    H235229   1.332   3.068   7.204 -0.7196 -0.1913 -0.8418
 4532TIP3   OH235230   0.212   2.618   1.404 -0.5143 -0.0163  0.2397
 4532TIP3    H135231   0.177   2.566   1.476 -0.4722 -0.6625 -0.2042
 4532TIP3    H235232   0.150   2.691   1.395 -0.6958 -0.1084  0.7096
 4533TIP3   OH235233   2.166   2.983   0.083 -0.5362  0.5134  0.0295
 4533TIP3    H135234   2.184   2.990  -0.011 -0.1320  0.4807  0.1039
 4533TIP3    H235235   2.251   2.965   0.123 -0.7175  0.4558  0.3961
 4534TIP3   OH235236   6.556   3.758   2.984  0.1442 -0.0731 -0.1443
 4534TIP3    H135237   6.551   3.664   3.002  2.4141  0.1487  2.2932
 4534TIP3    H235238   6.531   3.800   3.066  0.5910  1.4049 -0.7325
 4535TIP3   OH235239   5.613   3.469   2.090  0.1718 -0.7357 -0.4518
 4535TIP3    H135240   5.610   3.434   2.001  0.9255  0.6727 -1.0683
 4535TIP3    H235241   5.524   3.459   2.123 -0.2896 -0.6301 -1.6174
 4536TIP3   OH235242   1.000   3.534   1.052  0.7739  0.1443  0.2507
 4536TIP3    H135243   1.079   3.578   1.019  1.6514 -1.6690 -0.1507
 4536TIP3    H235244   1.030   3.487   1.130 -0.2805  0.6758  1.0026
 4537TIP3   OH235245   2.955   4.376   7.830  0.5596 -0.3296  0.2701
 4537TIP3    H135246   2.890   4.330   7.883 -0.7896  1.6471  0.4488
 4537TIP3    H235247   2.916   4.384   7.744 -0.4124  2.5452  0.8594
 4538TIP3   OH235248   2.498   1.044   1.226 -0.3458 -0.0472 -0.1115
 4538TIP3    H135249   2.532   1.122   1.270  1.2308  0.4607 -2.1094
 4538TIP3    H235250   2.541   0.971   1.270 -0.3686  0.3108  0.5177
 4539TIP3   OH235251   4.054   5.292   1.372  0.4488 -0.6429  0.5807
 4539TIP3    H135252   4.030   5.243   1.293  3.5328  2.2383 -2.4748
 4539TIP3    H235253   4.134   5.249   1.402  2.2359  1.2564 -1.1455
 4540TIP3   OH235254   5.779   0.740   2.198 -0.2061  0.2223 -0.4588
 4540TIP3    H135255   5.728   0.821   2.205 -1.0934 -0.3418 -0.1764
 4540TIP3    H235256   5.859   0.757   2.249 -1.4063  0.1565  1.5611
 4541TIP3   OH235257   0.345   2.289   1.939  0.5013  0.4723  0.7581
 4541TIP3    H135258   0.293   2.369   1.931 -1.3721 -0.6081  1.5302
 4541TIP3    H235259   0.400   2.303   2.016  0.9732  1.4020  0.2698
 4542TIP3   OH235260   6.309   4.498   7.780  0.5104 -0.0107 -0.1327
 4542TIP3    H135261   6.378   4.441   7.745 -0.5826 -0.2545 -2.0035
 4542TIP3    H235262   6.352   4.584   7.787  0.9309 -0.0639 -1.6609
 4543TIP3   OH235263   6.522   2.476   1.490  0.2178  0.3488  0.1080
 4543TIP3    H135264   6.428   2.477   1.511  0.4961  0.4160  1.4042
 4543TIP3    H235265   6.527   2.521   1.406 -0.7240  2.0530  0.9058
 4544TIP3   OH235266   0.479   2.704   2.070  0.6876 -0.3654  0.0926
 4544TIP3    H135267   0.429   2.747   2.001  1.9508  0.6151 -0.2351
 4544TIP3    H235268   0.412   2.671   2.131 -0.3748  0.2335 -0.7218
 4545TIP3   OH235269   1.952   0.303   1.729 -0.1246 -0.3779  0.8618
 4545TIP3    H135270   1.943   0.218   1.773  0.1995 -0.6183  0.4758
 4545TIP3    H235271   2.019   0.288   1.661 -0.6436 -0.0264  0.2620
 4546TIP3   OH235272   2.863   6.722   0.079 -0.2650 -0.1316  0.0361
 4546TIP3    H135273   2.956   6.743   0.076 -0.6542  1.6306 -1.5494
 4546TIP3    H235274   2.841   6.727   0.172  1.0338  0.3296  0.3419
 4547TIP3   OH235275   6.021   3.052   1.367 -0.2769  0.6566  0.2968
 4547TIP3    H135276   6.035   2.959   1.385 -0.4348  0.6851  0.5640
 4547TIP3    H235277   6.088   3.073   1.302 -0.2422  0.3557  0.2326
 4548TIP3   OH235278   4.445   3.765   1.452 -0.2656 -0.5211  0.2403
 4548TIP3    H135279   4.357   3.790   1.479 -0.3043  0.3018 -0.5755
 4548TIP3    H235280   4.449   3.670   1.467 -1.4986 -0.6747 -0.2629
 4549TIP3   OH235281   2.111   5.233   7.304 -0.0588 -0.3775  0.0417
 4549TIP3    H135282   2.035   5.279   7.269  0.7939  0.1671 -1.1596
 4549TIP3    H235283   2.149   5.188   7.229 -0.4520 -2.5347  1.0324
 4550TIP3   OH235284   4.170   3.473   7.994 -0.0133  0.2311 -0.5159
 4550TIP3    H135285   4.141   3.520   8.072  1.6778 -0.0365  0.3302
 4550TIP3    H235286   4.198   3.387   8.026 -0.6830 -0.4282 -1.6531
 4551TIP3   OH235287   5.479   1.310   0.295  0.0283 -0.6767 -0.4450
 4551TIP3    H135288   5.473   1.399   0.328 -0.0913 -1.0335  0.5109
 4551TIP3    H235289   5.531   1.318   0.214  0.4643  0.1819 -0.0888
 4552TIP3   OH235290   5.440   6.050   7.909  0.0934 -0.2572 -0.0044
 4552TIP3    H135291   5.528   6.013   7.920  0.1129  0.2399  1.8722
 4552TIP3    H235292   5.452   6.144   7.920 -0.5585 -0.0891 -0.6280
 4553TIP3   OH235293   0.908   4.902   1.938 -0.2394  0.4514  0.9267
 4553TIP3    H135294   0.831   4.957   1.926 -0.1512  0.8490  2.0396
 4553TIP3    H235295   0.922   4.902   2.033  0.3224 -0.7214  0.8578
 4554TIP3   OH235296   2.335   3.915   0.468 -0.2146  0.0495 -0.5832
 4554TIP3    H135297   2.292   3.970   0.402 -0.9987  1.7625  1.2541
 4554TIP3    H235298   2.268   3.851   0.492 -0.7731  0.8942  0.1849
 4555TIP3   OH235299   2.800   1.488   0.144 -0.3049 -0.1286 -0.0469
 4555TIP3    H135300   2.884   1.481   0.188  0.8655 -1.5546 -2.3039
 4555TIP3    H235301   2.735   1.489   0.214  1.5619  1.6929  1.7999
 4556TIP3   OH235302   4.236   0.839   1.690  0.8987  0.1667  0.2999
 4556TIP3    H135303   4.300   0.775   1.659  0.9401  0.3566 -0.0152
 4556TIP3    H235304   4.259   0.853   1.782  1.3075  0.2214  0.1927
 4557TIP3   OH235305   0.861   5.050   7.522 -0.4101 -0.5149  0.8616
 4557TIP3    H135306   0.850   4.965   7.565 -1.8864 -1.2692 -0.9042
 4557TIP3    H235307   0.802   5.109   7.568  1.8451  0.1058  3.2249
 4558TIP3   OH235308   3.758   0.552   8.039 -0.1458  0.2155  0.0204
 4558TIP3    H135309   3.685   0.517   7.988 -0.4623  0.7096  0.1339
 4558TIP3    H235310   3.746   0.646   8.038 -0.3872  0.2220  1.3524
 4559TIP3   OH235311   6.383   5.126   8.150  0.2983  0.1965 -0.1218
 4559TIP3    H135312   6.314   5.177   8.107  1.2099  0.5764 -1.1714
 4559TIP3    H235313   6.460   5.182   8.147  0.2358  0.6376  2.8597
 4560TIP3   OH235314   4.027   0.657   1.986 -0.3846 -0.0165  0.5959
 4560TIP3    H135315   4.017   0.747   1.955 -1.5025 -0.6057 -0.9228
 4560TIP3    H235316   4.006   0.660   2.079  0.4308  1.4164  0.7577
 4561TIP3   OH235317   3.847   6.709   8.233 -0.6102  0.2269 -0.4153
 4561TIP3    H135318   3.879   6.634   8.284 -0.5721  0.1482 -0.5544
 4561TIP3    H235319   3.797   6.669   8.162 -0.6804  0.3380 -0.4278
 4562TIP3   OH235320   5.880   2.041   7.665 -0.6042  0.0802 -0.5448
 4562TIP3    H135321   5.905   2.096   7.739 -1.4096 -0.4702  0.1608
 4562TIP3    H235322   5.947   1.973   7.661  0.1326  0.8273 -1.1237
 4563TIP3   OH235323   5.163   2.356   1.662  0.3604  0.6530 -0.3918
 4563TIP3    H135324   5.176   2.272   1.619 -0.2213  1.4874 -2.3266
 4563TIP3    H235325   5.248   2.378   1.699  0.7544 -0.3353 -0.6975
 4564TIP3   OH235326   1.141   3.024   0.747 -0.4847  0.9683  0.0255
 4564TIP3    H135327   1.068   3.075   0.711 -2.4338 -1.8508 -0.2903
 4564TIP3    H235328   1.156   2.954   0.684  0.3805 -0.3415  1.6030
 4565TIP3   OH235329   1.225   3.215   7.116 -0.0380 -0.3591 -0.2132
 4565TIP3    H135330   1.161   3.144   7.113 -0.3706 -0.0673 -0.0988
 4565TIP3    H235331   1.176   3.292   7.086 -0.2428  0.2505  1.6094
 4566TIP3   OH235332   6.249   3.463   2.854 -0.2433  0.2105  0.1054
 4566TIP3    H135333   6.175   3.446   2.795  1.1524 -1.2647 -1.3494
 4566TIP3    H235334   6.295   3.536   2.814  0.0370 -0.0051  0.0314
 4567TIP3   OH235335   2.384   1.654   1.283  0.0986 -0.2693  0.3607
 4567TIP3    H135336   2.471   1.628   1.253  0.9827  0.4422  2.1656
 4567TIP3    H235337   2.324   1.624   1.214  1.7763 -0.6423 -0.9796
 4568TIP3   OH235338   2.811   1.831   0.395  0.3163 -0.2757 -0.1690
 4568TIP3    H135339   2.750   1.767   0.432  1.2981 -0.2987  1.4983
 4568TIP3    H235340   2.783   1.915   0.431  2.3708 -0.5204  2.2552
 4569TIP3   OH235341   1.536   3.027   7.842  0.0763 -0.3817  0.7137
 4569TIP3    H135342   1.483   3.054   7.768  2.3386 -2.4639 -1.8685
 4569TIP3    H235343   1.591   3.103   7.860 -1.2873  0.5495  1.1172
 4570TIP3   OH235344   6.520   6.412   1.306 -0.3604 -0.2699 -0.4203
 4570TIP3    H135345   6.517   6.425   1.211  0.6745 -0.2322 -0.4613
 4570TIP3    H235346   6.612   6.426   1.329 -0.6424 -0.0445  0.6245
 4571TIP3   OH235347   5.060   3.418   1.195  0.0832  0.1195 -0.7768
 4571TIP3    H135348   5.025   3.376   1.273 -0.5098  1.1504 -0.4707
 4571TIP3    H235349   5.128   3.478   1.227  0.0529  0.3206 -1.0818
 4572TIP3   OH235350   2.831   5.126   2.369  0.3114  0.4991  0.5785
 4572TIP3    H135351   2.809   5.061   2.302  3.7707  0.3757 -0.6278
 4572TIP3    H235352   2.827   5.077   2.451  3.0522 -1.4689 -0.3171
 4573TIP3   OH235353   0.611   3.206   7.963 -0.0103  0.0671  0.2300
 4573TIP3    H135354   0.658   3.252   7.893 -0.1675 -2.7009 -1.8618
 4573TIP3    H235355   0.666   3.217   8.040  1.8738  0.5451 -1.1193
 4574TIP3   OH235356   5.980   4.720   2.175 -0.0846  0.2402  0.3416
 4574TIP3    H135357   5.918   4.737   2.246  1.0357  0.0360  1.4000
 4574TIP3    H235358   5.934   4.749   2.096 -2.1893 -1.4149  0.8446
 4575TIP3   OH235359   4.404   1.344   1.246  0.0879  0.0214 -0.1630
 4575TIP3    H135360   4.333   1.407   1.232 -3.2577 -2.7658  2.4874
 4575TIP3    H235361   4.383   1.271   1.187  0.0315 -1.3192  1.4649
 4576TIP3   OH235362   2.456   0.060   8.497  0.1456 -0.2782 -0.6784
 4576TIP3    H135363   2.397  -0.015   8.491 -0.1547 -0.0699 -0.3394
 4576TIP3    H235364   2.424   0.110   8.572  0.8563 -0.2481 -0.3914
 4577TIP3   OH235365   3.045   1.090   7.641  0.1974 -0.0946 -0.0617
 4577TIP3    H135366   3.080   1.019   7.695  3.6602 -0.1615 -2.0778
 4577TIP3    H235367   3.011   1.046   7.563  1.6000  0.3082 -0.9448
 4578TIP3   OH235368   1.733   3.144   8.149  0.2249 -0.2942  0.2818
 4578TIP3    H135369   1.683   3.142   8.231 -1.1427 -0.7847 -0.5281
 4578TIP3    H235370   1.817   3.106   8.171 -0.8180 -2.2638  1.0452
 4579TIP3   OH235371   5.152   2.609   1.859 -0.4546 -0.1618  0.0711
 4579TIP3    H135372   5.154   2.527   1.810 -1.6111 -0.8415  1.1175
 4579TIP3    H235373   5.221   2.600   1.925 -0.9202 -0.5183  0.5154
 4580TIP3   OH235374   5.544   0.942   7.716  0.3702  0.3465 -0.0163
 4580TIP3    H135375   5.598   0.891   7.776  1.4697  0.5325 -0.8117
 4580TIP3    H235376   5.467   0.887   7.700  0.7239 -0.3032  0.4674
 4581TIP3   OH235377   5.515   4.058   0.184  0.5645  0.1378  0.4548
 4581TIP3    H135378   5.585   4.019   0.236  0.7167  1.2224  1.1029
 4581TIP3    H235379   5.559   4.116   0.122  0.3054 -0.1319  0.0115
 4582TIP3   OH235380   4.918   0.637   8.428  0.0957 -0.0031 -0.6365
 4582TIP3    H135381   4.911   0.726   8.394 -0.2040 -0.5521 -2.1077
 4582TIP3    H235382   4.999   0.636   8.479  0.9123  0.7350 -1.8637
 4583TIP3   OH235383   1.226   0.424   8.166  0.0465  0.3855 -0.0312
 4583TIP3    H135384   1.166   0.484   8.121 -2.4604 -0.5721  1.8081
 4583TIP3    H235385   1.219   0.342   8.117  1.3914  0.7940 -0.9465
 4584TIP3   OH235386   3.233   6.382   2.575 -0.1696 -0.4369  0.1367
 4584TIP3    H135387   3.224   6.435   2.496 -0.5749  0.9552  1.0835
 4584TIP3    H235388   3.230   6.291   2.544 -0.8839  0.0778 -1.3795
 4585TIP3   OH235389   4.807   0.533   0.662 -0.3164 -0.2780  0.4661
 4585TIP3    H135390   4.761   0.449   0.656 -0.3710 -0.2533  0.5264
 4585TIP3    H235391   4.860   0.537   0.583 -1.8148  0.5060 -0.5410
 4586TIP3   OH235392   3.147   4.895   8.109  0.0308 -0.1830 -0.0939
 4586TIP3    H135393   3.136   4.865   8.199 -0.9578 -0.0115 -0.1528
 4586TIP3    H235394   3.072   4.859   8.061 -1.7169  2.9861  0.0023
 4587TIP3   OH235395   4.660   5.298   0.750  0.3127  0.1828 -0.1242
 4587TIP3    H135396   4.737   5.332   0.796  1.0397 -1.1909 -0.2843
 4587TIP3    H235397   4.590   5.304   0.815  1.4398 -2.3000  1.4916
 4588TIP3   OH235398   3.482   0.904   7.562 -0.1094 -0.1531  0.0086
 4588TIP3    H135399   3.423   0.907   7.486 -1.7008 -0.3174  1.1944
 4588TIP3    H235400   3.457   0.825   7.609  1.8769 -0.8599 -0.0405
 4589TIP3   OH235401   6.291   0.457   8.696  0.0534  0.7770  0.0041
 4589TIP3    H135402   6.231   0.386   8.718 -0.1529  1.3907  1.5301
 4589TIP3    H235403   6.347   0.421   8.627 -0.2041 -0.7688  0.5714
 4590TIP3   OH235404   6.028   3.700   0.256 -0.6459 -0.3385 -0.4712
 4590TIP3    H135405   5.971   3.777   0.262 -0.6044 -0.3899  3.7295
 4590TIP3    H235406   5.972   3.627   0.283  0.5163 -0.9646  0.3162
 4591TIP3   OH235407   0.924   6.445   8.322  0.0262  0.3326  0.0349
 4591TIP3    H135408   0.833   6.474   8.321 -0.4300 -0.9776  0.9162
 4591TIP3    H235409   0.923   6.363   8.371  1.6563  0.1809 -0.1133
 4592TIP3   OH235410   6.805   0.386   1.406 -0.2416  0.1479 -0.0026
 4592TIP3    H135411   6.758   0.361   1.485  2.0198  1.2509  1.8038
 4592TIP3    H235412   6.871   0.318   1.394 -2.2091 -1.5095 -2.6416
 4593TIP3   OH235413   3.228   3.098   8.623 -0.6528  0.0386 -0.9161
 4593TIP3    H135414   3.176   3.032   8.576 -0.4977 -0.4083 -0.4696
 4593TIP3    H235415   3.296   3.048   8.667 -1.7035  0.2476  1.0420
 4594TIP3   OH235416   0.177   6.383   7.681  0.2366 -0.0739  0.1157
 4594TIP3    H135417   0.211   6.445   7.616 -0.4135  0.0971 -0.0686
 4594TIP3    H235418   0.234   6.307   7.673  1.4979  0.7692  0.8446
 4595TIP3   OH235419   1.672   2.812   0.954  0.2201 -0.2741 -0.4071
 4595TIP3    H135420   1.699   2.739   1.010 -0.6948  0.0767  0.5179
 4595TIP3    H235421   1.733   2.883   0.975  1.5796 -0.9569 -1.8393
 4596TIP3   OH235422   0.976   2.402   1.241  0.5233 -0.1865  0.5436
 4596TIP3    H135423   0.903   2.341   1.229  1.1586 -0.8211 -0.2508
 4596TIP3    H235424   1.031   2.361   1.307  0.5557 -0.0924  0.5752
 4597TIP3   OH235425   5.428   0.626   2.156 -0.2792  0.5726 -0.3290
 4597TIP3    H135426   5.428   0.720   2.138 -0.3095  0.6876  0.2484
 4597TIP3    H235427   5.496   0.591   2.099 -0.3943  0.9153 -0.6848
 4598TIP3   OH235428   1.232   4.820   2.356 -0.3078 -0.3879  0.5997
 4598TIP3    H135429   1.229   4.777   2.442 -0.2927 -1.6069  0.0108
 4598TIP3    H235430   1.167   4.774   2.304 -0.0203  0.0643 -0.1723
 4599TIP3   OH235431   2.390   1.954   0.680  0.2603 -0.0871 -0.1995
 4599TIP3    H135432   2.312   1.994   0.643  0.4127  0.0591 -0.3650
 4599TIP3    H235433   2.365   1.931   0.769  0.0319 -0.0322 -0.2488
 4600TIP3   OH235434   1.387   1.790   1.743 -0.0390  0.2467  1.1382
 4600TIP3    H135435   1.443   1.765   1.670 -1.1670 -0.4261  0.4758
 4600TIP3    H235436   1.447   1.798   1.817  0.8369 -1.2050  0.6321
 4601TIP3   OH235437   6.529   5.851   2.585 -0.0676  0.3491 -0.5854
 4601TIP3    H135438   6.457   5.898   2.543 -0.6025  0.9294  0.9193
 4601TIP3    H235439   6.486   5.781   2.634  0.3945  0.6142  0.2125
 4602TIP3   OH235440   1.155   6.828   1.741  0.2890 -0.9513 -0.2034
 4602TIP3    H135441   1.206   6.813   1.820  0.0650  1.1172  0.4112
 4602TIP3    H235442   1.096   6.754   1.735  0.0092 -0.9499  1.8210
 4603TIP3   OH235443   6.351   5.019   0.092  0.1876 -0.6997 -0.1140
 4603TIP3    H135444   6.374   5.107   0.122  0.1227 -0.8928  0.5035
 4603TIP3    H235445   6.346   4.967   0.171  0.3660 -1.3001 -0.4904
 4604TIP3   OH235446   4.188   2.032   1.060 -0.1959 -0.4221  0.6338
 4604TIP3    H135447   4.192   1.992   0.974 -1.4627 -1.1269  0.8680
 4604TIP3    H235448   4.230   1.969   1.118 -0.4505 -0.5274  0.7074
 4605TIP3   OH235449   2.170   0.683   1.822 -0.4975 -0.0427 -0.0754
 4605TIP3    H135450   2.205   0.639   1.745 -1.4292 -2.3665  0.7262
 4605TIP3    H235451   2.093   0.730   1.790  0.4621  1.0133 -0.9323
 4606TIP3   OH235452   2.411   3.648   0.799  0.3180  0.3804  0.1529
 4606TIP3    H135453   2.385   3.676   0.712  0.2271 -1.7780 -0.5752
 4606TIP3    H235454   2.502   3.621   0.790  0.0583 -0.6610  0.5037
 4607TIP3   OH235455   5.784   3.322   7.817  0.2812 -0.2772  0.2937
 4607TIP3    H135456   5.720   3.302   7.748  0.7864  0.7929 -0.5168
 4607TIP3    H235457   5.837   3.242   7.825  1.3603  0.1565 -1.8530
 4608TIP3   OH235458   2.565   6.456   7.645  0.0350  0.2398  0.0417
 4608TIP3    H135459   2.605   6.425   7.727 -0.5779  1.6127  0.9099
 4608TIP3    H235460   2.623   6.527   7.617  1.2776 -1.3837 -1.7702
 4609TIP3   OH235461   5.937   2.837   6.896 -0.3682  0.1624  0.1651
 4609TIP3    H135462   6.028   2.835   6.925 -0.7895 -2.1381  1.5461
 4609TIP3    H235463   5.899   2.912   6.943  0.4737  0.2904  0.6660
 4610TIP3   OH235464   6.130   3.611   0.948  0.4502 -0.3782 -0.2248
 4610TIP3    H135465   6.077   3.531   0.954 -0.1479  0.1222  1.5479
 4610TIP3    H235466   6.076   3.671   0.897 -0.9128  0.2518  1.8692
 4611TIP3   OH235467   1.023   6.557   1.984 -0.0747 -0.0084 -0.5678
 4611TIP3    H135468   1.104   6.521   2.020  0.4129  1.3642 -0.2359
 4611TIP3    H235469   1.039   6.562   1.890 -0.1612 -0.6583 -0.6231
 4612TIP3   OH235470   2.669   4.803   0.840  0.0672 -0.0405 -0.2551
 4612TIP3    H135471   2.749   4.789   0.892  0.7201  0.2933 -1.1553
 4612TIP3    H235472   2.673   4.737   0.771  0.9493  1.6344 -1.9012
 4613TIP3   OH235473   0.990   2.947   0.338  0.3597  0.1032 -0.5762
 4613TIP3    H135474   1.072   2.898   0.339 -0.5807 -1.5526  0.7592
 4613TIP3    H235475   1.014   3.034   0.305  2.0208 -1.3269 -3.5374
 4614TIP3   OH235476   1.549   4.620   7.855  0.2844 -0.5889 -0.5613
 4614TIP3    H135477   1.550   4.650   7.764 -2.3488  2.5588  0.2806
 4614TIP3    H235478   1.607   4.681   7.902 -0.6507 -0.3379  0.3001
 4615TIP3   OH235479   3.882   1.351   8.209 -0.3682 -0.3175  0.6975
 4615TIP3    H135480   3.870   1.428   8.154  2.6278  0.0814  0.3908
 4615TIP3    H235481   3.874   1.383   8.298 -0.9796 -0.0415  0.5447
 4616TIP3   OH235482   0.579   2.587   6.992  0.3401 -0.8338  0.6383
 4616TIP3    H135483   0.651   2.525   6.992  0.3502 -0.8392  1.6449
 4616TIP3    H235484   0.518   2.553   6.926  2.5723  0.8112 -2.5803
 4617TIP3   OH235485   6.831   0.204   0.505 -0.9249  0.8427 -0.7199
 4617TIP3    H135486   6.761   0.139   0.514 -0.7585  0.9143  1.5948
 4617TIP3    H235487   6.864   0.216   0.593  1.7988  1.0946 -1.6903
 4618TIP3   OH235488   1.845   5.897   2.066  0.8077  0.0773  0.2851
 4618TIP3    H135489   1.878   5.879   1.978 -1.4806  0.1458 -0.6531
 4618TIP3    H235490   1.813   5.813   2.098  2.0015 -0.0336  1.2584
 4619TIP3   OH235491   4.408   2.695   1.234  0.3784 -0.5698  0.4067
 4619TIP3    H135492   4.416   2.699   1.329  0.8021  0.4579  0.3384
 4619TIP3    H235493   4.468   2.626   1.207  1.8661  0.5691  0.7201
 4620TIP3   OH235494   2.258   4.480   0.851  0.3398  0.4152  0.3235
 4620TIP3    H135495   2.194   4.436   0.906  0.6671  0.1277  0.4740
 4620TIP3    H235496   2.228   4.571   0.848 -0.7569  0.0496 -0.5922
 4621TIP3   OH235497   5.992   0.765   8.037 -0.6511 -0.0769  0.5978
 4621TIP3    H135498   6.086   0.775   8.053 -0.7007 -0.4795  1.1488
 4621TIP3    H235499   5.965   0.850   8.001  0.0999 -0.2624 -0.4658
 4622TIP3   OH235500   1.741   5.256   1.027  0.8097  0.0410 -0.0697
 4622TIP3    H135501   1.830   5.287   1.011  1.3827 -1.6326 -0.2883
 4622TIP3    H235502   1.706   5.318   1.091  2.1393  0.6869  0.0740
 4623TIP3   OH235503   0.998   3.742   1.311 -0.0758 -0.6163  0.5948
 4623TIP3    H135504   0.931   3.756   1.379  1.6891 -1.2411  2.5770
 4623TIP3    H235505   1.080   3.767   1.353  1.1852 -1.7205 -1.0814
 4624TIP3   OH235506   4.337   6.815   8.339 -0.3914 -1.0758  0.0484
 4624TIP3    H135507   4.273   6.867   8.291 -0.3216 -0.2135  0.8720
 4624TIP3    H235508   4.302   6.810   8.428 -0.8936 -3.2616 -0.1959
 4625TIP3   OH235509   6.386   4.598   2.838 -0.0970  0.1980 -0.2158
 4625TIP3    H135510   6.425   4.678   2.803  1.3382  0.3561  1.6111
 4625TIP3    H235511   6.351   4.624   2.923 -0.3840 -0.9474  0.0356
 4626TIP3   OH235512   4.969   4.456   0.903 -0.4222  0.3834 -0.4143
 4626TIP3    H135513   4.943   4.413   0.821 -1.9630  1.1636 -0.3763
 4626TIP3    H235514   4.920   4.539   0.903  0.2844  0.8285  0.8561
 4627TIP3   OH235515   4.471   0.770   0.099 -0.1252  0.2973  0.6371
 4627TIP3    H135516   4.388   0.764   0.052  0.6960 -0.4471 -0.7762
 4627TIP3    H235517   4.501   0.859   0.082 -1.0303  0.8835  1.9139
 4628TIP3   OH235518   4.688   0.546   2.269 -0.2935 -0.5451 -0.1586
 4628TIP3    H135519   4.658   0.468   2.314 -1.3774 -1.0930 -1.7654
 4628TIP3    H235520   4.638   0.548   2.187  1.4893  0.4758 -1.2880
 4629TIP3   OH235521   2.845   2.221   0.568 -0.3905  0.1656  0.3052
 4629TIP3    H135522   2.834   2.297   0.626  0.2149 -0.1381  0.8248
 4629TIP3    H235523   2.760   2.177   0.570 -0.2943  0.0041  1.1897
 4630TIP3   OH235524   3.240   6.401   8.279  0.5355  0.1816  0.2336
 4630TIP3    H135525   3.186   6.374   8.354  2.1726 -1.3062  0.9499
 4630TIP3    H235526   3.245   6.323   8.224 -0.0305  1.0470 -1.0986
 4631TIP3   OH235527   1.997   3.204   8.491 -0.2513 -0.1667  0.4949
 4631TIP3    H135528   2.048   3.273   8.447 -0.8106 -1.2261 -1.9988
 4631TIP3    H235529   2.055   3.170   8.559  0.8666  1.2435  0.2878
 4632TIP3   OH235530   2.029   3.688   7.883 -0.0714  0.6444  0.9055
 4632TIP3    H135531   1.935   3.695   7.904 -0.6724 -0.5582 -1.1184
 4632TIP3    H235532   2.031   3.678   7.788  2.1989  1.5357  0.8114
 4633TIP3   OH235533   2.189   4.262   8.704  0.0993  0.4404 -0.3156
 4633TIP3    H135534   2.152   4.343   8.668 -0.5216 -1.0359 -3.3314
 4633TIP3    H235535   2.115   4.218   8.746  0.1287  0.7970  0.1150
 4634TIP3   OH235536   5.084   4.002   0.527 -0.2985  0.2419 -0.4304
 4634TIP3    H135537   4.997   3.993   0.565  0.6691 -1.6173  1.6265
 4634TIP3    H235538   5.125   4.073   0.578  0.0567 -0.3178  0.0795
 4635TIP3   OH235539   6.051   1.188   2.817 -0.1454 -0.4988 -0.5317
 4635TIP3    H135540   6.103   1.235   2.752 -2.0625 -0.4108 -2.0534
 4635TIP3    H235541   6.055   1.097   2.790 -1.8618 -0.3275 -1.4892
 4636TIP3   OH235542   5.079   1.929   8.399 -0.0375 -0.1835  0.6271
 4636TIP3    H135543   5.160   1.892   8.434  0.8526 -1.1708 -2.1591
 4636TIP3    H235544   5.023   1.852   8.383 -0.4484  0.2248  0.0788
 4637TIP3   OH235545   1.994   3.442   1.146 -0.2365  0.0917  0.0859
 4637TIP3    H135546   2.044   3.390   1.083  0.5051 -0.4066  1.0513
 4637TIP3    H235547   2.049   3.444   1.224 -0.7132  1.4834  0.4223
 4638TIP3   OH235548   2.793   5.281   1.961  0.1782 -0.3821  0.1282
 4638TIP3    H135549   2.785   5.188   1.942  0.5182 -0.4914  0.5278
 4638TIP3    H235550   2.713   5.303   2.009  0.1543 -0.4936  0.1394
 4639TIP3   OH235551   4.096   0.208   8.056 -0.3375 -0.2807 -0.7821
 4639TIP3    H135552   4.152   0.188   8.131 -0.6903 -0.1281 -0.4740
 4639TIP3    H235553   4.007   0.201   8.090 -0.5566 -1.7624 -1.5729
 4640TIP3   OH235554   5.189   4.563   8.079  0.1633  0.0195  0.5701
 4640TIP3    H135555   5.170   4.535   7.990 -1.1911 -1.5037  1.2901
 4640TIP3    H235556   5.284   4.574   8.081  0.0615  2.2324 -1.6180
 4641TIP3   OH235557   6.635   4.591   0.574 -0.1277 -0.1668 -0.0972
 4641TIP3    H135558   6.616   4.605   0.667 -1.2942  0.1177 -0.3614
 4641TIP3    H235559   6.643   4.496   0.565 -2.2590 -0.4062 -0.0712
 4642TIP3   OH235560   2.307   6.207   7.900 -0.5636  0.6365  0.1520
 4642TIP3    H135561   2.265   6.132   7.857  2.5055 -0.4678 -1.2552
 4642TIP3    H235562   2.303   6.187   7.993 -2.1915  0.1144 -0.0047
 4643TIP3   OH235563   4.977   2.818   1.429 -0.0527 -0.9004  0.1345
 4643TIP3    H135564   4.894   2.866   1.430 -0.0953 -0.9406 -0.8909
 4643TIP3    H235565   5.033   2.868   1.370  1.1387 -0.1117  1.8387
 4644TIP3   OH235566   5.253   1.876   8.613 -0.5119 -0.2192 -0.1262
 4644TIP3    H135567   5.239   1.936   8.686 -1.3777  0.9227 -1.1931
 4644TIP3    H235568   5.206   1.796   8.638 -1.3732  0.4013  0.2929
 4645TIP3   OH235569   2.750   0.059   8.780 -0.0054  0.5130  0.5071
 4645TIP3    H135570   2.798  -0.005   8.833  0.7966  1.5727  1.0932
 4645TIP3    H235571   2.698   0.108   8.843 -0.3371  0.6882  0.1013
 4646TIP3   OH235572   2.738   1.872   8.032  0.8388  0.3699 -0.1959
 4646TIP3    H135573   2.654   1.866   7.986  0.7064 -0.6648  0.1590
 4646TIP3    H235574   2.803   1.883   7.963  0.4735  0.5375 -0.5131
 4647TIP3   OH235575   1.336   3.380   0.226  0.0230 -0.1601 -0.2803
 4647TIP3    H135576   1.353   3.469   0.258 -0.5768  0.3840 -1.4166
 4647TIP3    H235577   1.420   3.334   0.235  0.5117  0.7124 -0.2833
 4648TIP3   OH235578   4.442   6.688   1.569  0.3185 -0.2917 -0.0256
 4648TIP3    H135579   4.501   6.648   1.633  0.7434  0.4130  0.0351
 4648TIP3    H235580   4.355   6.660   1.595  0.6245 -1.3734 -0.1320
 4649TIP3   OH235581   5.726   3.647   0.388 -0.0616  0.0178 -0.2320
 4649TIP3    H135582   5.707   3.681   0.301 -2.3147 -1.5856 -0.4522
 4649TIP3    H235583   5.641   3.621   0.422  0.9120 -0.4546  2.0200
 4650TIP3   OH235584   6.732   4.615   2.485  0.5596  0.1048  0.2051
 4650TIP3    H135585   6.716   4.672   2.409  3.2260 -0.4044 -0.8548
 4650TIP3    H235586   6.653   4.624   2.539 -1.6452  0.1875 -2.7856
 4651TIP3   OH235587   0.775   0.310   7.587 -0.4008 -0.1528  0.1377
 4651TIP3    H135588   0.683   0.300   7.563 -0.6940  0.6332  0.9068
 4651TIP3    H235589   0.819   0.334   7.505 -0.8478 -0.6523 -0.2560
 4652TIP3   OH235590   5.917   6.440   8.531  0.1922  0.3136 -0.2140
 4652TIP3    H135591   5.856   6.476   8.466 -0.9980 -0.5444  0.3746
 4652TIP3    H235592   5.961   6.368   8.486  0.4203  0.6312 -0.4999
 4653TIP3   OH235593   2.297   3.678   0.117  0.4620 -0.2341 -0.0844
 4653TIP3    H135594   2.327   3.769   0.119 -0.1854 -0.0308  0.8518
 4653TIP3    H235595   2.377   3.627   0.102  0.8782  0.4566 -0.2637
 4654TIP3   OH235596   0.439   2.323   0.172  0.1619 -0.4549  1.4315
 4654TIP3    H135597   0.369   2.369   0.126  2.3351  2.0915  0.4469
 4654TIP3    H235598   0.435   2.357   0.262 -0.2205 -0.7996  1.5508
 4655TIP3   OH235599   2.460   3.284   7.871  0.1858  0.2505 -0.1898
 4655TIP3    H135600   2.378   3.329   7.851  1.2871  2.0955 -0.7879
 4655TIP3    H235601   2.484   3.241   7.789 -0.4921 -0.8633  0.1748
 4656TIP3   OH235602   1.475   6.432   8.442  0.5221  0.8233  0.2001
 4656TIP3    H135603   1.446   6.341   8.428  0.3105  0.9093  0.0670
 4656TIP3    H235604   1.411   6.485   8.395 -0.2162  1.1302  1.4877
 4657TIP3   OH235605   2.751   3.219   7.271  0.0420  0.1259 -0.2138
 4657TIP3    H135606   2.823   3.253   7.219  0.9782 -0.1284  0.8592
 4657TIP3    H235607   2.695   3.173   7.208  0.8222  0.3122 -1.0642
 4658TIP3   OH235608   3.837   4.006   8.762  0.1720  0.2508  0.4007
 4658TIP3    H135609   3.755   4.002   8.811 -0.1097  0.4199 -0.0469
 4658TIP3    H235610   3.896   4.058   8.816 -1.0284  2.9070 -0.6995
 4659TIP3   OH235611   5.731   4.801   8.494 -0.9111  0.3313 -0.0536
 4659TIP3    H135612   5.823   4.787   8.518 -0.8420  0.7262 -0.0810
 4659TIP3    H235613   5.725   4.772   8.403 -0.9690 -0.3313  0.1598
 4660TIP3   OH235614   6.739   0.319   0.066 -0.1635 -0.4343  0.5579
 4660TIP3    H135615   6.666   0.352   0.013 -0.1988  0.1223  0.9476
 4660TIP3    H235616   6.817   0.340   0.016 -0.3204 -3.0570 -0.9956
 4661TIP3   OH235617   3.805   2.721   1.011  0.4634 -0.4913  0.4480
 4661TIP3    H135618   3.825   2.811   0.985 -1.6501  0.1273  0.7844
 4661TIP3    H235619   3.879   2.670   0.979  1.6188  1.3328  0.0747
 4662TIP3   OH235620   3.608   2.600   2.401 -0.1460  0.2854  0.2703
 4662TIP3    H135621   3.516   2.579   2.385 -0.5109  1.8430  0.1467
 4662TIP3    H235622   3.607   2.690   2.433  1.0788 -0.6531  3.2744
 4663TIP3   OH235623   3.868   4.861   1.165  0.1046  0.0297  0.2153
 4663TIP3    H135624   3.775   4.853   1.185 -0.6434 -0.2709 -2.9443
 4663TIP3    H235625   3.888   4.954   1.179 -0.4495 -0.0352  1.5873
 4664TIP3   OH235626   5.349   5.514   7.224 -0.2099  0.4463  0.3086
 4664TIP3    H135627   5.319   5.579   7.161  1.9778  0.4566 -0.8144
 4664TIP3    H235628   5.405   5.455   7.173  1.1986  0.1250  2.1062
 4665TIP3   OH235629   4.134   5.827   8.194 -0.1158  0.5159  0.1976
 4665TIP3    H135630   4.150   5.805   8.103 -1.7456  0.7906 -0.1808
 4665TIP3    H235631   4.039   5.832   8.202  0.0211  1.5001  1.6810
 4666TIP3   OH235632   2.851   1.071   8.344  0.3179 -0.3494 -0.1009
 4666TIP3    H135633   2.892   1.055   8.430 -0.7184 -2.1175  0.1151
 4666TIP3    H235634   2.924   1.098   8.288  1.4972 -1.6533  0.7256
 4667TIP3   OH235635   4.423   3.562   1.674 -0.1015 -0.1511 -0.8523
 4667TIP3    H135636   4.382   3.518   1.599  0.1230 -0.8047 -0.6035
 4667TIP3    H235637   4.353   3.569   1.739 -0.1640 -0.0634 -0.9301
 4668TIP3   OH235638   1.692   0.714   0.629  0.3766  0.9426  0.1451
 4668TIP3    H135639   1.772   0.692   0.582  0.5241 -1.1798  1.2777
 4668TIP3    H235640   1.648   0.777   0.572  1.1497 -0.5097 -2.2286
 4669TIP3   OH235641   2.552   0.123   2.555 -0.5095  0.4141 -0.4883
 4669TIP3    H135642   2.611   0.091   2.623  1.0765  1.0857 -1.4960
 4669TIP3    H235643   2.574   0.215   2.546  0.0278  0.1166 -2.5933
 4670TIP3   OH235644   5.188   1.031   7.600 -0.3386 -0.1979 -0.3831
 4670TIP3    H135645   5.117   1.080   7.560  0.8689  0.1453 -2.2438
 4670TIP3    H235646   5.178   0.942   7.566  0.8998  0.1745 -1.8556
 4671TIP3   OH235647   2.995   3.753   2.760  0.3489 -0.0662  0.1924
 4671TIP3    H135648   3.083   3.788   2.768 -0.4087  2.3421 -1.1366
 4671TIP3    H235649   2.941   3.810   2.814 -0.4865 -1.3224  0.7457
 4672TIP3   OH235650   0.203   0.910   7.495 -0.2532 -0.0030  0.3116
 4672TIP3    H135651   0.255   0.838   7.531 -1.5711  0.2377  2.9925
 4672TIP3    H235652   0.212   0.901   7.400  1.9849 -1.8888  0.5960
 4673TIP3   OH235653   5.107   5.468   7.951  0.8683  0.4321 -0.2231
 4673TIP3    H135654   5.158   5.411   7.893  1.8635 -0.5807  1.5662
 4673TIP3    H235655   5.159   5.475   8.030 -0.0384  2.5056  0.2666
 4674TIP3   OH235656   0.031   5.518   0.161  0.3123 -0.2164  0.3543
 4674TIP3    H135657   0.044   5.585   0.228 -0.0354  0.2435 -0.0363
 4674TIP3    H235658   0.120   5.486   0.142  0.4134 -0.3567  1.0273
 4675TIP3   OH235659   3.341   5.719   8.675  0.2661 -0.6161  0.0110
 4675TIP3    H135660   3.367   5.713   8.583 -1.5315 -0.2753 -0.5459
 4675TIP3    H235661   3.407   5.667   8.721  2.9116  1.5058 -1.0817
 4676TIP3   OH235662   2.865   1.610   1.600  0.3609 -0.0584  0.3163
 4676TIP3    H135663   2.947   1.624   1.646 -0.1380 -0.2046  1.2774
 4676TIP3    H235664   2.804   1.580   1.668 -0.2389 -0.8549 -0.5434
 4677TIP3   OH235665   0.429   4.459   0.604 -1.0834 -0.6697  0.3529
 4677TIP3    H135666   0.392   4.379   0.640 -1.1868 -0.2851  1.1091
 4677TIP3    H235667   0.355   4.500   0.559 -0.7667 -1.5419 -1.0274
 4678TIP3   OH235668   5.353   5.039   2.491 -0.6199  0.0065  0.3591
 4678TIP3    H135669   5.366   5.133   2.483  0.4555 -0.1427  0.2094
 4678TIP3    H235670   5.415   5.011   2.558 -0.7550 -0.6320  0.2306
 4679TIP3   OH235671   0.021   3.758   8.636 -0.0842  0.3797 -0.0495
 4679TIP3    H135672   0.020   3.783   8.728  0.1636 -0.5841  0.2305
 4679TIP3    H235673  -0.002   3.665   8.636 -0.6456  0.5039 -1.0112
 4680TIP3   OH235674   6.768   6.581   0.518 -0.4104 -1.2728 -0.0517
 4680TIP3    H135675   6.717   6.662   0.527  0.5454 -0.8682  2.6918
 4680TIP3    H235676   6.704   6.511   0.529 -1.1287 -0.9042 -1.6913
 4681TIP3   OH235677   5.746   2.270   8.506 -0.2589  0.0938  0.0828
 4681TIP3    H135678   5.767   2.249   8.416 -1.2584  2.3367 -0.7598
 4681TIP3    H235679   5.830   2.283   8.549  0.3944 -3.9607  0.4089
 4682TIP3   OH235680   3.394   6.346   1.824  0.4060  0.4762  0.0299
 4682TIP3    H135681   3.489   6.337   1.820  0.1927 -2.7384 -0.9165
 4682TIP3    H235682   3.373   6.341   1.918  1.0883 -1.5266  0.1363
 4683TIP3   OH235683   0.584   3.584   3.170  0.1947  0.2880 -0.0527
 4683TIP3    H135684   0.623   3.548   3.250  0.5401  0.9207  0.0715
 4683TIP3    H235685   0.557   3.507   3.119  0.1912 -0.1219  0.5632
 4684TIP3   OH235686   4.426   5.545   8.634  0.2420 -0.1494  0.4087
 4684TIP3    H135687   4.359   5.477   8.625 -0.1898  0.3265 -0.0790
 4684TIP3    H235688   4.507   5.497   8.652 -0.0944 -0.7795  0.2692
 4685TIP3   OH235689   2.633   5.183   8.364  0.7012 -0.0009  0.0338
 4685TIP3    H135690   2.647   5.241   8.289 -2.6823  0.5850 -0.3223
 4685TIP3    H235691   2.638   5.240   8.441 -2.7260  1.0333 -0.3203
 4686TIP3   OH235692   4.582   2.545   8.647 -0.1227 -0.1438  0.0124
 4686TIP3    H135693   4.621   2.466   8.609 -0.1333 -1.0607  1.7827
 4686TIP3    H235694   4.656   2.593   8.684 -0.4338 -1.2640  2.2712
 4687TIP3   OH235695   5.467   3.590   0.095  0.1098  0.0695  1.0847
 4687TIP3    H135696   5.502   3.570   0.008 -0.2979 -0.5444  1.0520
 4687TIP3    H235697   5.456   3.505   0.136 -0.6221  0.2956  1.3709
 4688TIP3   OH235698   6.160   4.494   1.332 -0.4609  0.0637  0.5034
 4688TIP3    H135699   6.099   4.442   1.385 -0.2486  0.2607  0.9442
 4688TIP3    H235700   6.229   4.434   1.308 -0.1846  0.1514  1.0631
 4689TIP3   OH235701   4.236   6.281   2.192 -0.1842 -0.4904  0.0599
 4689TIP3    H135702   4.264   6.315   2.107 -1.5672 -0.7233 -0.5250
 4689TIP3    H235703   4.266   6.347   2.255 -1.0156  0.7988 -0.8326
 4690TIP3   OH235704   5.882   5.331   3.164 -0.1321 -0.0283  0.1041
 4690TIP3    H135705   5.838   5.327   3.080 -0.7028 -0.3780  0.4126
 4690TIP3    H235706   5.813   5.314   3.228  0.5220 -1.0984  0.5684
 4691TIP3   OH235707   3.381   1.333   2.067 -0.2765 -0.3278  0.5520
 4691TIP3    H135708   3.417   1.393   2.002  0.9434  1.3356  2.6328
 4691TIP3    H235709   3.318   1.280   2.018 -1.2882  2.4918 -1.4705
 4692TIP3   OH235710   0.151   0.608   2.828  0.0326 -0.1078 -1.0538
 4692TIP3    H135711   0.243   0.590   2.847 -0.5362 -2.6069 -0.2621
 4692TIP3    H235712   0.149   0.701   2.805  2.4614  0.4799  0.6615
 4693TIP3   OH235713   6.461   2.504   1.216  0.1523  0.0535  0.5028
 4693TIP3    H135714   6.547   2.462   1.210  0.4587  0.7414 -0.1890
 4693TIP3    H235715   6.430   2.507   1.125 -0.1057  0.7979  0.6072
 4694TIP3   OH235716   0.625   0.906   8.514 -0.0641 -0.1680 -0.6461
 4694TIP3    H135717   0.560   0.971   8.539  0.1894  0.2162 -0.9787
 4694TIP3    H235718   0.628   0.910   8.419  0.1010 -0.5233 -0.6584
 4695TIP3   OH235719   4.431   5.796   7.593  0.0489 -0.2188  0.3621
 4695TIP3    H135720   4.408   5.760   7.507  0.6341  1.2466 -0.4557
 4695TIP3    H235721   4.494   5.734   7.629 -1.1020 -1.4767  0.2814
 4696TIP3   OH235722   3.695   5.832   7.026  0.2947 -0.2458  0.5880
 4696TIP3    H135723   3.645   5.839   6.945  0.9315 -0.4195  0.1754
 4696TIP3    H235724   3.673   5.746   7.062  0.5036 -0.4354  0.2651
 4697TIP3   OH235725   4.917   4.930   2.079 -0.2381  0.1371 -0.3158
 4697TIP3    H135726   5.005   4.949   2.110 -0.5779  0.9013  0.2233
 4697TIP3    H235727   4.878   4.877   2.148 -0.0674 -0.5775 -0.7549
 4698TIP3   OH235728   4.460   3.838   0.497 -0.5922  0.5854 -0.3187
 4698TIP3    H135729   4.555   3.827   0.489 -0.5488 -1.4074  1.7529
 4698TIP3    H235730   4.442   3.824   0.590 -3.0260 -0.1773 -0.8216
 4699TIP3   OH235731   4.714   2.916   1.497  0.2852 -0.0838 -0.3956
 4699TIP3    H135732   4.639   2.859   1.515  0.0753  0.2848 -0.0880
 4699TIP3    H235733   4.766   2.914   1.578  0.4947 -0.1639 -0.5298
 4700TIP3   OH235734   1.822   5.175   0.362  0.4196  0.1462  0.1685
 4700TIP3    H135735   1.837   5.162   0.269 -1.7525  0.6637 -0.2981
 4700TIP3    H235736   1.760   5.106   0.386  1.3163 -0.2811  1.3628
 4701TIP3   OH235737   1.118   0.258   0.080 -0.0531 -0.1625 -0.3701
 4701TIP3    H135738   1.119   0.249  -0.015  0.7554 -2.1786 -0.2238
 4701TIP3    H235739   1.210   0.251   0.106 -0.2508  0.4940  0.5440
 4702TIP3   OH235740   0.670   6.231   8.208 -0.5408  0.3782  0.0068
 4702TIP3    H135741   0.676   6.326   8.206  1.0422  0.3233  0.2905
 4702TIP3    H235742   0.623   6.211   8.289  0.1012  0.9146  0.5276
 4703TIP3   OH235743   2.544   2.977   7.944 -0.0607 -0.3676 -0.2005
 4703TIP3    H135744   2.548   3.069   7.918  0.9149  0.0584  1.2947
 4703TIP3    H235745   2.461   2.945   7.908  0.3117  0.6404 -2.0866
 4704TIP3   OH235746   1.575   3.721   7.654  0.4982 -0.3164 -0.6151
 4704TIP3    H135747   1.558   3.682   7.739  0.2437 -0.9081 -0.9301
 4704TIP3    H235748   1.582   3.815   7.671  0.0442 -0.3920 -0.0087
 4705TIP3   OH235749   3.250   6.425   6.997 -0.3046  0.0287 -0.0854
 4705TIP3    H135750   3.164   6.412   6.957 -0.0358 -0.9452 -0.3946
 4705TIP3    H235751   3.286   6.336   7.004  0.6378  0.4129  0.1166
 4706TIP3   OH235752   5.120   3.222   2.737 -0.1730 -0.6519 -0.0554
 4706TIP3    H135753   5.204   3.266   2.724 -0.5249 -0.0272 -0.3210
 4706TIP3    H235754   5.086   3.209   2.648  0.1816 -2.0068 -0.0114
 4707TIP3   OH235755   4.792   6.367   7.150 -0.0797 -0.4200  0.4368
 4707TIP3    H135756   4.705   6.330   7.133  0.0259 -0.6801  0.4631
 4707TIP3    H235757   4.823   6.319   7.227  0.1394 -0.4072  0.3544
 4708TIP3   OH235758   0.309   1.249   0.007 -0.0742 -0.1761  0.1114
 4708TIP3    H135759   0.359   1.328   0.029 -3.3647  1.7323  1.4212
 4708TIP3    H235760   0.321   1.191   0.083  0.3563  0.1111  0.2670
 4709TIP3   OH235761   4.272   6.823   8.624  0.2784 -0.6824 -0.1085
 4709TIP3    H135762   4.355   6.783   8.649 -0.0879 -1.7892 -0.5866
 4709TIP3    H235763   4.206   6.756   8.645 -0.4650  0.0896  0.0564
 4710TIP3   OH235764   5.325   2.086   0.827 -0.0969  0.3088 -0.0511
 4710TIP3    H135765   5.358   2.176   0.829 -0.0920  0.2945  1.3172
 4710TIP3    H235766   5.230   2.094   0.835 -0.0986  0.1866  0.0545
 4711TIP3   OH235767   1.412   6.566   6.942  0.6271 -0.4015 -0.3644
 4711TIP3    H135768   1.358   6.568   6.863  0.1325  1.0667 -0.0235
 4711TIP3    H235769   1.362   6.618   7.006  1.9135  0.0319  0.3125
 4712TIP3   OH235770   5.413   0.153   0.438 -0.3876 -0.3294 -0.1510
 4712TIP3    H135771   5.409   0.125   0.529 -2.4839  0.0851 -0.0530
 4712TIP3    H235772   5.433   0.074   0.389 -1.2078 -0.9805  0.5256
 4713TIP3   OH235773   3.930   1.979   7.068 -0.3033  0.1047 -0.0265
 4713TIP3    H135774   3.873   2.051   7.042 -0.2808  0.3361  0.5338
 4713TIP3    H235775   3.988   1.966   6.994  0.7910  1.7866  0.4639
 4714TIP3   OH235776   1.780   0.253   2.189  0.0154 -0.1380 -0.0117
 4714TIP3    H135777   1.735   0.326   2.146  0.3928 -0.1461 -0.4382
 4714TIP3    H235778   1.760   0.177   2.134  0.6383 -0.1185 -0.2806
 4715TIP3   OH235779   0.905   6.846   8.728  0.2680  1.1554 -1.4805
 4715TIP3    H135780   0.833   6.826   8.669 -0.5691  1.9528 -0.7518
 4715TIP3    H235781   0.952   6.917   8.686  0.5272  0.7694 -1.8576
 4716TIP3   OH235782   3.303   0.199   8.813 -0.1619 -0.4957  0.2564
 4716TIP3    H135783   3.342   0.141   8.747  2.4388  1.0909  0.2935
 4716TIP3    H235784   3.303   0.147   8.893 -2.4619 -2.0971 -0.6391
 4717TIP3   OH235785   2.842   3.421   1.506  0.8255 -0.2676 -0.1607
 4717TIP3    H135786   2.786   3.349   1.535  0.3306  0.1296 -0.1044
 4717TIP3    H235787   2.886   3.451   1.586 -0.3284  0.6458  0.1758
 4718TIP3   OH235788   2.948   6.818   7.650 -0.8433 -0.0321  0.0310
 4718TIP3    H135789   3.039   6.801   7.672 -0.6539  1.1078  0.2169
 4718TIP3    H235790   2.945   6.911   7.628 -2.3745  0.5810  2.3838
 4719TIP3   OH235791   6.752   5.045   1.176 -0.2725 -0.4951 -0.3179
 4719TIP3    H135792   6.676   5.017   1.228 -0.5930 -1.1747 -1.1170
 4719TIP3    H235793   6.790   5.117   1.225 -1.7876  0.2466 -0.1691
 4720TIP3   OH235794   1.656   4.517   1.079  0.0307  0.1740  0.3396
 4720TIP3    H135795   1.690   4.597   1.118  2.0443 -0.2165 -0.4736
 4720TIP3    H235796   1.731   4.457   1.079 -1.0658 -1.2550 -0.2547
 4721TIP3   OH235797   1.616   0.999   1.174 -1.0482 -0.2032  0.6387
 4721TIP3    H135798   1.585   0.995   1.264 -0.6786  0.4100  0.7987
 4721TIP3    H235799   1.704   1.035   1.180 -0.0553 -2.3714  0.2467
 4722TIP3   OH235800   5.278   0.633   0.741  0.3662  0.1071  0.7642
 4722TIP3    H135801   5.338   0.625   0.816  0.1470 -0.6381  0.8609
 4722TIP3    H235802   5.195   0.659   0.780  0.0490 -1.0245  0.8729
 4723TIP3   OH235803   4.858   5.841   1.547 -0.1865 -0.2756 -0.2750
 4723TIP3    H135804   4.893   5.911   1.492  2.5880 -1.8773 -0.7607
 4723TIP3    H235805   4.769   5.826   1.514  0.2735  0.9541 -2.2071
 4724TIP3   OH235806   5.941   1.176   2.305  0.3336  0.1113  0.1380
 4724TIP3    H135807   5.964   1.246   2.243 -1.8859  0.2754 -0.6062
 4724TIP3    H235808   5.909   1.222   2.382  0.0794 -0.0749  0.1450
 4725TIP3   OH235809   1.902   4.841   2.665  0.4680 -0.3014  0.7838
 4725TIP3    H135810   1.876   4.899   2.737 -0.5331 -0.1295  0.2991
 4725TIP3    H235811   1.966   4.782   2.705 -1.1322 -1.1571  2.2187
 4726TIP3   OH235812   0.614   0.386   1.083  0.1743  0.0441 -0.4219
 4726TIP3    H135813   0.520   0.371   1.088  0.3693 -1.6089 -0.9469
 4726TIP3    H235814   0.627   0.474   1.119 -1.5584  0.3132 -0.3776
 4727TIP3   OH235815   2.740   0.091   2.774 -0.2054  0.0644  0.5593
 4727TIP3    H135816   2.753   0.145   2.852 -1.2104 -3.3501  3.3542
 4727TIP3    H235817   2.821   0.042   2.765 -0.8939 -1.1777  0.9018
 4728TIP3   OH235818   2.294   4.588   1.643  0.0530 -0.5111 -0.1557
 4728TIP3    H135819   2.251   4.652   1.701 -0.7903 -1.4373  0.2849
 4728TIP3    H235820   2.387   4.605   1.654 -0.1280  1.8633 -1.4702
 4729TIP3   OH235821   1.113   0.653   6.983  0.0453 -0.3438 -0.0147
 4729TIP3    H135822   1.058   0.696   6.917 -0.3643 -0.6761  0.1016
 4729TIP3    H235823   1.051   0.602   7.036 -0.0660  2.0901  2.4147
 4730TIP3   OH235824   0.992   1.039   0.521  0.3741  0.1437  0.1508
 4730TIP3    H135825   0.927   0.971   0.501 -0.6662  0.9008  0.8634
 4730TIP3    H235826   0.942   1.109   0.562  1.8413  0.1411  2.1006
 4731TIP3   OH235827   0.378   2.633   0.847  0.0138  0.1706 -0.2699
 4731TIP3    H135828   0.393   2.725   0.828  0.1858  0.0687 -0.6376
 4731TIP3    H235829   0.435   2.613   0.921 -1.0184  0.6946  0.6952
 4732TIP3   OH235830   4.866   0.814   1.054  0.5643  0.1394  0.2890
 4732TIP3    H135831   4.823   0.898   1.039 -0.7415 -0.4401  0.5916
 4732TIP3    H235832   4.860   0.800   1.148  0.0582 -0.6391  0.1566
 4733TIP3   OH235833   5.223   6.050   7.365  0.1359  0.1078 -0.0947
 4733TIP3    H135834   5.249   6.005   7.285  0.3885  1.2553 -0.6762
 4733TIP3    H235835   5.276   6.129   7.367 -0.5935  0.5984  0.6808
 4734TIP3   OH235836   1.485   6.073   7.763 -0.3555 -0.3075  0.1293
 4734TIP3    H135837   1.520   6.088   7.675 -1.6508 -2.4077 -0.8229
 4734TIP3    H235838   1.411   6.133   7.770 -0.7541 -0.6993 -0.5711
 4735TIP3   OH235839   0.132   6.709   1.711 -0.4844  0.8595 -0.2845
 4735TIP3    H135840   0.070   6.776   1.685  1.0351  2.2279 -0.5410
 4735TIP3    H235841   0.193   6.703   1.637 -0.9348 -1.2880 -0.5445
 4736TIP3   OH235842   0.493   6.028   8.148 -0.0006 -0.3436 -0.3318
 4736TIP3    H135843   0.555   6.101   8.149  1.1659 -1.2469 -2.1102
 4736TIP3    H235844   0.547   5.951   8.164 -0.8117 -1.0767 -1.0635
 4737TIP3   OH235845   5.705   6.705   8.155  0.1976  0.2656 -0.2435
 4737TIP3    H135846   5.637   6.753   8.202 -0.6537  0.6233 -1.7803
 4737TIP3    H235847   5.730   6.763   8.083  1.5992 -0.1855 -0.1490
 4738TIP3   OH235848   0.076   0.261   0.752  0.1660 -0.3159 -0.2069
 4738TIP3    H135849   0.093   0.355   0.740 -1.3659 -0.1143 -1.0761
 4738TIP3    H235850   0.148   0.231   0.808 -0.8649  1.9486  2.5998
 4739TIP3   OH235851   4.377   5.145   8.748 -0.0579  0.0931  0.1114
 4739TIP3    H135852   4.295   5.096   8.741 -0.4866  0.6881  0.8857
 4739TIP3    H235853   4.350   5.237   8.755  0.5511  0.1428  2.5700
 4740TIP3   OH235854   2.178   0.784   0.797  0.8122 -0.2175 -0.7936
 4740TIP3    H135855   2.158   0.695   0.826  0.4582 -0.0503 -0.5223
 4740TIP3    H235856   2.254   0.810   0.848  2.5226 -1.2851 -2.6349
 4741TIP3   OH235857   1.558   1.515   7.677 -0.0116  0.2107 -0.3719
 4741TIP3    H135858   1.506   1.477   7.606 -1.4273  1.4285 -0.0578
 4741TIP3    H235859   1.586   1.600   7.642 -2.1793  1.6027  1.0363
 4742TIP3   OH235860   4.183   0.820   1.281  0.3673  0.3195 -0.1625
 4742TIP3    H135861   4.196   0.869   1.363 -0.4751 -0.4151  0.4206
 4742TIP3    H235862   4.096   0.845   1.251  0.1352 -0.4250 -0.1288
 4743TIP3   OH235863   2.630   1.877   1.249  0.0236 -0.3221  0.1082
 4743TIP3    H135864   2.696   1.810   1.230  0.0754 -0.0865 -0.5503
 4743TIP3    H235865   2.657   1.914   1.333  0.2199 -0.8522  0.2784
 4744TIP3   OH235866   2.113   6.524   0.928  0.1935  0.3646 -0.1609
 4744TIP3    H135867   2.116   6.504   1.021 -2.0216 -0.0588 -0.1290
 4744TIP3    H235868   2.107   6.619   0.923 -0.7998  0.3281  0.1916
 4745TIP3   OH235869   1.165   6.589   8.269  0.0592  0.0644 -0.3782
 4745TIP3    H135870   1.182   6.661   8.330 -2.1580  0.8978 -0.6249
 4745TIP3    H235871   1.086   6.547   8.304  0.4453 -1.3217 -1.0850
 4746TIP3   OH235872   4.983   0.488   7.412  0.3482 -0.0208  0.1124
 4746TIP3    H135873   4.978   0.435   7.333  0.9920 -1.7928  1.1938
 4746TIP3    H235874   4.892   0.494   7.443  0.2148 -0.0844 -0.2623
 4747TIP3   OH235875   1.170   1.608   1.543  0.0081 -0.6681 -0.0664
 4747TIP3    H135876   1.234   1.601   1.471 -0.5038 -1.1455 -0.4867
 4747TIP3    H235877   1.207   1.554   1.613  0.2024 -0.7158 -0.2040
 4748TIP3   OH235878   3.444   2.132   8.690 -0.5606  0.0363 -0.3741
 4748TIP3    H135879   3.535   2.157   8.706 -0.4759 -0.4852 -0.0026
 4748TIP3    H235880   3.442   2.109   8.597  0.3021 -2.3057  0.0970
 4749TIP3   OH235881   0.608   1.120   0.754  0.2390  0.4992  0.5012
 4749TIP3    H135882   0.619   1.125   0.659 -0.1605  0.6751  0.4617
 4749TIP3    H235883   0.652   1.039   0.780  1.2765  0.9839  0.3006
 4750TIP3   OH235884   6.761   5.486   1.593 -0.1644  0.2361  0.2359
 4750TIP3    H135885   6.784   5.456   1.681 -3.1090 -1.5679  0.5029
 4750TIP3    H235886   6.722   5.572   1.607  0.1853  0.3426  0.5763
 4751TIP3   OH235887   2.938   5.102   7.814  0.0860 -0.5605  0.3180
 4751TIP3    H135888   2.951   5.137   7.726  2.2358  0.9643  1.1421
 4751TIP3    H235889   2.980   5.016   7.813 -0.1604 -0.6749 -0.2047
 4752TIP3   OH235890   5.001   0.583   8.037  0.3549 -0.0900  0.4621
 4752TIP3    H135891   5.074   0.536   8.077  0.0160 -0.2389  0.9117
 4752TIP3    H235892   4.935   0.588   8.106 -1.0566 -2.1369 -0.6319
 4753TIP3   OH235893   1.170   5.256   0.821 -0.0842 -0.6458  0.2042
 4753TIP3    H135894   1.100   5.245   0.757 -0.4279  0.8240  0.2852
 4753TIP3    H235895   1.246   5.282   0.769 -0.1860 -0.1148  0.3109
 4754TIP3   OH235896   6.003   0.830   8.679  0.0915  0.8784 -0.0072
 4754TIP3    H135897   6.045   0.753   8.640 -2.0485 -0.0023 -0.6928
 4754TIP3    H235898   6.076   0.890   8.695  1.8139 -1.1286  0.2911
 4755TIP3   OH235899   2.522   0.732   7.180 -0.3333 -0.0516 -0.2939
 4755TIP3    H135900   2.581   0.722   7.106 -0.1287 -0.3663 -0.0899
 4755TIP3    H235901   2.457   0.795   7.150  0.3279  0.6028 -0.3897
 4756TIP3   OH235902   0.909   0.162   8.419 -0.6947  0.0639  0.6096
 4756TIP3    H135903   0.895   0.070   8.441 -0.6570 -0.2452 -0.5993
 4756TIP3    H235904   0.996   0.164   8.379 -1.0048  0.5012 -0.0554
 4757TIP3   OH235905   5.392   3.312   0.574  0.4823  0.2239 -0.1377
 4757TIP3    H135906   5.332   3.290   0.645  0.8202 -0.7421 -0.1368
 4757TIP3    H235907   5.398   3.232   0.521  0.4739  0.8356 -1.0885
 4758TIP3   OH235908   3.831   1.183   2.649 -0.2712 -0.0996 -0.3231
 4758TIP3    H135909   3.755   1.149   2.697  0.9991 -1.9728  0.5152
 4758TIP3    H235910   3.836   1.275   2.673 -2.1466  0.0048 -0.2511
 4759TIP3   OH235911   0.970   1.202   0.897  0.1728 -0.1844 -0.5304
 4759TIP3    H135912   1.064   1.215   0.880  0.1815 -0.9756 -1.1126
 4759TIP3    H235913   0.931   1.199   0.810 -0.4576  0.4999 -0.2837
 4760TIP3   OH235914   1.614   2.389   7.630 -0.0246 -0.9470 -0.5920
 4760TIP3    H135915   1.527   2.373   7.593 -0.9662  1.3624  0.4048
 4760TIP3    H235916   1.638   2.475   7.596  1.6478 -1.3222 -0.4135
 4761TIP3   OH235917   6.250   1.317   2.214  0.1961 -0.0679  0.6003
 4761TIP3    H135918   6.208   1.240   2.253 -0.9223  0.8354  1.2494
 4761TIP3    H235919   6.336   1.321   2.257 -0.5617  0.2333  2.1917
 4762TIP3   OH235920   5.168   2.232   0.603  0.2684  0.5581  0.1151
 4762TIP3    H135921   5.077   2.258   0.596 -0.0017 -0.1198  0.9524
 4762TIP3    H235922   5.173   2.148   0.558  0.9738  1.6225 -1.8972
 4763TIP3   OH235923   4.211   6.519   1.634  0.2216  0.2720 -0.0142
 4763TIP3    H135924   4.288   6.464   1.618 -0.4697 -1.3230  1.7578
 4763TIP3    H235925   4.171   6.529   1.547  1.6296 -0.0737 -0.7302
 4764TIP3   OH235926   6.545   1.846   0.701 -0.1926  0.4129  0.4686
 4764TIP3    H135927   6.609   1.831   0.631 -0.6359  0.4788  0.0416
 4764TIP3    H235928   6.590   1.903   0.763  0.1864  0.4042  0.2073
 4765TIP3   OH235929   4.099   3.227   8.421 -0.6723  0.2873  0.4956
 4765TIP3    H135930   4.142   3.197   8.501 -2.9217  0.1114  1.7226
 4765TIP3    H235931   4.095   3.323   8.431  0.6023  0.4410 -0.2760
 4766TIP3   OH235932   5.067   5.374   2.370  0.4318 -0.4437 -0.2680
 4766TIP3    H135933   4.998   5.428   2.407 -1.1342 -0.6083 -2.7573
 4766TIP3    H235934   5.148   5.420   2.391 -0.6658  1.4972 -0.1073
 4767TIP3   OH235935   3.224   6.297   0.220  0.3004 -0.6189 -0.2264
 4767TIP3    H135936   3.319   6.287   0.208  0.1916 -2.4071  0.0927
 4767TIP3    H235937   3.199   6.364   0.156  1.6170 -0.8848 -1.0701
 4768TIP3   OH235938   5.939   1.686   7.105  0.4425 -0.5653 -0.3471
 4768TIP3    H135939   5.874   1.756   7.100  1.0261 -0.0697 -1.4372
 4768TIP3    H235940   6.023   1.730   7.087  1.0454 -1.2497  0.6729
 4769TIP3   OH235941   4.992   6.037   8.702 -0.9856 -0.2867 -1.1096
 4769TIP3    H135942   5.087   6.030   8.689 -0.9274  1.7293 -2.1196
 4769TIP3    H235943   4.977   5.994   8.786  0.7207 -1.2020 -1.2179
 4770TIP3   OH235944   5.040   5.344   0.420 -0.2914  0.3986 -0.1654
 4770TIP3    H135945   5.003   5.284   0.355  0.8468 -2.3515  1.5565
 4770TIP3    H235946   5.135   5.339   0.405 -0.0845  0.5877  0.9895
 4771TIP3   OH235947   5.255   3.578   2.671 -0.0366  0.0318  0.7701
 4771TIP3    H135948   5.235   3.531   2.590  0.0197  0.2967  0.6026
 4771TIP3    H235949   5.281   3.509   2.732 -0.1076 -0.1723  0.5726
 4772TIP3   OH235950   1.594   3.280   0.936  0.2773  0.3232  0.3999
 4772TIP3    H135951   1.685   3.257   0.953  0.1574  0.4864  1.3139
 4772TIP3    H235952   1.561   3.208   0.883  1.2871  0.8981 -1.0808
 4773TIP3   OH235953   6.033   3.378   7.998 -0.2923  0.2951 -0.2438
 4773TIP3    H135954   6.085   3.309   7.955 -1.3212 -0.3050 -0.5766
 4773TIP3    H235955   6.095   3.422   8.056  0.3009 -1.2648  0.3908
 4774TIP3   OH235956   6.588   4.762   1.638  0.2845  0.1674  0.6959
 4774TIP3    H135957   6.596   4.676   1.679  1.5060  0.0428  0.2223
 4774TIP3    H235958   6.494   4.774   1.626 -0.0051 -0.3694  2.2900
 4775TIP3   OH235959   6.247   2.169   0.918  0.3181 -0.1534 -0.4081
 4775TIP3    H135960   6.257   2.210   1.004  0.2931 -0.0405 -0.4582
 4775TIP3    H235961   6.265   2.077   0.933  0.1651 -0.1577 -0.2531
 4776TIP3   OH235962   6.301   0.824   8.233  0.5579  0.1704  0.2884
 4776TIP3    H135963   6.239   0.807   8.304 -0.0111  3.6819  0.8259
 4776TIP3    H235964   6.283   0.914   8.207  4.9149  1.1452 -0.1079
 4777TIP3   OH235965   6.289   1.578   1.161  0.5240  0.2480  0.4377
 4777TIP3    H135966   6.373   1.623   1.151  1.3204 -1.5589 -1.9790
 4777TIP3    H235967   6.311   1.485   1.163 -1.3961 -0.2758 -0.2920
 4778TIP3   OH235968   3.507   0.017   7.287  0.2815 -0.1649  0.0902
 4778TIP3    H135969   3.501   0.080   7.215  0.0983  0.5872  0.7484
 4778TIP3    H235970   3.421  -0.025   7.289 -0.2906  0.9888  0.9010
 4779TIP3   OH235971   3.250   5.349   2.574  0.3121  0.4481  0.8075
 4779TIP3    H135972   3.283   5.423   2.524  1.2770 -1.7874 -2.1719
 4779TIP3    H235973   3.156   5.346   2.555  0.7334 -0.6031 -1.3556
 4780TIP3   OH235974   4.777   2.147   1.202  0.0001 -0.2082  0.7288
 4780TIP3    H135975   4.688   2.131   1.232 -0.2786  1.0238  0.5823
 4780TIP3    H235976   4.769   2.171   1.110  0.4470  0.2550  0.8052
 4781TIP3   OH235977   6.133   3.704   8.568  0.0050 -0.6719  0.1535
 4781TIP3    H135978   6.212   3.653   8.583  1.1795  0.8083 -0.7421
 4781TIP3    H235979   6.160   3.795   8.581 -0.9645  0.0589 -2.4090
 4782TIP3   OH235980   3.240   4.700   1.664  0.0800 -0.0110  0.4217
 4782TIP3    H135981   3.175   4.632   1.678 -0.7703  1.0342  1.8043
 4782TIP3    H235982   3.309   4.683   1.728  0.3666 -0.1415  0.0864
 4783TIP3   OH235983   3.303   5.005   0.214 -0.5744  0.3173 -0.7714
 4783TIP3    H135984   3.307   4.914   0.187 -0.3858  0.9241 -2.9975
 4783TIP3    H235985   3.234   5.007   0.281 -0.3281 -1.4906 -0.4190
 4784TIP3   OH235986   2.451   1.661   8.733 -0.0494  0.1910 -0.3425
 4784TIP3    H135987   2.409   1.747   8.739 -0.8236 -0.1518 -0.7401
 4784TIP3    H235988   2.481   1.656   8.642  1.1773  0.5723  0.0281
 4785TIP3   OH235989   1.780   3.227   7.858 -0.1169 -0.0028 -0.0079
 4785TIP3    H135990   1.832   3.306   7.849 -0.2893  0.1314  0.1591
 4785TIP3    H235991   1.780   3.209   7.952  0.8472 -0.8280 -0.1510
 4786TIP3   OH235992   1.273   3.211   8.640  0.3789 -0.2370  0.7500
 4786TIP3    H135993   1.349   3.197   8.583 -0.8650  0.6627 -1.2672
 4786TIP3    H235994   1.247   3.124   8.668  0.6878 -0.7875 -0.5885
 4787TIP3   OH235995   5.093   5.789   0.849  0.0883  0.0467  0.3907
 4787TIP3    H135996   5.111   5.882   0.839  1.3162 -0.1283  0.7475
 4787TIP3    H235997   5.176   5.746   0.824 -0.8921 -1.0303 -1.2097
 4788TIP3   OH235998   2.142   5.721   0.876  0.3621  0.2373  0.0781
 4788TIP3    H135999   2.079   5.793   0.883  1.7703  1.4597  0.6864
 4788TIP3    H236000   2.113   5.671   0.800 -1.6484  0.4349  0.6613
 4789TIP3   OH236001   0.369   3.807   1.520 -0.0315  0.1660 -0.2489
 4789TIP3    H136002   0.339   3.790   1.609  2.1805 -1.5043  0.2602
 4789TIP3    H236003   0.404   3.896   1.522  0.5435 -0.0710  0.7359
 4790TIP3   OH236004   3.398   6.552   1.189 -0.2211 -0.3634  0.2607
 4790TIP3    H136005   3.416   6.618   1.255 -1.4781  0.7503 -0.4656
 4790TIP3    H236006   3.390   6.601   1.107  0.4315 -1.6162 -0.5883
 4791TIP3   OH236007   2.703   0.657   0.631  0.0302  0.0221 -0.0205
 4791TIP3    H136008   2.655   0.722   0.580  1.1087 -0.0398 -1.1655
 4791TIP3    H236009   2.651   0.646   0.710 -0.6988  1.5492 -0.2388
 4792TIP3   OH236010   3.329   6.597   0.677 -0.0827 -0.4227 -0.2927
 4792TIP3    H136011   3.276   6.615   0.598 -0.6144 -0.8354 -0.0415
 4792TIP3    H236012   3.403   6.546   0.644  0.1925  0.1949 -0.6573
 4793TIP3   OH236013   1.208   0.592   7.336  0.2477  0.0971  0.8002
 4793TIP3    H136014   1.250   0.545   7.263 -1.0531 -1.1920  0.8416
 4793TIP3    H236015   1.133   0.635   7.296  0.4098  0.6752  1.1105
 4794TIP3   OH236016   4.378   5.683   0.750  0.5265 -0.8693  0.3113
 4794TIP3    H136017   4.408   5.720   0.667  2.0131 -2.0144  0.2943
 4794TIP3    H236018   4.389   5.753   0.813  1.1244 -0.5527 -0.1337
 4795TIP3   OH236019   5.558   2.061   8.604 -0.2374 -0.3837 -0.4343
 4795TIP3    H136020   5.614   2.138   8.595 -0.6171  0.1941  1.6300
 4795TIP3    H236021   5.498   2.067   8.529 -0.1310  1.2408 -0.4347
 4796TIP3   OH236022   0.657   1.075   2.992 -0.1663  0.0290 -0.1984
 4796TIP3    H136023   0.622   1.097   2.905 -1.6980  0.8448  0.5777
 4796TIP3    H236024   0.587   1.023   3.033  0.4209 -0.1126  0.6459
 4797TIP3   OH236025   3.432   0.105   2.007 -0.7376 -0.8719  0.3504
 4797TIP3    H136026   3.383   0.137   2.082 -1.4743 -1.4175  0.1112
 4797TIP3    H236027   3.524   0.116   2.032 -0.9326  1.3549  0.3100
 4798TIP3   OH236028   0.694   0.432   8.406  0.6442  0.0343 -0.2454
 4798TIP3    H136029   0.732   0.347   8.427  0.6208  0.4415  1.6636
 4798TIP3    H236030   0.624   0.414   8.343  0.4186 -1.3907  0.3971
 4799TIP3   OH236031   0.811   3.767   1.500  0.0273  0.0313 -0.4620
 4799TIP3    H136032   0.817   3.862   1.488 -1.1287 -0.0912 -2.5524
 4799TIP3    H236033   0.769   3.756   1.585 -0.2539  1.4077 -0.3867
 4800TIP3   OH236034   2.635   4.777   2.402 -0.3434 -0.3155 -0.3168
 4800TIP3    H136035   2.565   4.714   2.419 -1.8756  1.3250 -0.3533
 4800TIP3    H236036   2.690   4.773   2.480 -2.4763  0.9019  1.3358
 4801TIP3   OH236037   3.394   5.936   1.472 -0.0419  0.7702 -0.2424
 4801TIP3    H136038   3.442   5.990   1.536 -0.7828  0.9533  0.1697
 4801TIP3    H236039   3.317   5.905   1.520 -0.1899  0.2451 -0.8111
 4802TIP3   OH236040   2.623   4.508   7.502  0.0693  0.1526 -0.3373
 4802TIP3    H136041   2.687   4.438   7.505  1.0818  1.0117 -1.1780
 4802TIP3    H236042   2.579   4.504   7.587  1.8050  0.0730  0.6008
 4803TIP3   OH236043   6.602   3.725   8.540 -0.4056  0.0634  0.0317
 4803TIP3    H136044   6.630   3.801   8.488 -0.3571  0.4661  0.6383
 4803TIP3    H236045   6.590   3.760   8.628 -0.8860 -0.5331  0.2035
 4804TIP3   OH236046   4.426   2.304   8.699 -1.0222 -0.6615 -0.0462
 4804TIP3    H136047   4.489   2.375   8.693  0.3076 -1.7462  0.6024
 4804TIP3    H236048   4.407   2.280   8.609 -1.9715  0.8811 -0.2999
 4805TIP3   OH236049   4.474   0.894   7.707 -0.0357  0.5879  0.0564
 4805TIP3    H136050   4.400   0.834   7.698 -0.6334  1.0475  1.5751
 4805TIP3    H236051   4.491   0.897   7.801  1.9166  0.5190 -0.2619
 4806TIP3   OH236052   5.968   1.934   0.076 -0.4728  0.1404  0.0504
 4806TIP3    H136053   6.050   1.959   0.119 -0.9561 -1.6238  2.2415
 4806TIP3    H236054   5.904   1.933   0.147 -2.0508 -0.0700 -1.3174
 4807TIP3   OH236055   2.886   2.592   1.555  0.1950 -0.5477 -0.0873
 4807TIP3    H136056   2.849   2.542   1.483  0.9519  0.5712 -1.3016
 4807TIP3    H236057   2.981   2.580   1.546  0.4846  2.0135 -1.1596
 4808TIP3   OH236058   0.026   3.479   8.738 -0.7772  0.2949 -0.4274
 4808TIP3    H136059  -0.036   3.445   8.673 -2.2571  1.4999  0.3099
 4808TIP3    H236060   0.107   3.431   8.720 -2.2251 -2.2919 -0.6046
 4809TIP3   OH236061   0.445   3.805   0.586  0.4659 -0.5106 -0.5266
 4809TIP3    H136062   0.481   3.885   0.624  0.1790 -0.6185 -0.0158
 4809TIP3    H236063   0.449   3.819   0.492 -0.1452  0.3524 -0.4273
 4810TIP3   OH236064   0.931   4.392   1.046  0.2203 -0.3612  0.4354
 4810TIP3    H136065   0.983   4.418   1.122  0.0977 -0.6755  0.6274
 4810TIP3    H236066   0.987   4.331   0.998  0.7095  0.6018 -0.2838
 4811TIP3   OH236067   4.186   0.285   2.415  0.0995 -0.0450  0.0473
 4811TIP3    H136068   4.174   0.191   2.398 -0.9426  0.1372 -0.2892
 4811TIP3    H236069   4.249   0.288   2.487 -2.0338 -1.0945  2.0797
 4812TIP3   OH236070   4.490   2.543   2.996  0.3182 -0.6273 -0.2459
 4812TIP3    H136071   4.447   2.482   3.056  0.3357  0.2463  0.6924
 4812TIP3    H236072   4.424   2.608   2.976  0.8983  0.2184  0.4776
 4813TIP3   OH236073   0.449   3.087   2.147 -0.3520 -0.2642  0.2514
 4813TIP3    H136074   0.493   3.154   2.199 -1.1913  1.6256 -1.3350
 4813TIP3    H236075   0.488   3.093   2.060 -1.0492 -1.2351 -0.1552
 4814TIP3   OH236076   2.847   5.082   1.486 -0.2826  0.0757 -0.0932
 4814TIP3    H136077   2.894   5.163   1.502  0.4099 -0.6229  1.7214
 4814TIP3    H236078   2.761   5.095   1.526 -1.2659  0.8813 -2.2843
 4815TIP3   OH236079   5.545   2.458   0.948  0.0587  0.0094  0.0391
 4815TIP3    H136080   5.547   2.509   0.867 -0.0145 -0.0983 -0.0320
 4815TIP3    H236081   5.635   2.459   0.979 -0.2453  1.7220  1.0105
 4816TIP3   OH236082   3.618   4.316   1.246  0.5582  0.0093  0.6201
 4816TIP3    H136083   3.638   4.257   1.173 -2.7400 -1.5261  0.7613
 4816TIP3    H236084   3.645   4.268   1.324 -0.0071 -0.3257  0.6142
 4817TIP3   OH236085   5.078   5.809   8.115  0.1707  0.1442 -0.2639
 4817TIP3    H136086   4.995   5.762   8.120  0.3081 -0.2019 -1.1275
 4817TIP3    H236087   5.114   5.786   8.030  1.0837  0.4156  0.0335
 4818TIP3   OH236088   1.290   1.614   8.588  0.1964  0.2135 -0.5236
 4818TIP3    H136089   1.299   1.607   8.493  0.7091  1.1457 -0.5599
 4818TIP3    H236090   1.359   1.676   8.614  1.3033 -1.4185  0.6838
 4819TIP3   OH236091   1.123   1.989   0.266 -0.1912  0.5397 -0.1322
 4819TIP3    H136092   1.116   2.071   0.216  0.1563  0.3570 -0.4876
 4819TIP3    H236093   1.164   2.015   0.349  0.0177  0.7111 -0.2879
 4820TIP3   OH236094   5.043   1.130   6.979  0.4624 -0.2699  0.0788
 4820TIP3    H136095   5.061   1.062   6.914  1.0624 -1.5843  1.5595
 4820TIP3    H236096   4.955   1.111   7.010 -0.4777  1.3116 -1.3952
 4821TIP3   OH236097   4.676   2.958   7.492  0.6242  0.2933 -0.1150
 4821TIP3    H136098   4.636   3.005   7.419  0.3476 -0.3550 -0.3820
 4821TIP3    H236099   4.741   2.900   7.451 -0.4982 -1.1057  0.0024
 4822TIP3   OH236100   5.759   4.134   2.944 -0.2624  0.6273 -0.2491
 4822TIP3    H136101   5.739   4.214   2.991 -0.4944  0.2833  0.2455
 4822TIP3    H236102   5.675   4.104   2.909 -0.2868  0.2792  0.0904
 4823TIP3   OH236103   5.713   3.786   0.134 -0.3137 -0.4691 -0.6897
 4823TIP3    H136104   5.710   3.694   0.107 -1.0206 -1.0872  1.3094
 4823TIP3    H236105   5.650   3.830   0.078 -1.6890 -1.6716 -0.1507
 4824TIP3   OH236106   2.580   5.902   8.736  0.0479 -0.3134  0.1008
 4824TIP3    H136107   2.660   5.878   8.782  0.1176  1.0302  0.7106
 4824TIP3    H236108   2.603   5.978   8.683 -0.9258  0.4060  0.6717
 4825TIP3   OH236109   2.541   0.378   0.393  0.0214 -0.0264 -0.1987
 4825TIP3    H136110   2.571   0.342   0.477  1.0717  0.2674 -0.4371
 4825TIP3    H236111   2.480   0.448   0.418 -1.3283 -1.3294  0.2747
 4826TIP3   OH236112   2.019   1.106   1.950 -0.2641 -0.5531 -0.2385
 4826TIP3    H136113   2.024   1.198   1.974 -0.3984 -0.7085  0.4124
 4826TIP3    H236114   2.103   1.088   1.906  0.3666 -0.4575  0.8710
 4827TIP3   OH236115   5.971   4.922   8.066 -0.4566 -0.3437 -0.5743
 4827TIP3    H136116   5.967   4.827   8.080  0.2458 -0.4686 -1.1891
 4827TIP3    H236117   5.880   4.951   8.072 -0.5540 -0.8598  0.9382
 4828TIP3   OH236118   2.159   0.781   7.315  0.6822 -0.0549 -0.1449
 4828TIP3    H136119   2.177   0.739   7.400  0.8850  1.4615  0.5936
 4828TIP3    H236120   2.235   0.836   7.298  0.9781 -0.8966 -1.7009
 4829TIP3   OH236121   0.476   5.462   6.898 -0.1139 -0.1523  0.0826
 4829TIP3    H136122   0.384   5.455   6.923 -0.0514 -1.0520  0.0865
 4829TIP3    H236123   0.503   5.547   6.932 -1.1824  0.5543 -0.7358
 4830TIP3   OH236124   3.056   5.221   2.190 -0.1205 -0.0190 -0.0608
 4830TIP3    H136125   3.142   5.179   2.183  0.3724  0.7293  1.2006
 4830TIP3    H236126   2.997   5.150   2.215  0.7546  0.0150  2.3341
 4831TIP3   OH236127   4.442   5.019   7.676  0.2020  0.1559  0.2732
 4831TIP3    H136128   4.466   5.103   7.637  0.8751  0.0863  0.5298
 4831TIP3    H236129   4.348   5.011   7.659  0.0490  1.1384  0.5744
 4832TIP3   OH236130   3.434   3.173   7.470  0.2893 -0.3702 -0.0109
 4832TIP3    H136131   3.436   3.084   7.506  1.9530 -0.5149 -0.3771
 4832TIP3    H236132   3.341   3.189   7.451 -0.1433 -1.7127  0.7975
 4833TIP3   OH236133   4.826   5.307   1.324 -0.2371 -0.5174  0.0614
 4833TIP3    H136134   4.888   5.284   1.393 -0.0362 -0.9619 -0.2597
 4833TIP3    H236135   4.792   5.392   1.350 -1.1410 -1.2459  1.3920
 4834TIP3   OH236136   0.332   1.937   7.492 -0.4648 -0.3050  0.6054
 4834TIP3    H136137   0.294   1.870   7.549  0.0834 -0.4136  0.8440
 4834TIP3    H236138   0.349   1.891   7.410 -2.4581  0.1535 -0.1156
 4835TIP3   OH236139   0.850   3.511   0.820  0.1782 -0.6430 -0.7943
 4835TIP3    H136140   0.889   3.477   0.900  2.0320  1.3537 -0.7578
 4835TIP3    H236141   0.894   3.463   0.750  3.4677  2.0635 -0.7852
 4836TIP3   OH236142   3.901   5.711   2.299 -0.2485  0.3606  0.3260
 4836TIP3    H136143   3.824   5.678   2.347  0.3604 -0.0582  1.0327
 4836TIP3    H236144   3.904   5.804   2.321 -0.8902  0.5158 -0.1856
 4837TIP3   OH236145   2.602   1.088   0.060  0.7768  0.2250 -0.8789
 4837TIP3    H136146   2.656   1.018   0.097  1.7078  1.0496 -0.6353
 4837TIP3    H236147   2.562   1.130   0.135 -0.1923 -0.3547 -1.0583
 4838TIP3   OH236148   2.329   6.565   7.707  0.0506  0.5046 -0.4303
 4838TIP3    H136149   2.412   6.516   7.699  0.1498  0.9035 -2.4369
 4838TIP3    H236150   2.288   6.555   7.621 -1.1157  1.8751 -0.0599
 4839TIP3   OH236151   3.644   0.973   0.526 -0.4555  0.2224 -0.7000
 4839TIP3    H136152   3.716   0.947   0.469 -0.7981 -1.7945 -0.2833
 4839TIP3    H236153   3.607   1.051   0.484  3.1455  2.6285  0.1298
 4840TIP3   OH236154   4.684   4.778   2.474  0.4237 -0.7855  0.7278
 4840TIP3    H136155   4.771   4.816   2.487  0.1057 -0.1593  1.1273
 4840TIP3    H236156   4.659   4.744   2.560 -0.6421  1.0778  1.2232
 4841TIP3   OH236157   2.899   1.689   8.481  0.4593 -0.3147 -0.0720
 4841TIP3    H136158   2.856   1.667   8.398  1.0438  0.7057 -0.6636
 4841TIP3    H236159   2.852   1.638   8.547 -0.6467 -0.3851 -0.8963
 4842TIP3   OH236160   4.689   4.975   0.303  0.7360  0.1462  0.4524
 4842TIP3    H136161   4.618   5.019   0.257 -0.2569 -1.3858  0.4437
 4842TIP3    H236162   4.676   4.998   0.395  0.2481 -0.0736  0.4410
 4843TIP3   OH236163   1.189   4.710   1.113 -0.0811  0.1543 -0.2429
 4843TIP3    H136164   1.165   4.642   1.176  1.7134  0.3211  0.6760
 4843TIP3    H236165   1.170   4.792   1.159 -2.9094  0.3830 -1.6013
 4844TIP3   OH236166   4.993   6.612   7.835 -0.2041 -0.3352 -0.5744
 4844TIP3    H136167   5.084   6.584   7.825  0.2288  0.7276  0.1646
 4844TIP3    H236168   4.941   6.535   7.812  0.9263 -1.9368  1.8339
 4845TIP3   OH236169   3.492   0.610   8.562 -0.0474  0.0483 -0.2011
 4845TIP3    H136170   3.517   0.525   8.598 -1.9091 -0.5132 -0.1487
 4845TIP3    H236171   3.535   0.612   8.476 -0.6304 -1.3034 -0.5485
 4846TIP3   OH236172   3.200   3.661   7.914 -0.5483  0.5132  0.1252
 4846TIP3    H136173   3.135   3.730   7.903 -0.5902  0.4053 -0.2910
 4846TIP3    H236174   3.282   3.699   7.882  0.4981  2.0110  3.9331
 4847TIP3   OH236175   3.848   6.412   7.277  0.3704 -0.2858  0.0824
 4847TIP3    H136176   3.826   6.484   7.217  0.1565 -0.1543  0.3172
 4847TIP3    H236177   3.871   6.455   7.359  2.1401 -0.3714 -0.3163
 4848TIP3   OH236178   1.223   1.233   0.789  0.1999 -0.0559 -0.2240
 4848TIP3    H136179   1.298   1.202   0.738  2.1071  1.3262  1.5941
 4848TIP3    H236180   1.179   1.296   0.732  1.6707  0.6820 -0.5822
 4849TIP3   OH236181   6.088   6.002   1.777  0.4278 -0.2637  0.6255
 4849TIP3    H136182   6.052   5.915   1.757  0.5499  0.0831 -1.3073
 4849TIP3    H236183   6.018   6.048   1.822 -0.6755 -0.4413 -0.8514
 4850TIP3   OH236184   1.965   1.647   1.148 -0.0765  0.0550 -1.1499
 4850TIP3    H136185   1.896   1.649   1.215 -1.2824  0.4605 -2.3616
 4850TIP3    H236186   1.940   1.714   1.085  2.8562  2.1256 -0.3300
 4851TIP3   OH236187   3.597   6.783   0.599  0.3022  0.1355  0.4958
 4851TIP3    H136188   3.626   6.773   0.690  3.0922  0.9106 -0.1989
 4851TIP3    H236189   3.557   6.699   0.577 -0.1306 -0.1815  2.3175
 4852TIP3   OH236190   0.732   1.272   8.539  0.1503  0.4152  0.1706
 4852TIP3    H136191   0.670   1.252   8.469  1.9181 -0.1994 -1.3105
 4852TIP3    H236192   0.680   1.317   8.606 -1.6268  0.9765 -1.5070
 4853TIP3   OH236193   4.847   6.224   8.424 -0.0043  0.0892  0.6845
 4853TIP3    H136194   4.927   6.277   8.428  1.1604 -1.3311 -1.4979
 4853TIP3    H236195   4.776   6.287   8.436  1.3065  2.2321 -1.7932
 4854TIP3   OH236196   0.291   0.686   0.637 -0.1982 -0.4894 -0.1432
 4854TIP3    H136197   0.255   0.759   0.587  0.7131  0.1407  0.0901
 4854TIP3    H236198   0.386   0.694   0.626  0.1802  0.5882  2.8379
 4855TIP3   OH236199   2.538   0.773   1.519 -0.6119  0.1900 -0.1438
 4855TIP3    H136200   2.620   0.723   1.526 -1.1933 -0.6164  1.1326
 4855TIP3    H236201   2.506   0.753   1.431  0.4976  0.4282 -0.6226
 4856TIP3   OH236202   4.824   0.323   8.616 -0.3130  0.0175  0.0210
 4856TIP3    H136203   4.801   0.405   8.660 -0.6862  0.2746 -0.6479
 4856TIP3    H236204   4.741   0.287   8.586  0.0283  0.3933 -1.4296
 4857TIP3   OH236205   0.748   2.017   7.250  0.5734  0.3487 -0.3583
 4857TIP3    H136206   0.781   1.963   7.322  0.3215  0.0012 -0.4977
 4857TIP3    H236207   0.671   1.969   7.218  1.3931 -0.1431 -1.6487
 4858TIP3   OH236208   2.658   2.716   7.207  0.6830  0.3819 -0.5368
 4858TIP3    H136209   2.579   2.718   7.153  0.6248  1.3758 -0.4348
 4858TIP3    H236210   2.648   2.791   7.267  1.6178  0.4229 -0.4110
 4859TIP3   OH236211   1.718   3.314   6.828 -0.0894  0.0163  0.5729
 4859TIP3    H136212   1.637   3.308   6.777  0.7264  0.3592 -0.8098
 4859TIP3    H236213   1.727   3.407   6.847  0.2125  0.0403  0.3200
 4860TIP3   OH236214   4.745   6.185   8.072 -0.2109 -0.0196 -0.5570
 4860TIP3    H136215   4.785   6.260   8.114  0.6983 -0.9256  0.2479
 4860TIP3    H236216   4.810   6.155   8.008  0.1062 -1.0536  0.2334
 4861TIP3   OH236217   2.396   6.248   8.794 -0.5827  0.0131  1.0186
 4861TIP3    H136218   2.362   6.284   8.711  1.1717 -2.0590 -0.7206
 4861TIP3    H236219   2.473   6.302   8.813  0.2107 -0.7490  0.1152
 4862TIP3   OH236220   5.170   2.425   8.043 -0.2045  0.3708  0.0722
 4862TIP3    H136221   5.095   2.375   8.010  0.1192  0.1141 -0.2791
 4862TIP3    H236222   5.131   2.502   8.084 -0.7240 -0.2701  0.8116
 4863TIP3   OH236223   5.890   0.283   6.816  0.7091 -0.1650  0.4732
 4863TIP3    H136224   5.864   0.317   6.730  1.5266 -0.0852  0.2577
 4863TIP3    H236225   5.915   0.361   6.866  0.8637 -0.2765  0.5695
 4864TIP3   OH236226   1.653   2.124   0.292  0.3944  0.4530 -0.0694
 4864TIP3    H136227   1.666   2.175   0.371  1.7703  0.1682 -0.0887
 4864TIP3    H236228   1.739   2.086   0.273  0.0824  0.4673 -1.6620
 4865TIP3   OH236229   1.375   3.616   7.491  0.4727 -0.1988  0.3684
 4865TIP3    H136230   1.351   3.706   7.470  1.8606  0.0219 -0.3969
 4865TIP3    H236231   1.445   3.624   7.556 -0.0942 -0.7585  1.0683
 4866TIP3   OH236232   5.086   4.700   8.702 -0.3148  0.2653  0.0426
 4866TIP3    H136233   4.995   4.682   8.725 -0.3732  3.1693  2.6392
 4866TIP3    H236234   5.086   4.790   8.670  1.6823  0.5828  0.7688
 4867TIP3   OH236235   4.203   4.632   0.093 -0.6939  0.2748  0.0805
 4867TIP3    H136236   4.161   4.554   0.130 -1.7784  0.7748 -0.0648
 4867TIP3    H236237   4.142   4.704   0.112  0.2425  1.0853  0.1404
 4868TIP3   OH236238   4.390   5.324   8.396 -0.4486 -0.3363 -0.7571
 4868TIP3    H136239   4.310   5.369   8.423 -0.8606 -1.6708  0.4000
 4868TIP3    H236240   4.393   5.335   8.301 -0.9987  1.3091 -0.6111
 4869TIP3   OH236241   2.603   5.959   2.253  0.2170  0.4094 -0.2181
 4869TIP3    H136242   2.668   5.979   2.186 -0.3858  0.0175 -0.9424
 4869TIP3    H236243   2.629   6.011   2.329  1.3959  0.2180 -0.4709
 4870TIP3   OH236244   4.861   1.662   2.339 -0.1351  0.1224 -0.8167
 4870TIP3    H136245   4.922   1.719   2.293  0.2090 -1.1627 -2.0463
 4870TIP3    H236246   4.884   1.574   2.309 -1.5626 -0.5365 -0.0778
 4871TIP3   OH236247   6.753   1.341   1.739 -0.0987 -0.1993 -0.1141
 4871TIP3    H136248   6.746   1.254   1.700 -2.2009  0.1017 -0.5403
 4871TIP3    H236249   6.745   1.326   1.833 -0.4611 -0.4734 -0.1864
 4872TIP3   OH236250   5.368   6.804   0.680 -0.5221 -0.0024  0.3647
 4872TIP3    H136251   5.381   6.709   0.676 -0.3840  0.0443 -0.4488
 4872TIP3    H236252   5.376   6.825   0.774  0.0258 -0.7104  0.4894
 4873TIP3   OH236253   1.270   2.930   0.532 -0.0890 -0.2934  0.3523
 4873TIP3    H136254   1.269   3.018   0.495  0.8303  0.2968  1.6444
 4873TIP3    H236255   1.355   2.924   0.575  1.2604 -2.9321 -2.2729
 4874TIP3   OH236256   1.777   4.862   2.435 -0.3590  0.4014 -0.1230
 4874TIP3    H136257   1.682   4.852   2.445 -0.3478  1.2090  1.0735
 4874TIP3    H236258   1.813   4.826   2.516  0.2336  1.4699  0.1117
 4875TIP3   OH236259   1.663   4.796   8.026 -0.3488 -0.2199  0.0196
 4875TIP3    H136260   1.668   4.777   8.120 -0.9040  0.6016  0.2262
 4875TIP3    H236261   1.679   4.890   8.020  1.8562 -0.5919 -0.9202
 4876TIP3   OH236262   5.221   2.661   0.550  0.7102 -0.2183 -0.5250
 4876TIP3    H136263   5.285   2.596   0.521  0.1187 -0.8398 -0.4679
 4876TIP3    H236264   5.196   2.633   0.638 -0.9215 -1.0056 -1.1947
 4877TIP3   OH236265   4.945   4.246   2.193  0.8236 -0.6801  0.1515
 4877TIP3    H136266   4.904   4.172   2.239  0.8761 -0.8018  0.0048
 4877TIP3    H236267   4.944   4.220   2.101 -1.2076  0.4723 -0.1941
 4878TIP3   OH236268   1.574   1.226   0.365  0.0866  0.3830 -0.4881
 4878TIP3    H136269   1.653   1.192   0.405 -0.0583 -0.7158 -1.1110
 4878TIP3    H236270   1.557   1.169   0.290 -0.5372  1.4173 -1.1771
 4879TIP3   OH236271   6.456   5.961   1.504  0.0468  0.0242 -0.0098
 4879TIP3    H136272   6.486   6.051   1.515 -1.3889  0.5324 -0.0471
 4879TIP3    H236273   6.422   5.936   1.590 -1.1261  0.1440 -0.4164
 4880TIP3   OH236274   2.605   4.893   8.137  0.1959 -0.4901  0.1247
 4880TIP3    H136275   2.625   4.949   8.062  0.6570  0.4462  0.9121
 4880TIP3    H236276   2.663   4.817   8.127 -0.4181 -0.8375 -0.9472
 4881TIP3   OH236277   3.892   2.237   8.057  0.1751  0.0072  0.0069
 4881TIP3    H136278   3.893   2.154   8.010  1.5875 -0.5456  0.9477
 4881TIP3    H236279   3.964   2.230   8.119  0.9065  2.2916 -0.4963
 4882TIP3   OH236280   2.776   2.845   8.453  0.3202  0.4270  0.3124
 4882TIP3    H136281   2.769   2.776   8.387  0.7912  1.4146 -0.8187
 4882TIP3    H236282   2.714   2.820   8.521  1.2682 -1.6904  0.5031
 4883TIP3   OH236283   6.762   0.087   8.532  0.3754  0.5053 -0.1807
 4883TIP3    H136284   6.680   0.079   8.483  1.6207 -1.9016 -2.1538
 4883TIP3    H236285   6.741   0.144   8.605 -2.9646  0.2483 -0.7682
 4884TIP3   OH236286   2.504   5.948   0.487 -0.0724  0.0987 -1.0876
 4884TIP3    H136287   2.530   5.940   0.395  0.4801 -1.4169 -0.8192
 4884TIP3    H236288   2.429   5.888   0.496 -0.8971  1.1330 -0.8096
 4885TIP3   OH236289   1.322   1.612   0.936 -0.2182  0.4238  0.0375
 4885TIP3    H136290   1.274   1.625   0.854  0.7246  0.9397 -0.4354
 4885TIP3    H236291   1.253   1.590   0.999 -0.7921 -1.7776 -1.2491
 4886TIP3   OH236292   5.575   4.452   1.656 -0.0815  0.1742 -0.2212
 4886TIP3    H136293   5.555   4.472   1.564  0.2177 -0.0741 -0.3437
 4886TIP3    H236294   5.597   4.359   1.656 -0.4833  0.0792  0.1753
 4887TIP3   OH236295   3.470   5.935   1.866  0.1934 -0.2747  0.6035
 4887TIP3    H136296   3.493   5.845   1.842  0.6598  0.1896 -0.7812
 4887TIP3    H236297   3.546   5.966   1.915  0.3149 -0.4141  0.5058
 4888TIP3   OH236298   4.757   3.278   0.545 -0.1416 -0.1352  0.6111
 4888TIP3    H136299   4.838   3.329   0.552  0.8018 -1.6920  1.6435
 4888TIP3    H236300   4.743   3.269   0.451  0.4336  0.8266  0.4111
 4889TIP3   OH236301   1.794   5.548   7.024  0.0156  0.5563  0.0618
 4889TIP3    H136302   1.699   5.535   7.028  0.0980  0.1048  0.5180
 4889TIP3    H236303   1.807   5.635   7.062  0.0524 -0.5589  2.7765
 4890TIP3   OH236304   5.664   6.685   1.674 -0.0510 -0.7184  0.1349
 4890TIP3    H136305   5.708   6.643   1.599  0.1123 -0.4504  0.0800
 4890TIP3    H236306   5.715   6.764   1.690 -0.5210 -0.4028  0.0729
 4891TIP3   OH236307   0.980   5.666   7.560  0.0451 -0.2952  0.3732
 4891TIP3    H136308   1.061   5.697   7.601 -0.2145  1.0017 -0.0404
 4891TIP3    H236309   1.006   5.642   7.471 -0.0244  0.1904  0.2170
 4892TIP3   OH236310   3.125   2.214   1.592 -0.5970  0.4223  0.2744
 4892TIP3    H136311   3.208   2.170   1.572 -1.4744 -1.2515  0.1549
 4892TIP3    H236312   3.059   2.164   1.544 -1.6928  1.7377  0.3409
 4893TIP3   OH236313   5.245   2.844   1.149  0.5526  0.2329  0.4823
 4893TIP3    H136314   5.289   2.820   1.231  0.9628 -0.8931 -0.0463
 4893TIP3    H236315   5.299   2.806   1.080  0.1937  1.1334 -0.3300
 4894TIP3   OH236316   1.405   3.110   0.824 -0.0899  0.3882 -0.1682
 4894TIP3    H136317   1.327   3.136   0.774 -0.3211  1.3074  0.6236
 4894TIP3    H236318   1.370   3.054   0.894 -0.1316  1.2162  0.4942
 4895TIP3   OH236319   6.001   5.619   8.054  0.0054 -0.0472  0.0950
 4895TIP3    H136320   6.096   5.622   8.051 -0.0435  1.6244 -1.5160
 4895TIP3    H236321   5.976   5.561   7.981 -0.2145  0.8010 -0.5227
 4896TIP3   OH236322   2.396   2.255   8.207  0.3949 -0.0855  0.0279
 4896TIP3    H136323   2.491   2.255   8.212  0.3875 -0.0674  0.1591
 4896TIP3    H236324   2.373   2.162   8.206  0.3020 -0.1424  2.1224
 4897TIP3   OH236325   2.038   4.480   1.824 -0.1276 -0.4715  0.5013
 4897TIP3    H136326   2.037   4.387   1.848  1.0486 -0.4856  0.5163
 4897TIP3    H236327   2.015   4.481   1.731  0.9082 -0.8682  0.2328
 4898TIP3   OH236328   6.251   1.722   7.970  0.4038  0.1135  0.1329
 4898TIP3    H136329   6.286   1.714   8.059  2.1249  0.9796 -0.4291
 4898TIP3    H236330   6.273   1.639   7.928  0.5568  0.1264  0.1878
 4899TIP3   OH236331   1.413   0.863   2.014 -0.6885  0.2306 -0.0632
 4899TIP3    H136332   1.376   0.868   2.102 -2.4400 -2.6953 -0.4953
 4899TIP3    H236333   1.446   0.951   1.997 -0.5036  0.9845  3.3822
 4900TIP3   OH236334   0.064   6.413   1.007 -0.8595  0.2701  0.0493
 4900TIP3    H136335  -0.025   6.384   0.989 -1.2553  1.8712 -0.7457
 4900TIP3    H236336   0.055   6.502   1.039  0.4679  0.4382  0.0398
 4901TIP3   OH236337   4.282   2.096   1.580  0.1290  0.3078  0.1186
 4901TIP3    H136338   4.327   2.151   1.515 -0.6848  0.3320 -0.4415
 4901TIP3    H236339   4.309   2.132   1.665 -0.0944  1.3470 -0.2379
 4902TIP3   OH236340   1.326   4.129   2.541  0.0244  0.3459  0.3650
 4902TIP3    H136341   1.412   4.171   2.543  0.4944 -0.6234  1.5188
 4902TIP3    H236342   1.320   4.081   2.623 -1.3741 -0.1198  0.0298
 4903TIP3   OH236343   4.709   1.822   8.251  0.4360 -0.0127 -0.1580
 4903TIP3    H136344   4.683   1.847   8.339  0.8577  1.7264 -0.4896
 4903TIP3    H236345   4.784   1.763   8.264 -1.9596 -3.0799  0.7066
 4904TIP3   OH236346   0.893   3.787   6.866  0.0425  0.5971 -0.4775
 4904TIP3    H136347   0.882   3.800   6.960 -0.4414 -0.0106 -0.4413
 4904TIP3    H236348   0.905   3.693   6.856 -1.3244  0.4660 -1.1467
 4905TIP3   OH236349   1.373   0.863   2.304 -0.7005  0.0955  0.3293
 4905TIP3    H136350   1.315   0.938   2.321 -0.0954  0.7647 -0.4841
 4905TIP3    H236351   1.461   0.899   2.310 -0.4149 -0.2815 -1.2070
 4906TIP3   OH236352   3.635   2.462   2.691 -0.0644  0.2363  0.0665
 4906TIP3    H136353   3.612   2.506   2.609 -1.4996 -2.2049 -0.9770
 4906TIP3    H236354   3.596   2.375   2.682  2.8779 -1.4085  1.7985
 4907TIP3   OH236355   2.410   1.193   6.801 -0.2257  0.1521  0.1097
 4907TIP3    H136356   2.355   1.183   6.879 -1.0449  1.2188 -0.3029
 4907TIP3    H236357   2.487   1.140   6.820 -0.7682 -0.2672  1.3002
 4908TIP3   OH236358   4.993   1.962   2.326  0.3188  0.0812  0.3674
 4908TIP3    H136359   4.982   1.967   2.421 -0.6485 -1.8615  0.4118
 4908TIP3    H236360   5.088   1.956   2.313  0.6777  3.0600  0.9660
 4909TIP3   OH236361   3.896   6.409   8.235  0.3172  0.3747 -0.0902
 4909TIP3    H136362   3.982   6.413   8.277  0.1209  0.0931  0.3450
 4909TIP3    H236363   3.915   6.414   8.141  0.8164  0.1846 -0.0023
 4910TIP3   OH236364   4.372   3.032   7.578 -0.4487  0.0587 -0.1743
 4910TIP3    H136365   4.450   3.011   7.526 -1.2005 -0.7693 -1.0194
 4910TIP3    H236366   4.299   3.018   7.517 -1.4164 -1.6148  1.2707
 4911TIP3   OH236367   4.450   0.509   2.104  0.4047  0.2902 -0.3310
 4911TIP3    H136368   4.400   0.542   2.029 -2.0034 -0.4367  0.8427
 4911TIP3    H236369   4.389   0.517   2.178  1.8496 -1.2128  1.0955
 4912TIP3   OH236370   0.707   0.333   7.876 -0.1798 -1.1003  0.4793
 4912TIP3    H136371   0.735   0.292   7.794  0.1221 -1.8854  0.9654
 4912TIP3    H236372   0.641   0.397   7.850  1.0807 -0.1656 -0.5546
 4913TIP3   OH236373   4.849   4.321   8.745  0.0934 -0.0816  0.5458
 4913TIP3    H136374   4.877   4.285   8.829  0.6964 -2.0116 -0.4189
 4913TIP3    H236375   4.929   4.330   8.694 -0.4770 -1.2373 -0.6273
 4914TIP3   OH236376   0.444   1.592   7.863  0.3064  0.3883  0.3051
 4914TIP3    H136377   0.516   1.645   7.830  0.1806  0.2027 -0.2992
 4914TIP3    H236378   0.482   1.537   7.931  0.3474  1.5290  1.2128
 4915TIP3   OH236379   6.617   0.423   3.073 -0.1451 -0.5301  0.4877
 4915TIP3    H136380   6.659   0.352   3.122  1.7197  1.1983  1.5204
 4915TIP3    H236381   6.686   0.487   3.058 -1.9796  1.6205  0.6015
 4916TIP3   OH236382   5.347   6.527   8.815  0.5210 -0.3032  0.0456
 4916TIP3    H136383   5.423   6.477   8.844 -0.3176 -0.8196  1.4359
 4916TIP3    H236384   5.332   6.590   8.885  1.1632  1.5336 -1.3762
 4917TIP3   OH236385   2.161   0.937   8.538 -0.6129 -0.7886 -0.3368
 4917TIP3    H136386   2.146   1.002   8.607  0.0316  0.6573 -1.5037
 4917TIP3    H236387   2.074   0.924   8.500 -0.7019 -0.3673 -0.2908
 4918TIP3   OH236388   4.281   2.120   2.313  0.5910 -0.5365  0.7603
 4918TIP3    H136389   4.319   2.125   2.400  0.8047  0.0765  0.6334
 4918TIP3    H236390   4.356   2.123   2.254  0.4092 -0.3177  0.5375
 4919TIP3   OH236391   2.369   4.696   7.909  0.1955 -0.9004  0.3662
 4919TIP3    H136392   2.405   4.776   7.870 -0.0928 -0.9916 -0.0977
 4919TIP3    H236393   2.338   4.723   7.995 -1.4404 -0.1228 -0.4350
 4920TIP3   OH236394   2.686   4.969   8.772 -0.3255  0.0071  0.3474
 4920TIP3    H136395   2.728   4.911   8.708  0.3033  0.0794  0.6906
 4920TIP3    H236396   2.597   4.979   8.739 -0.0620 -0.0998 -0.4265
 4921TIP3   OH236397   6.514   2.277   1.697 -0.1524  0.1503 -0.4746
 4921TIP3    H136398   6.560   2.218   1.637  0.8231  1.3336 -0.9387
 4921TIP3    H236399   6.524   2.364   1.658 -1.9919  0.5778 -0.0741
 4922TIP3   OH236400   5.377   5.172   1.413 -0.0627 -0.2506 -0.5772
 4922TIP3    H136401   5.318   5.114   1.461 -0.0610  0.0394 -0.2144
 4922TIP3    H236402   5.391   5.245   1.473  1.6001 -0.8614 -0.1727
 4923TIP3   OH236403   6.249   5.004   7.358  0.3032 -0.0627 -0.4868
 4923TIP3    H136404   6.155   5.002   7.370  0.0214 -0.0858 -2.3682
 4923TIP3    H236405   6.272   5.097   7.361  0.3432 -0.0942  0.6130
 4924TIP3   OH236406   3.730   0.994   1.480 -0.1303  0.5081 -0.1952
 4924TIP3    H136407   3.695   0.954   1.401  0.3696 -2.0394  0.7534
 4924TIP3    H236408   3.824   0.980   1.475  0.0467  1.4561  0.2643
 4925TIP3   OH236409   3.867   2.575   8.456 -0.2562 -0.8470 -0.2646
 4925TIP3    H136410   3.830   2.491   8.481 -1.7150  0.1596  1.2136
 4925TIP3    H236411   3.801   2.639   8.484  1.5717  0.8939  0.2815
 4926TIP3   OH236412   6.371   3.786   2.138  0.1009 -0.4445 -0.0393
 4926TIP3    H136413   6.298   3.784   2.199 -0.8850  1.3077 -1.0810
 4926TIP3    H236414   6.333   3.817   2.056  1.9845  0.3573 -0.6691
 4927TIP3   OH236415   4.557   3.937   8.158  0.2610 -0.3993  0.1392
 4927TIP3    H136416   4.541   4.006   8.222 -1.0572  1.3032 -1.8995
 4927TIP3    H236417   4.652   3.931   8.153  0.4560  1.9625 -0.2480
 4928TIP3   OH236418   5.146   2.047   1.797 -0.2476  0.0858 -0.4444
 4928TIP3    H136419   5.125   2.063   1.705 -2.0928  0.8212  0.0541
 4928TIP3    H236420   5.242   2.052   1.801  0.1079 -2.6798 -2.7586
 4929TIP3   OH236421   6.086   6.388   2.021  0.0894  0.2404 -0.0981
 4929TIP3    H136422   6.045   6.427   2.099  0.8158 -1.4773  1.2073
 4929TIP3    H236423   6.043   6.303   2.011  0.4298  0.1813 -1.2330
 4930TIP3   OH236424   5.614   3.117   1.697 -0.0219 -0.3231  0.2233
 4930TIP3    H136425   5.667   3.059   1.751  3.8297  1.8627 -0.8676
 4930TIP3    H236426   5.618   3.079   1.609 -0.8995 -0.4690  0.2305
 4931TIP3   OH236427   5.081   3.248   0.081  0.3751 -0.2539 -0.5494
 4931TIP3    H136428   5.102   3.321   0.023  0.6291 -0.5324 -0.8149
 4931TIP3    H236429   4.992   3.224   0.058  0.2047  0.1304 -0.2909
 4932TIP3   OH236430   3.741   4.831   1.841  0.2199  0.2343 -0.2172
 4932TIP3    H136431   3.683   4.887   1.789 -0.7037 -0.9984 -0.5768
 4932TIP3    H236432   3.779   4.890   1.906 -1.4716  1.0949  0.0537
 4933TIP3   OH236433   4.195   3.357   8.661 -0.5552 -0.0977 -0.1861
 4933TIP3    H136434   4.268   3.312   8.703 -1.0425 -0.5810  0.1632
 4933TIP3    H236435   4.206   3.449   8.687 -0.1459 -0.1884 -0.0295
 4934TIP3   OH236436   0.713   0.696   8.092 -0.1996 -0.2279 -0.4906
 4934TIP3    H136437   0.672   0.750   8.159 -0.8069  0.2968 -1.2686
 4934TIP3    H236438   0.783   0.750   8.056 -0.4900 -0.1332 -0.9296
 4935TIP3   OH236439   5.410   0.868   1.588  0.0374 -0.4809 -0.3879
 4935TIP3    H136440   5.451   0.793   1.632 -1.2211 -0.1936  1.4240
 4935TIP3    H236441   5.338   0.830   1.538  0.7861 -0.6934 -1.3282
 4936TIP3   OH236442   2.807   3.697   2.284 -0.2753 -0.4914 -0.2903
 4936TIP3    H136443   2.830   3.754   2.357  0.4927 -0.2971 -0.6673
 4936TIP3    H236444   2.712   3.686   2.290 -0.3737  0.4609  0.0523
 4937TIP3   OH236445   2.421   4.518   0.308  1.2474 -0.1532 -0.1734
 4937TIP3    H136446   2.410   4.423   0.313  0.4181 -0.0071  1.3912
 4937TIP3    H236447   2.471   4.541   0.386 -0.2071  0.8797  0.5048
 4938TIP3   OH236448   0.442   1.178   7.496 -0.4408  0.5230  0.5043
 4938TIP3    H136449   0.380   1.204   7.428 -0.9967 -0.3125  0.6881
 4938TIP3    H236450   0.523   1.223   7.472 -0.7097  0.4753 -0.5389
 4939TIP3   OH236451   5.958   1.932   2.389 -0.1267  0.1776  0.1464
 4939TIP3    H136452   5.900   2.002   2.359 -0.2799 -0.7464 -1.8409
 4939TIP3    H236453   6.028   1.978   2.435 -0.9121  1.5251  0.0544
 4940TIP3   OH236454   6.051   1.518   6.896 -0.1912  0.4394 -0.1048
 4940TIP3    H136455   6.105   1.573   6.839 -0.3980  1.8953  1.0168
 4940TIP3    H236456   5.997   1.581   6.945 -0.3136 -0.7631  1.3881
 4941TIP3   OH236457   0.194   3.450   3.331 -0.0692  0.0303 -0.0668
 4941TIP3    H136458   0.151   3.447   3.245 -0.8852 -1.4942  0.3551
 4941TIP3    H236459   0.278   3.406   3.318 -0.2114 -0.2394 -0.0798
 4942TIP3   OH236460   3.308   2.455   0.923  0.2136  0.6315 -0.5695
 4942TIP3    H136461   3.381   2.432   0.981 -0.9356 -1.0629  0.2979
 4942TIP3    H236462   3.347   2.454   0.835  1.5152  1.0852 -0.0218
 4943TIP3   OH236463   3.416   4.295   8.398 -0.3339 -0.1052  0.6384
 4943TIP3    H136464   3.439   4.202   8.387 -1.0779 -0.4287  1.6833
 4943TIP3    H236465   3.500   4.341   8.393  0.1078 -0.8928  0.6435
 4944TIP3   OH236466   4.935   0.471   2.116 -0.2224 -0.7239 -0.1243
 4944TIP3    H136467   4.952   0.540   2.052 -0.1140 -2.0270 -1.5900
 4944TIP3    H236468   4.873   0.510   2.178 -1.4933  0.1845 -1.8527
 4945TIP3   OH236469   2.370   6.735   8.149  0.3399 -0.0758 -0.1289
 4945TIP3    H136470   2.435   6.806   8.148 -0.0009  0.2893  1.4248
 4945TIP3    H236471   2.370   6.703   8.239 -0.0354 -1.5903 -0.6390
 4946TIP3   OH236472   5.419   2.847   2.276  0.6978  0.3037  0.4403
 4946TIP3    H136473   5.503   2.873   2.239  0.6741 -0.3720 -0.1029
 4946TIP3    H236474   5.373   2.929   2.292  1.1592  0.6433  0.0377
 4947TIP3   OH236475   4.362   6.399   1.965  0.6825 -0.2873  0.5683
 4947TIP3    H136476   4.434   6.439   1.917  0.4691  0.2904  0.7183
 4947TIP3    H236477   4.323   6.472   2.014 -0.5597 -0.4132 -0.1912
 4948TIP3   OH236478   2.668   2.042   0.755 -0.6308 -0.1973 -0.0010
 4948TIP3    H136479   2.693   1.963   0.802  0.0384  0.5043  0.8567
 4948TIP3    H236480   2.583   2.021   0.717 -1.2170 -0.7877  1.5487
 4949TIP3   OH236481   0.917   3.588   8.824 -0.5600 -0.3260  0.0211
 4949TIP3    H136482   0.957   3.643   8.892  0.4383  0.4780 -1.1590
 4949TIP3    H236483   0.873   3.650   8.766  1.7713 -0.4836 -2.1281
 4950TIP3   OH236484   5.820   1.495   0.281  0.7658 -0.6801 -0.2503
 4950TIP3    H136485   5.827   1.408   0.240  0.9398  0.2701 -2.3780
 4950TIP3    H236486   5.905   1.536   0.266  0.4738  0.0996  0.1627
 4951TIP3   OH236487   0.818   3.468   2.882  0.3770  0.4268  0.1988
 4951TIP3    H136488   0.889   3.417   2.920  0.5654  0.9850  0.6011
 4951TIP3    H236489   0.845   3.559   2.893  1.0185  0.6349 -2.3289
 4952TIP3   OH236490   1.552   2.566   7.013 -0.1697  0.3256  0.5166
 4952TIP3    H136491   1.596   2.573   7.098  0.0863 -0.5009  0.4693
 4952TIP3    H236492   1.545   2.471   6.998  0.6695  0.4486 -0.8293
 4953TIP3   OH236493   4.120   3.533   0.869  0.2039  0.2319 -0.2381
 4953TIP3    H136494   4.210   3.510   0.890  1.1860  4.0168  0.5202
 4953TIP3    H236495   4.121   3.552   0.775  0.3685  0.8083 -0.1245
 4954TIP3   OH236496   1.894   4.385   1.067  0.3166  0.7158  0.3151
 4954TIP3    H136497   1.963   4.405   1.131 -0.1609  0.3562  0.9561
 4954TIP3    H236498   1.878   4.291   1.077 -1.4614  1.0832  1.4221
 4955TIP3   OH236499   3.613   3.977   0.067  0.2924  0.0070  0.3867
 4955TIP3    H136500   3.631   3.986   0.160 -0.5242 -0.0002  0.5515
 4955TIP3    H236501   3.551   3.905   0.061 -1.2994  1.3541  0.0531
 4956TIP3   OH236502   6.137   0.609   0.691 -0.4606 -0.4507 -0.1739
 4956TIP3    H136503   6.139   0.563   0.775  0.7759  0.8440  0.5507
 4956TIP3    H236504   6.046   0.636   0.681 -0.6701 -0.8037  0.6461
 4957TIP3   OH236505   6.552   0.503   7.843 -0.0926  0.1631 -0.2795
 4957TIP3    H136506   6.567   0.421   7.889 -3.3949 -1.2182 -1.3784
 4957TIP3    H236507   6.477   0.542   7.887  0.4652  1.8643 -0.7528
 4958TIP3   OH236508   5.167   1.224   2.405  0.8457  0.2751 -0.1930
 4958TIP3    H136509   5.183   1.261   2.492 -1.6991 -0.7721  0.7997
 4958TIP3    H236510   5.074   1.239   2.389  1.5693  2.1301 -3.6189
 4959TIP3   OH236511   3.816   2.280   0.938  0.8887  0.0952 -0.1681
 4959TIP3    H136512   3.742   2.261   0.996 -0.2744  3.7589 -0.1543
 4959TIP3    H236513   3.886   2.309   0.997  1.2743 -0.4191 -0.3673
 4960TIP3   OH236514   1.401   6.514   7.787  0.1811  0.6957  0.0440
 4960TIP3    H136515   1.353   6.535   7.707 -0.5540  0.5368  0.4317
 4960TIP3    H236516   1.355   6.561   7.856  1.2716  1.4505  0.2840
 4961TIP3   OH236517   4.775   3.797   0.590  0.2461  0.2529  0.6757
 4961TIP3    H136518   4.782   3.892   0.581  1.6079  0.0361 -1.0220
 4961TIP3    H236519   4.807   3.778   0.678 -0.5658  1.3996  1.2348
 4962TIP3   OH236520   3.130   6.479   1.153  0.9158 -0.1920 -0.1198
 4962TIP3    H136521   3.221   6.467   1.180  0.8729 -0.9539 -0.2998
 4962TIP3    H236522   3.117   6.414   1.085 -0.6224 -2.1871  1.9212
 4963TIP3   OH236523   4.839   1.356   2.548 -0.2466 -0.4355  0.4573
 4963TIP3    H136524   4.875   1.433   2.590 -0.9008 -0.3130  0.8081
 4963TIP3    H236525   4.833   1.290   2.617 -0.9766 -0.3520  0.4888
 4964TIP3   OH236526   0.829   3.040   0.041 -0.1742  0.3968 -0.5076
 4964TIP3    H136527   0.764   3.081   0.098  1.8760  1.3407  1.2951
 4964TIP3    H236528   0.873   3.113  -0.002 -0.1623 -0.2179 -1.5719
 4965TIP3   OH236529   4.520   2.893   8.781  0.0943 -0.1115  0.2378
 4965TIP3    H136530   4.491   2.917   8.693  0.6269  1.0713  0.3665
 4965TIP3    H236531   4.440   2.889   8.832 -0.2818 -1.3685 -0.4056
 4966TIP3   OH236532   0.005   6.183   8.632 -0.6127  0.0064  0.1992
 4966TIP3    H136533   0.020   6.259   8.689  0.7044 -0.2996  0.2954
 4966TIP3    H236534   0.063   6.115   8.667 -2.0600 -1.2011  0.3604
 4967TIP3   OH236535   5.249   3.115   8.747 -0.1582 -0.5321 -0.2730
 4967TIP3    H136536   5.184   3.067   8.695  0.6373 -2.3761  0.3633
 4967TIP3    H236537   5.198   3.151   8.821 -1.1272  1.3886 -1.7753
 4968TIP3   OH236538   4.993   4.843   2.953 -0.1795 -0.4546 -0.1189
 4968TIP3    H136539   5.073   4.879   2.916  0.2747 -0.3362  0.9226
 4968TIP3    H236540   5.003   4.748   2.946  0.0741 -0.4400  0.0299
 4969TIP3   OH236541   5.104   4.615   7.792 -0.2717 -0.0464 -0.4653
 4969TIP3    H136542   5.149   4.605   7.708  1.6945  2.3785  0.1963
 4969TIP3    H236543   5.070   4.705   7.790 -2.4942 -0.7816  0.3573
 4970TIP3   OH236544   1.175   2.675   0.856  0.6892 -0.1240 -0.3334
 4970TIP3    H136545   1.239   2.702   0.922  0.5756 -1.8601  0.5427
 4970TIP3    H236546   1.226   2.623   0.794  1.0534  2.4919 -2.4079
 4971TIP3   OH236547   3.577   6.554   7.425 -0.3724 -0.0804  0.0675
 4971TIP3    H136548   3.561   6.473   7.378 -0.2194  0.6574 -1.2959
 4971TIP3    H236549   3.651   6.594   7.380 -0.9780  1.2175  0.1668
 4972TIP3   OH236550   5.604   5.987   2.320  0.4016  0.4127 -0.8426
 4972TIP3    H136551   5.515   6.022   2.325 -0.0702 -0.5321 -2.0431
 4972TIP3    H236552   5.604   5.912   2.379  0.8069  1.1937  0.1676
 4973TIP3   OH236553   6.664   5.030   2.455  0.1536 -0.3927 -0.0447
 4973TIP3    H136554   6.576   5.058   2.483 -0.0053 -0.1722 -0.7411
 4973TIP3    H236555   6.714   5.023   2.536 -0.7357 -1.3406  0.4567
 4974TIP3   OH236556   6.821   5.336   8.641 -0.0736  0.1245  0.5535
 4974TIP3    H136557   6.769   5.411   8.670 -1.0446 -1.0880  2.1679
 4974TIP3    H236558   6.869   5.309   8.719  0.4350 -0.7984 -0.0579
 4975TIP3   OH236559   1.886   3.286   0.394 -0.3615 -0.1893  0.4026
 4975TIP3    H136560   1.919   3.252   0.311  1.6026  0.8398  0.7027
 4975TIP3    H236561   1.868   3.207   0.446 -2.3196 -0.8838 -1.1698
 4976TIP3   OH236562   1.212   3.427   8.016  0.1343  0.7109 -0.0607
 4976TIP3    H136563   1.239   3.427   8.108 -0.2780 -0.1269  0.0686
 4976TIP3    H236564   1.238   3.513   7.984 -1.9588  2.0386  1.4887
 4977TIP3   OH236565   3.646   5.850   8.415  0.0622 -0.2877  0.2756
 4977TIP3    H136566   3.638   5.891   8.329  0.7354 -1.6935 -0.5067
 4977TIP3    H236567   3.569   5.794   8.422  1.0308 -1.7475 -0.3456
 4978TIP3   OH236568   4.809   4.886   0.619  0.7384 -0.1984 -0.0866
 4978TIP3    H136569   4.877   4.906   0.684  0.7188  1.2162 -0.4730
 4978TIP3    H236570   4.738   4.947   0.639 -0.1127 -1.1371 -0.1810
 4979TIP3   OH236571   0.797   3.238   0.990 -0.0284 -0.2332 -0.3316
 4979TIP3    H136572   0.757   3.298   1.053 -1.5935 -0.7575 -0.7772
 4979TIP3    H236573   0.887   3.268   0.982 -0.8167  2.2468 -0.7503
 4980TIP3   OH236574   4.541   3.359   0.060 -0.5755  0.2753 -0.1938
 4980TIP3    H136575   4.618   3.415   0.063 -0.5764  0.6089 -3.3753
 4980TIP3    H236576   4.467   3.420   0.070 -0.5264  0.0727  1.8544
 4981TIP3   OH236577   5.405   6.577   1.513 -0.0496 -0.9785  0.5484
 4981TIP3    H136578   5.393   6.484   1.493  1.9714 -1.4833  1.4259
 4981TIP3    H236579   5.463   6.610   1.444 -2.6815  0.3287 -1.2023
 4982TIP3   OH236580   2.305   2.084   1.606 -0.5220 -0.5116  0.8177
 4982TIP3    H136581   2.289   2.125   1.520 -0.1422  0.6593  1.2855
 4982TIP3    H236582   2.251   2.005   1.605  0.1358 -0.9811 -0.8384
 4983TIP3   OH236583   3.092   4.857   7.807 -0.4843  0.2984 -0.2018
 4983TIP3    H136584   3.131   4.826   7.726  1.9767  0.1406  0.9466
 4983TIP3    H236585   3.121   4.794   7.873  0.3367  2.1815  1.3220
 4984TIP3   OH236586   1.174   4.375   1.676 -0.4540  0.4418 -0.0192
 4984TIP3    H136587   1.224   4.456   1.688 -3.4889  2.4370  0.1521
 4984TIP3    H236588   1.133   4.360   1.761  0.2515 -1.5071  0.0300
 4985TIP3   OH236589   1.014   6.255   7.846  0.0892  0.0523 -0.9782
 4985TIP3    H136590   0.926   6.260   7.810 -1.2388 -1.7283  1.6680
 4985TIP3    H236591   1.003   6.280   7.938  2.2909 -0.5497 -0.4999
 4986TIP3   OH236592   6.493   1.240   7.233  0.1930 -0.2362  0.0042
 4986TIP3    H136593   6.451   1.165   7.275  1.7584 -0.6549  0.8807
 4986TIP3    H236594   6.456   1.316   7.278 -2.1910 -0.3261 -1.5756
 4987TIP3   OH236595   6.247   4.060   1.424  0.4042 -0.4321  0.3153
 4987TIP3    H136596   6.248   4.106   1.508  0.0687 -1.7974  1.0972
 4987TIP3    H236597   6.262   4.129   1.359  0.0043  0.7607  1.4367
 4988TIP3   OH236598   5.643   6.653   2.551 -0.4501 -0.5974 -0.5607
 4988TIP3    H136599   5.619   6.628   2.640  1.3082  2.2318  0.8556
 4988TIP3    H236600   5.572   6.710   2.522 -0.3521 -0.4006 -0.4134
 4989TIP3   OH236601   4.527   1.133   0.106 -0.2990  0.0127  0.4294
 4989TIP3    H136602   4.491   1.090   0.029 -0.8777 -0.9757  1.2202
 4989TIP3    H236603   4.611   1.090   0.121 -0.4828 -0.2605  0.7120
 4990TIP3   OH236604   2.732   3.123   0.858  0.1566 -0.0071  0.0665
 4990TIP3    H136605   2.823   3.102   0.881  0.6408 -1.8602 -3.0688
 4990TIP3    H236606   2.683   3.044   0.879 -0.3528  0.2206 -0.2443
 4991TIP3   OH236607   5.231   1.320   8.367  0.1920 -0.1677  0.0156
 4991TIP3    H136608   5.318   1.349   8.340  0.1202  0.9790  0.9323
 4991TIP3    H236609   5.248   1.266   8.445  0.1891 -1.3197 -0.7498
 4992TIP3   OH236610   5.785   5.018   0.987  0.6834  0.2716  0.4030
 4992TIP3    H136611   5.855   5.073   1.024 -0.3066  1.6096  0.3891
 4992TIP3    H236612   5.751   5.070   0.914  0.6295 -1.0094 -0.5028
 4993TIP3   OH236613   5.278   6.316   8.193  0.1383  0.2218  0.3005
 4993TIP3    H136614   5.361   6.269   8.189  1.0065  1.7549 -1.3149
 4993TIP3    H236615   5.229   6.285   8.117 -0.2679  0.2238  0.5589
 4994TIP3   OH236616   0.676   3.392   1.750  0.0206 -0.3592  0.4982
 4994TIP3    H136617   0.618   3.412   1.823 -0.8905  1.3061 -0.6158
 4994TIP3    H236618   0.746   3.457   1.756  1.3510 -1.7836  1.2927
 4995TIP3   OH236619   6.555   0.655   8.223  0.1637 -0.2866 -0.0058
 4995TIP3    H136620   6.490   0.612   8.279  1.6005 -0.3984  1.6633
 4995TIP3    H236621   6.532   0.747   8.227  0.2349 -0.2966  0.7659
 4996TIP3   OH236622   6.488   6.593   8.657 -0.0610  0.1155  0.3269
 4996TIP3    H136623   6.557   6.556   8.601  0.6986  1.7024  0.1670
 4996TIP3    H236624   6.428   6.635   8.596  0.5259  1.4520  0.6468
 4997TIP3   OH236625   6.837   2.907   0.328 -0.1296 -0.1402 -0.2652
 4997TIP3    H136626   6.797   2.971   0.270  0.5440  0.0444 -0.5307
 4997TIP3    H236627   6.790   2.917   0.411 -1.9044 -1.1971 -1.0671
 4998TIP3   OH236628   6.810   2.976   7.055  0.2978 -0.2316 -0.1443
 4998TIP3    H136629   6.721   3.010   7.056  1.1721  2.3451 -1.2505
 4998TIP3    H236630   6.802   2.889   7.015 -2.0729 -1.6375  2.9434
 4999TIP3   OH236631   3.281   5.321   8.706 -0.4343 -0.0015  0.3082
 4999TIP3    H136632   3.187   5.313   8.717 -0.3764 -0.2934  0.5985
 4999TIP3    H236633   3.292   5.345   8.614 -0.7837 -0.1056  0.2367
 5000TIP3   OH236634   1.945   1.392   8.055  0.1242 -0.4739  0.0600
 5000TIP3    H136635   1.849   1.388   8.053  0.1089 -2.3207  1.7704
 5000TIP3    H236636   1.971   1.395   7.963 -1.5625  0.1926 -0.4300
 5001TIP3   OH236637   3.872   0.723   1.302  0.4300 -0.6578 -0.5764
 5001TIP3    H136638   3.824   0.780   1.243 -0.4807 -0.6769  0.1214
 5001TIP3    H236639   3.854   0.634   1.271  0.8917 -0.6235 -0.9541
 5002TIP3   OH236640   5.268   1.413   7.344 -0.6076 -0.0944  0.4717
 5002TIP3    H136641   5.251   1.478   7.275 -1.8830  0.3572  1.1722
 5002TIP3    H236642   5.361   1.422   7.363 -0.8659  2.0684  1.0283
 5003TIP3   OH236643   3.191   3.187   7.644  0.1725 -0.5363 -0.3420
 5003TIP3    H136644   3.178   3.178   7.550 -0.7394 -0.6753 -0.2093
 5003TIP3    H236645   3.206   3.097   7.674  1.1682 -0.4159 -0.4440
 5004TIP3   OH236646   3.060   4.332   0.947 -0.1448 -0.0732 -0.3197
 5004TIP3    H136647   3.027   4.243   0.958 -0.6127 -0.0947 -1.6306
 5004TIP3    H236648   3.070   4.342   0.852  0.2669  1.1356 -0.1669
 5005TIP3   OH236649   6.598   6.231   1.551 -0.5652  0.7142  0.3793
 5005TIP3    H136650   6.529   6.297   1.558 -0.7340  0.4012  2.3456
 5005TIP3    H236651   6.679   6.282   1.545 -0.8264  1.0779 -0.2080
 5006TIP3   OH236652   3.800   0.998   6.872 -0.6662 -0.1210 -0.5075
 5006TIP3    H136653   3.889   0.983   6.838  0.0376  1.1612  0.6431
 5006TIP3    H236654   3.751   0.921   6.846  1.3541 -1.9469  0.7292
 5007TIP3   OH236655   1.441   4.629   8.245  0.4429 -0.4960 -0.0874
 5007TIP3    H136656   1.447   4.710   8.295 -1.1427 -0.4835  0.1306
 5007TIP3    H236657   1.532   4.605   8.227  0.9436  1.5482 -0.5295
 5008TIP3   OH236658   5.848   5.637   8.600 -0.0788 -0.5821 -0.0209
 5008TIP3    H136659   5.879   5.550   8.624 -0.2742 -0.9710 -1.1182
 5008TIP3    H236660   5.908   5.665   8.530 -0.0775  0.1203  0.2572
 5009TIP3   OH236661   0.104   3.025   1.595 -0.4666  0.7128 -0.1582
 5009TIP3    H136662   0.031   3.078   1.562 -0.4477  1.3693  0.8227
 5009TIP3    H236663   0.144   3.078   1.663 -0.4941 -0.5922  0.9226
 5010TIP3   OH236664   5.929   1.621   8.042 -0.7508  0.5531  0.2931
 5010TIP3    H136665   5.941   1.533   8.005 -2.6350 -1.0256  3.1168
 5010TIP3    H236666   5.997   1.629   8.109  0.3117  1.9035 -0.8725
 5011TIP3   OH236667   0.521   2.455   0.658 -0.4130 -0.8515  0.0260
 5011TIP3    H136668   0.600   2.414   0.692  0.8265  0.4116 -1.1712
 5011TIP3    H236669   0.483   2.501   0.733  1.3006  0.4516  0.1539
 5012TIP3   OH236670   4.125   4.313   2.571 -0.3091  0.7192  0.2923
 5012TIP3    H136671   4.175   4.362   2.636 -0.7967  0.9741  0.4809
 5012TIP3    H236672   4.044   4.363   2.561 -0.8648 -0.1034  0.5818
 5013TIP3   OH236673   5.360   1.727   7.275 -0.0132 -0.2357 -0.2116
 5013TIP3    H136674   5.367   1.700   7.367  2.2822  1.3682  0.1792
 5013TIP3    H236675   5.439   1.692   7.234 -1.4417 -1.6759 -1.8445
 5014TIP3   OH236676   0.420   3.518   0.875  0.1009 -0.4251 -0.2327
 5014TIP3    H136677   0.493   3.577   0.892  0.0782 -0.1340 -1.0664
 5014TIP3    H236678   0.408   3.522   0.780 -1.5649  0.1995 -0.0179
 5015TIP3   OH236679   0.958   4.680   0.440  0.5523  0.9507  0.3208
 5015TIP3    H136680   0.921   4.727   0.365  1.0376 -0.4925 -0.8737
 5015TIP3    H236681   0.919   4.723   0.517 -2.0506  0.7984 -0.7947
 5016TIP3   OH236682   1.707   4.773   1.569  0.7667 -0.0625  0.3200
 5016TIP3    H136683   1.765   4.773   1.645  0.5592 -1.8769  0.5275
 5016TIP3    H236684   1.766   4.784   1.494  1.3124 -1.0400  0.5856
 5017TIP3   OH236685   6.242   2.742   1.122  0.0190 -0.0336 -0.3128
 5017TIP3    H136686   6.219   2.690   1.046  0.1987  0.4159 -0.6820
 5017TIP3    H236687   6.185   2.710   1.192 -1.4222  0.7531 -1.0864
 5018TIP3   OH236688   3.505   0.285   8.340 -0.1479 -0.0457  0.3011
 5018TIP3    H136689   3.498   0.380   8.351 -0.5460  0.0794 -0.9158
 5018TIP3    H236690   3.594   0.272   8.306 -0.3011 -0.0466 -0.1032
 5019TIP3   OH236691   3.703   5.235   1.013 -0.1042  0.0064 -0.4393
 5019TIP3    H136692   3.693   5.328   0.990 -0.2486  0.3834  1.0300
 5019TIP3    H236693   3.643   5.223   1.086  1.5814 -0.6770  0.8795
 5020TIP3   OH236694   6.558   2.725   7.409 -0.1699 -0.3362  0.6129
 5020TIP3    H136695   6.521   2.751   7.494  0.1142 -0.5865  0.8122
 5020TIP3    H236696   6.522   2.638   7.392 -1.9087  0.5250 -0.5155
 5021TIP3   OH236697   0.390   4.762   0.255 -0.1762  0.5468 -0.3370
 5021TIP3    H136698   0.464   4.778   0.314  0.7365 -1.0037 -1.0007
 5021TIP3    H236699   0.316   4.746   0.314  0.4987  0.0162  0.3898
 5022TIP3   OH236700   6.196   6.502   8.676  0.4643  0.4384 -0.6825
 5022TIP3    H136701   6.249   6.439   8.626  1.7924  0.5549  0.4931
 5022TIP3    H236702   6.123   6.523   8.619  1.0267 -0.7077 -1.8804
 5023TIP3   OH236703   1.364   1.791   2.869  0.0327  0.1965 -0.5714
 5023TIP3    H136704   1.375   1.762   2.959 -1.0109 -0.0596 -0.5217
 5023TIP3    H236705   1.453   1.791   2.833  0.2355 -1.8243 -0.1996
 5024TIP3   OH236706   0.837   4.703   8.535  0.4484 -0.6788  0.0119
 5024TIP3    H136707   0.903   4.744   8.480  0.7846 -0.1382  0.7997
 5024TIP3    H236708   0.790   4.776   8.575  0.4091 -1.0535  0.6726
 5025TIP3   OH236709   3.081   6.451   0.853  0.0688 -0.4046  0.0688
 5025TIP3    H136710   3.119   6.529   0.813 -0.6810 -0.6043 -1.0944
 5025TIP3    H236711   2.989   6.475   0.868 -0.0263 -0.8643  0.2148
 5026TIP3   OH236712   0.035   1.401   8.125  0.2563 -0.0485  0.1845
 5026TIP3    H136713  -0.042   1.375   8.074 -0.4056  0.6403  0.8005
 5026TIP3    H236714   0.079   1.466   8.070 -1.2288  1.7760  1.0092
 5027TIP3   OH236715   3.175   2.569   1.156 -0.0028  0.2319  0.3039
 5027TIP3    H136716   3.244   2.543   1.216  0.8435 -0.9389 -1.1097
 5027TIP3    H236717   3.206   2.541   1.070 -1.9664  0.2395 -0.4615
 5028TIP3   OH236718   3.612   0.186   1.342 -0.1800  0.1773  0.0993
 5028TIP3    H136719   3.540   0.176   1.280 -1.8246  0.4150  1.8478
 5028TIP3    H236720   3.688   0.152   1.297 -1.6175 -1.1688 -1.4379
 5029TIP3   OH236721   4.282   4.968   1.087 -0.0825 -0.3697  0.1842
 5029TIP3    H136722   4.330   4.929   1.160 -2.0891 -1.2366  1.1406
 5029TIP3    H236723   4.261   5.056   1.117  1.7421  0.4167 -0.6844
 5030TIP3   OH236724   4.961   1.981   0.330 -0.3261  0.0904 -0.6860
 5030TIP3    H136725   4.940   2.046   0.263 -1.2215  0.0178 -0.4933
 5030TIP3    H236726   4.880   1.931   0.340 -0.0671 -0.1733  0.1416
 5031TIP3   OH236727   3.926   4.037   0.956 -1.0254 -0.6546 -0.2965
 5031TIP3    H136728   3.949   4.083   1.037 -0.6747 -0.5167 -0.4700
 5031TIP3    H236729   3.994   4.064   0.894 -1.7991 -0.0381 -0.8998
 5032TIP3   OH236730   1.760   2.394   7.956  0.1712 -0.1191  0.0252
 5032TIP3    H136731   1.835   2.359   7.908  1.7590  1.9406  0.8326
 5032TIP3    H236732   1.709   2.440   7.889  0.5853 -0.0604 -0.2590
 5033TIP3   OH236733   3.198   5.634   8.313 -0.4621 -0.4247  0.0642
 5033TIP3    H136734   3.180   5.720   8.276 -0.7514 -1.2156 -1.7225
 5033TIP3    H236735   3.130   5.577   8.275 -0.9581 -1.2516  2.0504
 5034TIP3   OH236736   2.725   4.654   2.046 -0.1899  0.0769 -0.1004
 5034TIP3    H136737   2.634   4.653   2.074 -0.0196  1.8794  0.7179
 5034TIP3    H236738   2.728   4.601   1.967 -1.7920 -0.6099  0.2755
 5035TIP3   OH236739   4.605   1.520   1.305 -0.1023  0.1581  0.5635
 5035TIP3    H136740   4.563   1.435   1.287  0.4195 -0.2461  1.1801
 5035TIP3    H236741   4.535   1.573   1.344  0.3946 -1.2398  3.6527
 5036TIP3   OH236742   0.772   4.286   7.930 -0.0914  0.7323  0.3442
 5036TIP3    H136743   0.776   4.378   7.904 -0.1445  0.5297 -0.3791
 5036TIP3    H236744   0.816   4.284   8.015  0.5665  1.2947  0.0243
 5037TIP3   OH236745   4.508   6.265   2.864  0.1269  0.1533 -0.1970
 5037TIP3    H136746   4.535   6.173   2.860  2.6159  0.7395  1.0935
 5037TIP3    H236747   4.557   6.307   2.793  0.4765  0.7870  0.4087
 5038TIP3   OH236748   5.552   2.874   8.196 -0.4153  0.0335 -0.0768
 5038TIP3    H136749   5.613   2.839   8.261  1.0114  0.8575 -0.9406
 5038TIP3    H236750   5.475   2.899   8.247 -0.8607 -2.7890  0.7838
 5039TIP3   OH236751   1.616   1.373   0.743  0.1444 -0.0407 -0.4742
 5039TIP3    H136752   1.689   1.408   0.691 -0.1523 -0.2845 -1.0726
 5039TIP3    H236753   1.539   1.420   0.709  0.1356  0.9886  0.8674
 5040TIP3   OH236754   1.282   1.543   7.297 -0.1206  0.0867 -0.1646
 5040TIP3    H136755   1.338   1.501   7.232  0.2100  0.4037 -0.0874
 5040TIP3    H236756   1.197   1.552   7.254  0.3119  1.0485 -0.8701
 5041TIP3   OH236757   2.741   0.735   7.358  0.0807 -0.4626  0.1291
 5041TIP3    H136758   2.804   0.714   7.288 -1.4673 -1.2391 -1.0862
 5041TIP3    H236759   2.656   0.730   7.316 -0.7556  4.0695  0.8115
 5042TIP3   OH236760   4.334   3.850   3.058  0.3762 -0.1249  0.2378
 5042TIP3    H136761   4.400   3.874   3.124  0.3245  0.0019  0.2453
 5042TIP3    H236762   4.381   3.796   2.995  0.7037  0.6879 -0.2337
 5043TIP3   OH236763   3.372   6.664   2.068  0.1705  0.0155  0.0835
 5043TIP3    H136764   3.329   6.678   2.153  0.5858  2.6466 -0.0580
 5043TIP3    H236765   3.403   6.751   2.043  0.7864 -0.8602 -2.3944
 5044TIP3   OH236766   0.604   4.046   2.290  0.1475 -0.0619 -0.2447
 5044TIP3    H136767   0.673   3.995   2.247  0.4649  0.9297 -0.9435
 5044TIP3    H236768   0.617   4.030   2.383  0.4741 -0.9477 -0.4251
 5045TIP3   OH236769   1.564   0.929   0.533 -0.0875  0.3658  0.1034
 5045TIP3    H136770   1.493   0.924   0.597 -1.8497  0.6493 -1.7102
 5045TIP3    H236771   1.520   0.921   0.448  1.8177  2.4444 -1.2084
 5046TIP3   OH236772   4.981   5.881   0.072  0.0500 -0.2718 -0.0088
 5046TIP3    H136773   4.897   5.865   0.115  0.0575 -0.1037  0.0682
 5046TIP3    H236774   5.046   5.838   0.128 -0.0077 -0.6121 -0.1952
 5047TIP3   OH236775   1.346   5.732   0.059  0.0009 -0.1743  0.0562
 5047TIP3    H136776   1.268   5.702   0.103  0.1539  0.2104  0.6007
 5047TIP3    H236777   1.403   5.765   0.129  0.0379  0.9062 -0.4535
 5048TIP3   OH236778   3.075   1.250   0.054 -0.2257  0.1497  0.8340
 5048TIP3    H136779   3.041   1.301  -0.019  0.1896 -0.0826  0.4656
 5048TIP3    H236780   3.034   1.164   0.044 -0.4289  0.2184  1.0738
 5049TIP3   OH236781   1.047   5.201   2.820  0.0545 -0.1768  0.0619
 5049TIP3    H136782   0.954   5.202   2.798  0.1595 -1.0108 -0.4564
 5049TIP3    H236783   1.084   5.274   2.770 -0.2811  0.0364  0.1189
 5050TIP3   OH236784   5.337   1.540   1.626  0.2039 -0.3231 -0.0136
 5050TIP3    H136785   5.251   1.576   1.605  1.4374  1.7867 -2.0290
 5050TIP3    H236786   5.371   1.599   1.694  0.5115 -0.4131 -0.0903
 5051TIP3   OH236787   3.627   2.936   7.387  0.7393 -0.2149  0.3909
 5051TIP3    H136788   3.565   2.946   7.314 -0.5713 -0.5024  1.4339
 5051TIP3    H236789   3.680   2.860   7.362  0.3400 -0.2872 -0.2752
 5052TIP3   OH236790   5.307   3.517   2.127  0.5695 -0.5287 -0.2435
 5052TIP3    H136791   5.321   3.438   2.179  0.2490 -1.1493 -1.0717
 5052TIP3    H236792   5.222   3.503   2.085  1.7519 -1.0655 -2.6525
 5053TIP3   OH236793   5.236   0.545   0.327  0.0649  0.1430 -0.8321
 5053TIP3    H136794   5.331   0.553   0.321 -0.0425  0.1141 -3.6393
 5053TIP3    H236795   5.217   0.457   0.296 -0.7837 -0.9362  2.3431
 5054TIP3   OH236796   0.991   3.363   7.548  0.3129  0.0909 -0.2536
 5054TIP3    H136797   0.897   3.349   7.544  0.2547  0.6414 -1.2659
 5054TIP3    H236798   1.028   3.301   7.485  0.7192 -0.6604  0.6826
 5055TIP3   OH236799   2.573   5.115   0.433 -0.2606  0.2459 -0.3235
 5055TIP3    H136800   2.573   5.144   0.342 -0.3973  2.3462  0.2925
 5055TIP3    H236801   2.539   5.190   0.483  2.6652  0.3602  1.7806
 5056TIP3   OH236802   2.528   1.763   7.519 -0.1230 -0.3089 -0.5813
 5056TIP3    H136803   2.615   1.792   7.545 -0.4288 -0.5339  0.7600
 5056TIP3    H236804   2.491   1.723   7.598 -0.9882 -1.3057 -1.4609
 5057TIP3   OH236805   5.359   1.611   8.731 -0.4911 -0.4782  0.4825
 5057TIP3    H136806   5.428   1.677   8.728  0.3595 -1.3730 -1.0372
 5057TIP3    H236807   5.343   1.597   8.824  0.6263  0.5187  0.8532
 5058TIP3   OH236808   5.492   3.308   8.393  0.0435 -0.5310  0.3795
 5058TIP3    H136809   5.499   3.260   8.310 -1.6411 -1.5527  0.7903
 5058TIP3    H236810   5.483   3.400   8.366 -1.2976 -0.9207 -0.6555
 5059TIP3   OH236811   6.503   4.643   0.175  0.1148  0.7035 -0.7051
 5059TIP3    H136812   6.460   4.597   0.246  2.5178  0.0461  0.4425
 5059TIP3    H236813   6.453   4.620   0.096 -0.3571 -1.7032  0.2222
 5060TIP3   OH236814   0.982   0.810   6.571 -0.2342  0.0094  0.1007
 5060TIP3    H136815   0.976   0.894   6.615  0.7074 -0.5552  1.3367
 5060TIP3    H236816   0.958   0.746   6.638 -1.2099 -0.7113 -0.8968
 5061TIP3   OH236817   3.100   3.372   8.693  0.2345  0.1100 -0.1363
 5061TIP3    H136818   3.155   3.390   8.617 -0.1887  0.6534 -0.3198
 5061TIP3    H236819   3.107   3.277   8.705  0.1983 -0.0070 -0.9390
 5062TIP3   OH236820   3.501   3.568   8.661 -0.1545  0.2513 -0.5398
 5062TIP3    H136821   3.454   3.575   8.745  0.5381  0.4359 -0.1638
 5062TIP3    H236822   3.580   3.621   8.673 -0.5667  1.1654 -1.6800
 5063TIP3   OH236823   3.523   5.381   2.276 -0.0374 -0.2283 -0.3126
 5063TIP3    H136824   3.535   5.287   2.259 -1.6327 -0.5368  0.1255
 5063TIP3    H236825   3.575   5.424   2.208 -2.4654 -1.4299 -3.1474
 5064TIP3   OH236826   0.488   4.821   0.936 -0.0483 -0.2832  0.7108
 5064TIP3    H136827   0.511   4.744   0.884 -1.3286 -1.5818  1.9633
 5064TIP3    H236828   0.406   4.852   0.898 -0.4273 -0.5907  1.2632
 5065TIP3   OH236829   3.289   5.259   0.536  0.0929 -0.1973 -0.2908
 5065TIP3    H136830   3.333   5.176   0.517  0.5563  0.3306 -1.6708
 5065TIP3    H236831   3.354   5.312   0.581 -0.5653 -0.9507  1.6580
 5066TIP3   OH236832   4.287   3.903   0.299 -0.5110 -0.0684 -0.0825
 5066TIP3    H136833   4.220   3.953   0.345  0.4933  1.7269 -0.4404
 5066TIP3    H236834   4.356   3.890   0.364 -1.2314 -2.0249  0.3271
 5067TIP3   OH236835   1.567   6.073   2.304  0.2541 -0.0088 -0.1087
 5067TIP3    H136836   1.656   6.064   2.340 -0.5038 -0.4498  1.7348
 5067TIP3    H236837   1.564   6.163   2.272  0.6047  0.8692  2.1000
 5068TIP3   OH236838   6.293   4.427   2.643  0.5510  0.6633  0.4833
 5068TIP3    H136839   6.347   4.477   2.704  0.6144 -1.6324  2.4555
 5068TIP3    H236840   6.243   4.368   2.699 -0.5213 -0.5103 -1.6262
 5069TIP3   OH236841   3.523   5.103   8.141  0.2520 -0.1917 -0.1698
 5069TIP3    H136842   3.480   5.026   8.102 -0.7900 -0.2455  1.0125
 5069TIP3    H236843   3.456   5.171   8.140  0.5429  0.1117  0.5902
 5070TIP3   OH236844   1.176   4.666   8.572 -0.3058  0.3518  0.0030
 5070TIP3    H136845   1.160   4.709   8.488  1.7469  1.3798  0.0828
 5070TIP3    H236846   1.111   4.596   8.576 -2.9976  2.6217 -0.6859
 5071TIP3   OH236847   4.432   6.507   8.820  0.2030 -0.2972 -0.8364
 5071TIP3    H136848   4.385   6.553   8.889 -0.5232 -2.1335 -0.0578
 5071TIP3    H236849   4.501   6.568   8.793  1.2937  0.0289  2.3276
 5072TIP3   OH236850   0.343   6.040   0.979  0.0292  0.3236  0.0340
 5072TIP3    H136851   0.315   5.975   0.914 -2.7596 -0.8704  2.1981
 5072TIP3    H236852   0.400   5.991   1.039  0.5921  0.7611 -0.1394
 5073TIP3   OH236853   6.697   3.053   7.431 -0.3313 -0.0156  0.0336
 5073TIP3    H136854   6.706   3.131   7.376  1.0068  0.4254  0.8341
 5073TIP3    H236855   6.628   3.075   7.493 -2.0578 -0.6188 -1.5622
 5074TIP3   OH236856   4.018   2.493   0.348 -0.0779 -0.2822  0.7587
 5074TIP3    H136857   4.111   2.502   0.328 -0.4542  2.2817 -0.1418
 5074TIP3    H236858   3.983   2.439   0.278  0.1157  1.8491 -1.0701
 5075TIP3   OH236859   1.826   3.083   7.640 -0.1550  0.3107 -0.1101
 5075TIP3    H136860   1.819   3.135   7.720 -0.2964  0.6759 -0.3554
 5075TIP3    H236861   1.765   3.125   7.579 -0.2518 -0.1346 -0.3186
 5076TIP3   OH236862   6.074   3.156   7.367  0.0366 -0.7474  0.1511
 5076TIP3    H136863   6.147   3.213   7.344 -0.1570 -0.4910  0.1669
 5076TIP3    H236864   6.114   3.071   7.382  0.2746 -0.7206 -0.3027
 5077TIP3   OH236865   6.449   0.483   2.151 -0.3005  0.2521  0.7041
 5077TIP3    H136866   6.464   0.395   2.116  0.8882  0.8855 -0.4500
 5077TIP3    H236867   6.415   0.467   2.239 -1.5373 -1.3721  0.0086
 5078TIP3   OH236868   0.897   2.315   2.509  0.1408 -0.0609  0.2060
 5078TIP3    H136869   0.889   2.224   2.483  0.7441  0.0617 -0.4476
 5078TIP3    H236870   0.963   2.351   2.450  0.3773  0.6371  0.8791
 5079TIP3   OH236871   5.187   5.251   0.128 -0.5437  0.1718  0.4061
 5079TIP3    H136872   5.156   5.317   0.066 -0.3069 -0.2516 -0.1786
 5079TIP3    H236873   5.111   5.193   0.141 -0.1716 -0.6080 -0.6799
 5080TIP3   OH236874   2.799   1.525   7.325 -0.1524 -0.3996  0.3337
 5080TIP3    H136875   2.775   1.532   7.418 -0.0867  1.0725  0.2637
 5080TIP3    H236876   2.715   1.523   7.279 -0.1983  0.9591  0.3185
 5081TIP3   OH236877   3.908   1.155   2.068  0.2098  0.0413 -0.0645
 5081TIP3    H136878   3.943   1.138   2.155  1.9366 -0.5054 -0.8279
 5081TIP3    H236879   3.904   1.250   2.061 -0.0431  0.0894  0.6274
 5082TIP3   OH236880   4.531   1.015   8.695  0.0137  0.1013 -0.1131
 5082TIP3    H136881   4.590   1.089   8.704  1.0054 -0.5770 -0.9303
 5082TIP3    H236882   4.512   1.009   8.602  1.0474 -1.4934 -0.2591
 5083TIP3   OH236883   5.897   0.320   1.269  0.6658  0.1363  0.2333
 5083TIP3    H136884   5.982   0.277   1.273  0.1044 -0.9289  1.2285
 5083TIP3    H236885   5.917   0.414   1.275  1.7300 -0.1362  1.3167
 5084TIP3   OH236886   2.039   2.678   7.816  0.0924  0.2741 -0.0021
 5084TIP3    H136887   2.073   2.591   7.833  0.8031  0.3449 -0.9560
 5084TIP3    H236888   2.104   2.738   7.853 -0.5707  0.4200  0.9788
 5085TIP3   OH236889   4.687   5.456   8.679  0.1317 -0.3714 -0.0891
 5085TIP3    H136890   4.734   5.502   8.610  0.3011 -0.7547 -0.2339
 5085TIP3    H236891   4.728   5.369   8.682  0.5554 -0.1592  0.9154
 5086TIP3   OH236892   5.388   5.381   1.628 -0.4213 -0.3659 -0.2441
 5086TIP3    H136893   5.431   5.447   1.683 -0.6064  0.2394 -0.8074
 5086TIP3    H236894   5.303   5.368   1.669  0.0564 -1.1174  0.5286
 5087TIP3   OH236895   3.998   4.271   8.131 -0.0514  0.1414  0.4474
 5087TIP3    H136896   3.977   4.236   8.217 -3.4642 -0.0417 -0.3058
 5087TIP3    H236897   3.998   4.366   8.143 -1.0171  0.1353  0.6206
 5088TIP3   OH236898   4.477   5.657   7.343  0.1740  0.1384  0.2439
 5088TIP3    H136899   4.549   5.595   7.325  0.8043  1.0355 -0.3988
 5088TIP3    H236900   4.490   5.728   7.281 -2.4294 -0.5609 -1.2420
 5089TIP3   OH236901   3.963   1.861   7.334 -0.3572 -0.7294  0.1370
 5089TIP3    H136902   3.869   1.867   7.354  0.1417  0.7162  2.3757
 5089TIP3    H236903   3.969   1.886   7.242 -2.1286 -0.5333  0.0323
 5090TIP3   OH236904   5.469   4.572   8.076 -0.5471 -0.1395 -0.4310
 5090TIP3    H136905   5.490   4.513   8.149 -2.7347 -0.6045 -0.0996
 5090TIP3    H236906   5.552   4.615   8.055  0.3827 -0.8303  1.5758
 5091TIP3   OH236907   6.787   6.402   0.321 -0.0533 -0.3762  0.0314
 5091TIP3    H136908   6.739   6.349   0.384  0.3375 -0.0340  0.6232
 5091TIP3    H236909   6.774   6.357   0.237  0.4976 -1.5695  0.5559
 5092TIP3   OH236910   1.118   2.840   8.328  0.1047  0.7997 -0.7258
 5092TIP3    H136911   1.117   2.769   8.264  0.1467  0.5710 -0.4744
 5092TIP3    H236912   1.174   2.907   8.289  1.1040  0.1663 -0.3987
 5093TIP3   OH236913   0.931   4.700   7.344  0.0558  0.5365  1.1737
 5093TIP3    H136914   0.920   4.793   7.325  0.2104  0.6284  1.5211
 5093TIP3    H236915   0.999   4.670   7.284  0.1914  0.7057  1.2451
 5094TIP3   OH236916   2.640   1.587   1.217 -0.2484  0.3996  0.7447
 5094TIP3    H136917   2.708   1.619   1.158 -0.2009  0.1207  0.6447
 5094TIP3    H236918   2.688   1.559   1.295 -0.1003 -0.9417  0.2016
 5095TIP3   OH236919   2.840   3.480   8.125  0.1310  0.2197  0.2650
 5095TIP3    H136920   2.781   3.440   8.189 -0.3626 -2.6788 -1.7870
 5095TIP3    H236921   2.926   3.444   8.146 -0.2788 -1.9477 -1.4651
 5096TIP3   OH236922   0.433   0.369   0.657  0.6047  0.2398 -0.3889
 5096TIP3    H136923   0.452   0.298   0.595 -1.5386 -0.2160 -0.5978
 5096TIP3    H236924   0.361   0.417   0.616  0.2495  0.9254  0.9923
 5097TIP3   OH236925   3.670   0.755   0.225 -0.2442 -0.0938 -0.4660
 5097TIP3    H136926   3.581   0.725   0.243 -0.1177  0.5117  1.3569
 5097TIP3    H236927   3.658   0.836   0.176 -0.6629 -0.6041 -1.2253
 5098TIP3   OH236928   4.113   1.450   2.505 -0.0302  0.6612 -0.2361
 5098TIP3    H136929   4.078   1.515   2.445 -0.4534 -2.4477 -3.7365
 5098TIP3    H236930   4.036   1.416   2.551  0.0871  1.9183  0.9543
 5099TIP3   OH236931   6.840   1.843   8.136  0.3340 -0.3405  0.2067
 5099TIP3    H136932   6.804   1.810   8.217  1.3839 -2.0951  0.0094
 5099TIP3    H236933   6.935   1.834   8.146  0.7692  3.0209  0.2612
 5100TIP3   OH236934   6.646   5.975   8.085  0.0388 -0.1966 -0.8621
 5100TIP3    H136935   6.739   5.960   8.100 -0.2332 -1.3207 -0.1784
 5100TIP3    H236936   6.643   6.039   8.014  1.3333  0.5795 -0.2438
 5101TIP3   OH236937   2.209   3.973   1.046  0.0099 -0.2348  0.6507
 5101TIP3    H136938   2.186   3.923   1.125  0.8145 -2.5382 -0.4931
 5101TIP3    H236939   2.126   3.984   1.000 -0.0013 -1.7402  0.2753
 5102TIP3   OH236940   1.137   3.386   8.511  0.5376 -0.2643  0.2041
 5102TIP3    H136941   1.045   3.359   8.516  0.6695 -1.2217 -1.6000
 5102TIP3    H236942   1.183   3.324   8.569  0.2032 -0.6620  0.0534
 5103TIP3   OH236943   5.419   4.895   0.963  0.7030 -0.5567  0.3649
 5103TIP3    H136944   5.477   4.818   0.965  1.0854 -0.2460  1.5734
 5103TIP3    H236945   5.356   4.880   1.034 -2.0115 -1.8265 -2.0668
 5104TIP3   OH236946   0.399   4.311   2.484  0.1316 -0.0929  0.2857
 5104TIP3    H136947   0.355   4.394   2.465 -0.7385 -0.2589  1.4334
 5104TIP3    H236948   0.481   4.336   2.527 -0.1854  0.1777  0.7417
 5105TIP3   OH236949   3.063   0.753   2.316 -0.1350 -0.1924 -0.1610
 5105TIP3    H136950   3.103   0.818   2.258 -0.9513  0.6088  0.1486
 5105TIP3    H236951   3.058   0.796   2.401  1.5108 -1.5319  0.6696
 5106TIP3   OH236952   3.968   3.837   2.410  0.2122  0.2225 -0.0041
 5106TIP3    H136953   3.899   3.894   2.443  0.4875 -0.3631  1.7008
 5106TIP3    H236954   4.046   3.892   2.408  0.3716  0.0681  1.1712
 5107TIP3   OH236955   5.392   1.135   8.060 -0.0272  0.4649 -0.7402
 5107TIP3    H136956   5.392   1.227   8.032  0.5706  0.1607 -1.7634
 5107TIP3    H236957   5.336   1.091   7.996 -0.6392  0.1762 -0.0184
 5108TIP3   OH236958   0.688   2.175   0.177  0.3902  0.2045  0.3284
 5108TIP3    H136959   0.683   2.138   0.265 -0.7688  0.4097  0.3673
 5108TIP3    H236960   0.615   2.237   0.172  1.0352  0.9319 -0.4503
 5109TIP3   OH236961   5.527   3.384   1.567 -0.4426 -0.8550 -0.0105
 5109TIP3    H136962   5.569   3.384   1.653  0.1092 -2.2188 -0.2536
 5109TIP3    H236963   5.511   3.292   1.548 -0.4444 -0.5876 -1.4282
 5110TIP3   OH236964   3.866   3.620   0.850 -0.3416  0.5585 -0.0827
 5110TIP3    H136965   3.950   3.590   0.884 -0.6717 -0.4087 -0.0776
 5110TIP3    H236966   3.845   3.558   0.781  0.1308  2.2602 -1.8359
 5111TIP3   OH236967   6.688   2.039   0.367 -0.0687  0.2297 -0.4776
 5111TIP3    H136968   6.666   2.119   0.416  2.1685  0.6745 -0.0945
 5111TIP3    H236969   6.694   1.971   0.433 -0.6085  0.0190 -0.6347
 5112TIP3   OH236970   1.032   4.509   0.130 -0.3493  0.3789 -0.3008
 5112TIP3    H136971   1.071   4.592   0.156 -1.5320  1.1357 -0.8371
 5112TIP3    H236972   0.970   4.533   0.060  0.4824 -1.1582 -1.6351
 5113TIP3   OH236973   3.889   4.401   1.983  0.1587 -0.0563  1.1210
 5113TIP3    H136974   3.806   4.411   2.030 -1.1514 -1.0608 -0.8090
 5113TIP3    H236975   3.926   4.319   2.015  0.5625  0.5271  2.1799
 5114TIP3   OH236976   3.018   5.893   7.577 -0.3001  0.0366  0.4469
 5114TIP3    H136977   3.051   5.827   7.637  5.0701  2.4540  0.7647
 5114TIP3    H236978   3.058   5.870   7.492  0.6049  2.0017  0.2799
 5115TIP3   OH236979   5.323   1.993   7.805  0.7329  0.9995 -0.2819
 5115TIP3    H136980   5.280   2.046   7.873  0.0076 -0.2075  0.2260
 5115TIP3    H236981   5.402   1.960   7.847  0.8216  1.0972 -0.3706
 5116TIP3   OH236982   6.071   2.251   2.128  0.2540  0.1505  0.1739
 5116TIP3    H136983   6.121   2.282   2.204  0.0925  0.9651 -0.0349
 5116TIP3    H236984   6.105   2.304   2.055 -1.0750  0.9055  0.0727
 5117TIP3   OH236985   5.949   1.393   8.760  0.5533 -0.2016  0.2100
 5117TIP3    H136986   5.955   1.483   8.792  1.9505 -0.1300 -0.1969
 5117TIP3    H236987   5.939   1.340   8.839 -0.4248  0.3003  0.4424
 5118TIP3   OH236988   4.051   0.897   6.755 -0.0007 -0.2038  0.1895
 5118TIP3    H136989   4.133   0.903   6.706  0.7093  1.7570  1.5164
 5118TIP3    H236990   4.077   0.866   6.842 -1.2408 -3.6408 -0.5055
 5119TIP3   OH236991   5.421   2.193   1.565  0.3849 -0.5525 -0.6472
 5119TIP3    H136992   5.356   2.131   1.531  0.5129 -1.0337 -0.0175
 5119TIP3    H236993   5.504   2.163   1.528  0.2304  0.2403 -1.6990
 5120TIP3   OH236994   2.767   1.867   0.928 -0.3337  0.1069  0.3444
 5120TIP3    H136995   2.774   1.816   1.008  0.0241 -1.0798 -0.4114
 5120TIP3    H236996   2.854   1.862   0.888 -0.7142  0.0063 -0.5022
 5121TIP3   OH236997   6.036   4.957   1.510 -0.6958  0.1553 -0.1604
 5121TIP3    H136998   5.988   5.020   1.564 -1.2361  0.8561 -1.4366
 5121TIP3    H236999   5.983   4.877   1.516 -1.1135  0.4264 -0.2015
 5122TIP3   OH237000   5.332   3.531   1.488 -0.3368  0.4304  0.3733
 5122TIP3    H137001   5.279   3.493   1.558  1.0016 -0.5913  0.8712
 5122TIP3    H237002   5.403   3.469   1.476 -0.7322  0.3694 -2.1894
 5123TIP3   OH237003   2.536   3.070   0.505  0.0593 -0.0829 -0.2344
 5123TIP3    H137004   2.512   2.978   0.495  0.5599 -0.1394 -1.0025
 5123TIP3    H237005   2.473   3.104   0.569 -1.5850 -0.4167 -1.5896
 5124TIP3   OH237006   5.459   2.976   8.653 -0.9993  0.7330 -0.2993
 5124TIP3    H137007   5.387   3.023   8.695  1.1627  2.2918  1.9115
 5124TIP3    H237008   5.537   3.028   8.672  1.3443 -2.7982  0.8014
 5125TIP3   OH237009   2.607   5.764   2.926 -0.5745 -0.2738 -0.0456
 5125TIP3    H137010   2.592   5.828   2.857 -2.7465 -0.7071 -0.0403
 5125TIP3    H237011   2.676   5.707   2.890  0.5378  1.3058 -0.5334
 5126TIP3   OH237012   2.340   0.255   7.460 -0.7676  0.6066  0.4848
 5126TIP3    H137013   2.268   0.227   7.404 -0.1818  1.1975 -0.5860
 5126TIP3    H237014   2.322   0.346   7.480 -0.8206  0.4813  1.0189
 5127TIP3   OH237015   6.001   4.009   7.383  0.3061 -0.3562 -0.0945
 5127TIP3    H137016   6.018   4.033   7.292  0.2686  1.0827  0.2599
 5127TIP3    H237017   5.914   3.970   7.382 -1.4669  3.2531 -0.1419
 5128TIP3   OH237018   4.754   0.366   7.762  0.2283 -0.1665 -0.3348
 5128TIP3    H137019   4.667   0.372   7.803  0.7885  0.1822  0.8559
 5128TIP3    H237020   4.772   0.454   7.731 -0.4305 -0.5490 -1.8968
 5129TIP3   OH237021   6.326   6.693   1.158 -0.0205 -0.1744 -0.1447
 5129TIP3    H137022   6.306   6.695   1.252  0.7139  0.8463  0.0064
 5129TIP3    H237023   6.282   6.615   1.126 -0.4614 -0.4219  1.0139
 5130TIP3   OH237024   6.571   2.766   0.123  0.2152  0.4392 -0.0755
 5130TIP3    H137025   6.603   2.841   0.075 -0.4360  1.1323  0.5457
 5130TIP3    H237026   6.649   2.714   0.142  0.7782  1.3664  0.1883
 5131TIP3   OH237027   0.014   4.906   8.233  0.5611 -0.3978  0.0573
 5131TIP3    H137028   0.039   4.930   8.144  0.0083 -1.5468 -0.4215
 5131TIP3    H237029  -0.081   4.912   8.234  0.6424  2.0031  1.3033
 5132TIP3   OH237030   1.991   4.593   0.022  0.2168  0.0343  0.5465
 5132TIP3    H137031   1.939   4.594  -0.058  0.3778  0.6155  0.4495
 5132TIP3    H237032   2.030   4.505   0.024  0.1947  0.0102  0.0015
 5133TIP3   OH237033   0.106   6.480   8.345 -0.3236  0.1618 -0.4878
 5133TIP3    H137034   0.020   6.520   8.332  0.6493  2.2185 -1.0362
 5133TIP3    H237035   0.161   6.517   8.276  1.7357  1.2383  1.5747
 5134TIP3   OH237036   3.772   6.017   1.032  0.0217  0.2714  0.6993
 5134TIP3    H137037   3.845   6.036   0.973 -1.5701  0.7080 -1.2556
 5134TIP3    H237038   3.791   5.930   1.066  1.9327  0.7777  1.0744
 5135TIP3   OH237039   6.790   1.576   1.239  0.0375 -0.1045 -0.1320
 5135TIP3    H137040   6.766   1.664   1.210 -1.2205 -0.5103 -0.3912
 5135TIP3    H237041   6.886   1.576   1.239  0.1369  0.3026 -3.1628
 5136TIP3   OH237042   2.683   6.782   8.033  0.3036 -0.3684  0.3132
 5136TIP3    H137043   2.715   6.871   8.049 -1.7937  0.2418  1.5406
 5136TIP3    H237044   2.656   6.783   7.941 -0.3077  0.5035  0.4851
 5137TIP3   OH237045   2.917   3.002   7.376 -0.5571 -0.5870 -0.2859
 5137TIP3    H137046   2.873   3.074   7.331  0.0823  0.9592  1.4205
 5137TIP3    H237047   2.958   2.951   7.307  1.2202  2.1967 -1.4661
 5138TIP3   OH237048   5.067   2.540   7.268  0.6407  0.3142 -0.3901
 5138TIP3    H137049   5.016   2.462   7.245 -0.6905  1.1894 -0.5052
 5138TIP3    H237050   5.103   2.571   7.184 -0.4523  0.9219 -0.6463
 5139TIP3   OH237051   5.909   1.324   1.640  0.4420 -0.2277 -0.2112
 5139TIP3    H137052   5.901   1.230   1.656  0.2199 -0.4388 -1.4610
 5139TIP3    H237053   5.822   1.351   1.611  0.4602  0.4030  0.3083
 5140TIP3   OH237054   3.574   1.413   7.063 -0.6534  0.6830 -0.1874
 5140TIP3    H137055   3.505   1.350   7.042 -0.0610 -0.6755  1.6445
 5140TIP3    H237056   3.654   1.372   7.030 -0.1766  0.0910  1.5722
 5141TIP3   OH237057   0.216   0.510   1.949 -0.5921 -0.3966  0.1541
 5141TIP3    H137058   0.245   0.471   2.031 -2.0900 -1.5532  0.1803
 5141TIP3    H237059   0.254   0.455   1.881  0.9478  0.7721  0.0062
 5142TIP3   OH237060   0.506   1.446   1.503 -0.4016 -0.2455  0.2988
 5142TIP3    H137061   0.530   1.450   1.410 -0.0778  0.0118  0.3913
 5142TIP3    H237062   0.519   1.536   1.534 -0.5641 -0.3203  0.5814
 5143TIP3   OH237063   4.408   1.823   2.964  0.0508  0.7863  0.2972
 5143TIP3    H137064   4.407   1.909   3.007 -0.4602  0.9359 -0.0104
 5143TIP3    H237065   4.480   1.829   2.901 -0.9008  1.5026 -0.7527
 5144TIP3   OH237066   2.129   0.396   1.516  0.1192  0.3598  0.3999
 5144TIP3    H137067   2.171   0.313   1.495  0.3798  1.1125 -2.4801
 5144TIP3    H237068   2.202   0.454   1.540  0.4670  0.8218 -1.6073
 5145TIP3   OH237069   6.321   2.513   0.979 -0.0724  0.2964 -0.9211
 5145TIP3    H137070   6.365   2.442   0.933 -0.6468 -0.5801 -0.1350
 5145TIP3    H237071   6.228   2.501   0.960 -0.5642 -1.2428  1.9341
 5146TIP3   OH237072   5.698   2.097   2.411 -0.0441  0.4484  0.0117
 5146TIP3    H137073   5.680   2.009   2.378  0.3668  0.5210 -0.4187
 5146TIP3    H237074   5.613   2.130   2.438 -0.8696  1.3150 -3.2498
 5147TIP3   OH237075   2.224   3.444   8.586  0.3647 -0.1433  0.0021
 5147TIP3    H137076   2.168   3.520   8.598 -0.4884 -0.8761  0.8108
 5147TIP3    H237077   2.212   3.419   8.494 -0.4492 -0.1326  0.0966
 5148TIP3   OH237078   6.047   2.012   0.428  0.2699  0.2816 -0.1326
 5148TIP3    H137079   5.978   1.947   0.441  1.8903 -1.6744 -0.8635
 5148TIP3    H237080   6.034   2.043   0.338  0.7483 -0.6140 -0.5196
 5149TIP3   OH237081   6.826   4.041   8.026 -0.2952  0.1849  0.5174
 5149TIP3    H137082   6.796   4.131   8.036  1.7245  0.9589  0.2016
 5149TIP3    H237083   6.890   4.045   7.955 -0.7026 -1.6586 -0.0084
 5150TIP3   OH237084   3.698   5.700   2.498  0.7437 -0.1064  0.0557
 5150TIP3    H137085   3.645   5.744   2.565 -0.9140 -1.5073 -0.2777
 5150TIP3    H237086   3.758   5.644   2.548 -0.7372 -1.4357  0.4251
 5151TIP3   OH237087   1.353   3.830   0.548  0.0740 -0.4593  0.1285
 5151TIP3    H137088   1.284   3.895   0.562 -1.3677 -1.9187  0.1481
 5151TIP3    H237089   1.426   3.860   0.602 -0.1402  1.6825 -0.6808
 5152TIP3   OH237090   6.140   5.951   7.831  0.4974 -0.6321  0.4197
 5152TIP3    H137091   6.226   5.992   7.823  0.1041  0.5018  1.6326
 5152TIP3    H237092   6.112   5.971   7.920 -0.4996 -2.0493  0.4597
 5153TIP3   OH237093   2.095   3.281   0.918  0.2114  0.0911 -0.4877
 5153TIP3    H137094   2.189   3.274   0.931  0.2797  2.6653  1.0889
 5153TIP3    H237095   2.085   3.324   0.833  0.6790  2.5725  0.6118
 5154TIP3   OH237096   5.942   1.013   1.292  0.5737 -0.2953 -0.5248
 5154TIP3    H137097   5.968   1.082   1.231  0.5678 -0.0242 -0.2219
 5154TIP3    H237098   6.025   0.978   1.325  0.5763  0.5635  0.4348
 5155TIP3   OH237099   4.239   2.940   0.302  0.3188 -0.0830  0.0395
 5155TIP3    H137100   4.197   2.877   0.361  1.7958 -0.4905  0.7027
 5155TIP3    H237101   4.320   2.964   0.346  0.5716  1.0317 -0.9814
 5156TIP3   OH237102   5.078   3.176   7.838 -0.2533  0.2067 -0.5680
 5156TIP3    H137103   5.154   3.233   7.847 -0.1042 -0.2526  1.4870
 5156TIP3    H237104   5.064   3.170   7.743  2.9676 -0.6119 -1.1087
 5157TIP3   OH237105   2.967   5.980   2.365 -0.5876 -0.2799 -0.5878
 5157TIP3    H137106   2.912   6.046   2.406 -0.5990 -0.8523  0.3846
 5157TIP3    H237107   2.972   5.910   2.431  0.1091 -0.8664 -1.2427
 5158TIP3   OH237108   2.444   0.113   1.550  0.4311 -0.1375 -0.5495
 5158TIP3    H137109   2.397   0.151   1.625  0.9012 -0.9789  0.1863
 5158TIP3    H237110   2.483   0.188   1.507 -0.0365  0.3895 -0.0844
 5159TIP3   OH237111   4.730   5.767   2.475 -0.6110  0.1830  0.1605
 5159TIP3    H137112   4.645   5.741   2.439 -1.5094  1.3346  1.3553
 5159TIP3    H237113   4.729   5.863   2.472 -0.1018  0.2760  1.7777
 5160TIP3   OH237114   6.578   6.848   8.350  0.2917  0.3134 -0.4363
 5160TIP3    H137115   6.651   6.787   8.335 -0.3096 -0.0255 -2.3451
 5160TIP3    H237116   6.533   6.852   8.265 -2.3609 -0.0817  0.8482
 5161TIP3   OH237117   1.327   5.283   8.715 -0.1989 -0.3922  0.3156
 5161TIP3    H137118   1.366   5.367   8.740  2.6740 -1.3308 -0.6165
 5161TIP3    H237119   1.332   5.230   8.794  1.5833 -0.8682 -0.0861
 5162TIP3   OH237120   2.056   4.202   1.473  0.5924 -0.6042 -0.8777
 5162TIP3    H137121   2.009   4.281   1.500  1.4145 -0.3323 -0.1898
 5162TIP3    H237122   2.082   4.219   1.382  2.0792  0.5932 -0.2738
 5163TIP3   OH237123   6.777   2.303   2.084 -0.0074 -0.1758 -0.5848
 5163TIP3    H137124   6.808   2.307   2.174 -2.8755  1.0599  0.4818
 5163TIP3    H237125   6.742   2.391   2.067 -0.9958 -0.8486 -2.2906
 5164TIP3   OH237126   1.643   6.006   7.522 -0.0897  0.2480  0.2721
 5164TIP3    H137127   1.595   5.924   7.509 -0.4281  0.5882 -0.7408
 5164TIP3    H237128   1.727   5.992   7.478  0.2953  0.0682  1.0432
 5165TIP3   OH237129   4.559   3.333   7.870 -0.4439  0.1468 -0.4539
 5165TIP3    H137130   4.515   3.417   7.852  1.7145  1.5221  0.3041
 5165TIP3    H237131   4.609   3.315   7.790 -0.8809 -0.4188 -0.6019
 5166TIP3   OH237132   4.922   5.479   0.653 -0.6386 -0.4812 -0.2320
 5166TIP3    H137133   4.922   5.414   0.583 -0.1603 -0.5401 -0.1785
 5166TIP3    H237134   4.866   5.440   0.721 -1.1794 -0.3808 -0.6134
 5167TIP3   OH237135   4.583   3.381   2.390 -0.3363 -0.0678 -0.7917
 5167TIP3    H137136   4.639   3.370   2.467 -0.9843 -0.0031 -0.3107
 5167TIP3    H237137   4.589   3.298   2.344  0.4283  0.0515 -0.9310
 5168TIP3   OH237138   1.505   0.393   1.060  0.3184  0.0028  0.0166
 5168TIP3    H137139   1.461   0.334   1.121  0.1293 -0.7440 -0.8198
 5168TIP3    H237140   1.480   0.481   1.089 -0.7825 -0.3731  0.2642
 5169TIP3   OH237141   0.297   0.360   1.495 -0.6559 -0.4014  0.1460
 5169TIP3    H137142   0.273   0.452   1.489 -0.5903 -0.4807 -2.1852
 5169TIP3    H237143   0.392   0.359   1.494 -0.6598 -0.5075 -0.1173
 5170TIP3   OH237144   6.558   4.054   1.128  0.1785 -0.1341 -0.2431
 5170TIP3    H137145   6.543   4.007   1.210  2.5089 -0.0891  0.2879
 5170TIP3    H237146   6.577   3.986   1.063 -0.6454 -0.1163 -0.5111
 5171TIP3   OH237147   3.092   3.409   2.826 -0.1623 -0.1167 -0.0367
 5171TIP3    H137148   3.154   3.472   2.863  1.6220 -1.7755  0.0046
 5171TIP3    H237149   3.146   3.333   2.804 -1.7587 -0.6632 -2.5573
 5172TIP3   OH237150   3.888   3.055   1.873 -0.5600  0.2867  0.0223
 5172TIP3    H137151   3.951   3.127   1.883  1.7749 -1.6991  0.6654
 5172TIP3    H237152   3.916   2.990   1.937 -1.2503 -2.0841 -1.9312
 5173TIP3   OH237153   6.477   6.189   8.817  0.2165 -0.0668 -0.0942
 5173TIP3    H137154   6.519   6.161   8.736  1.6003  1.6526 -0.0134
 5173TIP3    H237155   6.497   6.119   8.880  2.6716  0.4980 -0.1619
 5174TIP3   OH237156   6.845   0.532   0.442  0.1326  0.8467 -0.2893
 5174TIP3    H137157   6.769   0.481   0.471 -0.5285  2.6042  1.2970
 5174TIP3    H237158   6.810   0.620   0.425  1.6133  1.3973 -0.6555
 5175TIP3   OH237159   1.852   2.402   1.357  0.3223  0.1716  0.0879
 5175TIP3    H137160   1.801   2.482   1.360 -0.6327 -0.3833 -0.7048
 5175TIP3    H237161   1.794   2.335   1.392  0.2702 -0.5717 -1.3229
 5176TIP3   OH237162   0.264   3.737   8.313  0.0736  0.1472 -1.0215
 5176TIP3    H137163   0.229   3.792   8.243 -0.4383  0.0257 -0.8617
 5176TIP3    H237164   0.227   3.773   8.393 -0.8439 -0.8565 -0.9710
 5177TIP3   OH237165   5.722   2.720   0.519 -0.4925 -0.2579  0.2612
 5177TIP3    H137166   5.700   2.797   0.467 -1.6426 -0.7806 -0.0592
 5177TIP3    H237167   5.719   2.648   0.457 -1.8788 -0.8922  1.0418
 5178TIP3   OH237168   1.833   6.633   7.563  0.7088 -0.4005 -1.0016
 5178TIP3    H137169   1.881   6.589   7.632 -0.5782 -2.2013 -1.1825
 5178TIP3    H237170   1.856   6.585   7.483  1.3075  0.9472 -1.6810
 5179TIP3   OH237171   0.731   6.755   1.032  0.4809  0.1054  0.1522
 5179TIP3    H137172   0.748   6.687   1.098  0.6176  1.9208  2.1124
 5179TIP3    H237173   0.696   6.707   0.957 -1.4658 -1.9316  2.1741
 5180TIP3   OH237174   0.571   2.019   8.567 -0.1281  0.1735  0.5136
 5180TIP3    H137175   0.502   1.955   8.587 -0.1969 -0.5917 -1.8396
 5180TIP3    H237176   0.526   2.087   8.518  0.4584  0.6643  0.6453
 5181TIP3   OH237177   0.373   3.666   2.540 -0.1980 -0.4291 -0.3481
 5181TIP3    H137178   0.460   3.635   2.562  0.4178  0.6119 -1.1678
 5181TIP3    H237179   0.388   3.728   2.468 -1.5970 -0.1220 -0.3994
 5182TIP3   OH237180   0.780   1.739   8.665 -0.5907  0.2663  0.2024
 5182TIP3    H137181   0.757   1.831   8.673 -1.6685  0.0526 -0.3051
 5182TIP3    H237182   0.875   1.737   8.675 -0.3493  1.6271 -1.4746
 5183TIP3   OH237183   2.262   4.891   0.435 -0.1526 -0.4490 -0.6817
 5183TIP3    H137184   2.344   4.869   0.478  0.4043  0.5443 -1.2002
 5183TIP3    H237185   2.286   4.910   0.344 -0.5773  2.0547 -0.3372
 5184TIP3   OH237186   6.479   2.606   1.813 -0.0740 -0.0426 -0.0247
 5184TIP3    H137187   6.384   2.594   1.818 -0.0014 -0.3459  0.7727
 5184TIP3    H237188   6.490   2.690   1.769 -0.6591 -1.1600 -2.4520
 5185TIP3   OH237189   0.284   5.090   0.569 -0.2545 -0.3471 -0.0901
 5185TIP3    H137190   0.378   5.072   0.580 -0.7151 -2.1008  1.7716
 5185TIP3    H237191   0.276   5.184   0.582  1.2852 -0.1002 -0.7177
 5186TIP3   OH237192   5.802   4.332   7.994 -0.5021 -0.2554 -0.4579
 5186TIP3    H137193   5.744   4.274   7.944 -0.7890 -1.1404  0.8497
 5186TIP3    H237194   5.884   4.333   7.943 -0.6017 -1.5572 -0.6897
 5187TIP3   OH237195   2.662   6.348   1.681  0.3833 -0.2074 -0.9129
 5187TIP3    H137196   2.659   6.442   1.696 -0.6846 -0.4456  0.5138
 5187TIP3    H237197   2.709   6.339   1.598  1.0845  1.5353 -0.7577
 5188TIP3   OH237198   5.729   4.241   0.884  0.6754  0.6797  0.2768
 5188TIP3    H137199   5.754   4.187   0.959 -1.2547  0.2742  0.6687
 5188TIP3    H237200   5.810   4.285   0.858  1.6697 -0.2253  1.7348
 5189TIP3   OH237201   4.617   5.469   8.175  0.6727  0.2251 -0.0721
 5189TIP3    H137202   4.694   5.524   8.163  0.9125 -0.2905 -0.9911
 5189TIP3    H237203   4.652   5.383   8.201  0.3623  0.2071  0.2998
 5190TIP3   OH237204   3.220   5.837   8.115 -0.1899 -0.0460 -0.7370
 5190TIP3    H137205   3.190   5.763   8.061  0.4749  0.6724 -2.1325
 5190TIP3    H237206   3.311   5.852   8.088  0.7524 -0.7060  1.7864
 5191TIP3   OH237207   0.089   5.934   1.464  0.4853  0.2172  0.4233
 5191TIP3    H137208   0.048   5.854   1.499 -0.3064  0.6127  0.4271
 5191TIP3    H237209   0.139   5.969   1.538 -0.7513  0.7653  1.0317
 5192TIP3   OH237210   5.794   2.244   2.080  0.7046 -0.1758 -0.2896
 5192TIP3    H137211   5.887   2.240   2.102  0.8002 -1.5117 -0.8302
 5192TIP3    H237212   5.791   2.235   1.984  0.0969  1.6877 -0.4848
 5193TIP3   OH237213   3.145   3.171   8.155 -0.6000 -0.5654  0.1855
 5193TIP3    H137214   3.152   3.088   8.109 -1.7135 -1.1197  0.9666
 5193TIP3    H237215   3.171   3.237   8.091  0.8291 -1.5423 -0.2813
 5194TIP3   OH237216   3.457   2.270   1.404  0.2928 -0.3007  0.0006
 5194TIP3    H137217   3.438   2.342   1.343  1.5557 -1.5904 -2.0433
 5194TIP3    H237218   3.383   2.211   1.395  0.6426 -0.6620 -0.6047
 5195TIP3   OH237219   2.421   4.363   8.574  0.3889  0.4800 -0.0434
 5195TIP3    H137220   2.346   4.320   8.534  2.9100 -2.1012 -2.4255
 5195TIP3    H237221   2.401   4.364   8.668 -2.7631  0.4042 -0.6110
 5196TIP3   OH237222   0.749   3.278   8.187 -0.7140 -0.4634  0.3506
 5196TIP3    H137223   0.842   3.255   8.190 -1.2885 -3.0984  0.1510
 5196TIP3    H237224   0.745   3.366   8.225  1.4411 -1.6183  3.7200
 5197TIP3   OH237225   1.051   2.801   7.839  0.7321  0.2355 -0.2803
 5197TIP3    H137226   1.128   2.749   7.863  1.6748  0.3438 -2.7319
 5197TIP3    H237227   0.978   2.739   7.840  0.9980 -0.0736  1.1865
 5198TIP3   OH237228   0.988   2.414   3.256 -0.1234 -0.1467 -0.1935
 5198TIP3    H137229   0.945   2.440   3.175 -0.0591 -3.2141 -1.3036
 5198TIP3    H237230   1.046   2.343   3.232  0.2267 -0.8914  2.4711
 5199TIP3   OH237231   3.307   1.989   7.179 -0.1798  0.1274 -0.1072
 5199TIP3    H137232   3.368   2.009   7.108  0.5577  0.2138  0.5402
 5199TIP3    H237233   3.224   2.027   7.151  0.5673  1.8755 -0.0646
 5200TIP3   OH237234   4.894   5.328   7.978 -0.1796  1.0624  0.3094
 5200TIP3    H137235   4.846   5.347   7.898  0.1366  1.5623  0.2289
 5200TIP3    H237236   4.967   5.391   7.977  0.8168 -0.0648  0.1265
 5201TIP3   OH237237   6.569   3.006   2.741 -0.1110  0.0406 -0.4239
 5201TIP3    H137238   6.597   3.098   2.746 -0.8545  0.3351 -1.3729
 5201TIP3    H237239   6.648   2.958   2.714  0.4723  0.2823  0.7864
 5202TIP3   OH237240   4.591   5.970   0.716  0.2378  0.1276  0.6290
 5202TIP3    H137241   4.550   5.959   0.802 -0.8762  0.2469  0.1291
 5202TIP3    H237242   4.573   5.888   0.670  2.5033 -0.7337  1.1441
 5203TIP3   OH237243   5.077   4.681   0.602 -0.4436  0.5563 -0.1541
 5203TIP3    H137244   5.033   4.683   0.686 -0.0632  1.1996  0.0388
 5203TIP3    H237245   5.152   4.740   0.612  0.2500 -0.2241 -0.5915
 5204TIP3   OH237246   4.221   6.010   7.856 -0.1984  0.7554  0.2846
 5204TIP3    H137247   4.302   6.044   7.817 -0.6548  0.5660 -0.8734
 5204TIP3    H237248   4.193   5.940   7.796 -0.3877 -0.2498  1.5123
 5205TIP3   OH237249   4.642   2.531   1.444  0.1810 -0.5714 -0.1508
 5205TIP3    H137250   4.619   2.526   1.351  0.2313  1.7001 -0.3512
 5205TIP3    H237251   4.637   2.441   1.475  0.3973 -1.4219 -2.4005
 5206TIP3   OH237252   2.107   4.494   8.540 -0.0246  0.1401 -0.2019
 5206TIP3    H137253   2.035   4.555   8.526  0.8095  0.9537 -1.1371
 5206TIP3    H237254   2.117   4.449   8.455  1.4197  1.0137 -0.5317
 5207TIP3   OH237255   1.698   5.649   7.727 -0.3062  0.3411 -0.2870
 5207TIP3    H137256   1.627   5.600   7.686 -0.3307  1.0972 -1.1897
 5207TIP3    H237257   1.731   5.591   7.795 -0.3786 -0.9014 -1.2678
 5208TIP3   OH237258   4.988   5.016   3.171 -0.6888  0.1007 -0.0584
 5208TIP3    H137259   4.982   4.944   3.108 -0.3807 -0.3841  0.4569
 5208TIP3    H237260   4.979   4.974   3.256  0.9956  0.4674  0.3272
 5209TIP3   OH237261   4.707   0.781   0.391 -0.3546 -0.0969  0.0247
 5209TIP3    H137262   4.757   0.780   0.310 -0.4202 -0.8827 -0.0106
 5209TIP3    H237263   4.770   0.808   0.458 -0.3486  0.7524 -0.3047
 5210TIP3   OH237264   5.871   4.434   8.510  0.3910 -0.3375  0.2474
 5210TIP3    H137265   5.794   4.449   8.565 -0.5459  1.3676 -1.4193
 5210TIP3    H237266   5.845   4.366   8.448  0.9256 -1.1652  0.9110
 5211TIP3   OH237267   2.936   3.643   2.044  0.3989  0.0670 -0.0186
 5211TIP3    H137268   2.957   3.555   2.013 -3.4185 -1.1519  0.2692
 5211TIP3    H237269   2.866   3.629   2.109  1.0979  3.2148  1.6271
 5212TIP3   OH237270   3.583   5.635   1.519  0.0029 -0.3490  0.2128
 5212TIP3    H137271   3.584   5.717   1.469  0.8848 -0.9152 -0.7439
 5212TIP3    H237272   3.498   5.597   1.500 -0.0658 -0.0701 -0.0604
 5213TIP3   OH237273   0.486   5.727   7.523 -0.1323 -0.0900 -0.2039
 5213TIP3    H137274   0.459   5.635   7.517 -0.9735  0.0945  0.5158
 5213TIP3    H237275   0.404   5.776   7.516 -0.1171  0.4654  2.5239
 5214TIP3   OH237276   6.369   6.420   1.600  0.6933  0.4327 -0.2873
 5214TIP3    H137277   6.288   6.373   1.621  1.1121  0.9173  2.9785
 5214TIP3    H237278   6.351   6.463   1.516 -1.1325 -2.2266 -1.3826
 5215TIP3   OH237279   5.165   0.184   8.703  0.4031  0.1652 -0.0491
 5215TIP3    H137280   5.174   0.176   8.608  1.0740 -1.0088  0.0856
 5215TIP3    H237281   5.070   0.181   8.718  0.3167 -0.3052 -0.6400
 5216TIP3   OH237282   2.291   4.389   8.139 -0.1294 -0.6565  0.2990
 5216TIP3    H137283   2.300   4.319   8.076 -0.1076  0.0738 -0.5296
 5216TIP3    H237284   2.276   4.345   8.223 -0.4189 -1.6283 -0.2530
 5217TIP3   OH237285   3.841   6.634   8.747 -0.1030  0.5939 -0.0078
 5217TIP3    H137286   3.924   6.614   8.790  0.2303 -0.8486 -1.2207
 5217TIP3    H237287   3.818   6.721   8.779  1.4866  0.7092  0.9490
 5218TIP3   OH237288   6.365   3.108   1.819 -0.0912  0.0513  1.0568
 5218TIP3    H137289   6.458   3.085   1.826  0.2392  0.8286 -0.4646
 5218TIP3    H237290   6.364   3.204   1.821 -0.7875  0.0661  0.2486
 5219TIP3   OH237291   4.642   4.119   7.716 -0.1616  0.4241  0.4886
 5219TIP3    H137292   4.581   4.066   7.768 -0.3819  0.8495  0.6732
 5219TIP3    H237293   4.646   4.202   7.762  0.7865  0.3063  0.6329
 5220TIP3   OH237294   6.120   6.228   1.628 -0.0687  0.0719  0.0341
 5220TIP3    H137295   6.116   6.220   1.533 -3.1431  0.3299  0.0447
 5220TIP3    H237296   6.107   6.139   1.661 -1.1752  0.2675  0.1712
 5221TIP3   OH237297   0.298   6.484   8.639 -0.3300 -0.4719  0.0913
 5221TIP3    H137298   0.339   6.498   8.554  2.4142 -0.3343  1.3568
 5221TIP3    H237299   0.280   6.572   8.671  0.6064 -0.4428  0.5474
 5222TIP3   OH237300   5.138   5.311   1.790  0.0275  0.0449 -0.3670
 5222TIP3    H137301   5.144   5.375   1.861  0.1344  0.7905 -1.0305
 5222TIP3    H237302   5.156   5.227   1.831  0.2572  0.4888  0.4522
 5223TIP3   OH237303   5.715   2.567   0.230 -0.0967  0.0960  0.2006
 5223TIP3    H137304   5.754   2.571   0.143 -0.4500 -0.7395 -0.0105
 5223TIP3    H237305   5.754   2.489   0.270 -0.5661 -0.0081  0.4685
 5224TIP3   OH237306   2.283   0.023   7.618  0.0214 -0.1499 -0.0848
 5224TIP3    H137307   2.236  -0.036   7.559 -0.0161  1.1823 -1.4221
 5224TIP3    H237308   2.316   0.093   7.562 -1.5299  2.1464  1.6923
 5225TIP3   OH237309   1.163   2.646   8.555  0.4870  0.5466  0.1506
 5225TIP3    H137310   1.127   2.720   8.506 -0.5378  0.4009  0.6581
 5225TIP3    H237311   1.248   2.630   8.514  0.2085  1.2339 -0.7440
 5226TIP3   OH237312   1.931   0.158   2.606  0.1494 -0.2601 -0.0981
 5226TIP3    H137313   1.865   0.127   2.544 -1.0238 -0.3193  1.1415
 5226TIP3    H237314   2.006   0.100   2.593 -0.1815 -0.4492 -1.2435
 5227TIP3   OH237315   5.383   2.764   0.922 -0.4319 -0.0353 -0.4239
 5227TIP3    H137316   5.408   2.855   0.906  0.4463 -0.1875 -0.0036
 5227TIP3    H237317   5.430   2.714   0.855  0.9529 -0.3847  0.7339
 5228TIP3   OH237318   4.249   2.035   7.570  0.0149  0.3313 -0.1460
 5228TIP3    H137319   4.204   2.040   7.486  0.8659 -0.6131 -0.6799
 5228TIP3    H237320   4.181   2.054   7.635 -1.4079 -2.0030 -0.8519
 5229TIP3   OH237321   6.550   3.856   1.317 -0.0100 -0.6187  0.3192
 5229TIP3    H137322   6.590   3.773   1.293 -2.4145 -1.9141  0.5219
 5229TIP3    H237323   6.536   3.849   1.412  0.6527  0.4506  0.5118
 5230TIP3   OH237324   2.801   5.031   7.202  0.2352 -0.2562  0.1226
 5230TIP3    H137325   2.707   5.015   7.212  0.2679 -0.0999  0.7345
 5230TIP3    H237326   2.822   5.092   7.272  0.6243  0.4112 -0.5560
 5231TIP3   OH237327   3.034   4.898   0.013 -0.0897 -0.0969  0.0614
 5231TIP3    H137328   2.972   4.963   0.047  0.9878  0.4085  1.1397
 5231TIP3    H237329   3.003   4.880  -0.076  1.5089  4.6463 -1.7986
 5232TIP3   OH237330   3.786   1.882   8.091 -0.1638 -0.4158  0.1038
 5232TIP3    H137331   3.826   1.928   8.017 -0.4537  0.6233  0.5828
 5232TIP3    H237332   3.853   1.819   8.118 -0.4313 -1.5587 -1.6813
 5233TIP3   OH237333   0.015   3.300   2.091 -0.2454  0.3692  0.2328
 5233TIP3    H137334   0.033   3.234   2.158 -0.3140  0.2744  0.1574
 5233TIP3    H237335  -0.023   3.373   2.140 -1.1470 -0.0520  0.1839
 5234TIP3   OH237336   1.118   2.402   1.011 -0.3613 -0.5657  0.5440
 5234TIP3    H137337   1.077   2.419   1.096  0.2318  0.9760  0.5554
 5234TIP3    H237338   1.210   2.426   1.024  0.2921 -2.6736  0.1409
 5235TIP3   OH237339   5.909   5.138   0.030 -0.3848 -0.2053  0.2663
 5235TIP3    H137340   5.968   5.144  -0.045  1.2032 -0.8411  1.4051
 5235TIP3    H237341   5.857   5.059   0.013  1.7888 -1.9134  0.9972
 5236TIP3   OH237342   3.463   0.203   1.761  0.2718 -0.0077  0.4622
 5236TIP3    H137343   3.383   0.192   1.708  0.7627  0.4329 -0.3866
 5236TIP3    H237344   3.447   0.149   1.839 -0.6681 -0.2828  0.1004
 5237TIP3   OH237345   1.777   3.893   8.515 -0.5425 -0.1796 -0.2337
 5237TIP3    H137346   1.750   3.985   8.517  0.0324  0.0454 -1.4063
 5237TIP3    H237347   1.711   3.850   8.462  0.3827  0.0368 -1.6347
 5238TIP3   OH237348   4.258   1.550   2.013 -0.3108 -0.7774 -0.0982
 5238TIP3    H137349   4.182   1.608   2.007  0.5562  0.7056  1.8160
 5238TIP3    H237350   4.333   1.609   2.016  0.5917 -1.8984  2.4990
 5239TIP3   OH237351   4.046   5.284   8.214  0.5884  0.1467  0.3276
 5239TIP3    H137352   3.977   5.220   8.197  0.1494  0.3721  1.1824
 5239TIP3    H237353   4.122   5.252   8.165 -0.0078 -0.3119 -0.3125
 5240TIP3   OH237354   2.137   3.873   8.757 -0.2259 -0.9499 -0.4319
 5240TIP3    H137355   2.168   3.797   8.805 -0.0691 -0.2199  0.6444
 5240TIP3    H237356   2.216   3.913   8.721 -0.3824 -1.7790 -1.7800
 5241TIP3   OH237357   1.754   5.550   8.741 -0.5836  0.0367 -0.1169
 5241TIP3    H137358   1.802   5.491   8.683 -0.5253 -0.1153  0.0874
 5241TIP3    H237359   1.717   5.616   8.682  0.3602  0.4996 -0.2174
 5242TIP3   OH237360   0.060   5.905   8.806 -0.5928 -0.2243  0.1302
 5242TIP3    H137361  -0.006   5.878   8.870 -1.7224  1.7604 -0.1205
 5242TIP3    H237362   0.013   5.906   8.722  0.4518 -1.2209 -0.5008
 5243TIP3   OH237363   6.078   0.347   1.847 -0.0807 -0.7645 -0.4591
 5243TIP3    H137364   6.147   0.355   1.782 -0.1183 -1.8947 -0.6508
 5243TIP3    H237365   6.090   0.260   1.885 -0.9811 -0.7118 -0.0133
 5244TIP3   OH237366   2.361   5.607   0.576 -0.4798  0.2713 -0.6450
 5244TIP3    H137367   2.369   5.634   0.667  1.2063  0.1567 -0.7319
 5244TIP3    H237368   2.310   5.677   0.535 -0.0592  1.0290  0.0935
 5245TIP3   OH237369   6.787   4.604   0.126  0.5299 -0.5829 -0.0125
 5245TIP3    H137370   6.803   4.696   0.147  0.0605 -0.5288  0.1123
 5245TIP3    H237371   6.692   4.598   0.115  0.6192 -0.9087 -0.6919
 5246TIP3   OH237372   0.540   0.866   1.406  0.0269 -0.4268 -0.1295
 5246TIP3    H137373   0.448   0.857   1.431  0.2177 -1.3626  0.2688
 5246TIP3    H237374   0.545   0.831   1.317  0.0980 -0.9249  0.0666
 5247TIP3   OH237375   1.324   0.185   1.688  0.1717  0.0691 -0.3180
 5247TIP3    H137376   1.261   0.255   1.676  1.6799  1.2918 -1.5295
 5247TIP3    H237377   1.271   0.105   1.691 -1.4783  1.1302 -0.2478
 5248TIP3   OH237378   6.515   1.960   8.507 -0.3102 -0.1406 -0.5539
 5248TIP3    H137379   6.448   1.914   8.557  0.1257  0.4945  0.6376
 5248TIP3    H237380   6.468   2.031   8.463 -0.7603 -0.9299 -1.3822
 5249TIP3   OH237381   6.196   5.148   7.617 -0.5352 -0.3530 -0.3239
 5249TIP3    H137382   6.267   5.183   7.563  0.7009  0.0225  1.4452
 5249TIP3    H237383   6.153   5.083   7.561 -0.7532  1.5501 -2.4948
 5250TIP3   OH237384   0.297   1.524   8.224  0.4789 -0.0278 -0.2476
 5250TIP3    H137385   0.206   1.496   8.216  0.2180  0.2197  1.5687
 5250TIP3    H237386   0.320   1.505   8.315  2.6953 -1.4190 -1.0255
 5251TIP3   OH237387   3.568   2.526   0.981 -0.1622  0.4344 -0.0162
 5251TIP3    H137388   3.650   2.552   1.022 -0.5323 -2.3170  2.7907
 5251TIP3    H237389   3.593   2.468   0.909  0.3524  0.6035  0.0264
 5252TIP3   OH237390   5.169   5.010   7.144 -0.3722  0.2510 -0.1684
 5252TIP3    H137391   5.173   5.052   7.058 -0.5124 -0.1605 -0.3823
 5252TIP3    H237392   5.236   4.942   7.141  0.2491  0.8345  0.3853
 5253TIP3   OH237393   4.962   5.116   0.232  0.2331 -0.0261 -0.1406
 5253TIP3    H137394   4.989   5.043   0.288  0.4636  0.2751  0.1419
 5253TIP3    H237395   4.867   5.121   0.243  0.4232  0.9464  1.3628
 5254TIP3   OH237396   2.848   1.275   7.741 -0.4078 -0.4824 -0.4051
 5254TIP3    H137397   2.925   1.248   7.691  0.1813 -1.6279  1.0195
 5254TIP3    H237398   2.835   1.204   7.804 -1.4266  0.6287  0.6934
 5255TIP3   OH237399   2.496   6.784   0.159  0.1953  0.2514 -0.6541
 5255TIP3    H137400   2.492   6.879   0.148  0.9115  0.1736 -1.6708
 5255TIP3    H237401   2.585   6.768   0.190  0.5817 -0.2110 -1.9493
 5256TIP3   OH237402   3.063   4.857   0.379  0.2366 -0.1700  0.8901
 5256TIP3    H137403   2.987   4.915   0.372  0.7105  0.4434  0.6686
 5256TIP3    H237404   3.030   4.770   0.357 -0.1472  0.2829 -0.4089
 5257TIP3   OH237405   4.519   1.970   0.232 -0.0410  0.2624  0.4520
 5257TIP3    H137406   4.432   1.950   0.268  0.1741 -1.6955 -0.0101
 5257TIP3    H237407   4.503   1.994   0.141 -0.0005 -1.5316 -0.0518
 5258TIP3   OH237408   0.994   4.070   2.925  0.4803  0.1340 -0.1099
 5258TIP3    H137409   0.970   4.027   3.007  1.0904 -2.3489 -1.1309
 5258TIP3    H237410   0.912   4.106   2.892 -0.4612 -1.8051 -0.0084
 5259TIP3   OH237411   5.471   3.045   0.587 -0.0471 -0.1176 -0.6211
 5259TIP3    H137412   5.433   2.974   0.537 -1.3257  0.2626 -0.2312
 5259TIP3    H237413   5.527   3.002   0.652 -2.2059 -0.9479  0.8186
 5260TIP3   OH237414   4.858   6.318   1.669 -0.0559  0.1050  0.6923
 5260TIP3    H137415   4.781   6.366   1.697 -1.0534 -1.5419  0.8770
 5260TIP3    H237416   4.876   6.255   1.739  0.5950 -0.4871  0.0303
 5261TIP3   OH237417   0.756   2.266   8.125  0.3585 -0.7540 -0.4505
 5261TIP3    H137418   0.706   2.304   8.053 -1.6198 -1.8240  0.2772
 5261TIP3    H237419   0.732   2.318   8.201  0.1272 -1.4510 -0.0370
 5262TIP3   OH237420   4.510   4.857   8.467 -0.1060  0.2266 -0.7964
 5262TIP3    H137421   4.541   4.769   8.446  2.1175  0.6755  0.2745
 5262TIP3    H237422   4.504   4.858   8.563  2.1025  1.8120 -0.5688
 5263TIP3   OH237423   3.254   6.200   8.791  0.1149  0.2019 -0.9615
 5263TIP3    H137424   3.190   6.141   8.830  1.1712 -0.9892 -0.9965
 5263TIP3    H237425   3.214   6.287   8.799 -1.8261 -0.5824 -1.6374
 5264TIP3   OH237426   4.778   5.259   7.407  0.6681 -0.1278  0.3557
 5264TIP3    H137427   4.831   5.185   7.378 -0.5004 -0.7555 -0.2479
 5264TIP3    H237428   4.805   5.332   7.351  0.1773 -0.7037 -0.6492
 5265TIP3   OH237429   0.558   6.417   0.870 -0.3753 -0.1920 -0.0252
 5265TIP3    H137430   0.583   6.344   0.813 -1.7311 -0.2664 -0.5639
 5265TIP3    H237431   0.478   6.388   0.913  0.5963 -0.1333  1.9626
 5266TIP3   OH237432   3.808   6.530   0.755 -0.4149  0.5054  0.3990
 5266TIP3    H137433   3.722   6.516   0.715  0.4975 -1.9562 -0.8863
 5266TIP3    H237434   3.831   6.445   0.793  2.7206  0.1160 -1.9695
 5267TIP3   OH237435   0.194   2.891   0.740 -0.4544  0.4816  0.5981
 5267TIP3    H137436   0.180   2.904   0.834 -0.9396 -2.5615  1.0605
 5267TIP3    H237437   0.107   2.896   0.701 -0.2613  1.6749  0.2827
 5268TIP3   OH237438   0.628   3.707   7.595 -0.0263 -0.1716  0.0590
 5268TIP3    H137439   0.713   3.696   7.636 -0.2829  1.3642  1.0790
 5268TIP3    H237440   0.644   3.689   7.502  1.2605 -0.4704  0.3153
 5269TIP3   OH237441   5.995   3.392   8.636  0.3025  0.7071  0.1522
 5269TIP3    H137442   5.907   3.416   8.607 -0.4672  0.1180  1.8672
 5269TIP3    H237443   6.027   3.469   8.683  0.9314  1.0988 -0.8748
 5270TIP3   OH237444   1.855   3.178   1.023  0.4175  0.3901 -0.3758
 5270TIP3    H137445   1.884   3.089   1.003  0.6330  0.3052  0.3067
 5270TIP3    H237446   1.909   3.233   0.966  1.9922  0.2348  0.9039
 5271TIP3   OH237447   4.945   3.882   0.277  0.5350 -0.0274  0.0503
 5271TIP3    H137448   4.991   3.907   0.196  2.2205 -1.4343  0.5081
 5271TIP3    H237449   5.008   3.899   0.346  0.7399 -2.7322  0.6369
 5272TIP3   OH237450   2.301   2.213   0.408  0.0605 -0.2105  0.2390
 5272TIP3    H137451   2.247   2.160   0.467  0.6993 -1.9726 -0.6709
 5272TIP3    H237452   2.242   2.242   0.339 -0.3957  0.7016  0.9929
 5273TIP3   OH237453   0.006   4.228   7.107 -0.2395  0.5118  0.2925
 5273TIP3    H137454  -0.081   4.207   7.141 -1.1533 -0.1556 -2.2499
 5273TIP3    H237455   0.036   4.146   7.066  1.3881  0.8831  0.6563
 5274TIP3   OH237456   4.109   3.594   7.237 -0.3281 -0.2626 -0.4351
 5274TIP3    H137457   4.187   3.561   7.281 -0.2867  0.5536  0.1347
 5274TIP3    H237458   4.092   3.532   7.166  0.5958 -0.6712 -0.3023
 5275TIP3   OH237459   3.080   2.262   2.434  0.2254 -0.0324  0.1649
 5275TIP3    H137460   3.015   2.324   2.467 -0.2988  0.8677 -2.3871
 5275TIP3    H237461   3.050   2.177   2.467 -1.8850  0.4556 -0.3918
 5276TIP3   OH237462   2.403   0.014   1.241  0.1039 -0.2682 -0.5413
 5276TIP3    H137463   2.442   0.086   1.292 -0.2947  0.8070 -1.7156
 5276TIP3    H237464   2.409  -0.062   1.299 -2.2698  1.3210  2.0565
 5277TIP3   OH237465   2.827   3.848   0.248 -0.6761  0.3161 -0.2088
 5277TIP3    H137466   2.735   3.859   0.273 -0.3194  0.9976  0.8473
 5277TIP3    H237467   2.842   3.754   0.255 -1.1074  0.2756  0.2945
 5278TIP3   OH237468   3.981   2.573   6.631 -0.0101  0.3639  0.5109
 5278TIP3    H137469   3.987   2.623   6.712  1.1496  0.1190  0.5935
 5278TIP3    H237470   4.070   2.542   6.615 -0.0078  1.1250 -1.3073
 5279TIP3   OH237471   1.869   5.950   2.801 -0.3673 -0.3589 -0.4525
 5279TIP3    H137472   1.937   5.911   2.746 -1.1259 -1.0028 -0.9785
 5279TIP3    H237473   1.869   5.897   2.881 -1.6316 -1.7431 -1.3090
 5280TIP3   OH237474   3.525   6.055   0.010 -0.0004 -0.1943 -0.3231
 5280TIP3    H137475   3.435   6.066  -0.019 -0.1500  0.0702  0.2243
 5280TIP3    H237476   3.571   6.020  -0.067 -0.6417 -0.6971 -0.4856
 5281TIP3   OH237477   3.862   4.502   0.673  0.1184 -0.1670  0.7758
 5281TIP3    H137478   3.842   4.558   0.748  0.5949 -0.1075  0.8667
 5281TIP3    H237479   3.870   4.414   0.710  1.4528  0.0186  1.0038
 5282TIP3   OH237480   2.673   6.450   0.349  0.1030 -0.4199 -0.0855
 5282TIP3    H137481   2.638   6.362   0.338  1.3387 -0.8256 -1.0294
 5282TIP3    H237482   2.628   6.485   0.426  0.7634 -2.4820  1.3237
 5283TIP3   OH237483   4.498   2.722   1.535 -0.0132 -0.0101  0.1277
 5283TIP3    H137484   4.444   2.687   1.606  0.7934  0.8109  1.1819
 5283TIP3    H237485   4.562   2.654   1.516  0.1772  0.0215  0.6534
 5284TIP3   OH237486   5.981   3.731   1.629  0.5543 -0.5159  0.3895
 5284TIP3    H137487   5.944   3.735   1.541  0.5865 -0.0929  0.3891
 5284TIP3    H237488   6.012   3.820   1.645  1.2660 -0.7824  0.5223
 5285TIP3   OH237489   3.889   5.386   8.424  0.0913 -0.2442  0.1455
 5285TIP3    H137490   3.891   5.316   8.489  0.4213 -0.1297  0.2640
 5285TIP3    H237491   3.962   5.365   8.365  1.0265  0.7035  0.9353
 5286TIP3   OH237492   4.366   3.945   7.131 -0.6438  0.3268 -0.0947
 5286TIP3    H137493   4.371   3.946   7.036 -0.4377  1.4406 -0.0941
 5286TIP3    H237494   4.279   3.911   7.151 -0.8667  0.5305 -0.6996
 5287TIP3   OH237495   3.936   4.209   2.775 -0.3851 -0.0720  0.3255
 5287TIP3    H137496   4.024   4.173   2.768 -0.7611 -1.6262  2.5200
 5287TIP3    H237497   3.932   4.276   2.707  2.2328 -0.4345 -0.2933
 5288TIP3   OH237498   3.206   3.594   1.153 -0.1884  0.5054  0.4243
 5288TIP3    H137499   3.156   3.665   1.114 -0.2568  0.0768 -0.2821
 5288TIP3    H237500   3.147   3.556   1.218 -1.1111 -0.5092 -0.9605
 5289TIP3   OH237501   0.695   1.447   7.644  0.4040 -0.2192  0.1672
 5289TIP3    H137502   0.697   1.540   7.622  1.7886 -0.0691  0.7947
 5289TIP3    H237503   0.640   1.441   7.721  0.5468  0.1222  0.2943
 5290TIP3   OH237504   3.245   3.997   7.720 -0.0368  0.0960 -0.4787
 5290TIP3    H137505   3.176   3.968   7.661 -0.1240 -2.6810  0.8056
 5290TIP3    H237506   3.204   4.066   7.773 -0.9409  0.3958 -1.5354
 5291TIP3   OH237507   2.195   3.088   8.655  0.2077 -0.1675  0.4029
 5291TIP3    H137508   2.279   3.052   8.627 -0.1062 -0.9234  0.3979
 5291TIP3    H237509   2.217   3.152   8.723  0.8630  0.5230 -0.4470
 5292TIP3   OH237510   5.053   2.932   8.248 -0.1282 -0.2038 -0.0694
 5292TIP3    H137511   4.975   2.937   8.304  0.1913  0.0600  0.3643
 5292TIP3    H237512   5.029   2.981   8.170 -0.2681  0.1959  0.2207
 5293TIP3   OH237513   5.229   1.556   0.378 -0.0142 -0.7544 -0.1999
 5293TIP3    H137514   5.194   1.479   0.332  1.3916 -1.9587  0.6401
 5293TIP3    H237515   5.236   1.528   0.469  0.8905  0.2447  0.0608
 5294TIP3   OH237516   5.839   6.302   1.497 -0.2786 -0.2587 -0.2799
 5294TIP3    H137517   5.822   6.229   1.556 -0.3646 -1.4923 -1.7687
 5294TIP3    H237518   5.912   6.272   1.443  1.5964  1.8813  0.8950
 5295TIP3   OH237519   3.586   4.740   7.887  0.0934 -0.3680 -0.0823
 5295TIP3    H137520   3.550   4.651   7.892 -2.6945  0.5744 -1.2461
 5295TIP3    H237521   3.535   4.783   7.818  0.6689  2.4157  1.0734
 5296TIP3   OH237522   3.501   4.473   7.901  0.1947 -0.0945 -0.2601
 5296TIP3    H137523   3.449   4.467   7.821  0.2673  0.9923 -0.3929
 5296TIP3    H237524   3.466   4.403   7.957 -2.2511  1.3638  0.1539
 5297TIP3   OH237525   5.483   6.656   8.433 -0.4273  0.0354 -0.6149
 5297TIP3    H137526   5.440   6.640   8.349  2.7593  0.9546 -2.5908
 5297TIP3    H237527   5.490   6.752   8.438 -1.7045  0.0926  1.4237
 5298TIP3   OH237528   2.843   4.642   1.272  0.1636  0.1619 -0.1395
 5298TIP3    H137529   2.883   4.635   1.185  0.0521 -0.7779 -0.1274
 5298TIP3    H237530   2.749   4.633   1.256  0.1132  0.3668  0.0397
 5299TIP3   OH237531   5.264   3.460   1.770  0.0814 -0.2594  0.6209
 5299TIP3    H137532   5.189   3.492   1.820 -0.5822  1.1668 -1.1817
 5299TIP3    H237533   5.259   3.365   1.780 -1.4870 -0.1623  1.1980
 5300TIP3   OH237534   5.632   6.595   0.756  0.1463  0.0505  0.2687
 5300TIP3    H137535   5.644   6.560   0.667 -2.2552  0.0031 -0.0926
 5300TIP3    H237536   5.666   6.527   0.813  1.5026 -0.0293 -0.5888
 5301TIP3   OH237537   4.757   6.026   2.465  0.3184 -0.2420 -0.1400
 5301TIP3    H137538   4.784   6.111   2.501 -2.2628  0.4624  0.2787
 5301TIP3    H237539   4.755   6.040   2.370  3.5304 -1.0278 -0.4448
 5302TIP3   OH237540   4.676   2.772   7.261  0.1556  0.2136  0.2678
 5302TIP3    H137541   4.582   2.766   7.278  0.2585  0.5793  0.9882
 5302TIP3    H237542   4.697   2.690   7.216 -0.5744  0.2942 -0.2486
 5303TIP3   OH237543   1.100   2.551   1.839  0.3450 -0.1574  0.0523
 5303TIP3    H137544   1.194   2.541   1.851  0.2133 -0.0848  1.1945
 5303TIP3    H237545   1.061   2.501   1.910 -0.5242 -1.5063 -1.3110
 5304TIP3   OH237546   2.696   0.248   1.540 -0.4500 -0.4383  0.3521
 5304TIP3    H137547   2.767   0.290   1.589 -0.8051  1.3799 -0.5683
 5304TIP3    H237548   2.703   0.155   1.560  0.1209  0.0902  2.9118
 5305TIP3   OH237549   3.265   0.535   7.393 -0.4035 -0.0696  0.3267
 5305TIP3    H137550   3.281   0.605   7.329 -2.5567  0.1200 -0.0751
 5305TIP3    H237551   3.244   0.458   7.340  0.3777 -0.6286  0.7971
 5306TIP3   OH237552   0.464   3.327   3.228  0.1247  0.6223 -0.0570
 5306TIP3    H137553   0.557   3.314   3.244 -0.4015 -2.6087  1.1800
 5306TIP3    H237554   0.447   3.283   3.144 -0.4106  0.3984  0.1593
 5307TIP3   OH237555   5.151   4.964   2.297  0.0280 -0.2777 -0.4540
 5307TIP3    H137556   5.192   4.880   2.319  0.0179 -0.1283  0.1576
 5307TIP3    H237557   5.208   5.030   2.337 -0.0430 -0.0001 -0.8087
 5308TIP3   OH237558   2.261   3.530   2.793  0.4567 -0.0502 -0.5061
 5308TIP3    H137559   2.266   3.442   2.755  1.7746 -0.9137  1.4895
 5308TIP3    H237560   2.348   3.567   2.779  0.1351  0.6618 -0.6646
 5309TIP3   OH237561   3.881   5.873   8.292 -0.3683  0.1232 -0.1045
 5309TIP3    H137562   3.860   5.965   8.273 -0.0490  0.2103 -0.0448
 5309TIP3    H237563   3.822   5.849   8.363  0.6241  0.7695  0.9734
 5310TIP3   OH237564   2.119   0.837   1.493 -0.0666 -0.3036  0.1178
 5310TIP3    H137565   2.047   0.879   1.541 -1.3621 -1.8157 -0.3845
 5310TIP3    H237566   2.153   0.906   1.437 -2.7639 -0.0448 -1.4040
 5311TIP3   OH237567   6.403   5.953   0.511 -0.1288  0.5774 -0.0227
 5311TIP3    H137568   6.381   5.907   0.430 -0.2464  0.1484  0.2447
 5311TIP3    H237569   6.319   5.985   0.544 -0.1875  0.0854  0.3193
 5312TIP3   OH237570   5.758   4.296   0.185 -0.0845  0.0501  0.2850
 5312TIP3    H137571   5.731   4.246   0.109  1.6285  1.4555 -1.3476
 5312TIP3    H237572   5.715   4.381   0.175 -0.5198 -0.0201  1.3755
 5313TIP3   OH237573   2.731   3.622   1.042  0.3266  0.0091 -0.7822
 5313TIP3    H137574   2.781   3.577   1.110 -0.3456 -0.2688 -0.4607
 5313TIP3    H237575   2.655   3.657   1.088 -0.0207  0.0149 -1.3517
 5314TIP3   OH237576   6.032   4.674   8.197 -0.1767  0.0308 -0.6848
 5314TIP3    H137577   6.053   4.615   8.270  0.7779  0.1047 -0.8983
 5314TIP3    H237578   6.105   4.666   8.137 -0.4537  0.7803 -1.1370
 5315TIP3   OH237579   0.597   3.661   0.280 -1.1178 -0.0594 -0.0575
 5315TIP3    H137580   0.656   3.628   0.348 -1.1304  2.4230  1.2515
 5315TIP3    H237581   0.541   3.586   0.259  0.8008 -1.7420  0.5075
 5316TIP3   OH237582   4.285   5.656   1.141 -0.6460  0.0610 -0.1775
 5316TIP3    H137583   4.193   5.633   1.138 -1.2009  2.0397 -0.0331
 5316TIP3    H237584   4.286   5.749   1.163  1.3815  0.1370 -0.3365
 5317TIP3   OH237585   3.919   1.740   6.716 -0.5472 -0.3456 -0.2419
 5317TIP3    H137586   3.852   1.804   6.692  0.5343  0.4070 -1.3954
 5317TIP3    H237587   3.989   1.753   6.652  1.6266  0.2768  2.0883
 5318TIP3   OH237588   3.568   1.515   8.222 -0.0739 -0.5799  0.2693
 5318TIP3    H137589   3.492   1.486   8.273 -0.2895  0.6870  0.7029
 5318TIP3    H237590   3.532   1.543   8.138  0.0454 -0.8660  0.1193
 5319TIP3   OH237591   0.447   6.259   2.167  0.1572  0.3781 -0.2289
 5319TIP3    H137592   0.487   6.345   2.156 -0.3648  0.4512 -1.8583
 5319TIP3    H237593   0.506   6.212   2.225  1.4437  1.2215 -0.8158
 5320TIP3   OH237594   5.092   0.239   7.525  0.0117 -0.1676  0.2971
 5320TIP3    H137595   5.054   0.320   7.489 -1.5874 -0.5196  1.1181
 5320TIP3    H237596   5.163   0.269   7.582  0.8056  0.5266 -1.0075
 5321TIP3   OH237597   0.239   4.920   0.789 -0.3297  0.2489 -0.2668
 5321TIP3    H137598   0.187   4.851   0.749  0.6597 -0.4455 -0.3886
 5321TIP3    H237599   0.257   4.982   0.718 -0.9354  0.4624 -0.2346
 5322TIP3   OH237600   5.025   2.125   3.299 -0.3072 -0.4496 -0.2686
 5322TIP3    H137601   4.943   2.087   3.265 -0.5959  0.0713 -0.1564
 5322TIP3    H237602   5.071   2.156   3.220 -1.7657  2.3583 -0.1268
 5323TIP3   OH237603   3.106   2.057   8.605  0.5432  0.0136 -0.0425
 5323TIP3    H137604   3.159   2.134   8.587 -0.3776  0.3935 -1.2654
 5323TIP3    H237605   3.020   2.092   8.628 -0.3736 -0.6340 -2.2766
 5324TIP3   OH237606   0.420   0.878   2.786  0.3398 -0.0877  0.0269
 5324TIP3    H137607   0.399   0.881   2.879 -0.5742 -1.3761 -0.1158
 5324TIP3    H237608   0.480   0.951   2.773  0.9173 -0.2237  1.7214
 5325TIP3   OH237609   0.404   3.947   1.259 -0.0895  0.0291  0.1844
 5325TIP3    H137610   0.364   3.884   1.319 -0.2039  0.1435  0.2294
 5325TIP3    H237611   0.495   3.919   1.253  0.3367  0.9723  1.7045
 5326TIP3   OH237612   4.526   2.774   8.049 -0.2267  0.1033 -0.1844
 5326TIP3    H137613   4.454   2.825   8.011 -1.4601 -1.2188  0.2563
 5326TIP3    H237614   4.582   2.752   7.975  0.4205  2.1446 -0.3717
 5327TIP3   OH237615   3.012   2.729   6.997  0.3428 -0.0638  0.2705
 5327TIP3    H137616   2.937   2.781   7.027  0.1656 -0.4356  0.4824
 5327TIP3    H237617   2.983   2.638   7.007 -0.1805 -0.2336 -2.1469
 5328TIP3   OH237618   1.448   6.167   8.396 -0.5582 -0.5176  0.2274
 5328TIP3    H137619   1.375   6.106   8.400 -0.2120 -0.8851  1.1435
 5328TIP3    H237620   1.519   6.123   8.441 -0.2379  0.4692  0.7260
 5329TIP3   OH237621   0.146   4.478   1.814 -0.5094  0.1611  0.3406
 5329TIP3    H137622   0.173   4.567   1.837 -0.5726  0.1989  0.2696
 5329TIP3    H237623   0.216   4.446   1.758 -0.4944  0.1728  0.3527
 5330TIP3   OH237624   5.286   0.694   7.162  0.1319 -0.4047  0.0869
 5330TIP3    H137625   5.328   0.681   7.077  2.2342  1.3382  0.7641
 5330TIP3    H237626   5.211   0.750   7.144  0.9927  0.5716 -0.5656
 5331TIP3   OH237627   2.393   0.926   1.977  0.1900 -0.1535  0.4022
 5331TIP3    H137628   2.404   1.021   1.977  0.7034 -0.2102  0.2381
 5331TIP3    H237629   2.435   0.896   1.896  1.4014 -0.6587  1.1864
 5332TIP3   OH237630   5.246   1.974   6.931 -0.3849  0.3657  0.4366
 5332TIP3    H137631   5.198   2.008   6.856  0.0366  0.2916  0.1267
 5332TIP3    H237632   5.334   1.955   6.897 -0.5619 -0.9000  0.6210
 5333TIP3   OH237633   5.214   3.786   1.118 -0.1016  0.3725 -0.0848
 5333TIP3    H137634   5.231   3.766   1.210 -1.2005  1.7865  0.4618
 5333TIP3    H237635   5.299   3.813   1.083  0.6334 -1.5123  0.1012
 5334TIP3   OH237636   3.193   2.603   0.204 -0.1058 -0.0410  0.1829
 5334TIP3    H137637   3.251   2.532   0.233  0.1601 -0.2032 -0.7189
 5334TIP3    H237638   3.250   2.679   0.197  0.2143 -0.4023 -1.5509
 5335TIP3   OH237639   3.509   5.139   7.138 -0.6948  0.0107  0.5869
 5335TIP3    H137640   3.424   5.155   7.179 -0.4683  3.9066 -0.1132
 5335TIP3    H237641   3.488   5.084   7.062 -2.6787  1.1176  0.2579
 5336TIP3   OH237642   5.189   1.252   0.015  0.2025 -0.3615  0.0080
 5336TIP3    H137643   5.122   1.203  -0.034 -0.7256 -1.2289  2.0416
 5336TIP3    H237644   5.141   1.294   0.086  1.7360 -0.4849  1.1653
 5337TIP3   OH237645   1.709   5.508   2.011  0.2536  0.1164  0.3037
 5337TIP3    H137646   1.773   5.453   2.056  1.1068  0.0776 -0.9044
 5337TIP3    H237647   1.721   5.595   2.049  0.5779 -0.0277  0.5365
 5338TIP3   OH237648   3.713   2.949   7.642  0.4415  0.2742 -0.4261
 5338TIP3    H137649   3.650   2.945   7.571  0.5905  0.9415 -0.6034
 5338TIP3    H237650   3.798   2.935   7.601  0.3512 -1.4592 -0.0691
 5339TIP3   OH237651   5.845   1.283   2.531  0.5437 -1.1150  0.1204
 5339TIP3    H137652   5.934   1.309   2.557  0.4828  0.2691 -0.9363
 5339TIP3    H237653   5.793   1.295   2.610  1.0311 -0.4849  0.3607
 5340TIP3   OH237654   4.801   1.473   6.881  0.3009 -0.1573 -0.1301
 5340TIP3    H137655   4.779   1.405   6.817 -0.9397  0.3781 -0.2851
 5340TIP3    H237656   4.729   1.535   6.876  1.0062  0.7401  0.6256
 5341TIP3   OH237657   6.187   4.229   2.818 -0.2680 -0.2360 -0.0983
 5341TIP3    H137658   6.248   4.172   2.864 -0.4916  0.4438  1.0748
 5341TIP3    H237659   6.120   4.169   2.784  0.3390 -0.8363 -0.2599
 5342TIP3   OH237660   2.122   1.873   1.577 -0.1773  0.2849 -0.1919
 5342TIP3    H137661   2.042   1.925   1.567 -1.0591 -1.1678 -1.0621
 5342TIP3    H237662   2.117   1.809   1.507  0.4302 -1.5254  1.3353
 5343TIP3   OH237663   1.886   2.839   8.406 -0.1624 -0.0507 -0.0248
 5343TIP3    H137664   1.979   2.842   8.380 -0.3062 -0.6435 -0.6377
 5343TIP3    H237665   1.842   2.795   8.332 -1.0843  1.0793 -0.1700
 5344TIP3   OH237666   2.339   1.317   2.070 -0.6280  0.5449 -0.4683
 5344TIP3    H137667   2.413   1.349   2.121 -1.0912 -0.0577  0.6323
 5344TIP3    H237668   2.285   1.395   2.055 -0.2328  0.8200 -0.4690
 5345TIP3   OH237669   4.736   1.852   1.085 -0.4748  0.4133  0.6865
 5345TIP3    H137670   4.827   1.879   1.069  0.0407 -1.9967 -1.0714
 5345TIP3    H237671   4.736   1.758   1.069 -2.9649  0.0258  2.3549
 5346TIP3   OH237672   0.450   5.292   1.794 -0.4366  0.3514 -0.3576
 5346TIP3    H137673   0.479   5.233   1.724 -0.7566  0.0927 -0.2738
 5346TIP3    H237674   0.471   5.245   1.874  0.6547  0.9809 -0.2516
 5347TIP3   OH237675   6.696   3.479   8.511  0.7382 -0.1144  0.1754
 5347TIP3    H137676   6.669   3.571   8.505 -3.2655 -1.1491 -1.0799
 5347TIP3    H237677   6.700   3.449   8.420 -0.8449 -1.7902  0.6012
 5348TIP3   OH237678   0.049   5.793   7.587  0.2924  0.3636 -0.2895
 5348TIP3    H137679   0.135   5.831   7.567  0.3952  0.7694  0.8486
 5348TIP3    H237680   0.021   5.838   7.667 -1.5004  1.0615 -1.2468
 5349TIP3   OH237681   4.940   5.850   7.753  0.3702 -1.0568 -0.2454
 5349TIP3    H137682   5.025   5.841   7.796  1.0554 -1.2796 -1.5823
 5349TIP3    H237683   4.959   5.894   7.670 -1.2279  1.4279  0.6167
 5350TIP3   OH237684   0.915   1.316   7.197  0.0693  0.0526  0.0203
 5350TIP3    H137685   0.912   1.257   7.122  0.0571  1.8840 -1.4602
 5350TIP3    H237686   0.997   1.292   7.242  0.5119 -0.5048 -1.0409
 5351TIP3   OH237687   4.741   3.537   0.966  0.0715  0.1819  0.1239
 5351TIP3    H137688   4.688   3.552   1.044  1.0197 -1.0596  1.0461
 5351TIP3    H237689   4.698   3.465   0.921  0.1977  0.0984  0.1368
 5352TIP3   OH237690   2.644   2.042   0.213  1.0446 -0.0367 -0.2068
 5352TIP3    H137691   2.735   2.011   0.208  0.7431 -0.9676 -0.2057
 5352TIP3    H237692   2.610   2.031   0.124  0.6015 -0.7966  0.0427
 5353TIP3   OH237693   2.088   1.681   7.750  0.2427 -0.3926  0.0747
 5353TIP3    H137694   2.124   1.676   7.838  1.1402 -0.7981 -0.3028
 5353TIP3    H237695   2.151   1.733   7.701  0.7164 -1.7245 -0.7748
 5354TIP3   OH237696   2.703   6.673   8.619 -0.2462 -0.7555  0.1087
 5354TIP3    H137697   2.755   6.747   8.652 -0.0620 -1.0220  0.4306
 5354TIP3    H237698   2.621   6.677   8.668  1.1734 -2.9626  3.0223
 5355TIP3   OH237699   6.833   6.156   7.547  0.2761 -0.3240 -0.4372
 5355TIP3    H137700   6.924   6.171   7.575 -0.0668  0.1110  0.4884
 5355TIP3    H237701   6.784   6.226   7.588 -0.9225 -2.1543  1.4350
 5356TIP3   OH237702   3.186   2.125   0.227 -0.3564 -0.0812 -0.6788
 5356TIP3    H137703   3.206   2.056   0.163  0.3419 -0.1286 -0.4156
 5356TIP3    H237704   3.150   2.078   0.302 -0.0906 -0.1404 -0.5871
 5357TIP3   OH237705   3.452   4.949   2.017  0.4879  0.3794 -0.0967
 5357TIP3    H137706   3.375   4.921   1.968  0.7953 -1.8319  0.5480
 5357TIP3    H237707   3.501   4.868   2.033  1.7019  1.3726  1.6162
 5358TIP3   OH237708   1.106   5.421   0.387 -0.4217 -0.0067 -0.7793
 5358TIP3    H137709   1.188   5.371   0.388 -0.8199 -0.6831  0.1942
 5358TIP3    H237710   1.040   5.358   0.358 -0.5929  0.5711 -1.6921
 5359TIP3   OH237711   4.303   5.475   7.848 -0.1572 -0.1177 -0.0889
 5359TIP3    H137712   4.338   5.553   7.891 -1.4910  1.4496 -1.6919
 5359TIP3    H237713   4.381   5.428   7.819  0.6836  0.7860  0.6237
 5360TIP3   OH237714   4.829   5.684   8.178  0.2087  0.2109  0.7847
 5360TIP3    H137715   4.828   5.750   8.248  1.0772  1.2861 -0.1839
 5360TIP3    H237716   4.778   5.723   8.107 -1.1841 -1.1278  0.9965
 5361TIP3   OH237717   4.440   1.760   8.424  0.3572  0.0618 -0.1814
 5361TIP3    H137718   4.354   1.801   8.414 -0.5594 -1.4052  1.2153
 5361TIP3    H237719   4.491   1.824   8.475 -0.1568  0.5875 -0.3170
 5362TIP3   OH237720   2.479   0.011   6.820 -0.1479 -0.1459  0.3342
 5362TIP3    H137721   2.557  -0.044   6.824 -1.3190 -1.8930  0.7914
 5362TIP3    H237722   2.406  -0.052   6.817 -1.5248  1.4063 -0.4445
 5363TIP3   OH237723   6.454   4.710   7.822 -0.4626 -0.1086 -0.2612
 5363TIP3    H137724   6.497   4.752   7.897  1.1194  0.0411 -1.1987
 5363TIP3    H237725   6.501   4.744   7.746 -0.7708 -1.6913 -1.2049
 5364TIP3   OH237726   1.378   5.573   2.318  0.2999  0.0075 -0.5759
 5364TIP3    H137727   1.463   5.587   2.359  1.8594  2.0686 -4.0394
 5364TIP3    H237728   1.317   5.563   2.392  3.0129  1.6825  2.1427
 5365TIP3   OH237729   3.611   2.790   6.843 -0.2741 -0.2946 -0.0241
 5365TIP3    H137730   3.573   2.849   6.778 -1.5019 -1.0938 -0.0728
 5365TIP3    H237731   3.565   2.811   6.924 -0.4254 -0.8751  0.0502
 5366TIP3   OH237732   2.504   6.571   6.984 -0.6688  0.1720  0.1010
 5366TIP3    H137733   2.563   6.504   7.020  0.8841  1.7998  0.6921
 5366TIP3    H237734   2.562   6.633   6.941 -2.1661  0.6706 -1.2700
 5367TIP3   OH237735   6.495   6.517   0.496 -0.1447  0.7278 -0.4315
 5367TIP3    H137736   6.468   6.427   0.478  1.6092 -0.1900  1.2349
 5367TIP3    H237737   6.462   6.567   0.421 -3.6316 -0.7492 -0.1040
 5368TIP3   OH237738   5.136   4.953   8.624  0.0214  0.2336  0.0734
 5368TIP3    H137739   5.091   5.002   8.555 -1.7145 -0.9581  0.3058
 5368TIP3    H237740   5.131   5.010   8.700  0.6042  0.9073 -0.3784
 5369TIP3   OH237741   2.336   6.047   0.235  0.1591  0.7564  0.0046
 5369TIP3    H137742   2.365   6.082   0.151  1.9406  0.1241  0.3195
 5369TIP3    H237743   2.382   5.964   0.243 -0.9350  0.2307  1.0679
 5370TIP3   OH237744   2.996   2.127   7.625  0.0534  0.0692 -0.2083
 5370TIP3    H137745   2.910   2.151   7.590 -0.1855 -0.0604  0.2859
 5370TIP3    H237746   2.977   2.070   7.699  0.5213  0.9800  0.6355
 5371TIP3   OH237747   4.180   5.762   7.321  0.6350 -0.2135  0.5050
 5371TIP3    H137748   4.244   5.794   7.257  1.1323  1.6215  1.8542
 5371TIP3    H237749   4.100   5.748   7.270  1.6471 -1.0786 -0.9322
 5372TIP3   OH237750   4.456   5.244   0.923 -1.0662  0.1933 -0.5403
 5372TIP3    H137751   4.402   5.323   0.923 -0.7701  0.4039 -1.3354
 5372TIP3    H237752   4.478   5.231   1.015 -0.2598  1.6412 -0.4937
 5373TIP3   OH237753   2.867   1.724   1.153 -0.2313  0.0858 -0.0061
 5373TIP3    H137754   2.948   1.682   1.126 -0.8181 -0.7968 -0.4570
 5373TIP3    H237755   2.882   1.749   1.244  0.3197 -0.6472  0.1079
 5374TIP3   OH237756   5.668   4.074   8.299  0.1712  0.0370 -0.0990
 5374TIP3    H137757   5.721   4.153   8.315  0.7425 -0.4065  0.2278
 5374TIP3    H237758   5.733   4.006   8.280 -0.2954 -0.5020  0.2439
 5375TIP3   OH237759   6.541   1.514   1.697 -0.2168  0.3861  0.0261
 5375TIP3    H137760   6.580   1.431   1.725  0.0471 -0.1298 -1.7150
 5375TIP3    H237761   6.602   1.581   1.728  0.0893 -0.1358  0.5889
 5376TIP3   OH237762   6.335   1.888   8.716 -0.1586 -0.0374  0.3297
 5376TIP3    H137763   6.337   1.828   8.791 -3.2588 -0.6281  0.0849
 5376TIP3    H237764   6.249   1.873   8.676  0.6124  1.6632 -2.2090
 5377TIP3   OH237765   5.608   2.096   7.887 -0.4496  0.3834 -0.7369
 5377TIP3    H137766   5.548   2.150   7.938 -1.2395  0.0973 -1.3551
 5377TIP3    H237767   5.695   2.119   7.922 -0.8315  1.4464 -0.4346
 5378TIP3   OH237768   3.914   1.294   0.340  0.1793  0.1722 -0.6645
 5378TIP3    H137769   3.971   1.334   0.406  0.1404  0.4758 -0.8131
 5378TIP3    H237770   3.842   1.357   0.329  0.7797  0.6884 -1.8448
 5379TIP3   OH237771   4.363   2.129   8.469  0.4789 -0.2864  0.0707
 5379TIP3    H137772   4.430   2.071   8.434  0.3552 -0.1656 -0.3784
 5379TIP3    H237773   4.351   2.195   8.401  1.3358  0.8560  0.9782
 5380TIP3   OH237774   1.392   4.663   0.917  0.1099  0.2633 -0.6318
 5380TIP3    H137775   1.338   4.685   0.994  0.0072 -0.3444 -0.5286
 5380TIP3    H237776   1.467   4.616   0.953  1.6889  2.6718 -0.5659
 5381TIP3   OH237777   1.841   3.087   2.873  0.4884 -0.4574 -0.0806
 5381TIP3    H137778   1.852   3.116   2.964  0.5238 -0.5563 -0.0527
 5381TIP3    H237779   1.754   3.046   2.872  1.2569 -2.1984  0.3832
 5382TIP3   OH237780   5.175   1.306   2.970 -0.5650  0.4414  0.1750
 5382TIP3    H137781   5.233   1.304   3.046  0.6937 -0.3432 -0.7632
 5382TIP3    H237782   5.177   1.216   2.936  0.0204  1.0755 -1.5802
 5383TIP3   OH237783   4.227   5.241   7.200  0.2716 -0.3600  0.0629
 5383TIP3    H137784   4.219   5.200   7.114 -1.1173 -2.7601  1.2553
 5383TIP3    H237785   4.179   5.324   7.191  0.1793 -0.5481 -1.4465
 5384TIP3   OH237786   6.037   2.322   7.629 -0.4044 -0.6042  0.0607
 5384TIP3    H137787   6.106   2.384   7.602  0.2136  0.0933  2.9140
 5384TIP3    H237788   6.058   2.300   7.720 -3.8265 -0.5342  1.0202
 5385TIP3   OH237789   5.587   0.500   7.544 -0.1009  0.3123  0.2483
 5385TIP3    H137790   5.559   0.532   7.459 -1.2120  0.1939  0.5545
 5385TIP3    H237791   5.506   0.492   7.595  0.4696 -0.2210  1.1075
 5386TIP3   OH237792   1.148   6.031   2.088 -0.3867 -0.2342  0.4704
 5386TIP3    H137793   1.180   6.007   2.000  2.2897  2.1528  0.6420
 5386TIP3    H237794   1.066   6.078   2.072 -0.8405 -1.3324 -0.5699
 5387TIP3   OH237795   4.545   6.432   1.021 -0.0684 -0.7059  0.4237
 5387TIP3    H137796   4.618   6.485   1.053 -2.1812  4.5858 -2.3229
 5387TIP3    H237797   4.582   6.379   0.951  1.3816  1.0734 -0.2102
 5388TIP3   OH237798   3.302   6.747   1.792 -0.0135  0.4317 -0.2335
 5388TIP3    H137799   3.377   6.793   1.752 -1.0129  1.2175 -1.2582
 5388TIP3    H237800   3.340   6.702   1.868  1.8028 -0.4293 -1.5617
 5389TIP3   OH237801   0.658   6.009   1.304 -0.2724  0.3082  0.0883
 5389TIP3    H137802   0.639   5.934   1.247 -1.0736 -0.9255  1.8798
 5389TIP3    H237803   0.584   6.068   1.290 -1.4054 -0.8174  1.1406
 5390TIP3   OH237804   3.050   1.739   0.009  0.0140  0.1432 -0.1075
 5390TIP3    H137805   3.050   1.768   0.101 -0.2949 -0.3007  0.0369
 5390TIP3    H237806   2.959   1.712  -0.007  0.2889 -0.7211 -0.2391
 5391TIP3   OH237807   0.035   1.682   2.576 -0.4074  0.4470  0.1735
 5391TIP3    H137808   0.038   1.751   2.643  0.4587  0.0654  0.5423
 5391TIP3    H237809   0.112   1.699   2.522 -0.0085 -0.4252  0.4606
 5392TIP3   OH237810   1.552   5.103   1.890 -0.3942  0.0164  0.3814
 5392TIP3    H137811   1.507   5.172   1.841 -1.7492 -0.9001  0.2641
 5392TIP3    H237812   1.534   5.023   1.840 -0.9737 -0.7926  1.8125
 5393TIP3   OH237813   4.173   2.084   6.608  0.0986 -0.1588  0.4741
 5393TIP3    H137814   4.133   2.095   6.694 -0.0716 -0.9479  0.5076
 5393TIP3    H237815   4.234   2.157   6.599 -1.0980  0.8805  0.5628
 5394TIP3   OH237816   1.216   0.451   8.459 -0.2586  0.5147 -0.0722
 5394TIP3    H137817   1.245   0.543   8.456 -0.0768  0.6549  3.0524
 5394TIP3    H237818   1.281   0.404   8.407  1.0593  1.8664  0.2889
 5395TIP3   OH237819   4.938   1.551   7.319  0.3591 -0.0752  0.3913
 5395TIP3    H137820   4.958   1.491   7.247 -0.1818  1.1332 -0.8009
 5395TIP3    H237821   5.022   1.592   7.340  0.7222 -1.1669  1.1769
 5396TIP3   OH237822   1.874   6.270   1.314  0.0872  0.2931 -0.8220
 5396TIP3    H137823   1.866   6.304   1.403  1.3227  3.3412 -1.7381
 5396TIP3    H237824   1.788   6.287   1.275  0.1892  0.9000 -0.7931
 5397TIP3   OH237825   3.914   6.177   1.885  0.0328 -0.3814 -0.2544
 5397TIP3    H137826   3.964   6.247   1.926 -0.8126  0.0470  0.0721
 5397TIP3    H237827   3.980   6.120   1.847  0.7400  0.5779 -0.5098
 5398TIP3   OH237828   4.577   6.309   8.552  0.2591 -0.9301  0.5602
 5398TIP3    H137829   4.595   6.232   8.607  2.0119 -1.1815 -0.2934
 5398TIP3    H237830   4.645   6.372   8.575 -1.6226  0.7648  1.8345
 5399TIP3   OH237831   1.779   5.501   1.546  0.3757  0.3288 -0.1084
 5399TIP3    H137832   1.765   5.596   1.551  1.4674  0.4848  0.3217
 5399TIP3    H237833   1.784   5.483   1.453 -2.9475  0.1632 -0.3738
 5400TIP3   OH237834   5.939   5.532   0.496 -0.4623 -0.5552  0.3119
 5400TIP3    H137835   5.873   5.482   0.448 -1.2384  0.6966  0.0033
 5400TIP3    H237836   5.933   5.500   0.586 -2.1717  0.1499  0.4926
 5401TIP3   OH237837   6.078   2.446   1.923  0.5638  0.6156 -0.6675
 5401TIP3    H137838   6.154   2.504   1.926  0.4313  0.7964 -0.7973
 5401TIP3    H237839   6.013   2.489   1.980  0.7969  0.1193 -0.0152
 5402TIP3   OH237840   3.668   0.078   1.598  0.7592 -0.7288 -0.0076
 5402TIP3    H137841   3.619   0.136   1.655  1.0119 -0.0071 -0.5142
 5402TIP3    H237842   3.641   0.103   1.509  1.2703 -1.0200 -0.2475
 5403TIP3   OH237843   4.964   2.100   7.693  0.1771 -0.0104  0.1940
 5403TIP3    H137844   4.964   2.037   7.621  0.3176 -0.6659  0.7492
 5403TIP3    H237845   4.915   2.175   7.660  2.1465  0.6642 -1.3741
 5404TIP3   OH237846   2.635   0.373   8.064  0.2910  0.1393 -0.2168
 5404TIP3    H137847   2.693   0.443   8.095  0.2494 -0.4805  1.3075
 5404TIP3    H237848   2.691   0.296   8.061  0.2128  0.1138 -1.4316
 5405TIP3   OH237849   5.305   5.554   2.483  0.0841 -0.1784 -0.3893
 5405TIP3    H137850   5.313   5.642   2.446  1.5306  0.0033  0.2954
 5405TIP3    H237851   5.301   5.568   2.578 -1.7924 -0.7493 -0.3425
 5406TIP3   OH237852   1.717   0.211   0.867 -0.5075 -0.0549 -0.3075
 5406TIP3    H137853   1.785   0.269   0.902 -1.2530 -0.5848  2.2405
 5406TIP3    H237854   1.647   0.270   0.839  0.0492  0.3940 -0.7716
 5407TIP3   OH237855   6.815   3.954   7.300 -0.1723 -0.4365 -0.4882
 5407TIP3    H137856   6.861   3.947   7.216  0.2836  0.2094 -0.2892
 5407TIP3    H237857   6.746   4.018   7.284  0.0082 -0.2031 -0.3223
 5408TIP3   OH237858   2.641   0.468   7.441 -0.0015  0.6823  0.0730
 5408TIP3    H137859   2.598   0.512   7.514  3.0275  0.6304  2.0295
 5408TIP3    H237860   2.708   0.529   7.411  2.2646 -1.2519  0.8536
 5409TIP3   OH237861   3.359   4.501   8.593  0.4428 -0.1228 -0.9257
 5409TIP3    H137862   3.310   4.549   8.527 -1.1207 -0.6001 -0.1530
 5409TIP3    H237863   3.360   4.411   8.561 -0.3463 -0.3609 -0.2954
 5410TIP3   OH237864   5.420   4.634   1.816 -0.3475  0.4674 -0.7776
 5410TIP3    H137865   5.425   4.540   1.800 -1.8607  0.4245 -1.1881
 5410TIP3    H237866   5.459   4.647   1.903  0.9560 -0.3522 -1.2112
 5411TIP3   OH237867   5.999   2.644   1.276 -0.2433  0.3222  0.1233
 5411TIP3    H137868   5.914   2.648   1.233 -0.9053  0.4469  1.4049
 5411TIP3    H237869   5.979   2.645   1.370  1.1783  0.5310  0.4467
 5412TIP3   OH237870   0.227   6.850   8.344  0.0953  0.2593  0.3064
 5412TIP3    H137871   0.255   6.941   8.335 -1.5328  0.7969  0.1964
 5412TIP3    H237872   0.301   6.798   8.314  1.3965  1.5156  1.2276
 5413TIP3   OH237873   1.557   5.585   0.970  0.4706  0.0345 -0.2110
 5413TIP3    H137874   1.565   5.669   0.926  1.2928 -0.4169 -0.9702
 5413TIP3    H237875   1.611   5.593   1.049 -0.4944  0.6387  0.3950
 5414TIP3   OH237876   0.899   4.596   1.832 -0.2018 -0.1000  0.4141
 5414TIP3    H137877   0.859   4.568   1.750 -0.8298  1.3256  0.2083
 5414TIP3    H237878   0.897   4.692   1.829 -1.7733  0.0452  2.7908
 5415TIP3   OH237879   6.416   0.286   1.679  0.0364  0.1839 -0.4214
 5415TIP3    H137880   6.481   0.356   1.670 -0.2252  0.4371 -0.3686
 5415TIP3    H237881   6.344   0.313   1.621 -0.3336  0.2776  0.0783
 5416TIP3   OH237882   2.849   3.316   2.740 -0.1546  0.7806  0.7475
 5416TIP3    H137883   2.932   3.278   2.766  0.4368  1.0793 -0.6548
 5416TIP3    H237884   2.822   3.367   2.817  0.8213  0.4811  1.3084
 5417TIP3   OH237885   1.026   5.532   0.741 -0.2615 -0.1987 -0.7310
 5417TIP3    H137886   1.043   5.533   0.835 -0.4128  1.1513 -0.6987
 5417TIP3    H237887   0.935   5.504   0.733 -0.0416 -0.9809 -0.5221
 5418TIP3   OH237888   1.787   5.797   8.053 -0.5577  0.3735  0.3787
 5418TIP3    H137889   1.807   5.722   7.997 -1.6470  0.1226  0.3043
 5418TIP3    H237890   1.737   5.856   7.997 -0.0907  0.9649  0.5681
 5419TIP3   OH237891   5.952   2.431   0.126  0.0626 -0.1567  0.7505
 5419TIP3    H137892   5.937   2.337   0.110 -0.7433 -0.0042  0.5404
 5419TIP3    H237893   6.011   2.458   0.056  0.0004 -0.4333  0.5894
 5420TIP3   OH237894   6.310   1.425   8.833 -0.3085  0.5947 -0.5655
 5420TIP3    H137895   6.385   1.382   8.875 -0.0019  0.9805 -0.7111
 5420TIP3    H237896   6.253   1.353   8.805 -0.3367  0.3182  0.1785
 5421TIP3   OH237897   0.294   1.535   3.182  0.4191  0.2609  0.3647
 5421TIP3    H137898   0.347   1.578   3.114  0.0019  1.8382  1.0035
 5421TIP3    H237899   0.208   1.576   3.174 -0.1121 -0.7602  0.7484
 5422TIP3   OH237900   0.363   2.112   1.165  0.2404  0.0703 -0.7876
 5422TIP3    H137901   0.401   2.192   1.202 -0.0420 -0.1927  0.0980
 5422TIP3    H237902   0.438   2.057   1.147  0.5044  0.8563 -2.2173
 5423TIP3   OH237903   5.747   3.845   1.455 -0.0458 -0.4400 -0.0473
 5423TIP3    H137904   5.717   3.841   1.546  0.7776 -1.1420  0.2121
 5423TIP3    H237905   5.667   3.849   1.403 -0.5222  1.8251  0.7599
 5424TIP3   OH237906   6.338   4.410   0.634 -0.0051 -0.1293  0.0745
 5424TIP3    H137907   6.387   4.330   0.652 -2.1360 -1.9858 -1.7091
 5424TIP3    H237908   6.246   4.385   0.644 -0.7669  1.9436 -1.0801
 5425TIP3   OH237909   6.312   1.916   7.553 -0.1088 -0.1332 -0.2137
 5425TIP3    H137910   6.345   1.828   7.567  1.4771  0.2940 -1.0335
 5425TIP3    H237911   6.239   1.925   7.615 -0.0256 -1.8523  0.1633
 5426TIP3   OH237912   6.419   4.526   7.397 -1.0271  0.1530  0.8115
 5426TIP3    H137913   6.504   4.503   7.435  0.2557  0.5232 -1.6333
 5426TIP3    H237914   6.397   4.452   7.341 -0.1120  1.8643 -1.9569
 5427TIP3   OH237915   0.475   2.001   8.079 -0.6700 -0.0071 -0.1292
 5427TIP3    H137916   0.494   1.959   7.995  1.6486 -0.8636  0.7472
 5427TIP3    H237917   0.557   1.997   8.127 -2.1273 -0.2868  2.5309
 5428TIP3   OH237918   4.926   0.148   0.015  0.6603 -0.1889 -0.4810
 5428TIP3    H137919   4.849   0.188  -0.025  0.6776 -1.3991 -1.8048
 5428TIP3    H237920   4.939   0.197   0.097 -1.2759  0.2883 -0.4099
 5429TIP3   OH237921   6.589   0.436   8.689 -0.9368  0.8078 -0.1976
 5429TIP3    H137922   6.580   0.341   8.676 -1.4795  0.9061 -0.6017
 5429TIP3    H237923   6.522   0.474   8.632  0.4300  1.5138 -1.4171
 5430TIP3   OH237924   6.692   4.011   1.911 -0.8380  0.1096 -0.2845
 5430TIP3    H137925   6.687   3.951   1.985  0.4084 -1.1869 -1.2032
 5430TIP3    H237926   6.612   3.996   1.861  0.0130 -1.7843 -1.1867
 5431TIP3   OH237927   1.789   2.522   1.981  0.6222 -0.8701  0.2164
 5431TIP3    H137928   1.741   2.505   2.061  2.0361 -0.9435  1.0892
 5431TIP3    H237929   1.814   2.614   1.987  0.4830 -0.7969 -0.2846
 5432TIP3   OH237930   1.016   2.589   6.175 -0.5911 -0.4147 -0.2323
 5432TIP3    H137931   1.006   2.623   6.086  2.6198 -1.0904 -0.9489
 5432TIP3    H237932   0.943   2.528   6.185 -0.8473 -0.5726 -2.5334
 5433TIP3   OH237933   3.716   6.492   2.168  0.1741 -0.6923 -0.6068
 5433TIP3    H137934   3.804   6.491   2.204  0.6058 -1.7249 -1.6392
 5433TIP3    H237935   3.723   6.541   2.086 -0.2322 -0.6688 -0.6329
 5434TIP3   OH237936   3.638   3.560   0.961  0.6969 -0.1666  0.3407
 5434TIP3    H137937   3.570   3.582   0.898  1.2244  0.9133  0.1252
 5434TIP3    H237938   3.719   3.594   0.922  1.0997  0.0783  1.3540
 5435TIP3   OH237939   0.687   2.945   8.545 -0.2205 -0.3440 -0.0032
 5435TIP3    H137940   0.641   2.917   8.624 -0.7901 -0.1908 -0.2742
 5435TIP3    H237941   0.661   3.036   8.533  2.3882  0.7267  1.4381
 5436TIP3   OH237942   0.923   2.580   8.378  0.0672  0.3830  0.0322
 5436TIP3    H137943   0.928   2.581   8.474 -0.6993 -0.1210  0.0889
 5436TIP3    H237944   1.007   2.544   8.350  1.2441  2.6610  0.4029
 5437TIP3   OH237945   6.194   0.562   1.613  0.3775 -0.2682 -0.3756
 5437TIP3    H137946   6.220   0.584   1.703 -0.7644 -1.5751  0.3166
 5437TIP3    H237947   6.140   0.636   1.585  0.5281  0.0377  0.1268
 5438TIP3   OH237948   2.419   0.170   7.886 -0.0099 -0.7345  0.0104
 5438TIP3    H137949   2.499   0.117   7.875 -0.2162 -1.3006  1.1155
 5438TIP3    H237950   2.416   0.190   7.979  0.3737  1.7903 -0.4539
 5439TIP3   OH237951   4.736   1.959   6.972 -0.6587  0.3571  0.2796
 5439TIP3    H137952   4.797   2.024   7.007 -0.4523 -0.1733  0.9432
 5439TIP3    H237953   4.649   1.992   6.995 -0.6115  0.9752 -0.4154
 5440TIP3   OH237954   3.272   6.647   7.206 -0.2029  0.1615 -0.3041
 5440TIP3    H137955   3.186   6.663   7.168 -0.2165 -0.8656 -0.7376
 5440TIP3    H237956   3.325   6.613   7.134  0.9846  2.0215 -0.3815
 5441TIP3   OH237957   2.487   5.988   7.363  0.5635  0.4622 -0.3882
 5441TIP3    H137958   2.486   5.951   7.451  0.3213  2.2946  0.4310
 5441TIP3    H237959   2.443   5.923   7.308 -2.0392  0.5645  1.4243
 5442TIP3   OH237960   2.638   2.903   8.192  0.1058  0.5266 -0.0332
 5442TIP3    H137961   2.586   2.904   8.112 -0.1552  1.4957  0.1380
 5442TIP3    H237962   2.708   2.840   8.174  0.5659  1.3775 -1.3488
 5443TIP3   OH237963   5.143   2.969   2.406  0.2701  0.5290  0.1036
 5443TIP3    H137964   5.113   2.958   2.316  1.6240 -0.2601 -0.2776
 5443TIP3    H237965   5.083   2.917   2.458  0.5564 -0.4967 -0.5695
 5444TIP3   OH237966   3.142   3.008   0.689 -0.1157 -0.3877  0.0176
 5444TIP3    H137967   3.109   3.098   0.692  0.6173 -0.1276  0.5273
 5444TIP3    H237968   3.075   2.957   0.736  0.4027  0.2081  1.4833
 5445TIP3   OH237969   6.426   5.279   0.152 -0.0847 -0.0624  0.2481
 5445TIP3    H137970   6.509   5.286   0.199  0.0579  0.2932 -0.0437
 5445TIP3    H237971   6.449   5.299   0.061  0.0868 -3.1452 -0.4664
 5446TIP3   OH237972   5.271   1.329   7.784  0.1205 -0.0057 -0.6716
 5446TIP3    H137973   5.203   1.345   7.849  1.1320  0.5832  0.2899
 5446TIP3    H237974   5.227   1.337   7.700 -0.6153  2.3820 -0.1261
 5447TIP3   OH237975   4.883   4.298   8.197 -0.3881  0.1500  0.2346
 5447TIP3    H137976   4.907   4.261   8.112 -0.0736  0.4047  0.2109
 5447TIP3    H237977   4.949   4.264   8.258 -0.3740  0.2927  0.3000
 5448TIP3   OH237978   6.524   1.973   3.117 -0.4803  0.2266 -0.3003
 5448TIP3    H137979   6.530   2.006   3.206  0.0813 -1.9779  0.5572
 5448TIP3    H237980   6.592   1.905   3.112 -2.1268 -1.4248 -1.5910
 5449TIP3   OH237981   0.128   0.759   0.121 -0.7154  0.0371 -0.1255
 5449TIP3    H137982   0.133   0.669   0.153  0.2252  0.0055 -0.3436
 5449TIP3    H237983   0.214   0.776   0.082 -0.3326  1.5588  1.2914
 5450TIP3   OH237984   1.485   3.090   2.468 -0.4565  0.2429  0.0878
 5450TIP3    H137985   1.445   3.107   2.382  0.8908 -0.2898 -0.6754
 5450TIP3    H237986   1.449   3.158   2.525 -0.8579  1.0289 -1.0640
 5451TIP3   OH237987   5.621   1.690   0.021  0.5987 -1.2026  0.0504
 5451TIP3    H137988   5.678   1.724  -0.048  0.8125 -0.2368  0.6940
 5451TIP3    H237989   5.619   1.595   0.005 -0.9113 -0.8271 -2.4459
 5452TIP3   OH237990   1.270   1.130   8.117  0.2005  0.1914  0.2709
 5452TIP3    H137991   1.221   1.049   8.131 -2.3992  1.5659 -0.2314
 5452TIP3    H237992   1.334   1.107   8.049 -0.1463 -1.5382  0.4686
 5453TIP3   OH237993   4.668   0.346   1.554  0.2345 -0.1428 -0.7297
 5453TIP3    H137994   4.629   0.265   1.587 -0.0076 -0.1248 -0.9659
 5453TIP3    H237995   4.602   0.381   1.494  1.5215 -1.2784 -2.9361
 5454TIP3   OH237996   6.504   2.792   2.108 -0.1446 -0.1720 -0.5793
 5454TIP3    H137997   6.517   2.780   2.202 -0.6568 -0.2232 -0.5127
 5454TIP3    H237998   6.437   2.860   2.101 -0.0885 -0.1458 -0.9119
 5455TIP3   OH237999   0.380   3.857   7.912  0.1908 -0.0837  0.4284
 5455TIP3    H138000   0.362   3.943   7.874  1.6601  1.2158  2.4629
 5455TIP3    H238001   0.475   3.855   7.923  0.1212 -1.7102  0.9938
 5456TIP3   OH238002   5.060   1.488   8.069  0.3221  0.3928 -0.7142
 5456TIP3    H138003   5.142   1.510   8.112 -0.3540  1.3875  0.1149
 5456TIP3    H238004   5.046   1.559   8.007 -0.9116  1.3542  0.6050
 5457TIP3   OH238005   5.333   0.654   2.586 -0.1475 -0.8425 -0.5498
 5457TIP3    H138006   5.287   0.590   2.640 -1.4220 -0.5281 -1.2216
 5457TIP3    H238007   5.337   0.733   2.639 -1.5123 -0.4933 -0.9241
 5458TIP3   OH238008   6.563   1.513   2.400  0.4233 -0.5350 -0.0625
 5458TIP3    H138009   6.555   1.608   2.410 -2.1023 -0.3780 -2.4724
 5458TIP3    H238010   6.607   1.501   2.316 -0.1962 -1.4903 -0.2644
 5459TIP3   OH238011   5.853   3.560   2.202 -0.6314  0.2592  0.1577
 5459TIP3    H138012   5.897   3.552   2.117 -0.8804 -0.7960  0.1141
 5459TIP3    H238013   5.760   3.559   2.180 -0.7043 -0.4686  0.4686
 5460TIP3   OH238014   1.777   5.782   1.428  0.7660 -0.0922 -0.0646
 5460TIP3    H138015   1.799   5.769   1.336 -1.5662  2.4343 -1.1241
 5460TIP3    H238016   1.852   5.829   1.465  0.8908  0.6435 -1.2269
 5461TIP3   OH238017   2.493   2.700   1.693 -0.1441  0.2008 -0.2843
 5461TIP3    H138018   2.563   2.756   1.659  1.3367 -0.6647  1.1895
 5461TIP3    H238019   2.534   2.614   1.703 -1.7075 -0.5763 -0.2630
 5462TIP3   OH238020   6.629   5.353   7.527 -0.3487 -0.8319 -0.0690
 5462TIP3    H138021   6.653   5.440   7.558  1.7390 -1.3667 -0.0336
 5462TIP3    H238022   6.536   5.360   7.506 -0.3849  1.2109  0.5447
 5463TIP3   OH238023   4.926   5.077   6.819  0.1838  0.0468  0.0170
 5463TIP3    H138024   4.865   5.046   6.886  0.0201 -0.5117 -0.3855
 5463TIP3    H238025   4.870   5.104   6.746  0.4224 -0.5218 -0.3755
 5464TIP3   OH238026   4.914   5.547   8.533  0.1264 -0.2864  0.5876
 5464TIP3    H138027   4.951   5.459   8.528  0.3683 -0.1846  0.5799
 5464TIP3    H238028   4.989   5.606   8.523 -0.2691 -0.0461 -1.5832
 5465TIP3   OH238029   6.321   3.594   1.442  1.0211  0.5552  0.6940
 5465TIP3    H138030   6.363   3.535   1.504  1.0991  1.5009  1.5627
 5465TIP3    H238031   6.342   3.682   1.474  1.6659  1.0934 -1.0652
 5466TIP3   OH238032   2.512   3.396   8.613 -0.3117  0.5657  0.2121
 5466TIP3    H138033   2.590   3.441   8.647  0.6338 -1.3064  0.6474
 5466TIP3    H238034   2.442   3.425   8.671  0.4815  0.6437  1.1752
 5467TIP3   OH238035   2.197   2.400   7.191 -0.0065  0.1236 -0.2022
 5467TIP3    H138036   2.106   2.420   7.209 -0.0660 -0.4650  0.1507
 5467TIP3    H238037   2.200   2.385   7.096 -0.5319 -1.1408 -0.0364
 5468TIP3   OH238038   1.964   1.935   0.039 -0.5373 -0.4315 -0.0598
 5468TIP3    H138039   1.896   1.953  -0.025 -1.0112 -1.2462  0.1955
 5468TIP3    H238040   2.041   1.914  -0.013 -0.3473  0.9333 -0.3526
 5469TIP3   OH238041   5.247   6.537   1.855 -0.0346  0.3415  0.7151
 5469TIP3    H138042   5.160   6.567   1.882 -0.2095 -0.2399  0.8194
 5469TIP3    H238043   5.285   6.499   1.934 -1.2417 -2.9788 -0.1613
 5470TIP3   OH238044   3.788   3.226   0.895  0.6680  0.0476  0.8733
 5470TIP3    H138045   3.737   3.156   0.853  0.1925 -0.3935  2.1151
 5470TIP3    H238046   3.843   3.261   0.826 -1.6196  0.8405 -0.6862
 5471TIP3   OH238047   6.044   1.981   1.268  0.9825  0.2584  0.4338
 5471TIP3    H138048   5.961   1.987   1.221  2.1544  0.7492 -1.7271
 5471TIP3    H238049   6.061   1.887   1.276  0.9760  0.1559 -0.6020
 5472TIP3   OH238050   4.091   6.683   7.288  0.6937 -0.0045  0.8084
 5472TIP3    H138051   4.184   6.661   7.292  0.6110 -1.0881 -1.4604
 5472TIP3    H238052   4.088   6.770   7.247  0.7085  0.3146  1.4703
 5473TIP3   OH238053   5.364   2.241   2.760 -0.5261 -0.3143 -0.0886
 5473TIP3    H138054   5.274   2.238   2.727 -0.5912 -0.5680  0.1107
 5473TIP3    H238055   5.360   2.300   2.835  0.0156  1.9543 -1.7148
 5474TIP3   OH238056   4.246   4.889   2.119 -0.3234  0.4850 -0.0655
 5474TIP3    H138057   4.243   4.924   2.031  1.4903 -0.4875 -0.5810
 5474TIP3    H238058   4.266   4.796   2.107  2.3063  0.7715  1.3508
 5475TIP3   OH238059   0.453   2.336   2.190 -0.1197 -0.3544 -0.7284
 5475TIP3    H138060   0.465   2.428   2.210 -0.3209 -0.1602 -1.4629
 5475TIP3    H238061   0.417   2.298   2.270 -0.0729  0.2090 -0.4392
 5476TIP3   OH238062   4.039   1.139   2.298  0.4585 -0.4933  0.2567
 5476TIP3    H138063   4.067   1.121   2.388  1.2564  0.6621  0.2539
 5476TIP3    H238064   4.102   1.203   2.266 -0.0890 -0.5589 -0.9852
 5477TIP3   OH238065   5.068   4.587   2.426  0.1198 -0.3083 -0.4369
 5477TIP3    H138066   5.061   4.623   2.515  0.2460  0.4107 -0.7120
 5477TIP3    H238067   5.091   4.495   2.440 -0.7207 -0.4352  0.2928
 5478TIP3   OH238068   2.896   6.435   1.247  0.4647  0.1435 -0.2756
 5478TIP3    H138069   2.866   6.518   1.212  0.7576 -0.0309 -0.9528
 5478TIP3    H238070   2.989   6.430   1.222 -0.2654 -1.8239 -3.1448
 5479TIP3   OH238071   4.266   0.780   8.756 -0.2804  0.2984  0.8103
 5479TIP3    H138072   4.224   0.866   8.755 -2.3783 -0.5936 -1.8013
 5479TIP3    H238073   4.349   0.794   8.709 -1.5181  0.6017 -1.4188
 5480TIP3   OH238074   0.052   2.732   2.295 -0.5030 -0.4221  0.6300
 5480TIP3    H138075  -0.004   2.771   2.228 -1.1245 -0.2857  1.2249
 5480TIP3    H238076   0.092   2.807   2.340  1.2022 -0.5109 -0.6275
 5481TIP3   OH238077   3.164   1.979   7.477  0.4481  0.3528  0.0117
 5481TIP3    H138078   3.099   2.016   7.536 -0.3547 -1.0563  0.0511
 5481TIP3    H238079   3.115   1.917   7.422  1.1234  1.7102 -2.2616
 5482TIP3   OH238080   5.020   1.629   1.196  0.8058 -0.6442  0.3754
 5482TIP3    H138081   5.080   1.627   1.271  1.2934  1.3100  0.0830
 5482TIP3    H238082   4.936   1.600   1.232  0.9939  0.4198  1.7544
 5483TIP3   OH238083   1.849   6.404   2.174  0.2854  0.0064 -0.1684
 5483TIP3    H138084   1.798   6.397   2.255  0.6400 -1.5584 -0.0656
 5483TIP3    H238085   1.823   6.328   2.123  0.7925  0.4670 -1.1241
 5484TIP3   OH238086   2.254   2.442   8.696  0.3575 -0.0480  0.0449
 5484TIP3    H138087   2.173   2.456   8.745  0.1756 -0.9100  0.0183
 5484TIP3    H238088   2.226   2.392   8.619  0.8851 -0.1930 -0.0549
 5485TIP3   OH238089   2.555   4.286   1.456  0.1814 -0.7570 -0.2027
 5485TIP3    H138090   2.567   4.381   1.463  1.3990 -1.0024  1.9747
 5485TIP3    H238091   2.485   4.266   1.517  0.6851 -1.3811  0.1767
 5486TIP3   OH238092   1.488   6.566   0.830  0.2519  0.0601 -0.2470
 5486TIP3    H138093   1.569   6.612   0.852  0.6468 -0.0236 -1.4655
 5486TIP3    H238094   1.514   6.474   0.823 -0.1468 -0.0976  0.3076
 5487TIP3   OH238095   1.707   2.628   8.647 -0.5159  0.1832 -0.0704
 5487TIP3    H138096   1.657   2.563   8.696 -0.3257  0.0375 -0.0687
 5487TIP3    H238097   1.797   2.617   8.677 -0.3813  0.0230 -0.5244
 5488TIP3   OH238098   3.166   4.004   1.806  0.0836  0.1556  0.2481
 5488TIP3    H138099   3.171   4.083   1.859  0.8272 -0.8042  1.6903
 5488TIP3    H238100   3.098   3.951   1.849 -0.4281  0.0157 -0.7175
 5489TIP3   OH238101   3.865   5.192   0.051 -0.5932  0.5375 -0.6669
 5489TIP3    H138102   3.958   5.204   0.073 -0.8288  1.5542 -0.1655
 5489TIP3    H238103   3.862   5.206  -0.044  0.2139 -2.5565 -1.2853
 5490TIP3   OH238104   2.398   3.385   7.146 -0.1945  0.1008 -0.0194
 5490TIP3    H138105   2.338   3.376   7.072  2.3489 -0.3538 -2.1955
 5490TIP3    H238106   2.429   3.296   7.163  1.6628  0.5647 -0.6603
 5491TIP3   OH238107   1.592   3.986   7.717 -0.2389  0.0384  0.3538
 5491TIP3    H138108   1.553   4.063   7.676 -1.2948 -0.6335  0.0456
 5491TIP3    H238109   1.575   3.997   7.810  0.2102  0.5075  0.3795
 5492TIP3   OH238110   2.971   5.976   0.635 -0.5475 -0.4345 -0.1974
 5492TIP3    H138111   2.961   6.057   0.686  0.4117 -0.7882  0.5845
 5492TIP3    H238112   3.064   5.970   0.617 -0.8956 -0.1529 -2.3414
 5493TIP3   OH238113   4.300   2.932   1.704  0.0010  0.6080 -0.6547
 5493TIP3    H138114   4.302   3.022   1.737  0.6118  0.2677  0.2442
 5493TIP3    H238115   4.309   2.942   1.609  1.2041  1.4496 -0.4792
 5494TIP3   OH238116   6.837   4.330   7.757 -0.3201  0.6197  0.6289
 5494TIP3    H138117   6.885   4.315   7.676 -0.3524  0.7498  0.5862
 5494TIP3    H238118   6.849   4.423   7.776  0.5112  0.3892  1.3048
 5495TIP3   OH238119   1.341   3.549   8.595 -0.5599  0.4338 -0.0885
 5495TIP3    H138120   1.323   3.537   8.688 -0.6805 -1.2878 -0.3086
 5495TIP3    H238121   1.277   3.493   8.551 -0.1903  0.8549 -1.1994
 5496TIP3   OH238122   2.057   5.184   1.119  0.2631  0.4309  0.1209
 5496TIP3    H138123   2.024   5.148   1.201 -0.5145  0.9430  0.0450
 5496TIP3    H238124   2.032   5.276   1.121  0.6570  0.5602 -0.4817
 5497TIP3   OH238125   6.235   3.675   7.228  0.0239  0.1486  0.2600
 5497TIP3    H138126   6.149   3.661   7.267 -0.7494  2.4276 -0.4816
 5497TIP3    H238127   6.241   3.610   7.158 -0.5247 -0.8814  1.1452
 5498TIP3   OH238128   1.912   1.373   1.177  0.2150  0.1248 -0.5592
 5498TIP3    H138129   1.933   1.466   1.186  0.5279  0.0230 -0.2021
 5498TIP3    H238130   1.916   1.356   1.082  0.6914  0.3557 -0.5842
 5499TIP3   OH238131   3.188   0.744   7.205  0.2183 -0.3095  0.0454
 5499TIP3    H138132   3.103   0.765   7.168 -0.4242 -2.9163 -0.1855
 5499TIP3    H238133   3.221   0.672   7.151  2.4751  0.4355  0.2954
 5500TIP3   OH238134   0.842   1.267   2.902 -0.4473  0.2584  0.4694
 5500TIP3    H138135   0.788   1.214   2.960 -0.9953 -1.9184 -1.8576
 5500TIP3    H238136   0.788   1.280   2.824  1.8212 -0.9310 -1.4380
 5501TIP3   OH238137   3.509   5.458   7.337 -0.3153 -0.3591  0.6553
 5501TIP3    H138138   3.495   5.535   7.392  0.5025 -0.2700  0.7555
 5501TIP3    H238139   3.482   5.384   7.392  2.2753 -0.4637  1.9908
 5502TIP3   OH238140   2.648   6.347   2.390  0.2843  0.5071 -0.0756
 5502TIP3    H138141   2.601   6.423   2.355  0.6128  0.8835  0.2903
 5502TIP3    H238142   2.669   6.295   2.313 -2.2680 -0.5879 -0.1363
 5503TIP3   OH238143   3.897   6.482   7.527  0.0240 -0.5911 -0.2923
 5503TIP3    H138144   3.909   6.392   7.558  0.6873 -0.6138 -0.5893
 5503TIP3    H238145   3.860   6.529   7.602  3.1267 -0.2444  1.1817
 5504TIP3   OH238146   2.203   0.460   8.757 -0.4865  0.3584  0.0278
 5504TIP3    H138147   2.276   0.494   8.706 -0.2198  2.2858  1.5741
 5504TIP3    H238148   2.162   0.538   8.796 -1.4947 -0.8905  1.6166
 5505TIP3   OH238149   0.263   3.721   0.987  0.0638 -0.0411  0.0254
 5505TIP3    H138150   0.306   3.667   0.920 -0.3739  1.0110 -1.1428
 5505TIP3    H238151   0.326   3.791   1.005  0.6506 -0.9018  1.5691
 5506TIP3   OH238152   0.308   1.178   7.231 -0.8308 -0.4213  0.0314
 5506TIP3    H138153   0.236   1.217   7.281 -2.0192 -0.8700 -1.2860
 5506TIP3    H238154   0.343   1.249   7.178 -0.2262 -0.1875  0.7193
 5507TIP3   OH238155   4.120   4.043   2.459  0.4814 -0.2040 -0.0024
 5507TIP3    H138156   4.147   4.078   2.374  1.8835  0.9986  0.8915
 5507TIP3    H238157   4.085   4.118   2.507 -4.1173 -1.5311 -0.7989
 5508TIP3   OH238158   2.240   1.784   7.980  0.2922  0.1437  0.5597
 5508TIP3    H138159   2.291   1.705   7.996 -0.1734  0.0635  1.7476
 5508TIP3    H238160   2.210   1.811   8.066  0.4642  1.6391  0.1768
 5509TIP3   OH238161   0.167   2.950   2.408 -0.2059 -0.2927  0.1186
 5509TIP3    H138162   0.142   3.032   2.366  1.7780  0.9956  1.2780
 5509TIP3    H238163   0.190   2.975   2.498  2.0394 -1.7815  0.0621
 5510TIP3   OH238164   5.081   0.714   0.913 -0.1848  0.4937 -0.1433
 5510TIP3    H138165   5.130   0.796   0.922  0.4621  0.0005  1.1284
 5510TIP3    H238166   5.000   0.729   0.962 -0.0300  0.3580  0.1594
 5511TIP3   OH238167   5.502   5.229   3.183 -0.4251  0.2112 -0.0971
 5511TIP3    H138168   5.497   5.134   3.193 -2.4900  0.3337  0.3424
 5511TIP3    H238169   5.561   5.257   3.254  1.4280 -0.8193 -1.1446
 5512TIP3   OH238170   5.004   1.406   7.068 -0.1746 -0.2005 -0.1892
 5512TIP3    H138171   5.017   1.311   7.061 -0.5146 -0.1675 -1.5708
 5512TIP3    H238172   4.954   1.429   6.990 -0.9000  0.9929  0.6053
 5513TIP3   OH238173   0.765   4.463   1.630  0.3098  0.2023  0.4951
 5513TIP3    H138174   0.783   4.515   1.552 -1.0546  0.7713  0.5258
 5513TIP3    H238175   0.686   4.413   1.609  1.3252 -1.5424  0.6457
 5514TIP3   OH238176   4.871   3.983   2.271  0.5548 -0.0342  0.0869
 5514TIP3    H138177   4.962   3.954   2.267  0.0994 -1.4340 -1.6530
 5514TIP3    H238178   4.825   3.913   2.318 -0.0983 -0.9551 -1.7933
 5515TIP3   OH238179   1.201   5.547   2.024 -0.0829  0.0739  0.3093
 5515TIP3    H138180   1.117   5.559   2.068  0.8389 -0.9620  2.5258
 5515TIP3    H238181   1.254   5.622   2.053  0.6687 -0.8441  1.4092
 5516TIP3   OH238182   3.636   5.579   7.112 -0.1177 -0.9538 -0.3781
 5516TIP3    H138183   3.580   5.556   7.187 -0.2027 -0.1929 -0.2067
 5516TIP3    H238184   3.714   5.526   7.125 -0.1244 -0.8198  0.2618
 5517TIP3   OH238185   5.234   1.545   7.050 -0.1518 -0.0304  0.0674
 5517TIP3    H138186   5.151   1.498   7.040 -0.6467  0.5449  1.2482
 5517TIP3    H238187   5.260   1.567   6.961 -1.5277  0.2013 -0.3064
 5518TIP3   OH238188   2.083   6.705   1.476 -0.2946 -0.5015 -0.3698
 5518TIP3    H138189   1.989   6.708   1.458 -0.1804 -1.6637 -1.2575
 5518TIP3    H238190   2.096   6.769   1.546 -1.3948  1.3339 -1.7393
 5519TIP3   OH238191   1.003   2.805   2.180 -0.9235 -0.5040 -0.3381
 5519TIP3    H138192   0.980   2.892   2.211 -0.0395 -0.1986 -0.5149
 5519TIP3    H238193   0.969   2.746   2.247 -0.7685  0.0302  0.2228
 5520TIP3   OH238194   2.583   2.573   2.084 -0.1301 -0.6838 -0.5545
 5520TIP3    H138195   2.670   2.604   2.060 -0.8272  0.7921 -1.2750
 5520TIP3    H238196   2.600   2.502   2.147  1.5570  0.1953  0.0528
 5521TIP3   OH238197   3.394   2.112   0.498 -0.3495  0.1803 -0.0540
 5521TIP3    H138198   3.436   2.195   0.474 -0.2257  0.0311 -0.3580
 5521TIP3    H238199   3.419   2.052   0.428 -2.1256  0.4209 -0.9399
 5522TIP3   OH238200   5.948   5.249   8.389 -0.5759  0.3462  0.3532
 5522TIP3    H138201   6.007   5.319   8.417 -0.8865  0.6301  0.3198
 5522TIP3    H238202   5.993   5.168   8.412  0.2022  0.5353 -0.4337
 5523TIP3   OH238203   1.318   5.113   0.104 -0.2393 -0.0723 -0.1690
 5523TIP3    H138204   1.395   5.144   0.150  0.9550 -0.9158 -1.5004
 5523TIP3    H238205   1.252   5.101   0.172  1.0618 -0.1391  1.1371
 5524TIP3   OH238206   1.255   6.350   8.146 -0.2395 -0.0258  0.5921
 5524TIP3    H138207   1.228   6.424   8.201  0.7491  2.0248 -1.4879
 5524TIP3    H238208   1.349   6.365   8.131 -0.4236 -0.6561 -1.3680
 5525TIP3   OH238209   0.056   5.017   7.990  0.4261 -0.2148  0.6975
 5525TIP3    H138210   0.004   5.000   7.912  1.2686  1.1813 -0.2177
 5525TIP3    H238211   0.075   5.111   7.986  2.2041 -0.5014  1.4879
 5526TIP3   OH238212   6.098   1.366   2.583  0.0426  0.1020  0.2418
 5526TIP3    H138213   6.183   1.404   2.603  0.2044 -0.5838  0.8697
 5526TIP3    H238214   6.118   1.289   2.529 -0.2671  0.7004 -0.7637
 5527TIP3   OH238215   5.573   6.047   1.374  0.3361 -0.5446 -0.5216
 5527TIP3    H138216   5.570   6.143   1.368  1.5929 -0.5514 -1.7947
 5527TIP3    H238217   5.608   6.019   1.290  1.5322 -2.0341  0.4302
 5528TIP3   OH238218   5.081   5.637   0.466 -0.2916  0.3489 -0.4221
 5528TIP3    H138219   5.041   5.592   0.541  0.5348 -0.6861 -0.5859
 5528TIP3    H238220   5.075   5.574   0.394 -0.0806  0.9126 -0.9423
 5529TIP3   OH238221   6.815   1.224   1.192 -0.2762 -0.2294 -0.3363
 5529TIP3    H138222   6.831   1.311   1.230 -0.9720 -0.0532 -0.4232
 5529TIP3    H238223   6.749   1.240   1.124  0.4176 -0.6571 -1.1213
 5530TIP3   OH238224   0.629   1.165   7.122 -0.3437  0.4671  0.0059
 5530TIP3    H138225   0.594   1.230   7.183 -0.0366  0.6656 -0.0271
 5530TIP3    H238226   0.715   1.200   7.097 -2.0739  2.6177 -3.8381
 5531TIP3   OH238227   4.719   5.314   0.336 -0.1187 -0.2753  0.0679
 5531TIP3    H138228   4.667   5.336   0.259 -0.3784  1.5084  0.7133
 5531TIP3    H238229   4.805   5.349   0.317  0.5969 -2.1864 -0.4911
 5532TIP3   OH238230   1.342   3.862   7.381 -0.6737  0.1479 -0.2868
 5532TIP3    H138231   1.424   3.907   7.361  0.0757 -1.0926 -0.1087
 5532TIP3    H238232   1.290   3.927   7.427  0.0854  1.0594 -0.6875
 5533TIP3   OH238233   3.367   2.315   8.041  0.1173 -0.2696  0.4739
 5533TIP3    H138234   3.292   2.277   7.994 -0.6351  0.4871  1.0282
 5533TIP3    H238235   3.443   2.284   7.993 -0.5872 -0.3596 -0.6279
 5534TIP3   OH238236   1.134   4.273   0.017  0.4828 -0.0202  0.4784
 5534TIP3    H138237   1.080   4.347   0.045  0.2019 -0.2839  0.6320
 5534TIP3    H238238   1.163   4.231   0.098  1.6979  0.6641  0.4331
 5535TIP3   OH238239   5.004   6.722   1.655 -0.3839  0.0961  0.1540
 5535TIP3    H138240   4.915   6.752   1.637 -0.6789 -1.0948 -0.4829
 5535TIP3    H238241   4.992   6.652   1.720  0.1135  0.1555  0.3108
 5536TIP3   OH238242   0.014   5.977   7.796 -0.0752  0.3406 -0.9122
 5536TIP3    H138243  -0.058   6.036   7.815 -0.8818 -0.7175 -0.5457
 5536TIP3    H238244   0.082   6.032   7.757 -0.1663  1.7858  0.8389
 5537TIP3   OH238245   4.104   2.442   0.621  0.1910 -0.4621  0.5317
 5537TIP3    H138246   4.092   2.420   0.529 -1.6323 -0.3894  0.7053
 5537TIP3    H238247   4.096   2.537   0.625  2.2876 -0.2362  0.5430
 5538TIP3   OH238248   0.540   3.131   1.879 -0.3067 -0.1587  0.7357
 5538TIP3    H138249   0.580   3.206   1.836 -1.2854  0.1598  0.3786
 5538TIP3    H238250   0.483   3.091   1.813  0.7015 -1.6329  0.6925
 5539TIP3   OH238251   3.072   3.837   2.186  0.1913  0.3676 -0.1567
 5539TIP3    H138252   3.047   3.748   2.165  1.1042  0.3949 -1.4744
 5539TIP3    H238253   3.110   3.832   2.274  1.5293 -0.8199 -0.7612
 5540TIP3   OH238254   5.608   3.521   0.616  0.4391  0.3197  0.8785
 5540TIP3    H138255   5.553   3.575   0.672  0.9902  0.7970  0.9696
 5540TIP3    H238256   5.551   3.449   0.589 -0.1146  0.6011  1.2704
 5541TIP3   OH238257   5.754   2.199   8.242 -0.0259 -0.7949 -0.0493
 5541TIP3    H138258   5.708   2.271   8.199 -0.8962 -0.6685  1.0493
 5541TIP3    H238259   5.793   2.149   8.170 -1.0379 -0.3276 -0.9518
 5542TIP3   OH238260   5.391   1.216   1.525  0.1426  0.2220  0.0124
 5542TIP3    H138261   5.300   1.197   1.547  0.5916 -0.4015  1.4574
 5542TIP3    H238262   5.418   1.142   1.471  0.2719 -0.4750  1.0101
 5543TIP3   OH238263   2.578   5.013   1.036  0.1456  0.2571 -0.2758
 5543TIP3    H138264   2.644   5.078   1.060 -1.1494  1.6856 -0.4304
 5543TIP3    H238265   2.604   4.984   0.948  0.8901  0.3513 -0.0925
 5544TIP3   OH238266   1.653   3.673   0.179 -0.3529  0.0940 -0.2891
 5544TIP3    H138267   1.688   3.723   0.105  0.6126 -0.1394 -0.0087
 5544TIP3    H238268   1.563   3.652   0.153  0.0066 -0.1070 -1.4751
 5545TIP3   OH238269   4.370   1.094   0.776  0.0144 -0.4246  0.4678
 5545TIP3    H138270   4.297   1.033   0.775  1.2199 -1.9509  1.1927
 5545TIP3    H238271   4.440   1.048   0.729 -0.2410  2.0822 -2.7189
 5546TIP3   OH238272   5.039   3.239   1.857 -0.0961  0.2557  0.5522
 5546TIP3    H138273   5.118   3.190   1.881 -1.6562 -3.5857 -1.3152
 5546TIP3    H238274   5.001   3.265   1.940  0.6842 -2.1648  1.7663
 5547TIP3   OH238275   4.506   1.511   2.580  0.3826 -0.4661 -0.1648
 5547TIP3    H138276   4.601   1.501   2.593  0.4690  0.2640 -0.1891
 5547TIP3    H238277   4.497   1.595   2.535 -0.3734  0.1781  1.1389
 5548TIP3   OH238278   0.912   2.616   1.026 -0.0113  0.0942  0.1611
 5548TIP3    H138279   0.925   2.667   1.105  0.4290 -1.9393  1.4753
 5548TIP3    H238280   0.906   2.525   1.056 -0.6435 -0.6718 -2.0581
 5549TIP3   OH238281   2.923   2.051   1.425  0.3584 -0.8441  0.3636
 5549TIP3    H138282   2.917   2.074   1.332  0.6835  0.4188  0.6412
 5549TIP3    H238283   2.832   2.051   1.455  0.3381 -0.0602  0.3185
 5550TIP3   OH238284   0.988   5.903   0.736  0.0478 -0.2661 -0.3277
 5550TIP3    H138285   1.053   5.955   0.784 -1.0195  0.7012  0.1075
 5550TIP3    H238286   0.997   5.933   0.645 -1.4209  1.6771  0.1070
 5551TIP3   OH238287   5.830   0.383   8.735 -0.3241 -0.0370  0.4106
 5551TIP3    H138288   5.786   0.455   8.780 -0.7755 -0.1726  0.1994
 5551TIP3    H238289   5.879   0.338   8.803  0.6005  0.9280  0.4163
 5552TIP3   OH238290   2.493   0.436   8.573  0.0184  0.1049 -0.4378
 5552TIP3    H138291   2.517   0.344   8.558 -0.1631  0.1113 -0.7760
 5552TIP3    H238292   2.564   0.471   8.627  0.4391 -0.0472 -0.8886
 5553TIP3   OH238293   6.389   5.616   2.726 -0.0026 -0.2141 -0.2391
 5553TIP3    H138294   6.346   5.588   2.807 -1.0248  1.5909 -0.1137
 5553TIP3    H238295   6.361   5.552   2.660 -2.2450  0.4297  0.0271
 5554TIP3   OH238296   6.662   4.806   2.274 -0.0580 -0.1987  0.5537
 5554TIP3    H138297   6.748   4.823   2.236  0.3958  0.0949  1.6674
 5554TIP3    H238298   6.652   4.874   2.341 -1.3722  0.0599  0.1103
 5555TIP3   OH238299   0.671   3.969   8.002  0.2577 -0.1337 -0.1487
 5555TIP3    H138300   0.693   4.049   7.954 -0.7542 -0.8681 -1.9405
 5555TIP3    H238301   0.632   3.999   8.083 -0.1851  1.1997 -0.8284
 5556TIP3   OH238302   6.840   1.980   7.140  0.4745 -0.0088 -0.2425
 5556TIP3    H138303   6.791   1.953   7.063 -0.0908 -0.2375  0.1908
 5556TIP3    H238304   6.774   2.017   7.199  0.5481 -1.7396  1.0018
 5557TIP3   OH238305   4.158   6.627   7.564  0.6114 -0.0768  0.3618
 5557TIP3    H138306   4.106   6.677   7.629  1.1017  1.7001 -0.5402
 5557TIP3    H238307   4.093   6.576   7.516 -0.0851  0.5903  0.5668
 5558TIP3   OH238308   4.127   4.001   3.117 -0.0387  0.1242  0.0214
 5558TIP3    H138309   4.050   3.945   3.105 -0.7775  0.7054  1.7236
 5558TIP3    H238310   4.202   3.942   3.110 -0.7130 -0.7396 -0.0940
 5559TIP3   OH238311   5.536   3.063   2.451  0.2138  0.2100 -0.3120
 5559TIP3    H138312   5.588   2.987   2.424 -0.2225  0.0503 -0.7103
 5559TIP3    H238313   5.596   3.115   2.505  0.4739 -0.4849  0.0827
 5560TIP3   OH238314   6.223   5.963   1.256  0.0363 -0.1564 -0.0629
 5560TIP3    H138315   6.259   5.897   1.315  1.4902  0.2625 -0.4376
 5560TIP3    H238316   6.294   5.980   1.194 -1.1340  0.0713 -1.3850
 5561TIP3   OH238317   4.288   0.316   2.950  0.2474 -0.1221 -0.0208
 5561TIP3    H138318   4.329   0.372   3.017 -1.5770  0.0228  1.0572
 5561TIP3    H238319   4.259   0.239   2.999 -0.1639 -0.5070 -0.8613
 5562TIP3   OH238320   1.921   5.803   8.680  0.0188 -0.1588 -0.9426
 5562TIP3    H138321   2.001   5.786   8.729  0.5755  1.6209 -1.1519
 5562TIP3    H238322   1.851   5.794   8.745  0.1560 -3.2131 -1.0773
 5563TIP3   OH238323   5.407   1.406   6.864 -0.8213  0.1307  0.3654
 5563TIP3    H138324   5.477   1.358   6.820 -1.0728  1.7018 -1.8880
 5563TIP3    H238325   5.367   1.341   6.922  1.3097 -1.2816  0.3752
 5564TIP3   OH238326   5.902   4.644   6.964  0.0400  0.3170  0.0355
 5564TIP3    H138327   5.813   4.639   6.928  0.2181  2.5676 -0.8575
 5564TIP3    H238328   5.942   4.560   6.938 -2.0144 -1.1265  1.1958
 5565TIP3   OH238329   6.633   3.044   1.263  0.0043  0.4973  0.6954
 5565TIP3    H138330   6.590   3.003   1.188  1.5532  0.1353 -0.0464
 5565TIP3    H238331   6.637   3.137   1.240  0.4854  0.3867  0.2998
 5566TIP3   OH238332   4.122   5.900   8.685 -0.0946 -0.1706 -0.3300
 5566TIP3    H138333   4.113   5.822   8.630  0.9287 -0.4710 -0.1080
 5566TIP3    H238334   4.048   5.955   8.661 -0.9276 -1.2673 -0.3977
 5567TIP3   OH238335   1.790   4.395   8.059  0.0971 -0.4182 -0.3432
 5567TIP3    H138336   1.871   4.345   8.049 -0.1404 -0.6356 -1.3278
 5567TIP3    H238337   1.747   4.388   7.973  0.6386  2.4861 -0.9242
 5568TIP3   OH238338   1.464   4.445   8.018 -0.0836 -0.6641 -0.3720
 5568TIP3    H138339   1.483   4.496   8.097 -0.7872  1.4509 -1.4606
 5568TIP3    H238340   1.507   4.494   7.948 -2.9089 -0.0172 -1.8276
 5569TIP3   OH238341   2.838   1.409   0.718  0.9734  0.4442  0.3104
 5569TIP3    H138342   2.852   1.315   0.720  1.3461  0.5029  0.5653
 5569TIP3    H238343   2.743   1.420   0.714  0.9505  0.0477 -0.6331
 5570TIP3   OH238344   3.347   2.996   1.833 -0.0013  0.3065 -0.0051
 5570TIP3    H138345   3.439   2.995   1.805 -0.2227  2.6879 -1.0449
 5570TIP3    H238346   3.333   2.910   1.872  1.6006 -1.6400 -3.3183
 5571TIP3   OH238347   4.762   2.973   2.717  0.3106 -0.0152 -0.3630
 5571TIP3    H138348   4.778   3.046   2.776 -0.5497  0.3037 -0.4984
 5571TIP3    H238349   4.691   3.004   2.659 -0.4836 -1.1547 -0.0438
 5572TIP3   OH238350   4.269   6.348   0.253 -0.1804  0.2185 -0.3328
 5572TIP3    H138351   4.319   6.408   0.308  0.0227 -0.2147 -0.0325
 5572TIP3    H238352   4.211   6.303   0.314  0.9782 -1.2216 -0.2293
 5573TIP3   OH238353   5.164   5.499   0.923  0.5257  0.5502  0.4306
 5573TIP3    H138354   5.111   5.450   0.986  0.9139  0.4748  0.7013
 5573TIP3    H238355   5.102   5.527   0.856  0.0210  1.0390  1.0918
 5574TIP3   OH238356   2.856   5.938   2.112 -0.1677 -0.0194  0.1503
 5574TIP3    H138357   2.865   6.019   2.163  0.7728 -0.8062  1.2882
 5574TIP3    H238358   2.946   5.908   2.100 -0.5174 -0.9367 -0.2194
 5575TIP3   OH238359   1.499   4.836   1.243  0.2028 -0.3314  0.0757
 5575TIP3    H138360   1.454   4.891   1.179  0.2964 -1.8333 -1.3364
 5575TIP3    H238361   1.590   4.834   1.213  0.0672 -1.7788 -0.2985
 5576TIP3   OH238362   4.079   1.590   7.608  0.0770  0.1228  0.2335
 5576TIP3    H138363   4.169   1.624   7.608  1.1610 -2.4205  2.2338
 5576TIP3    H238364   4.036   1.636   7.680  0.3423 -0.0251  0.4854
 5577TIP3   OH238365   3.040   4.069   1.550 -0.0338 -0.1995  0.2761
 5577TIP3    H138366   2.991   4.150   1.561  1.0320  0.2081  2.6927
 5577TIP3    H238367   3.057   4.038   1.639  2.9042 -1.0085 -0.4240
 5578TIP3   OH238368   0.501   3.949   0.330 -0.3699  0.6441  0.0069
 5578TIP3    H138369   0.530   3.865   0.294 -2.1192 -0.3285  0.7606
 5578TIP3    H238370   0.582   3.999   0.340  0.5063 -0.1155 -2.4393
 5579TIP3   OH238371   6.439   1.096   6.883 -0.2040  0.2672  0.5612
 5579TIP3    H138372   6.427   1.190   6.898 -1.1051 -0.0880  2.3007
 5579TIP3    H238373   6.355   1.057   6.905 -0.2047 -0.8811 -1.2250
 5580TIP3   OH238374   6.237   4.689   3.060 -0.1948 -0.4143 -0.5811
 5580TIP3    H138375   6.280   4.774   3.052  1.0562 -0.7390  1.8082
 5580TIP3    H238376   6.150   4.709   3.095 -0.4583 -0.0633 -1.3989
 5581TIP3   OH238377   3.508   3.099   7.816 -0.3837 -0.8616  0.2195
 5581TIP3    H138378   3.505   3.011   7.778 -0.0025 -1.0088  0.5215
 5581TIP3    H238379   3.591   3.135   7.787 -0.1229 -0.9482  0.8372
 5582TIP3   OH238380   0.227   3.705   3.503  0.4817  0.0683 -0.0981
 5582TIP3    H138381   0.302   3.701   3.563  0.9218 -2.3516 -0.7070
 5582TIP3    H238382   0.208   3.614   3.482 -1.5233  0.7125 -1.3822
 5583TIP3   OH238383   2.811   6.213   2.189 -0.2535 -0.0945  0.0782
 5583TIP3    H138384   2.862   6.254   2.119  0.1215 -1.3037 -0.3944
 5583TIP3    H238385   2.838   6.258   2.269  2.0052 -1.0514 -0.0765
 5584TIP3   OH238386   1.936   5.368   8.661 -0.2123 -0.2812  0.4694
 5584TIP3    H138387   1.965   5.316   8.587  0.7305  0.2459  0.4616
 5584TIP3    H238388   2.013   5.419   8.687 -1.2378  1.5689  0.0866
 5585TIP3   OH238389   2.068   5.588   0.650  0.1710 -0.0667 -0.0737
 5585TIP3    H138390   2.006   5.515   0.659  0.0850  0.1433  1.1610
 5585TIP3    H238391   2.135   5.555   0.589 -1.1353 -0.2868 -1.4414
 5586TIP3   OH238392   6.590   5.819   1.812  0.0309 -0.1300  0.2127
 5586TIP3    H138393   6.594   5.855   1.901  0.4965 -0.4057  0.3063
 5586TIP3    H238394   6.510   5.855   1.775  0.8326  1.5915  0.0558
 5587TIP3   OH238395   4.735   2.249   8.227 -0.5551 -0.2012  0.0526
 5587TIP3    H138396   4.750   2.311   8.156 -1.8948  2.1564  1.6516
 5587TIP3    H238397   4.644   2.222   8.215 -0.1986 -1.3355 -0.2021
 5588TIP3   OH238398   0.423   6.214   0.564  0.4685  0.7076  0.0467
 5588TIP3    H138399   0.447   6.195   0.473 -0.4857  1.2321 -0.3278
 5588TIP3    H238400   0.423   6.129   0.607  1.2966  0.4984 -0.3466
 5589TIP3   OH238401   0.436   0.171   2.540  0.1003  0.2489 -0.5753
 5589TIP3    H138402   0.492   0.096   2.519  0.2400  0.2794 -0.3187
 5589TIP3    H238403   0.357   0.158   2.488  0.2078  0.0285 -0.6836
 5590TIP3   OH238404   4.395   4.094   1.986 -0.1459  0.5406 -0.6503
 5590TIP3    H138405   4.398   4.053   1.899 -1.5740  2.6257 -1.7837
 5590TIP3    H238406   4.483   4.081   2.022 -0.0365 -1.9053 -1.6258
 5591TIP3   OH238407   1.625   5.985   0.473  0.4493  0.1593 -0.6288
 5591TIP3    H138408   1.552   5.926   0.494 -1.3063  2.6503  0.9922
 5591TIP3    H238409   1.703   5.930   0.481 -1.1134 -2.2817 -0.8566
 5592TIP3   OH238410   0.231   2.062   1.469 -0.0928  0.2986 -0.1862
 5592TIP3    H138411   0.294   1.997   1.500  2.3242  1.0446 -3.0315
 5592TIP3    H238412   0.270   2.146   1.491 -1.8015  0.8241  0.9637
 5593TIP3   OH238413   5.044   3.580   1.961 -0.1842 -0.3120  0.2206
 5593TIP3    H138414   5.032   3.596   2.054 -0.6822 -1.1850  0.3196
 5593TIP3    H238415   5.036   3.667   1.921  0.5558  0.1405  1.0288
 5594TIP3   OH238416   2.970   1.009   8.604 -0.0237  0.0688  0.2085
 5594TIP3    H138417   2.949   1.017   8.697 -0.3192 -0.8672  0.2401
 5594TIP3    H238418   2.964   0.915   8.587  1.1570  0.1015 -0.4968
 5595TIP3   OH238419   5.861   0.558   7.605  0.3589 -0.0109 -0.2832
 5595TIP3    H138420   5.861   0.588   7.514 -3.2310 -0.3691 -0.5611
 5595TIP3    H238421   5.808   0.477   7.603  0.0204  0.0949  2.1216
 5596TIP3   OH238422   6.671   5.599   7.627 -0.6551 -0.4765 -0.4963
 5596TIP3    H138423   6.723   5.675   7.601 -0.3806 -0.7111 -0.6355
 5596TIP3    H238424   6.582   5.633   7.637 -0.5668 -0.1751 -0.7343
 5597TIP3   OH238425   1.712   4.274   1.333  0.0423  0.0710  0.0574
 5597TIP3    H138426   1.633   4.301   1.381  0.4467  0.8246  0.3235
 5597TIP3    H238427   1.782   4.279   1.398  0.2374 -1.0580 -0.0603
 5598TIP3   OH238428   3.582   6.167   6.991  0.4243  0.5923 -0.1201
 5598TIP3    H138429   3.649   6.117   7.038 -0.7298 -0.9361 -0.0192
 5598TIP3    H238430   3.540   6.103   6.934 -1.5172  1.2962  0.4510
 5599TIP3   OH238431   2.313   6.483   7.419 -0.5286 -0.4258  0.0851
 5599TIP3    H138432   2.301   6.399   7.376  0.1127  0.8719 -2.8263
 5599TIP3    H238433   2.379   6.528   7.367  0.2852  1.3179  2.4523
 5600TIP3   OH238434   6.638   5.787   8.608  0.3743  0.1653  0.0118
 5600TIP3    H138435   6.543   5.780   8.609  0.1162  0.3205 -4.5340
 5600TIP3    H238436   6.669   5.702   8.641 -1.4064 -0.8277 -0.7667
 5601TIP3   OH238437   0.645   3.703   0.873  0.0451 -0.7535 -0.2313
 5601TIP3    H138438   0.684   3.671   0.954  1.4527 -0.0733 -0.6119
 5601TIP3    H238439   0.719   3.718   0.814 -0.7051  1.1571 -0.7858
 5602TIP3   OH238440   1.422   2.758   6.877 -0.1045 -0.0966 -0.0810
 5602TIP3    H138441   1.449   2.719   6.794 -0.2645  0.2087 -0.2801
 5602TIP3    H238442   1.482   2.721   6.942 -0.7642 -1.2832 -0.1325
 5603TIP3   OH238443   5.273   3.095   1.051  0.3203  0.0549  0.4492
 5603TIP3    H138444   5.256   3.012   1.096  2.2435 -0.9473 -0.5435
 5603TIP3    H238445   5.354   3.127   1.091  0.3362  0.7451 -0.1328
 5604TIP3   OH238446   2.532   1.213   1.003  0.4851 -0.1203  0.1154
 5604TIP3    H138447   2.527   1.149   1.074 -0.5570 -0.4297 -0.2172
 5604TIP3    H238448   2.614   1.260   1.018  0.6571 -0.7085  1.0677
 5605TIP3   OH238449   3.082   2.417   7.509 -0.1760  0.1996 -0.2004
 5605TIP3    H138450   3.052   2.465   7.432 -1.4304 -0.8547 -0.3866
 5605TIP3    H238451   3.133   2.481   7.559  0.6576  0.9011 -1.8894
 5606TIP3   OH238452   6.493   4.334   7.660  0.3741 -0.1715  0.3827
 5606TIP3    H138453   6.499   4.260   7.599 -2.1730 -0.2704  0.1560
 5606TIP3    H238454   6.544   4.404   7.618  0.1181 -0.7838 -0.9973
 5607TIP3   OH238455   2.739   2.364   0.078 -0.7063 -0.2996 -0.0113
 5607TIP3    H138456   2.650   2.341   0.106 -0.7087  0.6970  0.8458
 5607TIP3    H238457   2.794   2.341   0.153 -0.1523 -1.3899 -0.7274
 5608TIP3   OH238458   6.543   3.217   7.836  0.2048  0.2140 -0.5182
 5608TIP3    H138459   6.544   3.122   7.847 -0.3483  0.3032  0.3674
 5608TIP3    H238460   6.612   3.234   7.771  1.7088 -0.6075  0.8028
 5609TIP3   OH238461   2.299   1.470   7.919 -0.0424 -0.0600 -0.1714
 5609TIP3    H138462   2.248   1.398   7.957 -0.4588 -0.1421 -0.8696
 5609TIP3    H238463   2.382   1.431   7.895  0.4593  0.1157  1.1626
 5610TIP3   OH238464   5.916   2.503   2.383 -0.1464  0.3245  0.0046
 5610TIP3    H138465   5.894   2.562   2.455 -0.3814 -2.4389  2.4314
 5610TIP3    H238466   6.003   2.470   2.405 -0.5504 -1.1772 -0.5101
 5611TIP3   OH238467   4.856   0.085   0.577  0.1488 -0.1418  0.3714
 5611TIP3    H138468   4.872   0.063   0.669  0.7445  0.0503  0.3186
 5611TIP3    H238469   4.829   0.003   0.536 -2.0410  0.1283  1.1106
 5612TIP3   OH238470   4.833   0.529   1.313  0.3532 -0.6528 -0.4635
 5612TIP3    H138471   4.748   0.507   1.274  0.5400  0.3249 -1.4818
 5612TIP3    H238472   4.884   0.564   1.240  2.3215 -2.9447 -0.2997
 5613TIP3   OH238473   1.867   6.115   7.416  0.0665  0.0166  0.0253
 5613TIP3    H138474   1.914   6.197   7.425 -1.0763  0.6210  0.7021
 5613TIP3    H238475   1.923   6.061   7.360  0.8053  1.2577 -0.4628
 5614TIP3   OH238476   0.799   3.094   7.621 -0.1662  0.2808 -0.3150
 5614TIP3    H138477   0.847   3.106   7.703 -0.0140 -1.7408 -0.0457
 5614TIP3    H238478   0.841   3.019   7.580 -1.6436 -0.1118 -1.1766
 5615TIP3   OH238479   4.106   2.375   2.858  0.5682 -0.6054 -0.3095
 5615TIP3    H138480   4.015   2.373   2.889  0.4344  0.4562 -0.5625
 5615TIP3    H238481   4.159   2.374   2.937  0.4340 -3.2432 -0.1877
 5616TIP3   OH238482   1.428   2.342   7.861 -0.0219 -0.2980  0.2350
 5616TIP3    H138483   1.480   2.395   7.802  0.2891 -0.8605 -0.0027
 5616TIP3    H238484   1.449   2.374   7.949 -0.4999  0.5480  0.0457
 5617TIP3   OH238485   4.984   3.046   1.290  0.3323  0.1974 -0.1401
 5617TIP3    H138486   5.020   3.100   1.220 -1.7232 -0.8071 -2.1028
 5617TIP3    H238487   4.917   3.100   1.332 -1.0192 -0.4076 -1.4424
 5618TIP3   OH238488   4.831   4.701   0.876  0.0311  0.6461  0.0788
 5618TIP3    H138489   4.767   4.769   0.895 -0.6057  0.2070 -0.4309
 5618TIP3    H238490   4.909   4.726   0.925 -0.2979  1.5706  0.1437
 5619TIP3   OH238491   1.924   3.315   7.448  0.5917  0.5312  0.3818
 5619TIP3    H138492   1.907   3.267   7.529  1.2988  2.3652  1.6766
 5619TIP3    H238493   2.019   3.311   7.438  0.4231 -0.7668 -1.1118
 5620TIP3   OH238494   6.579   2.455   8.584 -0.6788 -0.1169 -0.0093
 5620TIP3    H138495   6.635   2.378   8.571 -0.8003 -0.1682 -0.2378
 5620TIP3    H238496   6.631   2.529   8.552 -0.9422 -0.2313 -0.7323
 5621TIP3   OH238497   4.413   5.610   8.076 -0.0766  0.9892 -0.1706
 5621TIP3    H138498   4.339   5.595   8.135 -1.2170  0.4863 -1.6487
 5621TIP3    H238499   4.486   5.563   8.116 -1.5793 -2.0077 -0.6436
 5622TIP3   OH238500   2.063   2.575   0.084 -0.2657  0.0566 -0.1892
 5622TIP3    H138501   1.983   2.618   0.115 -0.4840 -0.6502  0.2541
 5622TIP3    H238502   2.101   2.637   0.022 -1.3987  0.2010 -0.7520
 5623TIP3   OH238503   5.722   1.017   2.245 -0.7559 -0.3138  0.2990
 5623TIP3    H138504   5.805   1.064   2.233 -0.5525 -0.2447  1.7320
 5623TIP3    H238505   5.655   1.077   2.212 -0.3968  0.4869  0.9951
 5624TIP3   OH238506   1.599   6.210   1.241  0.0447 -0.9908  0.1997
 5624TIP3    H138507   1.534   6.156   1.287 -0.0364 -1.3048 -0.2631
 5624TIP3    H238508   1.638   6.150   1.177 -1.1826 -0.1201 -1.4442
 5625TIP3   OH238509   0.190   2.489   0.019 -0.1579  0.3069  0.1128
 5625TIP3    H138510   0.180   2.423  -0.050  1.4708  0.3599 -0.2256
 5625TIP3    H238511   0.199   2.572  -0.029 -1.7627  0.7476  0.5183
 5626TIP3   OH238512   0.761   2.189   1.142  0.0096  0.2724 -0.0866
 5626TIP3    H138513   0.756   2.158   1.232 -2.4963 -1.6882 -0.7670
 5626TIP3    H238514   0.711   2.271   1.142  0.9652  0.8770  0.4660
 5627TIP3   OH238515   4.056   0.792   0.144  0.6478  0.3198  0.2963
 5627TIP3    H138516   4.144   0.826   0.162  0.3293  0.3084  2.1213
 5627TIP3    H238517   3.998   0.849   0.194  0.0542 -2.4585  3.0915
 5628TIP3   OH238518   4.779   0.290   0.884 -0.4466  0.2622  0.3038
 5628TIP3    H138519   4.751   0.205   0.851  0.1977  0.5236 -0.9978
 5628TIP3    H238520   4.873   0.281   0.898 -0.6706  0.2330  1.9226
 5629TIP3   OH238521   6.531   0.633   0.137  0.0445 -0.1803  0.3146
 5629TIP3    H138522   6.605   0.639   0.077  0.9414  0.8131  1.4670
 5629TIP3    H238523   6.544   0.549   0.182 -0.7465 -1.0281 -0.9788
 5630TIP3   OH238524   1.091   5.334   2.298 -0.3233  0.8240  0.1364
 5630TIP3    H138525   1.067   5.425   2.279  0.3189  0.3728 -3.7345
 5630TIP3    H238526   1.172   5.320   2.248 -0.9279 -2.1049 -0.2091
 5631TIP3   OH238527   3.659   3.721   1.333 -0.1680 -0.3425 -0.0142
 5631TIP3    H138528   3.681   3.757   1.247  3.0831 -2.4779 -0.2565
 5631TIP3    H238529   3.585   3.774   1.363  1.8409  3.9767 -1.8226
 5632TIP3   OH238530   5.417   0.244   2.761  0.4740  0.8264  0.3202
 5632TIP3    H138531   5.433   0.151   2.744 -0.9039  0.8210 -1.2075
 5632TIP3    H238532   5.505   0.282   2.767  1.1081 -0.1846 -1.5699
 5633TIP3   OH238533   4.396   1.764   2.128 -0.3003 -0.0214 -0.0419
 5633TIP3    H138534   4.426   1.765   2.219 -0.4349  0.4589  0.0021
 5633TIP3    H238535   4.345   1.845   2.119 -0.2936 -0.0707 -0.5401
 5634TIP3   OH238536   3.155   5.931   2.060  0.4607 -0.1457  0.7087
 5634TIP3    H138537   3.173   5.844   2.025 -3.9354 -1.4103  0.9325
 5634TIP3    H238538   3.165   5.990   1.985 -0.7193 -1.5612 -0.6351
 5635TIP3   OH238539   2.053   1.272   2.352 -0.1535 -0.2410 -0.2941
 5635TIP3    H138540   2.049   1.176   2.354  1.4891 -0.3335  2.2070
 5635TIP3    H238541   2.009   1.295   2.270 -0.5035 -3.1157 -1.0446
 5636TIP3   OH238542   5.321   2.905   8.348  0.3290 -0.2303 -0.5272
 5636TIP3    H138543   5.229   2.924   8.331 -0.1668 -1.6095  0.4653
 5636TIP3    H238544   5.322   2.863   8.434  1.9631  0.3384 -0.2210
 5637TIP3   OH238545   4.789   4.546   1.799  0.2832  0.1980 -0.2335
 5637TIP3    H138546   4.701   4.549   1.837  0.4762 -0.8213  0.3476
 5637TIP3    H238547   4.824   4.634   1.813 -0.4065  0.4264  0.1180
 5638TIP3   OH238548   1.436   2.103   1.574 -0.4956 -0.0813 -0.0824
 5638TIP3    H138549   1.387   2.058   1.505 -0.7461 -0.4089  0.3055
 5638TIP3    H238550   1.376   2.105   1.649 -0.7910  1.5905 -0.3293
 5639TIP3   OH238551   5.105   2.574   7.705  0.3232  0.4743  0.1407
 5639TIP3    H138552   5.195   2.546   7.718  0.4673  0.1738 -1.3709
 5639TIP3    H238553   5.053   2.512   7.755  0.8448 -0.5573 -0.5641
 5640TIP3   OH238554   4.969   0.936   2.117  0.5906  0.4426 -0.1498
 5640TIP3    H138555   4.963   0.963   2.026  1.8419  1.2572 -0.0166
 5640TIP3    H238556   5.059   0.906   2.127  0.1893 -0.5907  0.5819
 5641TIP3   OH238557   1.423   1.990   0.253  0.0351  0.8911  0.0748
 5641TIP3    H138558   1.364   2.023   0.321 -0.5791  2.3037 -1.0848
 5641TIP3    H238559   1.506   2.035   0.270  0.8350 -1.0457  1.6657
 5642TIP3   OH238560   1.528   2.155   1.119 -0.1989 -0.5305  0.4375
 5642TIP3    H138561   1.590   2.146   1.047 -0.2791 -0.4056  0.3520
 5642TIP3    H238562   1.507   2.249   1.120 -2.1427 -0.8932 -0.9948
 5643TIP3   OH238563   1.500   2.475   8.099 -0.1276  0.7002  0.7380
 5643TIP3    H138564   1.480   2.490   8.192 -0.8108  0.5524  0.6247
 5643TIP3    H238565   1.582   2.427   8.100  0.6084  1.9287  1.2108
 5644TIP3   OH238566   3.469   6.731   7.595  0.4217 -0.4959 -0.2586
 5644TIP3    H138567   3.491   6.653   7.546 -1.7976 -0.2146 -1.8404
 5644TIP3    H238568   3.508   6.803   7.546 -0.6404 -0.3347 -0.9036
 5645TIP3   OH238569   3.435   5.098   1.180  0.4279 -0.0082 -0.3377
 5645TIP3    H138570   3.492   5.023   1.167 -0.9837 -1.2258  0.2316
 5645TIP3    H238571   3.391   5.081   1.263 -2.1043 -0.0469 -1.5887
 5646TIP3   OH238572   4.291   4.837   8.199  0.0182 -0.2971 -0.6977
 5646TIP3    H138573   4.233   4.889   8.144 -0.3015  0.0667 -0.0336
 5646TIP3    H238574   4.348   4.901   8.242 -0.4676 -0.4660  0.2277
 5647TIP3   OH238575   2.840   4.222   1.950  0.2412  0.6209 -0.7818
 5647TIP3    H138576   2.903   4.271   2.003  0.3253  0.2884 -0.5716
 5647TIP3    H238577   2.842   4.133   1.986 -0.7048  0.7211 -0.4622
 5648TIP3   OH238578   3.088   2.636   7.323 -0.0089 -0.7916  0.1151
 5648TIP3    H138579   3.082   2.720   7.278  1.0267 -1.1678 -0.7707
 5648TIP3    H238580   3.178   2.633   7.356 -0.5387 -0.8300  1.6309
 5649TIP3   OH238581   1.789   3.030   2.483 -0.4310 -0.0348 -0.3875
 5649TIP3    H138582   1.806   3.103   2.543  2.2398  0.9396 -2.1943
 5649TIP3    H238583   1.728   3.066   2.418  0.6460  0.5411 -1.1036
 5650TIP3   OH238584   5.973   2.967   0.111 -0.7736  0.0987  0.1642
 5650TIP3    H138585   5.972   2.874   0.132  1.3468  0.3480  1.6635
 5650TIP3    H238586   6.010   2.972   0.023  1.1578 -0.4180  0.9009
 5651TIP3   OH238587   1.020   3.954   1.093 -0.2405  0.1586  0.5717
 5651TIP3    H138588   1.103   3.941   1.048 -0.8927  1.5239 -1.1390
 5651TIP3    H238589   1.023   3.892   1.167  2.1196 -0.0535  0.3807
 5652TIP3   OH238590   2.818   2.563   8.405  0.2575 -0.1659  0.4223
 5652TIP3    H138591   2.908   2.567   8.436  0.0675 -0.3179  0.9942
 5652TIP3    H238592   2.797   2.470   8.402  1.2551 -0.4102 -3.0491
 5653TIP3   OH238593   4.947   2.430   7.905  1.0259  0.1808 -0.3185
 5653TIP3    H138594   4.872   2.374   7.928  0.7371 -0.7127 -3.0733
 5653TIP3    H238595   4.907   2.511   7.874  1.3168  0.5828  0.3376
 5654TIP3   OH238596   3.893   5.832   7.764 -0.5997  0.4068  0.2542
 5654TIP3    H138597   3.956   5.877   7.708 -0.7300 -0.1653 -0.3636
 5654TIP3    H238598   3.939   5.753   7.793 -1.1124 -0.1564 -0.4228
 5655TIP3   OH238599   6.002   1.181   7.436 -0.3395 -0.2113 -0.2733
 5655TIP3    H138600   6.091   1.215   7.430 -0.6767  0.4592 -1.8993
 5655TIP3    H238601   5.977   1.160   7.346 -2.1803  0.5546  0.0052
 5656TIP3   OH238602   2.439   3.067   1.515  0.2597 -0.4098 -0.6973
 5656TIP3    H138603   2.424   2.974   1.527 -1.2741 -0.0672  0.2118
 5656TIP3    H238604   2.396   3.109   1.589  3.7789  0.8854  0.8554
 5657TIP3   OH238605   4.339   4.724   1.775 -0.4716  0.6190 -0.3105
 5657TIP3    H138606   4.295   4.720   1.860 -0.6237  1.2766 -0.3533
 5657TIP3    H238607   4.376   4.812   1.771  0.2058  0.3291 -0.5980
 5658TIP3   OH238608   3.599   4.869   1.257 -0.4116 -0.0589 -0.1557
 5658TIP3    H138609   3.558   4.784   1.238 -1.7062  0.0721  1.6928
 5658TIP3    H238610   3.586   4.880   1.351  3.7813  0.1219  0.5738
 5659TIP3   OH238611   4.457   5.872   8.162 -0.7337  0.3992 -0.5696
 5659TIP3    H138612   4.449   5.797   8.104  0.8010 -0.8754  0.7443
 5659TIP3    H238613   4.539   5.914   8.136 -2.3672  2.7481 -2.4128
 5660TIP3   OH238614   2.614   3.476   7.360  0.3179  0.3776  0.3169
 5660TIP3    H138615   2.631   3.383   7.350 -1.6092  0.2030 -2.3745
 5660TIP3    H238616   2.701   3.516   7.367  1.4725 -1.2675 -2.8767
 5661TIP3   OH238617   2.861   4.456   8.693  0.3807  0.0008  0.6799
 5661TIP3    H138618   2.805   4.494   8.760  0.1951  0.3589  0.3263
 5661TIP3    H238619   2.950   4.471   8.726  0.2789 -0.2559  1.0737
 5662TIP3   OH238620   6.675   5.252   0.522 -0.6217  0.0864 -0.3062
 5662TIP3    H138621   6.726   5.235   0.602 -0.4897  2.9308  0.3316
 5662TIP3    H238622   6.608   5.185   0.522  1.5105 -2.2117  0.2208
 5663TIP3   OH238623   0.352   4.206   1.403 -0.3303  0.0866 -0.6911
 5663TIP3    H138624   0.296   4.131   1.421  1.0559 -0.6737  0.6425
 5663TIP3    H238625   0.402   4.181   1.326  0.9501 -0.8907  0.4107
 5664TIP3   OH238626   1.660   5.251   8.658 -0.0733  0.2352 -0.1358
 5664TIP3    H138627   1.748   5.287   8.654 -0.1202  0.2710 -1.0611
 5664TIP3    H238628   1.613   5.307   8.720 -0.1930  1.9066 -1.6573
 5665TIP3   OH238629   5.491   1.467   7.681 -0.5135 -0.5151  0.4035
 5665TIP3    H138630   5.437   1.418   7.743 -0.1069  1.8465  2.7449
 5665TIP3    H238631   5.438   1.543   7.657  0.6335  0.3132  0.4295
 5666TIP3   OH238632   6.172   6.000   0.732 -0.3688  0.4690 -0.2807
 5666TIP3    H138633   6.130   6.072   0.778  1.0512  0.4148  1.1531
 5666TIP3    H238634   6.258   5.991   0.773 -0.3495 -1.7750 -0.6863
 5667TIP3   OH238635   6.268   5.625   1.672  0.4819  0.5716 -0.7513
 5667TIP3    H138636   6.172   5.616   1.670  0.2200  2.9236 -1.6009
 5667TIP3    H238637   6.293   5.590   1.758 -0.9317 -1.4946 -1.1007
 5668TIP3   OH238638   6.848   5.533   1.189 -0.3424 -0.2984  0.0464
 5668TIP3    H138639   6.759   5.567   1.177 -0.1216  0.3343  0.1547
 5668TIP3    H238640   6.900   5.610   1.212 -0.2088 -1.0035  2.3768
 5669TIP3   OH238641   3.078   6.160   7.771 -1.0071  0.0438  0.3418
 5669TIP3    H138642   3.041   6.248   7.761  0.4469  0.8337  1.5110
 5669TIP3    H238643   3.014   6.102   7.730 -2.1836  1.6044 -0.1135
 5670TIP3   OH238644   4.089   4.554   0.524 -0.0740  0.4153  0.1999
 5670TIP3    H138645   4.104   4.616   0.595 -0.3527  0.9131 -0.1665
 5670TIP3    H238646   4.003   4.518   0.541  0.3216 -0.2984  0.7230
 5671TIP3   OH238647   6.120   1.429   8.548  0.1543 -0.9307 -0.0393
 5671TIP3    H138648   6.210   1.407   8.575 -0.0953 -0.6488  1.0795
 5671TIP3    H238649   6.065   1.389   8.615 -0.4488  0.6087  0.4171
 5672TIP3   OH238650   5.695   1.416   2.295  0.0811  0.1885  0.5873
 5672TIP3    H138651   5.652   1.414   2.381  1.1786  1.4475  1.2185
 5672TIP3    H238652   5.788   1.407   2.315  0.3166  0.0890 -0.5084
 5673TIP3   OH238653   5.225   0.746   7.938 -0.5212  0.4029 -0.1535
 5673TIP3    H138654   5.241   0.762   8.031 -0.6638  1.0070 -0.2295
 5673TIP3    H238655   5.153   0.683   7.937 -0.6722  0.5666  0.1407
 5674TIP3   OH238656   5.484   0.311   1.122 -0.2793  0.6285 -0.5710
 5674TIP3    H138657   5.508   0.307   1.029 -0.2249  1.4877 -0.6053
 5674TIP3    H238658   5.388   0.308   1.122 -0.2488 -1.7535 -0.4964
 5675TIP3   OH238659   6.244   3.379   7.443 -0.0352 -0.2961 -0.1683
 5675TIP3    H138660   6.216   3.398   7.532  0.5825  1.5647 -0.3259
 5675TIP3    H238661   6.327   3.426   7.434 -0.4616  0.1788 -1.9601
 5676TIP3   OH238662   6.709   4.283   8.003  0.3174 -0.1223 -0.8730
 5676TIP3    H138663   6.619   4.314   7.990  0.7182  0.7298 -1.7567
 5676TIP3    H238664   6.754   4.306   7.922  0.6647 -3.1422 -1.6572
 5677TIP3   OH238665   4.892   2.607   1.610 -0.2247  0.1773 -0.5534
 5677TIP3    H138666   4.798   2.603   1.588 -0.0217 -0.2760 -1.3885
 5677TIP3    H238667   4.930   2.664   1.543  0.3439 -0.9233 -1.2080
 5678TIP3   OH238668   3.617   0.403   2.424 -0.3503 -0.4808  0.1836
 5678TIP3    H138669   3.528   0.390   2.392 -0.3208 -1.9745  0.6061
 5678TIP3    H238670   3.606   0.416   2.519 -0.2843  1.8470 -0.0838
 5679TIP3   OH238671   0.645   2.055   2.612 -0.1401 -1.0757 -0.3776
 5679TIP3    H138672   0.669   2.102   2.692  0.1296 -1.0235 -0.4866
 5679TIP3    H238673   0.642   1.963   2.639 -1.8459 -0.9015  0.1157
 5680TIP3   OH238674   5.940   0.379   0.781  0.1632  0.4748  0.4531
 5680TIP3    H138675   6.004   0.436   0.824  0.6361  0.8073 -0.6374
 5680TIP3    H238676   5.888   0.438   0.727 -0.7163  0.1288  0.9062
 5681TIP3   OH238677   4.254   4.089   1.142  0.4920 -0.0471 -0.5331
 5681TIP3    H138678   4.199   4.167   1.149 -1.7488 -1.4974 -0.7038
 5681TIP3    H238679   4.240   4.058   1.052  2.6420  0.2210 -0.9986
 5682TIP3   OH238680   0.607   5.902   7.340 -0.5621  0.3176 -0.6561
 5682TIP3    H138681   0.650   5.830   7.292 -0.2901 -0.3573  0.5686
 5682TIP3    H238682   0.571   5.861   7.418  2.7386  2.0203  2.0310
 5683TIP3   OH238683   5.472   5.353   1.204  0.4434  0.3603  0.0581
 5683TIP3    H138684   5.388   5.385   1.236  0.2557 -0.3129  0.2498
 5683TIP3    H238685   5.482   5.267   1.244  0.2824 -0.4369 -1.5011
 5684TIP3   OH238686   5.131   2.695   8.167 -0.0560 -0.4233 -0.1305
 5684TIP3    H138687   5.111   2.772   8.221  2.5961 -0.4614  1.0685
 5684TIP3    H238688   5.112   2.722   8.078  2.1480  2.1981  0.0819
 5685TIP3   OH238689   2.291   0.688   8.587  0.2704  0.0401  0.5968
 5685TIP3    H138690   2.209   0.734   8.573  0.4256  0.1909  0.1473
 5685TIP3    H238691   2.355   0.757   8.606  0.1515 -0.1295  1.6983
 5686TIP3   OH238692   5.620   5.820   2.542 -0.5396  0.2124 -0.1946
 5686TIP3    H138693   5.606   5.728   2.561 -1.3175  0.5669  1.0852
 5686TIP3    H238694   5.715   5.829   2.530 -0.4467 -0.7181 -0.1737
 5687TIP3   OH238695   2.178   1.666   2.478  0.0036 -0.5065 -0.1421
 5687TIP3    H138696   2.109   1.606   2.506  0.4313 -0.3541  1.3109
 5687TIP3    H238697   2.250   1.609   2.454 -0.3561 -0.6403 -0.9249
 5688TIP3   OH238698   1.670   0.470   2.005 -0.4706 -0.1701 -0.1392
 5688TIP3    H138699   1.594   0.456   1.948 -0.8276 -1.0421  0.5271
 5688TIP3    H238700   1.648   0.548   2.056 -0.7601 -0.2048 -0.2068
 5689TIP3   OH238701   4.547   1.423   0.699  0.0904  0.2393 -0.0620
 5689TIP3    H138702   4.642   1.417   0.689  0.1346  1.1153 -0.2192
 5689TIP3    H238703   4.534   1.477   0.777 -0.2829 -0.2560  0.2249
 5690TIP3   OH238704   0.975   0.447   0.399 -0.1915 -0.1534  0.2986
 5690TIP3    H138705   1.021   0.462   0.482  0.9187  0.6826 -0.4490
 5690TIP3    H238706   0.883   0.465   0.420  0.0154 -0.3273  1.4355
 5691TIP3   OH238707   2.597   3.623   1.581 -0.1193  0.0338  0.3349
 5691TIP3    H138708   2.627   3.636   1.671 -1.3893 -2.3907  1.1909
 5691TIP3    H238709   2.661   3.562   1.543 -0.0708  0.3723 -0.1381
 5692TIP3   OH238710   4.312   2.419   2.065 -0.0700  1.1815 -0.2304
 5692TIP3    H138711   4.343   2.369   1.989  1.3325  1.7584 -0.0539
 5692TIP3    H238712   4.391   2.444   2.112 -0.6594  3.9127 -0.5356
 5693TIP3   OH238713   4.811   2.568   2.659 -0.4978  0.4043 -0.0442
 5693TIP3    H138714   4.752   2.607   2.594  0.3587  0.9752 -0.4995
 5693TIP3    H238715   4.878   2.523   2.606 -1.6049 -1.9851  0.4465
 5694TIP3   OH238716   6.276   2.012   8.241 -0.4937  0.1280  0.1981
 5694TIP3    H138717   6.326   2.067   8.302 -0.9418  1.7818 -0.8658
 5694TIP3    H238718   6.216   2.073   8.199 -0.9394 -1.1850 -1.1066
 5695TIP3   OH238719   0.003   5.767   1.687 -0.1166 -0.2604  0.4173
 5695TIP3    H138720   0.009   5.855   1.723 -0.1531  0.8671 -2.1303
 5695TIP3    H238721  -0.091   5.747   1.688 -0.2165  0.1917 -0.0387
 5696TIP3   OH238722   1.422   4.975   2.909  0.2646  0.4253 -0.1098
 5696TIP3    H138723   1.496   5.021   2.950  1.0638 -0.3908 -0.5882
 5696TIP3    H238724   1.447   4.883   2.913 -0.9940  0.0843  0.2075
 5697TIP3   OH238725   4.442   4.655   0.220 -0.0803  0.3450 -0.6273
 5697TIP3    H138726   4.349   4.656   0.200 -0.2576  0.1624  0.1481
 5697TIP3    H238727   4.446   4.635   0.313  0.7662 -0.5225 -0.8423
 5698TIP3   OH238728   4.855   1.309   0.622 -0.5802  0.5500  0.3110
 5698TIP3    H138729   4.782   1.267   0.668 -1.7562 -0.0968 -1.9958
 5698TIP3    H238730   4.920   1.239   0.610 -0.5917  0.5294  0.3710
 5699TIP3   OH238731   0.184   2.821   0.131  0.2530 -0.0031 -0.2290
 5699TIP3    H138732   0.269   2.860   0.151 -0.5038  2.0879 -0.8607
 5699TIP3    H238733   0.128   2.844   0.205  0.4019 -2.0793  0.5883
 5700TIP3   OH238734   3.817   2.395   0.144  0.1823 -0.3740 -0.0653
 5700TIP3    H138735   3.756   2.435   0.205  0.3042 -0.4763  0.1270
 5700TIP3    H238736   3.865   2.331   0.197 -0.4563 -1.2468 -0.5040
 5701TIP3   OH238737   0.138   4.374   0.381  0.2013 -0.4753  0.0995
 5701TIP3    H138738   0.129   4.342   0.471 -1.5374  4.3159  1.9750
 5701TIP3    H238739   0.060   4.344   0.336 -0.5881 -0.2231  1.2610
 5702TIP3   OH238740   0.238   4.650   2.826  0.4707 -0.0219  0.0539
 5702TIP3    H138741   0.179   4.721   2.799  2.0598  1.1808 -0.4266
 5702TIP3    H238742   0.219   4.578   2.766 -0.4655  0.3534 -0.1138
 5703TIP3   OH238743   4.883   6.071   7.156  0.6718 -0.0247 -0.0280
 5703TIP3    H138744   4.887   6.117   7.240 -0.1460  0.5886 -0.3103
 5703TIP3    H238745   4.874   6.141   7.091 -1.6569 -0.5741 -0.3948
 5704TIP3   OH238746   2.154   0.475   8.438 -0.5207  0.0475 -0.5417
 5704TIP3    H138747   2.106   0.548   8.477 -0.1612 -0.1869  0.3772
 5704TIP3    H238748   2.093   0.401   8.445 -0.8853  0.2552 -1.4723
 5705TIP3   OH238749   4.236   2.446   6.578 -0.4634 -0.0795 -0.1603
 5705TIP3    H138750   4.291   2.378   6.540 -0.6564 -0.4194  0.1681
 5705TIP3    H238751   4.236   2.428   6.672  0.6109  1.1941  0.1124
 5706TIP3   OH238752   5.920   5.079   0.635 -0.0640  0.1516  0.4001
 5706TIP3    H138753   5.930   5.121   0.720 -0.9119 -0.2485  0.7053
 5706TIP3    H238754   5.829   5.050   0.633  0.1193 -0.4032 -0.3827
 5707TIP3   OH238755   0.800   2.493   0.413  0.0457  0.0721 -0.6993
 5707TIP3    H138756   0.751   2.412   0.402  0.3246 -0.1225 -0.5132
 5707TIP3    H238757   0.757   2.555   0.354 -0.5562 -0.0348 -0.3878
 5708TIP3   OH238758   5.241   2.671   7.046  0.1411  0.6846  0.5152
 5708TIP3    H138759   5.312   2.728   7.074  1.7637  0.4378 -2.5920
 5708TIP3    H238760   5.283   2.607   6.988 -2.2417 -1.1770  0.6569
 5709TIP3   OH238761   0.170   1.546   7.936  0.2443 -0.3557  0.7964
 5709TIP3    H138762   0.138   1.515   7.851  0.1664  1.7221 -0.0018
 5709TIP3    H238763   0.260   1.574   7.918  1.0393 -1.9995  1.9803
 5710TIP3   OH238764   6.626   4.773   8.443 -1.2482 -0.0398  0.2363
 5710TIP3    H138765   6.677   4.696   8.418 -0.9466 -0.6680  2.5674
 5710TIP3    H238766   6.612   4.820   8.360  3.9125  0.7443 -0.5425
 5711TIP3   OH238767   5.098   2.082   7.945  0.1037  0.4849  0.2539
 5711TIP3    H138768   5.072   2.085   7.853  2.2697  0.6776 -0.4096
 5711TIP3    H238769   5.017   2.063   7.993 -1.2745  1.4932 -1.5788
 5712TIP3   OH238770   4.504   6.220   1.680  0.1000 -0.3534  0.0506
 5712TIP3    H138771   4.564   6.199   1.608  0.7523 -1.3886  0.8735
 5712TIP3    H238772   4.515   6.314   1.693 -1.0560  0.1499 -2.0960
 5713TIP3   OH238773   1.417   2.125   0.727 -0.3966 -0.3760 -0.0380
 5713TIP3    H138774   1.472   2.182   0.781 -1.0276  1.1223 -0.9349
 5713TIP3    H238775   1.394   2.053   0.785  1.7829 -0.6179  0.6305
 5714TIP3   OH238776   1.523   4.187   7.915  0.2309  0.5606  0.2996
 5714TIP3    H138777   1.569   4.245   7.855  1.5110  0.8967  1.5468
 5714TIP3    H238778   1.478   4.245   7.976  0.4055  0.2365  0.7430
 5715TIP3   OH238779   2.173   2.857   8.195 -0.0141  0.0752 -0.0629
 5715TIP3    H138780   2.182   2.764   8.171 -0.2377 -0.0799  0.4397
 5715TIP3    H238781   2.255   2.878   8.239  0.4004  0.3627 -0.9497
 5716TIP3   OH238782   6.709   5.733   8.310 -0.3528 -1.1428 -0.0981
 5716TIP3    H138783   6.668   5.806   8.264 -0.8139 -1.0626  0.4290
 5716TIP3    H238784   6.636   5.678   8.337 -0.3034 -0.0907  2.4214
 5717TIP3   OH238785   5.231   2.206   7.613  0.0084 -0.4324  0.4357
 5717TIP3    H138786   5.279   2.138   7.660  0.2076  0.2543  1.2571
 5717TIP3    H238787   5.139   2.178   7.618 -0.0888  0.0446  2.0219
 5718TIP3   OH238788   4.776   4.312   0.395 -0.0955 -0.1191  0.1135
 5718TIP3    H138789   4.716   4.344   0.328  0.9807  1.0719 -0.3213
 5718TIP3    H238790   4.738   4.341   0.478 -1.3910 -1.5286  0.0649
 5719TIP3   OH238791   5.729   5.119   2.537 -0.8001 -0.0790  0.3407
 5719TIP3    H138792   5.741   5.027   2.512  0.8947  0.1159  0.3293
 5719TIP3    H238793   5.725   5.166   2.453  1.0002  0.1325  0.3402
 5720TIP3   OH238794   4.882   3.938   8.123  0.0183  0.9369 -0.0182
 5720TIP3    H138795   4.890   4.015   8.066 -0.7727 -0.2819 -1.8762
 5720TIP3    H238796   4.972   3.911   8.140  0.3010  2.0910  0.4542
 5721TIP3   OH238797   4.968   5.887   0.379 -0.2262 -0.2779  0.1103
 5721TIP3    H138798   4.968   5.793   0.400  0.2867 -0.0527  1.1840
 5721TIP3    H238799   4.981   5.930   0.464 -0.3127  0.7594 -0.3961
 5722TIP3   OH238800   1.353   2.737   2.150  0.4079  0.2770 -0.4237
 5722TIP3    H138801   1.274   2.730   2.203 -0.1216 -1.0005 -1.3187
 5722TIP3    H238802   1.346   2.822   2.107  0.5772  1.0826  1.1013
 5723TIP3   OH238803   4.938   1.847   1.798  0.1024  0.5957 -0.4055
 5723TIP3    H138804   5.026   1.883   1.807  0.0989  0.5696 -0.2634
 5723TIP3    H238805   4.892   1.909   1.741 -0.6324  2.1562  1.7045
 5724TIP3   OH238806   2.234   2.298   8.443 -0.4398 -0.5448  0.0630
 5724TIP3    H138807   2.245   2.294   8.348 -0.1852 -3.7130  0.1189
 5724TIP3    H238808   2.323   2.294   8.477 -0.4986  1.0601  0.5076
 5725TIP3   OH238809   0.940   0.954   2.958  0.4551  0.1654 -0.2528
 5725TIP3    H138810   0.992   0.989   2.885 -1.8994 -0.3220 -2.3238
 5725TIP3    H238811   0.851   0.984   2.939 -0.9394 -3.2909  0.2010
 5726TIP3   OH238812   0.819   4.033   1.454 -0.4122 -0.2047 -0.4216
 5726TIP3    H138813   0.902   4.081   1.455 -0.2016 -0.5287  1.3826
 5726TIP3    H238814   0.752   4.100   1.439  0.0641  0.3095 -0.2793
 5727TIP3   OH238815   6.621   6.708   1.069  0.0491 -0.1675  0.3910
 5727TIP3    H138816   6.535   6.665   1.073  0.0980 -0.1697  1.5291
 5727TIP3    H238817   6.606   6.795   1.106  0.3937  0.0979 -0.0737
 5728TIP3   OH238818   4.153   6.664   1.848  0.1227  0.2894 -0.0787
 5728TIP3    H138819   4.195   6.748   1.830  0.3874  0.1620 -0.0690
 5728TIP3    H238820   4.185   6.606   1.778  1.8699 -0.4544  1.2620
 5729TIP3   OH238821   5.174   3.362   7.314  0.1984  0.1159  0.3590
 5729TIP3    H138822   5.144   3.448   7.284 -0.1532 -0.2289 -0.2980
 5729TIP3    H238823   5.254   3.381   7.363  0.9313  0.6952 -0.9861
 5730TIP3   OH238824   3.431   3.828   7.790  0.4673 -0.9208  0.2346
 5730TIP3    H138825   3.353   3.882   7.774 -0.3066 -1.9867  0.2367
 5730TIP3    H238826   3.452   3.791   7.705  2.6757  1.4509 -0.3790
 5731TIP3   OH238827   6.534   6.214   0.500  0.2088  0.6227  0.1499
 5731TIP3    H138828   6.501   6.240   0.586 -0.2695  1.5212 -0.2879
 5731TIP3    H238829   6.473   6.146   0.470  1.3956 -0.9877  1.2524
 5732TIP3   OH238830   5.590   1.108   6.966  0.4877 -0.2327  0.5791
 5732TIP3    H138831   5.616   1.171   6.898  0.8812 -1.3452 -0.3383
 5732TIP3    H238832   5.555   1.034   6.917 -2.5994  0.3469  1.6974
 5733TIP3   OH238833   0.229   2.423   2.441 -0.3089 -0.1982 -0.6083
 5733TIP3    H138834   0.303   2.375   2.478 -0.7111 -1.0205 -0.8439
 5733TIP3    H238835   0.179   2.452   2.517 -1.1128 -1.8508 -0.4607
 5734TIP3   OH238836   6.648   6.439   8.485  0.4925  0.3753 -0.4847
 5734TIP3    H138837   6.661   6.388   8.405 -0.0752  1.1471 -1.0788
 5734TIP3    H238838   6.729   6.426   8.535  0.9250  0.0297 -1.2590
 5735TIP3   OH238839   4.816   4.310   7.297 -0.4294 -0.0217 -0.2354
 5735TIP3    H138840   4.903   4.331   7.332  0.0732 -0.0878 -1.4117
 5735TIP3    H238841   4.777   4.253   7.363 -0.3845  1.6254  1.2793
 5736TIP3   OH238842   1.785   2.791   7.732  0.2168  0.1282 -0.4362
 5736TIP3    H138843   1.870   2.773   7.771 -0.0788 -1.2040 -0.3545
 5736TIP3    H238844   1.788   2.884   7.709  1.8707 -0.0123 -0.8951
 5737TIP3   OH238845   2.610   1.217   1.392  0.3632  0.0164 -0.4820
 5737TIP3    H138846   2.659   1.297   1.374  1.6695 -0.1115  1.9739
 5737TIP3    H238847   2.644   1.187   1.477 -1.9550 -1.7084 -0.0532
 5738TIP3   OH238848   5.467   4.486   0.670 -0.0401  0.1750  0.1610
 5738TIP3    H138849   5.393   4.537   0.635  0.9162  2.0626  0.7344
 5738TIP3    H238850   5.430   4.438   0.744 -1.0537 -0.2674 -0.6056
 5739TIP3   OH238851   1.946   6.169   0.136 -0.0953  0.3534  0.8007
 5739TIP3    H138852   1.965   6.154   0.044  0.1864  1.5150  0.6509
 5739TIP3    H238853   1.851   6.156   0.143 -0.1812  0.6553  0.2554
 5740TIP3   OH238854   0.721   0.649   1.748  0.3414  0.3331  0.3045
 5740TIP3    H138855   0.803   0.641   1.797  0.9773 -1.2318 -0.9253
 5740TIP3    H238856   0.730   0.731   1.699  1.5721 -0.2387 -0.4679
 5741TIP3   OH238857   1.819   0.215   7.729  0.1140  0.3785  0.3628
 5741TIP3    H138858   1.777   0.130   7.744  0.0103  0.6094  1.4738
 5741TIP3    H238859   1.891   0.195   7.669  0.0892 -0.4971  0.6038
 5742TIP3   OH238860   4.407   4.936   0.207 -0.0466 -0.2188 -0.9616
 5742TIP3    H138861   4.407   4.844   0.233  0.7446 -0.3427 -1.3733
 5742TIP3    H238862   4.315   4.955   0.187 -0.1412 -1.0549 -1.3606
 5743TIP3   OH238863   3.513   5.331   0.760  0.0982 -0.0288  0.3198
 5743TIP3    H138864   3.530   5.413   0.806 -1.9835  0.6191  0.0479
 5743TIP3    H238865   3.537   5.348   0.669  0.9169 -0.1798  0.4972
 5744TIP3   OH238866   2.327   5.655   8.483  0.3985 -0.1038  0.1045
 5744TIP3    H138867   2.236   5.635   8.458  0.8665 -0.2932 -1.5949
 5744TIP3    H238868   2.322   5.743   8.520 -0.3974  0.1526 -0.5625
 5745TIP3   OH238869   1.620   4.685   7.367 -0.1295 -0.9330 -0.4070
 5745TIP3    H138870   1.600   4.754   7.304 -0.3348 -1.4151 -0.8750
 5745TIP3    H238871   1.674   4.622   7.319  0.7317 -0.7108  0.2393
 5746TIP3   OH238872   5.682   5.851   0.346 -0.1158  0.1586 -0.2371
 5746TIP3    H138873   5.707   5.851   0.253  2.8575 -0.4072  0.4753
 5746TIP3    H238874   5.666   5.759   0.366  1.5492 -0.0442  0.3073
 5747TIP3   OH238875   6.558   1.208   7.574 -0.0562  0.0706 -0.2930
 5747TIP3    H138876   6.554   1.133   7.514 -1.0517  0.6912 -1.0213
 5747TIP3    H238877   6.558   1.169   7.661  0.4231 -0.8062 -0.6662
 5748TIP3   OH238878   1.883   2.384   7.126  0.8059  0.3316  0.6321
 5748TIP3    H138879   1.881   2.478   7.108 -2.2628  0.2607  0.1000
 5748TIP3    H238880   1.801   2.367   7.173  1.7473 -1.9461  1.5974
 5749TIP3   OH238881   6.728   3.693   7.349 -0.1723 -0.5167 -0.2084
 5749TIP3    H138882   6.765   3.781   7.339 -0.2190 -0.2619  1.5367
 5749TIP3    H238883   6.642   3.698   7.306  0.0561  0.1156 -0.6078
 5750TIP3   OH238884   1.777   0.062   2.406 -0.9617 -0.9154 -0.3757
 5750TIP3    H138885   1.789   0.133   2.343 -1.0682 -0.4889  0.0732
 5750TIP3    H238886   1.691   0.025   2.384 -1.0571 -0.6819 -0.4039
 5751TIP3   OH238887   3.401   2.816   7.897  0.0591  0.0999 -0.2547
 5751TIP3    H138888   3.371   2.828   7.807 -1.7568 -1.3654  0.1140
 5751TIP3    H238889   3.496   2.826   7.891 -0.2156  2.6671 -1.8559
 5752TIP3   OH238890   1.243   4.723   2.630  0.5216  0.0558  0.5494
 5752TIP3    H138891   1.208   4.638   2.657  1.5504 -1.1918 -1.7040
 5752TIP3    H238892   1.275   4.763   2.711  0.6000 -2.0125  1.6064
 5753TIP3   OH238893   0.425   1.638   8.725 -0.4435 -0.5862 -0.2312
 5753TIP3    H138894   0.403   1.716   8.675  0.5886  0.8167  1.3760
 5753TIP3    H238895   0.427   1.668   8.816  2.5018 -1.8481  0.2253
 5754TIP3   OH238896   2.131   1.647   1.396  0.4067  0.2564 -0.3205
 5754TIP3    H138897   2.225   1.629   1.396  0.4784  0.5634  0.6578
 5754TIP3    H238898   2.109   1.658   1.304  1.5700  1.4283 -0.4827
 5755TIP3   OH238899   4.067   6.499   0.607 -0.2838  0.1183 -0.7486
 5755TIP3    H138900   4.074   6.506   0.512 -0.4233 -0.9873 -0.8640
 5755TIP3    H238901   3.975   6.518   0.626  0.0844  1.9614 -0.6346
 5756TIP3   OH238902   5.759   2.127   0.922  0.1477 -0.0512 -0.6043
 5756TIP3    H138903   5.766   2.033   0.909 -1.0715 -0.6553  2.2869
 5756TIP3    H238904   5.680   2.138   0.974  1.1020  2.3975  0.4821
 5757TIP3   OH238905   3.528   1.551   7.440  0.4358  1.2044  0.2898
 5757TIP3    H138906   3.585   1.487   7.482 -2.2418 -1.4557  0.1797
 5757TIP3    H238907   3.563   1.559   7.351  1.5557  0.8960  0.6904
 5758TIP3   OH238908   6.502   2.828   7.652 -0.5246 -0.4187 -0.3519
 5758TIP3    H138909   6.439   2.899   7.651  0.6114  0.6214 -0.6233
 5758TIP3    H238910   6.560   2.847   7.725 -0.6316 -1.4768  0.0340
 5759TIP3   OH238911   2.380   0.912   7.043 -0.4389  0.3231 -0.2197
 5759TIP3    H138912   2.380   0.903   6.948  0.6797  0.2199 -0.2151
 5759TIP3    H238913   2.358   1.004   7.058  1.2269  0.8194 -0.6512
 5760TIP3   OH238914   5.793   2.476   1.488  0.1216 -0.4535 -0.1146
 5760TIP3    H138915   5.885   2.487   1.513  0.0409 -0.5694  0.2503
 5760TIP3    H238916   5.755   2.422   1.559 -0.2890 -0.1780 -0.1185
 5761TIP3   OH238917   3.312   1.225   0.683 -0.3092 -0.0832 -0.0555
 5761TIP3    H138918   3.355   1.160   0.739  1.2365  1.2938  0.4651
 5761TIP3    H238919   3.345   1.207   0.595 -2.7899 -2.2914 -0.6601
 5762TIP3   OH238920   2.120   5.087   0.548 -0.0922 -0.0787  0.1457
 5762TIP3    H138921   2.086   5.050   0.630  0.3064  1.1951  0.9256
 5762TIP3    H238922   2.179   5.020   0.514 -0.2452 -0.6168  0.9072
 5763TIP3   OH238923   4.916   5.013   7.271  0.2835 -0.1266  0.3422
 5763TIP3    H138924   4.952   4.939   7.320  0.3041  0.5147  1.3293
 5763TIP3    H238925   4.990   5.045   7.219  0.5259 -0.2291  0.6190
 5764TIP3   OH238926   4.416   0.084   7.804  0.8090  0.6057 -0.7302
 5764TIP3    H138927   4.432   0.156   7.743 -0.1692  0.2485 -1.4361
 5764TIP3    H238928   4.418   0.126   7.891 -0.6591  1.6945 -1.1714
 5765TIP3   OH238929   6.320   4.662   1.153 -0.1202  0.1977 -0.2281
 5765TIP3    H138930   6.319   4.593   1.086 -1.0190  1.2504 -1.3574
 5765TIP3    H238931   6.231   4.662   1.189  0.3292 -0.2819  0.8948
 5766TIP3   OH238932   0.627   3.685   1.703  0.4571 -0.1217 -0.1059
 5766TIP3    H138933   0.578   3.765   1.725  0.3866 -0.0990 -0.3355
 5766TIP3    H238934   0.676   3.664   1.782  1.4449  0.8536 -0.4256
 5767TIP3   OH238935   2.395   6.699   1.774  0.2937 -0.5119  0.1183
 5767TIP3    H138936   2.302   6.688   1.794  0.6519 -0.6936  1.8455
 5767TIP3    H238937   2.421   6.776   1.825  0.9322  0.0042 -0.9580
 5768TIP3   OH238938   4.573   6.687   8.420 -0.1179  0.0133  0.0754
 5768TIP3    H138939   4.606   6.627   8.353 -1.8861 -1.6499  0.5850
 5768TIP3    H238940   4.499   6.730   8.380 -0.0448  0.4015  0.3535
 5769TIP3   OH238941   4.908   6.305   0.538 -0.5216 -0.3724 -0.2022
 5769TIP3    H138942   4.920   6.377   0.600 -0.7282 -1.1163  0.7275
 5769TIP3    H238943   4.892   6.228   0.593 -0.3858 -1.1198 -1.1727
 5770TIP3   OH238944   0.298   4.199   8.573  0.1980  0.7775  0.0478
 5770TIP3    H138945   0.218   4.249   8.588 -0.3252 -0.2368  0.7580
 5770TIP3    H238946   0.333   4.234   8.492 -2.5264 -0.6884 -1.9326
 5771TIP3   OH238947   5.336   6.105   2.349  0.0218  0.1908  0.1069
 5771TIP3    H138948   5.257   6.108   2.403  0.5739 -4.3752  1.5733
 5771TIP3    H238949   5.405   6.139   2.406 -0.4166  2.0083 -0.3716
 5772TIP3   OH238950   1.189   4.114   7.529  0.0027 -0.0354 -0.3483
 5772TIP3    H138951   1.154   4.123   7.440 -1.3237 -1.0677  0.0459
 5772TIP3    H238952   1.162   4.027   7.557  1.4070 -0.1870  0.6581
 5773TIP3   OH238953   1.143   4.032   0.484 -0.4465 -0.3727 -0.4895
 5773TIP3    H138954   1.079   4.078   0.430 -1.9639 -1.4729  0.3045
 5773TIP3    H238955   1.094   3.961   0.524  1.4877 -1.8040 -0.5313
 5774TIP3   OH238956   0.376   4.185   8.841  0.5738 -0.5216  0.1628
 5774TIP3    H138957   0.472   4.182   8.842  0.8284  2.9510  0.9157
 5774TIP3    H238958   0.354   4.212   8.752  0.2118 -1.8124 -0.1579
 5775TIP3   OH238959   1.351   0.021   7.852  0.4307 -0.1630  0.5869
 5775TIP3    H138960   1.318  -0.015   7.769  2.1952 -0.7029  0.0733
 5775TIP3    H238961   1.354  -0.054   7.911 -0.7143  0.1990  1.1322
 5776TIP3   OH238962   0.499   6.104   1.600 -0.0263 -0.6957  0.5499
 5776TIP3    H138963   0.506   6.135   1.691  0.3522  0.0919  0.2611
 5776TIP3    H238964   0.518   6.010   1.606  0.6934 -0.5212  1.2013
 5777TIP3   OH238965   3.515   1.607   7.984  0.5326 -0.1090 -0.3712
 5777TIP3    H138966   3.504   1.701   8.002 -0.7005 -0.4512  0.8361
 5777TIP3    H238967   3.464   1.592   7.904 -1.2578 -0.1637  0.7457
 5778TIP3   OH238968   6.181   3.802   2.349  0.2533  0.2137  0.1576
 5778TIP3    H138969   6.115   3.815   2.417 -0.7591  0.3900 -0.8183
 5778TIP3    H238970   6.204   3.710   2.355  1.6390  0.6261  1.9876
 5779TIP3   OH238971   1.617   4.884   0.041  0.4966 -0.4034 -0.0704
 5779TIP3    H138972   1.593   4.792   0.041 -2.4610  0.2598  0.0514
 5779TIP3    H238973   1.535   4.930   0.026  1.2631  2.3457  2.9258
 5780TIP3   OH238974   6.256   0.076   1.035  0.8979 -0.8904  0.0810
 5780TIP3    H138975   6.271   0.000   1.091 -2.6097 -1.3422  0.6827
 5780TIP3    H238976   6.207   0.041   0.961  0.7314  0.5342 -0.5069
 5781TIP3   OH238977   6.439   5.763   7.508 -0.1009 -0.1272 -0.1096
 5781TIP3    H138978   6.423   5.680   7.464 -1.9958  1.0419 -1.7658
 5781TIP3    H238979   6.376   5.824   7.469  1.2132  2.1017  1.0541
 5782TIP3   OH238980   6.809   6.733   8.249 -0.3613  0.1091  0.1741
 5782TIP3    H138981   6.895   6.771   8.270  0.2273 -0.2064 -1.5248
 5782TIP3    H238982   6.827   6.667   8.183 -1.8101 -0.7394  0.5824
 5783TIP3   OH238983   5.693   2.968   2.178 -0.2472  0.1954 -0.5612
 5783TIP3    H138984   5.662   2.969   2.088 -2.0623  1.4412  0.0199
 5783TIP3    H238985   5.701   3.061   2.202  0.7970 -0.1143  0.3763
 5784TIP3   OH238986   4.879   0.660   1.749 -0.5681 -0.5805 -0.3301
 5784TIP3    H138987   4.809   0.656   1.814 -0.1324  3.0934  0.5751
 5784TIP3    H238988   4.863   0.584   1.692 -3.6061 -1.4287  1.4321
 5785TIP3   OH238989   0.435   0.269   2.052  0.3743 -0.1748  0.6638
 5785TIP3    H138990   0.385   0.246   2.130  2.8343 -1.6266  1.9436
 5785TIP3    H238991   0.471   0.356   2.072 -0.4324  0.2285  0.3735
 5786TIP3   OH238992   1.403   4.559   0.471 -0.0702  0.0269  0.0962
 5786TIP3    H138993   1.412   4.502   0.547  1.6468  0.0927 -0.0228
 5786TIP3    H238994   1.338   4.516   0.416  1.0989 -1.7838  0.0596
 5787TIP3   OH238995   6.311   2.879   1.369 -0.0653 -0.4496 -0.0225
 5787TIP3    H138996   6.307   2.838   1.456  1.5252 -0.8100 -0.0770
 5787TIP3    H238997   6.330   2.971   1.388 -0.6988 -0.3228  0.0233
 5788TIP3   OH238998   5.222   6.509   0.497 -0.4974  0.0283  0.2903
 5788TIP3    H138999   5.281   6.520   0.571 -0.0127  0.7588 -0.1962
 5788TIP3    H239000   5.236   6.586   0.443 -0.0890 -0.9766 -1.0998
 5789TIP3   OH239001   0.848   0.826   1.295  0.1230  0.6273  0.4348
 5789TIP3    H139002   0.915   0.788   1.238 -0.8504 -0.2573 -0.1379
 5789TIP3    H239003   0.827   0.756   1.357 -0.6189  0.7400  0.3117
 5790TIP3   OH239004   6.849   1.554   3.149  0.3444  0.2495  0.0634
 5790TIP3    H139005   6.833   1.549   3.055  1.3099 -0.3034 -0.0797
 5790TIP3    H239006   6.830   1.466   3.182  0.4862  0.3059  0.3039
 5791TIP3   OH239007   4.167   0.792   8.397 -0.0545  0.1691 -0.2809
 5791TIP3    H139008   4.128   0.879   8.409 -3.0909 -1.3176  1.8040
 5791TIP3    H239009   4.139   0.764   8.310  1.1759  1.2875 -1.0849
 5792TIP3   OH239010   2.993   1.392   0.297  0.2865  0.2481 -0.5052
 5792TIP3    H139011   2.936   1.322   0.330  0.2651  1.3151  1.8798
 5792TIP3    H239012   3.063   1.346   0.251 -0.6653 -1.2398 -0.5456
 5793TIP3   OH239013   0.801   4.445   2.815 -0.0179  0.4527 -0.4369
 5793TIP3    H139014   0.775   4.375   2.875 -1.6281  0.4921 -1.0282
 5793TIP3    H239015   0.857   4.401   2.750  1.1848  0.2811  0.6646
 5794TIP3   OH239016   2.202   3.389   6.941  0.4547  0.5394 -0.1342
 5794TIP3    H139017   2.149   3.468   6.933 -0.1097  0.0197 -1.9521
 5794TIP3    H239018   2.158   3.324   6.887  0.8394 -1.1030  1.4152
 5795TIP3   OH239019   4.398   4.190   2.572 -0.2397  0.0089  0.1886
 5795TIP3    H139020   4.303   4.186   2.560 -0.3723  0.7021  0.9187
 5795TIP3    H239021   4.433   4.135   2.502 -1.2365 -1.5057  0.8301
 5796TIP3   OH239022   5.087   1.483   0.925 -0.2433 -0.1917 -0.2318
 5796TIP3    H139023   5.038   1.546   0.872 -1.4176  0.6088  1.6852
 5796TIP3    H239024   5.075   1.513   1.015  0.4917 -2.2746  0.6245
 5797TIP3   OH239025   0.885   2.216   1.642 -0.2251  0.0325 -0.1498
 5797TIP3    H139026   0.870   2.308   1.663  0.4136 -0.2407  1.6256
 5797TIP3    H239027   0.803   2.172   1.665 -0.1156 -0.0153  0.1514
 5798TIP3   OH239028   2.571   1.307   7.965  0.0936 -0.5731  0.3650
 5798TIP3    H139029   2.516   1.272   8.036 -0.2447 -2.9519 -0.9735
 5798TIP3    H239030   2.617   1.231   7.931 -0.7559  0.2043 -2.8406
 5799TIP3   OH239031   6.620   0.747   7.732  0.1828  0.1507 -0.4336
 5799TIP3    H139032   6.630   0.743   7.637  1.8980 -0.6408 -0.2482
 5799TIP3    H239033   6.566   0.671   7.754  2.0464 -1.2571 -0.5423
 5800TIP3   OH239034   4.440   6.464   7.365 -0.2847 -0.1777  0.0372
 5800TIP3    H139035   4.409   6.391   7.418 -1.7926  0.1750 -0.2985
 5800TIP3    H239036   4.417   6.439   7.275 -0.5903  0.5856 -0.1053
 5801TIP3   OH239037   3.626   2.658   2.094  0.5527 -0.3789  0.4204
 5801TIP3    H139038   3.719   2.632   2.092 -0.0656 -3.0464  1.3440
 5801TIP3    H239039   3.595   2.628   2.179 -1.4501 -0.7758 -0.3960
 5802TIP3   OH239040   3.471   1.267   7.935  0.9564 -0.8072  0.0398
 5802TIP3    H139041   3.455   1.189   7.881  0.8492 -1.1513  0.5591
 5802TIP3    H239042   3.524   1.236   8.008  1.2472 -0.3096  0.0463
 5803TIP3   OH239043   0.066   6.751   2.532  0.1623 -0.2155 -0.3933
 5803TIP3    H139044   0.059   6.841   2.499  0.3901  0.2208  0.7062
 5803TIP3    H239045  -0.021   6.731   2.565  0.0932 -0.4227 -0.7067
 5804TIP3   OH239046   0.111   4.090   1.969 -0.0377 -0.3293 -0.2235
 5804TIP3    H139047   0.046   4.045   2.023 -0.6436  1.0935  0.3047
 5804TIP3    H239048   0.059   4.139   1.905  0.4504  1.2677  0.5548
 5805TIP3   OH239049   4.330   4.292   0.107  0.6268 -0.0848  0.2650
 5805TIP3    H139050   4.278   4.340   0.171  1.9649  2.1400 -0.2316
 5805TIP3    H239051   4.290   4.205   0.104 -3.3559  1.5632 -0.4248
 5806TIP3   OH239052   5.919   6.514   8.068 -0.1115  0.6148 -0.2494
 5806TIP3    H139053   5.845   6.573   8.081 -1.6597 -1.2958  0.1208
 5806TIP3    H239054   5.916   6.491   7.975  0.1752  0.7084 -0.2840
 5807TIP3   OH239055   3.788   3.134   0.372 -1.0410  0.0447 -0.1341
 5807TIP3    H139056   3.829   3.216   0.403 -0.1697 -0.3465 -0.2246
 5807TIP3    H239057   3.803   3.135   0.278  0.7197 -1.1338  0.0877
 5808TIP3   OH239058   1.916   4.692   8.404 -0.0048 -0.3906 -0.6963
 5808TIP3    H139059   1.875   4.778   8.394 -2.0195 -1.2861 -0.4417
 5808TIP3    H239060   1.951   4.672   8.318  0.2988  0.5798 -0.8128
 5809TIP3   OH239061   3.602   5.517   3.018  0.0605  0.0520 -0.1429
 5809TIP3    H139062   3.676   5.577   3.025 -0.5159  0.7835 -0.1470
 5809TIP3    H239063   3.538   5.565   2.965 -1.0648  0.1094  1.2002
 5810TIP3   OH239064   4.745   1.128   7.722 -0.5842  0.0413 -0.7973
 5810TIP3    H139065   4.786   1.205   7.684 -0.0729 -0.0397 -0.4233
 5810TIP3    H239066   4.687   1.162   7.790  0.4985  0.0560  0.1563
 5811TIP3   OH239067   1.967   1.502   7.269  0.6599  0.0146 -0.2171
 5811TIP3    H139068   1.938   1.578   7.219  0.6707 -1.1490 -2.0892
 5811TIP3    H239069   2.057   1.487   7.239  0.8525 -0.4363  0.5497
 5812TIP3   OH239070   1.698   2.977   2.112  0.0489 -0.2328  0.4316
 5812TIP3    H139071   1.603   2.983   2.105  0.1553  0.1174 -1.3527
 5812TIP3    H239072   1.727   3.068   2.120  0.3030 -0.1640 -0.9602
 5813TIP3   OH239073   1.818   1.488   8.494 -0.6829 -0.0821  0.2821
 5813TIP3    H139074   1.739   1.514   8.542 -0.3256  0.3236  0.6556
 5813TIP3    H239075   1.888   1.490   8.559 -0.3049 -0.1487 -0.1163
 5814TIP3   OH239076   5.710   2.397   0.678  0.2801  0.7321 -0.2116
 5814TIP3    H139077   5.736   2.378   0.588 -0.4184 -4.6330  0.3665
 5814TIP3    H239078   5.784   2.367   0.731 -0.9495 -0.2604  1.0275
 5815TIP3   OH239079   2.320   1.118   0.832  0.3925 -0.0758 -0.0799
 5815TIP3    H139080   2.322   1.041   0.889 -2.5762 -0.4986 -0.4143
 5815TIP3    H239081   2.376   1.182   0.876  2.4898 -2.1663  0.4929
 5816TIP3   OH239082   6.073   0.294   7.678 -0.2131  0.0684  0.5902
 5816TIP3    H139083   6.166   0.275   7.668 -0.4234 -0.6064 -0.1838
 5816TIP3    H239084   6.046   0.330   7.593 -0.4380  1.2783  1.1422
 5817TIP3   OH239085   5.179   4.144   7.734 -0.0590  0.4584  0.0476
 5817TIP3    H139086   5.224   4.214   7.687  0.4247 -0.2513 -0.5762
 5817TIP3    H239087   5.206   4.064   7.689  1.1971 -0.3496  2.1210
 5818TIP3   OH239088   6.044   3.840   2.114  0.1809 -0.2657  0.3305
 5818TIP3    H139089   5.957   3.871   2.139 -0.0323 -0.6418  0.0635
 5818TIP3    H239090   6.080   3.801   2.194  0.0841 -0.1590  0.4264
 5819TIP3   OH239091   2.151   4.702   1.212  0.2054 -0.1959 -0.0771
 5819TIP3    H139092   2.212   4.628   1.212  0.8463  0.3245  0.3718
 5819TIP3    H239093   2.190   4.765   1.272 -0.0950  0.7003 -0.8073
 5820TIP3   OH239094   5.162   4.153   8.218 -0.2559  0.5078 -0.8020
 5820TIP3    H139095   5.165   4.212   8.143 -0.6154  2.3917  0.5717
 5820TIP3    H239096   5.246   4.107   8.217  0.3307  1.5641 -1.5519
 5821TIP3   OH239097   4.315   5.467   0.942 -0.2906  0.0688 -0.2238
 5821TIP3    H139098   4.339   5.535   1.004 -0.3991  0.0491 -0.1618
 5821TIP3    H239099   4.323   5.509   0.856 -0.4927  0.1987 -0.1778
 5822TIP3   OH239100   4.757   5.424   1.652  0.3330 -0.0354  0.2537
 5822TIP3    H139101   4.791   5.494   1.708  0.0827  1.2278 -1.0960
 5822TIP3    H239102   4.830   5.401   1.595  0.7755 -1.7393  1.4340
 5823TIP3   OH239103   2.642   5.637   0.573 -0.4959 -0.4322  0.0528
 5823TIP3    H139104   2.547   5.638   0.567 -0.4450 -0.2734 -0.8142
 5823TIP3    H239105   2.672   5.636   0.483  0.3316 -0.2646  0.3173
 5824TIP3   OH239106   1.839   5.750   1.156 -0.2094 -0.4487  0.0479
 5824TIP3    H139107   1.886   5.830   1.131 -0.1620 -0.7970 -1.0635
 5824TIP3    H239108   1.853   5.691   1.082 -2.2820 -0.6003 -0.2696
 5825TIP3   OH239109   5.387   2.419   0.027  0.0678  0.5025 -0.3392
 5825TIP3    H139110   5.480   2.400   0.017  0.0486 -0.5922  1.2144
 5825TIP3    H239111   5.348   2.395  -0.057  0.6925 -2.6180  0.1553
 5826TIP3   OH239112   5.469   3.096   0.282 -0.7691  0.2590 -0.9540
 5826TIP3    H139113   5.495   3.018   0.330 -0.0061  0.7261 -0.5958
 5826TIP3    H239114   5.523   3.094   0.202 -0.8048  0.3820 -0.9808
 5827TIP3   OH239115   5.048   2.828   7.622 -0.6479  0.0806 -0.4129
 5827TIP3    H139116   5.064   2.747   7.670 -1.4784  0.9435  1.4304
 5827TIP3    H239117   4.980   2.805   7.558  0.4954 -1.1057 -1.2377
 5828TIP3   OH239118   1.042   6.472   1.240  0.3089 -0.2205 -0.1437
 5828TIP3    H139119   1.061   6.391   1.191 -0.7114 -0.5958  0.0598
 5828TIP3    H239120   1.066   6.542   1.179 -2.0057 -0.6641 -1.7086
 5829TIP3   OH239121   6.532   2.458   8.300 -0.1479  0.2179 -0.3938
 5829TIP3    H139122   6.561   2.539   8.342 -1.1301  0.0802  0.5791
 5829TIP3    H239123   6.514   2.483   8.209  1.5424  0.6203 -0.6459
 5830TIP3   OH239124   1.364   1.630   1.349 -0.4187  0.1606  0.5546
 5830TIP3    H139125   1.350   1.715   1.307  0.9504  0.5258  0.8136
 5830TIP3    H239126   1.430   1.647   1.416 -0.1406 -1.1103  0.6146
 5831TIP3   OH239127   3.726   5.994   8.638 -0.1459  0.9926 -0.1285
 5831TIP3    H139128   3.792   6.056   8.609  1.2935 -0.1358  0.6104
 5831TIP3    H239129   3.695   5.952   8.558  1.5554  0.0713 -0.3282
 5832TIP3   OH239130   3.173   6.794   6.940 -0.0365  0.3846 -0.4628
 5832TIP3    H139131   3.079   6.790   6.923 -0.5112 -2.7373  2.0449
 5832TIP3    H239132   3.213   6.779   6.854 -1.8905 -1.0708 -1.1359
 5833TIP3   OH239133   6.158   2.141   3.531  0.3260  0.1450  1.4159
 5833TIP3    H139134   6.117   2.080   3.469  0.2428 -0.7716  2.3360
 5833TIP3    H239135   6.234   2.175   3.484  0.5916 -0.9714  0.9898
 5834TIP3   OH239136   0.000   2.109   1.277 -0.6169  0.0205  0.8407
 5834TIP3    H139137   0.075   2.083   1.331  0.4811 -0.2503 -0.7324
 5834TIP3    H239138  -0.038   2.184   1.324 -0.0446 -0.5287  2.2350
 5835TIP3   OH239139   0.502   4.123   8.174  0.0785  1.0045 -0.3616
 5835TIP3    H139140   0.409   4.141   8.157  0.5125  2.6066 -1.2233
 5835TIP3    H239141   0.517   4.158   8.262 -0.6547 -1.4821  0.8507
 5836TIP3   OH239142   3.084   0.931   1.731  0.3513  0.1452  0.3474
 5836TIP3    H139143   3.062   1.002   1.671 -0.0835  1.2052  1.7230
 5836TIP3    H239144   3.042   0.954   1.813 -1.9337 -2.9433  0.2271
 5837TIP3   OH239145   4.819   0.854   8.228 -0.2337  0.0393 -0.6201
 5837TIP3    H139146   4.733   0.892   8.243 -0.5184 -0.3347 -1.2363
 5837TIP3    H239147   4.827   0.850   8.132  0.3700 -0.1440 -0.5662
 5838TIP3   OH239148   3.480   1.899   0.339 -0.1222  0.3902  0.4172
 5838TIP3    H139149   3.573   1.889   0.319 -0.1381 -0.5676  0.7755
 5838TIP3    H239150   3.437   1.829   0.291 -0.6491  0.7537  0.3518
 5839TIP3   OH239151   5.413   5.958   6.788  0.1608 -0.1765  0.1947
 5839TIP3    H139152   5.324   5.931   6.811 -0.6281  0.0940 -2.2447
 5839TIP3    H239153   5.410   6.054   6.790 -0.4031 -0.0668 -2.2659
 5840TIP3   OH239154   0.705   4.603   8.024  0.1062  0.4633 -0.1462
 5840TIP3    H139155   0.755   4.619   7.944 -2.6066 -0.0713 -2.0767
 5840TIP3    H239156   0.741   4.523   8.060 -0.6050 -1.0849 -2.6386
 5841TIP3   OH239157   6.819   3.171   1.009  0.0245 -0.3996  0.4975
 5841TIP3    H139158   6.767   3.250   0.994 -0.3133 -0.6497  0.3437
 5841TIP3    H239159   6.907   3.195   0.980 -0.3499 -0.4884 -0.8039
 5842TIP3   OH239160   6.310   0.922   1.580  0.2046  0.3476  0.2287
 5842TIP3    H139161   6.284   0.916   1.672  0.1274 -1.6015  0.1288
 5842TIP3    H239162   6.405   0.926   1.582  0.1707  1.1673  0.4087
 5843TIP3   OH239163   0.035   4.754   2.125 -0.1847 -0.2737 -0.1162
 5843TIP3    H139164   0.104   4.812   2.156 -0.5227 -0.2432  0.5901
 5843TIP3    H239165   0.065   4.725   2.038  0.4537  0.1589 -0.0442
 5844TIP3   OH239166   2.394   4.360   0.636  0.2215 -0.1982 -0.1887
 5844TIP3    H139167   2.343   4.391   0.711  1.6677  1.9823 -0.0106
 5844TIP3    H239168   2.455   4.432   0.618  2.4493 -2.1866 -1.0949
 5845TIP3   OH239169   3.212   4.685   3.068 -0.4518  0.1750  0.0813
 5845TIP3    H139170   3.209   4.781   3.073 -0.8063  0.1429  0.5819
 5845TIP3    H239171   3.286   4.666   3.011 -0.1369  0.7411  0.2998
 5846TIP3   OH239172   5.735   6.830   0.631  0.3620 -0.2603 -0.1956
 5846TIP3    H139173   5.770   6.755   0.679  1.1203  0.9989  1.3106
 5846TIP3    H239174   5.665   6.864   0.686 -1.9068 -1.4635 -2.1826
 5847TIP3   OH239175   0.927   0.691   0.910  0.5790  0.0228 -0.4742
 5847TIP3    H139176   0.976   0.669   0.989 -0.5768  2.3740  1.0168
 5847TIP3    H239177   0.867   0.617   0.898  0.2381 -0.0525  1.3579
 5848TIP3   OH239178   5.303   0.128   7.102  0.2235  0.2429  0.3809
 5848TIP3    H139179   5.211   0.103   7.101  0.8778 -2.5222 -1.4963
 5848TIP3    H239180   5.308   0.204   7.044 -0.7320 -0.2330 -0.3485
 5849TIP3   OH239181   4.481   2.871   2.333  0.0302  0.8925 -0.1488
 5849TIP3    H139182   4.565   2.849   2.292 -0.6333  0.3380 -1.2677
 5849TIP3    H239183   4.427   2.901   2.261 -0.8252  0.9880  0.5219
 5850TIP3   OH239184   3.199   1.188   8.580  0.7368  0.0086  0.3835
 5850TIP3    H139185   3.159   1.275   8.588  2.6455  1.0370 -0.6582
 5850TIP3    H239186   3.127   1.127   8.599 -0.7569  1.7885  0.7330
 5851TIP3   OH239187   6.246   3.064   8.274  0.4653  0.3083  0.1702
 5851TIP3    H139188   6.182   3.130   8.301  1.6125  2.5077 -2.0397
 5851TIP3    H239189   6.316   3.115   8.232  1.7746 -2.2880 -0.9985
 5852TIP3   OH239190   5.128   2.314   0.136  0.1492 -0.0603 -0.2124
 5852TIP3    H139191   5.204   2.373   0.129  1.5547 -1.6401  0.9520
 5852TIP3    H239192   5.160   2.240   0.187 -2.1614 -0.8764  0.1633
 5853TIP3   OH239193   1.336   6.796   8.601  0.1933 -0.1041  0.4080
 5853TIP3    H139194   1.362   6.763   8.688 -0.0150  1.5834  1.1476
 5853TIP3    H239195   1.337   6.891   8.611  1.4882  0.1802 -1.8485
 5854TIP3   OH239196   6.491   2.196   2.205 -0.5762  0.0941  0.2547
 5854TIP3    H139197   6.470   2.255   2.133 -1.1877  0.2814  0.5823
 5854TIP3    H239198   6.587   2.191   2.204 -0.5866 -0.1559 -0.7621
 5855TIP3   OH239199   3.807   1.697   1.286  0.1379  0.5881 -0.3751
 5855TIP3    H139200   3.737   1.649   1.329  1.6911  1.0082  2.8974
 5855TIP3    H239201   3.783   1.790   1.298  1.3514  0.7414  1.0841
 5856TIP3   OH239202   5.021   4.285   1.114  0.2649 -0.4435 -0.2073
 5856TIP3    H139203   4.990   4.369   1.079 -0.3256 -1.9311 -3.7567
 5856TIP3    H239204   4.942   4.232   1.124  0.8417 -1.4106 -0.6251
 5857TIP3   OH239205   2.376   3.738   8.580 -0.5892 -0.2909  0.6265
 5857TIP3    H139206   2.317   3.675   8.539 -1.0809 -0.0385  0.9391
 5857TIP3    H239207   2.463   3.711   8.551 -0.8919 -0.3621 -0.2464
 5858TIP3   OH239208   4.891   2.308   2.536  0.1161 -0.0920 -0.0920
 5858TIP3    H139209   4.825   2.242   2.516  0.7146 -0.8924  0.5349
 5858TIP3    H239210   4.931   2.279   2.618  0.5737  0.9064  0.0571
 5859TIP3   OH239211   0.687   1.969   0.409 -0.3829 -0.0590  0.0121
 5859TIP3    H139212   0.769   2.008   0.439 -0.5995  1.0382 -0.7609
 5859TIP3    H239213   0.662   1.909   0.479  0.1300  0.9575  1.0976
 5860TIP3   OH239214   0.411   6.745   0.245 -0.0379  0.7020 -0.0278
 5860TIP3    H139215   0.444   6.797   0.172 -0.4890  0.4469 -0.4165
 5860TIP3    H239216   0.487   6.696   0.276 -0.4040 -1.3285 -2.1162
 5861TIP3   OH239217   1.426   1.253   7.704 -0.2139 -0.3087 -0.4161
 5861TIP3    H139218   1.502   1.262   7.645 -0.7866  0.7784 -1.0315
 5861TIP3    H239219   1.362   1.315   7.669 -1.2559 -0.9467  0.3150
 5862TIP3   OH239220   0.540   3.627   6.966 -0.0572  0.5815 -0.7272
 5862TIP3    H139221   0.505   3.619   7.054  1.4619  0.6715 -0.0836
 5862TIP3    H239222   0.526   3.719   6.943 -0.3897  0.5756 -0.5445
 5863TIP3   OH239223   2.337   5.570   2.295  0.4644 -0.1582 -0.1618
 5863TIP3    H139224   2.266   5.628   2.267 -0.1531 -0.5165  0.6076
 5863TIP3    H239225   2.296   5.513   2.361  1.2200 -1.0526 -0.4556
 5864TIP3   OH239226   2.763   6.210   6.960 -0.1854  0.0884  0.1432
 5864TIP3    H139227   2.777   6.115   6.956  1.0797  0.2961 -1.9135
 5864TIP3    H239228   2.669   6.219   6.976 -0.4025 -1.5126  0.0156
 5865TIP3   OH239229   0.666   2.457   8.321  0.0511 -0.8879  0.6032
 5865TIP3    H139230   0.629   2.518   8.257 -1.2643 -1.2589  0.9757
 5865TIP3    H239231   0.739   2.505   8.360  0.6522 -0.5161 -0.8987
 5866TIP3   OH239232   5.347   2.368   1.137  0.4694  0.3536  0.0789
 5866TIP3    H139233   5.408   2.404   1.071  1.3988 -0.8851  0.2235
 5866TIP3    H239234   5.349   2.431   1.208  1.6710  0.3163  0.1079
 5867TIP3   OH239235   1.838   1.841   7.668 -0.3434 -0.5328 -0.1873
 5867TIP3    H139236   1.898   1.869   7.598 -1.1966  0.4252 -0.5521
 5867TIP3    H239237   1.880   1.764   7.705  0.6741 -0.4141 -1.0351
 5868TIP3   OH239238   0.645   1.732   7.749 -0.2450 -0.2426 -0.0271
 5868TIP3    H139239   0.612   1.808   7.701 -1.7303 -0.9718 -0.2110
 5868TIP3    H239240   0.685   1.769   7.827  1.1235  0.8758 -1.1961
 5869TIP3   OH239241   6.774   3.753   0.926  0.4155  0.1693 -0.2655
 5869TIP3    H139242   6.845   3.811   0.900 -0.0618  1.0109  0.2674
 5869TIP3    H239243   6.698   3.786   0.880  0.3138 -0.5964 -0.6655
 5870TIP3   OH239244   0.113   4.365   8.670  0.1996  0.8462 -0.0641
 5870TIP3    H139245   0.137   4.372   8.763  0.8815  1.1911 -0.2609
 5870TIP3    H239246   0.133   4.451   8.634 -0.5359  0.8725 -0.4308
 5871TIP3   OH239247   0.367   1.395   0.747 -0.5646  0.2606 -0.2121
 5871TIP3    H139248   0.325   1.474   0.713 -2.2821 -1.3621 -2.1678
 5871TIP3    H239249   0.352   1.398   0.841  1.3549  3.2759  0.1200
 5872TIP3   OH239250   0.554   6.568   0.456 -0.0557 -0.3316  0.5557
 5872TIP3    H139251   0.616   6.515   0.507 -0.9037 -1.1145  0.7985
 5872TIP3    H239252   0.483   6.587   0.517 -0.4049 -0.0681  0.0690
 5873TIP3   OH239253   4.000   2.220   1.720  0.5883  0.0216  0.0108
 5873TIP3    H139254   4.077   2.163   1.713  0.7049  0.1405  0.3180
 5873TIP3    H239255   3.992   2.261   1.634  0.6962 -0.2116 -0.1111
 5874TIP3   OH239256   5.108   1.172   7.275  0.2245  0.0972 -0.2306
 5874TIP3    H139257   5.102   1.171   7.180  0.3289  1.8788 -0.2966
 5874TIP3    H239258   5.167   1.246   7.294 -0.2322  0.1164  1.2229
 5875TIP3   OH239259   6.433   6.503   0.234 -0.1678  1.2505 -0.2925
 5875TIP3    H139260   6.508   6.515   0.176 -0.3040  1.6579 -0.3931
 5875TIP3    H239261   6.360   6.481   0.176  0.4918 -2.4027  0.0307
 5876TIP3   OH239262   0.383   0.271   1.177  0.1087 -0.0824 -0.2273
 5876TIP3    H139263   0.316   0.288   1.244 -0.1703  0.5818 -0.6679
 5876TIP3    H239264   0.423   0.188   1.204 -1.3767 -0.8662 -0.3390
 5877TIP3   OH239265   2.043   3.597   7.610 -0.1164  0.4920  0.1312
 5877TIP3    H139266   2.109   3.632   7.551  1.4384  1.4520  2.3055
 5877TIP3    H239267   2.062   3.503   7.615  1.1677  0.7609  0.7578
 5878TIP3   OH239268   2.551   3.253   0.062  0.2655 -0.1210 -0.0809
 5878TIP3    H139269   2.471   3.273   0.015  0.1295  2.0143  0.9279
 5878TIP3    H239270   2.539   3.164   0.094 -1.1202 -0.3119 -1.0498
 5879TIP3   OH239271   1.578   3.907   0.684 -0.1672  0.5242 -0.0889
 5879TIP3    H139272   1.609   3.911   0.775  1.0362 -0.0459 -0.4581
 5879TIP3    H239273   1.658   3.911   0.631 -0.8609  1.0517 -1.1416
 5880TIP3   OH239274   0.564   0.146   8.497  0.1203 -0.2269 -0.1207
 5880TIP3    H139275   0.621   0.218   8.525 -0.8356  1.2688 -1.8020
 5880TIP3    H239276   0.556   0.090   8.574 -0.3934  2.3384  1.8281
 5881TIP3   OH239277   1.332   5.284   1.148  0.1112  0.6120 -0.1961
 5881TIP3    H139278   1.258   5.302   1.206 -0.7004 -0.9960 -0.6705
 5881TIP3    H239279   1.308   5.326   1.065 -0.8011 -0.7974 -0.6735
 5882TIP3   OH239280   1.195   0.203   7.984  0.3610 -0.2970  0.3065
 5882TIP3    H139281   1.153   0.246   7.910  1.8710  0.1936 -0.3034
 5882TIP3    H239282   1.252   0.137   7.944 -0.9487 -2.0322  1.1723
 5883TIP3   OH239283   3.123   0.501   2.333  0.2614  0.3029 -0.5062
 5883TIP3    H139284   3.115   0.597   2.333  0.7415  0.4012  1.9817
 5883TIP3    H239285   3.075   0.474   2.411  0.8814 -1.4280 -0.7006
 5884TIP3   OH239286   5.383   2.739   0.192  0.1286 -0.3862 -0.2170
 5884TIP3    H139287   5.320   2.808   0.172  0.3899  0.4696  1.7249
 5884TIP3    H239288   5.419   2.714   0.107 -0.5758  1.2747 -1.0475
 5885TIP3   OH239289   1.040   5.226   3.104  0.2055  0.4050  0.2859
 5885TIP3    H139290   1.111   5.274   3.060 -0.3351  0.2485 -0.8101
 5885TIP3    H239291   1.000   5.174   3.034  1.4539 -2.5447  1.6293
 5886TIP3   OH239292   1.068   1.368   2.602  0.4672  0.5251 -0.4085
 5886TIP3    H139293   1.117   1.422   2.663 -0.4564 -0.3233  1.1569
 5886TIP3    H239294   0.981   1.409   2.599  0.2161  0.0001 -0.3831
 5887TIP3   OH239295   1.357   0.456   1.455  0.3814  0.7406 -0.8100
 5887TIP3    H139296   1.365   0.508   1.535  0.4058 -1.0057  0.3621
 5887TIP3    H239297   1.440   0.471   1.408 -0.1064  2.6998 -1.1388
 5888TIP3   OH239298   5.111   5.637   2.186  0.6632  0.6169 -0.0691
 5888TIP3    H139299   5.090   5.719   2.141 -0.0816 -0.0335 -0.9500
 5888TIP3    H239300   5.182   5.660   2.246 -0.6344  2.2661  0.9136
 5889TIP3   OH239301   3.478   1.485   8.730  0.2105  0.5707  0.1828
 5889TIP3    H139302   3.482   1.443   8.644 -1.8147 -0.0551  0.3440
 5889TIP3    H239303   3.533   1.563   8.721 -1.7768  1.8317 -2.4867
 5890TIP3   OH239304   3.520   5.453   0.502  0.1575  0.4977  0.6763
 5890TIP3    H139305   3.444   5.511   0.498  0.0879  0.4779  1.6051
 5890TIP3    H239306   3.520   5.408   0.417 -0.0145  1.5576  0.1066
 5891TIP3   OH239307   5.669   1.274   1.879  0.6798  0.0281  0.1921
 5891TIP3    H139308   5.759   1.282   1.910  0.7242  2.8225 -0.3996
 5891TIP3    H239309   5.668   1.192   1.828  3.1843  0.4820 -0.7129
 5892TIP3   OH239310   1.157   1.082   1.552 -0.3338  0.5260 -0.2867
 5892TIP3    H139311   1.199   1.006   1.592 -0.2356  1.7574  2.0893
 5892TIP3    H239312   1.218   1.110   1.483  1.2376  0.3951  1.0078
 5893TIP3   OH239313   0.049   1.281   1.975  0.1601 -0.3521 -0.7440
 5893TIP3    H139314   0.077   1.233   1.897  2.0234 -1.9154  0.7780
 5893TIP3    H239315   0.007   1.216   2.030  2.1758 -0.2211  1.1050
 5894TIP3   OH239316   3.280   3.455   7.725  0.9504  0.2080 -0.0781
 5894TIP3    H139317   3.238   3.516   7.664 -0.2693  0.2981  0.8068
 5894TIP3    H239318   3.272   3.370   7.683  0.2854  0.2954 -0.1424
 5895TIP3   OH239319   4.091   2.383   8.524  0.6831  0.2164  0.0442
 5895TIP3    H139320   4.038   2.303   8.528  0.9654 -0.0925 -1.8199
 5895TIP3    H239321   4.028   2.453   8.506  0.8155 -0.0974 -1.7839
 5896TIP3   OH239322   2.490   2.193   1.809 -0.5140 -0.1487 -0.4729
 5896TIP3    H139323   2.439   2.174   1.731 -0.8244  0.7801 -0.5000
 5896TIP3    H239324   2.510   2.286   1.803  0.5977 -0.3444 -0.1164
 5897TIP3   OH239325   3.199   4.919   1.888  0.4167 -0.5383 -0.3232
 5897TIP3    H139326   3.199   4.930   1.793 -1.8170  0.2885 -0.2767
 5897TIP3    H239327   3.134   4.850   1.904  2.1473 -2.0701  0.5309
 5898TIP3   OH239328   4.215   2.117   0.601  0.4285  0.4941  0.3008
 5898TIP3    H139329   4.183   2.195   0.646  2.0499  0.7965  1.0400
 5898TIP3    H239330   4.234   2.146   0.512 -0.7463  0.4420  0.0162
 5899TIP3   OH239331   5.760   0.117   1.629  0.4446  0.1923 -0.3711
 5899TIP3    H139332   5.801   0.201   1.607  1.0202  0.2483  0.8597
 5899TIP3    H239333   5.818   0.078   1.695  0.8367 -1.7304 -1.7486
 5900TIP3   OH239334   5.719   4.071   0.462 -0.6467 -0.8390  0.7738
 5900TIP3    H139335   5.780   4.033   0.400 -1.4617 -0.1739 -0.4808
 5900TIP3    H239336   5.690   4.152   0.420  0.4384  0.8049  2.9865
 5901TIP3   OH239337   3.451   1.802   1.831  0.5101  0.3120 -0.7985
 5901TIP3    H139338   3.410   1.816   1.745 -0.5442 -1.1825 -0.5836
 5901TIP3    H239339   3.401   1.858   1.890  0.3818  0.3548 -0.9472
 5902TIP3   OH239340   4.535   1.651   0.880 -0.0860 -0.4632  0.4899
 5902TIP3    H139341   4.454   1.633   0.928  0.2809 -0.0694  1.2569
 5902TIP3    H239342   4.530   1.744   0.858 -0.6702 -0.8173 -1.0468
 5903TIP3   OH239343   6.000   0.860   2.345 -0.0412 -0.3854 -0.2151
 5903TIP3    H139344   6.062   0.845   2.417  0.6915  1.1177 -0.5017
 5903TIP3    H239345   6.009   0.953   2.324 -0.1298 -0.8068 -2.3347
 5904TIP3   OH239346   5.180   4.174   8.516  0.6974 -0.0065 -0.5977
 5904TIP3    H139347   5.130   4.253   8.538 -0.6714 -1.0404  0.2124
 5904TIP3    H239348   5.202   4.184   8.423  2.5517  2.3389 -0.0240
 5905TIP3   OH239349   1.812   1.503   0.240  0.1836  0.0642 -0.0688
 5905TIP3    H139350   1.854   1.418   0.251 -0.7574 -0.1984  2.0485
 5905TIP3    H239351   1.723   1.482   0.211 -0.5902  0.1748  2.0854
 5906TIP3   OH239352   1.555   3.608   7.224 -0.1723  0.6146 -0.2424
 5906TIP3    H139353   1.528   3.698   7.206 -0.4116  0.7128  0.5759
 5906TIP3    H239354   1.626   3.616   7.288  0.5964  0.2680 -1.0270
 5907TIP3   OH239355   6.726   4.967   0.663 -0.2398  0.2462 -0.7538
 5907TIP3    H139356   6.657   4.932   0.718 -0.1514  0.7815 -0.2917
 5907TIP3    H239357   6.730   4.908   0.588 -0.1390 -0.6830 -0.0297
 5908TIP3   OH239358   2.772   2.881   0.066  0.3062  0.0333 -0.4539
 5908TIP3    H139359   2.860   2.855   0.095 -0.4126 -0.0963  1.8269
 5908TIP3    H239360   2.733   2.923   0.143 -1.9759 -0.8091 -1.0673
 5909TIP3   OH239361   4.420   6.440   0.472 -0.6048 -0.2441 -0.0696
 5909TIP3    H139362   4.485   6.372   0.457  0.1453  0.7256 -1.4544
 5909TIP3    H239363   4.423   6.456   0.566 -0.2156 -1.5430  0.1500
 5910TIP3   OH239364   2.206   3.667   1.130 -0.2977  0.4903  0.5787
 5910TIP3    H139365   2.274   3.599   1.129 -2.7345 -2.1395 -0.6502
 5910TIP3    H239366   2.157   3.652   1.049 -2.8735  1.6570  1.8213
 5911TIP3   OH239367   3.140   0.740   8.778 -0.2946 -0.0541  0.1447
 5911TIP3    H139368   3.226   0.723   8.815  0.0508 -2.4157 -1.4774
 5911TIP3    H239369   3.084   0.756   8.854  1.1984 -0.3492  1.3590
 5912TIP3   OH239370   3.567   3.970   1.889 -0.8090  0.3686  0.3595
 5912TIP3    H139371   3.567   3.876   1.870 -0.6536  0.5845 -0.8047
 5912TIP3    H239372   3.490   3.983   1.944 -1.7542 -0.2005 -0.7864
 5913TIP3   OH239373   0.111   3.340   1.313 -0.2684  0.2162 -0.2514
 5913TIP3    H139374   0.162   3.388   1.247 -0.2399  0.3348 -0.1447
 5913TIP3    H239375   0.122   3.248   1.290  0.5892  0.1944  0.1892
 5914TIP3   OH239376   5.494   3.925   1.892  0.1351  0.2311  0.6812
 5914TIP3    H139377   5.509   3.833   1.871  1.5590  0.5901  0.0297
 5914TIP3    H239378   5.435   3.922   1.967 -0.4993 -1.1927  0.1746
 5915TIP3   OH239379   2.963   4.844   1.446  0.3734  0.1280  0.0088
 5915TIP3    H139380   2.897   4.776   1.429 -1.7574  1.1552  3.1406
 5915TIP3    H239381   2.912   4.924   1.456  2.3881  1.4127  0.3939
 5916TIP3   OH239382   6.139   2.394   8.472 -0.4893  0.4480 -0.2183
 5916TIP3    H139383   6.059   2.444   8.486 -0.3765  0.0730  2.2375
 5916TIP3    H239384   6.210   2.455   8.493 -0.3069 -0.2610  1.4066
 5917TIP3   OH239385   4.607   2.468   0.146  0.2789  0.9397  0.3901
 5917TIP3    H139386   4.625   2.383   0.187  1.1980  0.8355 -0.2087
 5917TIP3    H239387   4.691   2.497   0.112  0.1010  2.3891  1.1049
 5918TIP3   OH239388   5.446   6.781   8.700 -0.0626  0.2051  0.2928
 5918TIP3    H139389   5.411   6.700   8.736 -0.1816 -0.3034 -0.9095
 5918TIP3    H239390   5.541   6.772   8.709 -0.1207  0.5003  1.3084
 5919TIP3   OH239391   4.083   2.151   1.289 -0.4344 -0.2752 -0.0214
 5919TIP3    H139392   4.118   2.092   1.223 -1.2249 -1.0282  0.2095
 5919TIP3    H239393   4.104   2.109   1.373  0.9468  0.8866  0.2552
 5920TIP3   OH239394   4.020   2.867   2.045 -0.5797  0.2767  0.3506
 5920TIP3    H139395   4.101   2.919   2.047  0.0783 -0.6945 -0.3821
 5920TIP3    H239396   4.049   2.779   2.021 -2.1625  0.5678 -3.2266
 5921TIP3   OH239397   6.422   4.235   7.932  0.5541  0.6157 -0.3726
 5921TIP3    H139398   6.424   4.270   7.843  0.2206  0.1166 -0.5770
 5921TIP3    H239399   6.382   4.306   7.984  0.8749  0.9598 -0.5881
 5922TIP3   OH239400   3.051   1.437   7.202  0.0719 -0.0696  0.5875
 5922TIP3    H139401   3.127   1.465   7.253  0.5077 -3.2827  2.0186
 5922TIP3    H239402   2.976   1.479   7.246  0.8389  1.5312  0.4151
 5923TIP3   OH239403   3.580   0.391   7.773  0.1508  0.3521 -0.3082
 5923TIP3    H139404   3.599   0.303   7.804 -0.1194 -0.3404 -1.9817
 5923TIP3    H239405   3.665   0.425   7.745 -0.0495 -0.3177 -1.8565
 5924TIP3   OH239406   3.942   6.442   1.277 -0.2619  0.3263 -0.2230
 5924TIP3    H139407   4.024   6.487   1.293 -0.2711 -0.0827  1.0415
 5924TIP3    H239408   3.957   6.352   1.305 -0.8794  0.0243 -0.8079
 5925TIP3   OH239409   3.180   2.213   1.161  0.7313 -0.3512 -0.4120
 5925TIP3    H139410   3.170   2.282   1.095  0.9431  0.0613 -0.0165
 5925TIP3    H239411   3.118   2.145   1.134  1.4332 -0.5677 -1.5187
 5926TIP3   OH239412   1.199   3.138   1.324 -0.2075  0.1408  0.4184
 5926TIP3    H139413   1.282   3.180   1.299  1.4512 -1.4793  2.7165
 5926TIP3    H239414   1.178   3.081   1.250  0.8536  0.4573 -0.1525
 5927TIP3   OH239415   3.862   0.428   7.735  0.0221  0.3338  0.2217
 5927TIP3    H139416   3.863   0.498   7.669  1.4831  1.7953  1.7089
 5927TIP3    H239417   3.882   0.349   7.686  0.9259  1.3493 -1.1291
 5928TIP3   OH239418   2.985   5.125   7.545  0.1872  0.1441 -0.0895
 5928TIP3    H139419   3.063   5.181   7.536 -0.8131  1.7573  0.7343
 5928TIP3    H239420   2.922   5.161   7.483 -0.1696 -0.6509 -0.1987
 5929TIP3   OH239421   6.625   2.079   1.497 -0.0016 -1.0215  0.4659
 5929TIP3    H139422   6.582   2.009   1.449 -1.1227 -0.3613  0.4490
 5929TIP3    H239423   6.684   2.120   1.434  1.2584 -2.4187  0.7000
 5930TIP3   OH239424   1.855   3.823   2.398  0.3175  0.0539 -0.3832
 5930TIP3    H139425   1.815   3.907   2.375  0.1762  0.0581 -0.1341
 5930TIP3    H239426   1.793   3.757   2.365 -0.0700  0.0642  0.2881
 5931TIP3   OH239427   1.994   0.640   2.072  0.1117  0.1795 -0.6129
 5931TIP3    H139428   1.901   0.651   2.093 -0.1626 -2.6312  0.0127
 5931TIP3    H239429   1.995   0.629   1.977 -0.1245  0.6473 -0.6748
 5932TIP3   OH239430   0.477   2.631   7.456 -0.3487  0.3278  0.1386
 5932TIP3    H139431   0.486   2.549   7.505 -2.1955  0.5623  0.9708
 5932TIP3    H239432   0.446   2.603   7.370 -1.3708  0.1381  0.5488
 5933TIP3   OH239433   6.808   1.567   2.233 -0.1596 -0.2806 -0.4183
 5933TIP3    H139434   6.895   1.552   2.195 -0.8954  0.2824 -2.4499
 5933TIP3    H239435   6.797   1.662   2.229 -0.3371 -0.2182  1.1194
 5934TIP3   OH239436   6.481   3.262   8.201  0.3219 -0.1363 -0.7040
 5934TIP3    H139437   6.526   3.317   8.136  1.0218  1.6886  1.2048
 5934TIP3    H239438   6.436   3.325   8.257 -0.8488 -1.7072  0.1705
 5935TIP3   OH239439   1.233   4.544   0.721  0.0806  0.1535 -0.7730
 5935TIP3    H139440   1.181   4.569   0.798  0.4786 -0.6060 -0.2451
 5935TIP3    H239441   1.322   4.531   0.756 -0.1441 -2.2667 -0.9319
 5936TIP3   OH239442   6.487   3.209   7.565 -0.6544 -0.6260  0.1950
 5936TIP3    H139443   6.427   3.233   7.636  0.7066  1.1844  0.8048
 5936TIP3    H239444   6.476   3.278   7.500  2.8351  1.5964  1.6704
 5937TIP3   OH239445   1.041   1.530   1.023 -0.2020 -0.6151 -0.3345
 5937TIP3    H139446   1.009   1.505   1.110  0.0313 -2.6599 -0.7903
 5937TIP3    H239447   0.969   1.508   0.964 -1.0991  2.4578 -0.5579
 5938TIP3   OH239448   0.722   3.503   2.180  0.2659  0.0990 -0.0261
 5938TIP3    H139449   0.735   3.538   2.092  0.3690 -0.5482 -0.2713
 5938TIP3    H239450   0.658   3.562   2.220 -0.4429 -0.1124 -0.8345
 5939TIP3   OH239451   3.557   1.071   0.990  0.4391  0.7987  0.0757
 5939TIP3    H139452   3.646   1.104   0.980  0.5519  0.2694 -0.7049
 5939TIP3    H239453   3.509   1.143   1.033  1.1979  1.1362  0.3651
 5940TIP3   OH239454   1.600   4.457   1.744  0.1257 -0.0077  0.0408
 5940TIP3    H139455   1.615   4.364   1.761  0.7408 -0.0097 -0.4565
 5940TIP3    H239456   1.645   4.473   1.661  2.0510  1.2349  1.2468
 5941TIP3   OH239457   0.763   0.045   7.967 -0.4102 -0.0967  0.1957
 5941TIP3    H139458   0.771  -0.020   8.037 -1.6686  0.5312  0.9451
 5941TIP3    H239459   0.789   0.127   8.008  2.5139 -0.2260 -1.0905
 5942TIP3   OH239460   5.674   5.203   2.276  0.7776  0.0871  0.2108
 5942TIP3    H139461   5.747   5.196   2.214  0.8896  0.0622  0.3450
 5942TIP3    H239462   5.598   5.171   2.227  0.2434  2.7997 -0.9249
 5943TIP3   OH239463   2.912   2.468   8.721 -0.0021 -0.2068 -0.0351
 5943TIP3    H139464   2.891   2.404   8.653 -1.0041  0.6533 -0.5766
 5943TIP3    H239465   2.864   2.438   8.798  1.2862 -1.2878  0.3813
 5944TIP3   OH239466   0.427   2.594   0.335 -0.1876  1.1333 -0.1665
 5944TIP3    H139467   0.332   2.586   0.325 -0.3149  0.2912  1.3064
 5944TIP3    H239468   0.438   2.647   0.414  0.6142  2.6359 -1.2375
 5945TIP3   OH239469   3.738   0.335   0.800  0.1163 -0.2395  0.2186
 5945TIP3    H139470   3.721   0.428   0.812 -2.0203 -0.5751  0.1885
 5945TIP3    H239471   3.715   0.317   0.709  1.5708 -0.6047 -0.0932
 5946TIP3   OH239472   2.477   2.881   2.775  0.2388 -0.1546 -0.4758
 5946TIP3    H139473   2.453   2.839   2.692 -0.7678 -1.4423  0.4221
 5946TIP3    H239474   2.554   2.832   2.805 -0.3395 -0.7359  0.0910
 5947TIP3   OH239475   2.360   2.662   7.205  0.1269  1.0221 -0.4322
 5947TIP3    H139476   2.357   2.567   7.197 -0.7539  1.0527 -0.4634
 5947TIP3    H239477   2.269   2.689   7.216  0.3009  1.9272 -1.0986
 5948TIP3   OH239478   1.663   1.233   1.786  0.3102  0.2493 -0.3812
 5948TIP3    H139479   1.617   1.207   1.866  0.3962 -0.0935 -0.4436
 5948TIP3    H239480   1.682   1.151   1.741 -0.4366  0.4785 -1.1495
 5949TIP3   OH239481   2.110   6.595   1.829 -0.5208  0.2482  0.4067
 5949TIP3    H139482   2.126   6.517   1.775 -0.2140  1.5986 -1.5517
 5949TIP3    H239483   2.019   6.618   1.812 -0.6733  0.2041  1.1419
 5950TIP3   OH239484   4.404   6.073   0.440 -0.2197  0.5298  0.1848
 5950TIP3    H139485   4.456   6.104   0.367  0.1929  0.4320  0.4353
 5950TIP3    H239486   4.462   6.080   0.516  0.6085 -2.6125 -0.0143
 5951TIP3   OH239487   6.008   1.473   7.745  0.1364 -0.9929  0.1057
 5951TIP3    H139488   5.924   1.509   7.717 -0.1803 -2.2251 -0.6506
 5951TIP3    H239489   5.984   1.406   7.809  0.8049  1.1844  2.7932
 5952TIP3   OH239490   0.170   3.099   7.885 -0.2639 -0.0212 -0.6326
 5952TIP3    H139491   0.169   3.181   7.933 -1.7689 -0.5698  0.3134
 5952TIP3    H239492   0.215   3.120   7.802  2.1840  0.9870  0.8392
 5953TIP3   OH239493   4.816   2.895   8.426 -0.8899 -0.3530  0.3224
 5953TIP3    H139494   4.818   2.953   8.502 -0.7787 -0.5887  0.5037
 5953TIP3    H239495   4.731   2.910   8.386 -1.2603 -0.7737  0.9323
 5954TIP3   OH239496   2.447   0.925   8.113 -0.1678 -0.1996 -0.5597
 5954TIP3    H139497   2.459   0.950   8.021 -0.5165 -0.0920 -0.5781
 5954TIP3    H239498   2.402   1.000   8.152  1.3915  0.4555  0.0786
 5955TIP3   OH239499   0.013   1.821   7.391 -0.0007 -0.0156  0.1323
 5955TIP3    H139500  -0.072   1.844   7.429 -1.6073 -3.9161 -0.5993
 5955TIP3    H239501   0.027   1.887   7.323 -2.4395  0.7973  0.3014
 5956TIP3   OH239502   5.895   2.502   8.534  0.4391  0.8071  0.1917
 5956TIP3    H139503   5.907   2.562   8.460  1.7524  1.1498  0.6661
 5956TIP3    H239504   5.813   2.457   8.514  2.2616 -1.4250 -3.1021
 5957TIP3   OH239505   6.433   2.800   8.005  0.1448 -0.6570 -0.4932
 5957TIP3    H139506   6.457   2.711   8.027  2.3874  0.2017  0.8774
 5957TIP3    H239507   6.343   2.809   8.036  0.3688 -2.0304  0.6210
 5958TIP3   OH239508   5.139   5.052   0.562  0.3623 -0.1324  0.2217
 5958TIP3    H139509   5.100   5.013   0.640  0.7780  0.3866  0.6966
 5958TIP3    H239510   5.093   5.010   0.489  0.7621 -1.4605  0.7093
 5959TIP3   OH239511   4.030   4.207   1.136  0.7690 -0.2055 -0.2674
 5959TIP3    H139512   3.996   4.183   1.222  1.9807 -1.5387 -0.1202
 5959TIP3    H239513   4.010   4.300   1.127 -1.3685 -0.5453  0.4945
 5960TIP3   OH239514   0.016   1.358   0.661 -0.0124 -0.6120 -0.4108
 5960TIP3    H139515  -0.002   1.452   0.662  1.1579 -0.3740 -0.3065
 5960TIP3    H239516  -0.056   1.319   0.710 -1.0411  0.1238 -1.3137
 5961TIP3   OH239517   1.168   2.253   2.613 -0.2867 -0.1956  0.2084
 5961TIP3    H139518   1.184   2.318   2.545  1.4372 -0.6235  0.1622
 5961TIP3    H239519   1.254   2.236   2.651 -1.1950  0.1154  2.5900
 5962TIP3   OH239520   2.975   4.892   3.224 -0.2136 -0.3999 -0.0957
 5962TIP3    H139521   2.936   4.953   3.162 -0.9772 -2.1233 -1.4048
 5962TIP3    H239522   2.904   4.831   3.245  0.6713 -1.1946  0.6806
 5963TIP3   OH239523   0.841   1.124   0.070 -0.3438  0.1372 -0.1038
 5963TIP3    H139524   0.918   1.100   0.122 -0.0976  0.8250 -0.1377
 5963TIP3    H239525   0.839   1.060  -0.000  0.9025  0.7995 -0.7828
 5964TIP3   OH239526   2.008   3.376   2.770 -0.1178 -0.0599  0.2899
 5964TIP3    H139527   2.008   3.465   2.806 -1.1934  0.1132 -0.1054
 5964TIP3    H239528   2.101   3.357   2.754  0.1142  1.0457  0.2322
 5965TIP3   OH239529   3.605   4.079   8.522  0.5020  0.1119 -0.2131
 5965TIP3    H139530   3.540   4.108   8.585  1.5066  0.4264  0.6970
 5965TIP3    H239531   3.680   4.137   8.535  2.5081 -2.6404  1.5272
 5966TIP3   OH239532   0.503   2.762   7.177 -0.1849  0.2041 -0.2516
 5966TIP3    H139533   0.448   2.687   7.201  0.6382 -0.3209  0.0217
 5966TIP3    H239534   0.529   2.744   7.087  0.9604 -0.4311  0.1955
 5967TIP3   OH239535   6.397   4.812   1.368  0.0977 -0.4750 -0.3670
 5967TIP3    H139536   6.407   4.736   1.311 -0.8734 -0.4844 -0.5404
 5967TIP3    H239537   6.374   4.776   1.453  3.8335 -0.6295  0.7618
 5968TIP3   OH239538   3.885   0.707   7.363  0.8482 -0.2034 -0.6885
 5968TIP3    H139539   3.980   0.713   7.348  0.7876  0.4280 -0.8256
 5968TIP3    H239540   3.865   0.614   7.348  1.3106 -0.1883 -1.4629
 5969TIP3   OH239541   1.994   4.785   1.512 -0.2760 -0.2493 -0.6397
 5969TIP3    H139542   2.088   4.788   1.495 -0.1538 -0.3082  0.0044
 5969TIP3    H239543   1.977   4.862   1.566 -0.4026 -0.8462  0.1749
 5970TIP3   OH239544   0.396   2.529   6.805 -0.0772  0.0747  0.2048
 5970TIP3    H139545   0.440   2.595   6.752  1.5121 -1.6091 -0.6900
 5970TIP3    H239546   0.305   2.531   6.776  0.4645  0.1809 -1.5817
 5971TIP3   OH239547   5.405   6.556   7.603 -0.7186 -0.1792 -0.3134
 5971TIP3    H139548   5.404   6.561   7.508 -0.1125 -0.0133 -0.3159
 5971TIP3    H239549   5.497   6.565   7.627 -0.7421 -1.2335  0.2349
 5972TIP3   OH239550   3.662   5.100   7.740  0.4619 -0.0508  0.0130
 5972TIP3    H139551   3.737   5.134   7.789  0.7503  0.3062 -0.6700
 5972TIP3    H239552   3.586   5.144   7.780  0.5845 -0.6059  0.8733
 5973TIP3   OH239553   3.103   0.010   8.564  0.2373  0.3935 -0.1542
 5973TIP3    H139554   3.060  -0.066   8.526 -0.3302  0.7775 -0.2997
 5973TIP3    H239555   3.165   0.039   8.497  0.0876  0.3592 -0.3093
 5974TIP3   OH239556   1.485   3.259   8.804 -0.2821  0.1264  0.0646
 5974TIP3    H139557   1.449   3.187   8.856  0.8964 -0.2987  0.3176
 5974TIP3    H239558   1.420   3.274   8.735  0.8541 -3.3245 -1.9594
 5975TIP3   OH239559   2.050   6.173   2.789  0.1120  0.5175 -0.2048
 5975TIP3    H139560   2.006   6.090   2.805  1.5174 -0.0161  1.0764
 5975TIP3    H239561   1.979   6.237   2.780 -1.1394 -1.0942 -3.5061
 5976TIP3   OH239562   6.103   3.782   0.688  0.4051 -0.2733 -0.1275
 5976TIP3    H139563   6.019   3.772   0.643 -0.0937  2.5385 -0.0190
 5976TIP3    H239564   6.168   3.754   0.624 -0.5190 -0.9772 -0.7914
 5977TIP3   OH239565   2.729   2.654   0.889 -0.1822  0.2435  0.3582
 5977TIP3    H139566   2.740   2.637   0.983 -0.7087 -0.2195  0.3440
 5977TIP3    H239567   2.695   2.744   0.884  0.2548  0.4204  0.5868
 5978TIP3   OH239568   2.384   5.090   7.848  0.3043 -0.4187 -0.4302
 5978TIP3    H139569   2.383   5.167   7.792  0.0872 -0.5863 -0.6550
 5978TIP3    H239570   2.365   5.017   7.790 -0.4314 -0.5330 -0.0497
 5979TIP3   OH239571   0.512   2.739   6.625 -0.0123  0.1865  0.4818
 5979TIP3    H139572   0.589   2.731   6.568 -1.2686 -0.2317 -1.2346
 5979TIP3    H239573   0.542   2.794   6.698  2.1904 -0.8179  0.4103
 5980TIP3   OH239574   6.389   0.094   0.184 -0.1343 -0.1342 -0.2332
 5980TIP3    H139575   6.377   0.186   0.163 -2.1492 -0.4154 -0.5274
 5980TIP3    H239576   6.428   0.056   0.105 -0.4598  0.2485 -0.5820
 5981TIP3   OH239577   5.837   4.427   7.214 -0.1800  0.1068  0.3031
 5981TIP3    H139578   5.884   4.504   7.181  0.9753 -0.2189  1.1341
 5981TIP3    H239579   5.771   4.409   7.147 -0.2604  1.6241 -0.0584
 5982TIP3   OH239580   0.177   6.535   0.775  0.3322  0.3776  0.1732
 5982TIP3    H139581   0.087   6.547   0.744  0.5284 -1.0605 -1.0340
 5982TIP3    H239582   0.168   6.478   0.851  0.3843 -2.2739 -1.6921
 5983TIP3   OH239583   2.677   6.053   2.493 -0.8004 -0.0049  0.3199
 5983TIP3    H139584   2.681   5.992   2.567  0.4861 -1.4374 -0.8658
 5983TIP3    H239585   2.728   6.129   2.522  0.6890 -1.0362  0.5149
 5984TIP3   OH239586   4.464   4.561   0.499  0.0343 -0.3562 -0.2939
 5984TIP3    H139587   4.548   4.525   0.526  0.2969  0.9776  0.7923
 5984TIP3    H239588   4.458   4.644   0.546 -0.6766  0.8646 -2.4291
 5985TIP3   OH239589   4.844   5.596   1.330 -0.1993  0.2015 -0.4168
 5985TIP3    H139590   4.779   5.614   1.261 -0.5603 -0.3896 -0.2352
 5985TIP3    H239591   4.806   5.635   1.409 -0.1172  0.2518 -0.4020
 5986TIP3   OH239592   4.659   4.348   7.936 -0.4627  0.0340 -0.3736
 5986TIP3    H139593   4.672   4.441   7.918 -1.2402  0.1636 -0.3296
 5986TIP3    H239594   4.650   4.344   8.031  0.2060 -0.1798 -0.3145
 5987TIP3   OH239595   0.298   0.637   1.574 -0.5078  0.4370 -0.2942
 5987TIP3    H139596   0.305   0.716   1.519  0.1155 -0.0149 -0.8833
 5987TIP3    H239597   0.240   0.663   1.646 -1.7569  0.8808 -1.4332
 5988TIP3   OH239598   4.763   3.321   8.092  0.3145  0.7332  0.6037
 5988TIP3    H139599   4.680   3.314   8.045 -0.1763  2.2610  1.1899
 5988TIP3    H239600   4.742   3.300   8.183  0.8495 -0.1434  0.5433
 5989TIP3   OH239601   3.731   6.394   8.759 -0.0711  0.2597  0.5069
 5989TIP3    H139602   3.795   6.347   8.811  0.5689  0.1676 -0.3295
 5989TIP3    H239603   3.768   6.482   8.748 -0.1810  0.2728  0.1975
 5990TIP3   OH239604   4.778   3.806   8.330  0.0413  0.0496  0.4507
 5990TIP3    H139605   4.762   3.724   8.283  0.4155  0.1082  0.2096
 5990TIP3    H239606   4.827   3.860   8.268  1.5484 -0.3003  1.2843
 5991TIP3   OH239607   1.391   0.058   0.979 -0.0214 -0.1316 -0.2414
 5991TIP3    H139608   1.396   0.120   1.051 -2.3177  0.3279 -0.4184
 5991TIP3    H239609   1.299   0.055   0.955  0.5474 -0.8446 -2.6711
 5992TIP3   OH239610   1.987   5.061   0.807  0.9841  0.4255 -0.3571
 5992TIP3    H139611   2.071   5.097   0.836  1.5867 -1.4948  0.4623
 5992TIP3    H239612   1.955   5.013   0.884 -0.1597 -0.0650 -1.1260
 5993TIP3   OH239613   4.706   2.686   0.501 -0.0330  0.1349 -0.2293
 5993TIP3    H139614   4.669   2.696   0.588 -0.7262  0.4455 -0.5493
 5993TIP3    H239615   4.781   2.629   0.513  0.8439  1.4478  0.8301
 5994TIP3   OH239616   6.071   5.188   8.098  0.1516 -0.7475 -0.0828
 5994TIP3    H139617   6.051   5.258   8.161 -0.4121 -0.0586 -0.9893
 5994TIP3    H239618   6.017   5.115   8.126 -1.2699  0.0459 -0.5948
 5995TIP3   OH239619   4.399   6.643   0.281  0.4210 -0.0241 -0.5216
 5995TIP3    H139620   4.451   6.714   0.317  0.8748 -0.5729 -0.0585
 5995TIP3    H239621   4.382   6.586   0.357 -1.2113  0.3492 -0.5644
 5996TIP3   OH239622   5.645   0.537   0.595  0.4951 -0.1459 -0.2424
 5996TIP3    H139623   5.608   0.492   0.519  0.4270  0.7112 -0.7279
 5996TIP3    H239624   5.680   0.466   0.650 -0.8207 -0.9037 -0.3198
 5997TIP3   OH239625   2.603   2.453   1.830 -0.5563 -0.6228  0.4039
 5997TIP3    H139626   2.577   2.521   1.892  0.2241  2.2783 -2.2542
 5997TIP3    H239627   2.698   2.445   1.841 -0.2222  0.7892 -1.1481
 5998TIP3   OH239628   2.727   2.345   1.196 -0.2175  0.5968  0.8457
 5998TIP3    H139629   2.818   2.343   1.226 -0.4145  0.6525  1.4649
 5998TIP3    H239630   2.730   2.306   1.109  0.7592  2.6315 -0.1135
 5999TIP3   OH239631   1.655   0.248   8.206 -0.0695 -0.6118 -0.4401
 5999TIP3    H139632   1.696   0.334   8.197  3.7083 -2.3260 -1.3677
 5999TIP3    H239633   1.636   0.221   8.116 -1.6169 -0.6455 -0.1302
 6000TIP3   OH239634   1.516   4.284   8.841  0.5822 -0.1120 -0.2292
 6000TIP3    H139635   1.504   4.190   8.828  0.7213 -0.4851  1.9881
 6000TIP3    H239636   1.610   4.295   8.853  0.4641  0.1834  0.4442
 6001TIP3   OH239637   0.757   0.008   7.505  0.4613 -0.9429 -0.3608
 6001TIP3    H139638   0.762   0.084   7.448 -1.2131 -0.7901 -0.3577
 6001TIP3    H239639   0.709   0.039   7.582 -1.5306 -2.3186 -0.9795
 6002TIP3   OH239640   6.260   4.551   1.960 -0.0063 -0.4588  0.2996
 6002TIP3    H139641   6.167   4.526   1.957 -0.6439  1.5180  1.5647
 6002TIP3    H239642   6.262   4.641   1.930  1.2403  0.0824  1.8491
 6003TIP3   OH239643   6.186   0.179   2.475 -0.6820  0.0543 -0.1871
 6003TIP3    H139644   6.218   0.089   2.467 -1.2091 -0.1983  0.4367
 6003TIP3    H239645   6.222   0.211   2.557 -0.4707  0.4307 -0.4214
 6004TIP3   OH239646   5.939   2.441   7.250 -0.5124 -0.2887 -0.2160
 6004TIP3    H139647   5.883   2.423   7.175 -0.4863  1.7565 -0.7969
 6004TIP3    H239648   5.953   2.536   7.248  0.4546 -0.3224  1.7019
 6005TIP3   OH239649   4.080   5.405   7.621  0.1721 -0.0495 -0.1573
 6005TIP3    H139650   4.021   5.479   7.605 -1.0784 -0.7930  0.8134
 6005TIP3    H239651   4.164   5.433   7.585 -0.6504  1.2359 -1.1660
 6006TIP3   OH239652   2.985   2.297   8.394  0.3314  0.6951  0.2486
 6006TIP3    H139653   2.990   2.330   8.305  0.0153  0.4032  0.1193
 6006TIP3    H239654   2.934   2.216   8.387  0.7250  0.4096  0.6202
 6007TIP3   OH239655   0.863   2.041   7.809 -0.3017  0.4748  1.2343
 6007TIP3    H139656   0.856   2.004   7.897 -1.7802 -1.6517  0.2958
 6007TIP3    H239657   0.899   1.970   7.756  1.3818  1.9891  0.2192
 6008TIP3   OH239658   2.849   1.031   1.893  0.3407 -0.2774  0.2011
 6008TIP3    H139659   2.794   1.107   1.874 -0.0418 -1.0697 -2.1465
 6008TIP3    H239660   2.876   1.044   1.984 -0.6232  2.0738  0.2358
 6009TIP3   OH239661   3.414   0.712   6.904 -0.0294 -0.0880 -0.1632
 6009TIP3    H139662   3.358   0.659   6.962 -1.1906  0.3611 -0.8374
 6009TIP3    H239663   3.354   0.746   6.837  0.8602  1.2926 -0.3066
 6010TIP3   OH239664   0.242   3.052   8.279 -0.2178  0.2154  0.0032
 6010TIP3    H139665   0.283   2.967   8.293 -0.6657  0.0738  0.4738
 6010TIP3    H239666   0.315   3.111   8.260  0.0587 -0.3552 -0.7512
 6011TIP3   OH239667   0.869   3.626   0.409  0.4388  0.4806 -0.3631
 6011TIP3    H139668   0.810   3.689   0.451 -0.1547  1.0506 -1.9460
 6011TIP3    H239669   0.921   3.590   0.480  1.5542  3.5348  0.5497
 6012TIP3   OH239670   6.039   2.132   2.566 -0.4255 -0.3888 -0.5916
 6012TIP3    H139671   6.062   2.220   2.534  0.1379  0.0082  0.8467
 6012TIP3    H239672   6.015   2.146   2.658  2.7381 -2.1712  0.6307
 6013TIP3   OH239673   1.458   0.355   8.380 -0.2185 -0.0449  0.3219
 6013TIP3    H139674   1.412   0.300   8.316 -0.1978 -0.5355  0.7235
 6013TIP3    H239675   1.546   0.317   8.386 -0.3529 -0.2741  0.9553
 6014TIP3   OH239676   0.182   3.448   8.291  0.2101 -0.7459  0.0795
 6014TIP3    H139677   0.180   3.543   8.301  0.2094 -0.7040 -0.3030
 6014TIP3    H239678   0.090   3.423   8.280  0.3478 -0.5801 -1.6746
 6015TIP3   OH239679   6.384   1.335   8.527 -0.2440  0.2352  0.0624
 6015TIP3    H139680   6.376   1.264   8.591  0.1526  0.9886  0.9704
 6015TIP3    H239681   6.411   1.292   8.446  1.7732 -0.4840  1.0539
 6016TIP3   OH239682   0.618   6.341   1.909 -0.8777  0.6154 -0.6058
 6016TIP3    H139683   0.541   6.362   1.963 -0.0897  0.1964  0.7227
 6016TIP3    H239684   0.610   6.247   1.891  0.5073  0.0076  1.5799
 6017TIP3   OH239685   6.365   4.229   1.621 -0.4286 -0.2818  0.2367
 6017TIP3    H139686   6.368   4.264   1.710 -2.0761  2.8036 -0.7610
 6017TIP3    H239687   6.457   4.216   1.597  0.0449 -1.0844  2.3250
 6018TIP3   OH239688   2.986   4.746   1.930  0.0400  0.5694 -0.0095
 6018TIP3    H139689   3.026   4.666   1.897 -1.5506 -0.8800  1.3706
 6018TIP3    H239690   2.892   4.729   1.927 -0.3111  2.1817  0.8155
 6019TIP3   OH239691   0.146   5.291   7.127 -0.1006 -0.0876 -0.7280
 6019TIP3    H139692   0.125   5.358   7.061  1.4188  1.3053  0.1280
 6019TIP3    H239693   0.158   5.341   7.208  2.2232 -1.2223 -0.2903
 6020TIP3   OH239694   2.866   5.714   8.841  0.1234 -0.6323  0.4022
 6020TIP3    H139695   2.890   5.755   8.924  0.9671  0.4245 -0.3448
 6020TIP3    H239696   2.945   5.667   8.814 -0.5217 -1.9808  0.7579
 6021TIP3   OH239697   4.762   5.866   7.968 -0.7808 -0.8699  0.0588
 6021TIP3    H139698   4.830   5.933   7.955  0.4265 -1.5002  2.5710
 6021TIP3    H239699   4.765   5.814   7.888  1.9915 -1.0859  0.1813
 6022TIP3   OH239700   5.910   6.264   8.238 -0.8632 -0.1874 -0.7925
 6022TIP3    H139701   5.986   6.222   8.196 -0.4558 -0.1798 -0.0765
 6022TIP3    H239702   5.906   6.351   8.199 -1.5271 -0.7614 -2.0667
 6023TIP3   OH239703   0.575   4.840   0.508 -0.3727 -0.5581  0.1112
 6023TIP3    H139704   0.584   4.930   0.540 -1.9697 -0.8213  1.4645
 6023TIP3    H239705   0.605   4.786   0.581  1.0189 -1.1395 -0.8668
 6024TIP3   OH239706   2.446   2.623   0.678  1.0677 -0.0223  0.6768
 6024TIP3    H139707   2.379   2.556   0.694 -0.3713  1.2208  0.0890
 6024TIP3    H239708   2.497   2.589   0.605 -1.3350  0.6114 -1.4676
 6025TIP3   OH239709   3.546   4.906   0.794 -0.3884  0.0821 -0.2842
 6025TIP3    H139710   3.621   4.955   0.761 -0.4720  1.1265  1.0230
 6025TIP3    H239711   3.492   4.971   0.838 -1.4581 -0.8738 -0.1344
 6026TIP3   OH239712   6.484   4.876   0.836  0.0976 -0.7218 -0.3457
 6026TIP3    H139713   6.452   4.907   0.921  0.0905 -1.2831 -0.1400
 6026TIP3    H239714   6.538   4.800   0.857 -0.4507 -1.2669 -0.9003
 6027TIP3   OH239715   5.360   2.142   2.106  0.4870 -0.1670  0.1070
 6027TIP3    H139716   5.350   2.074   2.173  3.7250 -0.2093  0.7054
 6027TIP3    H239717   5.280   2.194   2.112 -2.0866 -3.6940 -0.2511
 6028TIP3   OH239718   6.557   4.970   7.902 -0.2745  0.4351 -0.4907
 6028TIP3    H139719   6.477   4.988   7.853 -0.6230  1.6405  0.4481
 6028TIP3    H239720   6.627   4.978   7.838 -0.6935  2.1381 -0.7994
 6029TIP3   OH239721   6.410   2.853   0.801  0.4937 -0.4552  0.2957
 6029TIP3    H139722   6.391   2.764   0.832 -2.0619  0.2234  0.9013
 6029TIP3    H239723   6.376   2.855   0.712 -1.7107  0.5626  1.1117
 6030TIP3   OH239724   4.206   2.646   2.386  0.3964  0.9358  0.2385
 6030TIP3    H139725   4.191   2.741   2.393  3.1050  1.4895 -0.4769
 6030TIP3    H239726   4.287   2.638   2.336 -0.8318 -1.8626 -1.5345
 6031TIP3   OH239727   1.153   1.123   2.863 -0.7847  0.4777 -0.2175
 6031TIP3    H139728   1.143   1.092   2.953  0.3175 -1.1290 -0.6193
 6031TIP3    H239729   1.153   1.218   2.871 -1.3556  0.3800  1.3987
 6032TIP3   OH239730   1.704   6.627   8.206 -0.1144  0.1982  0.0154
 6032TIP3    H139731   1.664   6.677   8.277 -0.9173 -0.5454  0.1125
 6032TIP3    H239732   1.782   6.676   8.183 -1.0559  1.6842 -0.1393
 6033TIP3   OH239733   3.685   0.877   1.741 -0.1499  0.0022 -0.0376
 6033TIP3    H139734   3.598   0.839   1.727 -1.2028  1.4498  2.0050
 6033TIP3    H239735   3.710   0.913   1.656 -2.0231  0.4334 -0.4498
 6034TIP3   OH239736   1.122   6.113   8.158  0.8412  0.8372 -0.5238
 6034TIP3    H139737   1.166   6.198   8.160  1.3310  0.5779 -0.1474
 6034TIP3    H239738   1.159   6.065   8.232  0.5627  0.2996 -0.7309
 6035TIP3   OH239739   5.110   3.791   8.138  0.0340  0.7124  0.1990
 6035TIP3    H139740   5.177   3.752   8.083  0.6870  1.0100  0.7620
 6035TIP3    H239741   5.145   3.785   8.227 -0.6715  0.8974  0.4994
 6036TIP3   OH239742   1.226   0.528   7.850 -0.7959 -0.9200  0.2725
 6036TIP3    H139743   1.197   0.448   7.806 -1.4464 -0.9580  0.7704
 6036TIP3    H239744   1.147   0.565   7.890 -0.8911  0.9365 -1.4351
 6037TIP3   OH239745   2.011   5.575   7.428 -0.5640 -0.5658 -0.0836
 6037TIP3    H139746   2.086   5.619   7.388  0.8846 -1.6677  1.2782
 6037TIP3    H239747   1.970   5.642   7.482 -2.0148  0.6859 -2.5762
 6038TIP3   OH239748   5.125   6.012   3.231  0.2901  1.0816 -0.1480
 6038TIP3    H139749   5.136   6.103   3.259  1.7722  0.5656  1.0963
 6038TIP3    H239750   5.206   5.992   3.184  0.6396 -0.0281  0.8890
 6039TIP3   OH239751   1.875   0.388   0.592  0.0711 -0.7477  0.0325
 6039TIP3    H139752   1.783   0.383   0.569  0.3513 -0.2010 -1.3080
 6039TIP3    H239753   1.912   0.304   0.564  0.3138 -0.2791 -1.0838
 6040TIP3   OH239754   1.724   1.266   7.838 -0.4552 -0.3953  0.1188
 6040TIP3    H139755   1.657   1.232   7.897 -0.4615 -1.4725 -0.4795
 6040TIP3    H239756   1.681   1.339   7.792 -0.6372  0.0544  0.9881
 6041TIP3   OH239757   2.757   4.525   1.808 -0.5048 -0.1937 -0.3802
 6041TIP3    H139758   2.707   4.446   1.785 -1.1636  0.3384 -0.7988
 6041TIP3    H239759   2.847   4.505   1.782 -0.8033 -0.5144 -1.1961
 6042TIP3   OH239760   3.265   5.179   8.224  0.0134 -0.4292  0.2641
 6042TIP3    H139761   3.199   5.186   8.156  0.8133 -0.4590 -0.5355
 6042TIP3    H239762   3.231   5.114   8.285  0.1016 -1.7883 -1.0828
 6043TIP3   OH239763   6.669   6.377   7.678  0.1052  0.0254  0.4621
 6043TIP3    H139764   6.725   6.453   7.694  0.5921 -0.2059 -0.0942
 6043TIP3    H239765   6.598   6.411   7.623  0.9226 -0.1402 -0.7282
 6044TIP3   OH239766   1.801   6.185   8.193  0.0317  0.1197  0.2155
 6044TIP3    H139767   1.713   6.148   8.196 -1.3487  2.7969 -2.0434
 6044TIP3    H239768   1.797   6.261   8.251  1.0362  0.0152  0.4478
 6045TIP3   OH239769   0.652   4.837   8.360 -0.1616  0.4941  0.2333
 6045TIP3    H139770   0.674   4.892   8.434  0.9021  1.0866 -0.5056
 6045TIP3    H239771   0.690   4.752   8.381  0.1453  0.6623  0.3618
 6046TIP3   OH239772   2.682   0.736   0.991 -0.1098 -0.3374  0.3162
 6046TIP3    H139773   2.773   0.707   0.995  0.5329  1.1291 -1.8399
 6046TIP3    H239774   2.642   0.684   0.921 -1.1697 -1.3848  1.6216
 6047TIP3   OH239775   0.793   1.987   0.929 -0.1063  0.1907  0.2929
 6047TIP3    H139776   0.886   1.999   0.913 -0.2653  1.0105 -0.0602
 6047TIP3    H239777   0.774   2.044   1.004 -0.2423 -0.3093  0.6487
 6048TIP3   OH239778   4.365   6.413   1.436 -0.4931 -0.0410 -0.3959
 6048TIP3    H139779   4.384   6.382   1.347  1.2612 -0.3213  0.0305
 6048TIP3    H239780   4.433   6.479   1.453 -1.7326  1.1443  0.2002
 6049TIP3   OH239781   0.025   2.837   1.314  0.4441  0.2440  0.0368
 6049TIP3    H139782   0.064   2.924   1.312  0.5415  0.1906 -0.5446
 6049TIP3    H239783   0.037   2.803   1.225  2.0470 -1.0903  0.7072
 6050TIP3   OH239784   6.362   1.368   6.972  0.5718  0.1610 -0.0277
 6050TIP3    H139785   6.370   1.361   7.067 -0.3417 -0.0719  0.0462
 6050TIP3    H239786   6.324   1.455   6.957  1.2807  0.4463 -0.2269
 6051TIP3   OH239787   2.784   4.389   1.004 -0.5244  0.7343  0.2106
 6051TIP3    H139788   2.832   4.468   1.029 -0.8999  1.3128 -0.8308
 6051TIP3    H239789   2.852   4.327   0.979 -0.1763  0.3753  1.9180
 6052TIP3   OH239790   2.986   2.395   1.278 -0.3038 -0.4418 -0.0516
 6052TIP3    H139791   3.018   2.409   1.367  2.2053 -1.4961 -0.6938
 6052TIP3    H239792   3.047   2.443   1.223 -3.4993  2.7144 -1.1876
 6053TIP3   OH239793   0.377   3.575   0.126  0.6167  0.5533 -0.8746
 6053TIP3    H139794   0.313   3.599   0.059  0.3784 -1.0069 -1.2450
 6053TIP3    H239795   0.329   3.581   0.209  0.5435  1.2254 -0.9608
 6054TIP3   OH239796   2.831   2.041   7.285 -0.2008 -0.5044 -0.1653
 6054TIP3    H139797   2.870   2.063   7.200  0.1353  0.8496  0.3211
 6054TIP3    H239798   2.842   2.120   7.338 -0.9204 -1.1352  0.9624
 6055TIP3   OH239799   2.484   0.128   8.217 -0.5475  0.3780  0.0916
 6055TIP3    H139800   2.473   0.096   8.307  0.1525 -2.7465 -0.8112
 6055TIP3    H239801   2.568   0.173   8.217  0.8621 -2.0568  0.5011
 6056TIP3   OH239802   0.678   4.979   1.618 -0.2972 -0.1642 -0.4063
 6056TIP3    H139803   0.584   4.988   1.599 -0.2857 -1.3697 -1.1671
 6056TIP3    H239804   0.683   4.982   1.713 -1.2878 -1.3165 -0.2865
 6057TIP3   OH239805   1.905   1.935   8.054  0.7913 -0.1461  0.2664
 6057TIP3    H139806   1.900   1.983   7.972  3.1290 -1.4184 -0.7395
 6057TIP3    H239807   1.836   1.972   8.109 -0.7100  0.8934 -2.1693
 6058TIP3   OH239808   2.158   5.509   2.938  0.2462 -0.3800  0.7170
 6058TIP3    H139809   2.242   5.547   2.963 -0.6025  0.0328  3.2198
 6058TIP3    H239810   2.181   5.430   2.890  2.0403  1.2866 -1.3898
 6059TIP3   OH239811   4.194   2.994   8.266  0.5911 -0.3395  0.0350
 6059TIP3    H139812   4.151   2.909   8.260  1.1943 -0.5557 -1.6707
 6059TIP3    H239813   4.129   3.051   8.307 -0.1673 -1.3831  0.3178
 6060TIP3   OH239814   1.951   2.367   1.113  0.2461 -0.4284  0.3722
 6060TIP3    H139815   1.924   2.368   1.205  2.9253 -0.9411  1.2353
 6060TIP3    H239816   2.013   2.440   1.106  0.2408 -0.5388 -1.0014
 6061TIP3   OH239817   6.589   0.429   0.534 -0.6024  0.0143 -0.0345
 6061TIP3    H139818   6.627   0.362   0.590 -2.0072 -0.2438  0.6546
 6061TIP3    H239819   6.588   0.509   0.588 -0.5925  0.1319 -0.2071
 6062TIP3   OH239820   1.521   2.839   0.683 -0.1102  0.4575 -0.5048
 6062TIP3    H139821   1.558   2.841   0.771 -1.3781  0.6166  0.0423
 6062TIP3    H239822   1.570   2.905   0.635 -0.3239  1.3351  0.4629
 6063TIP3   OH239823   6.750   3.512   0.133  0.6998  0.4090  0.3371
 6063TIP3    H139824   6.799   3.507   0.051  1.1411  2.1587  0.4482
 6063TIP3    H239825   6.667   3.554   0.108  0.0349 -0.7562  0.4916
 6064TIP3   OH239826   6.379   6.450   8.117  0.1566  0.8770  0.0395
 6064TIP3    H139827   6.355   6.512   8.186  0.6547  1.7547 -0.5611
 6064TIP3    H239828   6.377   6.501   8.037  2.6520  0.6829 -0.2217
 6065TIP3   OH239829   6.244   5.944   7.418  0.0673 -0.1749 -0.3889
 6065TIP3    H139830   6.246   6.036   7.443 -1.1426 -0.7760  2.3870
 6065TIP3    H239831   6.188   5.940   7.341 -0.2418  1.3683 -0.2609
 6066TIP3   OH239832   3.837   2.448   2.874 -0.3927  0.1605  0.1521
 6066TIP3    H139833   3.767   2.419   2.815  0.6923  0.2032 -1.2163
 6066TIP3    H239834   3.871   2.527   2.834  1.3417 -0.6097  0.0120
 6067TIP3   OH239835   0.085   0.535   0.715  0.3671 -0.5164  0.0524
 6067TIP3    H139836   0.163   0.590   0.703 -1.8226  3.2865  1.4124
 6067TIP3    H239837   0.045   0.530   0.629  1.0828 -0.7616 -0.2672
 6068TIP3   OH239838   1.924   0.404   6.874  0.1397  0.3089  0.3356
 6068TIP3    H139839   1.997   0.418   6.814  1.3811  2.3806  2.1908
 6068TIP3    H239840   1.939   0.316   6.910  0.3205 -0.2608 -1.0572
 6069TIP3   OH239841   0.230   3.194   0.876 -0.1774 -0.2350  0.2652
 6069TIP3    H139842   0.279   3.165   0.953 -1.3216  0.2767  1.2086
 6069TIP3    H239843   0.287   3.171   0.802  0.5310 -1.5947  1.1852
 6070TIP3   OH239844   5.418   3.876   0.983 -0.1912  0.4066  0.1179
 6070TIP3    H139845   5.438   3.942   1.050  0.5305  1.5477 -1.1817
 6070TIP3    H239846   5.349   3.916   0.930 -0.8301 -0.5346  0.2257
 6071TIP3   OH239847   3.185   3.450   8.448  0.7217  0.2195  0.4114
 6071TIP3    H139848   3.137   3.530   8.427  0.0283  0.0233  1.1713
 6071TIP3    H239849   3.121   3.380   8.433  0.3602  0.0252  2.4925
 6072TIP3   OH239850   3.833   0.772   6.667  0.1376 -0.5547 -0.1344
 6072TIP3    H139851   3.818   0.698   6.726  0.5396 -0.9860 -0.5625
 6072TIP3    H239852   3.915   0.812   6.699 -0.4462  0.1580  0.5382
 6073TIP3   OH239853   0.199   0.929   0.505 -0.4550  0.0850 -0.2927
 6073TIP3    H139854   0.257   0.978   0.563 -1.5553  0.6068  0.4043
 6073TIP3    H239855   0.172   0.992   0.439 -1.7361  0.4163  0.5060
 6074TIP3   OH239856   2.567   5.227   0.172  0.2678 -0.1738 -0.6384
 6074TIP3    H139857   2.652   5.240   0.129  0.2232  0.7160 -0.4722
 6074TIP3    H239858   2.520   5.308   0.157  0.0592 -0.0397  0.6495
 6075TIP3   OH239859   2.488   4.135   8.176  0.0086  0.1647  0.2897
 6075TIP3    H139860   2.410   4.133   8.232  0.0917 -0.2826  0.3887
 6075TIP3    H239861   2.558   4.099   8.230  0.1461 -0.0248 -0.0094
 6076TIP3   OH239862   4.556   5.442   1.431  0.5838 -0.4659 -0.6554
 6076TIP3    H139863   4.461   5.441   1.438  0.6936 -0.5678  2.0259
 6076TIP3    H239864   4.586   5.429   1.521  3.1412  0.8297 -1.2392
 6077TIP3   OH239865   0.751   0.999   1.074  0.0984  0.3071 -0.1016
 6077TIP3    H139866   0.765   0.939   1.147  0.0494 -0.1580 -0.4731
 6077TIP3    H239867   0.828   1.057   1.075 -0.9352  1.7728  1.7054
 6078TIP3   OH239868   4.221   4.096   8.472 -0.2740  0.7894 -0.5895
 6078TIP3    H139869   4.230   4.045   8.392  1.2749  1.0122 -0.5783
 6078TIP3    H239870   4.284   4.058   8.533  0.2269  2.0814 -0.2603
 6079TIP3   OH239871   2.198   4.268   8.363 -0.1298 -0.3085  0.2733
 6079TIP3    H139872   2.104   4.271   8.345  0.0428  3.6272 -1.0115
 6079TIP3    H239873   2.219   4.175   8.369 -3.8504 -1.3649 -0.5922
 6080TIP3   OH239874   3.371   2.614   1.547  0.2699  0.0642 -0.4704
 6080TIP3    H139875   3.358   2.707   1.566  1.8651  0.2519 -0.0973
 6080TIP3    H239876   3.436   2.613   1.477  1.0453 -0.7675  0.2424
 6081TIP3   OH239877   2.191   3.307   1.316 -0.0687  0.0097  0.1766
 6081TIP3    H139878   2.195   3.244   1.387 -0.7974 -0.9112 -0.5703
 6081TIP3    H239879   2.277   3.303   1.274 -0.1206 -0.5094  0.1202
 6082TIP3   OH239880   2.424   0.423   8.240 -0.5096 -0.4946  0.5849
 6082TIP3    H139881   2.498   0.400   8.184 -0.3367 -0.8283  0.9468
 6082TIP3    H239882   2.384   0.339   8.263  0.3267 -0.4726  2.1945
 6083TIP3   OH239883   5.075   0.166   8.186  0.0232  0.1340 -0.3122
 6083TIP3    H139884   5.141   0.121   8.238 -1.3743 -0.7899  0.7032
 6083TIP3    H239885   5.036   0.230   8.246  1.1600  1.9533 -1.4005
 6084TIP3   OH239886   3.752   2.432   1.262 -0.3663 -0.1237 -0.0441
 6084TIP3    H139887   3.820   2.386   1.212 -0.4959 -1.8089  1.2251
 6084TIP3    H239888   3.788   2.520   1.274  0.7776 -0.4320 -0.9442
 6085TIP3   OH239889   1.077   3.430   2.035 -0.0629 -0.5558  0.1966
 6085TIP3    H139890   1.100   3.415   1.943  0.1845  0.4291  0.0819
 6085TIP3    H239891   0.992   3.475   2.031  0.0328 -0.3491  0.4335
 6086TIP3   OH239892   6.383   5.765   8.349 -0.1615 -0.4191 -0.4010
 6086TIP3    H139893   6.362   5.688   8.296  0.3105  0.4144 -1.8769
 6086TIP3    H239894   6.371   5.839   8.289 -1.9286  0.8006  1.3609
 6087TIP3   OH239895   4.549   0.422   8.592 -0.0727 -0.5035  0.5718
 6087TIP3    H139896   4.456   0.421   8.615 -0.3922 -0.1430 -0.6590
 6087TIP3    H239897   4.551   0.409   8.497  1.0288  1.5807  0.2577
 6088TIP3   OH239898   0.778   1.368   1.005 -0.3077 -0.4829 -0.1015
 6088TIP3    H139899   0.855   1.312   1.004 -0.1566 -0.2661 -0.4251
 6088TIP3    H239900   0.731   1.346   0.924 -0.8851 -1.0303  0.3671
 6089TIP3   OH239901   1.896   3.840   0.743  0.7024  0.3365  0.1712
 6089TIP3    H139902   1.901   3.755   0.786 -1.3281  0.2673  0.3678
 6089TIP3    H239903   1.939   3.900   0.803  1.8287 -0.4556  0.1998
 6090TIP3   OH239904   5.322   5.324   8.448  0.1343  0.4034  0.2600
 6090TIP3    H139905   5.396   5.283   8.492 -0.4146 -0.2167  0.6402
 6090TIP3    H239906   5.309   5.407   8.495 -0.3262 -0.1678  1.1581
 6091TIP3   OH239907   3.820   1.565   7.949 -0.1532 -0.1249  0.8810
 6091TIP3    H139908   3.754   1.566   8.018 -2.9021  1.5609 -1.5046
 6091TIP3    H239909   3.777   1.525   7.874  1.6220  0.7702 -0.7339
 6092TIP3   OH239910   5.980   4.607   0.529  0.6047  0.2016 -0.2337
 6092TIP3    H139911   5.905   4.604   0.589  0.4729 -0.4806 -0.4157
 6092TIP3    H239912   5.976   4.522   0.484  1.0371  0.4798 -0.7912
 6093TIP3   OH239913   0.213   0.909   8.536 -0.0228  0.1869  0.2395
 6093TIP3    H139914   0.244   0.887   8.448  0.1189 -2.0874  0.7949
 6093TIP3    H239915   0.156   0.985   8.523  0.5405  0.3257 -1.7125
 6094TIP3   OH239916   1.870   6.358   1.602  0.6279 -0.3379 -0.0269
 6094TIP3    H139917   1.817   6.412   1.661  1.1126  1.6267 -1.2951
 6094TIP3    H239918   1.958   6.364   1.639  0.4405 -1.4829  0.6353
 6095TIP3   OH239919   4.912   1.611   1.985  0.5028 -0.5139  0.3585
 6095TIP3    H139920   4.870   1.567   2.058 -1.7364  1.4220  0.3626
 6095TIP3    H239921   5.004   1.618   2.011  0.1294 -1.5137  2.1174
 6096TIP3   OH239922   3.687   5.525   2.115 -0.3166  0.4104  0.8364
 6096TIP3    H139923   3.706   5.611   2.079  1.6098 -0.4033 -0.1878
 6096TIP3    H239924   3.736   5.464   2.060 -1.9772 -1.4057  1.2566
 6097TIP3   OH239925   4.668   2.366   1.962  0.0498  0.2758  0.3507
 6097TIP3    H139926   4.694   2.441   1.907  0.3184  0.0841  0.2131
 6097TIP3    H239927   4.589   2.331   1.920 -0.2636  0.6767  0.5973
 6098TIP3   OH239928   5.372   2.795   1.386  0.9206  0.2575 -0.1413
 6098TIP3    H139929   5.455   2.747   1.376 -0.0387 -1.2844 -1.0740
 6098TIP3    H239930   5.322   2.743   1.449  1.1178  1.8859  1.4247
 6099TIP3   OH239931   4.372   6.794   7.179 -0.2607 -0.1332  0.6133
 6099TIP3    H139932   4.292   6.848   7.183 -0.5078 -0.5190  1.0613
 6099TIP3    H239933   4.375   6.763   7.089 -0.8807 -0.4927  0.7057
 6100TIP3   OH239934   1.121   0.295   1.322 -0.0740 -0.6987 -0.3606
 6100TIP3    H139935   1.146   0.215   1.368  1.9988 -0.3403 -0.7820
 6100TIP3    H239936   1.175   0.363   1.361  0.2048 -0.0105 -1.8972
 6101TIP3   OH239937   5.708   6.148   7.814 -0.4701  0.5212  0.1039
 6101TIP3    H139938   5.655   6.200   7.875  0.8764  0.9707  0.9409
 6101TIP3    H239939   5.716   6.062   7.857  0.5359  0.8591  0.6248
 6102TIP3   OH239940   3.991   2.362   1.137  0.3561 -0.1898 -0.2231
 6102TIP3    H139941   4.023   2.284   1.183  0.7066  0.0229 -0.1014
 6102TIP3    H239942   4.065   2.423   1.139 -0.5687  0.9709  1.5442
 6103TIP3   OH239943   1.042   3.811   2.592  0.5489  0.4502  0.1414
 6103TIP3    H139944   1.064   3.772   2.676  0.7402 -0.9327 -0.5181
 6103TIP3    H239945   0.962   3.765   2.565 -0.9637  2.6117  0.6814
 6104TIP3   OH239946   3.097   6.437   8.516  0.4261 -0.2619 -0.2320
 6104TIP3    H139947   3.064   6.521   8.484  0.3990 -0.5816 -1.0745
 6104TIP3    H239948   3.107   6.450   8.610 -0.7321  0.2994 -0.1631
 6105TIP3   OH239949   0.242   2.362   8.637  0.3881 -0.1596  0.3736
 6105TIP3    H139950   0.329   2.348   8.599  0.3607 -1.0803  0.6104
 6105TIP3    H239951   0.182   2.322   8.574 -0.0262  1.7718 -0.5329
 6106TIP3   OH239952   0.584   6.047   1.911 -0.2778 -0.0754 -0.3062
 6106TIP3    H139953   0.677   6.026   1.921 -0.3075  0.3984  1.2261
 6106TIP3    H239954   0.539   5.975   1.956 -0.5776  0.4864  0.3116
 6107TIP3   OH239955   0.538   6.512   7.027 -0.0633  0.4194  0.6563
 6107TIP3    H139956   0.567   6.569   6.956 -0.6523  2.1511  1.7240
 6107TIP3    H239957   0.515   6.430   6.985 -1.0684  1.6133 -1.2689
 6108TIP3   OH239958   2.050   1.478   1.629  0.3371  0.1931 -0.0933
 6108TIP3    H139959   2.145   1.470   1.621  0.3468  0.3313 -0.1234
 6108TIP3    H239960   2.025   1.538   1.559 -0.1188 -2.0193 -1.9295
 6109TIP3   OH239961   5.648   1.051   8.046  0.1238 -0.9536  0.7069
 6109TIP3    H139962   5.662   1.140   8.079  2.3390 -0.4141 -1.3819
 6109TIP3    H239963   5.553   1.039   8.048 -0.1450  0.9801  2.1809
 6110TIP3   OH239964   0.970   2.498   7.215  0.1647  0.1512  0.0042
 6110TIP3    H139965   0.921   2.575   7.241 -0.8841 -0.5847  0.2477
 6110TIP3    H239966   0.904   2.431   7.198  1.0850 -1.4648  2.1920
 6111TIP3   OH239967   4.059   1.151   0.057 -0.4213 -0.4695  0.6052
 6111TIP3    H139968   3.966   1.168   0.043 -0.3090  0.0075  0.4034
 6111TIP3    H239969   4.090   1.228   0.104 -0.3456 -1.1103  1.6319
 6112TIP3   OH239970   1.930   0.454   7.903  0.1157 -0.2005 -0.4103
 6112TIP3    H139971   1.976   0.459   7.987 -0.1843 -0.3358 -0.2356
 6112TIP3    H239972   1.971   0.382   7.856 -1.6771 -2.1223  0.8326
 6113TIP3   OH239973   4.610   1.041   8.232 -0.2802  0.0395 -0.6137
 6113TIP3    H139974   4.562   1.073   8.155  0.5388 -0.1773 -1.2298
 6113TIP3    H239975   4.636   1.120   8.279 -1.1706  0.1609 -0.3095
 6114TIP3   OH239976   0.997   1.489   7.571 -0.0654 -0.2731  0.0560
 6114TIP3    H139977   0.903   1.478   7.584 -0.4268  0.7325 -1.4522
 6114TIP3    H239978   1.023   1.554   7.636 -0.1157 -1.5469  1.3964
 6115TIP3   OH239979   4.671   6.266   1.443  0.4332 -0.2536  0.3786
 6115TIP3    H139980   4.743   6.276   1.505  0.0044 -0.6356  0.9508
 6115TIP3    H239981   4.645   6.356   1.422  1.6284 -0.0945 -0.5034
 6116TIP3   OH239982   2.886   1.669   0.627  0.0996 -0.2511 -0.4191
 6116TIP3    H139983   2.872   1.574   0.635  0.5724 -0.2386  0.8895
 6116TIP3    H239984   2.931   1.693   0.708  0.1827  1.0643 -0.8325
 6117TIP3   OH239985   0.222   5.640   2.309  0.4215 -0.2125 -0.4655
 6117TIP3    H139986   0.317   5.653   2.310  0.4051  0.4841 -2.6306
 6117TIP3    H239987   0.186   5.723   2.341  0.5322  0.7134 -2.6179
 6118TIP3   OH239988   1.418   5.521   2.816  0.6051 -0.3810  0.4649
 6118TIP3    H139989   1.348   5.531   2.751  0.4623 -1.5878  0.3974
 6118TIP3    H239990   1.496   5.557   2.773 -0.1608  2.0994  0.9975
 6119TIP3   OH239991   0.306   4.247   8.021  0.6585 -0.6025 -0.1839
 6119TIP3    H139992   0.313   4.196   7.940 -1.9627 -1.1636 -0.1495
 6119TIP3    H239993   0.246   4.318   7.999 -0.0640 -0.7407  1.2445
 6120TIP3   OH239994   3.213   6.678   7.548  0.5849 -0.1218  0.3239
 6120TIP3    H139995   3.234   6.685   7.455  0.2033  1.8709  0.3276
 6120TIP3    H239996   3.297   6.687   7.592  0.6063  0.4913  0.1764
 6121TIP3   OH239997   3.334   2.399   2.170 -0.6283  0.5369 -0.1126
 6121TIP3    H139998   3.353   2.316   2.213 -0.5909  0.6459  0.0846
 6121TIP3    H239999   3.379   2.394   2.086 -3.4347 -1.0891 -1.6990
 6122TIP3   OH240000   2.754   3.558   0.339  0.7835 -0.1185  0.0412
 6122TIP3    H140001   2.697   3.482   0.346  0.6388  0.0453  0.8063
 6122TIP3    H240002   2.737   3.607   0.420  0.1716  1.2180 -0.8690
 6123TIP3   OH240003   6.703   5.201   8.193 -0.0290 -0.0892 -0.2897
 6123TIP3    H140004   6.785   5.187   8.145 -0.7251 -1.7870 -1.0551
 6123TIP3    H240005   6.647   5.249   8.132  0.1104  0.3762 -0.0567
 6124TIP3   OH240006   4.339   4.729   2.348 -0.2192  0.3609  0.1474
 6124TIP3    H140007   4.430   4.700   2.345 -0.3083  0.1518 -1.1782
 6124TIP3    H240008   4.316   4.727   2.441  1.1197  0.4141  0.5002
 6125TIP3   OH240009   2.485   5.834   2.690 -0.1321  0.4215 -0.3413
 6125TIP3    H140010   2.524   5.747   2.684  1.0242  0.9552 -0.8831
 6125TIP3    H240011   2.403   5.827   2.641  1.4000  0.4035 -3.1093
 6126TIP3   OH240012   1.072   2.491   7.721  0.5123 -0.2459 -0.2955
 6126TIP3    H140013   1.110   2.538   7.648  0.2040 -0.3746 -0.5414
 6126TIP3    H240014   1.066   2.400   7.690  0.7400 -0.3735  0.0288
 6127TIP3   OH240015   2.336   5.622   8.072 -0.2910 -0.1494  0.0179
 6127TIP3    H140016   2.281   5.557   8.027 -2.9605  0.8271  1.6344
 6127TIP3    H240017   2.344   5.588   8.161  0.8413  0.3077  0.0996
 6128TIP3   OH240018   3.111   4.367   2.139  0.0245  0.0989 -0.3985
 6128TIP3    H140019   3.060   4.438   2.178 -0.7861 -0.9737  0.5830
 6128TIP3    H240020   3.163   4.333   2.212 -0.3050 -0.9088 -0.6202
 6129TIP3   OH240021   5.053   5.896   7.512  0.9828 -0.7019  0.2238
 6129TIP3    H140022   5.088   5.810   7.489  1.2747 -0.3703 -0.5989
 6129TIP3    H240023   5.111   5.958   7.467  1.8283 -0.0006  2.1342
 6130TIP3   OH240024   2.338   5.059   1.189 -0.2602  0.4056  0.5247
 6130TIP3    H140025   2.428   5.046   1.158 -0.8624 -3.1106 -0.1199
 6130TIP3    H240026   2.289   5.085   1.111 -0.6803 -2.8289 -0.4310
 6131TIP3   OH240027   4.319   3.961   7.525  0.1892 -0.0418 -0.1099
 6131TIP3    H140028   4.404   3.917   7.517 -0.7107 -1.6991 -1.0287
 6131TIP3    H240029   4.255   3.892   7.510 -1.3526  1.1229  0.8193
 6132TIP3   OH240030   5.779   5.819   0.096 -0.3966 -0.4482  0.2173
 6132TIP3    H140031   5.759   5.840   0.005 -0.0706 -0.7020  0.0814
 6132TIP3    H240032   5.758   5.726   0.104  0.7986 -0.7610  0.0297
 6133TIP3   OH240033   3.330   2.679   6.651 -0.4056 -0.1141 -0.2468
 6133TIP3    H140034   3.410   2.634   6.624 -0.4377  0.4610 -1.3491
 6133TIP3    H240035   3.291   2.709   6.569 -1.5225 -0.0025  0.3203
 6134TIP3   OH240036   2.983   2.610   7.938 -0.0240 -0.0430  0.6148
 6134TIP3    H140037   2.901   2.561   7.952 -0.6771  0.2467 -1.8130
 6134TIP3    H240038   2.980   2.680   8.004 -2.2509  0.5493 -0.0128
 6135TIP3   OH240039   6.337   4.614   8.765 -0.2365 -1.1314  0.8447
 6135TIP3    H140040   6.422   4.581   8.738  0.3626 -0.5387  1.9651
 6135TIP3    H240041   6.333   4.703   8.728 -0.3222 -1.1123  0.9008
 6136TIP3   OH240042   5.420   3.987   7.061 -0.1395  0.0147 -0.0689
 6136TIP3    H140043   5.337   4.032   7.079 -0.3570 -0.4612  0.1205
 6136TIP3    H240044   5.460   3.975   7.147  0.8378  1.5640 -0.2544
 6137TIP3   OH240045   5.949   2.279   0.789  0.6144 -0.1320 -0.5120
 6137TIP3    H140046   5.986   2.288   0.877  1.7919 -0.2747 -0.9746
 6137TIP3    H240047   5.889   2.205   0.796 -0.4174  0.7513  0.5101
 6138TIP3   OH240048   0.144   1.025   1.171 -0.0836  0.0152 -0.2911
 6138TIP3    H140049   0.087   1.088   1.216  0.3320 -1.5930  2.7534
 6138TIP3    H240050   0.084   0.962   1.131 -0.4922 -0.1455  0.5520
 6139TIP3   OH240051   0.737   3.814   0.112  0.4702 -0.1820 -0.3487
 6139TIP3    H140052   0.706   3.786   0.026  1.6364 -1.9774 -0.2445
 6139TIP3    H240053   0.681   3.767   0.174 -0.6591  1.4433 -0.0636
 6140TIP3   OH240054   0.004   2.809   7.985 -0.2224 -0.5534 -0.0968
 6140TIP3    H140055  -0.022   2.781   8.073  0.7064  0.4482  0.5232
 6140TIP3    H240056   0.055   2.735   7.951  0.7254 -0.3516  0.8265
 6141TIP3   OH240057   1.561   4.927   0.943 -0.2337 -0.4168  0.5168
 6141TIP3    H140058   1.497   4.954   0.877  1.2345 -0.2657 -0.9119
 6141TIP3    H240059   1.552   4.831   0.946  0.4161 -0.5424 -0.7390
 6142TIP3   OH240060   1.829   4.609   7.688 -0.1161  0.6073  0.2922
 6142TIP3    H140061   1.893   4.625   7.618 -1.5515  0.4563 -1.1255
 6142TIP3    H240062   1.751   4.579   7.642 -1.1141  0.4778  1.9942
 6143TIP3   OH240063   5.236   5.334   7.746  0.0857 -0.9875 -0.1114
 6143TIP3    H140064   5.167   5.314   7.682  0.4567  0.2221 -0.9057
 6143TIP3    H240065   5.278   5.413   7.713  1.2719 -1.1890  0.8500
 6144TIP3   OH240066   6.737   3.054   8.565 -0.4879 -0.2045  0.1827
 6144TIP3    H140067   6.832   3.061   8.560 -0.4376 -1.4573 -0.8237
 6144TIP3    H240068   6.707   3.071   8.476 -1.2786  0.7908  0.6112
 6145TIP3   OH240069   2.564   1.370   0.737 -0.0860  0.5066  0.3430
 6145TIP3    H140070   2.564   1.359   0.832 -3.8918  1.5000  0.6181
 6145TIP3    H240071   2.478   1.337   0.709  0.7424  0.6326 -2.7367
 6146TIP3   OH240072   1.175   3.877   7.667 -0.2563 -0.3322 -0.3329
 6146TIP3    H140073   1.158   3.880   7.761  2.1516 -0.1072  0.1543
 6146TIP3    H240074   1.136   3.795   7.638 -0.7554 -0.5504  0.9149
 6147TIP3   OH240075   5.221   0.478   8.515 -0.0227  0.6559 -0.0698
 6147TIP3    H140076   5.271   0.516   8.444  3.2976 -1.5937  0.8348
 6147TIP3    H240077   5.164   0.413   8.472  0.5380  0.6610 -0.8428
 6148TIP3   OH240078   1.765   1.121   0.528  0.0485  0.3342  0.0842
 6148TIP3    H140079   1.798   1.108   0.617 -2.6406  1.9058  1.4455
 6148TIP3    H240080   1.701   1.050   0.516 -1.3628  1.5008  0.4210
 6149TIP3   OH240081   3.635   4.504   8.387 -0.3981  0.2873  0.2499
 6149TIP3    H140082   3.630   4.530   8.295  1.3182  0.0524  0.0728
 6149TIP3    H240083   3.708   4.554   8.422  0.0309 -0.8691  1.0565
 6150TIP3   OH240084   2.839   2.541   7.347  0.2469  0.1867  0.3826
 6150TIP3    H140085   2.785   2.579   7.278  1.7204 -0.1405 -1.0012
 6150TIP3    H240086   2.917   2.596   7.350 -0.3058  0.9676  2.7087
 6151TIP3   OH240087   2.010   0.835   8.216  0.1911  0.1250 -0.3531
 6151TIP3    H140088   1.931   0.784   8.197  0.4345 -0.7407  0.7994
 6151TIP3    H240089   1.992   0.922   8.181 -0.6086 -0.5073 -1.5567
 6152TIP3   OH240090   3.024   1.123   1.495  0.8045 -0.5623  0.0042
 6152TIP3    H140091   3.114   1.147   1.471  0.6437  1.0257  0.8315
 6152TIP3    H240092   2.990   1.076   1.419  1.3881  1.3622 -1.5294
 6153TIP3   OH240093   1.058   0.958   8.185  0.7584 -0.4973 -0.1822
 6153TIP3    H140094   0.992   0.976   8.252  0.9011 -1.9789  0.4095
 6153TIP3    H240095   1.012   0.966   8.102  0.3733  0.5701  0.1292
 6154TIP3   OH240096   2.263   5.433   1.505  0.2001  0.0005  0.3833
 6154TIP3    H140097   2.312   5.417   1.425 -0.8063  0.4410 -0.3392
 6154TIP3    H240098   2.330   5.447   1.572  1.0661  0.6126 -0.5851
 6155TIP3   OH240099   1.463   2.314   7.062 -0.8735  0.1096 -0.5294
 6155TIP3    H140100   1.509   2.318   7.146 -2.1483 -0.2903  0.2175
 6155TIP3    H240101   1.498   2.236   7.019 -0.6077 -0.0015 -0.1151
 6156TIP3   OH240102   5.555   6.677   6.995  0.0615  0.0078  0.7571
 6156TIP3    H140103   5.507   6.731   6.933  1.1648  0.8241  0.5843
 6156TIP3    H240104   5.508   6.594   6.996 -0.2965  0.1693 -0.7478
 6157TIP3   OH240105   6.134   0.337   2.959  0.0879  0.1205  0.3479
 6157TIP3    H140106   6.059   0.296   2.917  0.0850 -2.1547  2.3820
 6157TIP3    H240107   6.185   0.264   2.995  0.6325  1.7568  3.2850
 6158TIP3   OH240108   0.513   3.669   2.199  0.1295 -0.1008  0.3790
 6158TIP3    H140109   0.432   3.623   2.225 -0.8146  1.1083 -0.3165
 6158TIP3    H240110   0.506   3.754   2.241  0.6372  0.3240 -0.3801
 6159TIP3   OH240111   0.788   0.338   1.617  0.2758  0.4138 -0.0810
 6159TIP3    H140112   0.701   0.310   1.589 -0.1751  0.3752  1.2931
 6159TIP3    H240113   0.772   0.413   1.675  1.0344 -0.4851  1.3582
 6160TIP3   OH240114   5.516   6.663   1.958  0.1479 -0.0723 -0.0384
 6160TIP3    H140115   5.534   6.752   1.987 -1.5820  0.4814 -0.5271
 6160TIP3    H240116   5.583   6.609   2.001  1.4725  1.4940 -0.0681
 6161TIP3   OH240117   0.184   3.320   8.037  0.1765 -0.1531 -0.0301
 6161TIP3    H140118   0.266   3.370   8.036 -0.1110  0.4298  1.8064
 6161TIP3    H240119   0.160   3.316   8.129 -1.8248 -0.3905 -0.5238
 6162TIP3   OH240120   3.933   3.913   2.131  1.2418 -0.2430  0.4340
 6162TIP3    H140121   3.947   3.855   2.206  0.9251  0.9414  1.4465
 6162TIP3    H240122   3.882   3.860   2.069  0.2520 -0.7953  1.6700
 6163TIP3   OH240123   2.539   4.019   2.490 -0.3356  0.4086 -0.0124
 6163TIP3    H140124   2.551   4.026   2.585  0.1618  0.4132 -0.0758
 6163TIP3    H240125   2.454   4.060   2.474 -1.5818 -1.6948  0.7343
 6164TIP3   OH240126   0.046   2.465   1.013 -0.3354 -0.5015 -0.6931
 6164TIP3    H140127   0.071   2.460   0.920 -1.0073 -0.0733 -0.9061
 6164TIP3    H240128   0.077   2.383   1.051 -0.2968 -0.8036 -1.3595
 6165TIP3   OH240129   2.780   0.390   0.601  0.1956  0.4106 -0.5798
 6165TIP3    H140130   2.768   0.484   0.616  0.1758  0.3139  0.0543
 6165TIP3    H240131   2.755   0.350   0.685  2.7662  0.0193  0.0739
 6166TIP3   OH240132   5.359   5.856   1.152 -0.1250 -0.0269 -0.6776
 6166TIP3    H140133   5.394   5.937   1.114  0.7827  0.6385  1.4505
 6166TIP3    H240134   5.420   5.788   1.124  0.6423  0.4783 -0.2648
 6167TIP3   OH240135   1.192   6.270   1.117  0.3220 -0.6053  0.4410
 6167TIP3    H140136   1.182   6.281   1.022 -1.2476  0.0477  0.6663
 6167TIP3    H240137   1.261   6.332   1.141 -0.8799  0.9450  0.0536
 6168TIP3   OH240138   4.325   4.437   2.236 -0.3298  0.1112 -0.1794
 6168TIP3    H140139   4.324   4.439   2.140  2.0208 -0.9971 -0.3039
 6168TIP3    H240140   4.413   4.467   2.259 -0.6180 -0.3345  1.6035
 6169TIP3   OH240141   0.021   2.272   7.479  0.6688  0.3342  0.0729
 6169TIP3    H140142   0.060   2.355   7.451  0.6704  0.3145  0.0175
 6169TIP3    H240143  -0.057   2.298   7.529  0.9586  0.3824  0.5029
 6170TIP3   OH240144   3.124   5.456   2.298 -0.1136 -0.4013 -0.9522
 6170TIP3    H140145   3.106   5.377   2.246 -1.1934 -0.4597 -0.5209
 6170TIP3    H240146   3.079   5.441   2.381  0.3030  0.3540 -0.5768
 6171TIP3   OH240147   2.065   3.054   2.710 -0.2403  0.5902  0.1535
 6171TIP3    H140148   1.982   3.059   2.757 -1.0123 -2.3150 -0.7139
 6171TIP3    H240149   2.128   3.025   2.777 -0.8466 -1.2438 -0.0169
 6172TIP3   OH240150   3.179   3.671   0.515 -0.3665 -0.4970 -0.8143
 6172TIP3    H140151   3.136   3.598   0.471 -0.8536 -0.6102 -0.1746
 6172TIP3    H240152   3.167   3.653   0.608  0.8858 -0.4067 -0.6201
 6173TIP3   OH240153   4.912   0.300   0.255  0.3665  0.1672  0.1189
 6173TIP3    H140154   4.877   0.281   0.342 -1.3338 -1.9246 -0.9251
 6173TIP3    H240155   5.004   0.319   0.270 -0.2344  1.6435  2.5487
 6174TIP3   OH240156   2.136   1.052   7.534 -0.0353  0.8136  0.5001
 6174TIP3    H140157   2.119   0.993   7.608 -1.1215  1.1018  0.4950
 6174TIP3    H240158   2.223   1.088   7.552  1.2065 -1.6735 -0.1012
 6175TIP3   OH240159   5.186   6.299   7.942  0.4657 -0.3276 -0.3056
 6175TIP3    H140160   5.173   6.238   7.869  1.2635  0.4615 -1.1361
 6175TIP3    H240161   5.222   6.377   7.901  0.2714  0.3934  0.8606
 6176TIP3   OH240162   1.646   1.446   8.163  0.2366  0.6135 -0.6738
 6176TIP3    H140163   1.663   1.509   8.233 -0.6639  0.5286 -0.3608
 6176TIP3    H240164   1.550   1.439   8.161  0.2896  0.0391 -1.4036
 6177TIP3   OH240165   0.386   3.857   2.347  0.3892 -0.4332  0.1003
 6177TIP3    H140166   0.446   3.931   2.340 -0.0272  0.2480  2.7300
 6177TIP3    H240167   0.305   3.889   2.308  0.1573  0.6339  1.3653
 6178TIP3   OH240168   4.048   0.202   1.156 -0.2851  0.1184  0.4282
 6178TIP3    H140169   3.999   0.164   1.083  0.1467 -0.8404  0.6244
 6178TIP3    H240170   4.123   0.245   1.115  0.2926 -0.9401  0.3175
 6179TIP3   OH240171   3.065   1.965   0.402  0.1378 -0.2088 -1.0259
 6179TIP3    H140172   2.986   1.911   0.410 -0.4896  0.9590  2.9735
 6179TIP3    H240173   3.137   1.906   0.426 -0.3617  0.1026  1.6244
 6180TIP3   OH240174   5.711   4.475   1.019  0.2671  0.0111  0.4013
 6180TIP3    H140175   5.692   4.404   0.958 -0.0203  0.9154 -0.5885
 6180TIP3    H240176   5.807   4.481   1.021  0.2851 -0.2721  0.3354
 6181TIP3   OH240177   4.545   0.166   8.776  0.0336  0.3971  0.2101
 6181TIP3    H140178   4.585   0.200   8.856  1.0405  0.1941 -0.1975
 6181TIP3    H240179   4.536   0.243   8.719  1.5995  0.1354 -0.4168
 6182TIP3   OH240180   0.804   5.980   7.782  0.4139 -0.1826 -0.3265
 6182TIP3    H140181   0.824   5.991   7.875  0.3210 -2.5455  0.0262
 6182TIP3    H240182   0.766   6.064   7.756 -0.8544  0.0925  2.1202
 6183TIP3   OH240183   4.577   5.359   0.096 -0.1551 -0.1109 -0.2809
 6183TIP3    H140184   4.625   5.339   0.015 -1.8104 -0.1694 -1.2913
 6183TIP3    H240185   4.578   5.455   0.101 -3.9886  0.2871 -3.0120
 6184TIP3   OH240186   6.573   1.151   8.108  0.2526 -0.2144  0.2363
 6184TIP3    H140187   6.572   1.064   8.069  0.3872  0.5294 -1.4865
 6184TIP3    H240188   6.666   1.172   8.117  0.2514 -0.7103  1.8297
 6185TIP3   OH240189   4.372   5.040   7.282  0.6456  0.1126 -0.3585
 6185TIP3    H140190   4.447   5.098   7.296  0.7265  0.1293 -0.8455
 6185TIP3    H240191   4.302   5.098   7.251  0.6462 -0.0068 -0.5884
 6186TIP3   OH240192   2.627   5.700   8.452  0.1517  0.1307  0.1071
 6186TIP3    H140193   2.533   5.718   8.455  0.1012  0.7304 -2.3195
 6186TIP3    H240194   2.668   5.786   8.461  0.3024  0.2920 -1.7096
 6187TIP3   OH240195   2.572   3.483   8.318 -0.7563 -0.4683  0.2977
 6187TIP3    H140196   2.534   3.430   8.248  0.9207 -3.2605  1.3548
 6187TIP3    H240197   2.534   3.449   8.398  1.4161 -1.1407  1.1205
 6188TIP3   OH240198   1.324   1.179   1.354 -0.0851 -0.0338  0.2420
 6188TIP3    H140199   1.348   1.260   1.309  0.2752 -0.6163 -0.6467
 6188TIP3    H240200   1.353   1.110   1.295  1.5661 -0.8856  1.9307
 6189TIP3   OH240201   1.766   2.641   1.247 -0.1424  0.2329 -0.0919
 6189TIP3    H140202   1.815   2.723   1.246 -0.5553  0.4836  0.1581
 6189TIP3    H240203   1.680   2.664   1.281  0.0382 -0.4679  0.8844
 6190TIP3   OH240204   2.978   1.641   7.687 -0.0956 -0.2777  0.0811
 6190TIP3    H140205   2.995   1.687   7.605  2.5296 -0.7071  0.2974
 6190TIP3    H240206   2.902   1.586   7.669 -0.0662  0.2474 -1.8129
 6191TIP3   OH240207   5.453   1.229   1.173  1.0104 -0.1297 -0.2733
 6191TIP3    H140208   5.514   1.246   1.101  1.0977 -1.7519 -0.6377
 6191TIP3    H240209   5.367   1.228   1.132  0.8097  1.1776  0.0695
 6192TIP3   OH240210   0.444   4.680   7.898  0.1421 -0.7330 -0.5072
 6192TIP3    H140211   0.383   4.737   7.944 -1.3121 -0.8970 -2.1452
 6192TIP3    H240212   0.517   4.669   7.959 -0.8452  0.5455  0.9763
 6193TIP3   OH240213   6.844   6.813   0.648 -0.1378 -0.1038 -0.2790
 6193TIP3    H140214   6.808   6.756   0.716 -1.9877  1.2400 -0.0633
 6193TIP3    H240215   6.879   6.753   0.582  1.9043 -1.4718  1.8623
 6194TIP3   OH240216   3.130   0.767   7.578 -0.1471 -0.1107  0.6260
 6194TIP3    H140217   3.203   0.803   7.528  0.6478 -0.3975  1.5579
 6194TIP3    H240218   3.131   0.674   7.559 -0.2118 -0.1298  0.7138
 6195TIP3   OH240219   2.052   1.002   7.837  0.1945 -0.4117 -0.1301
 6195TIP3    H140220   2.125   0.944   7.856 -0.6632 -1.0725  1.2759
 6195TIP3    H240221   1.975   0.946   7.839 -0.8938  0.9677  3.1083
 6196TIP3   OH240222   4.999   4.988   0.831 -0.3754 -0.5366 -0.1407
 6196TIP3    H140223   5.013   4.911   0.886  1.4470 -1.1580 -1.3675
 6196TIP3    H240224   5.082   5.036   0.834 -0.7685  0.2553 -1.0698
 6197TIP3   OH240225   0.003   1.033   8.777 -0.0188 -0.6978  0.2583
 6197TIP3    H140226   0.014   1.109   8.720  0.2952 -0.5599  0.4996
 6197TIP3    H240227  -0.006   0.959   8.718 -1.4662 -0.3406 -0.0180
 6198TIP3   OH240228   0.086   3.598   2.669 -0.0409  0.2998  0.6600
 6198TIP3    H140229   0.138   3.565   2.742  0.0030  1.7689  1.3335
 6198TIP3    H240230   0.013   3.644   2.710 -0.4989  0.4110 -0.2433
 6199TIP3   OH240231   5.524   3.635   8.664 -0.1334 -0.0455  0.9459
 6199TIP3    H140232   5.546   3.720   8.702  0.0788  0.7134 -0.7779
 6199TIP3    H240233   5.431   3.642   8.642  0.8310  1.8348 -3.8870
 6200TIP3   OH240234   4.800   4.068   0.567 -0.2809  0.1057 -0.4883
 6200TIP3    H140235   4.791   4.124   0.490 -0.3994  1.6798  0.6156
 6200TIP3    H240236   4.719   4.082   0.617 -0.2443 -0.9481 -0.0962
 6201TIP3   OH240237   4.095   3.307   2.465  0.6059 -0.1945  0.6040
 6201TIP3    H140238   4.083   3.292   2.559 -0.7099 -0.0906  0.4700
 6201TIP3    H240239   4.023   3.365   2.440  0.0977 -1.3394 -0.7375
 6202TIP3   OH240240   1.060   1.930   2.314  0.4006 -0.8630 -0.0551
 6202TIP3    H140241   1.100   1.855   2.359 -1.7594 -1.3572  1.2384
 6202TIP3    H240242   1.036   1.896   2.228  0.6952 -1.2519  0.0136
 6203TIP3   OH240243   3.663   1.693   8.727 -0.0660 -0.9554 -0.2077
 6203TIP3    H140244   3.705   1.736   8.653  0.1245  1.2344  1.1171
 6203TIP3    H240245   3.723   1.622   8.751  0.6312 -0.6945 -1.1277
 6204TIP3   OH240246   1.883   5.365   2.160  0.0887  0.2036  0.0349
 6204TIP3    H140247   1.975   5.381   2.139 -0.1526  1.4516 -0.0924
 6204TIP3    H240248   1.882   5.274   2.191  1.2660 -0.0153 -0.4973
 6205TIP3   OH240249   6.417   0.236   1.965  0.1293  0.1046  0.1549
 6205TIP3    H140250   6.328   0.207   1.986  0.1723  0.3093  0.6202
 6205TIP3    H240251   6.416   0.250   1.870 -1.0115  2.4176  0.4551
 6206TIP3   OH240252   6.719   2.009   2.864  0.2969 -0.1609  0.8418
 6206TIP3    H140253   6.645   2.023   2.923 -0.0328  2.3535 -0.0691
 6206TIP3    H240254   6.745   2.096   2.836  3.7767 -0.9405  1.2310
 6207TIP3   OH240255   5.624   5.215   1.643 -0.0655  0.2650 -0.1815
 6207TIP3    H140256   5.576   5.298   1.631 -1.2702 -0.2631  0.8077
 6207TIP3    H240257   5.666   5.201   1.558 -1.2350  1.0393 -0.9370
 6208TIP3   OH240258   5.964   6.003   0.181  0.1378  0.0628 -0.4247
 6208TIP3    H140259   5.878   5.977   0.149  0.1167 -2.1799  1.2351
 6208TIP3    H240260   6.024   5.940   0.141  0.7624  0.3766  0.0041
 6209TIP3   OH240261   2.344   1.617   2.208 -0.9747 -0.1534  0.0115
 6209TIP3    H140262   2.429   1.574   2.212 -1.1311 -0.7332 -1.8673
 6209TIP3    H240263   2.365   1.711   2.203 -0.5576 -0.1273  1.5708
 6210TIP3   OH240264   4.932   2.554   1.126  0.0597  0.1076  0.1613
 6210TIP3    H140265   4.941   2.639   1.084 -1.9172  0.2130 -0.1157
 6210TIP3    H240266   4.960   2.570   1.217  0.6345  0.7923 -0.1205
 6211TIP3   OH240267   1.809   3.530   8.739 -0.0666  0.0520  0.4745
 6211TIP3    H140268   1.785   3.462   8.677 -1.1417 -0.7997  1.7726
 6211TIP3    H240269   1.782   3.496   8.824  1.2397  1.2384  1.4086
 6212TIP3   OH240270   6.114   4.499   8.392 -0.5837 -0.4559  0.6409
 6212TIP3    H140271   6.055   4.462   8.458  0.8618 -1.2325  1.5607
 6212TIP3    H240272   6.201   4.492   8.431  0.2413 -0.2086 -1.0404
 6213TIP3   OH240273   6.321   5.883   1.750  0.0781  0.5131 -0.1537
 6213TIP3    H140274   6.305   5.794   1.719  1.7213 -0.6515  2.0428
 6213TIP3    H240275   6.234   5.924   1.752 -0.8006 -1.2502 -0.6043
 6214TIP3   OH240276   2.422   5.917   8.418  0.5224  0.0091 -0.5525
 6214TIP3    H140277   2.429   5.880   8.330  0.6809  0.6972 -0.8400
 6214TIP3    H240278   2.501   5.970   8.428 -0.0177  0.8061 -0.4253
 6215TIP3   OH240279   5.163   6.250   0.483 -0.0413  0.3723 -0.1926
 6215TIP3    H140280   5.186   6.343   0.477  1.1619  0.2039  1.2674
 6215TIP3    H240281   5.067   6.248   0.484 -0.3242  1.2628 -4.4393
 6216TIP3   OH240282   3.411   0.903   8.342 -0.0259 -0.0888  0.8238
 6216TIP3    H140283   3.414   0.972   8.408 -0.9115  1.3646 -0.5754
 6216TIP3    H240284   3.349   0.839   8.377 -0.1445  0.4334  1.5850
 6217TIP3   OH240285   1.080   4.491   1.261 -0.7227  0.0159 -0.0531
 6217TIP3    H140286   1.111   4.401   1.269 -1.8043 -0.6376 -2.2942
 6217TIP3    H240287   1.008   4.497   1.324 -0.2845 -0.5126  0.5030
 6218TIP3   OH240288   6.453   6.065   1.124 -0.0814 -0.4310 -0.1467
 6218TIP3    H140289   6.514   6.006   1.080  0.2442 -2.2854  2.5150
 6218TIP3    H240290   6.508   6.138   1.154  0.9697 -2.0396  2.1487
 6219TIP3   OH240291   4.929   2.361   7.493  0.5886 -0.0656  1.0114
 6219TIP3    H140292   4.911   2.452   7.520  2.6483  0.3820  1.0699
 6219TIP3    H240293   4.958   2.369   7.402  2.2004 -0.4209  1.4479
 6220TIP3   OH240294   4.875   2.400   0.331 -0.0564 -0.2616 -0.4686
 6220TIP3    H140295   4.904   2.476   0.281 -1.1794  0.6033  0.1574
 6220TIP3    H240296   4.877   2.429   0.422 -0.8967 -0.8456 -0.2539
 6221TIP3   OH240297   3.547   1.722   7.656 -0.6704 -0.1458 -0.5995
 6221TIP3    H140298   3.542   1.674   7.573  1.2486 -0.2043 -0.7310
 6221TIP3    H240299   3.569   1.654   7.720  0.2836  0.2589 -0.4832
 6222TIP3   OH240300   4.990   0.292   7.223 -0.2629 -0.2265  0.1223
 6222TIP3    H140301   5.039   0.230   7.170  0.7602  0.4656  0.2368
 6222TIP3    H240302   4.900   0.286   7.190 -0.3482 -2.2611  0.6056
 6223TIP3   OH240303   4.926   1.163   2.247 -0.0717  0.2891  0.2932
 6223TIP3    H140304   4.938   1.079   2.202 -1.8556  0.4657 -0.6120
 6223TIP3    H240305   4.841   1.156   2.290  0.2519  1.2384  1.1300
 6224TIP3   OH240306   0.493   1.131   8.665 -0.4204 -0.2867 -0.3214
 6224TIP3    H140307   0.432   1.168   8.729  0.0388 -0.3381  0.1492
 6224TIP3    H240308   0.459   1.160   8.581  0.3874  1.9387  0.0548
 6225TIP3   OH240309   1.687   0.746   7.478 -0.3035  0.8107  0.3190
 6225TIP3    H140310   1.679   0.691   7.556  0.5781  3.0058  2.0826
 6225TIP3    H240311   1.671   0.687   7.405 -2.0459 -1.1931  2.1694
 6226TIP3   OH240312   3.421   5.063   8.809  0.0811 -0.3525  0.2988
 6226TIP3    H140313   3.411   5.147   8.764  0.1874 -0.7233 -0.4408
 6226TIP3    H240314   3.375   5.075   8.892 -1.1831 -0.0155 -0.4039
 6227TIP3   OH240315   0.533   5.841   0.323 -0.2933  0.3499  0.7224
 6227TIP3    H140316   0.601   5.786   0.362 -0.6723 -1.1081 -0.5681
 6227TIP3    H240317   0.567   5.864   0.236 -2.2688 -2.3066 -0.9061
 6228TIP3   OH240318   4.285   5.491   7.447  0.6622 -0.0568  0.0619
 6228TIP3    H140319   4.207   5.470   7.395  0.3674  0.0791  0.4397
 6228TIP3    H240320   4.323   5.567   7.403 -0.0324  0.5549  0.4874
 6229TIP3   OH240321   4.280   0.726   7.981  0.5316  0.3718 -0.5860
 6229TIP3    H140322   4.211   0.742   7.916  0.4094  1.1568 -0.2685
 6229TIP3    H240323   4.233   0.721   8.064  1.0443  3.4124  0.0061
 6230TIP3   OH240324   3.280   2.606   8.100 -0.5287 -0.0353  0.0474
 6230TIP3    H140325   3.276   2.662   8.022 -1.6855  0.2574  0.2965
 6230TIP3    H240326   3.298   2.519   8.065  1.0302  0.4194 -0.3674
 6231TIP3   OH240327   6.667   6.743   2.607 -0.0685 -0.4030 -1.2341
 6231TIP3    H140328   6.594   6.683   2.619  0.1120 -1.2166 -3.5909
 6231TIP3    H240329   6.633   6.828   2.632 -1.0591 -1.1307 -0.0272
 6232TIP3   OH240330   1.952   4.230   8.285  0.3865 -0.2043 -0.1085
 6232TIP3    H140331   1.945   4.154   8.228 -1.3522 -1.8630  2.1517
 6232TIP3    H240332   1.885   4.291   8.251 -0.0505 -0.8064 -0.3535
 6233TIP3   OH240333   5.041   3.621   2.237  0.7271 -0.5323 -0.0866
 6233TIP3    H140334   4.957   3.612   2.282  1.6668 -0.0785  1.8668
 6233TIP3    H240335   5.097   3.556   2.279  1.7419  0.1193 -0.4029
 6234TIP3   OH240336   6.448   5.049   0.611  0.5769  0.1032 -0.4313
 6234TIP3    H140337   6.457   4.983   0.681  4.7047 -0.7137 -1.4325
 6234TIP3    H240338   6.426   4.998   0.533 -0.1331  0.4590 -0.4615
 6235TIP3   OH240339   5.306   0.117   0.095  0.2013  0.2639 -0.4546
 6235TIP3    H140340   5.241   0.142   0.030  0.5109  1.3878 -0.3408
 6235TIP3    H240341   5.391   0.135   0.054  0.4320 -0.1885 -0.1976
 6236TIP3   OH240342   0.217   3.291   8.699 -0.5447 -0.0981  0.1870
 6236TIP3    H140343   0.300   3.320   8.661  0.5903 -1.2270  1.6868
 6236TIP3    H240344   0.187   3.221   8.641  0.7445 -1.2478  0.8817
 6237TIP3   OH240345   3.583   0.132   7.518 -0.3022  0.3541 -0.5513
 6237TIP3    H140346   3.548   0.085   7.442  2.2201 -0.7442 -1.1498
 6237TIP3    H240347   3.590   0.223   7.489 -1.6722  0.4192 -0.7323
 6238TIP3   OH240348   3.635   1.077   2.088  0.3371 -0.0918  0.3243
 6238TIP3    H140349   3.728   1.095   2.079  0.8506 -2.0897  1.1569
 6238TIP3    H240350   3.606   1.136   2.158  1.4648 -0.9276  1.5393
 6239TIP3   OH240351   3.774   4.127   8.007 -0.6136 -0.0491  0.1350
 6239TIP3    H140352   3.801   4.082   8.086  0.1958 -0.1179 -0.1607
 6239TIP3    H240353   3.828   4.207   8.006 -0.9660  0.1881 -0.0926
 6240TIP3   OH240354   0.598   0.138   8.220  0.4951 -0.4802 -0.5778
 6240TIP3    H140355   0.678   0.185   8.199  0.1901  0.3381  0.0241
 6240TIP3    H240356   0.592   0.141   8.315  0.3060 -1.4952 -0.5394
 6241TIP3   OH240357   5.311   4.155   0.655  0.6848  0.0132 -0.5801
 6241TIP3    H140358   5.394   4.135   0.612  1.4606  0.5368  0.6394
 6241TIP3    H240359   5.333   4.169   0.747 -0.2802  2.9471 -0.6719
 6242TIP3   OH240360   4.442   3.767   1.866 -0.8883  0.7573  0.4069
 6242TIP3    H140361   4.456   3.850   1.821 -1.5163  1.4529  1.4700
 6242TIP3    H240362   4.470   3.701   1.803 -0.0087  1.7832 -0.3122
 6243TIP3   OH240363   5.345   5.951   3.071  0.3556 -1.1483  0.4656
 6243TIP3    H140364   5.346   5.860   3.040  1.9293 -0.9826 -0.0721
 6243TIP3    H240365   5.425   5.989   3.034 -0.6817  0.6964  0.0044
 6244TIP3   OH240366   5.482   1.975   7.384 -0.0537 -0.2558 -0.2855
 6244TIP3    H140367   5.558   1.945   7.434 -0.5881 -1.1148  0.0314
 6244TIP3    H240368   5.430   1.895   7.369 -1.0474  0.3568 -0.2189
 6245TIP3   OH240369   5.643   1.293   6.756 -0.0243  0.0441  0.4027
 6245TIP3    H140370   5.651   1.386   6.734 -0.7101 -0.3713 -1.9692
 6245TIP3    H240371   5.728   1.269   6.792  0.5343  1.3523  0.0196
 6246TIP3   OH240372   4.533   4.934   8.776 -0.1643  0.0893 -0.6849
 6246TIP3    H140373   4.505   4.947   8.867  1.4495 -1.3176  0.0668
 6246TIP3    H240374   4.517   5.018   8.733 -1.8162  0.5023  0.6450
 6247TIP3   OH240375   4.154   0.322   2.090 -0.4006 -0.4508  0.1974
 6247TIP3    H140376   4.248   0.314   2.106 -0.5912 -0.2426  1.4850
 6247TIP3    H240377   4.114   0.253   2.142 -1.0632  0.3850  0.8211
 6248TIP3   OH240378   2.697   0.220   0.177 -0.3892  0.4183 -0.3689
 6248TIP3    H140379   2.649   0.252   0.254 -0.8059  1.7468 -1.1506
 6248TIP3    H240380   2.786   0.207   0.208 -0.4010  1.5648  0.2172
 6249TIP3   OH240381   1.503   4.977   0.558 -0.4600  0.4856  0.0787
 6249TIP3    H140382   1.430   4.985   0.619 -0.0035  2.5633  0.4322
 6249TIP3    H240383   1.581   4.992   0.611  0.1409 -0.3239 -0.5478
 6250TIP3   OH240384   2.046   5.875   1.441 -0.1558 -0.2929 -0.5702
 6250TIP3    H140385   2.136   5.842   1.443 -0.3267 -0.7948  1.3788
 6250TIP3    H240386   2.052   5.958   1.394  1.4593  0.0322  0.1140
 6251TIP3   OH240387   0.260   5.517   1.014  0.0761 -0.2767  0.3135
 6251TIP3    H140388   0.219   5.568   1.084 -1.8420 -0.9879 -0.2231
 6251TIP3    H240389   0.218   5.431   1.020  2.2325 -1.3899  0.3190
 6252TIP3   OH240390   6.512   3.235   2.091  0.3225  0.3179  0.2417
 6252TIP3    H140391   6.466   3.185   2.158  1.7420  0.1785  1.1510
 6252TIP3    H240392   6.601   3.203   2.093  0.6501  1.0589 -1.0006
 6253TIP3   OH240393   2.252   1.834   1.820  0.0578 -0.3640  0.1490
 6253TIP3    H140394   2.180   1.814   1.880 -0.5711 -1.6066 -0.9649
 6253TIP3    H240395   2.209   1.852   1.736  1.0448 -1.4024 -0.6076
 6254TIP3   OH240396   3.417   1.640   1.030  0.1092  0.4720 -0.0078
 6254TIP3    H140397   3.502   1.621   1.070 -0.5177 -1.8265  0.3878
 6254TIP3    H240398   3.418   1.591   0.947 -1.1875 -0.4744  0.5033
 6255TIP3   OH240399   6.595   6.090   8.539  0.1258  0.7608  0.4985
 6255TIP3    H140400   6.595   5.996   8.557 -0.8505  0.2858 -1.7304
 6255TIP3    H240401   6.685   6.117   8.559  0.4046 -0.5990  1.2745
 6256TIP3   OH240402   4.832   3.536   8.679 -0.3275  0.5780  0.8196
 6256TIP3    H140403   4.914   3.510   8.638 -1.9232  0.0240 -2.2677
 6256TIP3    H240404   4.830   3.632   8.673 -0.4297  0.5188 -0.2838
 6257TIP3   OH240405   5.250   5.320   3.144  0.0390  0.2986  0.2216
 6257TIP3    H140406   5.334   5.313   3.189  0.3913  0.9974 -0.3053
 6257TIP3    H240407   5.263   5.390   3.080 -1.5864  1.9228  1.5556
 6258TIP3   OH240408   2.559   6.369   7.168 -0.0374 -0.0900  0.3896
 6258TIP3    H140409   2.652   6.377   7.193  0.1574 -0.8277 -0.0847
 6258TIP3    H240410   2.523   6.306   7.230  0.4349 -1.8879 -1.0915
 6259TIP3   OH240411   4.053   4.910   0.934 -0.1435  0.5029  0.0101
 6259TIP3    H140412   3.988   4.932   1.000 -0.0869  4.1318 -0.9438
 6259TIP3    H240413   4.137   4.927   0.975 -0.0450  1.2401 -0.4827
 6260TIP3   OH240414   1.971   3.919   0.464  0.0638 -0.3032 -0.0008
 6260TIP3    H140415   1.962   3.858   0.537 -0.0390  0.6406  0.7920
 6260TIP3    H240416   1.952   3.866   0.386  0.0846 -1.2988  0.6580
 6261TIP3   OH240417   5.976   1.436   2.280 -0.3397 -0.3422  0.1247
 6261TIP3    H140418   6.070   1.442   2.291 -0.1172 -0.7439 -1.2807
 6261TIP3    H240419   5.947   1.526   2.263  0.1338 -0.4854 -1.6198
 6262TIP3   OH240420   5.429   2.523   6.905  0.4578 -0.0751 -0.0060
 6262TIP3    H140421   5.456   2.449   6.960  0.1526 -1.2784 -1.4233
 6262TIP3    H240422   5.510   2.568   6.884  0.6544 -0.0278  0.8209
 6263TIP3   OH240423   2.487   2.659   0.259 -0.1838 -0.3526  0.3650
 6263TIP3    H140424   2.453   2.571   0.243 -0.3099  0.1645 -2.8434
 6263TIP3    H240425   2.582   2.649   0.261 -0.2251 -0.8488  2.6513
 6264TIP3   OH240426   1.026   4.170   7.821  0.3090 -0.3499 -0.0385
 6264TIP3    H140427   0.967   4.100   7.794  2.5629 -2.1390 -0.5973
 6264TIP3    H240428   1.019   4.171   7.917 -1.7411  0.5774 -0.1443
 6265TIP3   OH240429   6.619   3.772   8.214 -0.3296 -0.3967 -0.5724
 6265TIP3    H140430   6.596   3.862   8.234 -1.4283 -1.0558  1.3310
 6265TIP3    H240431   6.714   3.773   8.206 -0.0749  0.5372  1.8053
 6266TIP3   OH240432   3.564   2.786   0.837 -0.1287 -0.0650 -0.3897
 6266TIP3    H140433   3.568   2.762   0.744 -1.9984 -0.1248 -0.4937
 6266TIP3    H240434   3.583   2.704   0.883 -2.0528 -0.7590 -0.7516
 6267TIP3   OH240435   6.644   3.067   8.301  0.8643 -0.1610  0.3306
 6267TIP3    H140436   6.709   3.064   8.231 -0.8506  0.2074 -1.3597
 6267TIP3    H240437   6.579   3.131   8.271  0.7662  1.1124  2.9445
 6268TIP3   OH240438   3.602   5.281   8.641 -0.1127  0.0516  0.1118
 6268TIP3    H140439   3.530   5.277   8.578 -0.4175 -0.3551  0.4802
 6268TIP3    H240440   3.561   5.310   8.722  0.5637  2.2944 -0.2838
 6269TIP3   OH240441   4.632   5.091   2.159  0.1446 -0.2789 -0.1499
 6269TIP3    H140442   4.585   5.023   2.111  1.5607 -0.7204 -0.9818
 6269TIP3    H240443   4.592   5.091   2.246 -0.3657 -1.6850 -0.3539
 6270TIP3   OH240444   6.586   1.998   8.053  0.5329 -0.3856  0.3751
 6270TIP3    H140445   6.581   2.011   8.148  0.9211 -0.1937  0.3741
 6270TIP3    H240446   6.589   2.087   8.017  1.6668 -0.4495  0.2666
 6271TIP3   OH240447   2.014   3.234   0.116 -0.3668 -0.2109 -0.1182
 6271TIP3    H140448   2.038   3.143   0.099 -1.1925 -0.5621  0.5414
 6271TIP3    H240449   1.926   3.242   0.081 -0.3264  0.3241 -0.1027
 6272TIP3   OH240450   3.139   0.985   0.349  0.2731 -0.0987  0.0190
 6272TIP3    H140451   3.164   0.893   0.362  0.5019  0.0490  0.6250
 6272TIP3    H240452   3.063   0.997   0.406  0.4299  0.1729  0.1713
 6273TIP3   OH240453   0.799   2.755   0.325  0.1907  0.6693  0.0194
 6273TIP3    H140454   0.748   2.808   0.387  0.1818  0.8095 -0.1064
 6273TIP3    H240455   0.868   2.814   0.295  1.9223 -0.1925  1.9745
 6274TIP3   OH240456   4.412   6.051   8.474  0.8088  0.1816 -0.1312
 6274TIP3    H140457   4.459   6.134   8.464 -2.0814  1.8185 -1.3316
 6274TIP3    H240458   4.408   6.037   8.569 -0.2175  2.4368  0.2082
 6275TIP3   OH240459   0.044   2.397   1.832 -0.1866  0.4913 -0.4528
 6275TIP3    H140460  -0.013   2.357   1.897  0.1782  0.1671 -0.3336
 6275TIP3    H240461   0.092   2.465   1.880  1.3923 -0.9221  0.0524
 6276TIP3   OH240462   0.270   0.448   2.539 -0.0752 -0.1775 -0.5104
 6276TIP3    H140463   0.310   0.508   2.603 -0.4126  0.5118 -0.9293
 6276TIP3    H240464   0.266   0.364   2.584  1.0369 -0.0525 -0.1493
 6277TIP3   OH240465   4.070   1.584   7.107  0.0432 -0.0051 -0.0590
 6277TIP3    H140466   4.037   1.584   7.197  0.3857  0.0490  0.0677
 6277TIP3    H240467   3.994   1.608   7.054  0.3361  2.1738  0.4057
 6278TIP3   OH240468   1.560   4.775   7.645 -0.2739 -0.0567 -0.2893
 6278TIP3    H140469   1.576   4.775   7.551  2.4434  1.4702  0.0582
 6278TIP3    H240470   1.519   4.860   7.662 -0.2461 -0.0954 -0.0239
 6279TIP3   OH240471   6.695   4.362   0.955  0.3488  0.2260 -0.3678
 6279TIP3    H140472   6.782   4.331   0.979  0.3213  0.6513  0.3305
 6279TIP3    H240473   6.663   4.299   0.890 -0.4893 -2.3404  2.3225
 6280TIP3   OH240474   3.756   3.918   1.156 -0.2287 -0.1909 -0.0348
 6280TIP3    H140475   3.697   3.985   1.120  0.0399 -0.4905 -1.0930
 6280TIP3    H240476   3.841   3.939   1.117  0.5036  0.5407  1.8739
 6281TIP3   OH240477   4.029   3.289   1.943 -0.1215  0.3168  0.1886
 6281TIP3    H140478   4.034   3.249   2.030  0.5711 -1.0592 -0.4588
 6281TIP3    H240479   3.951   3.344   1.947  0.1931  0.7017  1.8458
 6282TIP3   OH240480   0.641   4.632   0.322  0.4628 -0.0152 -0.3114
 6282TIP3    H140481   0.619   4.673   0.238 -2.4998  2.2757  1.3874
 6282TIP3    H240482   0.677   4.704   0.374 -0.3112 -0.7310  1.2543
 6283TIP3   OH240483   6.249   4.010   0.421  0.0659 -0.4674 -0.0752
 6283TIP3    H140484   6.165   4.030   0.379 -0.4937  1.5027  1.7976
 6283TIP3    H240485   6.252   3.914   0.423 -2.7404 -0.6385  0.8372
 6284TIP3   OH240486   1.474   0.419   8.649 -0.1617 -1.0085  0.4037
 6284TIP3    H140487   1.552   0.364   8.649  1.8254  1.5956 -1.7084
 6284TIP3    H240488   1.446   0.422   8.557 -2.4505 -1.3619  1.0099
 6285TIP3   OH240489   3.135   0.101   0.512  0.3358  0.3601 -0.2550
 6285TIP3    H140490   3.225   0.080   0.488 -0.7517 -2.3638 -2.7074
 6285TIP3    H240491   3.136   0.110   0.607  3.1166  0.2328 -0.1957
 6286TIP3   OH240492   1.101   1.924   7.562  0.1707  0.0709  0.1871
 6286TIP3    H140493   1.115   1.854   7.626  0.7842 -1.9727 -2.0196
 6286TIP3    H240494   1.016   1.903   7.522  1.3516 -0.7887 -2.0144
 6287TIP3   OH240495   2.833   3.350   1.148  0.2217  0.2344 -0.2117
 6287TIP3    H140496   2.813   3.258   1.166 -2.1456  1.1759  2.8469
 6287TIP3    H240497   2.903   3.372   1.210 -1.8478  1.3330  1.8676
 6288TIP3   OH240498   5.716   2.685   3.019 -0.2896 -0.1023  0.5324
 6288TIP3    H140499   5.755   2.626   3.084 -0.1857  1.3338  1.8411
 6288TIP3    H240500   5.634   2.641   2.994 -0.1513 -0.8791  1.3672
 6289TIP3   OH240501   3.705   3.805   0.570 -1.3162 -0.0129  0.3377
 6289TIP3    H140502   3.618   3.767   0.579 -0.4155 -2.0309  1.2430
 6289TIP3    H240503   3.724   3.840   0.657 -0.5598 -1.2280  0.6965
 6290TIP3   OH240504   5.966   6.446   2.273 -0.7468  0.1775  0.7841
 6290TIP3    H140505   6.043   6.492   2.307 -0.1348  1.1293 -1.6938
 6290TIP3    H240506   5.965   6.363   2.321  1.0223  0.7068  1.8406
 6291TIP3   OH240507   1.588   5.142   0.190 -0.6442  0.2244 -0.4883
 6291TIP3    H140508   1.614   5.088   0.116  0.8904 -1.9790  1.5071
 6291TIP3    H240509   1.670   5.182   0.220 -1.6595  3.5649 -1.6559
 6292TIP3   OH240510   6.040   3.624   1.364  0.1294 -0.0988 -0.1669
 6292TIP3    H140511   6.101   3.556   1.393  1.5857  1.1707 -0.1123
 6292TIP3    H240512   5.978   3.579   1.307  0.2844 -1.6923  0.8821
 6293TIP3   OH240513   0.186   5.756   7.869  0.1649 -0.0346 -0.6199
 6293TIP3    H140514   0.152   5.819   7.806  0.1357 -0.3076 -0.8818
 6293TIP3    H240515   0.280   5.775   7.874 -0.2308  1.7760  1.3095
 6294TIP3   OH240516   2.555   3.197   2.676  0.2262  0.0094 -0.5772
 6294TIP3    H140517   2.586   3.127   2.619 -0.6322  0.1062 -1.1798
 6294TIP3    H240518   2.523   3.265   2.616  1.5387  1.1767 -0.0274
 6295TIP3   OH240519   4.981   4.850   7.636 -0.1287  0.6148  0.4172
 6295TIP3    H140520   5.057   4.904   7.659  0.2234  0.1001  0.4624
 6295TIP3    H240521   4.907   4.910   7.643  0.3266  1.2530 -0.1244
 6296TIP3   OH240522   6.851   6.796   8.837  0.4112 -0.0650 -0.0525
 6296TIP3    H140523   6.922   6.859   8.844  0.5072 -0.0660 -0.9470
 6296TIP3    H240524   6.862   6.756   8.751 -1.1346  0.5074 -0.5412
 6297TIP3   OH240525   6.436   4.136   0.553 -0.3255 -0.2517 -0.1535
 6297TIP3    H140526   6.499   4.065   0.540  0.5570  0.8190 -2.1069
 6297TIP3    H240527   6.354   4.103   0.515 -0.6495 -1.1434  1.2272
 6298TIP3   OH240528   4.641   4.118   0.879  0.1037  0.1585  0.1659
 6298TIP3    H140529   4.627   4.191   0.940  1.6861  0.7111 -0.1058
 6298TIP3    H240530   4.680   4.049   0.933 -3.6463 -1.5608  1.0266
 6299TIP3   OH240531   5.799   3.723   2.431 -0.3845  0.2642 -0.8910
 6299TIP3    H140532   5.858   3.719   2.356  1.9556  1.0259  0.7941
 6299TIP3    H240533   5.823   3.648   2.486 -1.1251  0.4638 -0.2738
 6300TIP3   OH240534   5.519   0.420   0.359  0.3023  0.3909  0.1952
 6300TIP3    H140535   5.604   0.379   0.344  0.0715  0.0465 -0.1697
 6300TIP3    H240536   5.462   0.348   0.386  0.3959  0.7909  1.5404
 6301TIP3   OH240537   3.338   5.645   2.175  0.4970 -0.0316  0.0772
 6301TIP3    H140538   3.363   5.616   2.087  0.4663 -1.5454  0.5549
 6301TIP3    H240539   3.308   5.566   2.220 -0.9851  0.9726  0.9614
 6302TIP3   OH240540   1.171   0.483   0.876 -0.1115 -0.1967  0.1954
 6302TIP3    H140541   1.154   0.406   0.930  0.0281  0.2276  0.8509
 6302TIP3    H240542   1.255   0.517   0.907  0.2508 -0.2662 -0.6706
 6303TIP3   OH240543   3.019   6.059   1.070 -0.1231  0.6559  0.1894
 6303TIP3    H140544   3.017   5.989   1.005  0.2109  0.8041  0.0111
 6303TIP3    H240545   2.928   6.072   1.096 -0.1368 -0.1541  0.5611
 6304TIP3   OH240546   6.602   0.399   1.154 -0.3378 -0.0014 -0.4983
 6304TIP3    H140547   6.585   0.446   1.072  0.4609  0.4501 -0.4108
 6304TIP3    H240548   6.689   0.360   1.143 -0.5586 -0.6114 -0.1685
 6305TIP3   OH240549   2.788   4.082   8.602 -0.0101 -0.8214  0.4262
 6305TIP3    H140550   2.833   4.019   8.546  0.9420 -0.4085  0.7043
 6305TIP3    H240551   2.697   4.077   8.575  0.4543 -0.4487 -1.3438
 6306TIP3   OH240552   5.411   2.427   1.763  0.1442 -0.3432 -0.0242
 6306TIP3    H140553   5.439   2.391   1.847  0.9850  1.3218  0.4683
 6306TIP3    H240554   5.460   2.377   1.697 -1.1137 -2.2019  0.3756
 6307TIP3   OH240555   2.877   1.436   2.080  0.3694  0.1436 -0.3101
 6307TIP3    H140556   2.877   1.483   1.996  1.0647  1.0887  0.2017
 6307TIP3    H240557   2.920   1.496   2.141 -2.2088  0.4697  1.2966
 6308TIP3   OH240558   0.148   4.744   1.041  0.3211  0.3853 -0.4330
 6308TIP3    H140559   0.062   4.714   1.072 -0.0599  1.9740  0.1206
 6308TIP3    H240560   0.179   4.672   0.985 -0.6557 -0.9002  0.6039
 6309TIP3   OH240561   1.021   5.033   2.217 -0.0304 -0.0667  0.6150
 6309TIP3    H140562   1.106   5.058   2.180 -0.3654 -0.7194 -0.6484
 6309TIP3    H240563   1.039   5.016   2.310  1.7762 -2.6191 -0.1014
 6310TIP3   OH240564   3.061   5.523   2.003  0.2065  0.4593 -0.2787
 6310TIP3    H140565   3.117   5.501   2.078  1.2741  0.1437 -1.1347
 6310TIP3    H240566   3.068   5.448   1.945 -0.5028  0.7577 -0.7664
 6311TIP3   OH240567   6.812   5.663   2.715  0.4503 -0.0418  0.5904
 6311TIP3    H140568   6.804   5.690   2.624 -3.4947 -1.0972  0.4588
 6311TIP3    H240569   6.833   5.744   2.763  0.5425  0.8976 -0.9871
 6312TIP3   OH240570   5.852   3.045   7.850 -0.1092  0.2296 -0.0798
 6312TIP3    H140571   5.832   2.979   7.916  2.2916 -0.1854  0.3497
 6312TIP3    H240572   5.803   3.018   7.772 -2.2433  0.2018  1.1941
 6313TIP3   OH240573   6.389   1.340   1.197  0.1510  0.0435 -0.2319
 6313TIP3    H140574   6.398   1.295   1.282  0.4029 -0.3103 -0.4410
 6313TIP3    H240575   6.474   1.329   1.155  0.0841  0.3733 -0.4583
 6314TIP3   OH240576   6.474   1.862   7.827 -0.0965 -0.2727  0.1651
 6314TIP3    H140577   6.394   1.824   7.864  0.8173 -1.2592  1.1752
 6314TIP3    H240578   6.467   1.844   7.733  0.3452 -3.1563  0.5842
 6315TIP3   OH240579   0.072   4.539   7.600 -0.3374 -0.1757  0.2858
 6315TIP3    H140580   0.152   4.531   7.548 -0.8559  0.2944 -0.6140
 6315TIP3    H240581   0.053   4.633   7.600 -0.6081 -0.2219  0.9481
 6316TIP3   OH240582   1.627   3.686   8.230 -0.3883  0.2221  0.7537
 6316TIP3    H140583   1.575   3.731   8.163  1.1109  2.7629  1.1620
 6316TIP3    H240584   1.571   3.684   8.307 -1.3279 -0.7802  0.0775
 6317TIP3   OH240585   4.253   5.114   1.442  0.0733 -0.1205  0.3233
 6317TIP3    H140586   4.331   5.128   1.494  1.2880 -1.2234 -1.0975
 6317TIP3    H240587   4.260   5.023   1.411 -0.4291  0.5235 -1.9103
 6318TIP3   OH240588   2.177   1.528   1.921  0.0527 -0.2180 -0.8141
 6318TIP3    H140589   2.126   1.608   1.933  0.5060 -0.0292 -0.0676
 6318TIP3    H240590   2.171   1.509   1.828 -2.9845 -1.2744 -0.5169
 6319TIP3   OH240591   5.503   2.918   1.984  0.3068  0.3870  0.2586
 6319TIP3    H140592   5.488   2.864   1.907 -0.9657  0.2471  0.5787
 6319TIP3    H240593   5.431   2.896   2.043  0.8136  1.0719  1.1629
 6320TIP3   OH240594   3.240   1.247   1.365  0.4477  0.0731  0.2536
 6320TIP3    H140595   3.176   1.317   1.350 -1.0683 -1.7826 -3.2246
 6320TIP3    H240596   3.325   1.289   1.356 -0.3896  1.7790 -0.0508
 6321TIP3   OH240597   0.120   3.889   7.566  0.2452 -0.2406  0.0531
 6321TIP3    H140598   0.168   3.810   7.543 -0.5857 -0.3953 -1.2208
 6321TIP3    H240599   0.126   3.944   7.488  0.6197  0.8751  0.8402
 6322TIP3   OH240600   1.304   1.793   0.061  0.0575  0.1248 -0.7515
 6322TIP3    H140601   1.325   1.883   0.085  0.7530  0.7508 -3.3273
 6322TIP3    H240602   1.248   1.802  -0.017  0.4669 -1.6469 -1.2884
 6323TIP3   OH240603   1.343   6.475   0.119 -0.9590  0.6389 -0.4338
 6323TIP3    H140604   1.351   6.565   0.086  1.4999  0.6004 -0.1212
 6323TIP3    H240605   1.349   6.484   0.214  0.0793  0.1053 -0.4389
 6324TIP3   OH240606   2.376   5.313   8.157 -0.0036 -0.2123  0.3796
 6324TIP3    H140607   2.472   5.313   8.155  0.0289  0.3970 -3.0400
 6324TIP3    H240608   2.353   5.220   8.168  1.0814 -0.8810 -2.2991
 6325TIP3   OH240609   1.228   5.863   7.258  0.0509  0.2462  0.5177
 6325TIP3    H140610   1.238   5.880   7.352  0.3494 -0.1613  0.5627
 6325TIP3    H240611   1.147   5.811   7.252  0.4123 -0.3380  0.6273
 6326TIP3   OH240612   0.773   5.641   1.357  0.0559  0.0458  0.4423
 6326TIP3    H140613   0.861   5.623   1.387 -0.3256  0.5997  1.9533
 6326TIP3    H240614   0.716   5.615   1.429 -1.1265 -1.2362 -0.8623
 6327TIP3   OH240615   5.022   5.216   7.596 -0.6220 -0.4253 -0.0952
 6327TIP3    H140616   5.010   5.295   7.542 -1.1187 -0.2196  0.3079
 6327TIP3    H240617   5.100   5.174   7.559 -0.6869 -0.0493 -0.6828
 6328TIP3   OH240618   1.272   6.641   7.988 -0.1840  0.2210 -0.5171
 6328TIP3    H140619   1.259   6.616   8.079 -1.7475  0.8268 -0.5414
 6328TIP3    H240620   1.188   6.678   7.961 -0.9413 -3.0159 -3.2127
 6329TIP3   OH240621   5.550   2.605   2.457  0.2591  0.1704 -0.2967
 6329TIP3    H140622   5.609   2.678   2.438 -0.5409  0.9725  0.1933
 6329TIP3    H240623   5.581   2.533   2.402  1.2370  0.7964 -0.5830
 6330TIP3   OH240624   4.048   0.699   7.804  0.0275 -0.1725  0.2436
 6330TIP3    H140625   4.006   0.621   7.841 -0.9392 -0.9776 -2.3768
 6330TIP3    H240626   3.993   0.772   7.835  0.5412 -0.5318  2.1449
 6331TIP3   OH240627   4.097   2.634   6.889  0.7635 -0.2531 -0.1250
 6331TIP3    H140628   4.099   2.538   6.880  0.1044 -0.2713 -0.1251
 6331TIP3    H240629   4.184   2.656   6.924  1.6070 -0.6591 -1.8580
 6332TIP3   OH240630   3.645   6.447   1.078  0.1581 -0.4850 -0.3297
 6332TIP3    H140631   3.693   6.400   1.010 -1.0600 -2.8632  0.3534
 6332TIP3    H240632   3.710   6.507   1.116  1.8257 -1.6461 -1.2137
 6333TIP3   OH240633   1.768   3.343   1.926 -0.2150 -0.3147  0.0684
 6333TIP3    H140634   1.710   3.388   1.865 -0.9883 -0.2758  0.8141
 6333TIP3    H240635   1.762   3.251   1.902  1.1904 -0.0931 -1.3108
 6334TIP3   OH240636   2.481   4.828   1.592  0.4639 -0.1467 -0.3289
 6334TIP3    H140637   2.449   4.821   1.682 -0.5950 -0.2184 -0.6976
 6334TIP3    H240638   2.402   4.847   1.540  0.9433 -0.8647 -1.3366
 6335TIP3   OH240639   1.055   0.342   7.689  0.0416 -0.0981  0.4452
 6335TIP3    H140640   1.024   0.430   7.666 -0.5059 -0.4279 -0.0951
 6335TIP3    H240641   0.982   0.284   7.666  1.1936 -0.9456 -1.2556
 6336TIP3   OH240642   6.579   1.996   7.220  0.3290  0.6033 -0.2592
 6336TIP3    H140643   6.581   2.089   7.197  0.9865  0.3850 -1.1323
 6336TIP3    H240644   6.517   1.956   7.159 -0.3679  0.5375  0.4634
 6337TIP3   OH240645   4.235   2.660   0.018  0.0300  0.3669 -0.2615
 6337TIP3    H140646   4.228   2.570   0.051 -0.3151 -0.0327 -1.3836
 6337TIP3    H240647   4.277   2.651  -0.067  1.2116  1.4141  0.1943
 6338TIP3   OH240648   3.741   3.306   2.000  0.7408 -0.2541  0.0440
 6338TIP3    H140649   3.716   3.215   2.019  1.2618 -0.2934  0.5778
 6338TIP3    H240650   3.689   3.358   2.063 -0.1688 -0.1071 -0.7993
 6339TIP3   OH240651   4.047   1.750   8.162 -0.5261  0.2197 -0.3027
 6339TIP3    H140652   4.094   1.669   8.179 -1.8485 -0.3179  0.9692
 6339TIP3    H240653   4.115   1.818   8.165  0.1702 -0.4867  1.8337
 6340TIP3   OH240654   1.810   1.968   2.079  0.3139  0.3881 -1.0064
 6340TIP3    H140655   1.775   2.027   2.146  2.0391 -0.2291  0.5075
 6340TIP3    H240656   1.898   2.000   2.063  1.4017 -1.8537  0.0571
 6341TIP3   OH240657   5.787   5.504   2.809  0.1154 -0.1046  0.5970
 6341TIP3    H140658   5.867   5.515   2.862  0.5748  1.3179 -0.3551
 6341TIP3    H240659   5.728   5.455   2.866  1.3793 -0.4943  1.6247
 6342TIP3   OH240660   4.125   5.614   2.464 -0.3319  0.9195  0.4858
 6342TIP3    H140661   4.069   5.638   2.390 -0.5514  1.2194  0.7488
 6342TIP3    H240662   4.189   5.553   2.426 -1.6073 -0.4478  0.4483
 6343TIP3   OH240663   2.550   2.877   0.850 -0.5484 -0.5149  0.2268
 6343TIP3    H140664   2.531   2.923   0.933  0.4018 -1.3834  0.9495
 6343TIP3    H240665   2.489   2.915   0.788 -1.3917  0.0687  1.3644
 6344TIP3   OH240666   6.232   6.720   2.016  0.0230  0.2593  0.5271
 6344TIP3    H140667   6.281   6.734   2.097 -1.8348  1.8050  1.4503
 6344TIP3    H240668   6.232   6.625   2.004 -0.5826 -0.1122  2.9507
 6345TIP3   OH240669   3.618   1.995   0.807 -0.4231 -0.2683 -0.2927
 6345TIP3    H140670   3.639   2.039   0.890 -0.8087 -1.4306  0.4383
 6345TIP3    H240671   3.649   2.056   0.739  1.1269  0.0968  0.7082
 6346TIP3   OH240672   3.356   5.516   1.451  0.3828  0.9372 -0.3455
 6346TIP3    H140673   3.291   5.519   1.381  0.5062  0.4575 -0.4842
 6346TIP3    H240674   3.323   5.449   1.511  0.2473  1.3817  0.0919
 6347TIP3   OH240675   4.868   1.039   1.859 -0.5237 -0.1054 -0.0027
 6347TIP3    H140676   4.797   1.101   1.875 -1.2853 -0.6084 -1.2511
 6347TIP3    H240677   4.829   0.973   1.800  1.0651 -0.2301 -0.9720
 6348TIP3   OH240678   4.260   0.872   1.956  0.0756 -0.5524  0.8566
 6348TIP3    H140679   4.238   0.893   2.046 -1.3456  0.2570  0.3506
 6348TIP3    H240680   4.283   0.779   1.958 -0.1389 -0.5939  2.0078
 6349TIP3   OH240681   1.017   2.309   0.776 -0.4477  0.3459  0.2328
 6349TIP3    H140682   1.026   2.345   0.687  2.7001 -1.6540 -0.4303
 6349TIP3    H240683   1.083   2.356   0.827 -1.6016  0.8241  1.3037
 6350TIP3   OH240684   5.279   0.546   7.532  0.3337 -0.0716  0.4431
 6350TIP3    H140685   5.296   0.501   7.449  0.2084 -0.5454  0.6715
 6350TIP3    H240686   5.263   0.476   7.594 -2.0820  0.2786  0.3389
 6351TIP3   OH240687   6.787   4.688   8.633 -0.1576  0.2258  0.0461
 6351TIP3    H140688   6.810   4.656   8.545  0.9179  0.0260  0.3853
 6351TIP3    H240689   6.702   4.732   8.621 -1.1637 -1.7886 -0.6399
 6352TIP3   OH240690   2.294   1.988   8.240  0.5847  0.4041  0.3874
 6352TIP3    H140691   2.371   1.932   8.243  0.3392  0.0304 -0.1715
 6352TIP3    H240692   2.221   1.929   8.224  0.1681  0.7504  0.9626
 6353TIP3   OH240693   0.709   1.733   0.857 -0.6326 -0.1489  0.2592
 6353TIP3    H140694   0.684   1.700   0.944  2.0471 -1.9258  0.4921
 6353TIP3    H240695   0.751   1.817   0.875  1.7671 -1.4171  1.0690
 6354TIP3   OH240696   2.021   5.949   1.081  0.2034 -0.2157  0.5085
 6354TIP3    H140697   2.044   5.999   1.159 -0.8268  1.9172 -0.4565
 6354TIP3    H240698   2.063   5.996   1.009  1.3932 -2.3092 -0.2468
 6355TIP3   OH240699   1.858   6.704   1.734  0.0458 -0.0779  0.0110
 6355TIP3    H140700   1.862   6.726   1.641  0.7943  0.6034  0.1919
 6355TIP3    H240701   1.772   6.736   1.762  0.3415  0.8978 -0.1670
 6356TIP3   OH240702   2.481   2.461   2.462  0.2570 -0.0197 -0.2196
 6356TIP3    H140703   2.517   2.431   2.379  0.1055 -1.3312  0.1574
 6356TIP3    H240704   2.434   2.385   2.496  0.7337  0.3325  1.2957
 6357TIP3   OH240705   1.067   4.372   0.596  0.1230 -0.8366 -0.4106
 6357TIP3    H140706   1.063   4.392   0.503  1.5026 -0.8439 -0.4933
 6357TIP3    H240707   1.117   4.444   0.634 -1.2055 -0.3505  0.4986
 6358TIP3   OH240708   1.980   5.862   2.555 -0.6405  0.2048 -0.0610
 6358TIP3    H140709   1.908   5.801   2.538 -1.1430 -0.1546  2.9046
 6358TIP3    H240710   2.054   5.806   2.580 -0.1978  0.7068 -0.2315
 6359TIP3   OH240711   3.844   3.644   2.678  0.0461  0.1714 -0.4209
 6359TIP3    H140712   3.769   3.697   2.651 -0.2091  0.7146  1.2754
 6359TIP3    H240713   3.903   3.705   2.721 -0.0591 -0.8011  1.1860
 6360TIP3   OH240714   5.135   3.035   0.700  0.0208 -0.5155 -0.3710
 6360TIP3    H140715   5.171   3.036   0.611  3.7527  0.9640  0.9536
 6360TIP3    H240716   5.184   2.966   0.745  1.0809  1.2786  1.4207
 6361TIP3   OH240717   4.990   6.142   2.245  0.0460 -0.6795 -0.0850
 6361TIP3    H140718   5.031   6.145   2.159 -0.0560  0.4107 -0.1120
 6361TIP3    H240719   4.909   6.192   2.235  0.2668 -0.1290  0.7501
 6362TIP3   OH240720   3.782   5.333   0.541  0.0142  0.3111  0.2943
 6362TIP3    H140721   3.742   5.385   0.471 -1.3401 -0.4804  0.4412
 6362TIP3    H240722   3.768   5.242   0.515 -0.8102 -0.0031  1.7166
 6363TIP3   OH240723   1.270   5.618   7.787  0.1656 -0.1006 -1.0276
 6363TIP3    H140724   1.345   5.677   7.781  0.9491 -1.0912 -1.1202
 6363TIP3    H240725   1.224   5.646   7.867  0.8366  0.2724 -0.7630
 6364TIP3   OH240726   3.650   3.346   8.788  0.1525 -0.8933 -0.2335
 6364TIP3    H140727   3.743   3.355   8.767  0.0793 -1.5348 -0.8456
 6364TIP3    H240728   3.605   3.391   8.717 -0.0423 -1.6354 -0.5874
 6365TIP3   OH240729   0.149   4.039   7.799  0.3449  0.3543 -0.2284
 6365TIP3    H140730   0.132   3.987   7.720  0.0815  1.6024 -1.0169
 6365TIP3    H240731   0.175   4.124   7.766 -2.1014  1.6931  0.9939
 6366TIP3   OH240732   1.812   6.010   2.342  0.0823  0.5708 -0.0988
 6366TIP3    H140733   1.871   5.976   2.409 -0.4463 -0.4184 -0.1247
 6366TIP3    H240734   1.829   5.956   2.265 -0.8598  0.2519 -0.0968
 6367TIP3   OH240735   5.055   0.435   0.967 -0.0404  0.0535 -0.1936
 6367TIP3    H140736   4.974   0.422   1.016  1.1573 -2.1872  1.3331
 6367TIP3    H240737   5.077   0.528   0.981 -1.3975  0.2365  0.8527
 6368TIP3   OH240738   0.850   3.620   2.605 -0.2822  0.4767 -0.2318
 6368TIP3    H140739   0.842   3.672   2.685 -0.2633  2.0491 -1.2074
 6368TIP3    H240740   0.761   3.589   2.588 -0.3987  0.6307  0.0899
 6369TIP3   OH240741   2.891   3.859   2.484 -1.0256 -0.0626  0.0626
 6369TIP3    H140742   2.905   3.941   2.532  0.5054 -0.3589  0.1564
 6369TIP3    H240743   2.979   3.828   2.462 -1.6205 -0.2021 -2.5103
 6370TIP3   OH240744   1.971   2.838   1.743 -0.0951 -0.2743  0.7297
 6370TIP3    H140745   2.027   2.762   1.763  3.3854  1.8812 -0.0116
 6370TIP3    H240746   1.948   2.826   1.651 -0.5673 -0.9722  0.9251
 6371TIP3   OH240747   1.504   1.445   1.682  0.3151  0.3517 -0.1344
 6371TIP3    H140748   1.411   1.428   1.701  0.3900  0.9367  0.8844
 6371TIP3    H240749   1.551   1.376   1.728  0.4642  1.3519  1.3135
 6372TIP3   OH240750   1.148   1.011   2.385  0.3941 -0.0623 -0.2134
 6372TIP3    H140751   1.209   1.061   2.438  1.6726 -0.7094 -1.0151
 6372TIP3    H240752   1.084   1.075   2.353  0.6290  0.6158  0.6664
 6373TIP3   OH240753   3.400   1.051   7.786  0.0980  0.3009  0.0813
 6373TIP3    H140754   3.317   1.005   7.793  0.5846 -0.4928  0.9429
 6373TIP3    H240755   3.443   1.011   7.709  0.2471 -0.2589  0.4459
 6374TIP3   OH240756   1.579   2.291   0.526  0.2831  0.5818 -0.4769
 6374TIP3    H140757   1.572   2.339   0.608  3.0396  2.1270 -1.0052
 6374TIP3    H240758   1.508   2.326   0.471 -0.0652  1.3186  0.4229
 6375TIP3   OH240759   4.176   1.503   1.205  0.3099 -0.8323  0.6052
 6375TIP3    H140760   4.120   1.442   1.158  0.2216 -0.0552 -0.3267
 6375TIP3    H240761   4.126   1.526   1.283 -0.1658 -1.0277  0.3604
 6376TIP3   OH240762   6.049   3.163   1.720  0.4091  0.2395  0.0687
 6376TIP3    H140763   6.097   3.199   1.645 -2.2971  4.3493  0.0086
 6376TIP3    H240764   6.088   3.204   1.797  0.5975 -0.8352  0.5657
 6377TIP3   OH240765   5.463   1.035   0.963  0.1316  0.1417  0.3916
 6377TIP3    H140766   5.518   1.006   0.890  0.7997  1.6224  0.2824
 6377TIP3    H240767   5.447   1.128   0.946  0.6385  0.6370  2.3286
 6378TIP3   OH240768   2.946   5.761   8.211  0.3526 -0.4032 -0.4835
 6378TIP3    H140769   2.852   5.767   8.192  0.3230  0.1131 -0.1901
 6378TIP3    H240770   2.985   5.731   8.129 -0.2626 -2.3898 -0.1201
 6379TIP3   OH240771   3.944   5.729   1.401  0.2412 -0.1760  0.0151
 6379TIP3    H140772   3.856   5.754   1.430  0.3559 -0.4981  0.6544
 6379TIP3    H240773   3.995   5.723   1.481  0.7158 -0.5164 -0.3062
 6380TIP3   OH240774   1.825   5.045   2.850  0.1170 -0.4050  0.1791
 6380TIP3    H140775   1.914   5.077   2.836 -0.5648  0.6938 -1.9986
 6380TIP3    H240776   1.769   5.113   2.813 -1.6053 -1.6125  0.4643
 6381TIP3   OH240777   6.755   3.717   2.805  0.1760  0.0508  0.2536
 6381TIP3    H140778   6.722   3.732   2.893 -1.2825  1.0568 -0.4323
 6381TIP3    H240779   6.760   3.804   2.765 -1.3467 -0.5344 -1.3636
 6382TIP3   OH240780   5.119   2.220   1.278  0.4918 -0.4781  0.6362
 6382TIP3    H140781   5.032   2.258   1.271  0.5344 -0.1959  1.5983
 6382TIP3    H240782   5.172   2.272   1.216  0.1069 -0.2900  0.4615
 6383TIP3   OH240783   2.744   6.083   0.084  0.4066 -0.7622 -0.1904
 6383TIP3    H140784   2.685   6.139   0.034 -0.2086 -1.3285 -0.1067
 6383TIP3    H240785   2.804   6.144   0.127  0.7439 -0.2396 -1.3499
 6384TIP3   OH240786   4.863   6.727   7.612  0.0254 -0.7498  0.2469
 6384TIP3    H140787   4.842   6.693   7.699  1.1226 -1.2805  0.3116
 6384TIP3    H240788   4.829   6.817   7.613  0.0405 -0.7437  1.2311
 6385TIP3   OH240789   3.899   0.184   7.634  0.3234  0.1061  0.6249
 6385TIP3    H140790   3.978   0.162   7.684 -0.2663 -1.8054  0.8063
 6385TIP3    H240791   3.930   0.191   7.543  0.5785 -1.7777  0.5175
 6386TIP3   OH240792   5.887   2.836   1.548 -0.6748  0.3289 -0.1100
 6386TIP3    H140793   5.950   2.769   1.573  0.8908  1.0368 -1.8635
 6386TIP3    H240794   5.906   2.910   1.606  1.4068  1.1586 -1.6878
 6387TIP3   OH240795   4.352   4.345   8.085  0.0625  0.0987  0.0803
 6387TIP3    H140796   4.294   4.408   8.127 -0.3155 -0.0023 -0.2800
 6387TIP3    H240797   4.294   4.291   8.031  0.7010  1.3371 -1.9698
 6388TIP3   OH240798   4.912   5.451   0.160 -0.5367 -0.2374  0.3917
 6388TIP3    H140799   4.949   5.461   0.072  1.8251  1.4155  1.4660
 6388TIP3    H240800   4.858   5.530   0.172  0.6404  0.5037  1.0352
 6389TIP3   OH240801   2.563   2.485   0.489  0.1539  0.0558 -0.2013
 6389TIP3    H140802   2.631   2.528   0.438  0.0775 -0.7005 -0.9678
 6389TIP3    H240803   2.576   2.391   0.471 -1.0790 -0.0963 -0.3717
 6390TIP3   OH240804   5.597   5.476   2.328 -0.3638 -0.1203  0.0095
 6390TIP3    H140805   5.633   5.387   2.328 -0.2318 -0.0759 -1.1297
 6390TIP3    H240806   5.587   5.497   2.421  1.2264 -0.6644  0.3382
 6391TIP3   OH240807   4.621   4.253   8.564 -0.3895  0.1807 -0.5753
 6391TIP3    H140808   4.625   4.157   8.561 -0.8091  0.0485  1.6708
 6391TIP3    H240809   4.700   4.279   8.611 -0.6795  0.8924 -0.4672
 6392TIP3   OH240810   2.838   0.449   1.354 -0.0793  0.2297  0.3519
 6392TIP3    H140811   2.815   0.507   1.427 -1.9399  1.0762 -0.8462
 6392TIP3    H240812   2.819   0.361   1.387 -0.6320  0.5717  0.9772
 6393TIP3   OH240813   0.482   2.357   7.603  0.0197  0.4855  0.8589
 6393TIP3    H140814   0.438   2.351   7.688  1.6750 -1.0917  1.6531
 6393TIP3    H240815   0.572   2.329   7.619  0.5953  0.8702 -1.2816
 6394TIP3   OH240816   2.231   5.750   2.569 -0.0798  0.5845 -0.2953
 6394TIP3    H140817   2.226   5.655   2.561  1.9548  0.1181  2.3618
 6394TIP3    H240818   2.294   5.776   2.502  1.2347 -0.3462  0.5100
 6395TIP3   OH240819   2.686   0.867   8.257  0.6284  0.3346 -0.3115
 6395TIP3    H140820   2.607   0.879   8.205 -0.9992  0.8900  2.1202
 6395TIP3    H240821   2.740   0.944   8.238  0.6759 -0.0982 -2.0618
 6396TIP3   OH240822   0.142   1.529   1.013  0.0619  0.2019 -0.2921
 6396TIP3    H140823   0.154   1.434   1.022  0.7142  0.2872 -0.2569
 6396TIP3    H240824   0.200   1.567   1.078  0.1250  0.6421 -0.6052
 6397TIP3   OH240825   1.225   4.761   0.489  0.6035 -0.7052 -0.5475
 6397TIP3    H140826   1.152   4.708   0.456 -0.3781  0.1157  0.2324
 6397TIP3    H240827   1.301   4.703   0.484  0.1942 -1.1621 -2.6431
 6398TIP3   OH240828   4.288   1.281   1.503  0.5238  0.2654  0.0765
 6398TIP3    H140829   4.334   1.328   1.434 -1.3487  1.0735 -0.7060
 6398TIP3    H240830   4.220   1.232   1.457 -0.0310 -0.0963  1.2432
 6399TIP3   OH240831   2.521   4.775   1.204  0.0243  0.4515 -0.3815
 6399TIP3    H140832   2.537   4.710   1.136  0.6774 -0.6834  0.8358
 6399TIP3    H240833   2.544   4.859   1.162 -2.2034  0.1569 -2.4446
 6400TIP3   OH240834   1.546   2.889   8.488  0.5478 -0.7468 -0.1476
 6400TIP3    H140835   1.524   2.969   8.441 -0.9213 -0.9845  0.0792
 6400TIP3    H240836   1.463   2.859   8.524  1.5854 -0.6852  2.4576
 6401TIP3   OH240837   6.286   1.195   0.895  0.7564  0.5082 -0.4212
 6401TIP3    H140838   6.251   1.171   0.981 -0.5340 -0.6987 -1.2387
 6401TIP3    H240839   6.277   1.290   0.890 -1.9639  0.3209 -0.3573
 6402TIP3   OH240840   4.115   1.905   2.229  0.7143  0.0957  0.0895
 6402TIP3    H140841   4.177   1.978   2.235  0.5642  0.3852 -1.3476
 6402TIP3    H240842   4.029   1.947   2.222  0.7215 -0.1045 -2.0351
 6403TIP3   OH240843   2.697   3.746   1.829 -0.1639 -0.3466  0.1319
 6403TIP3    H140844   2.617   3.766   1.878 -0.6520 -1.4428 -0.1809
 6403TIP3    H240845   2.720   3.657   1.856  0.7685 -0.1619 -0.0305
 6404TIP3   OH240846   3.165   2.852   0.988 -1.1178  0.2478 -0.1814
 6404TIP3    H140847   3.190   2.778   1.043 -0.7010  0.6428  0.1753
 6404TIP3    H240848   3.245   2.905   0.982 -2.0144  1.9055  1.5607
 6405TIP3   OH240849   5.127   3.915   2.271 -1.2990  0.2410  0.4113
 6405TIP3    H140850   5.130   3.821   2.289 -0.6689  0.3065  0.6910
 6405TIP3    H240851   5.158   3.956   2.352  1.2049  0.5595 -0.6082
 6406TIP3   OH240852   3.924   1.531   0.826 -0.3237 -0.0696  0.1060
 6406TIP3    H140853   3.969   1.447   0.832 -1.5851 -0.8568 -1.0321
 6406TIP3    H240854   3.916   1.548   0.732 -0.3286  1.2036  0.3139
 6407TIP3   OH240855   2.086   5.071   8.171 -0.6019  0.4114 -0.5166
 6407TIP3    H140856   2.084   5.104   8.082  2.0072 -0.4266 -0.9645
 6407TIP3    H240857   2.179   5.055   8.189 -0.7901  2.4122  3.0501
 6408TIP3   OH240858   3.984   4.147   0.117 -0.4185  0.2562  0.5370
 6408TIP3    H140859   4.076   4.132   0.096 -0.1443  0.9228  1.2419
 6408TIP3    H240860   3.981   4.150   0.213 -1.1091  0.6229  0.5091
 6409TIP3   OH240861   6.695   4.577   1.365 -0.1417  0.2059 -0.2686
 6409TIP3    H140862   6.776   4.629   1.365 -0.2139  0.3965  1.9510
 6409TIP3    H240863   6.639   4.618   1.430 -0.8236 -1.7180  0.4376
 6410TIP3   OH240864   2.035   5.913   7.723  0.6678  0.1843 -0.6043
 6410TIP3    H140865   2.067   5.932   7.811  1.2332 -1.7652 -0.3556
 6410TIP3    H240866   2.114   5.903   7.670  0.5446 -2.8045 -0.3865
 6411TIP3   OH240867   1.421   2.621   8.444  0.2203  0.4247 -1.0803
 6411TIP3    H140868   1.497   2.651   8.493 -1.3709  0.0240  1.8407
 6411TIP3    H240869   1.416   2.527   8.463 -1.2944  0.5495 -0.6990
 6412TIP3   OH240870   1.874   5.562   0.961 -0.4731 -0.3561 -0.2528
 6412TIP3    H140871   1.877   5.515   0.877  0.0928 -1.9862  0.6357
 6412TIP3    H240872   1.935   5.514   1.017 -1.0281  0.5537  1.1678
 6413TIP3   OH240873   0.494   0.370   0.252 -0.4120  0.5952 -0.0979
 6413TIP3    H140874   0.549   0.445   0.230 -1.6179  1.9729  1.3521
 6413TIP3    H240875   0.432   0.404   0.316 -1.4486 -1.4906  0.0787
 6414TIP3   OH240876   0.461   4.882   1.203  0.5475 -0.0410 -0.1850
 6414TIP3    H140877   0.468   4.880   1.107  1.6757 -0.6986 -0.1115
 6414TIP3    H240878   0.372   4.911   1.220 -0.3141 -1.7751 -1.4488
 6415TIP3   OH240879   5.579   6.363   1.416 -0.1995 -0.0093 -0.1046
 6415TIP3    H140880   5.596   6.444   1.367 -0.7394  0.2240  0.0946
 6415TIP3    H240881   5.664   6.340   1.453 -0.1514  0.7506  0.2741
 6416TIP3   OH240882   1.852   4.439   0.247  0.5375 -0.6941 -0.4160
 6416TIP3    H140883   1.913   4.488   0.192 -0.8154 -1.8500 -3.1816
 6416TIP3    H240884   1.803   4.506   0.295  0.2910  0.5789 -2.3327
 6417TIP3   OH240885   0.190   0.327   7.666  0.1309  0.0848  0.2211
 6417TIP3    H140886   0.210   0.363   7.580 -0.5970 -0.5093 -0.2065
 6417TIP3    H240887   0.115   0.377   7.697 -1.2712 -1.4005 -0.6339
 6418TIP3   OH240888   4.374   0.318   2.602  0.6228  0.6347 -0.7684
 6418TIP3    H140889   4.399   0.396   2.652  1.6908  0.8464 -1.5897
 6418TIP3    H240890   4.408   0.245   2.654  0.7559  0.7865 -0.6381
 6419TIP3   OH240891   6.185   0.914   0.928  0.0183 -0.0845  0.1625
 6419TIP3    H140892   6.237   0.878   1.000 -2.1862 -1.0136  1.3739
 6419TIP3    H240893   6.203   1.008   0.930  1.6689 -0.3683  0.4663
 6420TIP3   OH240894   1.313   0.194   0.276 -0.6796 -0.3537  0.1821
 6420TIP3    H140895   1.226   0.187   0.314 -0.6399 -1.4640  0.1167
 6420TIP3    H240896   1.370   0.149   0.338 -0.3509 -0.6776 -0.3361
 6421TIP3   OH240897   3.105   2.286   0.844 -0.3831 -0.5883  0.1846
 6421TIP3    H140898   3.058   2.347   0.788  0.8516 -0.4328 -0.7307
 6421TIP3    H240899   3.187   2.331   0.864 -0.2217 -1.2213  0.9830
 6422TIP3   OH240900   4.315   2.763   2.083 -0.5103  0.0327 -0.0215
 6422TIP3    H140901   4.362   2.787   2.003 -0.8553  0.8330  0.0100
 6422TIP3    H240902   4.280   2.676   2.065 -0.7652  0.2921 -0.8301
 6423TIP3   OH240903   6.777   2.925   0.885 -0.0789  0.2779  0.0549
 6423TIP3    H140904   6.821   2.879   0.957 -1.8967 -0.7263  0.5885
 6423TIP3    H240905   6.774   3.017   0.913 -2.4954 -0.3630  2.2876
 6424TIP3   OH240906   5.664   4.504   8.658 -1.2759 -0.1670  0.0157
 6424TIP3    H140907   5.615   4.578   8.623 -0.4092  0.6088  0.3905
 6424TIP3    H240908   5.654   4.513   8.753 -0.8952 -0.3372  0.0716
 6425TIP3   OH240909   5.079   5.851   1.111  0.5419  0.4855  0.2267
 6425TIP3    H140910   5.173   5.856   1.127  0.6999 -0.1048 -0.4814
 6425TIP3    H240911   5.070   5.790   1.038 -0.5548 -1.7265  2.0441
 6426TIP3   OH240912   0.986   3.269   0.347 -0.0359  0.4101 -0.5140
 6426TIP3    H140913   0.976   3.335   0.416 -1.4723  0.2571 -0.5590
 6426TIP3    H240914   0.918   3.290   0.284  0.0851 -0.5772 -0.9869
 6427TIP3   OH240915   6.141   6.286   8.074 -0.1483  0.5273 -0.0121
 6427TIP3    H140916   6.230   6.316   8.059 -0.1600 -0.2821 -1.9979
 6427TIP3    H240917   6.089   6.329   8.006 -0.9043 -0.5650 -0.1597
 6428TIP3   OH240918   1.230   3.209   0.467 -0.4808  0.1683 -0.4668
 6428TIP3    H140919   1.244   3.296   0.504  1.1245  0.4301 -1.6009
 6428TIP3    H240920   1.140   3.211   0.435 -0.8029  1.0317  0.4399
 6429TIP3   OH240921   0.344   0.884   2.306 -0.1432  0.5516 -0.4658
 6429TIP3    H140922   0.321   0.835   2.227  2.0618  1.9543 -2.1015
 6429TIP3    H240923   0.281   0.855   2.372  0.1801 -3.4115 -1.6662
 6430TIP3   OH240924   4.041   4.546   2.310 -0.5522  0.0654  0.2260
 6430TIP3    H140925   4.133   4.531   2.334 -0.1088  0.9911 -0.8225
 6430TIP3    H240926   3.992   4.527   2.391  0.4560 -1.3605  0.5308
 6431TIP3   OH240927   5.076   6.683   8.119  0.2698 -0.0774 -0.0239
 6431TIP3    H140928   5.105   6.773   8.101  1.0525 -0.3301 -0.0331
 6431TIP3    H240929   5.034   6.655   8.038  0.1814  0.2194 -0.0842
 6432TIP3   OH240930   1.809   6.770   1.469  0.3119 -0.3501 -0.0007
 6432TIP3    H140931   1.750   6.845   1.473  2.5378  1.5385 -0.8732
 6432TIP3    H240932   1.770   6.712   1.403  0.1486  1.5296 -1.6365
 6433TIP3   OH240933   4.187   1.423   0.070  0.0450 -0.2248  0.3452
 6433TIP3    H140934   4.224   1.391   0.153 -0.5125 -1.5373  0.1139
 6433TIP3    H240935   4.263   1.455   0.021  0.2689  1.5083  1.7335
 6434TIP3   OH240936   0.608   2.653   1.008  0.1774 -0.7982 -0.1843
 6434TIP3    H140937   0.622   2.703   1.088  1.1440 -2.1536  0.5307
 6434TIP3    H240938   0.630   2.563   1.031  0.7644 -1.1786 -2.0461
 6435TIP3   OH240939   0.591   3.251   2.500  0.1694  0.6345  0.1388
 6435TIP3    H140940   0.635   3.258   2.584 -0.3770  1.8260  0.3543
 6435TIP3    H240941   0.513   3.198   2.518 -0.8948  2.3530  0.8241
 6436TIP3   OH240942   1.452   4.687   1.468  0.4377 -0.1515 -0.1923
 6436TIP3    H140943   1.532   4.722   1.507 -0.3999  0.8449  0.6978
 6436TIP3    H240944   1.450   4.724   1.380  0.6663  0.2920 -0.0122
 6437TIP3   OH240945   3.101   6.343   1.463 -0.4293  0.1633  0.0266
 6437TIP3    H140946   3.051   6.421   1.488 -1.0449 -0.1531 -0.1902
 6437TIP3    H240947   3.056   6.272   1.508  0.9739  0.0844  1.3736
 6438TIP3   OH240948   2.327   1.390   8.743  0.1280  0.5184 -0.3327
 6438TIP3    H140949   2.348   1.483   8.741  2.9991  0.0681  1.7189
 6438TIP3    H240950   2.353   1.362   8.831  1.6252 -2.6394 -1.6419
 6439TIP3   OH240951   6.296   2.158   1.481 -0.3832  0.5652 -0.2303
 6439TIP3    H140952   6.380   2.113   1.491 -0.8841 -0.1912  0.7109
 6439TIP3    H240953   6.266   2.175   1.570 -0.5125  2.2472 -0.5477
 6440TIP3   OH240954   1.007   0.621   1.626 -0.1269 -0.1466 -0.7288
 6440TIP3    H140955   0.960   0.610   1.543  0.4884  1.7853 -1.3968
 6440TIP3    H240956   1.096   0.645   1.600  0.2005  0.0261  0.4840
 6441TIP3   OH240957   0.593   3.073   7.206  0.5377 -0.9646 -0.4857
 6441TIP3    H140958   0.568   2.984   7.181  2.0023 -1.8260  0.9286
 6441TIP3    H240959   0.677   3.088   7.164  0.7626 -0.6202  0.0709
 6442TIP3   OH240960   3.989   3.616   8.752  0.4103 -0.0073  0.2062
 6442TIP3    H140961   4.079   3.650   8.755  0.4064 -0.0832  1.5118
 6442TIP3    H240962   3.933   3.693   8.755  0.4222  0.0229 -0.2646
 6443TIP3   OH240963   3.042   5.269   0.183 -0.0149 -0.6975  0.0038
 6443TIP3    H140964   3.012   5.189   0.225  1.1430 -1.4311 -0.5392
 6443TIP3    H240965   3.020   5.257   0.090 -3.3197  1.2483  0.3520
 6444TIP3   OH240966   0.413   2.354   1.283  0.1715 -0.5024  0.3555
 6444TIP3    H140967   0.401   2.349   1.378 -0.3743  2.2415  0.5126
 6444TIP3    H240968   0.340   2.407   1.252  2.3234  1.9187 -1.0244
 6445TIP3   OH240969   3.438   6.739   1.385  0.3749 -0.5698 -0.1465
 6445TIP3    H140970   3.525   6.703   1.402  0.1641 -0.4256  1.3587
 6445TIP3    H240971   3.384   6.708   1.458 -0.4813  0.5238 -0.2846
 6446TIP3   OH240972   1.782   3.863   1.238  0.5094 -0.5853 -0.2161
 6446TIP3    H140973   1.738   3.791   1.282  0.6435  0.1641  1.1877
 6446TIP3    H240974   1.876   3.845   1.248  0.5446 -1.1479 -1.4579
 6447TIP3   OH240975   4.131   6.034   1.017  0.8445  0.5470 -0.0618
 6447TIP3    H140976   4.226   6.031   1.027  0.6214 -0.0797  2.7223
 6447TIP3    H240977   4.098   5.969   1.079 -1.4337  0.7654 -0.9249
 6448TIP3   OH240978   1.234   4.013   2.793 -0.6113  0.1703  0.0631
 6448TIP3    H140979   1.203   3.923   2.799 -0.0068  0.0413  1.8459
 6448TIP3    H240980   1.168   4.064   2.840  1.1937  0.0111  3.0526
 6449TIP3   OH240981   5.597   5.197   0.520  0.0659  0.2269  0.0236
 6449TIP3    H140982   5.661   5.171   0.587  0.3595 -2.3297 -1.1489
 6449TIP3    H240983   5.634   5.165   0.438 -2.0985 -0.1548 -0.8706
 6450TIP3   OH240984   1.710   4.262   7.282 -0.1605  0.4025  0.3235
 6450TIP3    H140985   1.668   4.178   7.301  0.7894 -0.0305  0.5324
 6450TIP3    H240986   1.779   4.270   7.348  0.3947  0.8937 -0.3061
 6451TIP3   OH240987   6.633   3.321   1.248  0.5368 -0.2621  0.1600
 6451TIP3    H140988   6.693   3.370   1.191 -2.8957  0.7624 -2.9696
 6451TIP3    H240989   6.616   3.381   1.321  1.1359  0.6440 -0.4198
 6452TIP3   OH240990   6.548   6.836   7.818  0.2182 -0.0896  0.5003
 6452TIP3    H140991   6.524   6.781   7.743  0.2308  0.3944  0.1346
 6452TIP3    H240992   6.631   6.800   7.849  1.1758  0.8150 -0.8727
 6453TIP3   OH240993   0.728   3.032   1.227 -0.1483  0.9465  0.2549
 6453TIP3    H140994   0.801   3.079   1.267 -0.6222  2.3416 -0.4585
 6453TIP3    H240995   0.735   3.054   1.134 -0.6240 -0.1020 -0.0415
 6454TIP3   OH240996   0.533   0.088   7.817 -0.3538  0.3254  0.3436
 6454TIP3    H140997   0.511  -0.004   7.828 -0.9976  0.5713  1.1862
 6454TIP3    H240998   0.617   0.098   7.863  1.3163 -0.4660 -2.3075
 6455TIP3   OH240999   1.720   0.408   0.087  0.6017 -0.1942 -0.0088
 6455TIP3    H141000   1.716   0.316   0.061  1.8713 -1.0423  2.4131
 6455TIP3    H241001   1.789   0.445   0.032  2.2542 -1.5534  1.0170
 6456TIP3   OH241002   2.153   4.575   0.451 -0.7550  0.6143 -0.2085
 6456TIP3    H141003   2.244   4.596   0.432  0.1339 -2.5474 -0.0239
 6456TIP3    H241004   2.102   4.619   0.383  0.8662  2.4481 -0.2993
 6457TIP3   OH241005   3.749   5.969   0.365  0.0168  0.1671 -0.2994
 6457TIP3    H141006   3.707   5.952   0.449 -0.7196 -2.4355 -1.0773
 6457TIP3    H241007   3.705   6.047   0.331 -0.4883  0.5676  1.2219
 6458TIP3   OH241008   6.404   5.094   8.413  0.4777  0.2789  0.4639
 6458TIP3    H141009   6.397   5.094   8.318  2.5563 -1.9677  0.2404
 6458TIP3    H241010   6.331   5.039   8.442 -0.6888  1.6555  0.3225
 6459TIP3   OH241011   2.660   2.412   0.783  0.2454  0.0470  0.4830
 6459TIP3    H141012   2.684   2.490   0.833  0.3752  0.5619 -0.3550
 6459TIP3    H241013   2.617   2.446   0.705  1.4902 -0.6462 -0.5460
 6460TIP3   OH241014   2.863   2.619   1.857 -0.0693 -0.5097 -0.5658
 6460TIP3    H141015   2.933   2.669   1.899  0.0302 -0.7573 -0.4275
 6460TIP3    H241016   2.876   2.633   1.763 -0.0247 -0.3041 -0.5286
 6461TIP3   OH241017   3.463   3.178   8.181 -1.0206 -0.4360 -0.3432
 6461TIP3    H141018   3.425   3.216   8.102 -0.8572  0.8057  0.1641
 6461TIP3    H241019   3.400   3.199   8.250  0.0825  0.7932  0.3247
 6462TIP3   OH241020   2.107   5.491   2.049 -0.0543  0.0346 -0.0886
 6462TIP3    H141021   2.040   5.509   1.984 -0.7661  0.9241  0.8521
 6462TIP3    H241022   2.186   5.532   2.015 -0.6705  1.3961  0.0848
 6463TIP3   OH241023   3.919   4.162   8.368  0.1501 -0.0343 -0.1518
 6463TIP3    H141024   3.980   4.111   8.421  0.5663  0.1732 -0.4332
 6463TIP3    H241025   3.878   4.222   8.430 -0.9592 -1.2510  0.3520
 6464TIP3   OH241026   5.791   2.627   8.787  0.4393 -0.1675 -0.7728
 6464TIP3    H141027   5.848   2.639   8.711 -0.6818 -0.1846 -1.6417
 6464TIP3    H241028   5.707   2.663   8.760  0.2623  0.6929  0.8141
 6465TIP3   OH241029   5.956   0.732   1.943  0.3743  0.0132 -0.0533
 6465TIP3    H141030   6.002   0.674   2.004  1.1496 -0.0975 -0.7295
 6465TIP3    H241031   5.928   0.674   1.872  0.7449  0.3866 -0.5072
 6466TIP3   OH241032   4.893   3.095   1.688 -0.6729 -0.2461 -0.4635
 6466TIP3    H141033   4.898   3.005   1.721 -0.6763 -0.4917 -1.1239
 6466TIP3    H241034   4.955   3.144   1.743 -1.4616 -0.4197  0.6224
 6467TIP3   OH241035   3.191   4.797   0.621  0.5171 -1.0588 -0.1310
 6467TIP3    H141036   3.137   4.837   0.553  0.7722  0.5158  0.5403
 6467TIP3    H241037   3.274   4.778   0.577 -0.1223 -2.3338 -0.8487
 6468TIP3   OH241038   4.680   2.808   2.955  0.5079 -0.0553  0.6508
 6468TIP3    H141039   4.686   2.811   2.860 -0.8936 -1.0070  0.5102
 6468TIP3    H241040   4.638   2.890   2.979 -0.8302 -0.6087  0.2735
 6469TIP3   OH241041   2.406   2.667   0.974  0.2837  0.0873  0.1173
 6469TIP3    H141042   2.468   2.660   0.902  0.3025  0.0882  0.1332
 6469TIP3    H241043   2.348   2.740   0.949 -0.1604 -0.3754 -0.2307
 6470TIP3   OH241044   3.642   6.833   0.089 -0.0031 -0.3040 -0.0805
 6470TIP3    H141045   3.687   6.890   0.028 -1.9336  3.8520  1.9484
 6470TIP3    H241046   3.553   6.826   0.055 -1.8802  4.1246  2.8932
 6471TIP3   OH241047   4.875   2.505   2.181  0.6573 -0.1588 -0.2309
 6471TIP3    H141048   4.889   2.414   2.206  0.2836 -0.1763 -0.0887
 6471TIP3    H241049   4.905   2.557   2.256 -2.1818 -0.2521  1.0931
 6472TIP3   OH241050   3.153   3.106   0.118  0.3501  0.2753 -0.1777
 6472TIP3    H141051   3.122   3.145   0.200  0.2120  0.6236 -0.3914
 6472TIP3    H241052   3.080   3.119   0.057 -0.1975 -1.4149  0.0683
 6473TIP3   OH241053   3.935   2.176   6.760  0.3708 -0.2674  0.4351
 6473TIP3    H141054   3.860   2.167   6.819 -0.1086  1.5599  0.1726
 6473TIP3    H241055   3.896   2.185   6.673  0.9380 -0.3647  0.1672
 6474TIP3   OH241056   0.677   5.473   0.576 -0.3418  0.4313 -0.3663
 6474TIP3    H141057   0.706   5.418   0.648  1.6553  1.3226 -0.4290
 6474TIP3    H241058   0.727   5.554   0.586 -2.6083  1.9786 -0.7265
 6475TIP3   OH241059   2.368   0.074   2.764  0.1348 -0.1356 -0.4660
 6475TIP3    H141060   2.424   0.084   2.841 -0.9035  0.7821  0.1838
 6475TIP3    H241061   2.400   0.141   2.703 -0.4637  0.6320  0.0455
 6476TIP3   OH241062   2.320   6.211   2.030 -0.6949  0.0269 -0.0998
 6476TIP3    H141063   2.261   6.281   2.055 -2.0997 -0.9187 -0.6513
 6476TIP3    H241064   2.341   6.228   1.939 -2.5423 -1.2155 -0.8258
 6477TIP3   OH241065   6.483   5.017   7.625 -0.1377  0.2110 -0.1184
 6477TIP3    H141066   6.489   5.097   7.572  0.9671 -0.0819 -0.4574
 6477TIP3    H241067   6.544   4.956   7.583 -1.4392 -1.0384 -0.2509
 6478TIP3   OH241068   1.824   4.533   0.568 -0.8024  0.1354 -0.4517
 6478TIP3    H141069   1.767   4.471   0.613 -3.0264  0.9766 -1.8870
 6478TIP3    H241070   1.778   4.551   0.485  0.5468  2.4448 -0.7774
 6479TIP3   OH241071   1.012   2.130   8.703 -0.2072 -0.7074  0.0609
 6479TIP3    H141072   0.946   2.106   8.769 -0.2376  2.9913  1.5892
 6479TIP3    H241073   1.089   2.080   8.728 -1.3531 -2.3801  0.4458
 6480TIP3   OH241074   5.083   6.363   8.390 -0.2373  0.0941  0.0397
 6480TIP3    H141075   5.133   6.310   8.328  1.1748  0.5348  0.7624
 6480TIP3    H241076   5.147   6.392   8.455 -1.7073 -0.6328  1.9358
 6481TIP3   OH241077   1.590   2.610   7.863 -0.4035  0.2250  0.0905
 6481TIP3    H141078   1.568   2.616   7.956 -0.3817 -1.2023  0.2215
 6481TIP3    H241079   1.644   2.687   7.845 -0.1419  0.3512  1.3324
 6482TIP3   OH241080   3.347   1.933   2.109  0.2698  0.1570 -0.4449
 6482TIP3    H141081   3.372   1.847   2.142  0.5256  0.3517 -0.1215
 6482TIP3    H241082   3.286   1.967   2.175 -0.0772  0.0929 -0.7321
 6483TIP3   OH241083   1.080   1.709   7.768  0.6491  0.4813 -0.1491
 6483TIP3    H141084   1.010   1.733   7.829  0.2568  1.8840 -1.1051
 6483TIP3    H241085   1.149   1.673   7.823  0.2397  1.5386  1.0944
 6484TIP3   OH241086   1.629   0.722   1.922 -0.1631 -0.0437 -0.3541
 6484TIP3    H141087   1.551   0.742   1.973  0.1356  0.0157  0.0836
 6484TIP3    H241088   1.675   0.807   1.914  1.6609 -0.6469  2.4150
 6485TIP3   OH241089   3.546   3.196   2.360  0.9203  0.0401  0.0143
 6485TIP3    H141090   3.549   3.163   2.449  1.4254 -0.8268 -0.3095
 6485TIP3    H241091   3.453   3.213   2.343  0.7158 -0.7037  0.3766
 6486TIP3   OH241092   5.967   2.701   7.208 -0.0025  0.3754  0.5008
 6486TIP3    H141093   6.061   2.689   7.215 -0.1908 -0.7380  1.3174
 6486TIP3    H241094   5.947   2.773   7.268  0.6126  2.3335 -1.5033
 6487TIP3   OH241095   4.332   6.253   7.515  0.3525 -0.3869  0.2817
 6487TIP3    H141096   4.385   6.203   7.453  0.3725  0.7930 -0.7032
 6487TIP3    H241097   4.243   6.220   7.501  0.1690  0.6560 -1.2529
 6488TIP3   OH241098   6.343   1.734   8.232  0.1936 -0.3486  0.7954
 6488TIP3    H141099   6.338   1.725   8.327 -0.8684  0.3011  0.8192
 6488TIP3    H241100   6.382   1.820   8.218 -0.7849  0.0866  0.6643
 6489TIP3   OH241101   5.052   2.948   2.120 -0.4943  0.4649  0.1594
 6489TIP3    H141102   5.129   2.929   2.067 -0.4006  0.1299  0.4117
 6489TIP3    H241103   4.983   2.893   2.083 -0.3354 -0.0394  0.6146
 6490TIP3   OH241104   4.202   0.549   0.198  0.4007  0.1246 -0.1406
 6490TIP3    H141105   4.277   0.497   0.226  1.0277  1.2750  0.3927
 6490TIP3    H241106   4.198   0.622   0.260 -0.4060  0.7545 -0.8948
 6491TIP3   OH241107   5.814   6.537   1.201 -0.0895 -0.2718 -0.6449
 6491TIP3    H141108   5.883   6.475   1.179  0.6117  0.0749  0.4783
 6491TIP3    H241109   5.859   6.609   1.245 -1.1931 -0.2153  0.4705
 6492TIP3   OH241110   3.709   2.119   0.545  0.5089  0.1578 -0.1443
 6492TIP3    H141111   3.771   2.188   0.569  0.8710  0.3552 -1.6029
 6492TIP3    H241112   3.651   2.159   0.480 -0.7992 -0.2034  0.7428
 6493TIP3   OH241113   5.611   1.355   1.365  1.0250 -0.0745 -0.2653
 6493TIP3    H141114   5.652   1.281   1.409  1.0451 -0.3053 -0.6601
 6493TIP3    H241115   5.555   1.314   1.299 -0.5907  0.2020  0.8873
 6494TIP3   OH241116   4.444   0.246   0.559  0.4149  0.4590 -0.2990
 6494TIP3    H141117   4.387   0.205   0.494  0.0585 -1.8335  1.3314
 6494TIP3    H241118   4.384   0.299   0.613  0.0738 -0.5150  0.3112
 6495TIP3   OH241119   5.611   3.335   1.855  0.1299 -0.0239 -0.2665
 6495TIP3    H141120   5.703   3.324   1.878  0.0103 -1.4567 -0.3680
 6495TIP3    H241121   5.592   3.263   1.795 -0.7683  0.9276 -1.1811
 6496TIP3   OH241122   3.841   3.420   0.645  0.1079  0.1178 -0.0160
 6496TIP3    H141123   3.846   3.435   0.550 -1.3182 -1.9401 -0.4862
 6496TIP3    H241124   3.918   3.368   0.665  1.1934  1.7726  0.2716
 6497TIP3   OH241125   6.388   5.225   8.718  0.3841 -0.0041 -0.9145
 6497TIP3    H141126   6.394   5.319   8.702  1.5940 -0.2327 -2.0016
 6497TIP3    H241127   6.469   5.204   8.765 -0.4347 -0.3309  0.4141
 6498TIP3   OH241128   1.389   2.043   2.612  0.0892  0.2491 -0.0434
 6498TIP3    H141129   1.427   1.976   2.556 -0.9158 -0.0451 -0.4050
 6498TIP3    H241130   1.425   2.025   2.699  1.2755  0.4070 -0.4883
 6499TIP3   OH241131   4.460   0.054   1.159 -0.3296  0.3855  0.1662
 6499TIP3    H141132   4.449   0.100   1.076  0.5993  0.8859  0.3020
 6499TIP3    H241133   4.402  -0.022   1.153 -1.0430  0.9729 -0.5170
 6500TIP3   OH241134   6.109   4.259   1.798  0.0898 -0.3885 -0.1613
 6500TIP3    H141135   6.106   4.179   1.745 -1.4605 -0.4139 -0.0711
 6500TIP3    H241136   6.041   4.246   1.864 -1.0650  1.5269 -0.9088
 6501TIP3   OH241137   1.424   6.400   1.155  0.1965  0.4228  0.0156
 6501TIP3    H141138   1.497   6.344   1.182 -0.9017 -0.3306  1.6527
 6501TIP3    H241139   1.448   6.432   1.068  3.3361  1.7547  1.2147
 6502TIP3   OH241140   5.910   1.680   2.252  0.0342  0.7226  1.2015
 6502TIP3    H141141   5.898   1.768   2.286  1.2805  0.2536  2.9736
 6502TIP3    H241142   5.924   1.692   2.158  0.5036  2.4351  1.4632
 6503TIP3   OH241143   5.442   5.907   0.139  0.0316 -0.2585 -0.5312
 6503TIP3    H141144   5.357   5.942   0.165  1.3460  3.7242 -0.9267
 6503TIP3    H241145   5.489   5.896   0.221 -0.6840 -2.2596 -0.3297
 6504TIP3   OH241146   5.892   3.821   1.096  0.5494  0.4644 -0.1265
 6504TIP3    H141147   5.977   3.843   1.133 -0.1041  0.9258  1.1449
 6504TIP3    H241148   5.883   3.727   1.111  0.5152  0.5529  0.4115
 6505TIP3   OH241149   2.133   4.364   0.130 -0.3102  0.0147  0.0138
 6505TIP3    H141150   2.226   4.369   0.110 -0.3160 -1.4009 -0.4452
 6505TIP3    H241151   2.128   4.321   0.215 -0.5070  1.5269  0.8080
 6506TIP3   OH241152   3.780   4.395   7.846 -0.8210  0.0657  0.4151
 6506TIP3    H141153   3.697   4.439   7.866 -0.8682  0.0694  0.2141
 6506TIP3    H241154   3.779   4.384   7.751  0.1226  1.4971  0.2027
 6507TIP3   OH241155   2.385   0.647   1.999  0.2559  0.2240 -0.3734
 6507TIP3    H141156   2.338   0.606   1.927 -0.0119 -1.5839  0.7407
 6507TIP3    H241157   2.362   0.739   1.994 -1.8463 -0.2674 -1.0621
 6508TIP3   OH241158   0.953   5.897   1.601 -0.6934  0.1428 -0.2417
 6508TIP3    H141159   1.022   5.940   1.651  0.7917 -1.6519 -0.6355
 6508TIP3    H241160   0.926   5.823   1.655  0.6722 -1.6016 -1.8350
 6509TIP3   OH241161   5.748   0.758   8.664  0.0692 -0.2703 -0.0773
 6509TIP3    H141162   5.825   0.811   8.685 -0.7668  1.1978 -0.6189
 6509TIP3    H241163   5.781   0.693   8.601  1.2443 -0.8445  1.0822
 6510TIP3   OH241164   0.323   6.074   8.387  0.3287  0.4209 -0.1415
 6510TIP3    H141165   0.364   6.091   8.302  1.6377  1.6491  0.6865
 6510TIP3    H241166   0.247   6.132   8.390  0.4623  0.6080 -0.3514
 6511TIP3   OH241167   2.396   3.184   1.754  0.1254  0.3525 -0.1083
 6511TIP3    H141168   2.340   3.260   1.771 -0.3090 -0.2135  1.0967
 6511TIP3    H241169   2.425   3.156   1.841 -1.2942 -2.0405 -0.3323
 6512TIP3   OH241170   5.126   0.399   0.685  0.3521 -0.0403 -0.0401
 6512TIP3    H141171   5.111   0.416   0.778  1.5406 -0.9985  0.3641
 6512TIP3    H241172   5.209   0.442   0.666  0.2286 -0.0411 -0.6040
 6513TIP3   OH241173   5.054   3.284   2.160 -0.3638  0.1013 -1.2396
 6513TIP3    H141174   5.139   3.260   2.124  0.5560  0.6082  0.4825
 6513TIP3    H241175   5.009   3.200   2.174  0.8611 -0.3892  0.1168
 6514TIP3   OH241176   0.292   1.169   1.375 -0.0026  0.1728 -0.0718
 6514TIP3    H141177   0.247   1.109   1.316  1.7443 -1.1405 -0.1371
 6514TIP3    H241178   0.372   1.194   1.328  1.3378 -0.7640  1.5966
 6515TIP3   OH241179   6.301   6.019   8.188 -0.6754 -0.7963  0.2783
 6515TIP3    H141180   6.304   6.059   8.275 -0.5664  0.4912 -0.2958
 6515TIP3    H241181   6.326   6.089   8.128 -1.4955 -1.4391 -0.8687
 6516TIP3   OH241182   6.766   5.020   0.194  0.5841  0.8148 -0.0261
 6516TIP3    H141183   6.705   4.976   0.253  0.8244  1.3254  0.6155
 6516TIP3    H241184   6.845   5.033   0.246  1.1134  0.4972 -0.7306
 6517TIP3   OH241185   1.060   1.552   7.127  0.4660 -0.5386  0.3450
 6517TIP3    H141186   1.021   1.467   7.107 -1.0731 -0.0300  0.9630
 6517TIP3    H241187   0.986   1.613   7.126  1.7750  1.1796 -1.9693
 6518TIP3   OH241188   3.657   5.084   0.218  0.1902  0.2677 -0.1487
 6518TIP3    H141189   3.582   5.031   0.190  0.9409 -1.4432  0.9515
 6518TIP3    H241190   3.715   5.085   0.142 -0.2406  0.2701 -0.4810
 6519TIP3   OH241191   5.443   1.668   1.832 -1.0303 -0.0676  0.0583
 6519TIP3    H141192   5.414   1.745   1.880  1.3003  1.0433 -0.1939
 6519TIP3    H241193   5.509   1.628   1.889 -1.2256 -1.1109 -0.4201
 6520TIP3   OH241194   3.787   0.447   1.736 -0.7072  0.1295 -0.1821
 6520TIP3    H141195   3.725   0.388   1.692  1.1696 -0.8376 -1.6496
 6520TIP3    H241196   3.793   0.522   1.677 -1.5672  0.9343  0.7080
 6521TIP3   OH241197   0.975   4.349   8.564 -0.3041  0.4202 -0.3575
 6521TIP3    H141198   0.880   4.335   8.571 -0.4913  1.1633 -1.3537
 6521TIP3    H241199   1.010   4.309   8.644 -1.3730 -0.5677 -0.3506
 6522TIP3   OH241200   6.724   5.706   2.454 -0.2240  0.4859 -0.0439
 6522TIP3    H141201   6.641   5.737   2.491 -1.7419 -2.6277 -0.5817
 6522TIP3    H241202   6.735   5.758   2.374 -1.5707  1.0656  0.1163
 6523TIP3   OH241203   0.664   1.784   6.845  0.2227  0.4636  0.5022
 6523TIP3    H141204   0.662   1.784   6.940  1.1281 -0.7896  0.5361
 6523TIP3    H241205   0.572   1.792   6.819 -0.1950 -0.8951  1.4877
 6524TIP3   OH241206   1.731   3.704   0.424 -0.3751  0.2104 -0.0706
 6524TIP3    H141207   1.700   3.792   0.445  2.7981  1.3082  0.5507
 6524TIP3    H241208   1.715   3.695   0.330  0.1452  1.8973 -0.3618
 6525TIP3   OH241209   2.258   5.776   0.371  0.1628  0.0523 -0.5160
 6525TIP3    H141210   2.258   5.687   0.335  0.7353  0.4483 -1.5493
 6525TIP3    H241211   2.192   5.822   0.318  1.4968  0.8232 -1.5736
 6526TIP3   OH241212   3.467   2.553   8.283  0.2164  0.1636 -0.5007
 6526TIP3    H141213   3.503   2.469   8.256 -0.2897 -0.0623 -0.4810
 6526TIP3    H241214   3.402   2.574   8.216  0.7404  0.8177 -0.8202
 6527TIP3   OH241215   3.548   5.805   1.062 -0.5609 -0.4894  0.4611
 6527TIP3    H141216   3.609   5.788   0.991  0.1123 -0.4347  1.0179
 6527TIP3    H241217   3.587   5.761   1.138  0.5329  2.3172  1.6486
 6528TIP3   OH241218   5.042   4.159   0.866  0.5270  0.1469 -0.2604
 6528TIP3    H141219   5.050   4.198   0.953  0.3199  0.0513 -0.1970
 6528TIP3    H241220   5.034   4.233   0.807  1.0022  0.2224 -0.2358
 6529TIP3   OH241221   5.879   3.929   0.290 -0.5294 -0.3735  0.4569
 6529TIP3    H141222   5.936   3.979   0.231  1.2041  1.4563  3.4068
 6529TIP3    H241223   5.812   3.891   0.232  2.4622 -0.9806 -2.9654
 6530TIP3   OH241224   6.552   1.091   1.678 -0.4399  0.1774  0.4985
 6530TIP3    H141225   6.537   1.129   1.765 -0.6805  1.3261 -0.0278
 6530TIP3    H241226   6.607   1.015   1.695  0.7923  1.2444  1.5141
 6531TIP3   OH241227   0.453   3.229   2.962 -0.1944 -0.2073  0.2592
 6531TIP3    H141228   0.419   3.157   2.908  0.7967  0.3567 -1.1856
 6531TIP3    H241229   0.461   3.303   2.901  2.2334  0.0783  0.8073
 6532TIP3   OH241230   0.074   3.633   1.715 -0.1906  0.5868 -0.0916
 6532TIP3    H141231   0.075   3.690   1.638  0.4351  0.1810 -0.3966
 6532TIP3    H241232   0.070   3.544   1.679 -0.5990  0.4204  0.3640
 6533TIP3   OH241233   0.955   3.364   7.992  0.8924 -0.1239 -0.9014
 6533TIP3    H141234   0.969   3.290   8.051 -3.9565 -1.1513 -0.6463
 6533TIP3    H241235   1.038   3.413   7.995  2.5891 -2.7323  2.8752
 6534TIP3   OH241236   4.826   1.359   8.052 -0.3598 -0.2073 -0.0659
 6534TIP3    H141237   4.884   1.284   8.037 -0.2716 -0.0874 -0.3349
 6534TIP3    H241238   4.885   1.429   8.080 -0.4060 -0.1519 -0.1089
 6535TIP3   OH241239   4.208   6.607   8.101  0.6246 -0.4498  0.1469
 6535TIP3    H141240   4.125   6.558   8.107 -0.6458  1.6863  1.0027
 6535TIP3    H241241   4.261   6.556   8.040 -2.0486 -0.8844 -2.0094
 6536TIP3   OH241242   1.725   2.600   7.228  0.2058  0.2944 -0.3012
 6536TIP3    H141243   1.749   2.591   7.320 -0.7757 -0.0660 -0.0607
 6536TIP3    H241244   1.784   2.667   7.193  1.9388 -0.9532  0.0779
 6537TIP3   OH241245   5.497   0.336   8.823 -0.1661 -0.2928  0.2076
 6537TIP3    H141246   5.427   0.375   8.770  1.2029  0.0008 -1.4889
 6537TIP3    H241247   5.541   0.411   8.863  1.5697 -0.0949 -1.9010
 6538TIP3   OH241248   0.699   5.843   8.696  0.1255 -0.0386  0.0455
 6538TIP3    H141249   0.717   5.937   8.687  1.1453  0.0266  2.0595
 6538TIP3    H241250   0.650   5.820   8.617  1.7237  1.7164 -1.5742
 6539TIP3   OH241251   4.460   0.992   8.435 -0.2633  0.3784  0.0215
 6539TIP3    H141252   4.520   0.991   8.360 -1.3344  2.0230 -0.8946
 6539TIP3    H241253   4.408   1.071   8.424 -2.1859 -0.6548  1.1460
 6540TIP3   OH241254   5.345   0.195   2.367  0.4111 -0.3708  0.3493
 6540TIP3    H141255   5.278   0.199   2.299  0.9678 -0.0235 -0.1866
 6540TIP3    H241256   5.373   0.285   2.381 -0.6256 -0.2531  2.0104
 6541TIP3   OH241257   6.527   0.998   0.670 -0.6117  0.2367  0.1434
 6541TIP3    H141258   6.543   1.061   0.600 -1.2695  0.2779  0.0198
 6541TIP3    H241259   6.476   0.929   0.628 -1.2535  0.3989  0.6417
 6542TIP3   OH241260   3.802   1.166   8.813  0.0143 -0.7398 -0.2381
 6542TIP3    H141261   3.728   1.134   8.865 -0.3752  2.0829  1.1056
 6542TIP3    H241262   3.817   1.097   8.748 -3.3794 -1.6811 -0.1760
 6543TIP3   OH241263   3.338   6.229   1.535 -0.2541 -0.2655 -0.3859
 6543TIP3    H141264   3.251   6.267   1.522 -0.3381 -0.1738  0.3885
 6543TIP3    H241265   3.358   6.245   1.627  0.5370 -0.3918 -0.5222
 6544TIP3   OH241266   0.617   1.824   0.625  0.1350  0.5304  0.4387
 6544TIP3    H141267   0.559   1.896   0.648  0.6283  0.8636  0.6536
 6544TIP3    H241268   0.656   1.797   0.708  0.0567  0.1090  0.3398
 6545TIP3   OH241269   6.277   4.923   8.031 -0.3506 -0.1878  0.0635
 6545TIP3    H141270   6.214   4.975   7.981  1.4787  0.3368 -1.8665
 6545TIP3    H241271   6.308   4.982   8.100 -1.3901 -0.2049  0.5610
 6546TIP3   OH241272   5.345   4.094   2.172 -0.3355  0.4525  0.3620
 6546TIP3    H141273   5.332   4.176   2.123 -0.7117  0.1814 -0.0008
 6546TIP3    H241274   5.260   4.050   2.166  0.5022 -1.0685 -1.4843
 6547TIP3   OH241275   2.775   5.051   3.068  0.3887  0.2101  0.0707
 6547TIP3    H141276   2.702   5.095   3.025  0.1556 -0.7242 -0.5170
 6547TIP3    H241277   2.845   5.051   3.002  1.5463  2.5928  1.1906
 6548TIP3   OH241278   5.881   1.083   7.224 -0.0659 -0.2224 -0.5637
 6548TIP3    H141279   5.860   1.088   7.131 -1.1381 -0.9875 -0.3831
 6548TIP3    H241280   5.853   0.995   7.251 -1.1272  0.4726  0.7709
 6549TIP3   OH241281   1.976   4.046   2.193  0.2630 -0.2050  0.2169
 6549TIP3    H141282   1.943   4.071   2.279 -0.4945  0.8881 -0.3670
 6549TIP3    H241283   2.065   4.014   2.210  0.3327  0.5154  1.3435
 6550TIP3   OH241284   2.676   5.059   7.939 -0.6333  0.4461 -0.0355
 6550TIP3    H141285   2.638   5.145   7.919 -1.1297  0.1466 -0.3939
 6550TIP3    H241286   2.769   5.070   7.920 -0.9555  0.3857 -1.9044
 6551TIP3   OH241287   4.260   6.603   2.139  0.4744  0.0924 -0.1131
 6551TIP3    H141288   4.308   6.581   2.219  0.5539 -1.1964 -0.4900
 6551TIP3    H241289   4.198   6.670   2.166  0.7818 -0.0291  0.9402
 6552TIP3   OH241290   3.709   1.724   2.225 -0.5870  0.0646 -0.3336
 6552TIP3    H141291   3.619   1.692   2.218 -0.4525 -0.7143  1.1074
 6552TIP3    H241292   3.760   1.662   2.173 -0.7048 -0.3949  0.0844
 6553TIP3   OH241293   0.756   2.285   0.716 -0.0262  0.1343  0.3177
 6553TIP3    H141294   0.842   2.278   0.758 -0.8258 -2.2631  1.7492
 6553TIP3    H241295   0.767   2.241   0.631  0.1742 -0.1575  0.4920
 6554TIP3   OH241296   2.311   0.568   8.014  0.8412 -0.3068  0.2353
 6554TIP3    H141297   2.358   0.526   8.086  0.3908 -2.0176 -0.4134
 6554TIP3    H241298   2.331   0.514   7.938 -1.7883 -0.8646 -0.1642
 6555TIP3   OH241299   6.756   0.314   1.716  0.0741 -0.2255  0.0904
 6555TIP3    H141300   6.789   0.257   1.785 -0.9380  1.2069  1.8295
 6555TIP3    H241301   6.689   0.367   1.758  0.0718  1.3705 -1.7721
 6556TIP3   OH241302   1.009   0.114   1.557 -0.0224  0.3982  0.3174
 6556TIP3    H141303   1.079   0.075   1.609  1.1468  0.6976 -0.9687
 6556TIP3    H241304   0.995   0.201   1.595 -1.3328 -0.4782  2.0065
 6557TIP3   OH241305   6.337   2.861   0.244 -0.0290  0.8427  0.6886
 6557TIP3    H141306   6.397   2.809   0.189  0.1014 -0.5290  2.0675
 6557TIP3    H241307   6.255   2.863   0.194  0.2992  0.2554  0.1041
 6558TIP3   OH241308   4.326   2.411   8.392  0.2844 -0.3251  0.0402
 6558TIP3    H141309   4.360   2.495   8.421 -0.9761  0.1446  0.2306
 6558TIP3    H241310   4.250   2.395   8.448 -0.6113 -0.6688 -1.2172
 6559TIP3   OH241311   6.291   2.425   7.544 -0.0833 -0.1684 -0.1284
 6559TIP3    H141312   6.338   2.467   7.616  0.6201 -1.7026  0.3584
 6559TIP3    H241313   6.303   2.484   7.470  1.0156  0.4091  0.4773
 6560TIP3   OH241314   0.533   2.835   8.795  0.0399 -0.2791 -0.1058
 6560TIP3    H141315   0.620   2.809   8.766 -0.4637 -2.0583 -0.1195
 6560TIP3    H241316   0.541   2.843   8.890  0.2013 -0.5221 -0.0987
 6561TIP3   OH241317   5.707   6.528   7.867 -0.5576 -0.2921 -0.2476
 6561TIP3    H141318   5.688   6.529   7.773 -1.0663  0.4224 -0.1482
 6561TIP3    H241319   5.721   6.620   7.890  0.8785 -0.5906  0.1306
 6562TIP3   OH241320   4.782   3.470   0.132  0.4887 -0.0504  0.2852
 6562TIP3    H141321   4.819   3.522   0.060 -1.0518  0.8853  0.1118
 6562TIP3    H241322   4.812   3.515   0.211 -1.0347  1.3345  0.1344
 6563TIP3   OH241323   5.082   1.019   8.678  0.0368  0.3349  0.6439
 6563TIP3    H141324   5.066   0.997   8.770  0.3265 -4.1960 -0.1596
 6563TIP3    H241325   5.173   0.994   8.663  0.5121  2.5675 -0.5820
 6564TIP3   OH241326   2.721   6.681   1.163  0.1402 -0.2807  0.5682
 6564TIP3    H141327   2.728   6.745   1.233 -0.4924  0.1654  0.2341
 6564TIP3    H241328   2.784   6.710   1.097 -0.7589  0.5126  0.0343
 6565TIP3   OH241329   6.645   5.904   0.968 -0.0526 -0.0886  0.4233
 6565TIP3    H141330   6.691   5.957   0.903 -1.5236 -0.8005 -1.2852
 6565TIP3    H241331   6.704   5.830   0.985  0.0506 -0.2591 -0.6490
 6566TIP3   OH241332   1.516   1.083   8.535 -0.8181 -0.5217 -0.2929
 6566TIP3    H141333   1.432   1.113   8.568 -0.3201  0.8781 -0.2105
 6566TIP3    H241334   1.534   1.139   8.460  0.2863 -0.4074  0.0336
 6567TIP3   OH241335   1.817   3.079   1.798 -0.0472 -0.0193  0.0365
 6567TIP3    H141336   1.858   2.996   1.773  0.5288  0.4579 -0.6403
 6567TIP3    H241337   1.735   3.081   1.747 -1.2060 -1.1950  1.7524
 6568TIP3   OH241338   3.957   3.767   1.292  0.3513  0.0142 -0.0016
 6568TIP3    H141339   3.918   3.783   1.378 -1.8814 -1.7425 -0.5842
 6568TIP3    H241340   3.883   3.775   1.231  2.0955  2.4978 -1.9886
 6569TIP3   OH241341   4.014   5.828   0.412 -0.4692  0.2513 -0.0579
 6569TIP3    H141342   4.031   5.816   0.506 -1.2201 -0.6424 -0.0187
 6569TIP3    H241343   3.922   5.855   0.408 -0.7927 -0.8596 -0.5793
 6570TIP3   OH241344   3.682   2.348   8.204  0.0214 -0.4791 -0.0429
 6570TIP3    H141345   3.753   2.327   8.144  0.5692  0.3891  0.2861
 6570TIP3    H241346   3.717   2.326   8.291 -0.5578 -1.1889  0.0247
 6571TIP3   OH241347   5.733   5.174   7.419 -0.9140 -0.0103  0.5779
 6571TIP3    H141348   5.751   5.261   7.384  0.2073  0.3966  2.0475
 6571TIP3    H241349   5.764   5.114   7.351 -1.2766  0.7295 -0.2590
 6572TIP3   OH241350   0.157   1.113   1.789  0.0039  0.6311 -0.3814
 6572TIP3    H141351   0.097   1.050   1.749 -0.5595  0.5470  0.5545
 6572TIP3    H241352   0.217   1.059   1.841 -0.1762  0.8220  0.0338
 6573TIP3   OH241353   0.025   2.833   1.764 -0.2385  0.7023  0.1155
 6573TIP3    H141354   0.030   2.893   1.690 -0.5302  0.6188  0.0279
 6573TIP3    H241355  -0.052   2.780   1.747  0.0215  0.2955  0.1862
 6574TIP3   OH241356   0.430   3.288   7.172  0.2219  0.3670 -0.2310
 6574TIP3    H141357   0.420   3.329   7.259 -1.0913  0.7410 -0.5388
 6574TIP3    H241358   0.475   3.206   7.190 -1.3015 -0.2491  1.0120
 6575TIP3   OH241359   1.108   0.353   1.749  0.3917  0.0927  0.2906
 6575TIP3    H141360   1.038   0.417   1.730 -0.1837 -0.5557  0.1725
 6575TIP3    H241361   1.126   0.365   1.842  0.1714  0.3190  0.3074
 6576TIP3   OH241362   2.534   5.816   7.596  0.0957 -0.0539  0.5582
 6576TIP3    H141363   2.583   5.878   7.651 -2.3239  1.8914  0.7258
 6576TIP3    H241364   2.484   5.764   7.658 -0.8623  0.5517  0.3109
 6577TIP3   OH241365   5.623   3.186   8.593  0.4856 -0.3870  0.1891
 6577TIP3    H141366   5.554   3.232   8.545  1.6852  1.3662  0.0128
 6577TIP3    H241367   5.668   3.135   8.526  1.8950  1.7291 -0.5967
 6578TIP3   OH241368   0.047   6.651   1.099 -0.2106 -0.0441  0.6981
 6578TIP3    H141369  -0.039   6.672   1.062  0.8435  0.2776 -1.8028
 6578TIP3    H241370   0.091   6.736   1.104  0.1822 -0.2873  1.3399
 6579TIP3   OH241371   1.266   2.579   8.824  0.0366 -0.2761  0.3868
 6579TIP3    H141372   1.204   2.589   8.752 -0.9693  1.0441  1.3741
 6579TIP3    H241373   1.212   2.555   8.899  0.6336  1.1565  1.3268
 6580TIP3   OH241374   3.316   5.611   0.596 -0.1637  0.1666  0.1663
 6580TIP3    H141375   3.384   5.666   0.636 -0.9711  0.3293  1.3565
 6580TIP3    H241376   3.237   5.630   0.646 -0.3325 -2.6186  1.1287
 6581TIP3   OH241377   2.714   0.556   0.222  0.1305  0.7179  0.3431
 6581TIP3    H141378   2.652   0.623   0.251  1.1434  1.0585  1.7737
 6581TIP3    H241379   2.693   0.480   0.275  0.3575  0.5456  0.1876
 6582TIP3   OH241380   1.041   3.632   1.716  0.2123  0.1065  0.0841
 6582TIP3    H141381   0.977   3.639   1.787  0.2967  2.0144  0.0020
 6582TIP3    H241382   0.991   3.644   1.636  0.5506  0.8421 -0.0217
 6583TIP3   OH241383   1.704   3.380   1.239 -0.1590  0.1567 -0.9124
 6583TIP3    H141384   1.754   3.310   1.281 -0.2746 -0.2388 -1.4253
 6583TIP3    H241385   1.755   3.403   1.162 -0.6776 -0.1360 -1.3486
 6584TIP3   OH241386   0.145   5.969   1.167 -0.1688  0.1844 -0.1956
 6584TIP3    H141387   0.139   6.039   1.232  4.1769 -0.1884  0.8853
 6584TIP3    H241388   0.178   6.012   1.088 -1.5939 -0.0376 -0.9505
 6585TIP3   OH241389   1.423   4.817   2.155  0.2714  0.4488 -0.3786
 6585TIP3    H141390   1.353   4.842   2.215 -0.1197  2.1111 -1.4672
 6585TIP3    H241391   1.378   4.768   2.086  0.5104 -0.2632 -0.0363
 6586TIP3   OH241392   2.067   6.818   0.394  0.1024 -0.5960 -0.3792
 6586TIP3    H141393   1.975   6.803   0.372  0.6377 -0.3304 -3.1187
 6586TIP3    H241394   2.116   6.769   0.328  1.9557 -0.2473  0.6585
 6587TIP3   OH241395   2.613   6.013   1.045  0.3208 -0.2063  0.2749
 6587TIP3    H141396   2.623   5.984   0.955  0.2099 -0.6011  0.3874
 6587TIP3    H241397   2.520   5.999   1.065  0.5782 -1.2489  0.8287
 6588TIP3   OH241398   5.740   0.187   8.139 -0.4148  0.1927 -0.1437
 6588TIP3    H141399   5.833   0.170   8.123 -0.9126 -0.4353 -2.6608
 6588TIP3    H241400   5.728   0.164   8.231  1.6350 -1.0373 -0.1102
 6589TIP3   OH241401   6.180   4.240   8.284  0.4298  0.1138 -0.1637
 6589TIP3    H141402   6.226   4.283   8.212 -0.2354  0.8760 -0.1503
 6589TIP3    H241403   6.200   4.294   8.360  2.0081 -1.2836  0.4719
 6590TIP3   OH241404   1.189   2.204   7.299 -0.5841 -0.0221 -0.1898
 6590TIP3    H141405   1.272   2.156   7.296 -0.9812 -0.6899 -2.0866
 6590TIP3    H241406   1.129   2.150   7.249 -1.6136  1.4560 -0.6202
 6591TIP3   OH241407   3.345   6.662   7.841 -0.2406 -0.0012  0.2257
 6591TIP3    H141408   3.375   6.587   7.893 -2.0679 -1.1664 -0.2904
 6591TIP3    H241409   3.401   6.662   7.764  0.0721 -0.5594  0.4445
 6592TIP3   OH241410   1.735   2.200   0.949 -0.1028 -0.4317  0.7796
 6592TIP3    H141411   1.747   2.295   0.957 -0.2549 -0.4025  0.6773
 6592TIP3    H241412   1.737   2.184   0.855 -4.0803  0.0497  0.4157
 6593TIP3   OH241413   5.123   6.158   0.933  0.3111 -0.5489 -0.8111
 6593TIP3    H141414   5.218   6.142   0.932  0.5349  0.6875 -1.9536
 6593TIP3    H241415   5.102   6.185   0.844 -1.3406 -1.8117 -0.8541
 6594TIP3   OH241416   4.011   1.751   7.814  0.2486  0.8773 -0.4270
 6594TIP3    H141417   3.960   1.714   7.886  1.5401  0.2566  0.2112
 6594TIP3    H241418   4.094   1.777   7.855  1.2747 -0.0964 -1.8092
 6595TIP3   OH241419   2.068   6.102   8.706  0.1625  0.2671 -0.3657
 6595TIP3    H141420   2.145   6.044   8.709  0.2535  0.4068  0.1260
 6595TIP3    H241421   2.103   6.189   8.726  0.2217  0.7254 -2.2854
 6596TIP3   OH241422   4.952   3.794   8.602 -0.1373 -0.4704 -0.0979
 6596TIP3    H141423   4.918   3.790   8.512  1.0092  2.3186 -0.7550
 6596TIP3    H241424   4.923   3.879   8.634 -0.0390 -1.1867  2.0324
 6597TIP3   OH241425   5.653   0.562   0.049 -0.3514 -0.2733 -0.1055
 6597TIP3    H141426   5.681   0.647   0.016  3.6877 -0.8184  1.4179
 6597TIP3    H241427   5.608   0.581   0.131 -3.8367  0.5444 -2.0083
 6598TIP3   OH241428   1.235   1.166   8.480  0.5308 -0.3575 -0.0732
 6598TIP3    H141429   1.151   1.177   8.526  0.5542 -0.3184 -0.0393
 6598TIP3    H241430   1.285   1.245   8.503  0.7695 -0.6240  0.3148
 6599TIP3   OH241431   4.756   6.777   1.713 -0.5736  0.0765 -0.0701
 6599TIP3    H141432   4.762   6.791   1.808 -0.6408 -0.3090 -0.0076
 6599TIP3    H241433   4.700   6.700   1.704 -1.4992  0.7744 -0.4669
 6600TIP3   OH241434   6.806   3.597   0.605 -0.5535  0.4657 -0.0663
 6600TIP3    H141435   6.729   3.541   0.599 -0.9822  1.1223 -0.6674
 6600TIP3    H241436   6.872   3.541   0.646 -0.7846 -0.6898 -1.2078
 6601TIP3   OH241437   5.419   1.829   0.147  0.3268  0.4153 -0.4692
 6601TIP3    H141438   5.423   1.920   0.120 -0.2092  0.0845 -1.7462
 6601TIP3    H241439   5.500   1.790   0.113  1.0716  0.6242  0.9902
 6602TIP3   OH241440   5.710   0.251   1.914  0.0374  0.5185  0.5024
 6602TIP3    H141441   5.742   0.334   1.879  3.3698 -0.7131  0.2779
 6602TIP3    H241442   5.676   0.204   1.838 -1.1229  1.3331  0.5008
 6603TIP3   OH241443   6.031   0.063   8.136  0.6983 -0.0034  0.5470
 6603TIP3    H141444   6.068   0.119   8.205 -0.2772 -0.5403  1.5367
 6603TIP3    H241445   6.052  -0.026   8.162  1.0135 -0.1816 -0.2811
 6604TIP3   OH241446   2.347   3.467   7.685 -0.5455  0.2170  0.3496
 6604TIP3    H141447   2.270   3.434   7.638 -0.3903 -1.0972  0.9604
 6604TIP3    H241448   2.421   3.428   7.638 -0.2855  0.8432  0.2382
 6605TIP3   OH241449   1.443   0.006   0.464  0.3208 -0.0713  0.0112
 6605TIP3    H141450   1.352  -0.007   0.491 -0.2137  1.2214 -1.0541
 6605TIP3    H241451   1.480  -0.082   0.460 -0.6032 -0.5559  1.3120
 6606TIP3   OH241452   3.942   6.323   6.886 -0.0969  0.5276 -0.0633
 6606TIP3    H141453   4.002   6.283   6.823 -0.4333  3.2816 -2.3289
 6606TIP3    H241454   3.998   6.375   6.944 -0.0793  1.2095 -0.6805
 6607TIP3   OH241455   1.386   2.362   6.788 -0.6024 -0.3957  0.3426
 6607TIP3    H141456   1.358   2.330   6.874  0.6637  0.6624  1.1880
 6607TIP3    H241457   1.436   2.289   6.751  0.8767 -0.0651  1.5601
 6608TIP3   OH241458   2.717   0.302   8.672 -0.4860 -0.7548 -0.0509
 6608TIP3    H141459   2.715   0.344   8.758 -3.4503 -0.3771 -0.2125
 6608TIP3    H241460   2.717   0.208   8.692 -0.9609 -0.6696  0.3743
 6609TIP3   OH241461   2.969   1.155   2.118  0.5696  0.5861  0.0380
 6609TIP3    H141462   2.942   1.246   2.103 -3.3103 -0.2387  0.8408
 6609TIP3    H241463   2.984   1.150   2.212 -1.9893 -0.0970  0.4808
 6610TIP3   OH241464   2.252   0.961   8.830  0.3790 -0.2439  0.0707
 6610TIP3    H141465   2.320   0.940   8.766  0.3748 -1.0915  0.3287
 6610TIP3    H241466   2.208   1.038   8.795 -1.5357 -2.3003 -2.4817
 6611TIP3   OH241467   3.856   5.598   3.032 -0.0869 -0.5371 -0.4200
 6611TIP3    H141468   3.895   5.654   2.965  1.1047  1.3906  1.7371
 6611TIP3    H241469   3.905   5.516   3.027  2.7504  0.9943  0.6578
 6612TIP3   OH241470   2.285   5.117   0.913  0.8710  0.2835  0.3485
 6612TIP3    H141471   2.222   5.186   0.934  0.2672  0.3576 -1.4958
 6612TIP3    H241472   2.370   5.161   0.917  0.4907  1.1894 -0.8219
 6613TIP3   OH241473   5.270   0.371   7.282 -0.0720  0.2491 -0.4904
 6613TIP3    H141474   5.274   0.459   7.245  0.2569  0.2278 -0.5069
 6613TIP3    H241475   5.176   0.354   7.294 -0.0808  1.2419  1.0448
 6614TIP3   OH241476   4.763   0.542   8.238 -0.5307  0.1594 -0.1679
 6614TIP3    H141477   4.721   0.621   8.202 -1.4541 -0.6579 -0.9553
 6614TIP3    H241478   4.810   0.573   8.315 -0.0143  1.6610 -1.0503
 6615TIP3   OH241479   0.851   6.711   8.475 -0.8205  0.5350  0.2417
 6615TIP3    H141480   0.785   6.669   8.529 -1.2310 -1.5589 -1.7090
 6615TIP3    H241481   0.931   6.660   8.492 -1.1403 -0.6838 -1.5825
 6616TIP3   OH241482   0.201   3.505   2.897  0.5051 -0.0100  0.2705
 6616TIP3    H141483   0.164   3.418   2.910 -2.1587  0.6654 -1.8275
 6616TIP3    H241484   0.173   3.554   2.975 -0.2579 -0.3696  0.2371
 6617TIP3   OH241485   6.457   2.421   3.027  0.3481 -0.1118  0.4402
 6617TIP3    H141486   6.390   2.488   3.015  0.3786  0.0503  1.0872
 6617TIP3    H241487   6.427   2.347   2.975  0.9286  0.8047 -1.2849
 6618TIP3   OH241488   5.927   1.322   1.926  0.3556 -0.7484  0.6564
 6618TIP3    H141489   5.923   1.383   1.852  0.0103 -2.1485 -0.5196
 6618TIP3    H241490   6.016   1.330   1.959  0.4356  0.0878  0.2726
 6619TIP3   OH241491   1.038   4.393   1.922  0.2281 -0.1464  0.5207
 6619TIP3    H141492   0.991   4.377   2.004  0.1859  0.6085  0.6493
 6619TIP3    H241493   0.995   4.470   1.884  0.9121  0.1401  0.3045
 6620TIP3   OH241494   0.066   4.128   1.470  0.0709 -0.8334  0.0535
 6620TIP3    H141495   0.062   4.115   1.376  0.1531 -1.5853  0.1395
 6620TIP3    H241496   0.046   4.220   1.484 -2.4560 -1.2373 -0.5184
 6621TIP3   OH241497   1.349   4.148   1.192 -0.2667 -0.0471 -0.4572
 6621TIP3    H141498   1.266   4.176   1.230 -0.1081 -0.0760 -0.0940
 6621TIP3    H241499   1.339   4.167   1.098 -0.6481  0.0325 -0.4033
 6622TIP3   OH241500   2.937   6.199   0.224 -0.5691 -0.1378  0.5393
 6622TIP3    H141501   2.920   6.152   0.305  0.3286 -1.6858 -0.1275
 6622TIP3    H241502   3.025   6.233   0.233 -0.1641 -0.9791 -0.0557
 6623TIP3   OH241503   1.073   4.569   7.907 -0.0214  0.5432  0.4570
 6623TIP3    H141504   1.009   4.566   7.835 -0.0879 -2.2758  0.4930
 6623TIP3    H241505   1.141   4.628   7.876 -1.6162  1.9781 -0.4880
 6624TIP3   OH241506   3.646   0.971   7.942 -0.0258 -0.3451  0.2915
 6624TIP3    H141507   3.562   1.000   7.906  1.0147  1.8820 -0.5348
 6624TIP3    H241508   3.648   1.008   8.030  0.4025  0.3198  0.0124
 6625TIP3   OH241509   2.183   3.081   2.437 -0.1456  0.4638 -0.3815
 6625TIP3    H141510   2.129   3.090   2.516 -1.5303 -2.2116 -0.9175
 6625TIP3    H241511   2.120   3.071   2.366  1.0407 -1.1744 -1.2660
 6626TIP3   OH241512   4.466   5.054   8.284 -0.7444  0.4798  0.3685
 6626TIP3    H141513   4.447   5.137   8.328  1.2426  0.2773  1.7586
 6626TIP3    H241514   4.495   4.996   8.354 -1.4199 -1.1973 -0.6764
 6627TIP3   OH241515   5.343   1.186   7.046  0.3074  0.3124 -0.3332
 6627TIP3    H141516   5.293   1.106   7.062 -0.0612  0.7573  0.8555
 6627TIP3    H241517   5.434   1.157   7.037  0.3334 -0.1658  1.1408
 6628TIP3   OH241518   0.747   4.803   2.202  0.0077  0.2126  0.3962
 6628TIP3    H141519   0.711   4.830   2.287  0.1471  1.4204  0.0894
 6628TIP3    H241520   0.670   4.777   2.151 -0.1322  0.0208  0.7001
 6629TIP3   OH241521   1.547   6.060   1.771  0.0622 -0.1336  0.1602
 6629TIP3    H141522   1.477   6.109   1.728  1.7679 -0.5582 -3.5157
 6629TIP3    H241523   1.522   5.968   1.763  0.8800 -0.2781 -1.0323
 6630TIP3   OH241524   1.614   1.864   0.697 -0.2330  0.8253 -0.0365
 6630TIP3    H141525   1.627   1.958   0.683  0.2922  0.8837  0.7489
 6630TIP3    H241526   1.599   1.856   0.791  0.4542  0.0481  0.0148
 6631TIP3   OH241527   6.184   5.863   0.055  0.2014  0.0774  0.1222
 6631TIP3    H141528   6.213   5.905  -0.026  1.2650 -0.3244  0.2759
 6631TIP3    H241529   6.138   5.784   0.027 -1.8744  1.3226 -0.1710
 6632TIP3   OH241530   0.405   3.677   7.722 -0.1861  0.4712  0.0486
 6632TIP3    H141531   0.403   3.740   7.794  0.3213 -0.8828  1.2976
 6632TIP3    H241532   0.483   3.700   7.671 -0.4595  1.3357  0.0112
 6633TIP3   OH241533   1.165   0.267   1.036 -0.5998 -0.2329 -0.6312
 6633TIP3    H141534   1.094   0.203   1.037 -3.8481  3.0634  0.9548
 6633TIP3    H241535   1.173   0.296   1.126 -0.2365  2.5550 -1.4749
 6634TIP3   OH241536   3.944   2.407   3.122 -0.2160 -0.7763  0.3483
 6634TIP3    H141537   3.901   2.423   3.038 -2.0153 -1.1424  1.1649
 6634TIP3    H241538   3.962   2.313   3.122  1.1275 -0.5511 -0.1973
 6635TIP3   OH241539   5.676   0.138   0.051 -0.4954  0.2906  0.6476
 6635TIP3    H141540   5.600   0.192   0.029 -0.5486  0.0032  0.1076
 6635TIP3    H241541   5.720   0.186   0.121  0.3004  1.7854 -0.8192
 6636TIP3   OH241542   1.816   2.285   8.809  0.2590  0.1890  0.1703
 6636TIP3    H141543   1.838   2.327   8.726  0.5111  0.8945  0.5903
 6636TIP3    H241544   1.745   2.338   8.846 -1.2548 -1.2574 -0.5042
 6637TIP3   OH241545   1.806   6.796   6.906 -0.3610  0.7063 -0.0254
 6637TIP3    H141546   1.797   6.769   6.997  2.6073 -0.0292  0.1450
 6637TIP3    H241547   1.739   6.746   6.859 -0.6902 -0.3437  1.5075
 6638TIP3   OH241548   1.517   4.800   2.488  0.0683 -0.5973 -0.4062
 6638TIP3    H141549   1.428   4.804   2.453 -0.0756 -0.5180 -0.0426
 6638TIP3    H241550   1.520   4.717   2.536 -0.1751 -0.0850  0.5248
 6639TIP3   OH241551   5.694   0.746   8.089 -0.5526 -0.7177  0.2539
 6639TIP3    H141552   5.628   0.742   8.158  0.3390 -0.8007  1.1237
 6639TIP3    H241553   5.681   0.831   8.048 -1.7585 -1.0878 -0.1611
 6640TIP3   OH241554   6.743   6.155   0.851  0.4601  0.0200  0.0119
 6640TIP3    H141555   6.776   6.133   0.764 -0.7212  1.4582 -0.8678
 6640TIP3    H241556   6.711   6.245   0.842 -0.9047 -0.2511  1.5696
 6641TIP3   OH241557   0.468   5.841   7.800 -0.2132  0.0853 -0.5743
 6641TIP3    H141558   0.532   5.795   7.746 -0.4860 -0.9023 -0.0797
 6641TIP3    H241559   0.444   5.918   7.749 -1.2343 -1.3347 -2.3586
 6642TIP3   OH241560   6.060   0.547   1.281 -0.2780  0.0074  0.0916
 6642TIP3    H141561   6.057   0.614   1.349  0.1722 -0.5869  0.7037
 6642TIP3    H241562   6.153   0.533   1.266 -0.3495 -1.1841  0.6762
 6643TIP3   OH241563   5.608   4.070   7.312  0.7135  0.7069 -0.1976
 6643TIP3    H141564   5.524   4.051   7.354  1.7967 -0.4370  1.5864
 6643TIP3    H241565   5.591   4.147   7.257 -1.6438  0.0870 -0.4440
 6644TIP3   OH241566   1.175   3.026   1.873  0.6170 -0.2596  0.1432
 6644TIP3    H141567   1.119   2.951   1.892 -0.3979  0.6958  1.0495
 6644TIP3    H241568   1.120   3.085   1.821  0.9660  0.4242  0.5348
 6645TIP3   OH241569   2.505   0.447   0.003  0.1143  0.0703  0.5770
 6645TIP3    H141570   2.425   0.481   0.043  0.1491 -0.2082  0.8899
 6645TIP3    H241571   2.569   0.446   0.074  0.1173 -0.6177  0.5699
 6646TIP3   OH241572   4.985   4.098   1.363 -0.1477  0.5928  0.3980
 6646TIP3    H141573   4.902   4.055   1.343  1.3220 -1.6223 -1.5259
 6646TIP3    H241574   4.983   4.111   1.458 -2.9385  1.2860  0.3213
 6647TIP3   OH241575   6.677   3.775   1.644  0.2938 -0.3489 -0.3645
 6647TIP3    H141576   6.695   3.756   1.736  0.9636 -0.3508 -0.4918
 6647TIP3    H241577   6.759   3.812   1.611 -0.2927  0.7383 -0.6678
 6648TIP3   OH241578   5.082   4.470   0.408 -0.3043  0.2214 -0.5030
 6648TIP3    H141579   5.091   4.554   0.453 -2.4520  0.8698 -1.1431
 6648TIP3    H241580   5.002   4.480   0.357  0.2320 -1.6961 -1.7999
 6649TIP3   OH241581   4.582   0.539   0.394 -0.3789  0.6981  0.3189
 6649TIP3    H141582   4.634   0.487   0.454 -0.6556  1.5419  1.3248
 6649TIP3    H241583   4.637   0.614   0.373 -0.0488  0.1251 -0.9888
 6650TIP3   OH241584   3.614   6.762   1.110  0.5229  0.2891  0.4618
 6650TIP3    H141585   3.692   6.728   1.153 -0.4175 -0.5547  1.5742
 6650TIP3    H241586   3.575   6.685   1.068 -0.9304  0.1761  1.9056
 6651TIP3   OH241587   0.903   0.784   0.561  0.0391 -0.1341 -0.3896
 6651TIP3    H141588   0.825   0.730   0.553 -0.8086  1.1879 -1.5296
 6651TIP3    H241589   0.976   0.723   0.551 -0.8744 -1.0873 -1.4627
 6652TIP3   OH241590   0.957   5.210   0.228 -0.0514  0.2048  0.3192
 6652TIP3    H141591   1.002   5.126   0.218 -2.3857 -1.0332 -0.4650
 6652TIP3    H241592   0.918   5.227   0.142 -2.2023  0.4932  1.2918
 6653TIP3   OH241593   1.393   5.320   8.187  0.6641  0.8056  0.0008
 6653TIP3    H141594   1.316   5.371   8.214  1.0039  0.1001  2.6488
 6653TIP3    H241595   1.467   5.368   8.224  1.4711  1.0022 -1.7711
 6654TIP3   OH241596   0.604   3.198   8.502 -0.0956 -0.2611  0.1256
 6654TIP3    H141597   0.611   3.233   8.590 -1.0625 -0.2345  0.2062
 6654TIP3    H241598   0.513   3.215   8.476  0.5146  0.9866 -1.4088
 6655TIP3   OH241599   3.655   0.595   0.839 -1.0162 -0.0054 -0.4449
 6655TIP3    H141600   3.657   0.636   0.753  1.7267  0.4621 -0.2503
 6655TIP3    H241601   3.691   0.661   0.899  0.0703 -1.3521  0.4902
 6656TIP3   OH241602   2.689   4.033   0.484 -0.3523 -0.3270 -1.0021
 6656TIP3    H141603   2.649   4.030   0.570  0.2707  0.8874 -0.6503
 6656TIP3    H241604   2.652   3.958   0.438  0.2105 -1.6970  0.7042
 6657TIP3   OH241605   4.124   6.290   1.057 -0.2586  0.1076  0.1299
 6657TIP3    H141606   4.186   6.303   1.129  1.1023  0.3066 -1.0202
 6657TIP3    H241607   4.114   6.195   1.051 -1.7430  0.1147  1.6367
 6658TIP3   OH241608   3.575   1.378   0.926 -0.2138  0.3580 -0.1908
 6658TIP3    H141609   3.623   1.461   0.932 -0.1723  0.4633 -1.5555
 6658TIP3    H241610   3.640   1.314   0.896 -0.6306  0.2414 -0.8889
 6659TIP3   OH241611   3.097   6.651   7.920 -0.2337 -0.7849 -0.5429
 6659TIP3    H141612   3.161   6.631   7.989  0.9313 -0.0857 -1.3807
 6659TIP3    H241613   3.150   6.667   7.842 -1.1083  3.1232 -0.5373
 6660TIP3   OH241614   2.028   1.367   8.778 -0.6216 -0.4680  0.2343
 6660TIP3    H141615   1.994   1.453   8.804 -1.5246 -1.0195  0.9447
 6660TIP3    H241616   2.054   1.326   8.861  2.7732  0.2808 -0.3147
 6661TIP3   OH241617   2.405   4.872   0.823 -0.0416  0.0031  0.1830
 6661TIP3    H141618   2.489   4.849   0.863  0.0896 -0.6016 -0.4108
 6661TIP3    H241619   2.373   4.946   0.874  0.6748 -0.0030  0.6536
 6662TIP3   OH241620   4.461   1.375   0.234 -0.0278  0.1781 -0.6500
 6662TIP3    H141621   4.460   1.310   0.164  0.3463  1.3180 -1.7504
 6662TIP3    H241622   4.554   1.391   0.251 -0.1115 -0.1499  0.1968
 6663TIP3   OH241623   6.098   6.193   1.374  0.0446  0.2550 -0.0571
 6663TIP3    H141624   6.124   6.273   1.328  2.4418 -0.0567  0.6228
 6663TIP3    H241625   6.161   6.127   1.343 -0.7704 -0.9125  0.7380
 6664TIP3   OH241626   3.228   0.674   8.328 -0.1017 -0.2205  0.1563
 6664TIP3    H141627   3.197   0.623   8.403  1.2516 -0.7836  0.3468
 6664TIP3    H241628   3.227   0.611   8.255  1.7835 -0.6293  0.4388
 6665TIP3   OH241629   4.793   5.230   8.203 -0.3309 -0.2306 -0.7476
 6665TIP3    H141630   4.863   5.178   8.243 -0.2563  1.0877  0.9307
 6665TIP3    H241631   4.829   5.257   8.119  1.0135  0.0341 -0.1225
 6666TIP3   OH241632   3.521   4.528   2.436  0.0451  0.4135  0.1464
 6666TIP3    H141633   3.427   4.529   2.455  0.6321  0.0434  3.7077
 6666TIP3    H241634   3.530   4.468   2.362 -2.4924  0.5911 -0.4046
 6667TIP3   OH241635   4.329   6.376   8.586 -0.0411 -0.2167 -0.4588
 6667TIP3    H141636   4.412   6.341   8.554 -0.5977 -1.0832 -1.0096
 6667TIP3    H241637   4.353   6.426   8.664  0.8724 -1.4001  0.0647
 6668TIP3   OH241638   4.488   4.002   1.734  0.6428  0.1213  0.1211
 6668TIP3    H141639   4.541   3.967   1.663  1.9134  2.3909 -0.1389
 6668TIP3    H241640   4.532   4.083   1.760 -1.4624  0.9438  1.4443
 6669TIP3   OH241641   4.506   2.049   8.254  0.1861  0.5237 -0.5958
 6669TIP3    H141642   4.545   1.966   8.225 -0.4811 -0.1447  0.3537
 6669TIP3    H241643   4.458   2.081   8.178 -0.1952 -0.3671 -0.7386
 6670TIP3   OH241644   5.496   4.043   8.524 -0.1939  0.0390  0.0268
 6670TIP3    H141645   5.541   4.037   8.440 -0.7305  0.9193 -0.3402
 6670TIP3    H241646   5.440   4.120   8.516  0.9985  1.1616  1.7939
 6671TIP3   OH241647   3.438   2.185   0.149  0.9176  0.2352  0.1492
 6671TIP3    H141648   3.352   2.192   0.190  0.7204 -1.2212  0.0202
 6671TIP3    H241649   3.421   2.152   0.061  1.4487  2.1009 -0.7054
 6672TIP3   OH241650   2.244   2.141   7.403  0.0825  0.0711 -0.3638
 6672TIP3    H141651   2.211   2.228   7.423  0.7074 -0.3449  3.1158
 6672TIP3    H241652   2.326   2.134   7.453  0.4251 -2.2774 -1.0900
 6673TIP3   OH241653   1.413   0.932   0.275 -0.7885  0.1408 -0.1530
 6673TIP3    H141654   1.361   0.853   0.293  0.5471 -1.0606 -1.3148
 6673TIP3    H241655   1.362   1.003   0.313 -1.0663 -1.4669  2.8202
 6674TIP3   OH241656   0.426   4.530   1.038 -0.0270  0.7926  0.2754
 6674TIP3    H141657   0.455   4.560   0.951 -0.1814  0.1192 -0.0113
 6674TIP3    H241658   0.493   4.563   1.098  0.7575  0.1957 -0.2521
 6675TIP3   OH241659   2.897   0.921   0.991 -0.3285  0.1028 -0.1473
 6675TIP3    H141660   2.819   0.888   0.947 -0.8084  0.5268  0.3544
 6675TIP3    H241661   2.955   0.948   0.920 -0.4912 -0.5435 -0.5324
 6676TIP3   OH241662   3.305   0.904   7.370  1.0885  0.1044 -0.6016
 6676TIP3    H141663   3.269   0.841   7.307  2.0238 -1.3274  0.2435
 6676TIP3    H241664   3.273   0.989   7.339 -2.0359 -0.9042 -0.5799
 6677TIP3   OH241665   2.662   3.573   0.779  0.3324 -0.0197 -0.3754
 6677TIP3    H141666   2.706   3.497   0.740  0.2275  0.2395 -1.0145
 6677TIP3    H241667   2.694   3.576   0.869  1.8577  0.3201 -0.8906
 6678TIP3   OH241668   1.424   4.074   8.268 -0.1887  0.6105 -0.2456
 6678TIP3    H141669   1.483   4.060   8.342  0.3266 -0.2056 -0.7912
 6678TIP3    H241670   1.389   4.162   8.282 -1.2054 -0.0452  1.7258
 6679TIP3   OH241671   6.206   6.487   0.108 -0.4978 -0.4607  0.2180
 6679TIP3    H141672   6.189   6.492   0.014  0.0924 -1.6146  0.0393
 6679TIP3    H241673   6.147   6.419   0.140 -0.3679 -0.3987  0.5974
 6680TIP3   OH241674   2.506   2.307   8.564 -0.2680  0.2137  0.0016
 6680TIP3    H141675   2.456   2.302   8.645  0.3422 -1.5654  0.3134
 6680TIP3    H241676   2.564   2.232   8.567  0.2058  0.4567 -1.8106
 6681TIP3   OH241677   3.234   0.457   1.580  0.2557 -0.0146  0.3401
 6681TIP3    H141678   3.249   0.423   1.492 -0.4524  0.7481 -0.0823
 6681TIP3    H241679   3.235   0.552   1.571  1.1291  0.0934  1.3272
 6682TIP3   OH241680   4.813   5.141   1.838 -0.3372  0.2941  0.0067
 6682TIP3    H141681   4.731   5.091   1.830  0.3550 -0.8731  0.0389
 6682TIP3    H241682   4.793   5.226   1.798 -1.7606  0.2662  0.6125
 6683TIP3   OH241683   5.926   5.888   8.060  0.2133 -0.0647  0.1762
 6683TIP3    H141684   5.946   5.795   8.065 -2.9104 -0.8048  1.0008
 6683TIP3    H241685   5.939   5.921   8.149  0.1557  0.0183  0.1542
 6684TIP3   OH241686   5.136   6.567   0.862  0.4354 -0.0241 -0.5847
 6684TIP3    H141687   5.167   6.584   0.951  1.1761  0.0696 -0.8560
 6684TIP3    H241688   5.216   6.551   0.811  0.0956  1.0469 -1.4774
 6685TIP3   OH241689   4.577   4.369   0.189 -0.7580  0.0198  0.2676
 6685TIP3    H141690   4.608   4.453   0.154  0.4838 -1.2295 -1.8614
 6685TIP3    H241691   4.497   4.351   0.141 -2.2492  0.9411  2.2851
 6686TIP3   OH241692   1.643   4.409   8.572  0.0353 -0.3652  0.3137
 6686TIP3    H141693   1.710   4.341   8.576  0.5342  0.1634  1.1635
 6686TIP3    H241694   1.571   4.375   8.625 -1.0152 -1.5725 -1.7445
 6687TIP3   OH241695   2.647   6.092   1.946  0.1338 -0.5348  0.5239
 6687TIP3    H141696   2.595   6.165   1.978 -1.6975 -1.4604 -0.2105
 6687TIP3    H241697   2.730   6.099   1.993  0.1277  2.1501  0.2666
 6688TIP3   OH241698   2.607   3.783   8.247 -0.0987  0.1019 -0.0840
 6688TIP3    H141699   2.518   3.803   8.220  0.0761  1.0030 -0.0274
 6688TIP3    H241700   2.600   3.698   8.292 -0.7751 -0.2402 -0.8210
 6689TIP3   OH241701   1.592   1.333   8.673  0.3064  0.8121 -0.0948
 6689TIP3    H141702   1.510   1.357   8.631  0.7255  0.1041 -1.3737
 6689TIP3    H241703   1.595   1.237   8.667  0.3731  0.6806  1.6052
 6690TIP3   OH241704   3.483   3.048   8.751 -0.1662 -0.2666  0.2803
 6690TIP3    H141705   3.462   2.958   8.728 -0.8533 -0.2998  1.0283
 6690TIP3    H241706   3.532   3.081   8.675 -0.1931 -1.1595 -0.1337
 6691TIP3   OH241707   5.072   1.854   1.027  0.6819  0.0585 -0.3916
 6691TIP3    H141708   5.130   1.909   1.080  0.5941  0.9073 -1.1529
 6691TIP3    H241709   5.047   1.782   1.085  1.3669  0.4464  0.3969
 6692TIP3   OH241710   2.173   2.321   1.748  0.8248  0.0019 -0.5366
 6692TIP3    H141711   2.086   2.317   1.788  0.6511  0.3410 -0.8763
 6692TIP3    H241712   2.171   2.254   1.680  1.4407 -1.2419  0.6233
 6693TIP3   OH241713   6.719   2.084   1.913  0.1484  0.1928  0.4457
 6693TIP3    H141714   6.768   2.088   1.831 -0.2343  0.0442  0.2062
 6693TIP3    H241715   6.745   2.164   1.960 -0.6492  0.9942 -0.4144
 6694TIP3   OH241716   5.248   1.195   0.549 -0.4166  0.4411  0.1706
 6694TIP3    H141717   5.283   1.283   0.566 -1.0825  0.8755 -0.6425
 6694TIP3    H241718   5.178   1.184   0.614  1.6229 -0.7315  2.3136
 6695TIP3   OH241719   6.227   1.504   0.502  0.1600 -0.6411 -0.2778
 6695TIP3    H141720   6.289   1.447   0.457  0.4338 -0.7350  0.2097
 6695TIP3    H241721   6.267   1.520   0.588 -1.0435 -1.6611  0.5013
 6696TIP3   OH241722   2.234   3.943   2.219  0.5803 -1.1515 -0.4433
 6696TIP3    H141723   2.253   4.011   2.284  0.0051 -1.3517 -0.0616
 6696TIP3    H241724   2.320   3.922   2.181  0.8476 -0.6545 -0.1316
 6697TIP3   OH241725   6.829   6.744   7.524 -0.4985  0.2450  0.2799
 6697TIP3    H141726   6.735   6.741   7.503 -0.1287  1.6686 -1.9754
 6697TIP3    H241727   6.872   6.711   7.445  0.9351  2.1473  0.1811
 6698TIP3   OH241728   0.660   5.821   1.136 -0.0843  0.4712  0.4552
 6698TIP3    H141729   0.743   5.836   1.091 -0.0157  1.3904  0.8636
 6698TIP3    H241730   0.673   5.739   1.183 -0.2630 -0.6844 -1.4132
 6699TIP3   OH241731   1.413   0.392   1.897  0.3022 -0.4720  0.6164
 6699TIP3    H141732   1.324   0.381   1.930 -0.0549  1.3284  0.4021
 6699TIP3    H241733   1.427   0.319   1.837 -0.3807 -1.7265  1.9256
 6700TIP3   OH241734   4.836   3.063   0.710  0.4382 -0.1971 -0.0413
 6700TIP3    H141735   4.931   3.078   0.709  0.4982 -0.5191 -1.4316
 6700TIP3    H241736   4.798   3.147   0.683  0.2670  0.1308  1.1433
 6701TIP3   OH241737   4.319   1.731   7.623  0.0871 -0.1026 -0.8931
 6701TIP3    H141738   4.329   1.743   7.717  1.0711 -2.1516 -0.6897
 6701TIP3    H241739   4.330   1.819   7.586  0.5358  0.5879  0.8246
 6702TIP3   OH241740   1.297   5.861   0.971  0.1925  0.0600  0.2455
 6702TIP3    H141741   1.219   5.827   1.015  1.0666 -0.9040  1.1037
 6702TIP3    H241742   1.366   5.857   1.038  0.9022  1.2223 -0.3910
 6703TIP3   OH241743   5.723   2.828   2.440  0.1364 -0.1880  0.6466
 6703TIP3    H141744   5.727   2.858   2.349  1.3761 -0.0211  0.7286
 6703TIP3    H241745   5.806   2.858   2.478  0.0407 -1.0572  1.5744
 6704TIP3   OH241746   2.607   5.191   2.895 -0.0515  0.2157  0.3693
 6704TIP3    H141747   2.623   5.250   2.821  0.9355  0.3170  0.6432
 6704TIP3    H241748   2.548   5.240   2.952 -0.8820  0.1041 -0.3834
 6705TIP3   OH241749   5.929   2.443   8.130  0.3146  0.2786 -0.1846
 6705TIP3    H141750   5.894   2.473   8.046  0.9632  0.3072 -0.4489
 6705TIP3    H241751   5.939   2.523   8.182  2.2526  0.5937 -0.9659
 6706TIP3   OH241752   1.941   5.300   2.572  0.1209 -0.2436  0.1456
 6706TIP3    H141753   1.874   5.348   2.621 -0.1075 -2.0065  1.7022
 6706TIP3    H241754   2.004   5.273   2.639  0.5852 -1.4703 -0.7429
 6707TIP3   OH241755   6.190   1.014   0.108 -0.0207  0.1409 -0.6385
 6707TIP3    H141756   6.135   1.032   0.184  0.7033  0.6965 -0.2307
 6707TIP3    H241757   6.264   0.964   0.143  0.4701  0.6596 -0.9102
 6708TIP3   OH241758   4.634   4.402   8.283 -0.0378  0.1360  0.3439
 6708TIP3    H141759   4.600   4.314   8.297  0.6705 -0.1902  0.0520
 6708TIP3    H241760   4.723   4.389   8.249 -0.7233  0.9189 -1.8972
 6709TIP3   OH241761   5.797   1.389   7.398  0.2144 -0.6044 -0.5043
 6709TIP3    H141762   5.839   1.468   7.431 -0.3410 -0.0145 -1.1699
 6709TIP3    H241763   5.846   1.317   7.438  0.0707  0.0714  0.9230
 6710TIP3   OH241764   0.757   3.273   2.723 -0.1131 -0.2703 -0.2784
 6710TIP3    H141765   0.729   3.238   2.808 -1.7697 -0.4564 -0.8655
 6710TIP3    H241766   0.798   3.357   2.745  1.6373 -1.3631  0.8947
 6711TIP3   OH241767   6.818   4.135   8.788 -0.5649  0.6541 -0.5018
 6711TIP3    H141768   6.848   4.047   8.811  0.2691  0.7954 -1.0140
 6711TIP3    H241769   6.877   4.164   8.719 -2.0478  0.8400 -1.7558
 6712TIP3   OH241770   2.070   0.485   8.152 -0.5290  0.5818 -0.3133
 6712TIP3    H141771   2.132   0.556   8.134 -0.3909  0.1841 -1.5460
 6712TIP3    H241772   2.081   0.467   8.245  2.3174 -0.4287 -0.7164
 6713TIP3   OH241773   4.605   6.526   1.393  0.2591 -0.3213 -0.2237
 6713TIP3    H141774   4.695   6.549   1.372  0.5387 -0.9873  0.2345
 6713TIP3    H241775   4.573   6.602   1.443  1.6033 -1.3814  2.4631
 6714TIP3   OH241776   3.994   6.205   7.601 -0.6380  0.4364  0.0471
 6714TIP3    H141777   4.064   6.213   7.666 -0.6983  3.0259 -0.1190
 6714TIP3    H241778   3.921   6.165   7.648 -0.2428  1.0619  1.2261
 6715TIP3   OH241779   6.141   3.484   8.257  0.0681 -0.0700  0.1986
 6715TIP3    H141780   6.075   3.551   8.241 -0.3563 -0.8471 -1.5608
 6715TIP3    H241781   6.216   3.532   8.292 -0.5645  1.1818 -0.1013
 6716TIP3   OH241782   5.683   5.242   1.923 -0.3475  0.1348 -0.7379
 6716TIP3    H141783   5.619   5.217   1.856 -2.7796  0.8510  1.1589
 6716TIP3    H241784   5.630   5.281   1.993  2.0959 -0.2235  1.4500
 6717TIP3   OH241785   0.827   0.046   1.383  0.1179 -0.2910  0.4780
 6717TIP3    H141786   0.801   0.112   1.319  2.5576 -0.3835 -0.7029
 6717TIP3    H241787   0.859   0.096   1.458 -2.3803 -0.1886  1.5880
 6718TIP3   OH241788   1.472   0.598   7.893 -0.0749  0.2467 -0.0232
 6718TIP3    H141789   1.378   0.584   7.878  0.5070 -0.4996 -4.3143
 6718TIP3    H241790   1.507   0.510   7.907  0.1363  0.3993  0.4166
 6719TIP3   OH241791   1.059   0.202   0.360 -0.5612  0.0662 -0.1975
 6719TIP3    H141792   1.039   0.295   0.348 -1.2354 -0.2302 -1.7116
 6719TIP3    H241793   0.977   0.157   0.339 -0.0225 -0.9035 -0.3044
 6720TIP3   OH241794   0.617   0.095   0.620  0.3421  0.0786 -0.2453
 6720TIP3    H141795   0.526   0.074   0.642  0.1224  1.3034  0.1080
 6720TIP3    H241796   0.662   0.101   0.705  0.5173  0.4765 -0.3637
 6721TIP3   OH241797   1.954   6.264   0.402 -0.0510 -0.8133  0.0717
 6721TIP3    H141798   1.891   6.336   0.406  0.7091 -0.1665  0.3505
 6721TIP3    H241799   1.943   6.229   0.313  0.5201  0.5050 -0.5418
 6722TIP3   OH241800   1.203   2.378   7.051  0.2292 -0.2520 -0.4356
 6722TIP3    H141801   1.297   2.394   7.059  0.3472  0.0251 -1.9817
 6722TIP3    H241802   1.170   2.384   7.140  1.6634 -0.2811  0.1292
 6723TIP3   OH241803   3.198   5.709   1.844 -0.0928 -0.1341 -0.0032
 6723TIP3    H141804   3.122   5.662   1.880  0.1188 -0.2930  0.2394
 6723TIP3    H241805   3.273   5.658   1.873  0.0846 -0.3055 -0.7346
 6724TIP3   OH241806   0.109   6.370   7.938 -0.4302  0.5070 -0.1721
 6724TIP3    H141807   0.182   6.315   7.966 -0.4156  0.2826 -0.6418
 6724TIP3    H241808   0.119   6.378   7.844 -1.0941  0.3551 -0.2639
 6725TIP3   OH241809   4.204   6.702   0.119  0.3048 -0.0841  0.1192
 6725TIP3    H141810   4.272   6.671   0.180 -1.1726 -1.1457  1.3102
 6725TIP3    H241811   4.216   6.797   0.116  1.3555 -0.1710  0.8874
 6726TIP3   OH241812   6.143   6.618   1.364 -0.4375  0.1898 -0.2850
 6726TIP3    H141813   6.056   6.656   1.358 -1.3778 -1.5607  1.1909
 6726TIP3    H241814   6.140   6.543   1.304 -0.4537 -0.7156  0.8233
 6727TIP3   OH241815   4.871   3.752   1.351  0.2693 -0.6219  0.1800
 6727TIP3    H141816   4.909   3.709   1.428 -1.9993 -1.2385  1.0284
 6727TIP3    H241817   4.786   3.709   1.339 -0.0534  0.4581 -1.8142
 6728TIP3   OH241818   5.038   0.899   7.223 -0.0200  0.5235 -0.6743
 6728TIP3    H141819   5.006   0.876   7.136 -1.2289 -0.3134 -0.0448
 6728TIP3    H241820   5.001   0.986   7.239 -0.9448  0.1035 -0.4681
 6729TIP3   OH241821   6.318   5.469   1.385  0.1293 -0.4293  0.3255
 6729TIP3    H141822   6.311   5.379   1.353  0.7653 -0.2608 -0.3117
 6729TIP3    H241823   6.311   5.462   1.480  0.3661 -1.1682  0.2927
 6730TIP3   OH241824   3.476   5.317   0.277  0.2895 -0.0644  0.0443
 6730TIP3    H141825   3.457   5.224   0.260  2.5939 -0.5159 -0.3831
 6730TIP3    H241826   3.394   5.362   0.256 -0.4270 -1.8433 -1.2883
 6731TIP3   OH241827   1.948   3.828   0.199 -0.0968  0.8167 -0.2296
 6731TIP3    H141828   1.886   3.807   0.129 -1.1212 -0.1967  0.9236
 6731TIP3    H241829   2.007   3.753   0.201  0.4362  1.2268 -0.5413
 6732TIP3   OH241830   1.632   0.157   1.373  0.3278  0.3470 -0.1403
 6732TIP3    H141831   1.644   0.115   1.288  1.0998 -0.3232  0.2853
 6732TIP3    H241832   1.658   0.248   1.359 -1.3653  0.7350 -1.0771
 6733TIP3   OH241833   6.223   0.438   8.292  0.1848 -0.0599  0.6696
 6733TIP3    H141834   6.136   0.415   8.323  0.4278 -1.6934  0.2519
 6733TIP3    H241835   6.264   0.354   8.270  1.4542  0.7464 -0.2305
 6734TIP3   OH241836   2.116   0.202   8.032  0.0443  0.0466 -0.0170
 6734TIP3    H141837   2.031   0.183   8.072 -0.9618  1.7867 -1.1820
 6734TIP3    H241838   2.139   0.289   8.064 -0.3213  1.0769 -2.3008
 6735TIP3   OH241839   4.526   5.153   1.554  0.2066  0.0535 -0.1508
 6735TIP3    H141840   4.590   5.224   1.562  2.5807 -1.8014 -1.3689
 6735TIP3    H241841   4.528   5.109   1.639  2.9204 -1.7462 -1.0122
 6736TIP3   OH241842   3.745   2.548   6.896 -0.0307 -0.4109  0.6391
 6736TIP3    H141843   3.699   2.464   6.889  0.7984 -0.7231 -2.7307
 6736TIP3    H241844   3.678   2.614   6.879 -0.1799 -0.5305  0.7602
 6737TIP3   OH241845   6.036   5.247   2.424  0.0660  0.8710 -0.5511
 6737TIP3    H141846   6.102   5.241   2.494  1.9122 -0.7442 -2.2989
 6737TIP3    H241847   5.988   5.328   2.443 -0.4633 -0.1248  3.3176
 6738TIP3   OH241848   6.657   1.408   7.955 -0.1847 -0.1660  0.3173
 6738TIP3    H141849   6.600   1.333   7.971 -0.1721 -0.2726 -0.1139
 6738TIP3    H241850   6.640   1.431   7.863 -0.7374  0.8136  0.6386
 6739TIP3   OH241851   3.930   4.678   2.094 -0.0201  0.5597 -0.5093
 6739TIP3    H141852   3.999   4.645   2.152  0.7608  0.7446 -1.3123
 6739TIP3    H241853   3.874   4.602   2.078  1.1720 -0.1512 -1.5022
 6740TIP3   OH241854   3.690   0.668   1.975 -0.2001 -0.6216  0.2644
 6740TIP3    H141855   3.629   0.664   1.901  1.0717 -0.2674 -0.8560
 6740TIP3    H241856   3.706   0.761   1.988 -1.7096 -0.5535  2.1692
 6741TIP3   OH241857   4.521   2.497   2.255  0.1713  0.0066  0.4195
 6741TIP3    H141858   4.535   2.570   2.315  0.4160  1.8850 -1.8025
 6741TIP3    H241859   4.587   2.509   2.186  1.2543 -3.2114  0.6945
 6742TIP3   OH241860   5.458   2.426   0.317  0.2466 -0.0383  0.0894
 6742TIP3    H141861   5.419   2.395   0.235 -0.9433 -1.6249  1.1885
 6742TIP3    H241862   5.500   2.509   0.294  2.0010 -1.5190 -2.6597
 6743TIP3   OH241863   4.143   5.245   0.928 -0.2983  0.0221 -0.3725
 6743TIP3    H141864   4.199   5.302   0.980  1.3994 -1.0506 -0.9432
 6743TIP3    H241865   4.146   5.281   0.840 -1.5823  0.6897 -0.1759
 6744TIP3   OH241866   0.933   5.714   8.802  0.1695  0.2422  0.7178
 6744TIP3    H141867   0.852   5.759   8.779  0.6656  0.8354  0.0935
 6744TIP3    H241868   0.941   5.643   8.738 -0.0707 -0.0759  1.0405
 6745TIP3   OH241869   5.733   6.805   7.919 -0.9236 -0.2483 -0.1737
 6745TIP3    H141870   5.741   6.791   7.825  0.2567  0.8369 -0.2730
 6745TIP3    H241871   5.757   6.897   7.931  1.1298 -0.9125  1.4082
 6746TIP3   OH241872   0.505   5.762   8.522  0.0341 -0.0656  0.4212
 6746TIP3    H141873   0.467   5.755   8.435  0.6674  0.5495  0.0808
 6746TIP3    H241874   0.459   5.835   8.563 -0.7304 -0.7740  0.8662
 6747TIP3   OH241875   1.653   2.174   1.431  0.1783 -0.6026 -0.4578
 6747TIP3    H141876   1.579   2.155   1.489  0.9820 -0.3916  0.6660
 6747TIP3    H241877   1.622   2.149   1.344 -1.6189  0.5371 -0.1978
 6748TIP3   OH241878   3.515   2.363   7.351  0.2087  0.8111 -0.2466
 6748TIP3    H141879   3.536   2.319   7.268  0.5401 -1.5541  1.0124
 6748TIP3    H241880   3.427   2.332   7.373  0.0440  1.5718  0.1993
 6749TIP3   OH241881   2.556   0.292   1.303 -0.5994  0.1938  0.3418
 6749TIP3    H141882   2.626   0.276   1.366  1.1393 -0.0930 -1.5282
 6749TIP3    H241883   2.602   0.318   1.223 -2.7867  2.9788 -0.1653
 6750TIP3   OH241884   1.796   2.043   7.841 -0.4175  0.0794 -0.7743
 6750TIP3    H141885   1.706   2.067   7.862 -0.1744  2.6160 -2.2723
 6750TIP3    H241886   1.787   1.966   7.784 -1.3457 -2.2700  2.2748
 6751TIP3   OH241887   1.860   1.029   1.477 -0.3054 -0.2038  0.5023
 6751TIP3    H141888   1.853   0.949   1.530 -0.5210 -0.5400 -0.0178
 6751TIP3    H241889   1.791   1.086   1.510  1.4799  0.8549  2.6480
 6752TIP3   OH241890   4.728   1.941   7.862  0.1313  0.2207  0.1866
 6752TIP3    H141891   4.780   1.992   7.924  0.5110 -0.1785  0.2040
 6752TIP3    H241892   4.637   1.958   7.886  0.2743 -1.1146  1.8466
 6753TIP3   OH241893   1.362   2.558   7.265 -0.4607 -0.0550  0.0170
 6753TIP3    H141894   1.433   2.621   7.274 -1.0210  0.7524 -1.0004
 6753TIP3    H241895   1.293   2.592   7.321 -1.0781  0.7367 -1.1792
 6754TIP3   OH241896   3.984   0.190   0.348 -0.2640  0.2260 -0.4966
 6754TIP3    H141897   3.920   0.119   0.357 -0.6732  0.6895  0.3216
 6754TIP3    H241898   4.055   0.166   0.408 -0.3968  0.4935 -0.2285
 6755TIP3   OH241899   5.105   3.412   8.115 -0.0103  0.6553  0.5190
 6755TIP3    H141900   5.159   3.376   8.045  0.2196  1.6282  0.1821
 6755TIP3    H241901   5.016   3.389   8.090  0.2107 -0.7839  0.9769
 6756TIP3   OH241902   6.070   3.547   7.661  0.8608 -0.6261 -0.3028
 6756TIP3    H141903   6.011   3.490   7.612  2.3053  0.7466 -4.0470
 6756TIP3    H241904   6.017   3.582   7.732 -1.6879 -2.2468 -1.2909
 6757TIP3   OH241905   5.676   2.857   2.830  0.0714 -0.7095  0.1192
 6757TIP3    H141906   5.679   2.811   2.915  0.2821 -0.8577  0.0336
 6757TIP3    H241907   5.767   2.859   2.802 -0.0097 -0.7273 -0.1405
 6758TIP3   OH241908   3.101   0.523   2.790  0.1840 -0.0654 -0.0987
 6758TIP3    H141909   3.115   0.616   2.772  0.7708  0.3257  2.0784
 6758TIP3    H241910   3.189   0.489   2.807  0.0919 -1.2902 -1.8451
 6759TIP3   OH241911   1.093   0.965   7.827  0.0493 -0.0048 -0.0550
 6759TIP3    H141912   1.099   1.058   7.804  1.0139 -0.2735 -0.9690
 6759TIP3    H241913   1.172   0.926   7.790 -0.1229 -1.1231  0.6993
 6760TIP3   OH241914   5.580   6.291   0.305  0.7377  0.1927  0.0136
 6760TIP3    H141915   5.522   6.233   0.353  1.7036  1.7856  3.3548
 6760TIP3    H241916   5.659   6.240   0.291  0.9241  0.0857  1.3465
 6761TIP3   OH241917   0.303   1.113   0.253  0.0667  0.3848  0.3900
 6761TIP3    H141918   0.219   1.141   0.290 -0.8294 -1.4274 -0.1768
 6761TIP3    H241919   0.288   1.023   0.224  2.2754 -0.0652  0.4713
 6762TIP3   OH241920   0.215   0.101   0.030 -0.2245  0.0503  0.5069
 6762TIP3    H141921   0.264   0.182   0.020  2.1297 -1.4020 -0.7250
 6762TIP3    H241922   0.200   0.093   0.124  1.9129  0.6363  0.9555
 6763TIP3   OH241923   3.414   3.913   0.676  0.3201  0.0585  0.4260
 6763TIP3    H141924   3.380   3.911   0.587  0.8104  1.2713  0.1801
 6763TIP3    H241925   3.425   3.821   0.700  1.2146 -0.3060 -1.1834
 6764TIP3   OH241926   4.140   3.591   8.250 -0.1596 -0.1440 -0.4105
 6764TIP3    H141927   4.062   3.577   8.304 -0.6286  1.2739 -0.6849
 6764TIP3    H241928   4.207   3.537   8.292 -1.0199 -0.6132  0.4193
 6765TIP3   OH241929   4.594   1.732   2.391 -0.0905  0.2594  0.0882
 6765TIP3    H141930   4.680   1.718   2.350  0.3211  1.0009  0.6655
 6765TIP3    H241931   4.577   1.825   2.378 -1.7498 -0.2356 -1.7545
 6766TIP3   OH241932   5.258   4.845   1.187  0.5385 -0.3280  0.1542
 6766TIP3    H141933   5.338   4.850   1.239  0.7960 -0.4791 -0.2169
 6766TIP3    H241934   5.190   4.881   1.243  0.6802 -1.1162  0.8528
 6767TIP3   OH241935   2.032   0.962   0.659 -0.3098 -0.1258 -0.4832
 6767TIP3    H141936   2.034   1.037   0.718 -0.9087 -0.0808 -0.5128
 6767TIP3    H241937   2.080   0.893   0.705 -1.6548 -0.4294  0.5265
 6768TIP3   OH241938   5.354   4.025   7.893 -0.0797  0.0952  0.1804
 6768TIP3    H141939   5.272   4.071   7.873  0.6631  1.3107 -0.1888
 6768TIP3    H241940   5.347   3.942   7.845 -0.5787  0.7065 -0.8467
 6769TIP3   OH241941   1.532   1.897   1.945  0.0723 -0.2346 -0.4463
 6769TIP3    H141942   1.614   1.910   1.992 -1.2103  0.3789  1.8000
 6769TIP3    H241943   1.517   1.980   1.899  0.5520 -0.2398 -0.6152
 6770TIP3   OH241944   2.826   6.015   0.407  0.3137 -0.4451 -0.3441
 6770TIP3    H141945   2.741   6.041   0.442 -0.0294 -1.0271 -0.7196
 6770TIP3    H241946   2.884   6.013   0.484 -0.0971 -0.3826 -0.0284
 6771TIP3   OH241947   2.225   5.281   2.206  0.3295 -0.0121  0.1566
 6771TIP3    H141948   2.200   5.370   2.229 -0.9452 -0.1976 -0.3714
 6771TIP3    H241949   2.267   5.246   2.284 -0.6954  0.5115  0.9755
 6772TIP3   OH241950   3.158   4.193   7.933 -0.4651  0.6542  0.0163
 6772TIP3    H141951   3.212   4.238   7.867 -1.3271 -0.9096 -1.8787
 6772TIP3    H241952   3.085   4.252   7.949 -0.5381  0.8389 -0.8986
 6773TIP3   OH241953   5.921   0.605   8.314 -0.1593 -0.2486  0.0272
 6773TIP3    H141954   5.979   0.675   8.344 -0.1733 -0.3623  0.3211
 6773TIP3    H241955   5.911   0.620   8.220  1.2341 -0.8726 -0.2394
 6774TIP3   OH241956   0.897   6.672   0.683 -0.2546 -0.3154  0.3641
 6774TIP3    H141957   0.858   6.686   0.597 -1.9375 -2.0800  0.7515
 6774TIP3    H241958   0.822   6.674   0.743  0.9433  1.4410  1.8907
 6775TIP3   OH241959   3.703   2.773   8.524 -0.1725 -0.1280 -0.3242
 6775TIP3    H141960   3.608   2.778   8.516 -0.3319  1.7096  1.8379
 6775TIP3    H241961   3.736   2.851   8.479  0.1828  0.0931  0.3001
 6776TIP3   OH241962   0.002   1.605   1.611 -0.2430  0.0781 -0.0381
 6776TIP3    H141963   0.058   1.545   1.563  0.0905  0.9154 -0.7229
 6776TIP3    H241964   0.008   1.576   1.702 -0.9490 -1.5843 -0.4687
 6777TIP3   OH241965   5.432   5.632   2.170  0.5991 -0.6384 -0.3929
 6777TIP3    H141966   5.408   5.695   2.237  0.1098 -0.5579 -0.6409
 6777TIP3    H241967   5.469   5.557   2.218 -1.1967 -1.2588  0.0842
 6778TIP3   OH241968   2.535   4.717   0.170 -0.6915  0.0416 -0.2641
 6778TIP3    H141969   2.486   4.791   0.205 -0.2591 -0.1529  0.8038
 6778TIP3    H241970   2.490   4.640   0.205 -0.0411 -0.1473  0.1844
 6779TIP3   OH241971   6.532   1.910   2.029  0.8782 -0.0842  0.5586
 6779TIP3    H141972   6.597   1.977   2.008  0.5886  0.3472  1.0194
 6779TIP3    H241973   6.509   1.927   2.120 -1.0390  0.7422 -0.0528
 6780TIP3   OH241974   3.553   1.761   3.020 -0.1868  0.1154  0.7442
 6780TIP3    H141975   3.605   1.682   3.005 -0.2494 -0.0427  1.3636
 6780TIP3    H241976   3.533   1.760   3.113  0.7316  1.4126  0.9805
 6781TIP3   OH241977   6.046   0.849   8.375  0.4004 -0.1486  0.0899
 6781TIP3    H141978   6.079   0.920   8.429  0.9561 -0.5113  0.2355
 6781TIP3    H241979   5.959   0.878   8.346 -0.0087 -0.0624  1.3745
 6782TIP3   OH241980   0.588   6.302   0.034 -0.5033 -0.6439 -1.1194
 6782TIP3    H141981   0.660   6.365   0.027 -0.3206 -0.8714 -1.2697
 6782TIP3    H241982   0.580   6.286   0.128 -0.9954  0.1181 -1.0154
 6783TIP3   OH241983   5.555   3.193   8.146  0.2538 -0.7772 -0.8168
 6783TIP3    H141984   5.564   3.106   8.186  1.9200 -0.7123 -0.9602
 6783TIP3    H241985   5.644   3.229   8.148 -0.3398  0.7696 -1.1290
 6784TIP3   OH241986   0.386   0.660   8.435 -0.0790 -0.4107  0.7243
 6784TIP3    H141987   0.396   0.753   8.455  3.4417 -0.5228  0.1219
 6784TIP3    H241988   0.350   0.658   8.347  1.8347  0.5297 -0.1501
 6785TIP3   OH241989   0.573   0.923   2.143  0.2308  0.0704 -0.2575
 6785TIP3    H141990   0.484   0.921   2.177 -0.0645  1.9938 -0.8008
 6785TIP3    H241991   0.611   0.839   2.168 -1.3156 -0.2506  1.1046
 6786TIP3   OH241992   6.013   4.013   1.739 -0.3448  0.1197  0.2499
 6786TIP3    H141993   5.956   4.042   1.668  0.5152  1.1826 -0.0316
 6786TIP3    H241994   5.953   3.995   1.811 -1.0211  1.8746  0.1875
 6787TIP3   OH241995   5.676   0.276   8.536  0.3391  0.3049 -0.0483
 6787TIP3    H141996   5.600   0.331   8.553  1.3157  1.6762  0.0726
 6787TIP3    H241997   5.738   0.297   8.606  1.4874  0.4834 -1.0735
 6788TIP3   OH241998   5.366   6.255   2.778 -0.1875 -0.4100 -0.0864
 6788TIP3    H141999   5.447   6.275   2.826 -0.3839  0.0440  0.0606
 6788TIP3    H242000   5.377   6.164   2.750  0.6718 -0.1521 -0.6501
 6789TIP3   OH242001   5.594   5.977   6.999  0.2949 -0.1545 -0.1051
 6789TIP3    H142002   5.585   6.072   6.998  2.5928  0.1571  0.9333
 6789TIP3    H242003   5.555   5.948   6.917  0.2223  1.7615 -0.8049
 6790TIP3   OH242004   2.511   1.873   1.710 -0.5731  0.1092  0.1782
 6790TIP3    H142005   2.470   1.789   1.732 -1.6594 -0.1029 -2.3067
 6790TIP3    H242006   2.441   1.937   1.718 -0.0278  0.6192  0.9644
 6791TIP3   OH242007   0.775   6.496   0.191  0.2496 -0.0833  0.5220
 6791TIP3    H142008   0.763   6.419   0.246  1.7643  0.5237  1.7650
 6791TIP3    H242009   0.843   6.547   0.235 -0.3348  1.7125 -0.5506
 6792TIP3   OH242010   5.515   2.697   8.760 -0.6234 -0.4801 -0.1845
 6792TIP3    H142011   5.510   2.627   8.695 -2.1029  1.3682 -2.2209
 6792TIP3    H242012   5.465   2.769   8.721  1.7855  2.1561  1.2370
 6793TIP3   OH242013   4.756   6.432   0.335  0.4061 -0.2325  0.2554
 6793TIP3    H142014   4.835   6.483   0.317  0.9615 -1.4623 -0.9631
 6793TIP3    H242015   4.769   6.398   0.424 -0.1269  1.9251  1.2258
 6794TIP3   OH242016   6.325   0.065   2.989  0.3566  0.1599  0.2148
 6794TIP3    H142017   6.316   0.062   2.894 -2.2790  0.7066  0.3831
 6794TIP3    H242018   6.235   0.059   3.022  1.1061  1.1606  2.6432
 6795TIP3   OH242019   4.459   6.427   8.238  0.2344  0.5267 -0.6202
 6795TIP3    H142020   4.396   6.479   8.287  0.9955  0.3640  0.5674
 6795TIP3    H242021   4.539   6.480   8.237  0.9878 -0.5217  0.5211
 6796TIP3   OH242022   5.873   3.419   0.550  0.2268 -0.1397 -0.0594
 6796TIP3    H142023   5.904   3.466   0.473  0.3919 -0.3881 -0.1458
 6796TIP3    H242024   5.802   3.473   0.585 -1.1385 -0.9256 -1.4637
 6797TIP3   OH242025   4.813   4.829   1.825  0.2203 -0.3784  0.4046
 6797TIP3    H142026   4.726   4.867   1.818  0.3882  0.0670  0.6208
 6797TIP3    H242027   4.855   4.880   1.895  1.2267  0.5637 -0.8270
 6798TIP3   OH242028   6.217   4.560   1.648 -0.0832  0.3144 -0.2117
 6798TIP3    H142029   6.149   4.538   1.585  1.5392 -0.1910 -1.9014
 6798TIP3    H242030   6.259   4.477   1.668  1.5360  0.8522 -1.1089
 6799TIP3   OH242031   6.690   5.337   2.427  0.1308  0.0435  0.2541
 6799TIP3    H142032   6.674   5.375   2.513  2.4299 -0.8085  1.1254
 6799TIP3    H242033   6.785   5.328   2.421  0.0086 -0.4997 -2.1367
 6800TIP3   OH242034   6.642   4.656   0.889 -0.1394 -0.2274 -0.2264
 6800TIP3    H142035   6.600   4.573   0.912 -0.7337  0.2478  0.4767
 6800TIP3    H242036   6.735   4.643   0.908 -0.5356 -0.0069  2.1515
 6801TIP3   OH242037   1.946   0.542   7.563 -0.3256  0.3098  0.5358
 6801TIP3    H142038   1.930   0.494   7.481  0.7996  0.9115 -0.0708
 6801TIP3    H242039   2.042   0.549   7.567 -0.4414  2.5772  0.5345
 6802TIP3   OH242040   0.442   6.645   7.706 -0.0724 -0.2350  0.5660
 6802TIP3    H142041   0.483   6.591   7.639  2.0019  1.0284  0.7368
 6802TIP3    H242042   0.381   6.701   7.658 -0.9549 -1.4610  0.1859
 6803TIP3   OH242043   5.503   2.750   7.113  0.3615  0.4636 -0.2883
 6803TIP3    H142044   5.534   2.675   7.164  1.5617  1.0067 -0.1867
 6803TIP3    H242045   5.580   2.779   7.064  0.8870  3.5965  2.0789
 6804TIP3   OH242046   5.369   1.381   1.869  0.3293  0.1637  0.2991
 6804TIP3    H142047   5.289   1.340   1.904  1.1918 -0.8169  1.1987
 6804TIP3    H242048   5.373   1.466   1.912 -0.2886  0.2751  0.1523
 6805TIP3   OH242049   5.649   2.692   1.345  0.4788 -0.2283  0.3169
 6805TIP3    H142050   5.689   2.613   1.382 -0.5433 -0.2345  1.4795
 6805TIP3    H242051   5.683   2.697   1.256 -0.2845 -2.5969 -0.1647
 6806TIP3   OH242052   4.015   0.319   8.361 -0.3068  0.3375  0.3737
 6806TIP3    H142053   4.092   0.323   8.305  0.4997  0.7066  1.4879
 6806TIP3    H242054   4.040   0.261   8.433 -1.2393  0.0635  0.4953
 6807TIP3   OH242055   5.009   5.840   8.435 -0.3462  0.5550 -1.3091
 6807TIP3    H142056   5.065   5.814   8.508 -1.1125 -0.3975 -1.0333
 6807TIP3    H242057   5.056   5.811   8.357  0.1031  0.8622 -1.1583
 6808TIP3   OH242058   1.431   1.082   7.899  0.2872 -0.1062 -0.1374
 6808TIP3    H142059   1.522   1.056   7.913  0.8031  2.3301  1.7922
 6808TIP3    H242060   1.436   1.146   7.827 -0.2542 -1.4219 -1.4047
 6809TIP3   OH242061   2.498   6.534   1.095  0.2459 -0.0835  0.2751
 6809TIP3    H142062   2.574   6.590   1.114  1.0912 -1.4619  1.1198
 6809TIP3    H242063   2.446   6.537   1.175 -0.4257  0.5646 -0.1737
 6810TIP3   OH242064   0.247   0.877   1.419  0.0449 -0.3584 -0.2146
 6810TIP3    H142065   0.228   0.880   1.325 -1.2178 -1.9150 -0.0558
 6810TIP3    H242066   0.201   0.952   1.455 -0.0924 -0.1762 -0.7600
 6811TIP3   OH242067   3.631   1.214   7.330 -0.2621 -0.5223  0.3073
 6811TIP3    H142068   3.691   1.269   7.279 -0.6215  0.4682  0.9181
 6811TIP3    H242069   3.559   1.195   7.270 -0.2406 -0.1285  0.1517
 6812TIP3   OH242070   4.128   4.434   0.268 -0.1172  0.8365  0.5293
 6812TIP3    H142071   4.045   4.440   0.221 -0.1379 -1.1313  0.2150
 6812TIP3    H242072   4.110   4.471   0.354 -0.7078  2.3766 -0.2141
 6813TIP3   OH242073   4.105   5.862   1.240 -0.0016 -0.0424  0.0291
 6813TIP3    H142074   4.021   5.840   1.281  0.9869 -0.5224  1.9169
 6813TIP3    H242075   4.157   5.898   1.311  0.8522  1.8694 -1.4809
 6814TIP3   OH242076   6.265   5.546   8.229 -0.0093 -0.0405  0.3138
 6814TIP3    H142077   6.251   5.467   8.280 -0.8762  0.2523  0.5498
 6814TIP3    H242078   6.284   5.515   8.141  0.0964 -0.5163  0.5041
 6815TIP3   OH242079   2.224   3.698   7.437  0.4599  0.2643  0.0455
 6815TIP3    H142080   2.151   3.749   7.402 -1.3377 -2.5234 -0.5758
 6815TIP3    H242081   2.270   3.665   7.361  0.8508 -0.0175  0.3980
 6816TIP3   OH242082   4.710   3.538   1.609  0.4871 -0.1312 -0.0390
 6816TIP3    H142083   4.663   3.522   1.691  2.3041 -2.3015  0.6600
 6816TIP3    H242084   4.802   3.529   1.631  1.1445  1.2352 -1.9412
 6817TIP3   OH242085   3.039   1.910   8.376  0.4746  0.4167  0.4688
 6817TIP3    H142086   3.007   1.820   8.377  2.4218 -0.3359 -0.1801
 6817TIP3    H242087   3.057   1.930   8.468 -0.0938  0.2165  0.6320
 6818TIP3   OH242088   6.163   4.902   8.775  0.1955  0.3720 -1.0239
 6818TIP3    H142089   6.160   4.836   8.844 -1.1816  0.0198 -1.4014
 6818TIP3    H242090   6.235   4.960   8.801 -0.7707  0.7090  1.1175
 6819TIP3   OH242091   4.536   2.473   1.159 -0.1530 -0.5746 -0.0642
 6819TIP3    H142092   4.465   2.411   1.142  1.1579 -2.5879  1.3299
 6819TIP3    H242093   4.600   2.457   1.090  0.6861 -1.6250  0.9203
 6820TIP3   OH242094   6.181   1.140   2.491  0.2058 -0.4556 -0.4841
 6820TIP3    H142095   6.272   1.136   2.521 -0.3789 -1.8007  1.2924
 6820TIP3    H242096   6.152   1.049   2.492 -0.5666 -0.3056 -3.1075
 6821TIP3   OH242097   3.424   0.622   0.045  1.0108  0.1728 -0.1623
 6821TIP3    H142098   3.346   0.569   0.026  0.3667  1.4228 -1.1158
 6821TIP3    H242099   3.497   0.566   0.017  0.3776 -0.4488 -0.6308
 6822TIP3   OH242100   5.463   4.971   2.251  0.3327 -0.2610  0.2404
 6822TIP3    H142101   5.424   5.013   2.327  0.8250  0.7528 -0.0547
 6822TIP3    H242102   5.466   4.878   2.273 -1.3212 -0.2380  0.6713
 6823TIP3   OH242103   3.480   2.416   1.922  0.3554 -0.1726  0.8169
 6823TIP3    H142104   3.500   2.510   1.923 -1.0567  0.1719  2.4166
 6823TIP3    H242105   3.408   2.408   1.860 -0.3810  0.0331  1.6275
 6824TIP3   OH242106   4.501   0.137   1.926 -0.0758 -0.3559  0.1949
 6824TIP3    H142107   4.508   0.042   1.940  0.7402 -0.1862  0.9947
 6824TIP3    H242108   4.458   0.170   2.004  2.6329  0.3343  1.5109
 6825TIP3   OH242109   5.433   3.679   0.730  0.1573 -0.2241  0.0912
 6825TIP3    H142110   5.464   3.744   0.667  2.2097 -0.6984  0.5406
 6825TIP3    H242111   5.338   3.677   0.717  0.1624  1.9446 -0.7878
 6826TIP3   OH242112   5.121   5.461   6.994  0.1245 -0.3672  0.3019
 6826TIP3    H142113   5.081   5.456   6.907  0.3595  1.6764  0.0264
 6826TIP3    H242114   5.166   5.545   6.995 -0.0949 -0.2192  2.5171
 6827TIP3   OH242115   2.479   2.685   7.583 -0.1207  0.3596  0.0371
 6827TIP3    H142116   2.412   2.627   7.548 -0.3254  0.5837  0.0502
 6827TIP3    H242117   2.536   2.629   7.634 -0.0152  0.0846 -0.3827
 6828TIP3   OH242118   6.610   6.756   1.501 -0.5995 -0.2947  0.1556
 6828TIP3    H142119   6.522   6.720   1.497 -1.2607  0.7295  2.9656
 6828TIP3    H242120   6.667   6.683   1.474 -2.1447 -1.9023  1.0335
 6829TIP3   OH242121   2.384   3.302   0.835 -0.1384  0.4583 -0.3262
 6829TIP3    H142122   2.391   3.387   0.793  0.1058  1.2813  1.3168
 6829TIP3    H242123   2.455   3.300   0.899 -1.2481 -0.2206  0.9342
 6830TIP3   OH242124   2.331   0.585   0.196  0.1484 -0.3249 -0.0451
 6830TIP3    H142125   2.304   0.569   0.286 -0.0619 -0.7975 -0.1913
 6830TIP3    H242126   2.249   0.604   0.150  0.1181 -1.2167 -0.3741
 6831TIP3   OH242127   3.476   0.448   8.021  0.2783  0.4204 -0.3136
 6831TIP3    H142128   3.471   0.364   8.066  1.8347  1.2342  1.4958
 6831TIP3    H242129   3.479   0.425   7.928 -1.5935 -1.3726 -0.0083
 6832TIP3   OH242130   5.769   4.763   0.379 -0.1421  0.6720 -0.0453
 6832TIP3    H142131   5.837   4.723   0.433 -0.3033  1.8866  1.0970
 6832TIP3    H242132   5.706   4.798   0.441 -0.2865  2.2033 -1.0003
 6833TIP3   OH242133   5.600   4.976   8.644  0.4086  0.2973 -0.4265
 6833TIP3    H142134   5.517   4.930   8.654  0.5341  0.3067  0.8917
 6833TIP3    H242135   5.656   4.915   8.594 -0.6039  0.6175 -2.0183
 6834TIP3   OH242136   4.937   4.222   0.154 -0.0871  0.0147 -0.2267
 6834TIP3    H142137   5.012   4.255   0.204  0.1188  0.8697 -1.0855
 6834TIP3    H242138   4.862   4.234   0.213  0.0672  1.5256 -0.3017
 6835TIP3   OH242139   1.933   6.824   7.162 -0.4607  0.4358 -0.0224
 6835TIP3    H142140   1.948   6.745   7.214  1.1940  1.6349  1.4287
 6835TIP3    H242141   1.964   6.801   7.074 -0.6146 -0.7160  0.2090
 6836TIP3   OH242142   3.327   4.505   2.061 -0.2574 -0.5512 -0.2595
 6836TIP3    H142143   3.234   4.484   2.072 -0.4356 -0.2457 -1.0932
 6836TIP3    H242144   3.373   4.432   2.103 -0.8722 -1.4664 -1.1195
 6837TIP3   OH242145   1.778   4.949   8.427  0.3851  0.2072 -0.4358
 6837TIP3    H142146   1.764   5.034   8.386 -1.8133  0.1510  0.0935
 6837TIP3    H242147   1.802   4.970   8.518 -0.0389  0.2568 -0.3366
 6838TIP3   OH242148   4.843   3.269   1.368  0.2150  0.5877  0.5414
 6838TIP3    H142149   4.778   3.312   1.313  1.1027  0.8466 -0.3375
 6838TIP3    H242150   4.802   3.261   1.454 -0.8846  0.9336  0.0540
 6839TIP3   OH242151   5.581   4.333   0.485 -0.5672 -0.2005 -0.4169
 6839TIP3    H142152   5.508   4.345   0.423 -0.5414  2.2332 -0.0668
 6839TIP3    H242153   5.559   4.390   0.558  0.1946 -1.8363  1.1378
 6840TIP3   OH242154   4.714   1.895   0.748 -0.4441  0.3666  0.6721
 6840TIP3    H142155   4.763   1.927   0.824  1.1348 -1.4782  0.5095
 6840TIP3    H242156   4.623   1.891   0.778  0.3888 -2.3261  3.2537
 6841TIP3   OH242157   5.381   0.998   8.351 -0.2598 -0.5177  0.2223
 6841TIP3    H142158   5.334   1.006   8.268  1.0009 -0.2166 -0.4864
 6841TIP3    H242159   5.420   0.911   8.348  0.3132 -0.2635  0.2072
 6842TIP3   OH242160   5.225   0.706   1.448  0.1135 -0.8319 -0.0712
 6842TIP3    H142161   5.180   0.774   1.398  0.1276 -0.8759 -0.1435
 6842TIP3    H242162   5.239   0.635   1.385  0.6572 -0.6535 -0.1572
 6843TIP3   OH242163   1.054   0.674   1.175 -0.1067  0.0608  0.0479
 6843TIP3    H142164   1.086   0.758   1.142 -0.3347 -0.1030 -0.6042
 6843TIP3    H242165   1.111   0.653   1.249  0.2447  0.5629 -0.0808
 6844TIP3   OH242166   5.351   1.584   8.455 -0.2210 -0.0694 -0.0144
 6844TIP3    H142167   5.352   1.660   8.514  0.6053 -0.1340  0.0731
 6844TIP3    H242168   5.308   1.515   8.506 -3.3956  1.0126 -1.0187
 6845TIP3   OH242169   3.524   3.707   1.780 -0.4210 -0.5914  0.1305
 6845TIP3    H142170   3.453   3.677   1.837 -2.9065  2.7435 -0.9062
 6845TIP3    H242171   3.516   3.654   1.701  0.8632 -2.8720  1.4100
 6846TIP3   OH242172   6.769   6.524   1.396 -0.1686 -0.6424 -0.0974
 6846TIP3    H142173   6.822   6.479   1.462 -2.3943 -1.6613  1.0761
 6846TIP3    H242174   6.828   6.591   1.361  1.1384 -0.0692  2.8799
 6847TIP3   OH242175   6.361   0.399   2.385  0.0625 -0.3667  0.0822
 6847TIP3    H142176   6.388   0.316   2.424 -1.8693 -2.3238 -2.3693
 6847TIP3    H242177   6.265   0.398   2.390 -0.0734  0.9522 -1.4174
 6848TIP3   OH242178   3.439   5.990   2.388  0.0901 -0.2753 -0.3252
 6848TIP3    H142179   3.456   6.045   2.465  1.7721  2.0028 -2.1609
 6848TIP3    H242180   3.525   5.980   2.347 -1.0206  0.6764 -3.1621
 6849TIP3   OH242181   5.405   6.380   1.057 -0.0784 -0.2987  0.0974
 6849TIP3    H142182   5.495   6.412   1.051 -0.2942  0.1346 -3.4966
 6849TIP3    H242183   5.414   6.285   1.064  0.6039 -0.1689  1.2495
 6850TIP3   OH242184   4.213   6.198   8.039  0.2046  0.2829  0.7685
 6850TIP3    H142185   4.194   6.149   7.959 -0.1644  1.2221  0.2705
 6850TIP3    H242186   4.306   6.220   8.032  0.6076 -1.0716  1.4177
 6851TIP3   OH242187   5.120   4.627   2.711  0.2275  0.4942  0.6389
 6851TIP3    H142188   5.176   4.700   2.738  2.2982 -0.5886 -0.4314
 6851TIP3    H242189   5.067   4.607   2.788  1.6680  1.2872  1.8979
 6852TIP3   OH242190   1.033   2.160   8.074 -0.1398  0.1283  0.6114
 6852TIP3    H142191   1.091   2.236   8.072  1.2416 -0.8942 -0.0040
 6852TIP3    H242192   0.945   2.197   8.076  0.5118  1.7362  1.4126
 6853TIP3   OH242193   1.256   6.107   0.622  0.0308 -0.2810  0.4077
 6853TIP3    H142194   1.270   6.057   0.542  0.0775  0.1874  0.1172
 6853TIP3    H242195   1.328   6.171   0.623  1.5288 -1.8549  2.0934
 6854TIP3   OH242196   2.747   1.485   7.612  0.6741  0.2717 -0.1167
 6854TIP3    H142197   2.769   1.416   7.673 -0.5985  0.6735  0.8527
 6854TIP3    H242198   2.679   1.536   7.657 -0.0212  0.8154 -1.6904
 6855TIP3   OH242199   3.719   2.282   8.481 -0.5172  0.0259  0.2115
 6855TIP3    H142200   3.767   2.200   8.479 -2.1387 -1.0686  2.0404
 6855TIP3    H242201   3.711   2.303   8.574 -3.1651  0.3326  0.0044
 6856TIP3   OH242202   6.191   2.161   3.187 -0.4110  0.4214 -0.0263
 6856TIP3    H142203   6.187   2.122   3.099  4.5268 -0.9809  0.0680
 6856TIP3    H242204   6.146   2.097   3.243 -0.8682 -0.2530 -1.1224
 6857TIP3   OH242205   0.742   6.401   0.625  0.6167  0.5787  0.4310
 6857TIP3    H142206   0.716   6.309   0.634 -1.7109  1.1022 -0.1348
 6857TIP3    H242207   0.830   6.405   0.663  0.3311 -1.6439  1.5141
 6858TIP3   OH242208   0.982   0.948   2.003 -0.2733  0.0947 -0.3244
 6858TIP3    H142209   0.922   1.001   1.951  1.3365  0.0154 -2.3552
 6858TIP3    H242210   1.007   1.005   2.076 -1.2179  0.8390 -0.5527
 6859TIP3   OH242211   4.450   4.453   2.594 -0.4157 -0.9195 -0.0173
 6859TIP3    H142212   4.396   4.473   2.517  1.7458 -2.8679 -2.2105
 6859TIP3    H242213   4.446   4.358   2.602 -0.4554 -0.7849  2.2730
 6860TIP3   OH242214   5.479   3.602   1.865  0.1673  0.6482  0.3163
 6860TIP3    H142215   5.417   3.552   1.813  0.0078 -0.3151  1.3774
 6860TIP3    H242216   5.436   3.613   1.950  0.9927  0.9370  0.7114
 6861TIP3   OH242217   6.775   3.354   8.270  0.1001 -0.6736  0.2285
 6861TIP3    H142218   6.749   3.355   8.178  0.6645  0.2410  0.0670
 6861TIP3    H242219   6.779   3.261   8.293  0.5770 -0.9321 -0.8463
 6862TIP3   OH242220   3.574   0.651   7.316 -0.6226 -0.0687  0.5340
 6862TIP3    H142221   3.641   0.599   7.272 -0.8669 -1.7979  2.0273
 6862TIP3    H242222   3.590   0.741   7.289  0.9796 -0.7048 -0.7720
 6863TIP3   OH242223   0.738   2.266   7.702  0.4587 -0.0660  0.3470
 6863TIP3    H142224   0.812   2.306   7.655  0.5231 -1.2148 -0.5667
 6863TIP3    H242225   0.770   2.180   7.729  0.3777  0.5102  2.4405
 6864TIP3   OH242226   0.774   6.849   2.830 -0.3352 -0.0913  0.2601
 6864TIP3    H142227   0.701   6.909   2.816 -0.2099 -0.1742 -0.8052
 6864TIP3    H242228   0.851   6.905   2.833 -0.5018  0.1211  2.4862
 6865TIP3   OH242229   5.182   3.716   2.991  0.2343 -0.6145 -0.9223
 6865TIP3    H142230   5.233   3.761   3.059 -0.8629 -0.1337 -0.3851
 6865TIP3    H242231   5.091   3.723   3.021 -0.1256 -1.7429 -1.6819
 6866TIP3   OH242232   2.880   4.143   0.301 -0.0830 -0.0234 -0.2760
 6866TIP3    H142233   2.920   4.217   0.346 -0.6805  0.2402 -0.1741
 6866TIP3    H242234   2.834   4.095   0.370 -0.0055 -0.2828 -0.4031
 6867TIP3   OH242235   2.447   3.253   8.191 -0.5971 -0.4053 -0.2400
 6867TIP3    H142236   2.451   3.190   8.263 -1.4853 -2.6469 -2.0074
 6867TIP3    H242237   2.529   3.239   8.144 -0.1436  0.8503  0.1522
 6868TIP3   OH242238   6.256   5.718   7.206  0.1653  0.5836  0.4718
 6868TIP3    H142239   6.180   5.714   7.148  0.8355  0.9867 -0.4619
 6868TIP3    H242240   6.263   5.810   7.231 -0.5547  0.3026  1.8290
 6869TIP3   OH242241   0.817   1.100   7.989  0.4952 -0.1066  0.9922
 6869TIP3    H142242   0.748   1.158   8.021  1.7603  3.1703 -1.5874
 6869TIP3    H242243   0.771   1.037   7.934 -0.6421  1.0302  0.5928
 6870TIP3   OH242244   5.819   6.810   3.140 -0.5653  0.4115  0.2186
 6870TIP3    H142245   5.774   6.759   3.073  0.8299 -0.4032 -0.1390
 6870TIP3    H242246   5.749   6.856   3.186 -1.6850 -0.2341 -0.7797
 6871TIP3   OH242247   5.954   0.030   1.787 -0.3462  0.7206  0.3157
 6871TIP3    H142248   5.928  -0.028   1.858  0.4082  0.1233  0.1242
 6871TIP3    H242249   6.000  -0.028   1.725 -3.5041  0.5572 -2.1424
 6872TIP3   OH242250   6.069   3.059   7.710 -0.0958  0.3004 -0.1866
 6872TIP3    H142251   6.006   3.068   7.639  1.0632 -1.0558 -1.4555
 6872TIP3    H242252   6.015   3.053   7.789 -1.4037  2.1549 -0.8589
 6873TIP3   OH242253   5.586   0.816   8.416  0.0268  0.6638 -0.3304
 6873TIP3    H142254   5.635   0.887   8.374  0.7809  0.8524  0.8073
 6873TIP3    H242255   5.641   0.790   8.490  0.5256 -2.1595 -1.5525
 6874TIP3   OH242256   3.308   6.706   0.246 -0.3619  0.2333 -0.4563
 6874TIP3    H142257   3.268   6.698   0.159 -0.4948  0.0801 -0.3806
 6874TIP3    H242258   3.236   6.691   0.307 -0.4409  1.1441 -0.3122
 6875TIP3   OH242259   0.385   0.982   3.055  0.1369  0.0907 -0.0984
 6875TIP3    H142260   0.339   0.982   3.139 -0.7802  1.5197 -0.5545
 6875TIP3    H242261   0.317   1.006   2.991  0.8624 -0.7453 -1.2248
 6876TIP3   OH242262   4.093   1.672   0.025 -0.2059  0.3888 -0.4019
 6876TIP3    H142263   4.096   1.577   0.020 -0.9359  0.3523 -0.2789
 6876TIP3    H242264   4.084   1.701  -0.066 -1.4747  0.2606 -0.3405
 6877TIP3   OH242265   6.618   5.352   2.038  0.1332 -0.1911  0.1701
 6877TIP3    H142266   6.679   5.422   2.060 -0.2284  0.9496 -2.1477
 6877TIP3    H242267   6.600   5.364   1.945 -1.7407 -1.9811  0.2257
 6878TIP3   OH242268   0.970   6.648   7.596 -0.0565  0.3980 -0.0430
 6878TIP3    H142269   0.904   6.709   7.562 -0.5352  1.3935  2.4262
 6878TIP3    H242270   0.927   6.563   7.597 -0.2948  0.4957 -1.0914
 6879TIP3   OH242271   6.625   4.300   2.001 -0.1328  0.0614  0.4379
 6879TIP3    H142272   6.591   4.310   2.090  2.6403 -0.1309  1.6280
 6879TIP3    H242273   6.618   4.207   1.982  2.6759 -0.6148  2.0948
 6880TIP3   OH242274   1.610   2.893   8.805  0.5949 -0.3932  0.3807
 6880TIP3    H142275   1.550   2.836   8.757  1.5220 -0.7949 -0.3551
 6880TIP3    H242276   1.554   2.951   8.856 -0.4254 -0.4671 -0.6164
 6881TIP3   OH242277   4.088   1.378   2.870 -0.3904  0.1061  0.4576
 6881TIP3    H142278   4.117   1.462   2.905 -0.5698  1.0832 -1.5878
 6881TIP3    H242279   4.006   1.397   2.825 -0.2711 -1.0773 -0.3260
 6882TIP3   OH242280   5.395   0.046   8.167 -0.1250  0.8829  0.1835
 6882TIP3    H142281   5.408   0.109   8.096 -0.6865  0.9213  0.1063
 6882TIP3    H242282   5.411   0.096   8.247  0.8328  0.7569  0.0777
 6883TIP3   OH242283   0.854   3.968   7.726 -0.8299 -0.0504  0.1636
 6883TIP3    H142284   0.849   3.880   7.765 -0.5925  0.5223  1.5539
 6883TIP3    H242285   0.877   3.952   7.634 -0.7763 -1.4407  0.3922
 6884TIP3   OH242286   5.916   5.437   2.575  0.3886 -0.1918 -0.1510
 6884TIP3    H142287   6.000   5.451   2.620  0.5159 -1.7418  0.1603
 6884TIP3    H242288   5.854   5.420   2.646 -0.2525  1.1582 -0.3685
 6885TIP3   OH242289   6.410   4.184   0.004 -0.1978  0.5211 -0.1977
 6885TIP3    H142290   6.390   4.165  -0.088 -0.1306  0.9933 -0.3132
 6885TIP3    H242291   6.471   4.258   0.000 -0.3410  0.6637  0.2343
 6886TIP3   OH242292   5.580   0.107   3.121 -0.0494 -0.0009 -0.3562
 6886TIP3    H142293   5.518   0.179   3.129 -1.3074 -1.0708 -0.1447
 6886TIP3    H242294   5.590   0.094   3.027 -2.1232 -1.4175 -0.4383
 6887TIP3   OH242295   3.560   4.645   0.905 -0.1041  0.0386  0.0210
 6887TIP3    H142296   3.485   4.594   0.875  0.3238  0.2822 -1.5988
 6887TIP3    H242297   3.549   4.731   0.864 -0.9355  1.4154  2.8719
 6888TIP3   OH242298   5.602   5.519   2.595 -0.2263  0.7307 -0.7059
 6888TIP3    H142299   5.681   5.533   2.648 -0.8585  0.0947  0.4446
 6888TIP3    H242300   5.531   5.517   2.658 -1.0977  0.6951 -1.6726
 6889TIP3   OH242301   2.067   1.806   8.213 -0.1702  0.4801 -0.7194
 6889TIP3    H142302   2.027   1.721   8.230  0.0861  0.0317 -2.1854
 6889TIP3    H242303   2.018   1.840   8.138 -0.4687  1.7830  0.0342
 6890TIP3   OH242304   6.250   3.129   7.951  0.0008  0.1925 -0.9331
 6890TIP3    H142305   6.217   3.040   7.940 -0.0588 -0.2881  2.3109
 6890TIP3    H242306   6.340   3.118   7.982 -0.7572  1.0782  1.8622
 6891TIP3   OH242307   1.560   6.355   2.240  0.4521 -0.3249  0.1747
 6891TIP3    H142308   1.501   6.430   2.232 -0.8978 -1.4807 -1.0859
 6891TIP3    H242309   1.623   6.382   2.307 -0.0575  1.8815 -0.1517
 6892TIP3   OH242310   1.534   6.779   2.324  0.3755  0.1241  0.1440
 6892TIP3    H142311   1.497   6.692   2.307  2.6812 -0.9164 -0.0317
 6892TIP3    H242312   1.539   6.819   2.237 -0.6424  0.4283  0.2169
 6893TIP3   OH242313   6.637   1.696   1.893 -0.0226  0.1643  0.1918
 6893TIP3    H142314   6.580   1.760   1.937  0.0351  1.4482 -1.5102
 6893TIP3    H242315   6.718   1.744   1.876  0.9466 -1.1139  0.9825
 6894TIP3   OH242316   1.914   0.837   1.692 -0.0920  0.0180  0.3717
 6894TIP3    H142317   1.899   0.882   1.775 -1.2246  0.8219 -0.2350
 6894TIP3    H242318   1.885   0.747   1.708 -0.6743  0.2653  0.7331
 6895TIP3   OH242319   1.528   2.393   0.823  0.1424  0.3030 -0.0453
 6895TIP3    H142320   1.473   2.466   0.794  0.4409  0.2406 -0.7967
 6895TIP3    H242321   1.605   2.435   0.863 -1.4218  0.4326  3.1359
 6896TIP3   OH242322   0.524   0.543   8.672  0.4512  0.1596 -0.5414
 6896TIP3    H142323   0.510   0.568   8.581 -2.1742 -2.0682 -0.8772
 6896TIP3    H242324   0.592   0.475   8.669  2.9193  2.4421 -0.3197
 6897TIP3   OH242325   1.078   6.522   2.314 -0.4444 -0.2772  0.0278
 6897TIP3    H142326   1.076   6.617   2.303  1.9585 -0.0223  1.0538
 6897TIP3    H242327   1.027   6.506   2.393  1.6971  0.6112  1.6972
 6898TIP3   OH242328   4.643   5.006   8.052  0.5287  0.3726 -0.0700
 6898TIP3    H142329   4.663   5.096   8.027  2.6846  0.2065  0.8589
 6898TIP3    H242330   4.588   5.015   8.130  1.3260  0.9224  0.4510
 6899TIP3   OH242331   5.084   2.089   1.537 -0.3145 -0.2395 -0.0954
 6899TIP3    H142332   4.990   2.094   1.521 -0.0355 -0.4776 -2.0657
 6899TIP3    H242333   5.124   2.123   1.456  1.2829 -0.7631  0.4395
 6900TIP3   OH242334   4.734   0.878   2.319  0.4645  0.2581 -0.3428
 6900TIP3    H142335   4.704   0.917   2.400 -0.7518 -1.3922  0.0539
 6900TIP3    H242336   4.658   0.879   2.261  0.2260 -1.8365 -0.1552
 6901TIP3   OH242337   3.950   5.542   0.334 -0.4685  0.2557 -0.4872
 6901TIP3    H142338   3.956   5.452   0.364 -1.6819  0.4071  0.2561
 6901TIP3    H242339   4.040   5.574   0.335 -0.1230 -0.7155 -0.0361
 6902TIP3   OH242340   3.038   4.154   0.577 -0.5062  0.0779  0.4505
 6902TIP3    H142341   2.961   4.202   0.607 -2.2314 -2.0982 -0.2092
 6902TIP3    H242342   3.019   4.063   0.597  1.8982 -0.5666  0.1707
 6903TIP3   OH242343   0.560   1.451   1.825 -0.0486  0.4413  0.3411
 6903TIP3    H142344   0.655   1.454   1.818  0.0987 -1.8041  0.8816
 6903TIP3    H242345   0.541   1.497   1.907  0.8337 -1.4814  1.6829
 6904TIP3   OH242346   1.224   3.772   1.059 -0.1248  0.4368  0.1865
 6904TIP3    H142347   1.269   3.741   0.980 -0.0560  0.3878  0.2457
 6904TIP3    H242348   1.293   3.785   1.123 -0.0814  1.2642 -0.0139
 6905TIP3   OH242349   2.072   3.336   3.113 -0.2706 -0.5244  0.5468
 6905TIP3    H142350   2.109   3.308   3.029 -1.5883  0.9051 -0.5786
 6905TIP3    H242351   2.001   3.274   3.130 -1.3113  0.3530 -0.4614
 6906TIP3   OH242352   4.562   3.061   7.942  0.3376  0.2071 -0.6404
 6906TIP3    H142353   4.566   2.981   7.889  1.6239  0.0933 -0.4038
 6906TIP3    H242354   4.566   3.132   7.878  1.6569  0.0683 -0.7515
 6907TIP3   OH242355   3.128   2.662   2.423 -0.0488 -0.6057 -0.0560
 6907TIP3    H142356   3.218   2.630   2.417  0.8581  1.9359 -1.9050
 6907TIP3    H242357   3.076   2.599   2.373  0.5113 -2.4763  1.6144
 6908TIP3   OH242358   5.653   5.329   2.980 -0.1408 -0.1518 -0.0832
 6908TIP3    H142359   5.588   5.289   3.037 -2.2773  1.6513 -1.1205
 6908TIP3    H242360   5.639   5.288   2.894 -0.0345  0.3529 -0.3469
 6909TIP3   OH242361   4.595   3.402   1.412 -0.2145 -0.1087 -0.0112
 6909TIP3    H142362   4.523   3.352   1.452 -0.5768 -0.2221 -0.7722
 6909TIP3    H242363   4.646   3.435   1.486 -0.8811 -0.2816  0.5359
 6910TIP3   OH242364   5.532   5.666   8.495  0.8031 -0.0969  0.1612
 6910TIP3    H142365   5.606   5.678   8.435 -0.4755  2.1537 -1.1074
 6910TIP3    H242366   5.483   5.748   8.489 -1.8234 -1.5090  0.9268
 6911TIP3   OH242367   6.734   3.433   0.980  0.1998  0.4934  0.1392
 6911TIP3    H142368   6.798   3.496   0.946  0.3093  0.3936  0.1590
 6911TIP3    H242369   6.672   3.422   0.908  0.2276  0.5590  0.1040
 6912TIP3   OH242370   2.372   3.104   2.893  0.0272 -0.1670  0.3146
 6912TIP3    H142371   2.435   3.041   2.858  0.8218  0.8131 -0.0429
 6912TIP3    H242372   2.391   3.186   2.848 -0.4131  0.5679  1.4066
 6913TIP3   OH242373   1.014   2.240   6.349  0.1485  0.4174  0.0970
 6913TIP3    H142374   0.948   2.171   6.346 -0.6944  1.1628  0.6311
 6913TIP3    H242375   1.092   2.198   6.384  0.0054 -0.5171 -0.6852
 6914TIP3   OH242376   1.530   0.593   0.006  0.8000 -0.0843 -0.1131
 6914TIP3    H142377   1.503   0.507  -0.026 -0.0972 -0.9223  2.6478
 6914TIP3    H242378   1.583   0.575   0.083 -0.0702  1.8359  1.0232
 6915TIP3   OH242379   1.724   3.456   1.687 -0.1033  0.1835 -0.4183
 6915TIP3    H142380   1.765   3.489   1.606  0.1719  1.0462  0.0599
 6915TIP3    H242381   1.692   3.535   1.731  1.4217 -0.0585  1.2304
 6916TIP3   OH242382   5.987   4.035   8.457  0.2613  0.3617 -0.1461
 6916TIP3    H142383   6.061   4.017   8.515  1.2933 -0.4520 -1.6295
 6916TIP3    H242384   6.021   4.097   8.393  0.0515 -0.8708 -1.5102
 6917TIP3   OH242385   5.177   1.181   1.951 -0.0491 -0.1342 -0.0323
 6917TIP3    H142386   5.198   1.109   1.891 -1.1189 -0.2223 -0.3312
 6917TIP3    H242387   5.161   1.138   2.035 -0.7316 -0.2673 -0.2212
 6918TIP3   OH242388   0.101   0.674   2.295 -0.2739  0.6047  0.6791
 6918TIP3    H142389   0.154   0.594   2.293 -2.2211 -0.7635  1.2528
 6918TIP3    H242390   0.132   0.720   2.373  1.6287  1.0252 -0.2478
 6919TIP3   OH242391   0.801   2.665   7.827  0.0374  0.5966  0.3309
 6919TIP3    H142392   0.773   2.675   7.736  0.5787 -1.0742 -0.0608
 6919TIP3    H242393   0.754   2.734   7.875 -1.3295  0.6254 -0.9934
 6920TIP3   OH242394   3.207   6.322   0.508 -0.0940  0.1702 -0.2636
 6920TIP3    H142395   3.203   6.293   0.417 -1.6643 -0.0375 -0.1537
 6920TIP3    H242396   3.168   6.410   0.508  0.9397  0.6487  0.0446
 6921TIP3   OH242397   4.037   5.672   7.923 -0.2404  0.4809  0.6633
 6921TIP3    H142398   4.119   5.653   7.878 -0.6036  0.5763 -0.0494
 6921TIP3    H242399   4.021   5.596   7.979  1.3808  1.3121  2.4082
 6922TIP3   OH242400   3.222   4.450   1.374 -0.6141 -0.5621  0.1021
 6922TIP3    H142401   3.260   4.363   1.380  0.6641 -0.0618 -0.4085
 6922TIP3    H242402   3.146   4.447   1.432 -0.1064 -1.7584  0.7380
 6923TIP3   OH242403   4.997   2.491   8.658  0.6570  0.4014  0.6153
 6923TIP3    H142404   4.934   2.540   8.605 -1.5736 -0.0908  2.6594
 6923TIP3    H242405   5.039   2.557   8.713  0.5573  0.4881  0.5865
 6924TIP3   OH242406   3.800   1.450   8.779  0.3885 -0.4322  0.1272
 6924TIP3    H142407   3.792   1.362   8.817 -1.9485 -1.0376 -1.4889
 6924TIP3    H242408   3.843   1.436   8.694  0.1436 -0.0015 -0.0713
 6925TIP3   OH242409   6.190   5.704   0.709  0.6881 -0.1039  0.2117
 6925TIP3    H142410   6.195   5.798   0.691 -2.2276 -0.1340 -1.4002
 6925TIP3    H242411   6.137   5.697   0.788  0.5365 -0.4182  0.0849
 6926TIP3   OH242412   5.476   2.315   8.336  0.0297 -0.3657 -0.2636
 6926TIP3    H142413   5.427   2.241   8.300  1.6113 -0.8601 -1.5465
 6926TIP3    H242414   5.568   2.288   8.330  0.5420  0.9465  1.0364
 6927TIP3   OH242415   5.003   3.157   1.010 -0.1052  0.6287 -0.1589
 6927TIP3    H142416   5.095   3.157   0.985 -0.4561  0.2503 -1.5262
 6927TIP3    H242417   4.980   3.249   1.022  0.5990  0.6885  0.8373
 6928TIP3   OH242418   6.197   1.364   1.943  0.1897  0.2475  0.6942
 6928TIP3    H142419   6.263   1.433   1.940  0.6651 -0.2349 -0.9631
 6928TIP3    H242420   6.208   1.324   2.029  1.6119  0.6036  0.7017
 6929TIP3   OH242421   5.789   1.934   0.294 -0.0020 -0.5064  0.3379
 6929TIP3    H142422   5.736   1.894   0.363 -1.6368  1.4475  0.3056
 6929TIP3    H242423   5.729   1.994   0.250  2.3323  2.3449  0.7080
 6930TIP3   OH242424   1.297   3.775   2.484 -0.0539  0.0946  0.5877
 6930TIP3    H142425   1.372   3.773   2.543 -0.1805  1.6694  0.8583
 6930TIP3    H242426   1.222   3.794   2.541 -0.4123  0.0713  0.1285
 6931TIP3   OH242427   1.585   3.664   8.506 -0.4346  0.3625  0.0484
 6931TIP3    H142428   1.506   3.625   8.543  0.1320  0.4668  1.4308
 6931TIP3    H242429   1.651   3.595   8.512  0.3067  1.1488  1.5605
 6932TIP3   OH242430   5.167   6.775   2.331  0.0872 -0.1081  0.5673
 6932TIP3    H142431   5.082   6.734   2.314  0.5384 -0.7514 -0.1265
 6932TIP3    H242432   5.230   6.722   2.284  0.8554  0.5344  0.8514
 6933TIP3   OH242433   5.790   1.265   0.679 -0.4280 -0.0220  0.1286
 6933TIP3    H142434   5.814   1.187   0.729 -0.4280  0.9249  1.6692
 6933TIP3    H242435   5.865   1.281   0.622  1.0850  0.7239  2.1911
 6934TIP3   OH242436   2.114   1.236   0.165 -0.0908 -0.5423  0.5194
 6934TIP3    H142437   2.196   1.286   0.169 -0.6052  0.2878  1.0891
 6934TIP3    H242438   2.140   1.145   0.176  0.8965 -0.4457 -0.6961
 6935TIP3   OH242439   1.660   4.616   0.367  0.0906 -0.2314 -0.1105
 6935TIP3    H142440   1.642   4.661   0.285 -1.0778  0.4062  0.4687
 6935TIP3    H242441   1.574   4.603   0.407  0.6430 -0.3737  1.0912
 6936TIP3   OH242442   5.624   2.157   7.600 -0.3768  0.3409 -0.1182
 6936TIP3    H142443   5.716   2.133   7.610  0.5500  3.9897  1.9832
 6936TIP3    H242444   5.580   2.113   7.673 -0.2794 -1.0655 -0.8770
 6937TIP3   OH242445   6.538   3.483   7.454 -0.0684  0.1531  0.5125
 6937TIP3    H142446   6.570   3.566   7.417  0.4663 -0.3638 -0.2208
 6937TIP3    H242447   6.558   3.418   7.386  0.5828 -0.7641  1.5567
 6938TIP3   OH242448   4.494   3.677   8.142  0.4281  0.0610 -0.6949
 6938TIP3    H142449   4.518   3.769   8.153  0.8610 -0.0516 -0.6696
 6938TIP3    H242450   4.425   3.678   8.075 -0.5145  0.5242  0.2458
 6939TIP3   OH242451   1.690   0.219   8.536  0.0845  0.1167  0.0760
 6939TIP3    H142452   1.709   0.129   8.563 -1.9980 -0.6697 -0.8625
 6939TIP3    H242453   1.773   0.252   8.503  0.4965 -2.1833 -1.4544
 6940TIP3   OH242454   5.877   2.950   0.978 -0.1379  0.4048 -0.3229
 6940TIP3    H142455   5.905   3.008   1.049 -0.5913  0.9732 -0.6031
 6940TIP3    H242456   5.948   2.955   0.914 -0.0170  0.3793 -0.1912
 6941TIP3   OH242457   2.114   2.684   0.565 -0.2552 -0.4053 -0.1889
 6941TIP3    H142458   2.150   2.720   0.485  1.8303  0.1182  0.9223
 6941TIP3    H242459   2.158   2.600   0.577  0.1180 -0.0799  0.8390
 6942TIP3   OH242460   1.275   2.092   2.212  0.3549 -0.1591 -0.2911
 6942TIP3    H142461   1.281   2.054   2.125  1.4269 -2.1010  0.5811
 6942TIP3    H242462   1.211   2.037   2.257  0.4042  0.3396  0.3985
 6943TIP3   OH242463   1.636   3.843   7.373  0.1918 -1.0521  0.2186
 6943TIP3    H142464   1.661   3.801   7.455  2.9469 -1.3474 -0.6716
 6943TIP3    H242465   1.703   3.910   7.359 -1.0349 -0.0369 -1.0961
 6944TIP3   OH242466   4.291   4.308   0.570  0.0014  0.2261 -0.3801
 6944TIP3    H142467   4.328   4.396   0.565 -2.1605  1.1355 -2.0765
 6944TIP3    H242468   4.227   4.305   0.499 -1.9739 -1.7622  1.3380
 6945TIP3   OH242469   3.353   1.478   7.814  0.1273 -0.2848 -0.3105
 6945TIP3    H142470   3.303   1.414   7.765 -0.7161 -1.0302  1.4228
 6945TIP3    H242471   3.398   1.427   7.882  0.4229  0.7902  0.3378
 6946TIP3   OH242472   4.497   0.114   8.158  0.1608 -0.3695  0.5054
 6946TIP3    H142473   4.475   0.050   8.225  2.0239 -0.4599  1.0829
 6946TIP3    H242474   4.480   0.199   8.199  0.8063 -0.4359  0.9225
 6947TIP3   OH242475   0.064   3.576   7.525  0.3327  0.0093  0.2659
 6947TIP3    H142476  -0.009   3.595   7.465 -0.7230 -1.1184  1.1477
 6947TIP3    H242477   0.142   3.589   7.471 -0.5313  0.3420 -0.9721
 6948TIP3   OH242478   0.843   1.333   0.373 -0.1024  0.7395 -0.0884
 6948TIP3    H142479   0.783   1.400   0.406 -0.8775  0.1039 -0.1580
 6948TIP3    H242480   0.802   1.303   0.291 -0.3204 -0.5201  0.4539
 6949TIP3   OH242481   4.880   2.387   0.718 -0.1527 -0.2515  0.2293
 6949TIP3    H142482   4.816   2.319   0.699 -1.0695  0.6236  0.0836
 6949TIP3    H242483   4.837   2.443   0.782  1.1969 -0.6795  1.5891
 6950TIP3   OH242484   2.056   5.345   0.465 -0.2385  0.5975 -0.1947
 6950TIP3    H142485   2.013   5.282   0.408  0.0198  1.4490 -1.3823
 6950TIP3    H242486   2.066   5.300   0.548 -1.8394 -0.2259 -0.4112
 6951TIP3   OH242487   5.325   4.291   0.395 -0.0822 -1.0547 -0.1032
 6951TIP3    H142488   5.284   4.263   0.476  0.4617 -0.6777  0.3074
 6951TIP3    H242489   5.291   4.379   0.380 -1.1982 -1.5967 -0.9923
 6952TIP3   OH242490   0.993   2.806   0.606 -0.1002 -0.5634  0.5853
 6952TIP3    H142491   0.970   2.873   0.542 -3.4291 -1.6642  0.4375
 6952TIP3    H242492   1.033   2.736   0.554 -0.8133 -0.5748  0.0431
 6953TIP3   OH242493   3.274   3.405   1.684  0.0337 -0.7202  0.0887
 6953TIP3    H142494   3.316   3.406   1.770 -0.5250  0.3154  0.3672
 6953TIP3    H242495   3.187   3.368   1.700  0.4718 -1.9755 -0.3198
 6954TIP3   OH242496   1.386   3.922   0.266 -0.0544 -0.0945 -0.1592
 6954TIP3    H142497   1.472   3.882   0.252 -0.5677 -1.3529  0.1484
 6954TIP3    H242498   1.375   3.923   0.361 -0.3321  0.1667 -0.1920
 6955TIP3   OH242499   3.154   6.667   0.472  0.0469 -0.0073 -0.1680
 6955TIP3    H142500   3.107   6.749   0.487 -1.0064  0.2650 -3.9316
 6955TIP3    H242501   3.105   6.624   0.401  2.9510 -1.8547 -1.2338
 6956TIP3   OH242502   4.543   3.991   0.041 -1.0985 -0.2443 -0.2041
 6956TIP3    H142503   4.615   3.940   0.077 -1.5237 -0.8407 -0.1809
 6956TIP3    H242504   4.538   4.069   0.097 -0.6293 -0.3193 -0.0599
 6957TIP3   OH242505   1.759   0.169   7.236 -0.2443  0.1169  0.2228
 6957TIP3    H142506   1.696   0.126   7.179 -1.2506  1.1070  0.5438
 6957TIP3    H242507   1.841   0.122   7.222 -0.7067 -0.2855 -1.2910
 6958TIP3   OH242508   1.383   3.798   2.069 -0.4405  0.2798  0.2340
 6958TIP3    H142509   1.388   3.742   2.147 -1.3917  0.1095  0.1863
 6958TIP3    H242510   1.295   3.835   2.072 -0.7047 -0.2218 -1.1105
 6959TIP3   OH242511   2.962   3.643   8.416 -0.1747  0.2656 -0.0245
 6959TIP3    H142512   2.918   3.727   8.406 -1.4987 -0.5851 -1.6915
 6959TIP3    H242513   2.897   3.586   8.457  0.6123 -0.0609  0.8150
 6960TIP3   OH242514   4.208   1.981   8.163 -0.2417  0.2476  0.0096
 6960TIP3    H142515   4.277   1.979   8.096 -0.3861 -1.1116 -0.1207
 6960TIP3    H242516   4.181   2.073   8.166  1.6747  0.8525  0.1808
 6961TIP3   OH242517   5.702   2.336   0.409  0.0374 -0.3918 -0.0912
 6961TIP3    H142518   5.632   2.388   0.369 -0.4696 -0.3558  0.8318
 6961TIP3    H242519   5.689   2.248   0.376 -2.2720 -1.0663  2.2996
 6962TIP3   OH242520   4.441   2.766   1.843  0.0633 -0.6469  0.2527
 6962TIP3    H142521   4.377   2.810   1.787 -1.2920 -1.3070  1.2393
 6962TIP3    H242522   4.437   2.674   1.816 -0.8894 -1.0392  1.6536
 6963TIP3   OH242523   0.560   1.749   2.354  0.2278  0.4471  0.7595
 6963TIP3    H142524   0.600   1.827   2.317 -0.2215  0.5966  0.5810
 6963TIP3    H242525   0.612   1.729   2.431 -0.4306  1.6810  1.5488
 6964TIP3   OH242526   6.278   0.758   8.594  0.1918  0.0772  0.4664
 6964TIP3    H142527   6.309   0.675   8.559  0.5298  0.6281 -0.5840
 6964TIP3    H242528   6.312   0.760   8.684  0.6926 -0.6443  0.3051
 6965TIP3   OH242529   2.266   3.294   2.688 -0.3106 -0.5054 -0.1762
 6965TIP3    H142530   2.228   3.207   2.676 -1.4678  0.1503 -1.5097
 6965TIP3    H242531   2.346   3.293   2.636  0.8072 -1.4066  1.4632
 6966TIP3   OH242532   0.464   0.461   7.772 -0.1441 -0.1020 -0.5915
 6966TIP3    H142533   0.429   0.377   7.742  1.1007 -0.0179 -2.4418
 6966TIP3    H242534   0.391   0.503   7.817 -1.8425 -0.7660 -2.5569
 6967TIP3   OH242535   5.757   1.874   7.439  0.0080  0.8739 -0.3399
 6967TIP3    H142536   5.841   1.828   7.442 -0.1183  0.6508 -0.2046
 6967TIP3    H242537   5.748   1.914   7.525 -0.0407  0.8664 -0.3409
 6968TIP3   OH242538   1.866   2.418   8.574 -0.0342 -1.1347 -0.3327
 6968TIP3    H142539   1.808   2.438   8.500  0.0590  0.7089  0.0339
 6968TIP3    H242540   1.952   2.451   8.547  0.7493 -3.2107 -0.5864
 6969TIP3   OH242541   1.859   5.091   2.257  0.1470 -0.2472  0.8055
 6969TIP3    H142542   1.866   5.021   2.322 -2.3275 -0.5529  0.8706
 6969TIP3    H242543   1.770   5.082   2.222  0.4847  1.5767 -0.7089
 6970TIP3   OH242544   3.044   3.246   1.727 -0.0061  0.5446  0.1215
 6970TIP3    H142545   3.027   3.171   1.784 -0.9309  0.1279 -0.6830
 6970TIP3    H242546   3.052   3.209   1.640 -0.8196  1.4054 -0.3361
 6971TIP3   OH242547   5.656   4.231   2.212 -0.7102  0.2909  0.1835
 6971TIP3    H142548   5.612   4.210   2.129  0.1942  0.7832 -0.4276
 6971TIP3    H242549   5.588   4.273   2.264 -1.6153 -1.0345  0.1480
 6972TIP3   OH242550   5.549   3.787   8.114  0.2008  0.0651 -0.4021
 6972TIP3    H142551   5.461   3.814   8.138  0.1557 -1.3543  1.2444
 6972TIP3    H242552   5.558   3.699   8.151  2.2422  0.1114 -0.6771
 6973TIP3   OH242553   6.170   4.509   0.284  0.0166 -0.2903  0.5425
 6973TIP3    H142554   6.250   4.540   0.326  0.7113  0.6870 -1.4392
 6973TIP3    H242555   6.187   4.416   0.266  1.8570  0.4688 -2.2426
 6974TIP3   OH242556   5.619   2.399   8.064  0.2338  0.3552 -0.3846
 6974TIP3    H142557   5.538   2.349   8.052  0.0469  0.2265  1.2425
 6974TIP3    H242558   5.590   2.490   8.068  0.1732  0.3129  0.1510
 6975TIP3   OH242559   1.788   3.108   1.305 -0.1269 -0.3514 -0.2932
 6975TIP3    H142560   1.826   3.024   1.331  1.6596  0.4427 -0.2389
 6975TIP3    H242561   1.839   3.135   1.229  0.0880  1.2217  0.3822
 6976TIP3   OH242562   3.880   6.655   1.668  0.1917  0.2192  0.2920
 6976TIP3    H142563   3.854   6.658   1.760 -0.9782  0.3191 -0.0324
 6976TIP3    H242564   3.959   6.601   1.668  2.1503  2.8225  1.7857
 6977TIP3   OH242565   4.041   0.611   0.862 -0.0007  0.2875 -0.3825
 6977TIP3    H142566   3.976   0.664   0.907 -0.5489 -1.1092  0.5482
 6977TIP3    H242567   4.073   0.667   0.791  0.5323  2.4049  1.4080
 6978TIP3   OH242568   6.830   5.466   8.281 -1.2124 -0.6360 -0.4092
 6978TIP3    H142569   6.809   5.555   8.310 -0.9438 -1.3046  2.0143
 6978TIP3    H242570   6.861   5.478   8.191 -2.3087  1.5609 -0.5821
 6979TIP3   OH242571   4.398   6.007   1.174  0.4935  0.3995 -0.1814
 6979TIP3    H142572   4.493   6.017   1.185  0.4306  0.7817  0.0406
 6979TIP3    H242573   4.367   5.973   1.258  0.4725 -0.0196 -0.3567
 6980TIP3   OH242574   1.004   4.146   2.166  0.1245 -0.1627  0.4203
 6980TIP3    H142575   0.953   4.225   2.182  1.5003  0.4924  1.9095
 6980TIP3    H242576   0.947   4.074   2.194 -0.0513  0.5481  1.9977
 6981TIP3   OH242577   5.533   0.828   1.137  0.5593 -0.1852 -0.4630
 6981TIP3    H142578   5.532   0.847   1.231  1.8224 -1.5836 -0.1281
 6981TIP3    H242579   5.489   0.903   1.097  0.9540  0.9614  1.1472
 6982TIP3   OH242580   0.852   2.559   0.667  0.2991 -0.1378  0.3287
 6982TIP3    H142581   0.843   2.551   0.572 -1.8973  0.1319  0.4654
 6982TIP3    H242582   0.809   2.481   0.702 -0.1939  0.4724  1.1234
 6983TIP3   OH242583   5.013   5.242   1.508  0.4965 -0.4365  0.2150
 6983TIP3    H142584   5.070   5.295   1.563  1.2930 -2.2069  1.1977
 6983TIP3    H242585   4.980   5.173   1.566 -2.2643  0.1800 -0.4527
 6984TIP3   OH242586   4.670   4.414   0.652  0.1697  0.7305  0.0369
 6984TIP3    H142587   4.765   4.412   0.665  0.3208  3.4438 -0.2182
 6984TIP3    H242588   4.635   4.452   0.732 -0.6520  0.3708 -0.1403
 6985TIP3   OH242589   6.547   4.043   8.100 -0.0179  0.1273 -0.0749
 6985TIP3    H142590   6.634   4.022   8.067  0.1588  0.1490  0.3756
 6985TIP3    H242591   6.506   4.094   8.029  0.4293  0.3475 -0.1780
 6986TIP3   OH242592   1.745   5.417   7.875 -0.2810 -0.3197 -0.3678
 6986TIP3    H142593   1.707   5.331   7.861 -0.9683  0.0293 -0.7166
 6986TIP3    H242594   1.829   5.414   7.830  0.0965 -1.0919  0.3758
 6987TIP3   OH242595   2.796   6.477   2.087 -0.0541 -0.7989 -0.9406
 6987TIP3    H142596   2.779   6.529   2.166 -0.5582 -0.5940 -1.1805
 6987TIP3    H242597   2.713   6.434   2.068 -0.1535 -0.2591 -1.7905
 6988TIP3   OH242598   0.897   0.696   6.805 -0.7317 -0.1947  0.3560
 6988TIP3    H142599   0.827   0.635   6.827 -1.9120  0.7195 -0.7154
 6988TIP3    H242600   0.872   0.778   6.847  0.8555 -0.3873  1.8107
 6989TIP3   OH242601   2.234   2.897   0.997 -0.1014 -0.3258  0.1490
 6989TIP3    H142602   2.197   2.909   0.910  1.2073  0.9430 -0.2602
 6989TIP3    H242603   2.193   2.964   1.050  2.7319  2.3131 -0.7190
 6990TIP3   OH242604   6.088   2.234   1.757 -0.0183 -0.2308  0.4294
 6990TIP3    H142605   6.170   2.194   1.786 -1.2778 -1.6402  2.2256
 6990TIP3    H242606   6.071   2.302   1.822 -0.4978 -0.2540  0.3260
 6991TIP3   OH242607   5.583   6.478   2.352 -0.1145  0.1434  0.1704
 6991TIP3    H142608   5.562   6.396   2.398 -2.1248  0.6812  0.3214
 6991TIP3    H242609   5.607   6.539   2.421  0.8138 -0.1460  0.1115
 6992TIP3   OH242610   6.784   2.925   0.608 -0.0004 -0.6320 -0.5093
 6992TIP3    H142611   6.760   2.943   0.699  1.3896 -1.2062  0.0029
 6992TIP3    H242612   6.745   2.839   0.590 -2.0507  0.3696 -1.1868
 6993TIP3   OH242613   6.838   4.579   8.399  0.5559  0.1430  0.0162
 6993TIP3    H142614   6.865   4.488   8.388  1.1369  0.3173 -0.0353
 6993TIP3    H242615   6.876   4.625   8.325 -1.9908 -0.0179 -1.4860
 6994TIP3   OH242616   0.262   5.162   0.958 -0.0809 -0.2024  0.1026
 6994TIP3    H142617   0.266   5.078   0.913 -2.0225 -0.5775  0.5135
 6994TIP3    H242618   0.243   5.140   1.049 -0.4503  0.6693  0.2516
 6995TIP3   OH242619   0.649   2.821   8.020 -0.0325 -0.5023  0.6692
 6995TIP3    H142620   0.586   2.882   7.981  0.7352 -0.1601 -0.0614
 6995TIP3    H242621   0.697   2.874   8.083  1.4543  0.0150 -0.8129
 6996TIP3   OH242622   3.159   4.577   7.858 -1.1073 -0.5472 -0.2202
 6996TIP3    H142623   3.094   4.517   7.892  0.6258 -2.5858 -0.3068
 6996TIP3    H242624   3.150   4.572   7.763 -1.5517  0.0524 -0.2173
 6997TIP3   OH242625   4.338   4.376   1.140  0.6836  0.3206  0.0677
 6997TIP3    H142626   4.333   4.402   1.048 -0.9053  1.2508  0.3818
 6997TIP3    H242627   4.430   4.352   1.153  1.2620  1.5861 -1.3747
 6998TIP3   OH242628   5.835   2.687   1.866  0.2071  0.4627 -0.0755
 6998TIP3    H142629   5.773   2.759   1.859  0.7915  0.8758 -1.1952
 6998TIP3    H242630   5.852   2.678   1.960  0.7536  2.3279  0.0393
 6999TIP3   OH242631   5.003   3.141   7.578  0.3360  0.3298  0.5486
 6999TIP3    H142632   5.031   3.155   7.488  1.9434 -0.4999  0.8726
 6999TIP3    H242633   4.964   3.053   7.577 -1.2132  0.9934  0.3484
 7000TIP3   OH242634   2.438   2.329   7.723 -0.2700 -0.2406 -0.4538
 7000TIP3    H142635   2.435   2.371   7.637  1.1061 -0.3476 -0.5841
 7000TIP3    H242636   2.453   2.236   7.705  0.1936 -0.2389 -0.1033
 7001TIP3   OH242637   6.391   1.406   2.633 -0.1788 -0.4489  0.1031
 7001TIP3    H142638   6.428   1.455   2.560  0.1263 -2.0317 -0.8292
 7001TIP3    H242639   6.463   1.351   2.664 -0.6317 -0.6219  0.8762
 7002TIP3   OH242640   3.950   5.559   8.184 -0.4604  0.5567 -0.3254
 7002TIP3    H142641   3.932   5.465   8.184  2.1784 -0.0513 -1.8625
 7002TIP3    H242642   3.892   5.595   8.252 -0.4287 -2.3801  1.4073
 7003TIP3   OH242643   1.279   1.140   2.596  0.5401 -0.8067  0.2542
 7003TIP3    H142644   1.208   1.137   2.660  0.7519 -0.0868  0.5266
 7003TIP3    H242645   1.336   1.211   2.626  0.3761 -0.1083 -1.0104
 7004TIP3   OH242646   5.121   1.226   1.224 -0.8015  0.5963 -1.0320
 7004TIP3    H142647   5.146   1.308   1.266 -2.9475  0.3068  1.0625
 7004TIP3    H242648   5.034   1.243   1.188 -2.4515 -1.3284  1.6577
 7005TIP3   OH242649   0.641   4.930   7.840 -0.4063  0.3162 -0.0294
 7005TIP3    H142650   0.545   4.931   7.845 -0.5654 -0.1058 -2.0478
 7005TIP3    H242651   0.669   4.885   7.920 -2.0697 -2.3166 -0.8165
 7006TIP3   OH242652   2.195   3.677   0.533 -0.3425 -0.2188  0.1706
 7006TIP3    H142653   2.243   3.606   0.491 -1.1066 -1.5035  1.3610
 7006TIP3    H242654   2.106   3.670   0.497 -0.7492 -0.7113  1.2101
 7007TIP3   OH242655   6.114   0.164   1.283  0.5261  0.1310  0.2662
 7007TIP3    H142656   6.188   0.164   1.343  0.6553 -0.8162  0.1249
 7007TIP3    H242657   6.154   0.156   1.196  0.2360 -2.1188  0.2802
 7008TIP3   OH242658   1.915   1.319   2.104  0.1951 -0.1102 -0.0307
 7008TIP3    H142659   1.900   1.377   2.029 -1.1289  0.4538  0.6375
 7008TIP3    H242660   1.842   1.257   2.102 -0.3629  0.4620  1.2752
 7009TIP3   OH242661   2.165   6.386   1.677  0.7455 -0.2541  0.3696
 7009TIP3    H142662   2.203   6.410   1.592  2.2719 -2.7144  0.2372
 7009TIP3    H242663   2.231   6.328   1.716 -0.3951 -0.0103  2.7881
 7010TIP3   OH242664   4.530   4.135   0.621 -0.0540  0.0518  0.6180
 7010TIP3    H142665   4.445   4.176   0.603  0.1964  0.4638  0.3528
 7010TIP3    H242666   4.538   4.137   0.716  1.0668  2.9651  0.5571
 7011TIP3   OH242667   5.152   4.326   2.360 -0.0635 -0.2034  0.3515
 7011TIP3    H142668   5.087   4.279   2.309 -0.2377 -0.4830  0.8182
 7011TIP3    H242669   5.227   4.335   2.302  0.1309 -1.4372  0.3960
 7012TIP3   OH242670   1.003   5.644   1.767 -0.2000 -0.2827  0.6077
 7012TIP3    H142671   0.958   5.649   1.851  0.3013  3.0434  0.8093
 7012TIP3    H242672   1.059   5.566   1.774  0.4529  0.3249  3.7167
 7013TIP3   OH242673   5.735   2.955   0.321  0.0046  0.4032  0.1324
 7013TIP3    H142674   5.722   2.933   0.229 -2.5971 -2.1765  0.9876
 7013TIP3    H242675   5.734   3.051   0.323 -2.9071  0.5416 -2.2147
 7014TIP3   OH242676   1.479   4.396   1.467 -0.2066  0.2809  0.5210
 7014TIP3    H142677   1.446   4.483   1.489  1.8469  0.8814  1.4812
 7014TIP3    H242678   1.455   4.342   1.542 -1.0030  0.1395  0.1709
 7015TIP3   OH242679   2.292   4.866   2.126  0.0240 -0.0828 -0.0536
 7015TIP3    H142680   2.325   4.955   2.140  1.1280 -0.3832 -0.6144
 7015TIP3    H242681   2.230   4.851   2.198 -1.0616  1.5441 -0.5870
 7016TIP3   OH242682   3.863   1.581   0.504  0.8756  0.4554 -0.0368
 7016TIP3    H142683   3.815   1.663   0.520 -2.0590 -1.2365  0.4789
 7016TIP3    H242684   3.886   1.585   0.411 -2.1172  0.5241 -0.8600
 7017TIP3   OH242685   4.470   6.483   0.727 -0.3707  0.9850 -0.3324
 7017TIP3    H142686   4.407   6.463   0.796  2.6171 -0.4183  2.2172
 7017TIP3    H242687   4.522   6.556   0.762  2.4456 -0.9930 -0.0940
 7018TIP3   OH242688   2.699   3.250   8.066 -0.2285  0.1977  0.0649
 7018TIP3    H142689   2.724   3.167   8.106 -2.8011 -1.1239 -0.7953
 7018TIP3    H242690   2.748   3.253   7.984  1.2841  0.4989  0.9397
 7019TIP3   OH242691   5.100   0.103   2.568 -0.5360 -0.1555  0.0092
 7019TIP3    H142692   5.157   0.178   2.553  0.4061 -0.4108  2.0371
 7019TIP3    H242693   5.118   0.044   2.494 -1.7253  1.8025 -1.9315
 7020TIP3   OH242694   5.459   6.207   8.583  0.5351  0.2412  0.3912
 7020TIP3    H142695   5.405   6.286   8.583  1.4703  0.9371  1.9125
 7020TIP3    H242696   5.485   6.196   8.674 -1.0926 -2.9499  0.6057
 7021TIP3   OH242697   6.355   1.631   2.210 -0.3897 -0.4410  0.0520
 7021TIP3    H142698   6.347   1.715   2.256 -0.0269 -1.4864  2.1411
 7021TIP3    H242699   6.392   1.572   2.275 -0.0567 -2.0905 -1.5686
 7022TIP3   OH242700   5.751   1.855   1.414  0.2385  0.0621 -0.1391
 7022TIP3    H142701   5.750   1.760   1.426  2.2367  0.1095  0.9530
 7022TIP3    H242702   5.741   1.867   1.319  2.7938 -1.4496 -0.7245
 7023TIP3   OH242703   4.529   2.436   8.106 -0.7762 -0.4126 -0.1020
 7023TIP3    H142704   4.491   2.496   8.043 -1.4065 -0.7769 -0.0820
 7023TIP3    H242705   4.546   2.490   8.184  2.0453  0.5422 -1.2503
 7024TIP3   OH242706   5.020   0.564   0.494 -0.9226 -0.1858 -0.0313
 7024TIP3    H142707   5.040   0.506   0.568  0.4701  0.8876  0.4869
 7024TIP3    H242708   5.105   0.577   0.451 -0.9185  2.3793  0.5884
 7025TIP3   OH242709   0.195   3.425   2.489 -0.2716  0.2528 -0.3947
 7025TIP3    H142710   0.267   3.486   2.471 -0.8502  0.9419 -0.3765
 7025TIP3    H242711   0.132   3.476   2.539 -0.9628 -0.2398 -0.7579
 7026TIP3   OH242712   2.061   6.394   8.536 -0.2855  0.3983  0.6479
 7026TIP3    H142713   2.024   6.394   8.447 -1.3372 -1.6889  1.0338
 7026TIP3    H242714   1.988   6.418   8.592 -0.7042 -2.0260  1.2517
 7027TIP3   OH242715   6.568   5.672   2.175  0.4185 -0.5503 -0.1133
 7027TIP3    H142716   6.653   5.630   2.188  1.2878  0.5767 -1.8800
 7027TIP3    H242717   6.587   5.750   2.124 -1.6436 -0.0362 -0.1660
 7028TIP3   OH242718   3.699   6.684   1.440 -0.4261  0.1728  0.2517
 7028TIP3    H142719   3.784   6.643   1.454 -0.7057 -0.6420 -0.3409
 7028TIP3    H242720   3.708   6.772   1.477 -0.0764 -0.6990  2.3749
 7029TIP3   OH242721   4.797   4.725   0.375 -0.7890  0.1128  0.5122
 7029TIP3    H142722   4.804   4.757   0.465  1.0748  2.3317 -0.3288
 7029TIP3    H242723   4.751   4.794   0.329  1.1483  0.5658 -0.8663
 7030TIP3   OH242724   2.699   4.078   7.387 -0.1477  0.5859  0.2855
 7030TIP3    H142725   2.794   4.090   7.393 -0.0312  0.1826 -0.6671
 7030TIP3    H242726   2.673   4.131   7.312 -0.7040  0.8303  0.6467
 7031TIP3   OH242727   6.240   3.423   0.685  0.6479  0.4838  0.0675
 7031TIP3    H142728   6.147   3.405   0.703  0.4316  0.1633 -1.2356
 7031TIP3    H242729   6.254   3.387   0.597  2.5929 -1.5761  1.1009
 7032TIP3   OH242730   0.389   4.447   2.068 -0.0945 -0.2712 -0.4406
 7032TIP3    H142731   0.476   4.432   2.033 -0.5385  0.0255 -1.7068
 7032TIP3    H242732   0.360   4.361   2.098  1.0756 -0.1689  1.1135
 7033TIP3   OH242733   4.881   2.000   8.077  0.3819  0.3250  0.4314
 7033TIP3    H142734   4.833   1.922   8.102  0.7283  0.0092  0.1233
 7033TIP3    H242735   4.823   2.073   8.100  0.4994  0.0310  1.6855
 7034TIP3   OH242736   3.812   0.674   6.967  0.3450 -0.3313  0.3170
 7034TIP3    H142737   3.908   0.674   6.971  0.4052 -1.2637 -0.8090
 7034TIP3    H242738   3.786   0.731   7.039  1.7109 -1.1906  1.5635
 7035TIP3   OH242739   6.005   0.638   0.148  0.1219  0.0042 -0.1415
 7035TIP3    H142740   5.975   0.724   0.178  1.6656  0.0995  1.2560
 7035TIP3    H242741   6.089   0.656   0.105 -0.0865 -0.6734 -0.8458
 7036TIP3   OH242742   3.759   2.622   8.138 -0.1842  0.5887 -0.2038
 7036TIP3    H142743   3.744   2.545   8.192 -0.4556  0.9659  0.2763
 7036TIP3    H242744   3.688   2.682   8.163 -1.0147  0.3328 -1.8131
 7037TIP3   OH242745   0.458   1.421   7.208 -0.4379 -0.3680  0.2875
 7037TIP3    H142746   0.451   1.513   7.180 -0.8308 -1.1575 -2.5571
 7037TIP3    H242747   0.504   1.425   7.292 -1.1779  2.4683  0.6570
 7038TIP3   OH242748   3.394   3.921   1.667  0.2760  0.3595  0.2531
 7038TIP3    H142749   3.447   3.861   1.721 -0.1438 -0.0772  0.1888
 7038TIP3    H242750   3.328   3.955   1.727 -1.3269 -1.5004 -0.3377
 7039TIP3   OH242751   3.743   6.093   1.314 -0.2436  0.1797  0.5510
 7039TIP3    H142752   3.780   6.071   1.228  1.1476 -1.4723  1.5222
 7039TIP3    H242753   3.819   6.104   1.371 -1.1615 -0.7053  2.0107
 7040TIP3   OH242754   1.858   4.749   0.805  0.8138  0.0053 -0.5505
 7040TIP3    H142755   1.869   4.756   0.900 -0.9746  0.4314 -0.3298
 7040TIP3    H242756   1.769   4.714   0.794  0.7052  0.6871 -2.0765
 7041TIP3   OH242757   4.303   2.480   7.597 -0.1947 -0.0090  0.2485
 7041TIP3    H142758   4.349   2.521   7.525 -0.0801  0.8040  0.7755
 7041TIP3    H242759   4.220   2.527   7.602 -1.1995 -1.5641 -0.8003
 7042TIP3   OH242760   6.415   0.152   1.361 -0.4294 -0.6835  0.7057
 7042TIP3    H142761   6.456   0.090   1.422  1.8619  1.5183  1.5645
 7042TIP3    H242762   6.464   0.142   1.280 -0.1636 -0.1129  0.7948
 7043TIP3   OH242763   6.572   5.562   1.103  0.6815  0.4915  0.1507
 7043TIP3    H142764   6.535   5.501   1.166  0.7202 -0.0942 -0.3752
 7043TIP3    H242765   6.543   5.649   1.132 -0.6371  0.0953  0.0671
 7044TIP3   OH242766   0.433   3.817   3.164 -0.2289 -0.0475  0.2454
 7044TIP3    H142767   0.502   3.882   3.146 -0.3838  0.2825  0.8131
 7044TIP3    H242768   0.477   3.733   3.156 -0.0803  0.1155 -0.7440
 7045TIP3   OH242769   6.413   1.891   1.298 -0.2518 -0.0591  0.0488
 7045TIP3    H142770   6.438   1.804   1.329 -0.8410 -0.2349  0.0512
 7045TIP3    H242771   6.327   1.906   1.339  0.4911  1.1349  1.2284
 7046TIP3   OH242772   6.047   1.736   8.337  0.0940 -0.4840 -0.9495
 7046TIP3    H142773   6.010   1.650   8.359  0.8256 -0.7198 -0.5811
 7046TIP3    H242774   6.094   1.762   8.416 -1.3794  0.9778 -0.4980
 7047TIP3   OH242775   0.466   3.142   1.387  0.0798  0.0743 -0.2600
 7047TIP3    H142776   0.549   3.114   1.348  0.0453  0.0341 -0.3044
 7047TIP3    H242777   0.465   3.237   1.375 -0.2647 -0.0197 -1.0073
 7048TIP3   OH242778   1.656   0.057   1.113 -0.5055  0.4275 -0.0219
 7048TIP3    H142779   1.655   0.107   1.031  0.4994  0.6433  0.0918
 7048TIP3    H242780   1.587  -0.008   1.101 -0.2412  0.3231 -1.1184
 7049TIP3   OH242781   2.772   1.352   1.003 -0.0096 -0.1846 -0.7682
 7049TIP3    H142782   2.821   1.425   0.964 -0.6178  0.4396 -0.4033
 7049TIP3    H242783   2.837   1.303   1.053 -0.0898  1.9944  1.7082
 7050TIP3   OH242784   1.212   1.076   8.785  0.5143 -0.6986  0.6078
 7050TIP3    H142785   1.249   1.013   8.723  0.4466  2.3563 -2.8912
 7050TIP3    H242786   1.259   1.158   8.766 -1.5838  1.0908  2.5861
 7051TIP3   OH242787   2.322   2.904   3.067  0.2626 -0.6139  0.0510
 7051TIP3    H142788   2.299   2.983   3.017 -2.8170 -1.8920 -0.7849
 7051TIP3    H242789   2.418   2.900   3.063  0.5205  2.8351 -0.1694
 7052TIP3   OH242790   0.245   0.801   0.923  0.5392  0.0454 -0.0603
 7052TIP3    H142791   0.247   0.751   0.842 -0.2696  0.6574 -0.4792
 7052TIP3    H242792   0.158   0.783   0.960  0.3888  0.7970 -0.0157
 7053TIP3   OH242793   4.894   0.770   3.209 -0.1797 -0.6862 -0.1513
 7053TIP3    H142794   4.836   0.836   3.247  0.8650  0.4350 -0.4198
 7053TIP3    H242795   4.881   0.692   3.262 -0.1794  0.2596  1.2896
 7054TIP3   OH242796   2.634   6.098   1.296 -0.0286 -0.8205  0.5272
 7054TIP3    H142797   2.729   6.089   1.297  0.0418 -0.1678  0.4228
 7054TIP3    H242798   2.609   6.079   1.206  0.3170  1.7170 -0.1794
 7055TIP3   OH242799   0.058   5.863   2.182  0.1841 -0.3962  0.4079
 7055TIP3    H142800   0.036   5.939   2.127  0.5663  0.3071  1.2139
 7055TIP3    H242801   0.120   5.897   2.246  0.3054 -1.3838  0.8214
 7056TIP3   OH242802   5.065   4.336   7.478 -0.7127 -0.4519 -0.0102
 7056TIP3    H142803   5.045   4.409   7.420 -0.0481  1.6911  2.2692
 7056TIP3    H242804   5.152   4.306   7.450 -0.2305  0.8010  0.0792
 7057TIP3   OH242805   4.376   6.207   0.006 -0.0540  0.1826 -0.3632
 7057TIP3    H142806   4.409   6.287  -0.033 -1.6762  0.9222 -0.2755
 7057TIP3    H242807   4.313   6.236   0.072 -0.6624 -1.1554 -0.3230
 7058TIP3   OH242808   1.586   2.110   2.823 -0.6467 -0.4489 -0.6425
 7058TIP3    H142809   1.631   2.148   2.898 -1.3003 -0.6255 -0.1610
 7058TIP3    H242810   1.527   2.178   2.793  0.0452 -0.1522 -1.3887
 7059TIP3   OH242811   6.101   1.827   7.750 -0.7629  0.0750  0.1836
 7059TIP3    H142812   6.124   1.785   7.833  1.5257  2.2139  0.7448
 7059TIP3    H242813   6.071   1.755   7.695 -1.3320 -1.5731  2.4957
 7060TIP3   OH242814   5.328   0.187   2.015 -0.2199  0.2449 -0.0422
 7060TIP3    H142815   5.403   0.143   2.054  0.2424  0.4126 -0.7225
 7060TIP3    H242816   5.255   0.169   2.075 -0.0096 -1.2811 -0.2077
 7061TIP3   OH242817   6.423   5.935   0.806 -0.1010 -0.3179  0.0790
 7061TIP3    H142818   6.450   6.010   0.753  0.8066 -0.7399 -0.0749
 7061TIP3    H242819   6.503   5.909   0.852 -0.4558 -1.0806  0.2716
 7062TIP3   OH242820   2.680   3.163   2.933  0.4423 -0.1528 -0.0038
 7062TIP3    H142821   2.639   3.200   2.854 -1.2154  1.0311  1.3352
 7062TIP3    H242822   2.771   3.150   2.908  0.1879  1.0836 -1.8246
 7063TIP3   OH242823   2.269   0.504   0.488 -0.0505 -0.2552  0.1489
 7063TIP3    H142824   2.279   0.599   0.482  0.3687 -0.2995  0.1693
 7063TIP3    H242825   2.269   0.486   0.582  1.8955 -0.4877  0.1437
 7064TIP3   OH242826   1.748   6.038   1.051  0.1758  0.6404 -0.4644
 7064TIP3    H142827   1.798   5.964   1.085 -1.0366 -0.2867 -0.6491
 7064TIP3    H242828   1.815   6.099   1.019  1.1943 -1.3554 -2.3918
 7065TIP3   OH242829   2.154   6.735   7.408 -0.3742 -0.2202  0.2714
 7065TIP3    H142830   2.222   6.669   7.394  0.8513  1.2536 -1.0641
 7065TIP3    H242831   2.072   6.688   7.395  0.4563 -1.5525 -0.3529
 7066TIP3   OH242832   4.504   4.017   2.394  0.0901  0.5815  0.5343
 7066TIP3    H142833   4.590   3.977   2.409  0.8650  1.6350 -0.8065
 7066TIP3    H242834   4.459   3.956   2.336  0.6568  0.8855 -0.2382
 7067TIP3   OH242835   4.068   4.074   0.518 -0.2795 -0.2316 -0.3716
 7067TIP3    H142836   4.021   3.994   0.492  1.8009 -2.1014  1.1740
 7067TIP3    H242837   4.123   4.046   0.591 -0.9388  3.1546  1.6421
 7068TIP3   OH242838   1.325   1.606   7.869  0.1738  0.2933  0.0603
 7068TIP3    H142839   1.358   1.546   7.802  1.0861 -0.8251  1.4536
 7068TIP3    H242840   1.388   1.678   7.870  0.5442 -0.0298  0.1908
 7069TIP3   OH242841   6.617   1.649   8.358  0.4457 -0.5738 -0.2421
 7069TIP3    H142842   6.624   1.722   8.420 -2.1458 -0.8995  0.5485
 7069TIP3    H242843   6.601   1.573   8.413 -1.5085 -0.9476 -1.2539
 7070TIP3   OH242844   4.231   4.179   2.226  0.7204  0.2977 -0.3554
 7070TIP3    H142845   4.245   4.274   2.217 -1.3474  0.5489 -1.4824
 7070TIP3    H242846   4.307   4.140   2.182  0.4952  1.4683 -1.8765
 7071TIP3   OH242847   2.158   4.230   2.045  0.2624  0.0713 -0.4060
 7071TIP3    H142848   2.149   4.187   1.960  0.1053 -0.5188 -0.0930
 7071TIP3    H242849   2.098   4.182   2.103  0.1242  0.6742 -0.0386
 7072TIP3   OH242850   4.055   4.892   2.732  0.6485 -0.1497 -0.1385
 7072TIP3    H142851   4.012   4.810   2.706 -2.0625  0.3597  2.3041
 7072TIP3    H242852   4.017   4.959   2.675  1.8605 -0.3034 -1.1975
 7073TIP3   OH242853   3.614   2.496   7.881 -0.0129 -0.2007  0.5501
 7073TIP3    H142854   3.695   2.494   7.830 -0.8301  1.7191 -0.9726
 7073TIP3    H242855   3.626   2.568   7.942 -1.6969  2.5331 -2.0135
 7074TIP3   OH242856   3.955   3.501   8.449 -0.7051  0.0746  0.0507
 7074TIP3    H142857   3.952   3.532   8.540  1.0093 -1.7836  0.8460
 7074TIP3    H242858   3.901   3.422   8.450 -0.0426 -0.3957 -0.3076
 7075TIP3   OH242859   1.395   0.196   1.240  0.2431  0.1463 -0.1958
 7075TIP3    H142860   1.476   0.183   1.289  0.6239  1.5763 -0.4039
 7075TIP3    H242861   1.332   0.137   1.281  0.2542  1.9754  2.6965
 7076TIP3   OH242862   3.690   4.407   0.900  0.1059 -0.1691 -0.2405
 7076TIP3    H142863   3.638   4.377   0.974 -0.3047  1.4949  0.1636
 7076TIP3    H242864   3.656   4.493   0.878 -0.2260 -0.8441 -2.7917
 7077TIP3   OH242865   5.676   1.903   1.151  0.4460  0.1725 -0.1493
 7077TIP3    H142866   5.664   1.834   1.085 -0.9040  0.2722 -0.0268
 7077TIP3    H242867   5.605   1.965   1.134  1.7253  1.6326 -0.3457
 7078TIP3   OH242868   1.193   1.449   0.600 -0.0291 -0.3131 -0.4778
 7078TIP3    H142869   1.287   1.463   0.587  0.3565 -0.7610  1.5552
 7078TIP3    H242870   1.162   1.419   0.514  1.8769 -1.1397 -0.9385
 7079TIP3   OH242871   3.397   0.046   1.177 -0.0835 -0.2924 -0.0168
 7079TIP3    H142872   3.466  -0.002   1.130  0.3079 -0.4633  0.7162
 7079TIP3    H242873   3.382  -0.005   1.256  0.2958  0.7625  0.7570
 7080TIP3   OH242874   6.270   1.851   3.089 -0.3358  0.1570 -0.9479
 7080TIP3    H142875   6.240   1.910   3.020  0.7459 -0.4178 -1.9316
 7080TIP3    H242876   6.352   1.889   3.120 -1.7128  1.4512  1.3921
 7081TIP3   OH242877   6.145   2.860   8.109 -0.0179 -0.5573 -0.2253
 7081TIP3    H142878   6.160   2.935   8.167  0.3350 -0.4437 -0.4560
 7081TIP3    H242879   6.062   2.823   8.138  0.0205 -0.3366  0.1720
 7082TIP3   OH242880   1.098   1.410   2.892 -0.1274  0.2350 -0.0129
 7082TIP3    H142881   1.008   1.380   2.895 -0.0041 -0.5257 -2.2828
 7082TIP3    H242882   1.091   1.506   2.892 -0.9710  0.1798 -0.8351
 7083TIP3   OH242883   2.202   5.360   0.813 -0.1911 -0.3813 -0.3400
 7083TIP3    H142884   2.271   5.349   0.747  1.1012  1.1595  0.6748
 7083TIP3    H242885   2.247   5.397   0.889 -1.6696 -1.8728  1.3663
 7084TIP3   OH242886   4.635   5.300   7.138  0.3707 -0.2461 -0.2751
 7084TIP3    H142887   4.558   5.349   7.108 -0.0084  1.2288  2.6765
 7084TIP3    H242888   4.686   5.364   7.188  1.2430 -2.1998  1.4985
 7085TIP3   OH242889   4.118   1.235   8.625  0.3206 -0.0223  0.1469
 7085TIP3    H142890   4.110   1.216   8.719  0.6048  0.6490  0.3146
 7085TIP3    H242891   4.067   1.315   8.613 -0.1910 -0.4286 -0.3846
 7086TIP3   OH242892   3.952   4.482   1.153  0.4245  0.0966  0.0226
 7086TIP3    H142893   3.934   4.517   1.066  1.7611  1.9164  0.4252
 7086TIP3    H242894   3.997   4.553   1.199 -1.3510 -0.3252  2.6523
 7087TIP3   OH242895   1.280   4.004   0.801  0.1822 -0.4152 -0.5047
 7087TIP3    H142896   1.268   3.910   0.790 -1.3600 -0.7004  2.5524
 7087TIP3    H242897   1.194   4.036   0.830  1.1521  1.6247  0.3183
 7088TIP3   OH242898   0.004   4.257   7.438 -0.1133  0.1367 -0.2340
 7088TIP3    H142899  -0.057   4.225   7.371 -0.9111  0.9029  0.0991
 7088TIP3    H242900   0.046   4.333   7.398 -2.6399  2.3701  1.0161
 7089TIP3   OH242901   5.942   4.087   2.742 -0.1887 -0.4816  0.3348
 7089TIP3    H142902   5.863   4.094   2.689  0.5877  1.0216 -0.6651
 7089TIP3    H242903   5.913   4.109   2.831 -0.6834  1.2186 -0.2289
 7090TIP3   OH242904   0.356   2.789   0.515 -0.0830  0.3692  0.2785
 7090TIP3    H142905   0.305   2.792   0.595  0.8549  1.5673  0.8691
 7090TIP3    H242906   0.329   2.868   0.466  1.2521  1.1057  0.6704
 7091TIP3   OH242907   6.593   0.579   1.693  0.3017 -0.2315 -0.0172
 7091TIP3    H142908   6.523   0.641   1.713 -1.0805 -0.5035 -3.3355
 7091TIP3    H242909   6.674   0.628   1.707 -0.4646  0.3182  3.2189
 7092TIP3   OH242910   5.194   4.754   0.133 -0.1602 -0.2673 -0.1419
 7092TIP3    H142911   5.144   4.716   0.061 -1.2798  0.6965  0.0973
 7092TIP3    H242912   5.247   4.822   0.092  0.4862 -0.8570 -0.2985
 7093TIP3   OH242913   1.777   0.482   8.182  0.2366 -0.6389  0.8875
 7093TIP3    H142914   1.871   0.464   8.189  0.2253 -0.7700  0.6998
 7093TIP3    H242915   1.769   0.575   8.205  0.7567  0.1226 -1.6503
 7094TIP3   OH242916   2.641   2.166   7.021 -0.2606  0.0711 -0.2718
 7094TIP3    H142917   2.730   2.130   7.015 -0.8699 -1.4257 -0.7716
 7094TIP3    H242918   2.635   2.225   6.946 -0.1979 -1.0375 -1.1738
 7095TIP3   OH242919   2.119   3.183   2.055 -0.0936 -0.1086 -0.3019
 7095TIP3    H142920   2.207   3.194   2.090  0.2825  0.7127 -1.4415
 7095TIP3    H242921   2.132   3.149   1.967 -0.9453 -0.4217 -0.3185
 7096TIP3   OH242922   2.593   2.903   7.383 -0.3285 -0.5002 -0.7365
 7096TIP3    H142923   2.524   2.848   7.420  0.2511 -0.4976  0.4008
 7096TIP3    H242924   2.549   2.982   7.354 -0.9464 -0.9213 -0.9644
 7097TIP3   OH242925   5.658   4.446   2.007  0.3172  0.1516  0.9996
 7097TIP3    H142926   5.627   4.510   2.070  1.6902 -0.1966  2.0828
 7097TIP3    H242927   5.585   4.384   1.998  0.4995 -0.4847  3.2175
 7098TIP3   OH242928   2.031   6.714   8.121 -0.1586 -0.1718 -1.0575
 7098TIP3    H142929   2.056   6.690   8.031 -2.2240 -0.2472 -1.6714
 7098TIP3    H242930   2.069   6.645   8.175  2.1998  0.5514 -1.6872
 7099TIP3   OH242931   1.880   3.382   7.196 -0.5109 -0.4372  0.2611
 7099TIP3    H142932   1.902   3.365   7.288  2.6342  0.7590 -0.1684
 7099TIP3    H242933   1.896   3.476   7.185  0.6869 -0.8434 -1.8758
 7100TIP3   OH242934   1.278   0.703   0.350 -0.6169 -0.0055 -0.2177
 7100TIP3    H142935   1.261   0.624   0.402  1.1262  0.4114  1.0862
 7100TIP3    H242936   1.248   0.680   0.262 -1.4497 -1.6029  0.4348
 7101TIP3   OH242937   6.253   4.712   7.144  0.3382  0.3083  0.0499
 7101TIP3    H142938   6.346   4.728   7.125  0.3427 -1.1695 -1.4185
 7101TIP3    H242939   6.253   4.664   7.227  0.8915  0.3136  0.0556
 7102TIP3   OH242940   0.808   3.526   8.328  0.3021 -0.5507 -0.7183
 7102TIP3    H142941   0.733   3.572   8.367 -0.4458 -2.5555  0.3812
 7102TIP3    H242942   0.883   3.583   8.347 -0.5358  0.1243  0.7777
 7103TIP3   OH242943   6.025   5.725   8.383  0.3733 -0.7613  0.0129
 7103TIP3    H142944   6.111   5.693   8.356  0.5262 -0.9999  0.7497
 7103TIP3    H242945   6.018   5.812   8.344  1.1297 -0.5706  0.2799
 7104TIP3   OH242946   5.763   1.564   7.663 -0.0486  0.0733  0.0696
 7104TIP3    H142947   5.742   1.645   7.710  1.2490 -0.2141  1.2086
 7104TIP3    H242948   5.682   1.514   7.664 -0.9591  1.4599 -0.9179
 7105TIP3   OH242949   3.216   3.953   8.052  0.0246  0.8548 -0.3656
 7105TIP3    H142950   3.312   3.949   8.059 -0.0713  1.4172  1.7042
 7105TIP3    H242951   3.201   4.031   7.998  0.7158 -0.7182 -3.0630
 7106TIP3   OH242952   1.435   1.449   0.504  0.2216  0.9841 -0.2585
 7106TIP3    H142953   1.463   1.386   0.438 -0.8084  0.6949 -0.4477
 7106TIP3    H242954   1.482   1.530   0.482 -0.1193  0.9033 -1.3724
 7107TIP3   OH242955   3.526   4.830   8.155 -0.1071 -0.0661  0.4503
 7107TIP3    H142956   3.568   4.798   8.075  0.5111 -0.0849  0.7767
 7107TIP3    H242957   3.440   4.788   8.155 -0.9935  1.5507 -1.2863
 7108TIP3   OH242958   5.630   3.261   0.045 -0.1030 -0.1305 -0.1695
 7108TIP3    H142959   5.667   3.182   0.006 -1.9875 -1.8540  1.3267
 7108TIP3    H242960   5.555   3.283  -0.011  1.4485  1.7810 -1.6486
 7109TIP3   OH242961   3.520   1.925   2.805  0.2590 -0.6322  0.0773
 7109TIP3    H142962   3.488   1.861   2.741  0.7578 -1.2093  0.3883
 7109TIP3    H242963   3.514   1.880   2.889  2.5643 -1.0947  0.0796
 7110TIP3   OH242964   1.649   5.583   0.674  0.4019  0.0639 -0.0663
 7110TIP3    H142965   1.677   5.636   0.749  1.3508  0.9108 -0.9864
 7110TIP3    H242966   1.628   5.498   0.711 -1.2216  1.0788  1.4749
 7111TIP3   OH242967   2.835   2.941   7.035  0.1513 -0.1710  1.3838
 7111TIP3    H142968   2.899   3.003   7.070  1.1396 -0.9864  1.0819
 7111TIP3    H242969   2.766   2.996   6.998  2.5345  0.9806 -1.9124
 7112TIP3   OH242970   5.926   2.834   0.650 -0.3520  0.0375 -0.1073
 7112TIP3    H142971   5.852   2.800   0.600  0.1735  0.8155 -1.4692
 7112TIP3    H242972   5.964   2.901   0.593  1.2465 -0.1742  0.6679
 7113TIP3   OH242973   4.491   3.738   0.877 -0.4991  0.1290 -0.1207
 7113TIP3    H142974   4.437   3.703   0.948  0.1633  0.5470  0.6154
 7113TIP3    H242975   4.491   3.670   0.810  0.1436 -0.9621  0.9555
 7114TIP3   OH242976   4.832   5.077   1.037  0.5075  0.2182 -0.1133
 7114TIP3    H142977   4.886   5.092   1.115  0.4475  0.9233 -0.2077
 7114TIP3    H242978   4.894   5.070   0.965  0.4619  1.3683 -0.2740
 7115TIP3   OH242979   6.284   3.990   0.762  0.1090 -0.2088  0.4707
 7115TIP3    H142980   6.346   3.917   0.754  0.1546 -0.1027 -0.1391
 7115TIP3    H242981   6.213   3.968   0.701 -0.6420 -0.5099  1.4194
 7116TIP3   OH242982   0.183   3.835   3.256  0.0779 -0.5757  0.4077
 7116TIP3    H142983   0.186   3.815   3.349  2.1506  2.5287  1.1398
 7116TIP3    H242984   0.274   3.852   3.231 -0.6492  0.7005 -1.6806
 7117TIP3   OH242985   1.467   4.085   7.223 -0.0301  0.0840 -0.0401
 7117TIP3    H142986   1.397   4.150   7.233 -0.0887  0.3129 -1.6833
 7117TIP3    H242987   1.513   4.112   7.144  0.9586 -0.9677  0.1569
 7118TIP3   OH242988   1.710   6.356   7.830 -0.2098  0.2491 -0.0286
 7118TIP3    H142989   1.711   6.345   7.735 -0.5762 -0.6133  0.0555
 7118TIP3    H242990   1.757   6.280   7.864  0.7393  1.0331  0.4577
 7119TIP3   OH242991   1.279   2.052   8.372  0.2722  0.1260 -0.6420
 7119TIP3    H142992   1.204   2.111   8.365  0.1173 -0.0083 -0.1569
 7119TIP3    H242993   1.275   2.020   8.462 -0.4184 -1.6166 -1.2444
 7120TIP3   OH242994   5.586   5.712   1.001  0.1227  0.1574  0.4788
 7120TIP3    H142995   5.621   5.664   0.926 -0.4180 -0.0840  0.3780
 7120TIP3    H242996   5.611   5.660   1.077  3.5826  2.0326  0.8281
 7121TIP3   OH242997   1.321   0.690   8.483 -0.0001 -0.0213  0.6588
 7121TIP3    H142998   1.283   0.773   8.456 -1.0416 -1.1941 -1.8599
 7121TIP3    H242999   1.346   0.703   8.574  1.6420  3.6190 -0.1511
 7122TIP3   OH243000   0.853   0.793   0.186  0.0077 -0.2330 -0.0082
 7122TIP3    H143001   0.838   0.826   0.097  0.9778 -1.9053 -0.8276
 7122TIP3    H243002   0.939   0.826   0.210 -0.2045  0.1186  0.3006
 7123TIP3   OH243003   2.002   0.298   0.012 -0.0038 -0.1834 -0.4672
 7123TIP3    H143004   2.013   0.300   0.107 -1.3095 -0.3708 -0.2914
 7123TIP3    H243005   2.065   0.361  -0.021 -1.3223  1.8749  0.7234
 7124TIP3   OH243006   5.869   5.117   2.086 -0.0320  0.5043 -0.3603
 7124TIP3    H143007   5.841   5.032   2.051  1.5016 -0.1934  0.0047
 7124TIP3    H243008   5.833   5.181   2.026  1.2355 -0.5816 -2.4017
 7125TIP3   OH243009   0.809   2.517   8.793 -0.4454 -0.3207  0.4839
 7125TIP3    H143010   0.758   2.522   8.874 -1.5180 -1.2318 -0.0915
 7125TIP3    H243011   0.817   2.607   8.763  1.2416  0.2048  2.3317
 7126TIP3   OH243012   0.270   5.711   0.111 -0.3768  0.4250 -0.1225
 7126TIP3    H143013   0.343   5.772   0.099 -1.4917  1.9842  0.5945
 7126TIP3    H243014   0.244   5.687   0.023  0.8390  0.0133 -0.3962
 7127TIP3   OH243015   1.322   5.914   1.541 -0.0129 -0.2254 -1.1662
 7127TIP3    H143016   1.355   5.867   1.617 -0.2080  0.6391 -0.5337
 7127TIP3    H243017   1.385   5.985   1.528 -0.4774  0.1790 -1.2391
 7128TIP3   OH243018   0.138   3.102   8.531  0.2434  0.1844 -0.1162
 7128TIP3    H143019   0.155   3.126   8.440 -2.4845 -0.5667 -0.9417
 7128TIP3    H243020   0.155   3.008   8.534  0.1776  0.1789  0.0940
 7129TIP3   OH243021   0.399   1.710   2.957  0.0734  0.2137 -0.2373
 7129TIP3    H143022   0.489   1.732   2.934  0.7117 -0.8169  1.1083
 7129TIP3    H243023   0.348   1.786   2.931  1.4693  1.2059 -0.1909
 7130TIP3   OH243024   0.995   6.747   1.184 -0.0227 -0.1832  0.3459
 7130TIP3    H143025   0.968   6.780   1.098  0.9003  0.6367  0.3511
 7130TIP3    H243026   0.939   6.793   1.247 -0.6549 -0.7362  0.2044
 7131TIP3   OH243027   6.094   3.477   1.609 -0.0608 -0.5673  0.1666
 7131TIP3    H143028   6.037   3.554   1.604  0.8629  0.2009  0.8982
 7131TIP3    H243029   6.180   3.510   1.584  1.0342 -0.5443  3.4466
 7132TIP3   OH243030   6.600   1.307   1.019  0.5246  0.4394  0.1991
 7132TIP3    H143031   6.606   1.230   0.962 -3.3910  0.6922 -0.8461
 7132TIP3    H243032   6.589   1.381   0.959 -1.6830  0.9687  1.1632
 7133TIP3   OH243033   1.791   3.254   2.680  0.4267 -0.0245 -0.8015
 7133TIP3    H143034   1.781   3.189   2.749 -0.5646  0.4876 -0.4501
 7133TIP3    H243035   1.857   3.315   2.713 -1.8148  1.6390  0.8329
 7134TIP3   OH243036   4.926   3.094   8.065  0.1505 -0.1031 -0.3372
 7134TIP3    H143037   4.984   3.103   7.989  0.4103 -0.5352 -0.1958
 7134TIP3    H243038   4.865   3.167   8.057 -0.2412 -0.5161 -1.3185
 7135TIP3   OH243039   3.764   5.083   0.778 -0.1578 -0.2108 -0.1552
 7135TIP3    H143040   3.751   5.139   0.855 -1.3964 -0.8994  0.1582
 7135TIP3    H243041   3.732   5.135   0.705  0.5773  0.2589 -0.1571
 7136TIP3   OH243042   3.590   2.260   0.351  0.3312 -0.2339 -0.4262
 7136TIP3    H143043   3.625   2.348   0.336  1.7239 -0.0777  2.8931
 7136TIP3    H243044   3.550   2.236   0.267  0.7830  3.1108 -1.7739
 7137TIP3   OH243045   5.246   4.634   7.543 -0.2739  0.0223  0.1358
 7137TIP3    H143046   5.195   4.695   7.489  1.6629  2.9796  1.3544
 7137TIP3    H243047   5.322   4.612   7.489  0.4633  1.0676  0.7069
 7138TIP3   OH243048   6.238   4.247   0.239  0.0448  0.1001 -0.6468
 7138TIP3    H143049   6.288   4.215   0.314 -1.3677 -1.1428 -0.1885
 7138TIP3    H243050   6.301   4.249   0.167  1.0584 -0.1661  0.2054
 7139TIP3   OH243051   6.688   5.826   0.124  0.1217  0.0497  0.2899
 7139TIP3    H143052   6.633   5.761   0.080 -0.4003  0.9054 -0.3269
 7139TIP3    H243053   6.633   5.904   0.131  2.3483  2.3620 -3.9504
 7140TIP3   OH243054   1.527   3.575   1.368  0.1121  0.3611 -0.4358
 7140TIP3    H143055   1.573   3.499   1.333  0.1666  0.5319 -0.7338
 7140TIP3    H243056   1.597   3.636   1.394  0.0733  0.2361 -0.0258
 7141TIP3   OH243057   4.485   6.178   8.102 -0.5112 -0.4210  0.2669
 7141TIP3    H143058   4.474   6.270   8.127  0.1757  0.4755 -2.4503
 7141TIP3    H243059   4.579   6.168   8.091 -0.5449 -1.5996  0.9070
 7142TIP3   OH243060   6.333   2.601   8.495  0.0133 -0.2345 -0.3391
 7142TIP3    H143061   6.340   2.677   8.437  1.3231  0.4999  0.7068
 7142TIP3    H243062   6.419   2.596   8.537 -0.3902 -1.7006  0.3498
 7143TIP3   OH243063   5.240   1.694   2.317 -0.2998 -0.0542 -0.3836
 7143TIP3    H143064   5.192   1.625   2.364 -1.7677  1.0658 -0.1692
 7143TIP3    H243065   5.235   1.668   2.225 -1.3094  0.0159 -0.3584
 7144TIP3   OH243066   3.611   5.851   1.356 -0.0183  0.2955 -0.1279
 7144TIP3    H143067   3.644   5.927   1.308  1.2655  0.9520  1.6726
 7144TIP3    H243068   3.527   5.880   1.391  0.5094  0.9619  0.6344
 7145TIP3   OH243069   5.169   3.603   0.065 -0.2398  0.2944  0.0735
 7145TIP3    H143070   5.186   3.691   0.100 -0.1084 -0.1319  1.1358
 7145TIP3    H243071   5.247   3.553   0.089 -0.1194 -0.0177 -0.9133
 7146TIP3   OH243072   2.444   2.534   7.932 -0.1091 -0.0947 -0.1803
 7146TIP3    H143073   2.483   2.459   7.887  0.3301 -0.1701  0.3221
 7146TIP3    H243074   2.518   2.582   7.969 -0.3528  0.8355 -0.8658
 7147TIP3   OH243075   4.694   0.757   1.387 -0.4276 -0.1402  0.8635
 7147TIP3    H143076   4.735   0.681   1.428 -1.0242  0.4624  2.6439
 7147TIP3    H243077   4.732   0.832   1.432 -1.5130  0.5309  0.6939
 7148TIP3   OH243078   6.404   6.512   1.892  0.3030 -0.3021  0.4745
 7148TIP3    H143079   6.382   6.600   1.860 -2.5658 -1.3870 -1.0097
 7148TIP3    H243080   6.446   6.470   1.817 -0.8032 -0.9645  0.1974
 7149LIG     O143081   4.264   5.433   2.317  0.3047 -0.2509 -0.6394
 7149LIG     O243082   4.349   5.211   2.347 -0.1154  0.2512 -0.3114
 7149LIG     O343083   4.476   5.320   2.508  0.2627 -0.6674 -0.4562
 7149LIG     O443084   4.218   5.325   2.034  0.1243 -0.5387 -0.3269
 7149LIG     O543085   4.485   5.449   2.019 -0.2134 -0.4535 -0.6046
 7149LIG     O643086   4.267   5.019   2.569  0.3283  0.3105  0.3611
 7149LIG     O743087   4.504   4.988   2.392  0.0616  0.0689 -0.4856
 7149LIG     O843088   4.756   5.081   2.547  0.1036 -0.1358  0.4773
 7149LIG     O943089   4.095   5.108   2.291 -0.0322 -0.0642  0.1360
 7149LIG    O1043090   4.492   5.569   2.420  0.2215  0.0885 -0.3538
 7149LIG    O1143091   4.692   5.419   2.655  0.2151 -0.0360 -0.1285
 7149LIG     C143092   4.253   5.297   2.282 -0.5052  0.2226  0.1928
 7149LIG     C243093   4.309   5.288   2.139  0.2665 -0.6622 -0.3373
 7149LIG     C343094   4.430   5.395   2.141 -0.3407 -0.4605 -0.2959
 7149LIG     C443095   4.359   5.502   2.225  0.3638  0.1027 -0.2949
 7149LIG     C543096   4.364   5.238   2.486  0.0438 -0.1908 -0.0662
 7149LIG     C643097   4.378   5.107   2.566  0.0535 -0.3203  0.8153
 7149LIG     C743098   4.512   5.037   2.528 -0.4960  0.5243  0.0059
 7149LIG     C843099   4.621   5.137   2.567 -0.3592  0.7021 -0.1613
 7149LIG     C943100   4.603   5.260   2.488 -0.6510  0.1000  0.0512
 7149LIG    C1043101   4.109   5.248   2.313 -0.7355  0.3753  0.6664
 7149LIG    C1143102   4.445   5.610   2.294  0.5376 -0.3770  0.0435
 7149LIG    C1243103   4.705   5.364   2.519 -0.5747  0.2866 -0.5755
 7149LIG     H143104   4.352   5.189   2.115  0.2360 -0.7972  0.1444
 7149LIG     H243105   4.505   5.358   2.213 -0.8398  0.7720  0.8903
 7149LIG     H343106   4.303   5.558   2.148 -0.8665  0.7003  0.9956
 7149LIG     H443107   4.276   5.295   2.524 -0.0838  0.1580 -0.8721
 7149LIG     H543108   4.389   5.153   2.667  0.6776 -0.9231  1.0271
 7149LIG     H643109   4.520   4.955   2.602  1.0316  1.5493  1.0205
 7149LIG     H743110   4.612   5.165   2.674  0.7632  3.3972 -0.6900
 7149LIG     H843111   4.617   5.217   2.386  0.8820 -1.2788  0.7875
 7149LIG     H943112   4.090   5.267   2.421  1.2094  0.2824  1.0603
 7149LIG    H1043113   4.038   5.297   2.244  0.6959  2.1765  0.3742
 7149LIG    H1143114   4.533   5.614   2.226 -0.2186 -0.4499 -0.9606
 7149LIG    H1243115   4.387   5.704   2.308  0.6917  0.1143 -2.2889
 7149LIG    H1343116   4.803   5.315   2.502 -1.1682 -0.7970 -0.9405
 7149LIG    H1443117   4.715   5.447   2.445  1.1923  0.4312 -0.2013
 7149LIG    H1543118   4.220   5.256   1.968  2.4339 -0.2928 -0.6070
 7149LIG    H1643119   4.422   5.499   1.968  1.3005  0.7831 -1.3360
 7149LIG    H1743120   4.211   5.068   2.630  0.2330  0.9210 -0.2140
 7149LIG    H1843121   4.574   4.924   2.406 -0.1476 -0.2158 -0.7468
 7149LIG    H1943122   4.765   5.009   2.609  0.6089 -0.1893  0.3405
 7149LIG    H2043123   4.001   5.093   2.300 -0.1031 -0.3879 -0.9647
 7149LIG    H2143124   4.472   5.478   2.442 -1.7687  0.9052  1.5581
 7149LIG    H2243125   4.748   5.496   2.664  0.9300 -0.5532 -0.0819
   6.85572   6.85572   8.84177
